MODEL 1
REMARK VINA RESULT:      -7.5      0.000      0.000
REMARK  9 active torsions:
REMARK  status: ('A' for Active; 'I' for Inactive)
REMARK    1  A    between atoms: N_3  and  C_6 
REMARK    2  A    between atoms: C_6  and  C_9 
REMARK    3  A    between atoms: C_14  and  C_17 
REMARK       I    between atoms: N_26  and  C_15 
REMARK    4  A    between atoms: C_15  and  C_16 
REMARK    5  A    between atoms: C_20  and  C_23 
REMARK    6  A    between atoms: OG1_24  and  CB_28 
REMARK    7  A    between atoms: N_26  and  CA_27 
REMARK    8  A    between atoms: CA_27  and  CB_28 
REMARK    9  A    between atoms: CA_27  and  C_30 
ROOT
HETATM    1  O   UNK A   0       1.916   8.052  87.829  1.00  0.00    -0.388 OA
HETATM    2  N   UNK A   0       4.710   7.534  87.675  1.00  0.00     0.096 N 
HETATM    3  C   UNK A   0       4.187   8.904  87.770  1.00  0.00     0.299 C 
HETATM    4  C   UNK A   0       3.730   6.666  87.009  1.00  0.00     0.299 C 
HETATM    5  C   UNK A   0       2.849   8.897  88.504  1.00  0.00     0.198 C 
HETATM    6  C   UNK A   0       2.403   6.712  87.760  1.00  0.00     0.198 C 
ENDROOT
BRANCH   2   7
HETATM    7  C   UNK A   0       5.988   7.516  86.965  1.00  0.00     0.311 C 
BRANCH   7   8
HETATM    8  C   UNK A   0       7.083   6.918  87.781  1.00  0.00    -0.030 A 
HETATM    9  C   UNK A   0       6.859   6.600  89.121  1.00  0.00     0.010 A 
HETATM   10  C   UNK A   0       7.883   6.043  89.887  1.00  0.00     0.021 A 
HETATM   11  C   UNK A   0       9.130   5.801  89.311  1.00  0.00     0.018 A 
HETATM   12  C   UNK A   0       9.355   6.118  87.973  1.00  0.00     0.021 A 
HETATM   13  C   UNK A   0       8.331   6.676  87.207  1.00  0.00     0.010 A 
BRANCH  11  14
HETATM   14  C   UNK A   0      10.180   5.227  90.095  1.00  0.00    -0.061 C 
HETATM   15  C   UNK A   0      11.062   4.744  90.754  1.00  0.00    -0.061 C 
BRANCH  15  16
HETATM   16  C   UNK A   0      12.111   4.170  91.537  1.00  0.00     0.018 A 
HETATM   17  C   UNK A   0      11.871   3.803  92.862  1.00  0.00     0.022 A 
HETATM   18  C   UNK A   0      12.894   3.240  93.624  1.00  0.00     0.018 A 
HETATM   19  C   UNK A   0      14.133   3.057  93.047  1.00  0.00     0.032 A 
HETATM   20  C   UNK A   0      14.396   3.413  91.740  1.00  0.00     0.018 A 
HETATM   21  C   UNK A   0      13.373   3.975  90.976  1.00  0.00     0.022 A 
BRANCH  19  22
HETATM   22  C   UNK A   0      15.223   2.460  93.861  1.00  0.00     0.252 C 
HETATM   23  O   UNK A   0      16.376   2.854  93.701  1.00  0.00    -0.268 OA
ENDBRANCH  19  22
ENDBRANCH  15  16
ENDBRANCH  11  14
ENDBRANCH   7   8
ENDBRANCH   2   7
TORSDOF 9
ENDMDL
