MODEL 1
REMARK VINA RESULT:      -6.0      0.000      0.000
REMARK  11 active torsions:
REMARK  status: ('A' for Active; 'I' for Inactive)
REMARK    1  A    between atoms: O_2  and  C_18 
REMARK    2  A    between atoms: O_5  and  P_8 
REMARK    3  A    between atoms: N_6  and  C_11 
REMARK    4  A    between atoms: N_7  and  C_15 
REMARK       I    between atoms: N_7  and  C_24 
REMARK    5  A    between atoms: P_8  and  C_23 
REMARK    6  A    between atoms: C_11  and  C_14 
REMARK    7  A    between atoms: C_15  and  C_18 
REMARK    8  A    between atoms: C_15  and  C_23 
REMARK    9  A    between atoms: C_21  and  C_26 
REMARK   10  A    between atoms: C_24  and  C_25 
REMARK   11  A    between atoms: C_29  and  C_32 
ROOT
HETATM    1  O   UNL     1      16.592   2.868  93.233  1.00  0.00     0.000 OA
HETATM    2  N   UNL     1      13.768   2.750  92.895  1.00  0.00     0.000 N 
HETATM    3  C   UNL     1      14.528   1.603  93.410  1.00  0.00     0.000 C 
HETATM    4  C   UNL     1      14.615   3.558  92.007  1.00  0.00     0.000 C 
HETATM    5  C   UNL     1      15.786   2.095  94.123  1.00  0.00     0.000 C 
HETATM    6  C   UNL     1      15.870   4.002  92.751  1.00  0.00     0.000 C 
ENDROOT
BRANCH   2   7
HETATM    7  C   UNL     1      12.563   2.302  92.198  1.00  0.00     0.000 C 
BRANCH   7   8
HETATM    8  C   UNL     1      11.621   3.422  91.915  1.00  0.00     0.000 A 
HETATM    9  C   UNL     1      11.057   3.554  90.645  1.00  0.00     0.000 A 
HETATM   10  C   UNL     1      10.178   4.602  90.378  1.00  0.00     0.000 A 
HETATM   11  C   UNL     1       9.860   5.517  91.382  1.00  0.00     0.000 A 
HETATM   12  C   UNL     1      10.422   5.387  92.650  1.00  0.00     0.000 A 
HETATM   13  C   UNL     1      11.303   4.339  92.917  1.00  0.00     0.000 A 
BRANCH  11  14
HETATM   14  C   UNL     1       8.956   6.592  91.108  1.00  0.00     0.000 C 
HETATM   15  C   UNL     1       8.196   7.495  90.879  1.00  0.00     0.000 C 
BRANCH  15  16
HETATM   16  C   UNL     1       7.293   8.569  90.606  1.00  0.00     0.000 A 
HETATM   17  C   UNL     1       7.473   9.806  91.227  1.00  0.00     0.000 A 
HETATM   18  C   UNL     1       6.594  10.854  90.958  1.00  0.00     0.000 A 
HETATM   19  C   UNL     1       5.556  10.644  90.074  1.00  0.00     0.000 A 
HETATM   20  C   UNL     1       5.356   9.431  89.448  1.00  0.00     0.000 A 
HETATM   21  C   UNL     1       6.235   8.382  89.717  1.00  0.00     0.000 A 
BRANCH  19  22
HETATM   22  C   UNL     1       4.618  11.761  89.790  1.00  0.00     0.000 C 
HETATM   23  O   UNL     1       4.084  11.829  88.685  1.00  0.00     0.000 OA
HETATM   24  N   UNL     1       4.397  12.650  90.832  1.00  0.00     0.000 N 
HETATM   25  HN  UNL     1       4.855  12.516  91.726  1.00  0.00     0.000 HD
BRANCH  24  26
HETATM   26  C   UNL     1       3.497  13.769  90.719  1.00  0.00     0.000 C 
BRANCH  26  27
HETATM   27  C   UNL     1       2.243  13.613  91.589  1.00  0.00     0.000 C 
HETATM   28  C   UNL     1       2.526  12.880  92.896  1.00  0.00     0.000 C 
BRANCH  27  29
HETATM   29  O   UNL     1       1.705  14.901  91.888  1.00  0.00     0.000 OA
HETATM   30  H   UNL     1       0.818  14.781  92.266  1.00  0.00     0.000 HD
ENDBRANCH  27  29
ENDBRANCH  26  27
BRANCH  26  31
HETATM   31  C   UNL     1       4.273  15.030  91.087  1.00  0.00     0.000 C 
HETATM   32  O   UNL     1       4.316  15.480  92.230  1.00  0.00     0.000 OA
BRANCH  31  33
HETATM   33  P   UNL     1       4.872  15.607  89.994  1.00  0.00     0.000 P 
HETATM   34  H   UNL     1       4.126  16.713  89.637  1.00  0.00     0.000 HD
BRANCH  33  35
HETATM   35  O   UNL     1       4.995  14.789  88.862  1.00  0.00     0.000 OA
HETATM   36  H   UNL     1       5.234  13.945  89.282  1.00  0.00     0.000 HD
ENDBRANCH  33  35
ENDBRANCH  31  33
ENDBRANCH  26  31
ENDBRANCH  24  26
ENDBRANCH  19  22
ENDBRANCH  15  16
ENDBRANCH  11  14
ENDBRANCH   7   8
ENDBRANCH   2   7
TORSDOF 11
ENDMDL
