MODEL 1
REMARK VINA RESULT:      -6.6      0.000      0.000
REMARK  14 active torsions:
REMARK  status: ('A' for Active; 'I' for Inactive)
REMARK    1  A    between atoms: O_2  and  C_18 
REMARK    2  A    between atoms: C_5  and  C_8 
REMARK    3  A    between atoms: C_5  and  O_35 
REMARK    4  A    between atoms: C_5  and  C_36 
REMARK    5  A    between atoms: N_6  and  C_11 
REMARK    6  A    between atoms: N_7  and  C_15 
REMARK       I    between atoms: N_7  and  C_24 
REMARK    7  A    between atoms: C_8  and  C_23 
REMARK    8  A    between atoms: C_11  and  C_14 
REMARK    9  A    between atoms: C_15  and  C_18 
REMARK   10  A    between atoms: C_15  and  C_23 
REMARK   11  A    between atoms: C_21  and  C_26 
REMARK   12  A    between atoms: C_24  and  C_25 
REMARK   13  A    between atoms: C_29  and  C_32 
REMARK   14  A    between atoms: C_36  and  O_39 
ROOT
HETATM    1  O   UNL     1      16.032   4.616  93.698  1.00  0.00    -0.350 OA
HETATM    2  N   UNL     1      14.276   2.742  92.470  1.00  0.00     0.147 N 
HETATM    3  C   UNL     1      14.320   4.147  92.043  1.00  0.00     0.283 C 
HETATM    4  C   UNL     1      14.644   2.636  93.889  1.00  0.00     0.283 C 
HETATM    5  C   UNL     1      15.708   4.726  92.311  1.00  0.00     0.178 C 
HETATM    6  C   UNL     1      16.022   3.250  94.114  1.00  0.00     0.178 C 
ENDROOT
BRANCH   2   7
HETATM    7  C   UNL     1      12.952   2.170  92.232  1.00  0.00     0.277 C 
BRANCH   7   8
HETATM    8  C   UNL     1      11.894   3.215  92.120  1.00  0.00     0.011 A 
HETATM    9  C   UNL     1      11.209   3.386  90.916  1.00  0.00    -0.002 A 
HETATM   10  C   UNL     1      10.221   4.365  90.810  1.00  0.00     0.008 A 
HETATM   11  C   UNL     1       9.916   5.169  91.907  1.00  0.00     0.042 A 
HETATM   12  C   UNL     1      10.599   4.998  93.110  1.00  0.00     0.008 A 
HETATM   13  C   UNL     1      11.588   4.021  93.217  1.00  0.00    -0.002 A 
BRANCH  11  14
HETATM   14  C   UNL     1       8.901   6.171  91.798  1.00  0.00    -0.059 C 
HETATM   15  C   UNL     1       8.047   7.013  91.708  1.00  0.00    -0.059 C 
BRANCH  15  16
HETATM   16  C   UNL     1       7.032   8.014  91.600  1.00  0.00     0.042 A 
HETATM   17  C   UNL     1       6.237   8.321  92.704  1.00  0.00     0.008 A 
HETATM   18  C   UNL     1       5.249   9.300  92.599  1.00  0.00     0.005 A 
HETATM   19  C   UNL     1       5.079   9.950  91.395  1.00  0.00     0.056 A 
HETATM   20  C   UNL     1       5.852   9.664  90.289  1.00  0.00     0.005 A 
HETATM   21  C   UNL     1       6.840   8.685  90.392  1.00  0.00     0.008 A 
BRANCH  19  22
HETATM   22  C   UNL     1       4.025  10.992  91.283  1.00  0.00     0.254 C 
HETATM   23  O   UNL     1       2.868  10.651  91.049  1.00  0.00    -0.268 OA
HETATM   24  N   UNL     1       4.441  12.301  91.482  1.00  0.00    -0.335 N 
HETATM   25  HN  UNL     1       5.410  12.504  91.696  1.00  0.00     0.164 HD
BRANCH  24  26
HETATM   26  C   UNL     1       3.534  13.419  91.430  1.00  0.00     0.169 C 
BRANCH  26  27
HETATM   27  C   UNL     1       3.066  13.869  92.820  1.00  0.00     0.138 C 
HETATM   28  C   UNL     1       4.179  13.801  93.860  1.00  0.00     0.034 C 
BRANCH  27  29
HETATM   29  O   UNL     1       2.579  15.209  92.750  1.00  0.00    -0.383 OA
HETATM   30  H   UNL     1       3.226  15.743  92.258  1.00  0.00     0.210 HD
ENDBRANCH  27  29
ENDBRANCH  26  27
BRANCH  26  31
HETATM   31  C   UNL     1       4.232  14.552  90.686  1.00  0.00     0.194 C 
HETATM   32  O   UNL     1       4.992  15.347  91.238  1.00  0.00    -0.289 OA
BRANCH  31  33
HETATM   33  C   UNL     1       3.883  14.595  89.359  1.00  0.00     0.053 C 
BRANCH  33  34
HETATM   34  C   UNL     1       4.787  13.996  88.470  1.00  0.00     0.220 C 
BRANCH  34  35
HETATM   35  O   UNL     1       5.924  14.077  88.972  1.00  0.00    -0.371 OA
HETATM   36  H   UNL     1       5.702  14.617  89.715  1.00  0.00     0.211 HD
ENDBRANCH  34  35
BRANCH  34  37
HETATM   37  C   UNL     1       4.446  12.675  88.130  1.00  0.00     0.185 C 
HETATM   38  O   UNL     1       5.711  12.439  88.440  1.00  0.00    -0.647 OA
BRANCH  37  39
HETATM   39  O   UNL     1       3.484  12.100  87.718  1.00  0.00    -0.774 OA
HETATM   40  H   UNL     1       3.420  11.044  88.130  1.00  0.00     0.167 HD
ENDBRANCH  37  39
ENDBRANCH  34  37
ENDBRANCH  33  34
ENDBRANCH  31  33
ENDBRANCH  26  31
ENDBRANCH  24  26
ENDBRANCH  19  22
ENDBRANCH  15  16
ENDBRANCH  11  14
ENDBRANCH   7   8
ENDBRANCH   2   7
TORSDOF 14
ENDMDL
MODEL 2
REMARK VINA RESULT:      -5.4      2.641     12.780
REMARK  14 active torsions:
REMARK  status: ('A' for Active; 'I' for Inactive)
REMARK    1  A    between atoms: O_2  and  C_18 
REMARK    2  A    between atoms: C_5  and  C_8 
REMARK    3  A    between atoms: C_5  and  O_35 
REMARK    4  A    between atoms: C_5  and  C_36 
REMARK    5  A    between atoms: N_6  and  C_11 
REMARK    6  A    between atoms: N_7  and  C_15 
REMARK       I    between atoms: N_7  and  C_24 
REMARK    7  A    between atoms: C_8  and  C_23 
REMARK    8  A    between atoms: C_11  and  C_14 
REMARK    9  A    between atoms: C_15  and  C_18 
REMARK   10  A    between atoms: C_15  and  C_23 
REMARK   11  A    between atoms: C_21  and  C_26 
REMARK   12  A    between atoms: C_24  and  C_25 
REMARK   13  A    between atoms: C_29  and  C_32 
REMARK   14  A    between atoms: C_36  and  O_39 
ROOT
HETATM    1  O   UNL     1       2.740  14.464  94.124  1.00  0.00    -0.350 OA
HETATM    2  N   UNL     1       2.682  14.504  91.278  1.00  0.00     0.147 N 
HETATM    3  C   UNL     1       1.582  13.923  92.060  1.00  0.00     0.283 C 
HETATM    4  C   UNL     1       3.945  14.385  92.020  1.00  0.00     0.283 C 
HETATM    5  C   UNL     1       1.502  14.604  93.424  1.00  0.00     0.178 C 
HETATM    6  C   UNL     1       3.809  15.054  93.384  1.00  0.00     0.178 C 
ENDROOT
BRANCH   2   7
HETATM    7  C   UNL     1       2.785  13.859  89.971  1.00  0.00     0.277 C 
BRANCH   7   8
HETATM    8  C   UNL     1       3.801  12.768  89.954  1.00  0.00     0.011 A 
HETATM    9  C   UNL     1       3.515  11.542  90.555  1.00  0.00    -0.002 A 
HETATM   10  C   UNL     1       4.466  10.521  90.542  1.00  0.00     0.008 A 
HETATM   11  C   UNL     1       5.699  10.726  89.925  1.00  0.00     0.042 A 
HETATM   12  C   UNL     1       5.985  11.950  89.324  1.00  0.00     0.008 A 
HETATM   13  C   UNL     1       5.036  12.972  89.338  1.00  0.00    -0.002 A 
BRANCH  11  14
HETATM   14  C   UNL     1       6.673   9.678  89.910  1.00  0.00    -0.059 C 
HETATM   15  C   UNL     1       7.492   8.797  89.896  1.00  0.00    -0.059 C 
BRANCH  15  16
HETATM   16  C   UNL     1       8.465   7.750  89.880  1.00  0.00     0.042 A 
HETATM   17  C   UNL     1       8.869   7.193  88.666  1.00  0.00     0.008 A 
HETATM   18  C   UNL     1       9.821   6.174  88.651  1.00  0.00     0.005 A 
HETATM   19  C   UNL     1      10.347   5.735  89.848  1.00  0.00     0.056 A 
HETATM   20  C   UNL     1       9.965   6.269  91.060  1.00  0.00     0.005 A 
HETATM   21  C   UNL     1       9.013   7.288  91.077  1.00  0.00     0.008 A 
BRANCH  19  22
HETATM   22  C   UNL     1      11.360   4.648  89.830  1.00  0.00     0.254 C 
HETATM   23  O   UNL     1      11.655   4.119  88.761  1.00  0.00    -0.268 OA
HETATM   24  N   UNL     1      11.925   4.324  91.056  1.00  0.00    -0.335 N 
HETATM   25  HN  UNL     1      11.650   4.821  91.895  1.00  0.00     0.164 HD
BRANCH  24  26
HETATM   26  C   UNL     1      12.938   3.309  91.199  1.00  0.00     0.169 C 
BRANCH  26  27
HETATM   27  C   UNL     1      14.360   3.864  91.053  1.00  0.00     0.138 C 
HETATM   28  C   UNL     1      15.258   2.958  90.218  1.00  0.00     0.034 C 
BRANCH  27  29
HETATM   29  O   UNL     1      14.308   5.154  90.444  1.00  0.00    -0.383 OA
HETATM   30  H   UNL     1      15.064   5.235  89.838  1.00  0.00     0.210 HD
ENDBRANCH  27  29
ENDBRANCH  26  27
BRANCH  26  31
HETATM   31  C   UNL     1      12.740   2.641  92.556  1.00  0.00     0.194 C 
HETATM   32  O   UNL     1      12.136   1.579  92.699  1.00  0.00    -0.289 OA
BRANCH  31  33
HETATM   33  C   UNL     1      13.276   3.382  93.582  1.00  0.00     0.053 C 
BRANCH  33  34
HETATM   34  C   UNL     1      14.484   2.906  94.111  1.00  0.00     0.220 C 
BRANCH  34  35
HETATM   35  O   UNL     1      14.687   1.772  93.637  1.00  0.00    -0.371 OA
HETATM   36  H   UNL     1      13.971   1.322  94.060  1.00  0.00     0.211 HD
ENDBRANCH  34  35
BRANCH  34  37
HETATM   37  C   UNL     1      15.569   3.775  93.899  1.00  0.00     0.185 C 
HETATM   38  O   UNL     1      16.245   2.643  93.778  1.00  0.00    -0.647 OA
BRANCH  37  39
HETATM   39  O   UNL     1      15.755   4.954  93.891  1.00  0.00    -0.774 OA
HETATM   40  H   UNL     1      16.851   5.204  93.738  1.00  0.00     0.167 HD
ENDBRANCH  37  39
ENDBRANCH  34  37
ENDBRANCH  33  34
ENDBRANCH  31  33
ENDBRANCH  26  31
ENDBRANCH  24  26
ENDBRANCH  19  22
ENDBRANCH  15  16
ENDBRANCH  11  14
ENDBRANCH   7   8
ENDBRANCH   2   7
TORSDOF 14
ENDMDL
MODEL 3
REMARK VINA RESULT:      -5.3      2.758     12.277
REMARK  14 active torsions:
REMARK  status: ('A' for Active; 'I' for Inactive)
REMARK    1  A    between atoms: O_2  and  C_18 
REMARK    2  A    between atoms: C_5  and  C_8 
REMARK    3  A    between atoms: C_5  and  O_35 
REMARK    4  A    between atoms: C_5  and  C_36 
REMARK    5  A    between atoms: N_6  and  C_11 
REMARK    6  A    between atoms: N_7  and  C_15 
REMARK       I    between atoms: N_7  and  C_24 
REMARK    7  A    between atoms: C_8  and  C_23 
REMARK    8  A    between atoms: C_11  and  C_14 
REMARK    9  A    between atoms: C_15  and  C_18 
REMARK   10  A    between atoms: C_15  and  C_23 
REMARK   11  A    between atoms: C_21  and  C_26 
REMARK   12  A    between atoms: C_24  and  C_25 
REMARK   13  A    between atoms: C_29  and  C_32 
REMARK   14  A    between atoms: C_36  and  O_39 
ROOT
HETATM    1  O   UNL     1       3.215  14.659  93.959  1.00  0.00    -0.350 OA
HETATM    2  N   UNL     1       3.053  14.853  91.124  1.00  0.00     0.147 N 
HETATM    3  C   UNL     1       2.064  14.092  91.899  1.00  0.00     0.283 C 
HETATM    4  C   UNL     1       4.346  14.855  91.823  1.00  0.00     0.283 C 
HETATM    5  C   UNL     1       1.945  14.678  93.304  1.00  0.00     0.178 C 
HETATM    6  C   UNL     1       4.175  15.422  93.228  1.00  0.00     0.178 C 
ENDROOT
BRANCH   2   7
HETATM    7  C   UNL     1       3.191  14.302  89.777  1.00  0.00     0.277 C 
BRANCH   7   8
HETATM    8  C   UNL     1       4.112  13.130  89.734  1.00  0.00     0.011 A 
HETATM    9  C   UNL     1       5.341  13.234  89.083  1.00  0.00    -0.002 A 
HETATM   10  C   UNL     1       6.203  12.138  89.040  1.00  0.00     0.008 A 
HETATM   11  C   UNL     1       5.835  10.940  89.651  1.00  0.00     0.042 A 
HETATM   12  C   UNL     1       4.607  10.835  90.302  1.00  0.00     0.008 A 
HETATM   13  C   UNL     1       3.745  11.930  90.344  1.00  0.00    -0.002 A 
BRANCH  11  14
HETATM   14  C   UNL     1       6.720   9.816  89.609  1.00  0.00    -0.059 C 
HETATM   15  C   UNL     1       7.463   8.872  89.573  1.00  0.00    -0.059 C 
BRANCH  15  16
HETATM   16  C   UNL     1       8.348   7.749  89.530  1.00  0.00     0.042 A 
HETATM   17  C   UNL     1       8.561   6.986  90.679  1.00  0.00     0.008 A 
HETATM   18  C   UNL     1       9.422   5.890  90.636  1.00  0.00     0.005 A 
HETATM   19  C   UNL     1      10.049   5.580  89.447  1.00  0.00     0.056 A 
HETATM   20  C   UNL     1       9.855   6.319  88.299  1.00  0.00     0.005 A 
HETATM   21  C   UNL     1       8.995   7.416  88.340  1.00  0.00     0.008 A 
BRANCH  19  22
HETATM   22  C   UNL     1      10.967   4.413  89.403  1.00  0.00     0.254 C 
HETATM   23  O   UNL     1      11.065   3.766  88.363  1.00  0.00    -0.268 OA
HETATM   24  N   UNL     1      11.680   4.156  90.566  1.00  0.00    -0.335 N 
HETATM   25  HN  UNL     1      11.566   4.750  91.379  1.00  0.00     0.164 HD
BRANCH  24  26
HETATM   26  C   UNL     1      12.627   3.075  90.672  1.00  0.00     0.169 C 
BRANCH  26  27
HETATM   27  C   UNL     1      14.076   3.565  90.793  1.00  0.00     0.138 C 
HETATM   28  C   UNL     1      14.191   5.081  90.679  1.00  0.00     0.034 C 
BRANCH  27  29
HETATM   29  O   UNL     1      14.616   3.152  92.047  1.00  0.00    -0.383 OA
HETATM   30  H   UNL     1      14.344   2.233  92.209  1.00  0.00     0.210 HD
ENDBRANCH  27  29
ENDBRANCH  26  27
BRANCH  26  31
HETATM   31  C   UNL     1      12.228   2.222  91.872  1.00  0.00     0.194 C 
HETATM   32  O   UNL     1      12.727   1.123  92.107  1.00  0.00    -0.289 OA
BRANCH  31  33
HETATM   33  C   UNL     1      11.235   2.809  92.618  1.00  0.00     0.053 C 
BRANCH  33  34
HETATM   34  C   UNL     1      11.618   3.277  93.883  1.00  0.00     0.220 C 
BRANCH  34  35
HETATM   35  O   UNL     1      12.782   2.891  94.095  1.00  0.00    -0.371 OA
HETATM   36  H   UNL     1      12.837   3.128  95.008  1.00  0.00     0.211 HD
ENDBRANCH  34  35
BRANCH  34  37
HETATM   37  C   UNL     1      11.482   4.668  94.029  1.00  0.00     0.185 C 
HETATM   38  O   UNL     1      12.804   4.630  94.094  1.00  0.00    -0.647 OA
BRANCH  37  39
HETATM   39  O   UNL     1      10.587   5.456  94.104  1.00  0.00    -0.774 OA
HETATM   40  H   UNL     1       9.891   5.385  93.210  1.00  0.00     0.167 HD
ENDBRANCH  37  39
ENDBRANCH  34  37
ENDBRANCH  33  34
ENDBRANCH  31  33
ENDBRANCH  26  31
ENDBRANCH  24  26
ENDBRANCH  19  22
ENDBRANCH  15  16
ENDBRANCH  11  14
ENDBRANCH   7   8
ENDBRANCH   2   7
TORSDOF 14
ENDMDL
