MODEL 1
REMARK VINA RESULT:      -6.3      0.000      0.000
REMARK  14 active torsions:
REMARK  status: ('A' for Active; 'I' for Inactive)
REMARK    1  A    between atoms: O_2  and  C_18 
REMARK    2  A    between atoms: C_5  and  C_8 
REMARK    3  A    between atoms: C_5  and  O_35 
REMARK    4  A    between atoms: C_5  and  C_36 
REMARK    5  A    between atoms: N_6  and  C_11 
REMARK    6  A    between atoms: N_7  and  C_15 
REMARK       I    between atoms: N_7  and  C_24 
REMARK    7  A    between atoms: C_8  and  C_23 
REMARK    8  A    between atoms: C_11  and  C_14 
REMARK    9  A    between atoms: C_15  and  C_18 
REMARK   10  A    between atoms: C_15  and  C_23 
REMARK   11  A    between atoms: C_21  and  C_26 
REMARK   12  A    between atoms: C_24  and  C_25 
REMARK   13  A    between atoms: C_29  and  C_32 
REMARK   14  A    between atoms: C_36  and  O_39 
ROOT
HETATM    1  O   UNL     1      16.665   3.339  93.620  1.00  0.00    -0.350 OA
HETATM    2  N   UNL     1      13.975   2.841  92.833  1.00  0.00     0.147 N 
HETATM    3  C   UNL     1      14.908   1.742  93.117  1.00  0.00     0.283 C 
HETATM    4  C   UNL     1      14.714   4.015  92.348  1.00  0.00     0.283 C 
HETATM    5  C   UNL     1      15.959   2.203  94.124  1.00  0.00     0.178 C 
HETATM    6  C   UNL     1      15.769   4.423  93.371  1.00  0.00     0.178 C 
ENDROOT
BRANCH   2   7
HETATM    7  C   UNL     1      12.965   2.425  91.862  1.00  0.00     0.277 C 
BRANCH   7   8
HETATM    8  C   UNL     1      11.804   3.359  91.814  1.00  0.00     0.011 A 
HETATM    9  C   UNL     1      11.340   3.954  92.988  1.00  0.00    -0.002 A 
HETATM   10  C   UNL     1      10.253   4.827  92.945  1.00  0.00     0.008 A 
HETATM   11  C   UNL     1       9.632   5.106  91.727  1.00  0.00     0.042 A 
HETATM   12  C   UNL     1      10.095   4.513  90.555  1.00  0.00     0.008 A 
HETATM   13  C   UNL     1      11.182   3.640  90.598  1.00  0.00    -0.002 A 
BRANCH  11  14
HETATM   14  C   UNL     1       8.518   6.003  91.683  1.00  0.00    -0.059 C 
HETATM   15  C   UNL     1       7.582   6.756  91.646  1.00  0.00    -0.059 C 
BRANCH  15  16
HETATM   16  C   UNL     1       6.469   7.653  91.602  1.00  0.00     0.042 A 
HETATM   17  C   UNL     1       6.171   8.448  92.709  1.00  0.00     0.008 A 
HETATM   18  C   UNL     1       5.087   9.324  92.665  1.00  0.00     0.005 A 
HETATM   19  C   UNL     1       4.327   9.388  91.516  1.00  0.00     0.056 A 
HETATM   20  C   UNL     1       4.601   8.612  90.409  1.00  0.00     0.005 A 
HETATM   21  C   UNL     1       5.685   7.735  90.452  1.00  0.00     0.008 A 
BRANCH  19  22
HETATM   22  C   UNL     1       3.171  10.320  91.471  1.00  0.00     0.254 C 
HETATM   23  O   UNL     1       2.031   9.862  91.453  1.00  0.00    -0.268 OA
HETATM   24  N   UNL     1       3.481  11.673  91.476  1.00  0.00    -0.335 N 
HETATM   25  HN  UNL     1       4.447  11.978  91.517  1.00  0.00     0.164 HD
BRANCH  24  26
HETATM   26  C   UNL     1       2.471  12.700  91.459  1.00  0.00     0.169 C 
BRANCH  26  27
HETATM   27  C   UNL     1       2.222  13.311  92.844  1.00  0.00     0.138 C 
HETATM   28  C   UNL     1       3.508  13.486  93.644  1.00  0.00     0.034 C 
BRANCH  27  29
HETATM   29  O   UNL     1       1.590  14.582  92.699  1.00  0.00    -0.383 OA
HETATM   30  H   UNL     1       2.218  15.188  92.271  1.00  0.00     0.210 HD
ENDBRANCH  27  29
ENDBRANCH  26  27
BRANCH  26  31
HETATM   31  C   UNL     1       2.904  13.763  90.454  1.00  0.00     0.194 C 
HETATM   32  O   UNL     1       2.114  14.539  89.918  1.00  0.00    -0.289 OA
BRANCH  31  33
HETATM   33  C   UNL     1       4.253  13.718  90.200  1.00  0.00     0.053 C 
BRANCH  33  34
HETATM   34  C   UNL     1       4.618  13.672  88.847  1.00  0.00     0.220 C 
BRANCH  34  35
HETATM   35  O   UNL     1       5.782  14.103  88.752  1.00  0.00    -0.371 OA
HETATM   36  H   UNL     1       5.655  14.929  89.196  1.00  0.00     0.211 HD
ENDBRANCH  34  35
BRANCH  34  37
HETATM   37  C   UNL     1       4.472  12.399  88.271  1.00  0.00     0.185 C 
HETATM   38  O   UNL     1       5.505  12.106  89.045  1.00  0.00    -0.647 OA
BRANCH  37  39
HETATM   39  O   UNL     1       3.773  11.887  87.449  1.00  0.00    -0.774 OA
HETATM   40  H   UNL     1       3.515  10.817  87.726  1.00  0.00     0.167 HD
ENDBRANCH  37  39
ENDBRANCH  34  37
ENDBRANCH  33  34
ENDBRANCH  31  33
ENDBRANCH  26  31
ENDBRANCH  24  26
ENDBRANCH  19  22
ENDBRANCH  15  16
ENDBRANCH  11  14
ENDBRANCH   7   8
ENDBRANCH   2   7
TORSDOF 14
ENDMDL
MODEL 2
REMARK VINA RESULT:      -6.1      1.361      1.673
REMARK  14 active torsions:
REMARK  status: ('A' for Active; 'I' for Inactive)
REMARK    1  A    between atoms: O_2  and  C_18 
REMARK    2  A    between atoms: C_5  and  C_8 
REMARK    3  A    between atoms: C_5  and  O_35 
REMARK    4  A    between atoms: C_5  and  C_36 
REMARK    5  A    between atoms: N_6  and  C_11 
REMARK    6  A    between atoms: N_7  and  C_15 
REMARK       I    between atoms: N_7  and  C_24 
REMARK    7  A    between atoms: C_8  and  C_23 
REMARK    8  A    between atoms: C_11  and  C_14 
REMARK    9  A    between atoms: C_15  and  C_18 
REMARK   10  A    between atoms: C_15  and  C_23 
REMARK   11  A    between atoms: C_21  and  C_26 
REMARK   12  A    between atoms: C_24  and  C_25 
REMARK   13  A    between atoms: C_29  and  C_32 
REMARK   14  A    between atoms: C_36  and  O_39 
ROOT
HETATM    1  O   UNL     1      16.247   4.284  94.119  1.00  0.00    -0.350 OA
HETATM    2  N   UNL     1      14.489   2.847  92.403  1.00  0.00     0.147 N 
HETATM    3  C   UNL     1      14.535   4.316  92.399  1.00  0.00     0.283 C 
HETATM    4  C   UNL     1      14.855   2.335  93.731  1.00  0.00     0.283 C 
HETATM    5  C   UNL     1      15.923   4.790  92.823  1.00  0.00     0.178 C 
HETATM    6  C   UNL     1      16.234   2.856  94.124  1.00  0.00     0.178 C 
ENDROOT
BRANCH   2   7
HETATM    7  C   UNL     1      13.164   2.370  92.010  1.00  0.00     0.277 C 
BRANCH   7   8
HETATM    8  C   UNL     1      12.131   3.444  92.077  1.00  0.00     0.011 A 
HETATM    9  C   UNL     1      11.646   3.868  93.315  1.00  0.00    -0.002 A 
HETATM   10  C   UNL     1      10.679   4.871  93.378  1.00  0.00     0.008 A 
HETATM   11  C   UNL     1      10.198   5.450  92.204  1.00  0.00     0.042 A 
HETATM   12  C   UNL     1      10.682   5.027  90.967  1.00  0.00     0.008 A 
HETATM   13  C   UNL     1      11.649   4.024  90.903  1.00  0.00    -0.002 A 
BRANCH  11  14
HETATM   14  C   UNL     1       9.207   6.480  92.269  1.00  0.00    -0.059 C 
HETATM   15  C   UNL     1       8.375   7.346  92.323  1.00  0.00    -0.059 C 
BRANCH  15  16
HETATM   16  C   UNL     1       7.385   8.375  92.388  1.00  0.00     0.042 A 
HETATM   17  C   UNL     1       7.746   9.665  92.781  1.00  0.00     0.008 A 
HETATM   18  C   UNL     1       6.781  10.670  92.841  1.00  0.00     0.005 A 
HETATM   19  C   UNL     1       5.478  10.364  92.506  1.00  0.00     0.056 A 
HETATM   20  C   UNL     1       5.096   9.097  92.115  1.00  0.00     0.005 A 
HETATM   21  C   UNL     1       6.061   8.091  92.055  1.00  0.00     0.008 A 
BRANCH  19  22
HETATM   22  C   UNL     1       4.450  11.434  92.572  1.00  0.00     0.254 C 
HETATM   23  O   UNL     1       3.428  11.244  93.227  1.00  0.00    -0.268 OA
HETATM   24  N   UNL     1       4.746  12.605  91.889  1.00  0.00    -0.335 N 
HETATM   25  HN  UNL     1       5.623  12.699  91.389  1.00  0.00     0.164 HD
BRANCH  24  26
HETATM   26  C   UNL     1       3.861  13.742  91.878  1.00  0.00     0.169 C 
BRANCH  26  27
HETATM   27  C   UNL     1       4.189  14.760  92.977  1.00  0.00     0.138 C 
HETATM   28  C   UNL     1       2.957  15.520  93.456  1.00  0.00     0.034 C 
BRANCH  27  29
HETATM   29  O   UNL     1       4.780  14.088  94.089  1.00  0.00    -0.383 OA
HETATM   30  H   UNL     1       5.070  13.208  93.794  1.00  0.00     0.210 HD
ENDBRANCH  27  29
ENDBRANCH  26  27
BRANCH  26  31
HETATM   31  C   UNL     1       3.936  14.378  90.493  1.00  0.00     0.194 C 
HETATM   32  O   UNL     1       4.307  15.535  90.307  1.00  0.00    -0.289 OA
BRANCH  31  33
HETATM   33  C   UNL     1       3.509  13.523  89.506  1.00  0.00     0.053 C 
BRANCH  33  34
HETATM   34  C   UNL     1       4.461  13.194  88.530  1.00  0.00     0.220 C 
BRANCH  34  35
HETATM   35  O   UNL     1       5.581  13.523  88.965  1.00  0.00    -0.371 OA
HETATM   36  H   UNL     1       5.876  12.666  89.233  1.00  0.00     0.211 HD
ENDBRANCH  34  35
BRANCH  34  37
HETATM   37  C   UNL     1       4.416  11.846  88.136  1.00  0.00     0.185 C 
HETATM   38  O   UNL     1       5.425  11.730  88.986  1.00  0.00    -0.647 OA
BRANCH  37  39
HETATM   39  O   UNL     1       3.789  11.180  87.368  1.00  0.00    -0.774 OA
HETATM   40  H   UNL     1       2.781  11.647  87.136  1.00  0.00     0.167 HD
ENDBRANCH  37  39
ENDBRANCH  34  37
ENDBRANCH  33  34
ENDBRANCH  31  33
ENDBRANCH  26  31
ENDBRANCH  24  26
ENDBRANCH  19  22
ENDBRANCH  15  16
ENDBRANCH  11  14
ENDBRANCH   7   8
ENDBRANCH   2   7
TORSDOF 14
ENDMDL
MODEL 3
REMARK VINA RESULT:      -4.5      2.836     12.641
REMARK  14 active torsions:
REMARK  status: ('A' for Active; 'I' for Inactive)
REMARK    1  A    between atoms: O_2  and  C_18 
REMARK    2  A    between atoms: C_5  and  C_8 
REMARK    3  A    between atoms: C_5  and  O_35 
REMARK    4  A    between atoms: C_5  and  C_36 
REMARK    5  A    between atoms: N_6  and  C_11 
REMARK    6  A    between atoms: N_7  and  C_15 
REMARK       I    between atoms: N_7  and  C_24 
REMARK    7  A    between atoms: C_8  and  C_23 
REMARK    8  A    between atoms: C_11  and  C_14 
REMARK    9  A    between atoms: C_15  and  C_18 
REMARK   10  A    between atoms: C_15  and  C_23 
REMARK   11  A    between atoms: C_21  and  C_26 
REMARK   12  A    between atoms: C_24  and  C_25 
REMARK   13  A    between atoms: C_29  and  C_32 
REMARK   14  A    between atoms: C_36  and  O_39 
ROOT
HETATM    1  O   UNL     1       3.130  14.679  94.032  1.00  0.00    -0.350 OA
HETATM    2  N   UNL     1       2.891  14.664  91.196  1.00  0.00     0.147 N 
HETATM    3  C   UNL     1       1.836  14.113  92.058  1.00  0.00     0.283 C 
HETATM    4  C   UNL     1       4.197  14.543  91.858  1.00  0.00     0.283 C 
HETATM    5  C   UNL     1       1.851  14.822  93.410  1.00  0.00     0.178 C 
HETATM    6  C   UNL     1       4.157  15.239  93.214  1.00  0.00     0.178 C 
ENDROOT
BRANCH   2   7
HETATM    7  C   UNL     1       2.902  13.992  89.898  1.00  0.00     0.277 C 
BRANCH   7   8
HETATM    8  C   UNL     1       3.844  12.837  89.864  1.00  0.00     0.011 A 
HETATM    9  C   UNL     1       3.449  11.601  90.376  1.00  0.00    -0.002 A 
HETATM   10  C   UNL     1       4.331  10.520  90.347  1.00  0.00     0.008 A 
HETATM   11  C   UNL     1       5.605  10.676  89.804  1.00  0.00     0.042 A 
HETATM   12  C   UNL     1       6.001  11.910  89.292  1.00  0.00     0.008 A 
HETATM   13  C   UNL     1       5.120  12.991  89.321  1.00  0.00    -0.002 A 
BRANCH  11  14
HETATM   14  C   UNL     1       6.508   9.567  89.772  1.00  0.00    -0.059 C 
HETATM   15  C   UNL     1       7.268   8.635  89.745  1.00  0.00    -0.059 C 
BRANCH  15  16
HETATM   16  C   UNL     1       8.171   7.527  89.714  1.00  0.00     0.042 A 
HETATM   17  C   UNL     1       9.039   7.306  90.784  1.00  0.00     0.008 A 
HETATM   18  C   UNL     1       9.918   6.223  90.755  1.00  0.00     0.005 A 
HETATM   19  C   UNL     1       9.908   5.386  89.659  1.00  0.00     0.056 A 
HETATM   20  C   UNL     1       9.060   5.583  88.589  1.00  0.00     0.005 A 
HETATM   21  C   UNL     1       8.181   6.666  88.617  1.00  0.00     0.008 A 
BRANCH  19  22
HETATM   22  C   UNL     1      10.846   4.234  89.627  1.00  0.00     0.254 C 
HETATM   23  O   UNL     1      10.757   3.413  88.718  1.00  0.00    -0.268 OA
HETATM   24  N   UNL     1      11.790   4.190  90.644  1.00  0.00    -0.335 N 
HETATM   25  HN  UNL     1      11.819   4.918  91.348  1.00  0.00     0.164 HD
BRANCH  24  26
HETATM   26  C   UNL     1      12.783   3.150  90.736  1.00  0.00     0.169 C 
BRANCH  26  27
HETATM   27  C   UNL     1      14.216   3.697  90.758  1.00  0.00     0.138 C 
HETATM   28  C   UNL     1      15.041   3.221  89.568  1.00  0.00     0.034 C 
BRANCH  27  29
HETATM   29  O   UNL     1      14.182   5.124  90.757  1.00  0.00    -0.383 OA
HETATM   30  H   UNL     1      14.647   5.439  89.964  1.00  0.00     0.210 HD
ENDBRANCH  27  29
ENDBRANCH  26  27
BRANCH  26  31
HETATM   31  C   UNL     1      12.483   2.330  91.987  1.00  0.00     0.194 C 
HETATM   32  O   UNL     1      11.341   2.047  92.345  1.00  0.00    -0.289 OA
BRANCH  31  33
HETATM   33  C   UNL     1      13.625   1.989  92.670  1.00  0.00     0.053 C 
BRANCH  33  34
HETATM   34  C   UNL     1      13.814   2.631  93.902  1.00  0.00     0.220 C 
BRANCH  34  35
HETATM   35  O   UNL     1      15.039   2.675  94.124  1.00  0.00    -0.371 OA
HETATM   36  H   UNL     1      15.246   1.780  93.903  1.00  0.00     0.211 HD
ENDBRANCH  34  35
BRANCH  34  37
HETATM   37  C   UNL     1      13.213   3.899  93.971  1.00  0.00     0.185 C 
HETATM   38  O   UNL     1      14.469   4.319  93.954  1.00  0.00    -0.647 OA
BRANCH  37  39
HETATM   39  O   UNL     1      12.105   4.338  94.053  1.00  0.00    -0.774 OA
HETATM   40  H   UNL     1      11.360   3.538  94.355  1.00  0.00     0.167 HD
ENDBRANCH  37  39
ENDBRANCH  34  37
ENDBRANCH  33  34
ENDBRANCH  31  33
ENDBRANCH  26  31
ENDBRANCH  24  26
ENDBRANCH  19  22
ENDBRANCH  15  16
ENDBRANCH  11  14
ENDBRANCH   7   8
ENDBRANCH   2   7
TORSDOF 14
ENDMDL
