MODEL 1
REMARK VINA RESULT:      -6.7      0.000      0.000
REMARK  9 active torsions:
REMARK  status: ('A' for Active; 'I' for Inactive)
REMARK    1  A    between atoms: O_2  and  C_17 
REMARK    2  A    between atoms: N_5  and  C_10 
REMARK    3  A    between atoms: N_6  and  C_14 
REMARK       I    between atoms: N_6  and  C_23 
REMARK       I    between atoms: N_7  and  C_22 
REMARK    4  A    between atoms: C_10  and  C_13 
REMARK    5  A    between atoms: C_14  and  C_17 
REMARK    6  A    between atoms: C_14  and  C_22 
REMARK    7  A    between atoms: C_20  and  C_25 
REMARK    8  A    between atoms: C_23  and  C_24 
REMARK    9  A    between atoms: C_28  and  C_31 
ROOT
HETATM    1  O   UNL     1      16.033   4.237  94.028  1.00  0.00    -0.388 OA
HETATM    2  N   UNL     1      14.322   2.710  92.342  1.00  0.00     0.096 N 
HETATM    3  C   UNL     1      14.387   4.175  92.245  1.00  0.00     0.299 C 
HETATM    4  C   UNL     1      14.632   2.282  93.713  1.00  0.00     0.299 C 
HETATM    5  C   UNL     1      15.764   4.662  92.691  1.00  0.00     0.198 C 
HETATM    6  C   UNL     1      16.001   2.813  94.124  1.00  0.00     0.198 C 
ENDROOT
BRANCH   2   7
HETATM    7  C   UNL     1      13.007   2.223  91.929  1.00  0.00     0.311 C 
BRANCH   7   8
HETATM    8  C   UNL     1      12.064   3.332  91.612  1.00  0.00    -0.030 A 
HETATM    9  C   UNL     1      11.264   3.876  92.617  1.00  0.00     0.010 A 
HETATM   10  C   UNL     1      10.379   4.913  92.321  1.00  0.00     0.021 A 
HETATM   11  C   UNL     1      10.297   5.407  91.019  1.00  0.00     0.018 A 
HETATM   12  C   UNL     1      11.095   4.865  90.014  1.00  0.00     0.021 A 
HETATM   13  C   UNL     1      11.979   3.827  90.310  1.00  0.00     0.010 A 
BRANCH  11  14
HETATM   14  C   UNL     1       9.391   6.472  90.716  1.00  0.00    -0.061 C 
HETATM   15  C   UNL     1       8.630   7.367  90.460  1.00  0.00    -0.061 C 
BRANCH  15  16
HETATM   16  C   UNL     1       7.725   8.431  90.156  1.00  0.00     0.018 A 
HETATM   17  C   UNL     1       6.457   8.143  89.649  1.00  0.00     0.022 A 
HETATM   18  C   UNL     1       5.573   9.181  89.355  1.00  0.00     0.018 A 
HETATM   19  C   UNL     1       5.976  10.482  89.574  1.00  0.00     0.032 A 
HETATM   20  C   UNL     1       7.223  10.792  90.073  1.00  0.00     0.018 A 
HETATM   21  C   UNL     1       8.108   9.755  90.368  1.00  0.00     0.022 A 
BRANCH  19  22
HETATM   22  C   UNL     1       5.034  11.588  89.259  1.00  0.00     0.252 C 
HETATM   23  O   UNL     1       4.521  11.638  88.144  1.00  0.00    -0.268 OA
HETATM   24  N   UNL     1       4.786  12.486  90.287  1.00  0.00    -0.342 N 
HETATM   25  H   UNL     1       5.228  12.367  91.190  1.00  0.00     0.163 HD
BRANCH  24  26
HETATM   26  C   UNL     1       3.879  13.597  90.143  1.00  0.00     0.199 C 
BRANCH  26  27
HETATM   27  C   UNL     1       2.552  13.378  90.881  1.00  0.00     0.145 C 
HETATM   28  C   UNL     1       2.681  12.389  92.034  1.00  0.00     0.042 C 
BRANCH  27  29
HETATM   29  O   UNL     1       2.078  14.625  91.391  1.00  0.00    -0.393 OA
HETATM   30  H   UNL     1       2.456  14.755  92.277  1.00  0.00     0.210 HD
ENDBRANCH  27  29
ENDBRANCH  26  27
BRANCH  26  31
HETATM   31  C   UNL     1       4.592  14.848  90.644  1.00  0.00     0.220 C 
HETATM   32  O   UNL     1       4.691  15.131  91.836  1.00  0.00    -0.278 OA
HETATM   33  N   UNL     1       5.065  15.623  89.613  1.00  0.00    -0.271 NA
HETATM   34  H   UNL     1       4.923  15.467  88.622  1.00  0.00     0.127 HD
HETATM   35  H   UNL     1       4.585  16.864  89.163  1.00  0.00     0.127 HD
ENDBRANCH  26  31
ENDBRANCH  24  26
ENDBRANCH  19  22
ENDBRANCH  15  16
ENDBRANCH  11  14
ENDBRANCH   7   8
ENDBRANCH   2   7
TORSDOF 9
ENDMDL
