MODEL 1
REMARK VINA RESULT:      -6.4      0.000      0.000
REMARK  12 active torsions:
REMARK  status: ('A' for Active; 'I' for Inactive)
REMARK    1  A    between atoms: O_2  and  C_16 
REMARK    2  A    between atoms: N_5  and  C_9 
REMARK    3  A    between atoms: N_6  and  C_13 
REMARK       I    between atoms: N_6  and  C_22 
REMARK    4  A    between atoms: C_9  and  C_12 
REMARK    5  A    between atoms: C_13  and  C_16 
REMARK    6  A    between atoms: C_13  and  C_21 
REMARK    7  A    between atoms: C_19  and  C_24 
REMARK    8  A    between atoms: C_21  and  C_33 
REMARK    9  A    between atoms: C_22  and  C_23 
REMARK   10  A    between atoms: C_27  and  C_30 
REMARK   11  A    between atoms: C_33  and  C_34 
REMARK   12  A    between atoms: C_34  and  C_35 
ROOT
HETATM    1  O   UNL     1      16.491   4.418  93.955  1.00  0.00    -0.350 OA
HETATM    2  N   UNL     1      14.664   2.680  92.636  1.00  0.00     0.147 N 
HETATM    3  C   UNL     1      14.601   4.138  92.459  1.00  0.00     0.283 C 
HETATM    4  C   UNL     1      15.213   2.357  93.960  1.00  0.00     0.283 C 
HETATM    5  C   UNL     1      15.989   4.742  92.658  1.00  0.00     0.178 C 
HETATM    6  C   UNL     1      16.585   3.003  94.124  1.00  0.00     0.178 C 
ENDROOT
BRANCH   2   7
HETATM    7  C   UNL     1      13.342   2.080  92.461  1.00  0.00     0.277 C 
BRANCH   7   8
HETATM    8  C   UNL     1      12.263   3.104  92.354  1.00  0.00     0.011 A 
HETATM    9  C   UNL     1      11.909   3.861  93.471  1.00  0.00    -0.002 A 
HETATM   10  C   UNL     1      10.898   4.817  93.373  1.00  0.00     0.008 A 
HETATM   11  C   UNL     1      10.245   5.017  92.158  1.00  0.00     0.042 A 
HETATM   12  C   UNL     1      10.598   4.262  91.042  1.00  0.00     0.008 A 
HETATM   13  C   UNL     1      11.608   3.305  91.139  1.00  0.00    -0.002 A 
BRANCH  11  14
HETATM   14  C   UNL     1       9.210   6.000  92.057  1.00  0.00    -0.059 C 
HETATM   15  C   UNL     1       8.340   6.825  91.971  1.00  0.00    -0.059 C 
BRANCH  15  16
HETATM   16  C   UNL     1       7.305   7.807  91.870  1.00  0.00     0.042 A 
HETATM   17  C   UNL     1       7.613   9.105  91.464  1.00  0.00     0.008 A 
HETATM   18  C   UNL     1       6.603  10.061  91.363  1.00  0.00     0.005 A 
HETATM   19  C   UNL     1       5.308   9.698  91.669  1.00  0.00     0.056 A 
HETATM   20  C   UNL     1       4.978   8.422  92.074  1.00  0.00     0.005 A 
HETATM   21  C   UNL     1       5.987   7.465  92.175  1.00  0.00     0.008 A 
BRANCH  19  22
HETATM   22  C   UNL     1       4.233  10.718  91.563  1.00  0.00     0.254 C 
HETATM   23  O   UNL     1       3.059  10.355  91.572  1.00  0.00    -0.268 OA
HETATM   24  N   UNL     1       4.652  12.039  91.485  1.00  0.00    -0.335 N 
HETATM   25  HN  UNL     1       5.640  12.265  91.509  1.00  0.00     0.164 HD
BRANCH  24  26
HETATM   26  C   UNL     1       3.730  13.142  91.403  1.00  0.00     0.166 C 
BRANCH  26  27
HETATM   27  C   UNL     1       3.532  13.853  92.748  1.00  0.00     0.138 C 
HETATM   28  C   UNL     1       2.175  13.550  93.374  1.00  0.00     0.034 C 
BRANCH  27  29
HETATM   29  O   UNL     1       4.560  13.454  93.654  1.00  0.00    -0.383 OA
HETATM   30  H   UNL     1       4.255  12.664  94.132  1.00  0.00     0.210 HD
ENDBRANCH  27  29
ENDBRANCH  26  27
BRANCH  26  31
HETATM   31  C   UNL     1       4.248  14.104  90.338  1.00  0.00     0.181 C 
HETATM   32  O   UNL     1       4.637  15.242  90.596  1.00  0.00    -0.294 OA
BRANCH  31  33
HETATM   33  C   UNL     1       5.404  13.427  89.426  1.00  0.00     0.138 C 
BRANCH  33  34
HETATM   34  C   UNL     1       4.667  13.063  88.277  1.00  0.00     0.208 C 
HETATM   35  O   UNL     1       4.949  13.649  87.256  1.00  0.00    -0.289 OA
BRANCH  34  36
HETATM   36  C   UNL     1       3.884  11.968  88.035  1.00  0.00     0.194 C 
HETATM   37  O   UNL     1       4.237  10.673  87.638  1.00  0.00    -0.185 OA
ENDBRANCH  34  36
ENDBRANCH  33  34
ENDBRANCH  31  33
ENDBRANCH  26  31
ENDBRANCH  24  26
ENDBRANCH  19  22
ENDBRANCH  15  16
ENDBRANCH  11  14
ENDBRANCH   7   8
ENDBRANCH   2   7
TORSDOF 12
ENDMDL
MODEL 2
REMARK VINA RESULT:      -6.2      1.295      1.774
REMARK  12 active torsions:
REMARK  status: ('A' for Active; 'I' for Inactive)
REMARK    1  A    between atoms: O_2  and  C_16 
REMARK    2  A    between atoms: N_5  and  C_9 
REMARK    3  A    between atoms: N_6  and  C_13 
REMARK       I    between atoms: N_6  and  C_22 
REMARK    4  A    between atoms: C_9  and  C_12 
REMARK    5  A    between atoms: C_13  and  C_16 
REMARK    6  A    between atoms: C_13  and  C_21 
REMARK    7  A    between atoms: C_19  and  C_24 
REMARK    8  A    between atoms: C_21  and  C_33 
REMARK    9  A    between atoms: C_22  and  C_23 
REMARK   10  A    between atoms: C_27  and  C_30 
REMARK   11  A    between atoms: C_33  and  C_34 
REMARK   12  A    between atoms: C_34  and  C_35 
ROOT
HETATM    1  O   UNL     1      15.720   4.378  93.774  1.00  0.00    -0.350 OA
HETATM    2  N   UNL     1      14.037   2.640  92.274  1.00  0.00     0.147 N 
HETATM    3  C   UNL     1      13.971   4.100  92.114  1.00  0.00     0.283 C 
HETATM    4  C   UNL     1      14.472   2.303  93.637  1.00  0.00     0.283 C 
HETATM    5  C   UNL     1      15.329   4.717  92.442  1.00  0.00     0.178 C 
HETATM    6  C   UNL     1      15.816   2.962  93.929  1.00  0.00     0.178 C 
ENDROOT
BRANCH   2   7
HETATM    7  C   UNL     1      12.743   2.029  91.975  1.00  0.00     0.277 C 
BRANCH   7   8
HETATM    8  C   UNL     1      11.666   3.042  91.785  1.00  0.00     0.011 A 
HETATM    9  C   UNL     1      11.157   3.285  90.508  1.00  0.00    -0.002 A 
HETATM   10  C   UNL     1      10.151   4.235  90.328  1.00  0.00     0.008 A 
HETATM   11  C   UNL     1       9.653   4.938  91.425  1.00  0.00     0.042 A 
HETATM   12  C   UNL     1      10.160   4.695  92.700  1.00  0.00     0.008 A 
HETATM   13  C   UNL     1      11.167   3.746  92.880  1.00  0.00    -0.002 A 
BRANCH  11  14
HETATM   14  C   UNL     1       8.620   5.910  91.240  1.00  0.00    -0.059 C 
HETATM   15  C   UNL     1       7.751   6.726  91.086  1.00  0.00    -0.059 C 
BRANCH  15  16
HETATM   16  C   UNL     1       6.719   7.698  90.902  1.00  0.00     0.042 A 
HETATM   17  C   UNL     1       5.744   7.502  89.924  1.00  0.00     0.008 A 
HETATM   18  C   UNL     1       4.735   8.449  89.747  1.00  0.00     0.005 A 
HETATM   19  C   UNL     1       4.723   9.569  90.551  1.00  0.00     0.056 A 
HETATM   20  C   UNL     1       5.676   9.787  91.524  1.00  0.00     0.005 A 
HETATM   21  C   UNL     1       6.685   8.840  91.703  1.00  0.00     0.008 A 
BRANCH  19  22
HETATM   22  C   UNL     1       3.650  10.579  90.360  1.00  0.00     0.254 C 
HETATM   23  O   UNL     1       2.839  10.427  89.450  1.00  0.00    -0.268 OA
HETATM   24  N   UNL     1       3.635  11.630  91.267  1.00  0.00    -0.335 N 
HETATM   25  HN  UNL     1       4.324  11.676  92.009  1.00  0.00     0.164 HD
BRANCH  24  26
HETATM   26  C   UNL     1       2.643  12.674  91.228  1.00  0.00     0.166 C 
BRANCH  26  27
HETATM   27  C   UNL     1       1.691  12.633  92.430  1.00  0.00     0.138 C 
HETATM   28  C   UNL     1       1.189  11.224  92.729  1.00  0.00     0.034 C 
BRANCH  27  29
HETATM   29  O   UNL     1       2.357  13.142  93.584  1.00  0.00    -0.383 OA
HETATM   30  H   UNL     1       2.029  14.041  93.753  1.00  0.00     0.210 HD
ENDBRANCH  27  29
ENDBRANCH  26  27
BRANCH  26  31
HETATM   31  C   UNL     1       3.375  14.009  91.146  1.00  0.00     0.181 C 
HETATM   32  O   UNL     1       3.419  14.807  92.081  1.00  0.00    -0.294 OA
BRANCH  31  33
HETATM   33  C   UNL     1       4.903  13.829  90.635  1.00  0.00     0.138 C 
BRANCH  33  34
HETATM   34  C   UNL     1       4.818  14.357  89.327  1.00  0.00     0.208 C 
HETATM   35  O   UNL     1       4.939  15.556  89.229  1.00  0.00    -0.289 OA
BRANCH  34  36
HETATM   36  C   UNL     1       4.906  13.736  88.112  1.00  0.00     0.194 C 
HETATM   37  O   UNL     1       4.517  12.449  87.723  1.00  0.00    -0.185 OA
ENDBRANCH  34  36
ENDBRANCH  33  34
ENDBRANCH  31  33
ENDBRANCH  26  31
ENDBRANCH  24  26
ENDBRANCH  19  22
ENDBRANCH  15  16
ENDBRANCH  11  14
ENDBRANCH   7   8
ENDBRANCH   2   7
TORSDOF 12
ENDMDL
MODEL 3
REMARK VINA RESULT:      -5.4      2.543     12.682
REMARK  12 active torsions:
REMARK  status: ('A' for Active; 'I' for Inactive)
REMARK    1  A    between atoms: O_2  and  C_16 
REMARK    2  A    between atoms: N_5  and  C_9 
REMARK    3  A    between atoms: N_6  and  C_13 
REMARK       I    between atoms: N_6  and  C_22 
REMARK    4  A    between atoms: C_9  and  C_12 
REMARK    5  A    between atoms: C_13  and  C_16 
REMARK    6  A    between atoms: C_13  and  C_21 
REMARK    7  A    between atoms: C_19  and  C_24 
REMARK    8  A    between atoms: C_21  and  C_33 
REMARK    9  A    between atoms: C_22  and  C_23 
REMARK   10  A    between atoms: C_27  and  C_30 
REMARK   11  A    between atoms: C_33  and  C_34 
REMARK   12  A    between atoms: C_34  and  C_35 
ROOT
HETATM    1  O   UNL     1       3.108  14.742  93.983  1.00  0.00    -0.350 OA
HETATM    2  N   UNL     1       2.717  14.310  91.197  1.00  0.00     0.147 N 
HETATM    3  C   UNL     1       1.791  13.759  92.197  1.00  0.00     0.283 C 
HETATM    4  C   UNL     1       4.062  14.439  91.774  1.00  0.00     0.283 C 
HETATM    5  C   UNL     1       1.789  14.643  93.442  1.00  0.00     0.178 C 
HETATM    6  C   UNL     1       4.007  15.305  93.028  1.00  0.00     0.178 C 
ENDROOT
BRANCH   2   7
HETATM    7  C   UNL     1       2.742  13.473  89.999  1.00  0.00     0.277 C 
BRANCH   7   8
HETATM    8  C   UNL     1       3.743  12.372  90.097  1.00  0.00     0.011 A 
HETATM    9  C   UNL     1       3.500  11.283  90.935  1.00  0.00    -0.002 A 
HETATM   10  C   UNL     1       4.436  10.253  91.029  1.00  0.00     0.008 A 
HETATM   11  C   UNL     1       5.613  10.313  90.283  1.00  0.00     0.042 A 
HETATM   12  C   UNL     1       5.857  11.400  89.446  1.00  0.00     0.008 A 
HETATM   13  C   UNL     1       4.921  12.430  89.353  1.00  0.00    -0.002 A 
BRANCH  11  14
HETATM   14  C   UNL     1       6.573   9.255  90.378  1.00  0.00    -0.059 C 
HETATM   15  C   UNL     1       7.380   8.367  90.458  1.00  0.00    -0.059 C 
BRANCH  15  16
HETATM   16  C   UNL     1       8.339   7.311  90.553  1.00  0.00     0.042 A 
HETATM   17  C   UNL     1       8.131   6.261  91.448  1.00  0.00     0.008 A 
HETATM   18  C   UNL     1       9.065   5.229  91.539  1.00  0.00     0.005 A 
HETATM   19  C   UNL     1      10.185   5.271  90.734  1.00  0.00     0.056 A 
HETATM   20  C   UNL     1      10.413   6.298  89.843  1.00  0.00     0.005 A 
HETATM   21  C   UNL     1       9.479   7.330  89.751  1.00  0.00     0.008 A 
BRANCH  19  22
HETATM   22  C   UNL     1      11.181   4.172  90.833  1.00  0.00     0.254 C 
HETATM   23  O   UNL     1      10.994   3.135  90.202  1.00  0.00    -0.268 OA
HETATM   24  N   UNL     1      12.285   4.424  91.634  1.00  0.00    -0.335 N 
HETATM   25  HN  UNL     1      12.385   5.315  92.106  1.00  0.00     0.164 HD
BRANCH  24  26
HETATM   26  C   UNL     1      13.349   3.468  91.811  1.00  0.00     0.166 C 
BRANCH  26  27
HETATM   27  C   UNL     1      14.637   3.871  91.082  1.00  0.00     0.138 C 
HETATM   28  C   UNL     1      15.056   2.849  90.031  1.00  0.00     0.034 C 
BRANCH  27  29
HETATM   29  O   UNL     1      14.451   5.136  90.449  1.00  0.00    -0.383 OA
HETATM   30  H   UNL     1      15.122   5.230  89.752  1.00  0.00     0.210 HD
ENDBRANCH  27  29
ENDBRANCH  26  27
BRANCH  26  31
HETATM   31  C   UNL     1      13.587   3.308  93.309  1.00  0.00     0.181 C 
HETATM   32  O   UNL     1      12.682   3.090  94.112  1.00  0.00    -0.294 OA
BRANCH  31  33
HETATM   33  C   UNL     1      14.743   2.215  93.622  1.00  0.00     0.138 C 
BRANCH  33  34
HETATM   34  C   UNL     1      15.858   3.052  93.846  1.00  0.00     0.208 C 
HETATM   35  O   UNL     1      16.931   2.614  93.499  1.00  0.00    -0.289 OA
BRANCH  34  36
HETATM   36  C   UNL     1      15.922   4.390  94.124  1.00  0.00     0.194 C 
HETATM   37  O   UNL     1      16.044   5.488  93.264  1.00  0.00    -0.185 OA
ENDBRANCH  34  36
ENDBRANCH  33  34
ENDBRANCH  31  33
ENDBRANCH  26  31
ENDBRANCH  24  26
ENDBRANCH  19  22
ENDBRANCH  15  16
ENDBRANCH  11  14
ENDBRANCH   7   8
ENDBRANCH   2   7
TORSDOF 12
ENDMDL
MODEL 4
REMARK VINA RESULT:      -5.3      2.758     12.411
REMARK  12 active torsions:
REMARK  status: ('A' for Active; 'I' for Inactive)
REMARK    1  A    between atoms: O_2  and  C_16 
REMARK    2  A    between atoms: N_5  and  C_9 
REMARK    3  A    between atoms: N_6  and  C_13 
REMARK       I    between atoms: N_6  and  C_22 
REMARK    4  A    between atoms: C_9  and  C_12 
REMARK    5  A    between atoms: C_13  and  C_16 
REMARK    6  A    between atoms: C_13  and  C_21 
REMARK    7  A    between atoms: C_19  and  C_24 
REMARK    8  A    between atoms: C_21  and  C_33 
REMARK    9  A    between atoms: C_22  and  C_23 
REMARK   10  A    between atoms: C_27  and  C_30 
REMARK   11  A    between atoms: C_33  and  C_34 
REMARK   12  A    between atoms: C_34  and  C_35 
ROOT
HETATM    1  O   UNL     1       3.218  14.660  93.883  1.00  0.00    -0.350 OA
HETATM    2  N   UNL     1       2.977  14.729  91.047  1.00  0.00     0.147 N 
HETATM    3  C   UNL     1       1.983  14.045  91.886  1.00  0.00     0.283 C 
HETATM    4  C   UNL     1       4.290  14.712  91.707  1.00  0.00     0.283 C 
HETATM    5  C   UNL     1       1.931  14.700  93.264  1.00  0.00     0.178 C 
HETATM    6  C   UNL     1       4.184  15.349  93.089  1.00  0.00     0.178 C 
ENDROOT
BRANCH   2   7
HETATM    7  C   UNL     1       3.052  14.111  89.725  1.00  0.00     0.277 C 
BRANCH   7   8
HETATM    8  C   UNL     1       3.998  12.960  89.688  1.00  0.00     0.011 A 
HETATM    9  C   UNL     1       5.270  13.120  89.137  1.00  0.00    -0.002 A 
HETATM   10  C   UNL     1       6.155  12.043  89.101  1.00  0.00     0.008 A 
HETATM   11  C   UNL     1       5.769  10.807  89.618  1.00  0.00     0.042 A 
HETATM   12  C   UNL     1       4.499  10.645  90.168  1.00  0.00     0.008 A 
HETATM   13  C   UNL     1       3.613  11.722  90.204  1.00  0.00    -0.002 A 
BRANCH  11  14
HETATM   14  C   UNL     1       6.678   9.702  89.582  1.00  0.00    -0.059 C 
HETATM   15  C   UNL     1       7.442   8.774  89.552  1.00  0.00    -0.059 C 
BRANCH  15  16
HETATM   16  C   UNL     1       8.351   7.671  89.517  1.00  0.00     0.042 A 
HETATM   17  C   UNL     1       8.821   7.196  88.292  1.00  0.00     0.008 A 
HETATM   18  C   UNL     1       9.710   6.121  88.258  1.00  0.00     0.005 A 
HETATM   19  C   UNL     1      10.109   5.548  89.448  1.00  0.00     0.056 A 
HETATM   20  C   UNL     1       9.658   6.000  90.670  1.00  0.00     0.005 A 
HETATM   21  C   UNL     1       8.769   7.074  90.705  1.00  0.00     0.008 A 
BRANCH  19  22
HETATM   22  C   UNL     1      11.054   4.402  89.411  1.00  0.00     0.254 C 
HETATM   23  O   UNL     1      11.094   3.689  88.411  1.00  0.00    -0.268 OA
HETATM   24  N   UNL     1      11.857   4.240  90.532  1.00  0.00    -0.335 N 
HETATM   25  HN  UNL     1      11.786   4.883  91.311  1.00  0.00     0.164 HD
BRANCH  24  26
HETATM   26  C   UNL     1      12.839   3.191  90.637  1.00  0.00     0.166 C 
BRANCH  26  27
HETATM   27  C   UNL     1      14.275   3.727  90.700  1.00  0.00     0.138 C 
HETATM   28  C   UNL     1      15.100   3.329  89.481  1.00  0.00     0.034 C 
BRANCH  27  29
HETATM   29  O   UNL     1      14.249   5.150  90.797  1.00  0.00    -0.383 OA
HETATM   30  H   UNL     1      15.146   5.484  90.626  1.00  0.00     0.210 HD
ENDBRANCH  27  29
ENDBRANCH  26  27
BRANCH  26  31
HETATM   31  C   UNL     1      12.503   2.360  91.871  1.00  0.00     0.181 C 
HETATM   32  O   UNL     1      12.079   1.207  91.807  1.00  0.00    -0.294 OA
BRANCH  31  33
HETATM   33  C   UNL     1      13.729   2.332  92.930  1.00  0.00     0.138 C 
BRANCH  33  34
HETATM   34  C   UNL     1      13.423   3.453  93.733  1.00  0.00     0.208 C 
HETATM   35  O   UNL     1      14.323   4.241  93.913  1.00  0.00    -0.289 OA
BRANCH  34  36
HETATM   36  C   UNL     1      12.215   3.966  94.116  1.00  0.00     0.194 C 
HETATM   37  O   UNL     1      11.222   4.603  93.362  1.00  0.00    -0.185 OA
ENDBRANCH  34  36
ENDBRANCH  33  34
ENDBRANCH  31  33
ENDBRANCH  26  31
ENDBRANCH  24  26
ENDBRANCH  19  22
ENDBRANCH  15  16
ENDBRANCH  11  14
ENDBRANCH   7   8
ENDBRANCH   2   7
TORSDOF 12
ENDMDL
MODEL 5
REMARK VINA RESULT:      -3.9      2.311      3.514
REMARK  12 active torsions:
REMARK  status: ('A' for Active; 'I' for Inactive)
REMARK    1  A    between atoms: O_2  and  C_16 
REMARK    2  A    between atoms: N_5  and  C_9 
REMARK    3  A    between atoms: N_6  and  C_13 
REMARK       I    between atoms: N_6  and  C_22 
REMARK    4  A    between atoms: C_9  and  C_12 
REMARK    5  A    between atoms: C_13  and  C_16 
REMARK    6  A    between atoms: C_13  and  C_21 
REMARK    7  A    between atoms: C_19  and  C_24 
REMARK    8  A    between atoms: C_21  and  C_33 
REMARK    9  A    between atoms: C_22  and  C_23 
REMARK   10  A    between atoms: C_27  and  C_30 
REMARK   11  A    between atoms: C_33  and  C_34 
REMARK   12  A    between atoms: C_34  and  C_35 
ROOT
HETATM    1  O   UNL     1      17.273   3.567  92.124  1.00  0.00    -0.350 OA
HETATM    2  N   UNL     1      15.267   2.029  93.433  1.00  0.00     0.147 N 
HETATM    3  C   UNL     1      15.203   2.307  91.991  1.00  0.00     0.283 C 
HETATM    4  C   UNL     1      15.977   3.114  94.124  1.00  0.00     0.283 C 
HETATM    5  C   UNL     1      16.613   2.501  91.439  1.00  0.00     0.178 C 
HETATM    6  C   UNL     1      17.367   3.290  93.522  1.00  0.00     0.178 C 
ENDROOT
BRANCH   2   7
HETATM    7  C   UNL     1      13.926   1.850  93.985  1.00  0.00     0.277 C 
BRANCH   7   8
HETATM    8  C   UNL     1      12.894   2.616  93.231  1.00  0.00     0.011 A 
HETATM    9  C   UNL     1      12.397   3.813  93.750  1.00  0.00    -0.002 A 
HETATM   10  C   UNL     1      11.430   4.530  93.046  1.00  0.00     0.008 A 
HETATM   11  C   UNL     1      10.961   4.051  91.823  1.00  0.00     0.042 A 
HETATM   12  C   UNL     1      11.457   2.857  91.304  1.00  0.00     0.008 A 
HETATM   13  C   UNL     1      12.423   2.139  92.008  1.00  0.00    -0.002 A 
BRANCH  11  14
HETATM   14  C   UNL     1       9.971   4.788  91.100  1.00  0.00    -0.059 C 
HETATM   15  C   UNL     1       9.139   5.408  90.492  1.00  0.00    -0.059 C 
BRANCH  15  16
HETATM   16  C   UNL     1       8.149   6.144  89.769  1.00  0.00     0.042 A 
HETATM   17  C   UNL     1       8.539   7.073  88.804  1.00  0.00     0.008 A 
HETATM   18  C   UNL     1       7.574   7.789  88.097  1.00  0.00     0.005 A 
HETATM   19  C   UNL     1       6.241   7.560  88.369  1.00  0.00     0.056 A 
HETATM   20  C   UNL     1       5.830   6.647  89.317  1.00  0.00     0.005 A 
HETATM   21  C   UNL     1       6.795   5.930  90.025  1.00  0.00     0.008 A 
BRANCH  19  22
HETATM   22  C   UNL     1       5.213   8.324  87.616  1.00  0.00     0.254 C 
HETATM   23  O   UNL     1       5.143   8.195  86.396  1.00  0.00    -0.268 OA
HETATM   24  N   UNL     1       4.375   9.127  88.377  1.00  0.00    -0.335 N 
HETATM   25  HN  UNL     1       4.476   9.165  89.384  1.00  0.00     0.164 HD
BRANCH  24  26
HETATM   26  C   UNL     1       3.314   9.910  87.796  1.00  0.00     0.166 C 
BRANCH  26  27
HETATM   27  C   UNL     1       1.922   9.338  88.094  1.00  0.00     0.138 C 
HETATM   28  C   UNL     1       1.614   8.093  87.270  1.00  0.00     0.034 C 
BRANCH  27  29
HETATM   29  O   UNL     1       1.827   9.011  89.480  1.00  0.00    -0.383 OA
HETATM   30  H   UNL     1       0.887   8.924  89.709  1.00  0.00     0.210 HD
ENDBRANCH  27  29
ENDBRANCH  26  27
BRANCH  26  31
HETATM   31  C   UNL     1       3.449  11.337  88.316  1.00  0.00     0.181 C 
HETATM   32  O   UNL     1       2.643  11.847  89.092  1.00  0.00    -0.294 OA
BRANCH  31  33
HETATM   33  C   UNL     1       4.918  11.612  88.945  1.00  0.00     0.138 C 
BRANCH  33  34
HETATM   34  C   UNL     1       5.086  12.985  88.657  1.00  0.00     0.208 C 
HETATM   35  O   UNL     1       5.014  13.297  87.491  1.00  0.00    -0.289 OA
BRANCH  34  36
HETATM   36  C   UNL     1       5.035  14.077  89.480  1.00  0.00     0.194 C 
HETATM   37  O   UNL     1       4.234  14.328  90.600  1.00  0.00    -0.185 OA
ENDBRANCH  34  36
ENDBRANCH  33  34
ENDBRANCH  31  33
ENDBRANCH  26  31
ENDBRANCH  24  26
ENDBRANCH  19  22
ENDBRANCH  15  16
ENDBRANCH  11  14
ENDBRANCH   7   8
ENDBRANCH   2   7
TORSDOF 12
ENDMDL
MODEL 6
REMARK VINA RESULT:      -3.8      1.594      2.432
REMARK  12 active torsions:
REMARK  status: ('A' for Active; 'I' for Inactive)
REMARK    1  A    between atoms: O_2  and  C_16 
REMARK    2  A    between atoms: N_5  and  C_9 
REMARK    3  A    between atoms: N_6  and  C_13 
REMARK       I    between atoms: N_6  and  C_22 
REMARK    4  A    between atoms: C_9  and  C_12 
REMARK    5  A    between atoms: C_13  and  C_16 
REMARK    6  A    between atoms: C_13  and  C_21 
REMARK    7  A    between atoms: C_19  and  C_24 
REMARK    8  A    between atoms: C_21  and  C_33 
REMARK    9  A    between atoms: C_22  and  C_23 
REMARK   10  A    between atoms: C_27  and  C_30 
REMARK   11  A    between atoms: C_33  and  C_34 
REMARK   12  A    between atoms: C_34  and  C_35 
ROOT
HETATM    1  O   UNL     1      15.360   2.882  90.611  1.00  0.00    -0.350 OA
HETATM    2  N   UNL     1      13.435   3.159  92.689  1.00  0.00     0.147 N 
HETATM    3  C   UNL     1      14.436   2.083  92.708  1.00  0.00     0.283 C 
HETATM    4  C   UNL     1      13.129   3.538  91.303  1.00  0.00     0.283 C 
HETATM    5  C   UNL     1      15.688   2.529  91.956  1.00  0.00     0.178 C 
HETATM    6  C   UNL     1      14.410   3.948  90.584  1.00  0.00     0.178 C 
ENDROOT
BRANCH   2   7
HETATM    7  C   UNL     1      12.222   2.749  93.396  1.00  0.00     0.277 C 
BRANCH   7   8
HETATM    8  C   UNL     1      11.121   3.745  93.259  1.00  0.00     0.011 A 
HETATM    9  C   UNL     1      10.157   3.585  92.263  1.00  0.00    -0.002 A 
HETATM   10  C   UNL     1       9.128   4.517  92.132  1.00  0.00     0.008 A 
HETATM   11  C   UNL     1       9.062   5.607  92.999  1.00  0.00     0.042 A 
HETATM   12  C   UNL     1      10.024   5.768  93.993  1.00  0.00     0.008 A 
HETATM   13  C   UNL     1      11.054   4.837  94.124  1.00  0.00    -0.002 A 
BRANCH  11  14
HETATM   14  C   UNL     1       8.005   6.562  92.866  1.00  0.00    -0.059 C 
HETATM   15  C   UNL     1       7.117   7.365  92.753  1.00  0.00    -0.059 C 
BRANCH  15  16
HETATM   16  C   UNL     1       6.060   8.319  92.620  1.00  0.00     0.042 A 
HETATM   17  C   UNL     1       4.887   8.166  93.359  1.00  0.00     0.008 A 
HETATM   18  C   UNL     1       3.857   9.098  93.231  1.00  0.00     0.005 A 
HETATM   19  C   UNL     1       4.024  10.161  92.369  1.00  0.00     0.056 A 
HETATM   20  C   UNL     1       5.173  10.334  91.627  1.00  0.00     0.005 A 
HETATM   21  C   UNL     1       6.204   9.402  91.754  1.00  0.00     0.008 A 
BRANCH  19  22
HETATM   22  C   UNL     1       2.926  11.152  92.231  1.00  0.00     0.254 C 
HETATM   23  O   UNL     1       1.766  10.755  92.146  1.00  0.00    -0.268 OA
HETATM   24  N   UNL     1       3.307  12.487  92.235  1.00  0.00    -0.335 N 
HETATM   25  HN  UNL     1       4.283  12.741  92.335  1.00  0.00     0.164 HD
BRANCH  24  26
HETATM   26  C   UNL     1       2.357  13.566  92.134  1.00  0.00     0.166 C 
BRANCH  26  27
HETATM   27  C   UNL     1       2.210  14.351  93.444  1.00  0.00     0.138 C 
HETATM   28  C   UNL     1       3.556  14.692  94.074  1.00  0.00     0.034 C 
BRANCH  27  29
HETATM   29  O   UNL     1       1.495  15.561  93.197  1.00  0.00    -0.383 OA
HETATM   30  H   UNL     1       0.824  15.385  92.515  1.00  0.00     0.210 HD
ENDBRANCH  27  29
ENDBRANCH  26  27
BRANCH  26  31
HETATM   31  C   UNL     1       2.801  14.472  90.991  1.00  0.00     0.181 C 
HETATM   32  O   UNL     1       3.902  15.017  90.957  1.00  0.00    -0.294 OA
BRANCH  31  33
HETATM   33  C   UNL     1       2.604  13.760  89.547  1.00  0.00     0.138 C 
BRANCH  33  34
HETATM   34  C   UNL     1       3.938  13.428  89.222  1.00  0.00     0.208 C 
HETATM   35  O   UNL     1       4.214  12.251  89.241  1.00  0.00    -0.289 OA
BRANCH  34  36
HETATM   36  C   UNL     1       4.913  14.168  88.611  1.00  0.00     0.194 C 
HETATM   37  O   UNL     1       6.086  13.762  87.966  1.00  0.00    -0.185 OA
ENDBRANCH  34  36
ENDBRANCH  33  34
ENDBRANCH  31  33
ENDBRANCH  26  31
ENDBRANCH  24  26
ENDBRANCH  19  22
ENDBRANCH  15  16
ENDBRANCH  11  14
ENDBRANCH   7   8
ENDBRANCH   2   7
TORSDOF 12
ENDMDL
