MODEL 1
REMARK VINA RESULT:      -6.7      0.000      0.000
REMARK  10 active torsions:
REMARK  status: ('A' for Active; 'I' for Inactive)
REMARK    1  A    between atoms: O_2  and  C_18 
REMARK    2  A    between atoms: O_5  and  N_8 
REMARK    3  A    between atoms: N_6  and  C_11 
REMARK    4  A    between atoms: N_7  and  C_15 
REMARK       I    between atoms: N_7  and  C_24 
REMARK       I    between atoms: N_8  and  C_23 
REMARK    5  A    between atoms: C_11  and  C_14 
REMARK    6  A    between atoms: C_15  and  C_18 
REMARK    7  A    between atoms: C_15  and  C_23 
REMARK    8  A    between atoms: C_21  and  C_26 
REMARK    9  A    between atoms: C_24  and  C_25 
REMARK   10  A    between atoms: C_29  and  C_32 
ROOT
HETATM    1  O   UNK     0      16.435   4.304  94.034  0.00  0.00    -0.388 OA
HETATM    2  N   UNK     0      14.638   2.694  92.524  0.00  0.00     0.096 N 
HETATM    3  C   UNK     0      14.619   4.161  92.431  0.00  0.00     0.299 C 
HETATM    4  C   UNK     0      15.110   2.280  93.852  0.00  0.00     0.299 C 
HETATM    5  C   UNK     0      16.008   4.716  92.734  0.00  0.00     0.198 C 
HETATM    6  C   UNK     0      16.487   2.880  94.122  0.00  0.00     0.198 C 
ENDROOT
BRANCH   2   7
HETATM    7  C   UNK     0      13.314   2.140  92.247  0.00  0.00     0.311 C 
BRANCH   7   8
HETATM    8  C   UNK     0      12.311   3.197  91.931  0.00  0.00    -0.030 A 
HETATM    9  C   UNK     0      11.554   3.768  92.955  0.00  0.00     0.010 A 
HETATM   10  C   UNK     0      10.614   4.755  92.660  0.00  0.00     0.021 A 
HETATM   11  C   UNK     0      10.433   5.173  91.341  0.00  0.00     0.018 A 
HETATM   12  C   UNK     0      11.189   4.603  90.318  0.00  0.00     0.021 A 
HETATM   13  C   UNK     0      12.128   3.615  90.613  0.00  0.00     0.010 A 
BRANCH  11  14
HETATM   14  C   UNK     0       9.470   6.187  91.039  0.00  0.00    -0.061 C 
HETATM   15  C   UNK     0       8.661   7.039  90.785  0.00  0.00    -0.061 C 
BRANCH  15  16
HETATM   16  C   UNK     0       7.700   8.052  90.482  0.00  0.00     0.018 A 
HETATM   17  C   UNK     0       7.991   9.390  90.749  0.00  0.00     0.022 A 
HETATM   18  C   UNK     0       7.054  10.380  90.451  0.00  0.00     0.018 A 
HETATM   19  C   UNK     0       5.848  10.010  89.893  0.00  0.00     0.032 A 
HETATM   20  C   UNK     0       5.536   8.694  89.620  0.00  0.00     0.018 A 
HETATM   21  C   UNK     0       6.473   7.704  89.918  0.00  0.00     0.022 A 
BRANCH  19  22
HETATM   22  C   UNK     0       4.849  11.064  89.578  0.00  0.00     0.252 C 
HETATM   23  O   UNK     0       4.540  11.266  88.406  0.00  0.00    -0.268 OA
HETATM   24  N   UNK     0       4.313  11.738  90.666  0.00  0.00    -0.341 N 
HETATM   25  H   UNK     0       4.598  11.499  91.609  0.00  0.00     0.163 HD
BRANCH  24  26
HETATM   26  C   UNK     0       3.316  12.769  90.525  0.00  0.00     0.207 C 
BRANCH  26  27
HETATM   27  C   UNK     0       2.330  12.805  91.700  0.00  0.00     0.146 C 
HETATM   28  C   UNK     0       3.002  12.512  93.036  0.00  0.00     0.042 C 
BRANCH  27  29
HETATM   29  O   UNK     0       1.712  14.090  91.764  0.00  0.00    -0.393 OA
HETATM   30  H   UNK     0       2.173  14.617  92.438  0.00  0.00     0.210 HD
ENDBRANCH  27  29
ENDBRANCH  26  27
BRANCH  26  31
HETATM   31  C   UNK     0       4.043  14.101  90.370  0.00  0.00     0.266 C 
HETATM   32  O   UNK     0       4.254  14.862  91.312  0.00  0.00    -0.269 OA
HETATM   33  N   UNK     0       4.389  14.354  89.065  0.00  0.00    -0.236 N 
HETATM   34  H   UNK     0       4.153  13.793  88.255  0.00  0.00     0.197 HD
BRANCH  33  35
HETATM   35  O   UNK     0       5.029  15.579  88.830  0.00  0.00    -0.287 OA
HETATM   36  H   UNK     0       5.497  15.376  88.002  0.00  0.00     0.244 HD
ENDBRANCH  33  35
ENDBRANCH  26  31
ENDBRANCH  24  26
ENDBRANCH  19  22
ENDBRANCH  15  16
ENDBRANCH  11  14
ENDBRANCH   7   8
ENDBRANCH   2   7
TORSDOF 10
ENDMDL
MODEL 2
REMARK VINA RESULT:      -6.2      1.480      1.955
REMARK  10 active torsions:
REMARK  status: ('A' for Active; 'I' for Inactive)
REMARK    1  A    between atoms: O_2  and  C_18 
REMARK    2  A    between atoms: O_5  and  N_8 
REMARK    3  A    between atoms: N_6  and  C_11 
REMARK    4  A    between atoms: N_7  and  C_15 
REMARK       I    between atoms: N_7  and  C_24 
REMARK       I    between atoms: N_8  and  C_23 
REMARK    5  A    between atoms: C_11  and  C_14 
REMARK    6  A    between atoms: C_15  and  C_18 
REMARK    7  A    between atoms: C_15  and  C_23 
REMARK    8  A    between atoms: C_21  and  C_26 
REMARK    9  A    between atoms: C_24  and  C_25 
REMARK   10  A    between atoms: C_29  and  C_32 
ROOT
HETATM    1  O   UNK     0      16.503   2.906  93.946  0.00  0.00    -0.388 OA
HETATM    2  N   UNK     0      13.971   2.895  92.647  0.00  0.00     0.096 N 
HETATM    3  C   UNK     0      14.714   1.651  92.892  0.00  0.00     0.299 C 
HETATM    4  C   UNK     0      14.905   4.018  92.498  0.00  0.00     0.299 C 
HETATM    5  C   UNK     0      15.601   1.813  94.124  0.00  0.00     0.198 C 
HETATM    6  C   UNK     0      15.788   4.125  93.738  0.00  0.00     0.198 C 
ENDROOT
BRANCH   2   7
HETATM    7  C   UNK     0      13.121   2.766  91.465  0.00  0.00     0.311 C 
BRANCH   7   8
HETATM    8  C   UNK     0      11.970   3.713  91.487  0.00  0.00    -0.030 A 
HETATM    9  C   UNK     0      11.419   4.167  90.288  0.00  0.00     0.010 A 
HETATM   10  C   UNK     0      10.343   5.055  90.307  0.00  0.00     0.021 A 
HETATM   11  C   UNK     0       9.818   5.486  91.525  0.00  0.00     0.018 A 
HETATM   12  C   UNK     0      10.367   5.033  92.722  0.00  0.00     0.021 A 
HETATM   13  C   UNK     0      11.443   4.146  92.704  0.00  0.00     0.010 A 
BRANCH  11  14
HETATM   14  C   UNK     0       8.713   6.395  91.544  0.00  0.00    -0.061 C 
HETATM   15  C   UNK     0       7.784   7.158  91.560  0.00  0.00    -0.061 C 
BRANCH  15  16
HETATM   16  C   UNK     0       6.681   8.065  91.578  0.00  0.00     0.018 A 
HETATM   17  C   UNK     0       6.892   9.414  91.870  0.00  0.00     0.022 A 
HETATM   18  C   UNK     0       5.815  10.300  91.886  0.00  0.00     0.018 A 
HETATM   19  C   UNK     0       4.552   9.820  91.609  0.00  0.00     0.032 A 
HETATM   20  C   UNK     0       4.316   8.493  91.319  0.00  0.00     0.018 A 
HETATM   21  C   UNK     0       5.393   7.606  91.304  0.00  0.00     0.022 A 
BRANCH  19  22
HETATM   22  C   UNK     0       3.405  10.765  91.628  0.00  0.00     0.252 C 
HETATM   23  O   UNK     0       2.261  10.318  91.642  0.00  0.00    -0.268 OA
HETATM   24  N   UNK     0       3.729  12.114  91.653  0.00  0.00    -0.341 N 
HETATM   25  H   UNK     0       4.698  12.408  91.666  0.00  0.00     0.163 HD
BRANCH  24  26
HETATM   26  C   UNK     0       2.729  13.151  91.698  0.00  0.00     0.207 C 
BRANCH  26  27
HETATM   27  C   UNK     0       2.665  13.855  93.059  0.00  0.00     0.146 C 
HETATM   28  C   UNK     0       4.003  13.836  93.790  0.00  0.00     0.042 C 
BRANCH  27  29
HETATM   29  O   UNK     0       2.256  15.210  92.876  0.00  0.00    -0.393 OA
HETATM   30  H   UNK     0       2.043  15.584  93.748  0.00  0.00     0.210 HD
ENDBRANCH  27  29
ENDBRANCH  26  27
BRANCH  26  31
HETATM   31  C   UNK     0       3.032  14.139  90.576  0.00  0.00     0.266 C 
HETATM   32  O   UNK     0       2.180  14.534  89.784  0.00  0.00    -0.269 OA
HETATM   33  N   UNK     0       4.360  14.492  90.540  0.00  0.00    -0.236 N 
HETATM   34  H   UNK     0       5.103  14.118  91.119  0.00  0.00     0.197 HD
BRANCH  33  35
HETATM   35  O   UNK     0       4.730  15.370  89.512  0.00  0.00    -0.287 OA
HETATM   36  H   UNK     0       5.642  15.576  89.778  0.00  0.00     0.244 HD
ENDBRANCH  33  35
ENDBRANCH  26  31
ENDBRANCH  24  26
ENDBRANCH  19  22
ENDBRANCH  15  16
ENDBRANCH  11  14
ENDBRANCH   7   8
ENDBRANCH   2   7
TORSDOF 10
ENDMDL
MODEL 3
REMARK VINA RESULT:      -5.4      1.447      2.384
REMARK  10 active torsions:
REMARK  status: ('A' for Active; 'I' for Inactive)
REMARK    1  A    between atoms: O_2  and  C_18 
REMARK    2  A    between atoms: O_5  and  N_8 
REMARK    3  A    between atoms: N_6  and  C_11 
REMARK    4  A    between atoms: N_7  and  C_15 
REMARK       I    between atoms: N_7  and  C_24 
REMARK       I    between atoms: N_8  and  C_23 
REMARK    5  A    between atoms: C_11  and  C_14 
REMARK    6  A    between atoms: C_15  and  C_18 
REMARK    7  A    between atoms: C_15  and  C_23 
REMARK    8  A    between atoms: C_21  and  C_26 
REMARK    9  A    between atoms: C_24  and  C_25 
REMARK   10  A    between atoms: C_29  and  C_32 
ROOT
HETATM    1  O   UNK     0      15.740   3.733  94.095  0.00  0.00    -0.388 OA
HETATM    2  N   UNK     0      13.840   2.517  92.360  0.00  0.00     0.096 N 
HETATM    3  C   UNK     0      13.896   3.975  92.536  0.00  0.00     0.299 C 
HETATM    4  C   UNK     0      14.308   1.844  93.578  0.00  0.00     0.299 C 
HETATM    5  C   UNK     0      15.316   4.397  92.903  0.00  0.00     0.198 C 
HETATM    6  C   UNK     0      15.718   2.316  93.922  0.00  0.00     0.198 C 
ENDROOT
BRANCH   2   7
HETATM    7  C   UNK     0      12.485   2.089  92.018  0.00  0.00     0.311 C 
BRANCH   7   8
HETATM    8  C   UNK     0      11.542   3.236  91.887  0.00  0.00    -0.030 A 
HETATM    9  C   UNK     0      10.742   3.355  90.750  0.00  0.00     0.010 A 
HETATM   10  C   UNK     0       9.861   4.429  90.626  0.00  0.00     0.021 A 
HETATM   11  C   UNK     0       9.780   5.383  91.640  0.00  0.00     0.018 A 
HETATM   12  C   UNK     0      10.579   5.266  92.775  0.00  0.00     0.021 A 
HETATM   13  C   UNK     0      11.460   4.192  92.900  0.00  0.00     0.010 A 
BRANCH  11  14
HETATM   14  C   UNK     0       8.875   6.484  91.513  0.00  0.00    -0.061 C 
HETATM   15  C   UNK     0       8.115   7.410  91.407  0.00  0.00    -0.061 C 
BRANCH  15  16
HETATM   16  C   UNK     0       7.211   8.509  91.282  0.00  0.00     0.018 A 
HETATM   17  C   UNK     0       7.341   9.400  90.216  0.00  0.00     0.022 A 
HETATM   18  C   UNK     0       6.457  10.472  90.092  0.00  0.00     0.018 A 
HETATM   19  C   UNK     0       5.463  10.629  91.036  0.00  0.00     0.032 A 
HETATM   20  C   UNK     0       5.314   9.763  92.098  0.00  0.00     0.018 A 
HETATM   21  C   UNK     0       6.198   8.691  92.223  0.00  0.00     0.022 A 
BRANCH  19  22
HETATM   22  C   UNK     0       4.523  11.772  90.904  0.00  0.00     0.252 C 
HETATM   23  O   UNK     0       3.468  11.614  90.296  0.00  0.00    -0.268 OA
HETATM   24  N   UNK     0       4.914  12.954  91.518  0.00  0.00    -0.341 N 
HETATM   25  H   UNK     0       5.790  13.003  92.026  0.00  0.00     0.163 HD
BRANCH  24  26
HETATM   26  C   UNK     0       4.100  14.143  91.501  0.00  0.00     0.207 C 
BRANCH  26  27
HETATM   27  C   UNK     0       3.887  14.696  90.086  0.00  0.00     0.146 C 
HETATM   28  C   UNK     0       5.175  14.724  89.270  0.00  0.00     0.042 C 
BRANCH  27  29
HETATM   29  O   UNK     0       2.923  13.897  89.401  0.00  0.00    -0.393 OA
HETATM   30  H   UNK     0       2.038  14.166  89.699  0.00  0.00     0.210 HD
ENDBRANCH  27  29
ENDBRANCH  26  27
BRANCH  26  31
HETATM   31  C   UNK     0       2.771  13.808  92.171  0.00  0.00     0.266 C 
HETATM   32  O   UNK     0       1.682  14.037  91.649  0.00  0.00    -0.269 OA
HETATM   33  N   UNK     0       2.943  13.266  93.421  0.00  0.00    -0.236 N 
HETATM   34  H   UNK     0       3.819  13.147  93.916  0.00  0.00     0.197 HD
BRANCH  33  35
HETATM   35  O   UNK     0       1.766  12.964  94.122  0.00  0.00    -0.287 OA
HETATM   36  H   UNK     0       2.016  13.255  95.015  0.00  0.00     0.244 HD
ENDBRANCH  33  35
ENDBRANCH  26  31
ENDBRANCH  24  26
ENDBRANCH  19  22
ENDBRANCH  15  16
ENDBRANCH  11  14
ENDBRANCH   7   8
ENDBRANCH   2   7
TORSDOF 10
ENDMDL
MODEL 4
REMARK VINA RESULT:      -5.3      1.618      2.364
REMARK  10 active torsions:
REMARK  status: ('A' for Active; 'I' for Inactive)
REMARK    1  A    between atoms: O_2  and  C_18 
REMARK    2  A    between atoms: O_5  and  N_8 
REMARK    3  A    between atoms: N_6  and  C_11 
REMARK    4  A    between atoms: N_7  and  C_15 
REMARK       I    between atoms: N_7  and  C_24 
REMARK       I    between atoms: N_8  and  C_23 
REMARK    5  A    between atoms: C_11  and  C_14 
REMARK    6  A    between atoms: C_15  and  C_18 
REMARK    7  A    between atoms: C_15  and  C_23 
REMARK    8  A    between atoms: C_21  and  C_26 
REMARK    9  A    between atoms: C_24  and  C_25 
REMARK   10  A    between atoms: C_29  and  C_32 
ROOT
HETATM    1  O   UNK     0      16.734   3.084  93.404  0.00  0.00    -0.388 OA
HETATM    2  N   UNK     0      13.901   2.968  93.153  0.00  0.00     0.096 N 
HETATM    3  C   UNK     0      14.704   1.755  93.364  0.00  0.00     0.299 C 
HETATM    4  C   UNK     0      14.694   3.979  92.442  0.00  0.00     0.299 C 
HETATM    5  C   UNK     0      15.981   2.106  94.123  0.00  0.00     0.198 C 
HETATM    6  C   UNK     0      15.972   4.278  93.222  0.00  0.00     0.198 C 
ENDROOT
BRANCH   2   7
HETATM    7  C   UNK     0      12.677   2.657  92.418  0.00  0.00     0.311 C 
BRANCH   7   8
HETATM    8  C   UNK     0      11.702   3.785  92.434  0.00  0.00    -0.030 A 
HETATM    9  C   UNK     0      11.092   4.195  91.249  0.00  0.00     0.010 A 
HETATM   10  C   UNK     0      10.181   5.252  91.262  0.00  0.00     0.021 A 
HETATM   11  C   UNK     0       9.880   5.896  92.462  0.00  0.00     0.018 A 
HETATM   12  C   UNK     0      10.489   5.487  93.647  0.00  0.00     0.021 A 
HETATM   13  C   UNK     0      11.400   4.430  93.633  0.00  0.00     0.010 A 
BRANCH  11  14
HETATM   14  C   UNK     0       8.945   6.978  92.477  0.00  0.00    -0.061 C 
HETATM   15  C   UNK     0       8.159   7.888  92.489  0.00  0.00    -0.061 C 
BRANCH  15  16
HETATM   16  C   UNK     0       7.223   8.968  92.503  0.00  0.00     0.018 A 
HETATM   17  C   UNK     0       6.743   9.490  91.301  0.00  0.00     0.022 A 
HETATM   18  C   UNK     0       5.829  10.543  91.315  0.00  0.00     0.018 A 
HETATM   19  C   UNK     0       5.414  11.050  92.528  0.00  0.00     0.032 A 
HETATM   20  C   UNK     0       5.873  10.553  93.730  0.00  0.00     0.018 A 
HETATM   21  C   UNK     0       6.789   9.500  93.717  0.00  0.00     0.022 A 
BRANCH  19  22
HETATM   22  C   UNK     0       4.441  12.173  92.542  0.00  0.00     0.252 C 
HETATM   23  O   UNK     0       4.596  13.091  93.343  0.00  0.00    -0.268 OA
HETATM   24  N   UNK     0       3.419  12.104  91.605  0.00  0.00    -0.341 N 
HETATM   25  H   UNK     0       3.369  11.326  90.957  0.00  0.00     0.163 HD
BRANCH  24  26
HETATM   26  C   UNK     0       2.414  13.128  91.477  0.00  0.00     0.207 C 
BRANCH  26  27
HETATM   27  C   UNK     0       1.485  13.203  92.696  0.00  0.00     0.146 C 
HETATM   28  C   UNK     0       1.190  11.830  93.290  0.00  0.00     0.042 C 
BRANCH  27  29
HETATM   29  O   UNK     0       2.081  14.024  93.700  0.00  0.00    -0.393 OA
HETATM   30  H   UNK     0       2.274  13.468  94.474  0.00  0.00     0.210 HD
ENDBRANCH  27  29
ENDBRANCH  26  27
BRANCH  26  31
HETATM   31  C   UNK     0       3.127  14.455  91.241  0.00  0.00     0.266 C 
HETATM   32  O   UNK     0       2.971  15.437  91.964  0.00  0.00    -0.269 OA
HETATM   33  N   UNK     0       3.918  14.426  90.118  0.00  0.00    -0.236 N 
HETATM   34  H   UNK     0       4.000  13.666  89.453  0.00  0.00     0.197 HD
BRANCH  33  35
HETATM   35  O   UNK     0       4.581  15.622  89.808  0.00  0.00    -0.287 OA
HETATM   36  H   UNK     0       5.393  15.513  90.332  0.00  0.00     0.244 HD
ENDBRANCH  33  35
ENDBRANCH  26  31
ENDBRANCH  24  26
ENDBRANCH  19  22
ENDBRANCH  15  16
ENDBRANCH  11  14
ENDBRANCH   7   8
ENDBRANCH   2   7
TORSDOF 10
ENDMDL
MODEL 5
REMARK VINA RESULT:      -5.2      2.192     12.405
REMARK  10 active torsions:
REMARK  status: ('A' for Active; 'I' for Inactive)
REMARK    1  A    between atoms: O_2  and  C_18 
REMARK    2  A    between atoms: O_5  and  N_8 
REMARK    3  A    between atoms: N_6  and  C_11 
REMARK    4  A    between atoms: N_7  and  C_15 
REMARK       I    between atoms: N_7  and  C_24 
REMARK       I    between atoms: N_8  and  C_23 
REMARK    5  A    between atoms: C_11  and  C_14 
REMARK    6  A    between atoms: C_15  and  C_18 
REMARK    7  A    between atoms: C_15  and  C_23 
REMARK    8  A    between atoms: C_21  and  C_26 
REMARK    9  A    between atoms: C_24  and  C_25 
REMARK   10  A    between atoms: C_29  and  C_32 
ROOT
HETATM    1  O   UNK     0       3.029  14.980  93.779  0.00  0.00    -0.388 OA
HETATM    2  N   UNK     0       2.801  14.487  90.985  0.00  0.00     0.096 N 
HETATM    3  C   UNK     0       1.849  13.912  91.946  0.00  0.00     0.299 C 
HETATM    4  C   UNK     0       4.108  14.683  91.626  0.00  0.00     0.299 C 
HETATM    5  C   UNK     0       1.745  14.815  93.173  0.00  0.00     0.198 C 
HETATM    6  C   UNK     0       3.951  15.566  92.860  0.00  0.00     0.198 C 
ENDROOT
BRANCH   2   7
HETATM    7  C   UNK     0       2.924  13.632  89.805  0.00  0.00     0.311 C 
BRANCH   7   8
HETATM    8  C   UNK     0       3.940  12.557  89.987  0.00  0.00    -0.030 A 
HETATM    9  C   UNK     0       3.667  11.474  90.824  0.00  0.00     0.010 A 
HETATM   10  C   UNK     0       4.618  10.469  90.996  0.00  0.00     0.021 A 
HETATM   11  C   UNK     0       5.840  10.545  90.330  0.00  0.00     0.018 A 
HETATM   12  C   UNK     0       6.114  11.625  89.493  0.00  0.00     0.021 A 
HETATM   13  C   UNK     0       5.164  12.631  89.321  0.00  0.00     0.010 A 
BRANCH  11  14
HETATM   14  C   UNK     0       6.815   9.512  90.505  0.00  0.00    -0.061 C 
HETATM   15  C   UNK     0       7.633   8.644  90.652  0.00  0.00    -0.061 C 
BRANCH  15  16
HETATM   16  C   UNK     0       8.605   7.611  90.827  0.00  0.00     0.018 A 
HETATM   17  C   UNK     0       9.030   7.265  92.110  0.00  0.00     0.022 A 
HETATM   18  C   UNK     0       9.978   6.255  92.282  0.00  0.00     0.018 A 
HETATM   19  C   UNK     0      10.479   5.615  91.168  0.00  0.00     0.032 A 
HETATM   20  C   UNK     0      10.076   5.938  89.889  0.00  0.00     0.018 A 
HETATM   21  C   UNK     0       9.129   6.948  89.717  0.00  0.00     0.022 A 
BRANCH  19  22
HETATM   22  C   UNK     0      11.489   4.541  91.352  0.00  0.00     0.252 C 
HETATM   23  O   UNK     0      11.814   3.852  90.388  0.00  0.00    -0.268 OA
HETATM   24  N   UNK     0      12.018   4.415  92.629  0.00  0.00    -0.341 N 
HETATM   25  H   UNK     0      11.719   5.037  93.371  0.00  0.00     0.163 HD
BRANCH  24  26
HETATM   26  C   UNK     0      13.024   3.438  92.959  0.00  0.00     0.207 C 
BRANCH  26  27
HETATM   27  C   UNK     0      12.906   2.159  92.121  0.00  0.00     0.146 C 
HETATM   28  C   UNK     0      13.940   1.108  92.512  0.00  0.00     0.042 C 
BRANCH  27  29
HETATM   29  O   UNK     0      11.600   1.605  92.277  0.00  0.00    -0.393 OA
HETATM   30  H   UNK     0      11.077   2.208  92.831  0.00  0.00     0.210 HD
ENDBRANCH  27  29
ENDBRANCH  26  27
BRANCH  26  31
HETATM   31  C   UNK     0      14.388   4.096  92.779  0.00  0.00     0.266 C 
HETATM   32  O   UNK     0      14.776   4.550  91.704  0.00  0.00    -0.269 OA
HETATM   33  N   UNK     0      15.129   4.080  93.936  0.00  0.00    -0.236 N 
HETATM   34  H   UNK     0      14.877   3.636  94.812  0.00  0.00     0.197 HD
BRANCH  33  35
HETATM   35  O   UNK     0      16.414   4.633  93.845  0.00  0.00    -0.287 OA
HETATM   36  H   UNK     0      16.885   4.088  94.499  0.00  0.00     0.244 HD
ENDBRANCH  33  35
ENDBRANCH  26  31
ENDBRANCH  24  26
ENDBRANCH  19  22
ENDBRANCH  15  16
ENDBRANCH  11  14
ENDBRANCH   7   8
ENDBRANCH   2   7
TORSDOF 10
ENDMDL
MODEL 6
REMARK VINA RESULT:      -4.9      1.385      1.967
REMARK  10 active torsions:
REMARK  status: ('A' for Active; 'I' for Inactive)
REMARK    1  A    between atoms: O_2  and  C_18 
REMARK    2  A    between atoms: O_5  and  N_8 
REMARK    3  A    between atoms: N_6  and  C_11 
REMARK    4  A    between atoms: N_7  and  C_15 
REMARK       I    between atoms: N_7  and  C_24 
REMARK       I    between atoms: N_8  and  C_23 
REMARK    5  A    between atoms: C_11  and  C_14 
REMARK    6  A    between atoms: C_15  and  C_18 
REMARK    7  A    between atoms: C_15  and  C_23 
REMARK    8  A    between atoms: C_21  and  C_26 
REMARK    9  A    between atoms: C_24  and  C_25 
REMARK   10  A    between atoms: C_29  and  C_32 
ROOT
HETATM    1  O   UNK     0      17.444   4.378  93.606  0.00  0.00    -0.388 OA
HETATM    2  N   UNK     0      14.993   2.963  93.908  0.00  0.00     0.096 N 
HETATM    3  C   UNK     0      16.203   2.302  93.399  0.00  0.00     0.299 C 
HETATM    4  C   UNK     0      15.018   4.391  93.568  0.00  0.00     0.299 C 
HETATM    5  C   UNK     0      17.444   2.993  93.960  0.00  0.00     0.198 C 
HETATM    6  C   UNK     0      16.286   5.033  94.124  0.00  0.00     0.198 C 
ENDROOT
BRANCH   2   7
HETATM    7  C   UNK     0      13.791   2.323  93.374  0.00  0.00     0.311 C 
BRANCH   7   8
HETATM    8  C   UNK     0      12.792   3.314  92.882  0.00  0.00    -0.030 A 
HETATM    9  C   UNK     0      11.856   3.856  93.763  0.00  0.00     0.010 A 
HETATM   10  C   UNK     0      10.919   4.781  93.303  0.00  0.00     0.021 A 
HETATM   11  C   UNK     0      10.920   5.165  91.963  0.00  0.00     0.018 A 
HETATM   12  C   UNK     0      11.854   4.625  91.082  0.00  0.00     0.021 A 
HETATM   13  C   UNK     0      12.791   3.699  91.541  0.00  0.00     0.010 A 
BRANCH  11  14
HETATM   14  C   UNK     0       9.960   6.116  91.491  0.00  0.00    -0.061 C 
HETATM   15  C   UNK     0       9.153   6.914  91.096  0.00  0.00    -0.061 C 
BRANCH  15  16
HETATM   16  C   UNK     0       8.195   7.863  90.624  0.00  0.00     0.018 A 
HETATM   17  C   UNK     0       7.392   7.554  89.525  0.00  0.00     0.022 A 
HETATM   18  C   UNK     0       6.454   8.479  89.065  0.00  0.00     0.018 A 
HETATM   19  C   UNK     0       6.339   9.691  89.714  0.00  0.00     0.032 A 
HETATM   20  C   UNK     0       7.121  10.020  90.802  0.00  0.00     0.018 A 
HETATM   21  C   UNK     0       8.059   9.096  91.261  0.00  0.00     0.022 A 
BRANCH  19  22
HETATM   22  C   UNK     0       5.342  10.676  89.223  0.00  0.00     0.252 C 
HETATM   23  O   UNK     0       4.528  10.331  88.370  0.00  0.00    -0.268 OA
HETATM   24  N   UNK     0       5.397  11.937  89.801  0.00  0.00    -0.341 N 
HETATM   25  H   UNK     0       6.082  12.142  90.519  0.00  0.00     0.163 HD
BRANCH  24  26
HETATM   26  C   UNK     0       4.482  12.992  89.449  0.00  0.00     0.207 C 
BRANCH  26  27
HETATM   27  C   UNK     0       3.018  12.534  89.449  0.00  0.00     0.146 C 
HETATM   28  C   UNK     0       2.073  13.598  89.997  0.00  0.00     0.042 C 
BRANCH  27  29
HETATM   29  O   UNK     0       2.621  12.203  88.119  0.00  0.00    -0.393 OA
HETATM   30  H   UNK     0       3.187  12.695  87.500  0.00  0.00     0.210 HD
ENDBRANCH  27  29
ENDBRANCH  26  27
BRANCH  26  31
HETATM   31  C   UNK     0       4.702  14.145  90.423  0.00  0.00     0.266 C 
HETATM   32  O   UNK     0       5.026  15.275  90.062  0.00  0.00    -0.269 OA
HETATM   33  N   UNK     0       4.534  13.758  91.731  0.00  0.00    -0.236 N 
HETATM   34  H   UNK     0       4.356  12.819  92.068  0.00  0.00     0.197 HD
BRANCH  33  35
HETATM   35  O   UNK     0       4.757  14.752  92.694  0.00  0.00    -0.287 OA
HETATM   36  H   UNK     0       3.853  14.875  93.030  0.00  0.00     0.244 HD
ENDBRANCH  33  35
ENDBRANCH  26  31
ENDBRANCH  24  26
ENDBRANCH  19  22
ENDBRANCH  15  16
ENDBRANCH  11  14
ENDBRANCH   7   8
ENDBRANCH   2   7
TORSDOF 10
ENDMDL
MODEL 7
REMARK VINA RESULT:      -4.8      2.251     12.645
REMARK  10 active torsions:
REMARK  status: ('A' for Active; 'I' for Inactive)
REMARK    1  A    between atoms: O_2  and  C_18 
REMARK    2  A    between atoms: O_5  and  N_8 
REMARK    3  A    between atoms: N_6  and  C_11 
REMARK    4  A    between atoms: N_7  and  C_15 
REMARK       I    between atoms: N_7  and  C_24 
REMARK       I    between atoms: N_8  and  C_23 
REMARK    5  A    between atoms: C_11  and  C_14 
REMARK    6  A    between atoms: C_15  and  C_18 
REMARK    7  A    between atoms: C_15  and  C_23 
REMARK    8  A    between atoms: C_21  and  C_26 
REMARK    9  A    between atoms: C_24  and  C_25 
REMARK   10  A    between atoms: C_29  and  C_32 
ROOT
HETATM    1  O   UNK     0       4.155  14.422  89.290  0.00  0.00    -0.388 OA
HETATM    2  N   UNK     0       3.275  13.960  91.958  0.00  0.00     0.096 N 
HETATM    3  C   UNK     0       4.590  14.552  91.674  0.00  0.00     0.299 C 
HETATM    4  C   UNK     0       2.870  13.082  90.852  0.00  0.00     0.299 C 
HETATM    5  C   UNK     0       4.543  15.303  90.346  0.00  0.00     0.198 C 
HETATM    6  C   UNK     0       2.864  13.866  89.543  0.00  0.00     0.198 C 
ENDROOT
BRANCH   2   7
HETATM    7  C   UNK     0       3.300  13.226  93.222  0.00  0.00     0.311 C 
BRANCH   7   8
HETATM    8  C   UNK     0       4.272  12.096  93.204  0.00  0.00    -0.030 A 
HETATM    9  C   UNK     0       5.382  12.119  94.049  0.00  0.00     0.010 A 
HETATM   10  C   UNK     0       6.294  11.063  94.031  0.00  0.00     0.021 A 
HETATM   11  C   UNK     0       6.093   9.985  93.170  0.00  0.00     0.018 A 
HETATM   12  C   UNK     0       4.985   9.961  92.326  0.00  0.00     0.021 A 
HETATM   13  C   UNK     0       4.074  11.017  92.343  0.00  0.00     0.010 A 
BRANCH  11  14
HETATM   14  C   UNK     0       7.027   8.901  93.154  0.00  0.00    -0.061 C 
HETATM   15  C   UNK     0       7.812   7.990  93.141  0.00  0.00    -0.061 C 
BRANCH  15  16
HETATM   16  C   UNK     0       8.746   6.909  93.125  0.00  0.00     0.018 A 
HETATM   17  C   UNK     0       8.606   5.881  92.191  0.00  0.00     0.022 A 
HETATM   18  C   UNK     0       9.518   4.826  92.173  0.00  0.00     0.018 A 
HETATM   19  C   UNK     0      10.550   4.822  93.088  0.00  0.00     0.032 A 
HETATM   20  C   UNK     0      10.710   5.825  94.021  0.00  0.00     0.018 A 
HETATM   21  C   UNK     0       9.798   6.880  94.040  0.00  0.00     0.022 A 
BRANCH  19  22
HETATM   22  C   UNK     0      11.521   3.697  93.070  0.00  0.00     0.252 C 
HETATM   23  O   UNK     0      11.215   2.650  92.505  0.00  0.00    -0.268 OA
HETATM   24  N   UNK     0      12.739   3.935  93.691  0.00  0.00    -0.341 N 
HETATM   25  H   UNK     0      12.931   4.835  94.116  0.00  0.00     0.163 HD
BRANCH  24  26
HETATM   26  C   UNK     0      13.792   2.953  93.736  0.00  0.00     0.207 C 
BRANCH  26  27
HETATM   27  C   UNK     0      13.827   2.063  92.487  0.00  0.00     0.146 C 
HETATM   28  C   UNK     0      14.316   2.810  91.251  0.00  0.00     0.042 C 
BRANCH  27  29
HETATM   29  O   UNK     0      14.682   0.945  92.721  0.00  0.00    -0.393 OA
HETATM   30  H   UNK     0      14.345   0.459  93.493  0.00  0.00     0.210 HD
ENDBRANCH  27  29
ENDBRANCH  26  27
BRANCH  26  31
HETATM   31  C   UNK     0      15.112   3.692  93.927  0.00  0.00     0.266 C 
HETATM   32  O   UNK     0      15.190   4.918  93.983  0.00  0.00    -0.269 OA
HETATM   33  N   UNK     0      16.183   2.834  93.987  0.00  0.00    -0.236 N 
HETATM   34  H   UNK     0      16.165   1.830  93.855  0.00  0.00     0.197 HD
BRANCH  33  35
HETATM   35  O   UNK     0      17.441   3.438  94.124  0.00  0.00    -0.287 OA
HETATM   36  H   UNK     0      17.856   2.834  94.763  0.00  0.00     0.244 HD
ENDBRANCH  33  35
ENDBRANCH  26  31
ENDBRANCH  24  26
ENDBRANCH  19  22
ENDBRANCH  15  16
ENDBRANCH  11  14
ENDBRANCH   7   8
ENDBRANCH   2   7
TORSDOF 10
ENDMDL
MODEL 8
REMARK VINA RESULT:      -4.6      2.002     12.530
REMARK  10 active torsions:
REMARK  status: ('A' for Active; 'I' for Inactive)
REMARK    1  A    between atoms: O_2  and  C_18 
REMARK    2  A    between atoms: O_5  and  N_8 
REMARK    3  A    between atoms: N_6  and  C_11 
REMARK    4  A    between atoms: N_7  and  C_15 
REMARK       I    between atoms: N_7  and  C_24 
REMARK       I    between atoms: N_8  and  C_23 
REMARK    5  A    between atoms: C_11  and  C_14 
REMARK    6  A    between atoms: C_15  and  C_18 
REMARK    7  A    between atoms: C_15  and  C_23 
REMARK    8  A    between atoms: C_21  and  C_26 
REMARK    9  A    between atoms: C_24  and  C_25 
REMARK   10  A    between atoms: C_29  and  C_32 
ROOT
HETATM    1  O   UNK     0       3.346  14.844  93.187  0.00  0.00    -0.388 OA
HETATM    2  N   UNK     0       3.074  13.738  90.579  0.00  0.00     0.096 N 
HETATM    3  C   UNK     0       2.205  13.316  91.686  0.00  0.00     0.299 C 
HETATM    4  C   UNK     0       4.379  14.168  91.098  0.00  0.00     0.299 C 
HETATM    5  C   UNK     0       2.063  14.454  92.694  0.00  0.00     0.198 C 
HETATM    6  C   UNK     0       4.187  15.285  92.120  0.00  0.00     0.198 C 
ENDROOT
BRANCH   2   7
HETATM    7  C   UNK     0       3.233  12.659  89.606  0.00  0.00     0.311 C 
BRANCH   7   8
HETATM    8  C   UNK     0       4.287  11.683  90.006  0.00  0.00    -0.030 A 
HETATM    9  C   UNK     0       5.516  11.676  89.347  0.00  0.00     0.010 A 
HETATM   10  C   UNK     0       6.502  10.762  89.720  0.00  0.00     0.021 A 
HETATM   11  C   UNK     0       6.258   9.858  90.753  0.00  0.00     0.018 A 
HETATM   12  C   UNK     0       5.031   9.864  91.412  0.00  0.00     0.021 A 
HETATM   13  C   UNK     0       4.044  10.777  91.039  0.00  0.00     0.010 A 
BRANCH  11  14
HETATM   14  C   UNK     0       7.270   8.922  91.136  0.00  0.00    -0.061 C 
HETATM   15  C   UNK     0       8.120   8.135  91.458  0.00  0.00    -0.061 C 
BRANCH  15  16
HETATM   16  C   UNK     0       9.130   7.200  91.843  0.00  0.00     0.018 A 
HETATM   17  C   UNK     0       9.561   7.146  93.169  0.00  0.00     0.022 A 
HETATM   18  C   UNK     0      10.546   6.233  93.545  0.00  0.00     0.018 A 
HETATM   19  C   UNK     0      11.077   5.393  92.588  0.00  0.00     0.032 A 
HETATM   20  C   UNK     0      10.669   5.427  91.271  0.00  0.00     0.018 A 
HETATM   21  C   UNK     0       9.685   6.341  90.895  0.00  0.00     0.022 A 
BRANCH  19  22
HETATM   22  C   UNK     0      12.127   4.422  92.989  0.00  0.00     0.252 C 
HETATM   23  O   UNK     0      11.921   3.675  93.943  0.00  0.00    -0.268 OA
HETATM   24  N   UNK     0      13.280   4.419  92.216  0.00  0.00    -0.341 N 
HETATM   25  H   UNK     0      13.369   5.048  91.427  0.00  0.00     0.163 HD
BRANCH  24  26
HETATM   26  C   UNK     0      14.377   3.519  92.464  0.00  0.00     0.207 C 
BRANCH  26  27
HETATM   27  C   UNK     0      15.176   3.888  93.720  0.00  0.00     0.146 C 
HETATM   28  C   UNK     0      16.301   2.900  94.008  0.00  0.00     0.042 C 
BRANCH  27  29
HETATM   29  O   UNK     0      15.734   5.192  93.565  0.00  0.00    -0.393 OA
HETATM   30  H   UNK     0      16.584   5.107  93.102  0.00  0.00     0.210 HD
ENDBRANCH  27  29
ENDBRANCH  26  27
BRANCH  26  31
HETATM   31  C   UNK     0      13.809   2.107  92.563  0.00  0.00     0.266 C 
HETATM   32  O   UNK     0      14.342   1.215  93.220  0.00  0.00    -0.269 OA
HETATM   33  N   UNK     0      12.671   1.952  91.809  0.00  0.00    -0.236 N 
HETATM   34  H   UNK     0      12.257   2.636  91.187  0.00  0.00     0.197 HD
BRANCH  33  35
HETATM   35  O   UNK     0      12.105   0.669  91.815  0.00  0.00    -0.287 OA
HETATM   36  H   UNK     0      12.899   0.129  91.970  0.00  0.00     0.244 HD
ENDBRANCH  33  35
ENDBRANCH  26  31
ENDBRANCH  24  26
ENDBRANCH  19  22
ENDBRANCH  15  16
ENDBRANCH  11  14
ENDBRANCH   7   8
ENDBRANCH   2   7
TORSDOF 10
ENDMDL
MODEL 9
REMARK VINA RESULT:      -4.6      1.721      2.385
REMARK  10 active torsions:
REMARK  status: ('A' for Active; 'I' for Inactive)
REMARK    1  A    between atoms: O_2  and  C_18 
REMARK    2  A    between atoms: O_5  and  N_8 
REMARK    3  A    between atoms: N_6  and  C_11 
REMARK    4  A    between atoms: N_7  and  C_15 
REMARK       I    between atoms: N_7  and  C_24 
REMARK       I    between atoms: N_8  and  C_23 
REMARK    5  A    between atoms: C_11  and  C_14 
REMARK    6  A    between atoms: C_15  and  C_18 
REMARK    7  A    between atoms: C_15  and  C_23 
REMARK    8  A    between atoms: C_21  and  C_26 
REMARK    9  A    between atoms: C_24  and  C_25 
REMARK   10  A    between atoms: C_29  and  C_32 
ROOT
HETATM    1  O   UNK     0      17.096   4.121  92.943  0.00  0.00    -0.388 OA
HETATM    2  N   UNK     0      14.957   2.388  93.667  0.00  0.00     0.096 N 
HETATM    3  C   UNK     0      15.771   2.143  92.469  0.00  0.00     0.299 C 
HETATM    4  C   UNK     0      14.913   3.827  93.960  0.00  0.00     0.299 C 
HETATM    5  C   UNK     0      17.170   2.721  92.668  0.00  0.00     0.198 C 
HETATM    6  C   UNK     0      16.331   4.365  94.124  0.00  0.00     0.198 C 
ENDROOT
BRANCH   2   7
HETATM    7  C   UNK     0      13.608   1.852  93.495  0.00  0.00     0.311 C 
BRANCH   7   8
HETATM    8  C   UNK     0      12.646   2.881  93.005  0.00  0.00    -0.030 A 
HETATM    9  C   UNK     0      12.133   3.831  93.889  0.00  0.00     0.010 A 
HETATM   10  C   UNK     0      11.232   4.793  93.433  0.00  0.00     0.021 A 
HETATM   11  C   UNK     0      10.845   4.804  92.093  0.00  0.00     0.018 A 
HETATM   12  C   UNK     0      11.357   3.856  91.210  0.00  0.00     0.021 A 
HETATM   13  C   UNK     0      12.258   2.894  91.666  0.00  0.00     0.010 A 
BRANCH  11  14
HETATM   14  C   UNK     0       9.922   5.792  91.624  0.00  0.00    -0.061 C 
HETATM   15  C   UNK     0       9.147   6.622  91.230  0.00  0.00    -0.061 C 
BRANCH  15  16
HETATM   16  C   UNK     0       8.226   7.609  90.762  0.00  0.00     0.018 A 
HETATM   17  C   UNK     0       7.278   8.146  91.634  0.00  0.00     0.022 A 
HETATM   18  C   UNK     0       6.380   9.112  91.179  0.00  0.00     0.018 A 
HETATM   19  C   UNK     0       6.450   9.519  89.863  0.00  0.00     0.032 A 
HETATM   20  C   UNK     0       7.377   9.004  88.981  0.00  0.00     0.018 A 
HETATM   21  C   UNK     0       8.274   8.038  89.436  0.00  0.00     0.022 A 
BRANCH  19  22
HETATM   22  C   UNK     0       5.492  10.546  89.377  0.00  0.00     0.252 C 
HETATM   23  O   UNK     0       4.872  10.343  88.336  0.00  0.00    -0.268 OA
HETATM   24  N   UNK     0       5.353  11.673  90.175  0.00  0.00    -0.341 N 
HETATM   25  H   UNK     0       5.880  11.760  91.036  0.00  0.00     0.163 HD
BRANCH  24  26
HETATM   26  C   UNK     0       4.446  12.745  89.852  0.00  0.00     0.207 C 
BRANCH  26  27
HETATM   27  C   UNK     0       5.009  13.699  88.790  0.00  0.00     0.146 C 
HETATM   28  C   UNK     0       5.339  15.075  89.358  0.00  0.00     0.042 C 
BRANCH  27  29
HETATM   29  O   UNK     0       6.191  13.136  88.222  0.00  0.00    -0.393 OA
HETATM   30  H   UNK     0       6.895  13.806  88.257  0.00  0.00     0.210 HD
ENDBRANCH  27  29
ENDBRANCH  26  27
BRANCH  26  31
HETATM   31  C   UNK     0       3.131  12.121  89.395  0.00  0.00     0.266 C 
HETATM   32  O   UNK     0       2.226  11.825  90.172  0.00  0.00    -0.269 OA
HETATM   33  N   UNK     0       3.104  11.902  88.039  0.00  0.00    -0.236 N 
HETATM   34  H   UNK     0       3.864  12.051  87.385  0.00  0.00     0.197 HD
BRANCH  33  35
HETATM   35  O   UNK     0       1.942  11.294  87.543  0.00  0.00    -0.287 OA
HETATM   36  H   UNK     0       1.957  11.614  86.625  0.00  0.00     0.244 HD
ENDBRANCH  33  35
ENDBRANCH  26  31
ENDBRANCH  24  26
ENDBRANCH  19  22
ENDBRANCH  15  16
ENDBRANCH  11  14
ENDBRANCH   7   8
ENDBRANCH   2   7
TORSDOF 10
ENDMDL
