MODEL 1
REMARK VINA RESULT:      -6.8      0.000      0.000
REMARK  10 active torsions:
REMARK  status: ('A' for Active; 'I' for Inactive)
REMARK    1  A    between atoms: O_2  and  C_16 
REMARK    2  A    between atoms: N_5  and  C_9 
REMARK    3  A    between atoms: N_6  and  C_13 
REMARK       I    between atoms: N_6  and  C_22 
REMARK    4  A    between atoms: C_9  and  C_12 
REMARK    5  A    between atoms: C_13  and  C_16 
REMARK    6  A    between atoms: C_13  and  C_21 
REMARK    7  A    between atoms: C_19  and  C_24 
REMARK    8  A    between atoms: C_22  and  C_23 
REMARK    9  A    between atoms: C_27  and  C_30 
REMARK   10  A    between atoms: N_33  and  S_34 
ROOT
HETATM    1  C   UNL     1       5.676  11.144  89.810  1.00  0.00     0.056 A 
HETATM    2  C   UNL     1       5.159   9.998  90.376  1.00  0.00     0.005 A 
HETATM    3  C   UNL     1       7.012  11.268  89.489  1.00  0.00     0.005 A 
HETATM    4  C   UNL     1       7.370   9.028  90.318  1.00  0.00     0.042 A 
HETATM    5  C   UNL     1       6.015   8.927  90.634  1.00  0.00     0.008 A 
HETATM    6  C   UNL     1       7.869  10.198  89.746  1.00  0.00     0.008 A 
ENDROOT
BRANCH   1   7
HETATM    7  C   UNL     1       4.763  12.283  89.534  1.00  0.00     0.254 C 
HETATM    8  O   UNL     1       4.597  12.651  88.374  1.00  0.00    -0.268 OA
HETATM    9  N   UNL     1       4.135  12.840  90.639  1.00  0.00    -0.337 N 
HETATM   10  HN  UNL     1       4.301  12.467  91.566  1.00  0.00     0.164 HD
BRANCH   9  11
HETATM   11  C   UNL     1       3.203  13.934  90.532  1.00  0.00     0.172 C 
BRANCH  11  12
HETATM   12  C   UNL     1       1.867  13.647  91.228  1.00  0.00     0.136 C 
HETATM   13  C   UNL     1       1.942  12.443  92.161  1.00  0.00     0.034 C 
BRANCH  12  14
HETATM   14  O   UNL     1       1.465  14.791  91.980  1.00  0.00    -0.383 OA
HETATM   15  H   UNL     1       0.614  15.103  91.629  1.00  0.00     0.210 HD
ENDBRANCH  12  14
ENDBRANCH  11  12
BRANCH  11  16
HETATM   16  C   UNL     1       3.874  15.176  91.111  1.00  0.00     0.398 A 
HETATM   17  O   UNL     1       4.966  15.589  90.723  1.00  0.00    -0.136 OA
HETATM   18  N   UNL     1       4.898  15.620  92.241  1.00  0.00     0.142 N 
HETATM   19  HN  UNL     1       5.796  15.998  92.130  1.00  0.00     0.338 HD
BRANCH  18  20
HETATM   20  S   UNL     1       4.242  15.072  93.338  1.00  0.00     0.076 SA
HETATM   21  H   UNL     1       4.396  13.909  93.523  1.00  0.00     0.136 HD
ENDBRANCH  18  20
ENDBRANCH  11  16
ENDBRANCH   9  11
ENDBRANCH   1   7
BRANCH   4  22
HETATM   22  C   UNL     1       8.248   7.931  90.585  1.00  0.00    -0.059 C 
HETATM   23  C   UNL     1       8.987   7.010  90.808  1.00  0.00    -0.059 C 
BRANCH  23  24
HETATM   24  C   UNL     1       9.867   5.913  91.075  1.00  0.00     0.042 A 
HETATM   25  C   UNL     1      10.073   5.489  92.388  1.00  0.00     0.008 A 
HETATM   26  C   UNL     1      10.932   4.422  92.648  1.00  0.00    -0.002 A 
HETATM   27  C   UNL     1      11.583   3.778  91.595  1.00  0.00     0.011 A 
HETATM   28  C   UNL     1      11.375   4.203  90.283  1.00  0.00    -0.002 A 
HETATM   29  C   UNL     1      10.517   5.271  90.023  1.00  0.00     0.008 A 
BRANCH  27  30
HETATM   30  C   UNL     1      12.499   2.635  91.874  1.00  0.00     0.277 C 
BRANCH  30  31
HETATM   31  N   UNL     1      13.545   2.982  92.835  1.00  0.00     0.147 N 
HETATM   32  C   UNL     1      14.389   1.816  93.129  1.00  0.00     0.283 C 
HETATM   33  C   UNL     1      15.480   2.205  94.124  1.00  0.00     0.178 C 
HETATM   34  O   UNL     1      16.271   3.274  93.602  1.00  0.00    -0.350 OA
HETATM   35  C   UNL     1      15.463   4.423  93.342  1.00  0.00     0.178 C 
HETATM   36  C   UNL     1      14.372   4.088  92.330  1.00  0.00     0.283 C 
ENDBRANCH  30  31
ENDBRANCH  27  30
ENDBRANCH  23  24
ENDBRANCH   4  22
TORSDOF 10
ENDMDL
