MODEL 1
REMARK VINA RESULT:      -7.5      0.000      0.000
REMARK  9 active torsions:
REMARK  status: ('A' for Active; 'I' for Inactive)
REMARK    1  A    between atoms: N_3  and  C_6 
REMARK    2  A    between atoms: C_6  and  C_9 
REMARK    3  A    between atoms: C_14  and  C_17 
REMARK       I    between atoms: N_26  and  C_15 
REMARK    4  A    between atoms: C_15  and  C_16 
REMARK    5  A    between atoms: C_20  and  C_23 
REMARK    6  A    between atoms: OG1_24  and  CB_28 
REMARK    7  A    between atoms: N_26  and  CA_27 
REMARK    8  A    between atoms: CA_27  and  CB_28 
REMARK    9  A    between atoms: CA_27  and  C_30 
ROOT
HETATM    1  O   UNK A   0       1.936   8.100  87.780  1.00  0.00    -0.388 OA
HETATM    2  N   UNK A   0       4.736   7.602  87.653  1.00  0.00     0.096 N 
HETATM    3  C   UNK A   0       4.202   8.969  87.732  1.00  0.00     0.299 C 
HETATM    4  C   UNK A   0       3.767   6.721  86.987  1.00  0.00     0.299 C 
HETATM    5  C   UNK A   0       2.858   8.958  88.456  1.00  0.00     0.198 C 
HETATM    6  C   UNK A   0       2.434   6.763  87.727  1.00  0.00     0.198 C 
ENDROOT
BRANCH   2   7
HETATM    7  C   UNK A   0       6.019   7.588  86.954  1.00  0.00     0.311 C 
BRANCH   7   8
HETATM    8  C   UNK A   0       7.105   6.974  87.771  1.00  0.00    -0.030 A 
HETATM    9  C   UNK A   0       6.895   6.714  89.126  1.00  0.00     0.010 A 
HETATM   10  C   UNK A   0       7.910   6.142  89.891  1.00  0.00     0.021 A 
HETATM   11  C   UNK A   0       9.134   5.828  89.302  1.00  0.00     0.018 A 
HETATM   12  C   UNK A   0       9.345   6.087  87.949  1.00  0.00     0.021 A 
HETATM   13  C   UNK A   0       8.330   6.660  87.183  1.00  0.00     0.010 A 
BRANCH  11  14
HETATM   14  C   UNK A   0      10.175   5.239  90.087  1.00  0.00    -0.061 C 
HETATM   15  C   UNK A   0      11.049   4.744  90.747  1.00  0.00    -0.061 C 
BRANCH  15  16
HETATM   16  C   UNK A   0      12.089   4.154  91.533  1.00  0.00     0.018 A 
HETATM   17  C   UNK A   0      13.342   3.922  90.966  1.00  0.00     0.022 A 
HETATM   18  C   UNK A   0      14.357   3.349  91.733  1.00  0.00     0.018 A 
HETATM   19  C   UNK A   0      14.096   3.023  93.048  1.00  0.00     0.032 A 
HETATM   20  C   UNK A   0      12.866   3.243  93.630  1.00  0.00     0.018 A 
HETATM   21  C   UNK A   0      11.850   3.815  92.864  1.00  0.00     0.022 A 
BRANCH  19  22
HETATM   22  C   UNK A   0      15.177   2.412  93.864  1.00  0.00     0.252 C 
HETATM   23  O   UNK A   0      16.321   2.849  93.769  1.00  0.00    -0.268 OA
ENDBRANCH  19  22
ENDBRANCH  15  16
ENDBRANCH  11  14
ENDBRANCH   7   8
ENDBRANCH   2   7
TORSDOF 9
ENDMDL
