MODEL 1
REMARK VINA RESULT:      -7.5      0.000      0.000
REMARK  9 active torsions:
REMARK  status: ('A' for Active; 'I' for Inactive)
REMARK    1  A    between atoms: N_3  and  C_6 
REMARK    2  A    between atoms: C_6  and  C_9 
REMARK    3  A    between atoms: C_14  and  C_17 
REMARK       I    between atoms: N_26  and  C_15 
REMARK    4  A    between atoms: C_15  and  C_16 
REMARK    5  A    between atoms: C_20  and  C_23 
REMARK    6  A    between atoms: OG1_24  and  CB_28 
REMARK    7  A    between atoms: N_26  and  CA_27 
REMARK    8  A    between atoms: CA_27  and  CB_28 
REMARK    9  A    between atoms: CA_27  and  C_30 
ROOT
HETATM    1  O   UNK A   0       1.821   8.018  87.835  1.00  0.00    -0.388 OA
HETATM    2  N   UNK A   0       4.626   7.554  87.691  1.00  0.00     0.096 N 
HETATM    3  C   UNK A   0       4.076   8.914  87.782  1.00  0.00     0.299 C 
HETATM    4  C   UNK A   0       3.664   6.667  87.023  1.00  0.00     0.299 C 
HETATM    5  C   UNK A   0       2.736   8.882  88.512  1.00  0.00     0.198 C 
HETATM    6  C   UNK A   0       2.335   6.687  87.769  1.00  0.00     0.198 C 
ENDROOT
BRANCH   2   7
HETATM    7  C   UNK A   0       5.906   7.560  86.985  1.00  0.00     0.311 C 
BRANCH   7   8
HETATM    8  C   UNK A   0       7.003   6.957  87.794  1.00  0.00    -0.030 A 
HETATM    9  C   UNK A   0       6.785   6.638  89.135  1.00  0.00     0.010 A 
HETATM   10  C   UNK A   0       7.812   6.076  89.894  1.00  0.00     0.021 A 
HETATM   11  C   UNK A   0       9.055   5.831  89.311  1.00  0.00     0.018 A 
HETATM   12  C   UNK A   0       9.273   6.148  87.972  1.00  0.00     0.021 A 
HETATM   13  C   UNK A   0       8.247   6.712  87.213  1.00  0.00     0.010 A 
BRANCH  11  14
HETATM   14  C   UNK A   0      10.107   5.252  90.088  1.00  0.00    -0.061 C 
HETATM   15  C   UNK A   0      10.992   4.765  90.741  1.00  0.00    -0.061 C 
BRANCH  15  16
HETATM   16  C   UNK A   0      12.044   4.187  91.518  1.00  0.00     0.018 A 
HETATM   17  C   UNK A   0      13.296   3.972  90.943  1.00  0.00     0.022 A 
HETATM   18  C   UNK A   0      14.323   3.411  91.702  1.00  0.00     0.018 A 
HETATM   19  C   UNK A   0      14.076   3.079  93.017  1.00  0.00     0.032 A 
HETATM   20  C   UNK A   0      12.846   3.281  93.608  1.00  0.00     0.018 A 
HETATM   21  C   UNK A   0      11.818   3.842  92.851  1.00  0.00     0.022 A 
BRANCH  19  22
HETATM   22  C   UNK A   0      15.170   2.479  93.824  1.00  0.00     0.252 C 
HETATM   23  O   UNK A   0      16.308   2.930  93.721  1.00  0.00    -0.268 OA
ENDBRANCH  19  22
ENDBRANCH  15  16
ENDBRANCH  11  14
ENDBRANCH   7   8
ENDBRANCH   2   7
TORSDOF 9
ENDMDL
MODEL 2
REMARK VINA RESULT:      -7.5      0.106      1.426
REMARK  9 active torsions:
REMARK  status: ('A' for Active; 'I' for Inactive)
REMARK    1  A    between atoms: N_3  and  C_6 
REMARK    2  A    between atoms: C_6  and  C_9 
REMARK    3  A    between atoms: C_14  and  C_17 
REMARK       I    between atoms: N_26  and  C_15 
REMARK    4  A    between atoms: C_15  and  C_16 
REMARK    5  A    between atoms: C_20  and  C_23 
REMARK    6  A    between atoms: OG1_24  and  CB_28 
REMARK    7  A    between atoms: N_26  and  CA_27 
REMARK    8  A    between atoms: CA_27  and  CB_28 
REMARK    9  A    between atoms: CA_27  and  C_30 
ROOT
HETATM    1  O   UNK A   0       1.786   8.057  87.917  1.00  0.00    -0.388 OA
HETATM    2  N   UNK A   0       4.573   7.511  87.722  1.00  0.00     0.096 N 
HETATM    3  C   UNK A   0       4.068   8.883  87.870  1.00  0.00     0.299 C 
HETATM    4  C   UNK A   0       3.577   6.679  87.033  1.00  0.00     0.299 C 
HETATM    5  C   UNK A   0       2.735   8.865  88.615  1.00  0.00     0.198 C 
HETATM    6  C   UNK A   0       2.257   6.714  87.796  1.00  0.00     0.198 C 
ENDROOT
BRANCH   2   7
HETATM    7  C   UNK A   0       5.845   7.503  87.001  1.00  0.00     0.311 C 
BRANCH   7   8
HETATM    8  C   UNK A   0       6.952   6.915  87.809  1.00  0.00    -0.030 A 
HETATM    9  C   UNK A   0       8.236   6.826  87.270  1.00  0.00     0.010 A 
HETATM   10  C   UNK A   0       9.272   6.274  88.024  1.00  0.00     0.021 A 
HETATM   11  C   UNK A   0       9.023   5.815  89.317  1.00  0.00     0.018 A 
HETATM   12  C   UNK A   0       7.742   5.904  89.856  1.00  0.00     0.021 A 
HETATM   13  C   UNK A   0       6.706   6.455  89.102  1.00  0.00     0.010 A 
BRANCH  11  14
HETATM   14  C   UNK A   0      10.087   5.251  90.091  1.00  0.00    -0.061 C 
HETATM   15  C   UNK A   0      10.981   4.778  90.741  1.00  0.00    -0.061 C 
BRANCH  15  16
HETATM   16  C   UNK A   0      12.043   4.216  91.515  1.00  0.00     0.018 A 
HETATM   17  C   UNK A   0      11.837   3.909  92.861  1.00  0.00     0.022 A 
HETATM   18  C   UNK A   0      12.873   3.357  93.615  1.00  0.00     0.018 A 
HETATM   19  C   UNK A   0      14.090   3.126  93.008  1.00  0.00     0.032 A 
HETATM   20  C   UNK A   0      14.318   3.421  91.680  1.00  0.00     0.018 A 
HETATM   21  C   UNK A   0      13.283   3.972  90.925  1.00  0.00     0.022 A 
BRANCH  19  22
HETATM   22  C   UNK A   0      15.193   2.540  93.812  1.00  0.00     0.252 C 
HETATM   23  O   UNK A   0      16.356   2.803  93.515  1.00  0.00    -0.268 OA
ENDBRANCH  19  22
ENDBRANCH  15  16
ENDBRANCH  11  14
ENDBRANCH   7   8
ENDBRANCH   2   7
TORSDOF 9
ENDMDL
MODEL 3
REMARK VINA RESULT:      -7.5      0.152      1.019
REMARK  9 active torsions:
REMARK  status: ('A' for Active; 'I' for Inactive)
REMARK    1  A    between atoms: N_3  and  C_6 
REMARK    2  A    between atoms: C_6  and  C_9 
REMARK    3  A    between atoms: C_14  and  C_17 
REMARK       I    between atoms: N_26  and  C_15 
REMARK    4  A    between atoms: C_15  and  C_16 
REMARK    5  A    between atoms: C_20  and  C_23 
REMARK    6  A    between atoms: OG1_24  and  CB_28 
REMARK    7  A    between atoms: N_26  and  CA_27 
REMARK    8  A    between atoms: CA_27  and  CB_28 
REMARK    9  A    between atoms: CA_27  and  C_30 
ROOT
HETATM    1  O   UNK A   0       1.969   8.060  87.792  1.00  0.00    -0.388 OA
HETATM    2  N   UNK A   0       4.763   7.532  87.676  1.00  0.00     0.096 N 
HETATM    3  C   UNK A   0       4.244   8.904  87.754  1.00  0.00     0.299 C 
HETATM    4  C   UNK A   0       3.788   6.662  87.004  1.00  0.00     0.299 C 
HETATM    5  C   UNK A   0       2.897   8.907  88.473  1.00  0.00     0.198 C 
HETATM    6  C   UNK A   0       2.452   6.718  87.739  1.00  0.00     0.198 C 
ENDROOT
BRANCH   2   7
HETATM    7  C   UNK A   0       6.049   7.504  86.981  1.00  0.00     0.311 C 
BRANCH   7   8
HETATM    8  C   UNK A   0       7.133   6.910  87.815  1.00  0.00    -0.030 A 
HETATM    9  C   UNK A   0       8.374   6.625  87.245  1.00  0.00     0.010 A 
HETATM   10  C   UNK A   0       9.388   6.067  88.024  1.00  0.00     0.021 A 
HETATM   11  C   UNK A   0       9.160   5.796  89.373  1.00  0.00     0.018 A 
HETATM   12  C   UNK A   0       7.921   6.080  89.943  1.00  0.00     0.021 A 
HETATM   13  C   UNK A   0       6.907   6.637  89.164  1.00  0.00     0.010 A 
BRANCH  11  14
HETATM   14  C   UNK A   0      10.200   5.225  90.172  1.00  0.00    -0.061 C 
HETATM   15  C   UNK A   0      11.075   4.746  90.843  1.00  0.00    -0.061 C 
BRANCH  15  16
HETATM   16  C   UNK A   0      12.115   4.177  91.643  1.00  0.00     0.018 A 
HETATM   17  C   UNK A   0      13.389   3.999  91.103  1.00  0.00     0.022 A 
HETATM   18  C   UNK A   0      14.404   3.446  91.884  1.00  0.00     0.018 A 
HETATM   19  C   UNK A   0      14.123   3.085  93.185  1.00  0.00     0.032 A 
HETATM   20  C   UNK A   0      12.872   3.250  93.741  1.00  0.00     0.018 A 
HETATM   21  C   UNK A   0      11.856   3.803  92.961  1.00  0.00     0.022 A 
BRANCH  19  22
HETATM   22  C   UNK A   0      15.204   2.494  94.016  1.00  0.00     0.252 C 
HETATM   23  O   UNK A   0      16.372   2.794  93.781  1.00  0.00    -0.268 OA
ENDBRANCH  19  22
ENDBRANCH  15  16
ENDBRANCH  11  14
ENDBRANCH   7   8
ENDBRANCH   2   7
TORSDOF 9
ENDMDL
MODEL 4
REMARK VINA RESULT:      -6.9      1.355      2.168
REMARK  9 active torsions:
REMARK  status: ('A' for Active; 'I' for Inactive)
REMARK    1  A    between atoms: N_3  and  C_6 
REMARK    2  A    between atoms: C_6  and  C_9 
REMARK    3  A    between atoms: C_14  and  C_17 
REMARK       I    between atoms: N_26  and  C_15 
REMARK    4  A    between atoms: C_15  and  C_16 
REMARK    5  A    between atoms: C_20  and  C_23 
REMARK    6  A    between atoms: OG1_24  and  CB_28 
REMARK    7  A    between atoms: N_26  and  CA_27 
REMARK    8  A    between atoms: CA_27  and  CB_28 
REMARK    9  A    between atoms: CA_27  and  C_30 
ROOT
HETATM    1  O   UNK A   0       4.483  10.814  88.827  1.00  0.00    -0.388 OA
HETATM    2  N   UNK A   0       5.359   8.124  88.511  1.00  0.00     0.096 N 
HETATM    3  C   UNK A   0       6.295   9.200  88.865  1.00  0.00     0.299 C 
HETATM    4  C   UNK A   0       4.242   8.667  87.725  1.00  0.00     0.299 C 
HETATM    5  C   UNK A   0       5.555  10.302  89.620  1.00  0.00     0.198 C 
HETATM    6  C   UNK A   0       3.552   9.780  88.505  1.00  0.00     0.198 C 
ENDROOT
BRANCH   2   7
HETATM    7  C   UNK A   0       6.044   7.062  87.777  1.00  0.00     0.311 C 
BRANCH   7   8
HETATM    8  C   UNK A   0       7.207   6.511  88.530  1.00  0.00    -0.030 A 
HETATM    9  C   UNK A   0       8.471   6.488  87.940  1.00  0.00     0.010 A 
HETATM   10  C   UNK A   0       9.559   5.970  88.642  1.00  0.00     0.021 A 
HETATM   11  C   UNK A   0       9.383   5.477  89.935  1.00  0.00     0.018 A 
HETATM   12  C   UNK A   0       8.121   5.500  90.525  1.00  0.00     0.021 A 
HETATM   13  C   UNK A   0       7.032   6.017  89.823  1.00  0.00     0.010 A 
BRANCH  11  14
HETATM   14  C   UNK A   0      10.499   4.948  90.656  1.00  0.00    -0.061 C 
HETATM   15  C   UNK A   0      11.438   4.503  91.262  1.00  0.00    -0.061 C 
BRANCH  15  16
HETATM   16  C   UNK A   0      12.554   3.973  91.982  1.00  0.00     0.018 A 
HETATM   17  C   UNK A   0      12.388   3.527  93.293  1.00  0.00     0.022 A 
HETATM   18  C   UNK A   0      13.477   3.009  93.994  1.00  0.00     0.018 A 
HETATM   19  C   UNK A   0      14.705   2.947  93.369  1.00  0.00     0.032 A 
HETATM   20  C   UNK A   0      14.894   3.381  92.074  1.00  0.00     0.018 A 
HETATM   21  C   UNK A   0      13.806   3.900  91.372  1.00  0.00     0.022 A 
BRANCH  19  22
HETATM   22  C   UNK A   0      15.864   2.396  94.117  1.00  0.00     0.252 C 
HETATM   23  O   UNK A   0      16.998   2.767  93.824  1.00  0.00    -0.268 OA
ENDBRANCH  19  22
ENDBRANCH  15  16
ENDBRANCH  11  14
ENDBRANCH   7   8
ENDBRANCH   2   7
TORSDOF 9
ENDMDL
MODEL 5
REMARK VINA RESULT:      -6.8      1.454      2.012
REMARK  9 active torsions:
REMARK  status: ('A' for Active; 'I' for Inactive)
REMARK    1  A    between atoms: N_3  and  C_6 
REMARK    2  A    between atoms: C_6  and  C_9 
REMARK    3  A    between atoms: C_14  and  C_17 
REMARK       I    between atoms: N_26  and  C_15 
REMARK    4  A    between atoms: C_15  and  C_16 
REMARK    5  A    between atoms: C_20  and  C_23 
REMARK    6  A    between atoms: OG1_24  and  CB_28 
REMARK    7  A    between atoms: N_26  and  CA_27 
REMARK    8  A    between atoms: CA_27  and  CB_28 
REMARK    9  A    between atoms: CA_27  and  C_30 
ROOT
HETATM    1  O   UNK A   0       2.699  11.068  89.712  1.00  0.00    -0.388 OA
HETATM    2  N   UNK A   0       4.596   9.171  88.760  1.00  0.00     0.096 N 
HETATM    3  C   UNK A   0       3.861  10.050  87.840  1.00  0.00     0.299 C 
HETATM    4  C   UNK A   0       3.792   8.917  89.964  1.00  0.00     0.299 C 
HETATM    5  C   UNK A   0       3.487  11.347  88.552  1.00  0.00     0.198 C 
HETATM    6  C   UNK A   0       3.418  10.240  90.626  1.00  0.00     0.198 C 
ENDROOT
BRANCH   2   7
HETATM    7  C   UNK A   0       4.956   7.917  88.101  1.00  0.00     0.311 C 
BRANCH   7   8
HETATM    8  C   UNK A   0       6.166   7.287  88.701  1.00  0.00    -0.030 A 
HETATM    9  C   UNK A   0       7.433   7.793  88.408  1.00  0.00     0.010 A 
HETATM   10  C   UNK A   0       8.566   7.204  88.967  1.00  0.00     0.021 A 
HETATM   11  C   UNK A   0       8.432   6.109  89.821  1.00  0.00     0.018 A 
HETATM   12  C   UNK A   0       7.168   5.602  90.115  1.00  0.00     0.021 A 
HETATM   13  C   UNK A   0       6.034   6.191  89.555  1.00  0.00     0.010 A 
BRANCH  11  14
HETATM   14  C   UNK A   0       9.595   5.505  90.396  1.00  0.00    -0.061 C 
HETATM   15  C   UNK A   0      10.572   4.998  90.880  1.00  0.00    -0.061 C 
BRANCH  15  16
HETATM   16  C   UNK A   0      11.733   4.395  91.455  1.00  0.00     0.018 A 
HETATM   17  C   UNK A   0      12.894   4.252  90.694  1.00  0.00     0.022 A 
HETATM   18  C   UNK A   0      14.027   3.665  91.257  1.00  0.00     0.018 A 
HETATM   19  C   UNK A   0      13.976   3.236  92.566  1.00  0.00     0.032 A 
HETATM   20  C   UNK A   0      12.841   3.366  93.339  1.00  0.00     0.018 A 
HETATM   21  C   UNK A   0      11.707   3.952  92.778  1.00  0.00     0.022 A 
BRANCH  19  22
HETATM   22  C   UNK A   0      15.183   2.610  93.164  1.00  0.00     0.252 C 
HETATM   23  O   UNK A   0      16.062   3.329  93.633  1.00  0.00    -0.268 OA
ENDBRANCH  19  22
ENDBRANCH  15  16
ENDBRANCH  11  14
ENDBRANCH   7   8
ENDBRANCH   2   7
TORSDOF 9
ENDMDL
MODEL 6
REMARK VINA RESULT:      -6.7      1.459      2.274
REMARK  9 active torsions:
REMARK  status: ('A' for Active; 'I' for Inactive)
REMARK    1  A    between atoms: N_3  and  C_6 
REMARK    2  A    between atoms: C_6  and  C_9 
REMARK    3  A    between atoms: C_14  and  C_17 
REMARK       I    between atoms: N_26  and  C_15 
REMARK    4  A    between atoms: C_15  and  C_16 
REMARK    5  A    between atoms: C_20  and  C_23 
REMARK    6  A    between atoms: OG1_24  and  CB_28 
REMARK    7  A    between atoms: N_26  and  CA_27 
REMARK    8  A    between atoms: CA_27  and  CB_28 
REMARK    9  A    between atoms: CA_27  and  C_30 
ROOT
HETATM    1  O   UNK A   0       2.693  11.190  89.336  1.00  0.00    -0.388 OA
HETATM    2  N   UNK A   0       4.529   9.085  88.789  1.00  0.00     0.096 N 
HETATM    3  C   UNK A   0       4.124  10.040  87.748  1.00  0.00     0.299 C 
HETATM    4  C   UNK A   0       3.452   8.929  89.775  1.00  0.00     0.299 C 
HETATM    5  C   UNK A   0       3.747  11.374  88.389  1.00  0.00     0.198 C 
HETATM    6  C   UNK A   0       3.091  10.287  90.368  1.00  0.00     0.198 C 
ENDROOT
BRANCH   2   7
HETATM    7  C   UNK A   0       4.885   7.796  88.198  1.00  0.00     0.311 C 
BRANCH   7   8
HETATM    8  C   UNK A   0       6.103   7.203  88.819  1.00  0.00    -0.030 A 
HETATM    9  C   UNK A   0       7.368   7.646  88.433  1.00  0.00     0.010 A 
HETATM   10  C   UNK A   0       8.509   7.090  89.012  1.00  0.00     0.021 A 
HETATM   11  C   UNK A   0       8.383   6.094  89.979  1.00  0.00     0.018 A 
HETATM   12  C   UNK A   0       7.120   5.651  90.366  1.00  0.00     0.021 A 
HETATM   13  C   UNK A   0       5.980   6.205  89.787  1.00  0.00     0.010 A 
BRANCH  11  14
HETATM   14  C   UNK A   0       9.554   5.525  90.575  1.00  0.00    -0.061 C 
HETATM   15  C   UNK A   0      10.537   5.048  91.075  1.00  0.00    -0.061 C 
BRANCH  15  16
HETATM   16  C   UNK A   0      11.707   4.481  91.670  1.00  0.00     0.018 A 
HETATM   17  C   UNK A   0      11.669   4.033  92.991  1.00  0.00     0.022 A 
HETATM   18  C   UNK A   0      12.809   3.477  93.571  1.00  0.00     0.018 A 
HETATM   19  C   UNK A   0      13.961   3.381  92.818  1.00  0.00     0.032 A 
HETATM   20  C   UNK A   0      14.024   3.816  91.511  1.00  0.00     0.018 A 
HETATM   21  C   UNK A   0      12.884   4.373  90.930  1.00  0.00     0.022 A 
BRANCH  19  22
HETATM   22  C   UNK A   0      15.176   2.791  93.436  1.00  0.00     0.252 C 
HETATM   23  O   UNK A   0      15.067   1.778  94.124  1.00  0.00    -0.268 OA
ENDBRANCH  19  22
ENDBRANCH  15  16
ENDBRANCH  11  14
ENDBRANCH   7   8
ENDBRANCH   2   7
TORSDOF 9
ENDMDL
MODEL 7
REMARK VINA RESULT:      -6.6      3.501     10.390
REMARK  9 active torsions:
REMARK  status: ('A' for Active; 'I' for Inactive)
REMARK    1  A    between atoms: N_3  and  C_6 
REMARK    2  A    between atoms: C_6  and  C_9 
REMARK    3  A    between atoms: C_14  and  C_17 
REMARK       I    between atoms: N_26  and  C_15 
REMARK    4  A    between atoms: C_15  and  C_16 
REMARK    5  A    between atoms: C_20  and  C_23 
REMARK    6  A    between atoms: OG1_24  and  CB_28 
REMARK    7  A    between atoms: N_26  and  CA_27 
REMARK    8  A    between atoms: CA_27  and  CB_28 
REMARK    9  A    between atoms: CA_27  and  C_30 
ROOT
HETATM    1  O   UNK A   0      16.173   3.169  93.627  1.00  0.00    -0.388 OA
HETATM    2  N   UNK A   0      13.470   2.929  92.768  1.00  0.00     0.096 N 
HETATM    3  C   UNK A   0      14.280   1.747  93.093  1.00  0.00     0.299 C 
HETATM    4  C   UNK A   0      14.334   4.017  92.290  1.00  0.00     0.299 C 
HETATM    5  C   UNK A   0      15.344   2.117  94.124  1.00  0.00     0.198 C 
HETATM    6  C   UNK A   0      15.396   4.333  93.338  1.00  0.00     0.198 C 
ENDROOT
BRANCH   2   7
HETATM    7  C   UNK A   0      12.450   2.600  91.774  1.00  0.00     0.311 C 
BRANCH   7   8
HETATM    8  C   UNK A   0      11.579   3.765  91.447  1.00  0.00    -0.030 A 
HETATM    9  C   UNK A   0      11.396   4.147  90.118  1.00  0.00     0.010 A 
HETATM   10  C   UNK A   0      10.583   5.238  89.811  1.00  0.00     0.021 A 
HETATM   11  C   UNK A   0       9.951   5.944  90.834  1.00  0.00     0.018 A 
HETATM   12  C   UNK A   0      10.132   5.563  92.162  1.00  0.00     0.021 A 
HETATM   13  C   UNK A   0      10.946   4.473  92.469  1.00  0.00     0.010 A 
BRANCH  11  14
HETATM   14  C   UNK A   0       9.115   7.062  90.519  1.00  0.00    -0.061 C 
HETATM   15  C   UNK A   0       8.413   8.001  90.255  1.00  0.00    -0.061 C 
BRANCH  15  16
HETATM   16  C   UNK A   0       7.578   9.119  89.940  1.00  0.00     0.018 A 
HETATM   17  C   UNK A   0       6.190   8.991  90.005  1.00  0.00     0.022 A 
HETATM   18  C   UNK A   0       5.376  10.082  89.701  1.00  0.00     0.018 A 
HETATM   19  C   UNK A   0       5.967  11.275  89.339  1.00  0.00     0.032 A 
HETATM   20  C   UNK A   0       7.336  11.426  89.267  1.00  0.00     0.018 A 
HETATM   21  C   UNK A   0       8.151  10.335  89.571  1.00  0.00     0.022 A 
BRANCH  19  22
HETATM   22  C   UNK A   0       5.100  12.436  89.013  1.00  0.00     0.252 C 
HETATM   23  O   UNK A   0       5.034  12.828  87.850  1.00  0.00    -0.268 OA
ENDBRANCH  19  22
ENDBRANCH  15  16
ENDBRANCH  11  14
ENDBRANCH   7   8
ENDBRANCH   2   7
TORSDOF 9
ENDMDL
MODEL 8
REMARK VINA RESULT:      -6.6      3.977     10.449
REMARK  9 active torsions:
REMARK  status: ('A' for Active; 'I' for Inactive)
REMARK    1  A    between atoms: N_3  and  C_6 
REMARK    2  A    between atoms: C_6  and  C_9 
REMARK    3  A    between atoms: C_14  and  C_17 
REMARK       I    between atoms: N_26  and  C_15 
REMARK    4  A    between atoms: C_15  and  C_16 
REMARK    5  A    between atoms: C_20  and  C_23 
REMARK    6  A    between atoms: OG1_24  and  CB_28 
REMARK    7  A    between atoms: N_26  and  CA_27 
REMARK    8  A    between atoms: CA_27  and  CB_28 
REMARK    9  A    between atoms: CA_27  and  C_30 
ROOT
HETATM    1  O   UNK A   0      14.577   3.351  92.088  1.00  0.00    -0.388 OA
HETATM    2  N   UNK A   0      11.855   4.178  92.207  1.00  0.00     0.096 N 
HETATM    3  C   UNK A   0      12.430   3.279  93.218  1.00  0.00     0.299 C 
HETATM    4  C   UNK A   0      12.550   4.002  90.924  1.00  0.00     0.299 C 
HETATM    5  C   UNK A   0      13.929   3.538  93.347  1.00  0.00     0.198 C 
HETATM    6  C   UNK A   0      14.045   4.243  91.107  1.00  0.00     0.198 C 
ENDROOT
BRANCH   2   7
HETATM    7  C   UNK A   0      10.421   3.939  92.058  1.00  0.00     0.311 C 
BRANCH   7   8
HETATM    8  C   UNK A   0       9.663   5.192  91.776  1.00  0.00    -0.030 A 
HETATM    9  C   UNK A   0       8.711   5.215  90.757  1.00  0.00     0.010 A 
HETATM   10  C   UNK A   0       8.003   6.387  90.491  1.00  0.00     0.021 A 
HETATM   11  C   UNK A   0       8.246   7.534  91.246  1.00  0.00     0.018 A 
HETATM   12  C   UNK A   0       9.197   7.512  92.264  1.00  0.00     0.021 A 
HETATM   13  C   UNK A   0       9.906   6.340  92.530  1.00  0.00     0.010 A 
BRANCH  11  14
HETATM   14  C   UNK A   0       7.518   8.736  90.974  1.00  0.00    -0.061 C 
HETATM   15  C   UNK A   0       6.907   9.746  90.747  1.00  0.00    -0.061 C 
BRANCH  15  16
HETATM   16  C   UNK A   0       6.180  10.947  90.476  1.00  0.00     0.018 A 
HETATM   17  C   UNK A   0       5.277  11.442  91.417  1.00  0.00     0.022 A 
HETATM   18  C   UNK A   0       4.570  12.615  91.153  1.00  0.00     0.018 A 
HETATM   19  C   UNK A   0       4.783  13.267  89.956  1.00  0.00     0.032 A 
HETATM   20  C   UNK A   0       5.670  12.798  89.010  1.00  0.00     0.018 A 
HETATM   21  C   UNK A   0       6.377  11.625  89.273  1.00  0.00     0.022 A 
BRANCH  19  22
HETATM   22  C   UNK A   0       4.029  14.516  89.675  1.00  0.00     0.252 C 
HETATM   23  O   UNK A   0       4.637  15.581  89.606  1.00  0.00    -0.268 OA
ENDBRANCH  19  22
ENDBRANCH  15  16
ENDBRANCH  11  14
ENDBRANCH   7   8
ENDBRANCH   2   7
TORSDOF 9
ENDMDL
MODEL 9
REMARK VINA RESULT:      -6.6      3.968     10.380
REMARK  9 active torsions:
REMARK  status: ('A' for Active; 'I' for Inactive)
REMARK    1  A    between atoms: N_3  and  C_6 
REMARK    2  A    between atoms: C_6  and  C_9 
REMARK    3  A    between atoms: C_14  and  C_17 
REMARK       I    between atoms: N_26  and  C_15 
REMARK    4  A    between atoms: C_15  and  C_16 
REMARK    5  A    between atoms: C_20  and  C_23 
REMARK    6  A    between atoms: OG1_24  and  CB_28 
REMARK    7  A    between atoms: N_26  and  CA_27 
REMARK    8  A    between atoms: CA_27  and  CB_28 
REMARK    9  A    between atoms: CA_27  and  C_30 
ROOT
HETATM    1  O   UNK A   0      14.644   3.334  91.941  1.00  0.00    -0.388 OA
HETATM    2  N   UNK A   0      11.930   4.149  92.208  1.00  0.00     0.096 N 
HETATM    3  C   UNK A   0      12.554   3.230  93.170  1.00  0.00     0.299 C 
HETATM    4  C   UNK A   0      12.562   4.004  90.890  1.00  0.00     0.299 C 
HETATM    5  C   UNK A   0      14.057   3.491  93.234  1.00  0.00     0.198 C 
HETATM    6  C   UNK A   0      14.064   4.246  91.007  1.00  0.00     0.198 C 
ENDROOT
BRANCH   2   7
HETATM    7  C   UNK A   0      10.490   3.910  92.123  1.00  0.00     0.311 C 
BRANCH   7   8
HETATM    8  C   UNK A   0       9.723   5.156  91.839  1.00  0.00    -0.030 A 
HETATM    9  C   UNK A   0       9.957   6.305  92.595  1.00  0.00     0.010 A 
HETATM   10  C   UNK A   0       9.238   7.471  92.331  1.00  0.00     0.021 A 
HETATM   11  C   UNK A   0       8.288   7.487  91.310  1.00  0.00     0.018 A 
HETATM   12  C   UNK A   0       8.054   6.340  90.555  1.00  0.00     0.021 A 
HETATM   13  C   UNK A   0       8.772   5.174  90.818  1.00  0.00     0.010 A 
BRANCH  11  14
HETATM   14  C   UNK A   0       7.552   8.684  91.038  1.00  0.00    -0.061 C 
HETATM   15  C   UNK A   0       6.934   9.690  90.809  1.00  0.00    -0.061 C 
BRANCH  15  16
HETATM   16  C   UNK A   0       6.198  10.885  90.537  1.00  0.00     0.018 A 
HETATM   17  C   UNK A   0       6.378  11.553  89.325  1.00  0.00     0.022 A 
HETATM   18  C   UNK A   0       5.658  12.718  89.059  1.00  0.00     0.018 A 
HETATM   19  C   UNK A   0       4.775  13.187  90.009  1.00  0.00     0.032 A 
HETATM   20  C   UNK A   0       4.580  12.545  91.214  1.00  0.00     0.018 A 
HETATM   21  C   UNK A   0       5.299  11.381  91.481  1.00  0.00     0.022 A 
BRANCH  19  22
HETATM   22  C   UNK A   0       4.010  14.429  89.725  1.00  0.00     0.252 C 
HETATM   23  O   UNK A   0       4.602  15.505  89.695  1.00  0.00    -0.268 OA
ENDBRANCH  19  22
ENDBRANCH  15  16
ENDBRANCH  11  14
ENDBRANCH   7   8
ENDBRANCH   2   7
TORSDOF 9
ENDMDL
