MODEL 1
REMARK VINA RESULT:      -6.9      0.000      0.000
REMARK  10 active torsions:
REMARK  status: ('A' for Active; 'I' for Inactive)
REMARK    1  A    between atoms: O_2  and  C_16 
REMARK    2  A    between atoms: N_5  and  C_9 
REMARK    3  A    between atoms: N_6  and  C_13 
REMARK       I    between atoms: N_6  and  C_22 
REMARK    4  A    between atoms: C_9  and  C_12 
REMARK    5  A    between atoms: C_13  and  C_16 
REMARK    6  A    between atoms: C_13  and  C_21 
REMARK    7  A    between atoms: C_19  and  C_24 
REMARK    8  A    between atoms: C_22  and  C_23 
REMARK    9  A    between atoms: C_27  and  C_30 
REMARK   10  A    between atoms: N_33  and  S_34 
ROOT
HETATM    1  C   UNL     1       5.647  10.440  89.627  1.00  0.00     0.056 A 
HETATM    2  C   UNL     1       6.912  10.805  90.035  1.00  0.00     0.005 A 
HETATM    3  C   UNL     1       5.266   9.121  89.500  1.00  0.00     0.005 A 
HETATM    4  C   UNL     1       7.479   8.464  90.209  1.00  0.00     0.042 A 
HETATM    5  C   UNL     1       7.840   9.806  90.330  1.00  0.00     0.008 A 
HETATM    6  C   UNL     1       6.193   8.121  89.795  1.00  0.00     0.008 A 
ENDROOT
BRANCH   1   7
HETATM    7  C   UNL     1       4.658  11.505  89.315  1.00  0.00     0.254 C 
HETATM    8  O   UNL     1       4.318  11.684  88.148  1.00  0.00    -0.268 OA
HETATM    9  N   UNL     1       4.166  12.215  90.401  1.00  0.00    -0.337 N 
HETATM   10  HN  UNL     1       4.475  11.994  91.341  1.00  0.00     0.164 HD
BRANCH   9  11
HETATM   11  C   UNL     1       3.185  13.261  90.264  1.00  0.00     0.172 C 
BRANCH  11  12
HETATM   12  C   UNL     1       2.249  13.360  91.476  1.00  0.00     0.136 C 
HETATM   13  C   UNL     1       1.212  14.466  91.324  1.00  0.00     0.034 C 
BRANCH  12  14
HETATM   14  O   UNL     1       1.576  12.115  91.662  1.00  0.00    -0.383 OA
HETATM   15  H   UNL     1       0.891  12.238  92.341  1.00  0.00     0.210 HD
ENDBRANCH  12  14
ENDBRANCH  11  12
BRANCH  11  16
HETATM   16  C   UNL     1       3.929  14.571  90.030  1.00  0.00     0.398 A 
HETATM   17  O   UNL     1       4.949  14.649  89.348  1.00  0.00    -0.136 OA
HETATM   18  N   UNL     1       5.108  15.452  90.629  1.00  0.00     0.142 N 
HETATM   19  HN  UNL     1       5.978  15.655  90.224  1.00  0.00     0.338 HD
BRANCH  18  20
HETATM   20  S   UNL     1       4.624  15.589  91.925  1.00  0.00     0.076 SA
HETATM   21  H   UNL     1       4.336  16.688  92.271  1.00  0.00     0.136 HD
ENDBRANCH  18  20
ENDBRANCH  11  16
ENDBRANCH   9  11
ENDBRANCH   1   7
BRANCH   4  22
HETATM   22  C   UNL     1       8.431   7.440  90.508  1.00  0.00    -0.059 C 
HETATM   23  C   UNL     1       9.232   6.578  90.759  1.00  0.00    -0.059 C 
BRANCH  23  24
HETATM   24  C   UNL     1      10.185   5.554  91.058  1.00  0.00     0.042 A 
HETATM   25  C   UNL     1      10.962   5.007  90.037  1.00  0.00     0.008 A 
HETATM   26  C   UNL     1      11.890   4.007  90.328  1.00  0.00    -0.002 A 
HETATM   27  C   UNL     1      12.040   3.555  91.640  1.00  0.00     0.011 A 
HETATM   28  C   UNL     1      11.262   4.103  92.659  1.00  0.00    -0.002 A 
HETATM   29  C   UNL     1      10.334   5.103  92.368  1.00  0.00     0.008 A 
BRANCH  27  30
HETATM   30  C   UNL     1      13.034   2.488  91.950  1.00  0.00     0.277 C 
BRANCH  30  31
HETATM   31  N   UNL     1      14.025   2.918  92.934  1.00  0.00     0.147 N 
HETATM   32  C   UNL     1      15.070   1.898  93.101  1.00  0.00     0.283 C 
HETATM   33  C   UNL     1      16.098   2.374  94.124  1.00  0.00     0.178 C 
HETATM   34  O   UNL     1      16.674   3.614  93.709  1.00  0.00    -0.350 OA
HETATM   35  C   UNL     1      15.669   4.620  93.574  1.00  0.00     0.178 C 
HETATM   36  C   UNL     1      14.631   4.198  92.540  1.00  0.00     0.283 C 
ENDBRANCH  30  31
ENDBRANCH  27  30
ENDBRANCH  23  24
ENDBRANCH   4  22
TORSDOF 10
ENDMDL
