MODEL 1
REMARK VINA RESULT:      -6.9      0.000      0.000
REMARK  14 active torsions:
REMARK  status: ('A' for Active; 'I' for Inactive)
REMARK    1  A    between atoms: O_2  and  C_18 
REMARK    2  A    between atoms: C_5  and  C_8 
REMARK    3  A    between atoms: C_5  and  O_35 
REMARK    4  A    between atoms: C_5  and  C_36 
REMARK    5  A    between atoms: N_6  and  C_11 
REMARK    6  A    between atoms: N_7  and  C_15 
REMARK       I    between atoms: N_7  and  C_24 
REMARK    7  A    between atoms: C_8  and  C_23 
REMARK    8  A    between atoms: C_11  and  C_14 
REMARK    9  A    between atoms: C_15  and  C_18 
REMARK   10  A    between atoms: C_15  and  C_23 
REMARK   11  A    between atoms: C_21  and  C_26 
REMARK   12  A    between atoms: C_24  and  C_25 
REMARK   13  A    between atoms: C_29  and  C_32 
REMARK   14  A    between atoms: C_36  and  O_39 
ROOT
HETATM    1  O   UNL     1      15.836   4.523  93.656  1.00  0.00    -0.350 OA
HETATM    2  N   UNL     1      14.098   2.683  92.354  1.00  0.00     0.147 N 
HETATM    3  C   UNL     1      14.251   4.064  91.876  1.00  0.00     0.283 C 
HETATM    4  C   UNL     1      14.337   2.622  93.803  1.00  0.00     0.283 C 
HETATM    5  C   UNL     1      15.638   4.587  92.242  1.00  0.00     0.178 C 
HETATM    6  C   UNL     1      15.720   3.179  94.124  1.00  0.00     0.178 C 
ENDROOT
BRANCH   2   7
HETATM    7  C   UNL     1      12.772   2.164  92.024  1.00  0.00     0.277 C 
BRANCH   7   8
HETATM    8  C   UNL     1      11.752   3.246  91.908  1.00  0.00     0.011 A 
HETATM    9  C   UNL     1      11.157   3.513  90.675  1.00  0.00    -0.002 A 
HETATM   10  C   UNL     1      10.204   4.526  90.565  1.00  0.00     0.008 A 
HETATM   11  C   UNL     1       9.846   5.269  91.689  1.00  0.00     0.042 A 
HETATM   12  C   UNL     1      10.439   5.003  92.922  1.00  0.00     0.008 A 
HETATM   13  C   UNL     1      11.393   3.990  93.031  1.00  0.00    -0.002 A 
BRANCH  11  14
HETATM   14  C   UNL     1       8.867   6.306  91.577  1.00  0.00    -0.059 C 
HETATM   15  C   UNL     1       8.044   7.178  91.483  1.00  0.00    -0.059 C 
BRANCH  15  16
HETATM   16  C   UNL     1       7.065   8.214  91.372  1.00  0.00     0.042 A 
HETATM   17  C   UNL     1       6.851   9.087  92.439  1.00  0.00     0.008 A 
HETATM   18  C   UNL     1       5.898  10.099  92.330  1.00  0.00     0.005 A 
HETATM   19  C   UNL     1       5.182  10.218  91.157  1.00  0.00     0.056 A 
HETATM   20  C   UNL     1       5.376   9.368  90.088  1.00  0.00     0.005 A 
HETATM   21  C   UNL     1       6.328   8.354  90.196  1.00  0.00     0.008 A 
BRANCH  19  22
HETATM   22  C   UNL     1       4.166  11.296  91.041  1.00  0.00     0.254 C 
HETATM   23  O   UNL     1       3.122  11.073  90.433  1.00  0.00    -0.268 OA
HETATM   24  N   UNL     1       4.477  12.494  91.668  1.00  0.00    -0.335 N 
HETATM   25  HN  UNL     1       5.350  12.597  92.173  1.00  0.00     0.164 HD
BRANCH  24  26
HETATM   26  C   UNL     1       3.584  13.625  91.666  1.00  0.00     0.169 C 
BRANCH  26  27
HETATM   27  C   UNL     1       3.299  14.158  93.076  1.00  0.00     0.138 C 
HETATM   28  C   UNL     1       4.472  13.949  94.027  1.00  0.00     0.034 C 
BRANCH  27  29
HETATM   29  O   UNL     1       3.000  15.552  93.007  1.00  0.00    -0.383 OA
HETATM   30  H   UNL     1       2.166  15.709  93.483  1.00  0.00     0.210 HD
ENDBRANCH  27  29
ENDBRANCH  26  27
BRANCH  26  31
HETATM   31  C   UNL     1       4.200  14.703  90.780  1.00  0.00     0.194 C 
HETATM   32  O   UNL     1       4.939  15.585  91.213  1.00  0.00    -0.289 OA
BRANCH  31  33
HETATM   33  C   UNL     1       3.800  14.589  89.470  1.00  0.00     0.053 C 
BRANCH  33  34
HETATM   34  C   UNL     1       4.806  14.255  88.552  1.00  0.00     0.220 C 
BRANCH  34  35
HETATM   35  O   UNL     1       5.904  14.503  89.085  1.00  0.00    -0.371 OA
HETATM   36  H   UNL     1       6.312  13.662  88.945  1.00  0.00     0.211 HD
ENDBRANCH  34  35
BRANCH  34  37
HETATM   37  C   UNL     1       4.724  12.931  88.088  1.00  0.00     0.185 C 
HETATM   38  O   UNL     1       6.005  12.904  88.423  1.00  0.00    -0.647 OA
BRANCH  37  39
HETATM   39  O   UNL     1       3.894  12.228  87.594  1.00  0.00    -0.774 OA
HETATM   40  H   UNL     1       4.335  11.242  87.245  1.00  0.00     0.167 HD
ENDBRANCH  37  39
ENDBRANCH  34  37
ENDBRANCH  33  34
ENDBRANCH  31  33
ENDBRANCH  26  31
ENDBRANCH  24  26
ENDBRANCH  19  22
ENDBRANCH  15  16
ENDBRANCH  11  14
ENDBRANCH   7   8
ENDBRANCH   2   7
TORSDOF 14
ENDMDL
MODEL 2
REMARK VINA RESULT:      -6.6      1.321      1.789
REMARK  14 active torsions:
REMARK  status: ('A' for Active; 'I' for Inactive)
REMARK    1  A    between atoms: O_2  and  C_18 
REMARK    2  A    between atoms: C_5  and  C_8 
REMARK    3  A    between atoms: C_5  and  O_35 
REMARK    4  A    between atoms: C_5  and  C_36 
REMARK    5  A    between atoms: N_6  and  C_11 
REMARK    6  A    between atoms: N_7  and  C_15 
REMARK       I    between atoms: N_7  and  C_24 
REMARK    7  A    between atoms: C_8  and  C_23 
REMARK    8  A    between atoms: C_11  and  C_14 
REMARK    9  A    between atoms: C_15  and  C_18 
REMARK   10  A    between atoms: C_15  and  C_23 
REMARK   11  A    between atoms: C_21  and  C_26 
REMARK   12  A    between atoms: C_24  and  C_25 
REMARK   13  A    between atoms: C_29  and  C_32 
REMARK   14  A    between atoms: C_36  and  O_39 
ROOT
HETATM    1  O   UNL     1      16.399   4.235  94.124  1.00  0.00    -0.350 OA
HETATM    2  N   UNL     1      14.600   2.749  92.493  1.00  0.00     0.147 N 
HETATM    3  C   UNL     1      14.603   4.219  92.492  1.00  0.00     0.283 C 
HETATM    4  C   UNL     1      15.049   2.246  93.799  1.00  0.00     0.283 C 
HETATM    5  C   UNL     1      15.995   4.734  92.847  1.00  0.00     0.178 C 
HETATM    6  C   UNL     1      16.429   2.808  94.124  1.00  0.00     0.178 C 
ENDROOT
BRANCH   2   7
HETATM    7  C   UNL     1      13.272   2.233  92.165  1.00  0.00     0.277 C 
BRANCH   7   8
HETATM    8  C   UNL     1      12.223   3.291  92.219  1.00  0.00     0.011 A 
HETATM    9  C   UNL     1      11.917   3.908  93.433  1.00  0.00    -0.002 A 
HETATM   10  C   UNL     1      10.934   4.896  93.485  1.00  0.00     0.008 A 
HETATM   11  C   UNL     1      10.259   5.268  92.323  1.00  0.00     0.042 A 
HETATM   12  C   UNL     1      10.564   4.654  91.110  1.00  0.00     0.008 A 
HETATM   13  C   UNL     1      11.546   3.665  91.058  1.00  0.00    -0.002 A 
BRANCH  11  14
HETATM   14  C   UNL     1       9.252   6.283  92.376  1.00  0.00    -0.059 C 
HETATM   15  C   UNL     1       8.406   7.136  92.421  1.00  0.00    -0.059 C 
BRANCH  15  16
HETATM   16  C   UNL     1       7.400   8.150  92.475  1.00  0.00     0.042 A 
HETATM   17  C   UNL     1       7.762   9.480  92.690  1.00  0.00     0.008 A 
HETATM   18  C   UNL     1       6.780  10.470  92.740  1.00  0.00     0.005 A 
HETATM   19  C   UNL     1       5.460  10.108  92.573  1.00  0.00     0.056 A 
HETATM   20  C   UNL     1       5.076   8.801  92.359  1.00  0.00     0.005 A 
HETATM   21  C   UNL     1       6.057   7.810  92.309  1.00  0.00     0.008 A 
BRANCH  19  22
HETATM   22  C   UNL     1       4.415  11.163  92.628  1.00  0.00     0.254 C 
HETATM   23  O   UNL     1       3.529  11.085  93.476  1.00  0.00    -0.268 OA
HETATM   24  N   UNL     1       4.540  12.192  91.706  1.00  0.00    -0.335 N 
HETATM   25  HN  UNL     1       5.314  12.203  91.051  1.00  0.00     0.164 HD
BRANCH  24  26
HETATM   26  C   UNL     1       3.620  13.300  91.650  1.00  0.00     0.169 C 
BRANCH  26  27
HETATM   27  C   UNL     1       4.148  14.547  92.369  1.00  0.00     0.138 C 
HETATM   28  C   UNL     1       4.898  15.488  91.433  1.00  0.00     0.034 C 
BRANCH  27  29
HETATM   29  O   UNL     1       3.058  15.254  92.960  1.00  0.00    -0.383 OA
HETATM   30  H   UNL     1       2.275  14.678  92.942  1.00  0.00     0.210 HD
ENDBRANCH  27  29
ENDBRANCH  26  27
BRANCH  26  31
HETATM   31  C   UNL     1       3.328  13.589  90.181  1.00  0.00     0.194 C 
HETATM   32  O   UNL     1       2.362  14.251  89.808  1.00  0.00    -0.289 OA
BRANCH  31  33
HETATM   33  C   UNL     1       4.241  12.995  89.344  1.00  0.00     0.053 C 
BRANCH  33  34
HETATM   34  C   UNL     1       3.716  12.419  88.178  1.00  0.00     0.220 C 
BRANCH  34  35
HETATM   35  O   UNL     1       4.491  12.684  87.240  1.00  0.00    -0.371 OA
HETATM   36  H   UNL     1       5.298  12.689  87.732  1.00  0.00     0.211 HD
ENDBRANCH  34  35
BRANCH  34  37
HETATM   37  C   UNL     1       3.472  11.039  88.296  1.00  0.00     0.185 C 
HETATM   38  O   UNL     1       4.721  11.019  88.736  1.00  0.00    -0.647 OA
BRANCH  37  39
HETATM   39  O   UNL     1       2.577  10.286  88.056  1.00  0.00    -0.774 OA
HETATM   40  H   UNL     1       2.951   9.227  87.899  1.00  0.00     0.167 HD
ENDBRANCH  37  39
ENDBRANCH  34  37
ENDBRANCH  33  34
ENDBRANCH  31  33
ENDBRANCH  26  31
ENDBRANCH  24  26
ENDBRANCH  19  22
ENDBRANCH  15  16
ENDBRANCH  11  14
ENDBRANCH   7   8
ENDBRANCH   2   7
TORSDOF 14
ENDMDL
MODEL 3
REMARK VINA RESULT:      -5.6      2.558     12.806
REMARK  14 active torsions:
REMARK  status: ('A' for Active; 'I' for Inactive)
REMARK    1  A    between atoms: O_2  and  C_18 
REMARK    2  A    between atoms: C_5  and  C_8 
REMARK    3  A    between atoms: C_5  and  O_35 
REMARK    4  A    between atoms: C_5  and  C_36 
REMARK    5  A    between atoms: N_6  and  C_11 
REMARK    6  A    between atoms: N_7  and  C_15 
REMARK       I    between atoms: N_7  and  C_24 
REMARK    7  A    between atoms: C_8  and  C_23 
REMARK    8  A    between atoms: C_11  and  C_14 
REMARK    9  A    between atoms: C_15  and  C_18 
REMARK   10  A    between atoms: C_15  and  C_23 
REMARK   11  A    between atoms: C_21  and  C_26 
REMARK   12  A    between atoms: C_24  and  C_25 
REMARK   13  A    between atoms: C_29  and  C_32 
REMARK   14  A    between atoms: C_36  and  O_39 
ROOT
HETATM    1  O   UNL     1       3.065  14.821  93.992  1.00  0.00    -0.350 OA
HETATM    2  N   UNL     1       2.771  14.579  91.171  1.00  0.00     0.147 N 
HETATM    3  C   UNL     1       1.755  14.060  92.096  1.00  0.00     0.283 C 
HETATM    4  C   UNL     1       4.094  14.556  91.811  1.00  0.00     0.283 C 
HETATM    5  C   UNL     1       1.770  14.870  93.390  1.00  0.00     0.178 C 
HETATM    6  C   UNL     1       4.054  15.353  93.111  1.00  0.00     0.178 C 
ENDROOT
BRANCH   2   7
HETATM    7  C   UNL     1       2.781  13.810  89.928  1.00  0.00     0.277 C 
BRANCH   7   8
HETATM    8  C   UNL     1       3.771  12.695  89.958  1.00  0.00     0.011 A 
HETATM    9  C   UNL     1       3.476  11.521  90.652  1.00  0.00    -0.002 A 
HETATM   10  C   UNL     1       4.402  10.478  90.683  1.00  0.00     0.008 A 
HETATM   11  C   UNL     1       5.620  10.609  90.018  1.00  0.00     0.042 A 
HETATM   12  C   UNL     1       5.916  11.781  89.325  1.00  0.00     0.008 A 
HETATM   13  C   UNL     1       4.991  12.824  89.294  1.00  0.00    -0.002 A 
BRANCH  11  14
HETATM   14  C   UNL     1       6.569   9.538  90.048  1.00  0.00    -0.059 C 
HETATM   15  C   UNL     1       7.366   8.638  90.074  1.00  0.00    -0.059 C 
BRANCH  15  16
HETATM   16  C   UNL     1       8.313   7.568  90.104  1.00  0.00     0.042 A 
HETATM   17  C   UNL     1       8.101   6.474  90.943  1.00  0.00     0.008 A 
HETATM   18  C   UNL     1       9.024   5.428  90.970  1.00  0.00     0.005 A 
HETATM   19  C   UNL     1      10.136   5.500  90.158  1.00  0.00     0.056 A 
HETATM   20  C   UNL     1      10.369   6.571  89.321  1.00  0.00     0.005 A 
HETATM   21  C   UNL     1       9.447   7.617  89.293  1.00  0.00     0.008 A 
BRANCH  19  22
HETATM   22  C   UNL     1      11.120   4.386  90.189  1.00  0.00     0.254 C 
HETATM   23  O   UNL     1      11.094   3.539  89.300  1.00  0.00    -0.268 OA
HETATM   24  N   UNL     1      12.031   4.408  91.236  1.00  0.00    -0.335 N 
HETATM   25  HN  UNL     1      12.008   5.156  91.920  1.00  0.00     0.164 HD
BRANCH  24  26
HETATM   26  C   UNL     1      13.061   3.413  91.389  1.00  0.00     0.169 C 
BRANCH  26  27
HETATM   27  C   UNL     1      14.418   3.873  90.843  1.00  0.00     0.138 C 
HETATM   28  C   UNL     1      14.908   3.005  89.689  1.00  0.00     0.034 C 
BRANCH  27  29
HETATM   29  O   UNL     1      14.318   5.225  90.395  1.00  0.00    -0.383 OA
HETATM   30  H   UNL     1      15.145   5.457  89.938  1.00  0.00     0.210 HD
ENDBRANCH  27  29
ENDBRANCH  26  27
BRANCH  26  31
HETATM   31  C   UNL     1      13.150   3.059  92.870  1.00  0.00     0.194 C 
HETATM   32  O   UNL     1      12.374   2.281  93.421  1.00  0.00    -0.289 OA
BRANCH  31  33
HETATM   33  C   UNL     1      14.163   3.736  93.505  1.00  0.00     0.053 C 
BRANCH  33  34
HETATM   34  C   UNL     1      15.136   2.938  94.124  1.00  0.00     0.220 C 
BRANCH  34  35
HETATM   35  O   UNL     1      15.003   1.776  93.697  1.00  0.00    -0.371 OA
HETATM   36  H   UNL     1      15.613   1.350  94.279  1.00  0.00     0.211 HD
ENDBRANCH  34  35
BRANCH  34  37
HETATM   37  C   UNL     1      16.445   3.422  93.957  1.00  0.00     0.185 C 
HETATM   38  O   UNL     1      15.835   4.596  93.915  1.00  0.00    -0.647 OA
BRANCH  37  39
HETATM   39  O   UNL     1      17.542   2.958  93.858  1.00  0.00    -0.774 OA
HETATM   40  H   UNL     1      17.508   1.856  93.591  1.00  0.00     0.167 HD
ENDBRANCH  37  39
ENDBRANCH  34  37
ENDBRANCH  33  34
ENDBRANCH  31  33
ENDBRANCH  26  31
ENDBRANCH  24  26
ENDBRANCH  19  22
ENDBRANCH  15  16
ENDBRANCH  11  14
ENDBRANCH   7   8
ENDBRANCH   2   7
TORSDOF 14
ENDMDL
MODEL 4
REMARK VINA RESULT:      -4.6      1.792      2.682
REMARK  14 active torsions:
REMARK  status: ('A' for Active; 'I' for Inactive)
REMARK    1  A    between atoms: O_2  and  C_18 
REMARK    2  A    between atoms: C_5  and  C_8 
REMARK    3  A    between atoms: C_5  and  O_35 
REMARK    4  A    between atoms: C_5  and  C_36 
REMARK    5  A    between atoms: N_6  and  C_11 
REMARK    6  A    between atoms: N_7  and  C_15 
REMARK       I    between atoms: N_7  and  C_24 
REMARK    7  A    between atoms: C_8  and  C_23 
REMARK    8  A    between atoms: C_11  and  C_14 
REMARK    9  A    between atoms: C_15  and  C_18 
REMARK   10  A    between atoms: C_15  and  C_23 
REMARK   11  A    between atoms: C_21  and  C_26 
REMARK   12  A    between atoms: C_24  and  C_25 
REMARK   13  A    between atoms: C_29  and  C_32 
REMARK   14  A    between atoms: C_36  and  O_39 
ROOT
HETATM    1  O   UNL     1      17.621   4.607  93.726  1.00  0.00    -0.350 OA
HETATM    2  N   UNL     1      15.325   2.929  93.821  1.00  0.00     0.147 N 
HETATM    3  C   UNL     1      16.643   2.405  93.436  1.00  0.00     0.283 C 
HETATM    4  C   UNL     1      15.223   4.350  93.463  1.00  0.00     0.283 C 
HETATM    5  C   UNL     1      17.741   3.233  94.099  1.00  0.00     0.178 C 
HETATM    6  C   UNL     1      16.354   5.132  94.124  1.00  0.00     0.178 C 
ENDROOT
BRANCH   2   7
HETATM    7  C   UNL     1      14.257   2.156  93.188  1.00  0.00     0.277 C 
BRANCH   7   8
HETATM    8  C   UNL     1      13.028   2.969  92.957  1.00  0.00     0.011 A 
HETATM    9  C   UNL     1      12.349   3.528  94.040  1.00  0.00    -0.002 A 
HETATM   10  C   UNL     1      11.198   4.287  93.824  1.00  0.00     0.008 A 
HETATM   11  C   UNL     1      10.730   4.488  92.526  1.00  0.00     0.042 A 
HETATM   12  C   UNL     1      11.408   3.931  91.444  1.00  0.00     0.008 A 
HETATM   13  C   UNL     1      12.558   3.171  91.659  1.00  0.00    -0.002 A 
BRANCH  11  14
HETATM   14  C   UNL     1       9.551   5.268  92.305  1.00  0.00    -0.059 C 
HETATM   15  C   UNL     1       8.561   5.924  92.120  1.00  0.00    -0.059 C 
BRANCH  15  16
HETATM   16  C   UNL     1       7.383   6.705  91.899  1.00  0.00     0.042 A 
HETATM   17  C   UNL     1       6.269   6.531  92.720  1.00  0.00     0.008 A 
HETATM   18  C   UNL     1       5.121   7.295  92.506  1.00  0.00     0.005 A 
HETATM   19  C   UNL     1       5.114   8.214  91.478  1.00  0.00     0.056 A 
HETATM   20  C   UNL     1       6.203   8.404  90.653  1.00  0.00     0.005 A 
HETATM   21  C   UNL     1       7.351   7.641  90.866  1.00  0.00     0.008 A 
BRANCH  19  22
HETATM   22  C   UNL     1       3.891   9.025  91.249  1.00  0.00     0.254 C 
HETATM   23  O   UNL     1       2.848   8.712  91.818  1.00  0.00    -0.268 OA
HETATM   24  N   UNL     1       4.035  10.118  90.405  1.00  0.00    -0.335 N 
HETATM   25  HN  UNL     1       4.934  10.330  89.989  1.00  0.00     0.164 HD
BRANCH  24  26
HETATM   26  C   UNL     1       2.947  11.014  90.104  1.00  0.00     0.169 C 
BRANCH  26  27
HETATM   27  C   UNL     1       2.934  12.255  91.006  1.00  0.00     0.138 C 
HETATM   28  C   UNL     1       1.981  12.107  92.187  1.00  0.00     0.034 C 
BRANCH  27  29
HETATM   29  O   UNL     1       4.250  12.500  91.500  1.00  0.00    -0.383 OA
HETATM   30  H   UNL     1       4.888  12.186  90.837  1.00  0.00     0.210 HD
ENDBRANCH  27  29
ENDBRANCH  26  27
BRANCH  26  31
HETATM   31  C   UNL     1       3.055  11.400  88.632  1.00  0.00     0.194 C 
HETATM   32  O   UNL     1       2.074  11.565  87.909  1.00  0.00    -0.289 OA
BRANCH  31  33
HETATM   33  C   UNL     1       4.361  11.498  88.216  1.00  0.00     0.053 C 
BRANCH  33  34
HETATM   34  C   UNL     1       4.819  12.796  87.945  1.00  0.00     0.220 C 
BRANCH  34  35
HETATM   35  O   UNL     1       3.907  13.590  88.242  1.00  0.00    -0.371 OA
HETATM   36  H   UNL     1       4.424  14.208  88.736  1.00  0.00     0.211 HD
ENDBRANCH  34  35
BRANCH  34  37
HETATM   37  C   UNL     1       6.029  13.108  88.588  1.00  0.00     0.185 C 
HETATM   38  O   UNL     1       5.303  14.066  89.142  1.00  0.00    -0.647 OA
BRANCH  37  39
HETATM   39  O   UNL     1       7.154  12.708  88.574  1.00  0.00    -0.774 OA
HETATM   40  H   UNL     1       7.894  13.546  88.380  1.00  0.00     0.167 HD
ENDBRANCH  37  39
ENDBRANCH  34  37
ENDBRANCH  33  34
ENDBRANCH  31  33
ENDBRANCH  26  31
ENDBRANCH  24  26
ENDBRANCH  19  22
ENDBRANCH  15  16
ENDBRANCH  11  14
ENDBRANCH   7   8
ENDBRANCH   2   7
TORSDOF 14
ENDMDL
MODEL 5
REMARK VINA RESULT:      -4.1      1.536      3.155
REMARK  14 active torsions:
REMARK  status: ('A' for Active; 'I' for Inactive)
REMARK    1  A    between atoms: O_2  and  C_18 
REMARK    2  A    between atoms: C_5  and  C_8 
REMARK    3  A    between atoms: C_5  and  O_35 
REMARK    4  A    between atoms: C_5  and  C_36 
REMARK    5  A    between atoms: N_6  and  C_11 
REMARK    6  A    between atoms: N_7  and  C_15 
REMARK       I    between atoms: N_7  and  C_24 
REMARK    7  A    between atoms: C_8  and  C_23 
REMARK    8  A    between atoms: C_11  and  C_14 
REMARK    9  A    between atoms: C_15  and  C_18 
REMARK   10  A    between atoms: C_15  and  C_23 
REMARK   11  A    between atoms: C_21  and  C_26 
REMARK   12  A    between atoms: C_24  and  C_25 
REMARK   13  A    between atoms: C_29  and  C_32 
REMARK   14  A    between atoms: C_36  and  O_39 
ROOT
HETATM    1  O   UNL     1      16.329   3.884  93.428  1.00  0.00    -0.350 OA
HETATM    2  N   UNL     1      14.301   2.048  92.642  1.00  0.00     0.147 N 
HETATM    3  C   UNL     1      14.509   3.315  91.927  1.00  0.00     0.283 C 
HETATM    4  C   UNL     1      14.706   2.191  94.048  1.00  0.00     0.283 C 
HETATM    5  C   UNL     1      15.968   3.746  92.052  1.00  0.00     0.178 C 
HETATM    6  C   UNL     1      16.159   2.649  94.124  1.00  0.00     0.178 C 
ENDROOT
BRANCH   2   7
HETATM    7  C   UNL     1      12.906   1.622  92.544  1.00  0.00     0.277 C 
BRANCH   7   8
HETATM    8  C   UNL     1      11.984   2.757  92.256  1.00  0.00     0.011 A 
HETATM    9  C   UNL     1      11.628   3.642  93.275  1.00  0.00    -0.002 A 
HETATM   10  C   UNL     1      10.764   4.703  93.007  1.00  0.00     0.008 A 
HETATM   11  C   UNL     1      10.257   4.880  91.720  1.00  0.00     0.042 A 
HETATM   12  C   UNL     1      10.612   3.998  90.702  1.00  0.00     0.008 A 
HETATM   13  C   UNL     1      11.475   2.936  90.970  1.00  0.00    -0.002 A 
BRANCH  11  14
HETATM   14  C   UNL     1       9.372   5.970  91.445  1.00  0.00    -0.059 C 
HETATM   15  C   UNL     1       8.629   6.886  91.214  1.00  0.00    -0.059 C 
BRANCH  15  16
HETATM   16  C   UNL     1       7.745   7.976  90.939  1.00  0.00     0.042 A 
HETATM   17  C   UNL     1       6.554   8.105  91.654  1.00  0.00     0.008 A 
HETATM   18  C   UNL     1       5.694   9.170  91.387  1.00  0.00     0.005 A 
HETATM   19  C   UNL     1       6.043  10.081  90.413  1.00  0.00     0.056 A 
HETATM   20  C   UNL     1       7.214   9.976  89.692  1.00  0.00     0.005 A 
HETATM   21  C   UNL     1       8.075   8.911  89.958  1.00  0.00     0.008 A 
BRANCH  19  22
HETATM   22  C   UNL     1       5.125  11.214  90.128  1.00  0.00     0.254 C 
HETATM   23  O   UNL     1       4.306  11.108  89.218  1.00  0.00    -0.268 OA
HETATM   24  N   UNL     1       5.254  12.323  90.952  1.00  0.00    -0.335 N 
HETATM   25  HN  UNL     1       5.937  12.330  91.700  1.00  0.00     0.164 HD
BRANCH  24  26
HETATM   26  C   UNL     1       4.420  13.491  90.817  1.00  0.00     0.169 C 
BRANCH  26  27
HETATM   27  C   UNL     1       4.238  13.925  89.357  1.00  0.00     0.138 C 
HETATM   28  C   UNL     1       5.515  13.772  88.539  1.00  0.00     0.034 C 
BRANCH  27  29
HETATM   29  O   UNL     1       3.205  13.146  88.753  1.00  0.00    -0.383 OA
HETATM   30  H   UNL     1       3.604  12.335  88.396  1.00  0.00     0.210 HD
ENDBRANCH  27  29
ENDBRANCH  26  27
BRANCH  26  31
HETATM   31  C   UNL     1       3.079  13.184  91.476  1.00  0.00     0.194 C 
HETATM   32  O   UNL     1       2.024  13.707  91.121  1.00  0.00    -0.289 OA
BRANCH  31  33
HETATM   33  C   UNL     1       3.204  12.299  92.519  1.00  0.00     0.053 C 
BRANCH  33  34
HETATM   34  C   UNL     1       2.244  11.278  92.571  1.00  0.00     0.220 C 
BRANCH  34  35
HETATM   35  O   UNL     1       2.049  10.880  91.407  1.00  0.00    -0.371 OA
HETATM   36  H   UNL     1       2.525  11.559  90.953  1.00  0.00     0.211 HD
ENDBRANCH  34  35
BRANCH  34  37
HETATM   37  C   UNL     1       2.587  10.230  93.442  1.00  0.00     0.185 C 
HETATM   38  O   UNL     1       1.364   9.809  93.161  1.00  0.00    -0.647 OA
BRANCH  37  39
HETATM   39  O   UNL     1       3.521   9.931  94.124  1.00  0.00    -0.774 OA
HETATM   40  H   UNL     1       4.269   9.296  93.553  1.00  0.00     0.167 HD
ENDBRANCH  37  39
ENDBRANCH  34  37
ENDBRANCH  33  34
ENDBRANCH  31  33
ENDBRANCH  26  31
ENDBRANCH  24  26
ENDBRANCH  19  22
ENDBRANCH  15  16
ENDBRANCH  11  14
ENDBRANCH   7   8
ENDBRANCH   2   7
TORSDOF 14
ENDMDL
