MODEL 1
REMARK VINA RESULT:      -6.8      0.000      0.000
REMARK  10 active torsions:
REMARK  status: ('A' for Active; 'I' for Inactive)
REMARK    1  A    between atoms: O_2  and  C_18 
REMARK    2  A    between atoms: O_5  and  N_8 
REMARK    3  A    between atoms: N_6  and  C_11 
REMARK    4  A    between atoms: N_7  and  C_15 
REMARK       I    between atoms: N_7  and  C_24 
REMARK       I    between atoms: N_8  and  C_23 
REMARK    5  A    between atoms: C_11  and  C_14 
REMARK    6  A    between atoms: C_15  and  C_18 
REMARK    7  A    between atoms: C_15  and  C_23 
REMARK    8  A    between atoms: C_21  and  C_26 
REMARK    9  A    between atoms: C_24  and  C_25 
REMARK   10  A    between atoms: C_29  and  C_32 
ROOT
HETATM    1  O   UNK     0      16.467   4.395  93.912  0.00  0.00    -0.388 OA
HETATM    2  N   UNK     0      14.660   2.588  92.658  0.00  0.00     0.096 N 
HETATM    3  C   UNK     0      14.560   4.040  92.453  0.00  0.00     0.299 C 
HETATM    4  C   UNK     0      15.237   2.305  93.978  0.00  0.00     0.299 C 
HETATM    5  C   UNK     0      15.936   4.681  92.617  0.00  0.00     0.198 C 
HETATM    6  C   UNK     0      16.596   2.986  94.107  0.00  0.00     0.198 C 
ENDROOT
BRANCH   2   7
HETATM    7  C   UNK     0      13.350   1.954  92.516  0.00  0.00     0.311 C 
BRANCH   7   8
HETATM    8  C   UNK     0      12.264   2.945  92.270  0.00  0.00    -0.030 A 
HETATM    9  C   UNK     0      11.745   3.105  90.984  0.00  0.00     0.010 A 
HETATM   10  C   UNK     0      10.730   4.033  90.752  0.00  0.00     0.021 A 
HETATM   11  C   UNK     0      10.233   4.798  91.806  0.00  0.00     0.018 A 
HETATM   12  C   UNK     0      10.749   4.639  93.090  0.00  0.00     0.021 A 
HETATM   13  C   UNK     0      11.765   3.712  93.323  0.00  0.00     0.010 A 
BRANCH  11  14
HETATM   14  C   UNK     0       9.190   5.748  91.568  0.00  0.00    -0.061 C 
HETATM   15  C   UNK     0       8.313   6.547  91.369  0.00  0.00    -0.061 C 
BRANCH  15  16
HETATM   16  C   UNK     0       7.271   7.495  91.132  0.00  0.00     0.018 A 
HETATM   17  C   UNK     0       7.543   8.667  90.425  0.00  0.00     0.022 A 
HETATM   18  C   UNK     0       6.525   9.592  90.192  0.00  0.00     0.018 A 
HETATM   19  C   UNK     0       5.259   9.325  90.669  0.00  0.00     0.032 A 
HETATM   20  C   UNK     0       4.964   8.174  91.370  0.00  0.00     0.018 A 
HETATM   21  C   UNK     0       5.982   7.249  91.605  0.00  0.00     0.022 A 
BRANCH  19  22
HETATM   22  C   UNK     0       4.175  10.311  90.422  0.00  0.00     0.252 C 
HETATM   23  O   UNK     0       3.007   9.932  90.427  0.00  0.00    -0.268 OA
HETATM   24  N   UNK     0       4.582  11.624  90.224  0.00  0.00    -0.341 N 
HETATM   25  H   UNK     0       5.565  11.867  90.259  0.00  0.00     0.163 HD
BRANCH  24  26
HETATM   26  C   UNK     0       3.649  12.698  89.997  0.00  0.00     0.207 C 
BRANCH  26  27
HETATM   27  C   UNK     0       3.361  13.512  91.265  0.00  0.00     0.146 C 
HETATM   28  C   UNK     0       2.017  13.161  91.892  0.00  0.00     0.042 C 
BRANCH  27  29
HETATM   29  O   UNK     0       4.394  13.283  92.223  0.00  0.00    -0.393 OA
HETATM   30  H   UNK     0       4.586  14.125  92.671  0.00  0.00     0.210 HD
ENDBRANCH  27  29
ENDBRANCH  26  27
BRANCH  26  31
HETATM   31  C   UNK     0       4.215  13.580  88.888  0.00  0.00     0.266 C 
HETATM   32  O   UNK     0       4.475  14.771  89.047  0.00  0.00    -0.269 OA
HETATM   33  N   UNK     0       4.357  12.898  87.704  0.00  0.00    -0.236 N 
HETATM   34  H   UNK     0       4.070  11.944  87.515  0.00  0.00     0.197 HD
BRANCH  33  35
HETATM   35  O   UNK     0       4.837  13.648  86.622  0.00  0.00    -0.287 OA
HETATM   36  H   UNK     0       4.579  13.072  85.882  0.00  0.00     0.244 HD
ENDBRANCH  33  35
ENDBRANCH  26  31
ENDBRANCH  24  26
ENDBRANCH  19  22
ENDBRANCH  15  16
ENDBRANCH  11  14
ENDBRANCH   7   8
ENDBRANCH   2   7
TORSDOF 10
ENDMDL
MODEL 2
REMARK VINA RESULT:      -6.5      1.384      1.834
REMARK  10 active torsions:
REMARK  status: ('A' for Active; 'I' for Inactive)
REMARK    1  A    between atoms: O_2  and  C_18 
REMARK    2  A    between atoms: O_5  and  N_8 
REMARK    3  A    between atoms: N_6  and  C_11 
REMARK    4  A    between atoms: N_7  and  C_15 
REMARK       I    between atoms: N_7  and  C_24 
REMARK       I    between atoms: N_8  and  C_23 
REMARK    5  A    between atoms: C_11  and  C_14 
REMARK    6  A    between atoms: C_15  and  C_18 
REMARK    7  A    between atoms: C_15  and  C_23 
REMARK    8  A    between atoms: C_21  and  C_26 
REMARK    9  A    between atoms: C_24  and  C_25 
REMARK   10  A    between atoms: C_29  and  C_32 
ROOT
HETATM    1  O   UNK     0      16.262   2.978  93.762  0.00  0.00    -0.388 OA
HETATM    2  N   UNK     0      13.655   2.785  92.637  0.00  0.00     0.096 N 
HETATM    3  C   UNK     0      14.434   1.587  92.978  0.00  0.00     0.299 C 
HETATM    4  C   UNK     0      14.557   3.894  92.298  0.00  0.00     0.299 C 
HETATM    5  C   UNK     0      15.393   1.903  94.123  0.00  0.00     0.198 C 
HETATM    6  C   UNK     0      15.514   4.155  93.459  0.00  0.00     0.198 C 
ENDROOT
BRANCH   2   7
HETATM    7  C   UNK     0      12.736   2.509  91.533  0.00  0.00     0.311 C 
BRANCH   7   8
HETATM    8  C   UNK     0      11.644   3.519  91.436  0.00  0.00    -0.030 A 
HETATM    9  C   UNK     0      11.408   4.175  90.228  0.00  0.00     0.010 A 
HETATM   10  C   UNK     0      10.388   5.122  90.136  0.00  0.00     0.021 A 
HETATM   11  C   UNK     0       9.604   5.411  91.253  0.00  0.00     0.018 A 
HETATM   12  C   UNK     0       9.839   4.757  92.460  0.00  0.00     0.021 A 
HETATM   13  C   UNK     0      10.860   3.810  92.552  0.00  0.00     0.010 A 
BRANCH  11  14
HETATM   14  C   UNK     0       8.557   6.381  91.158  0.00  0.00    -0.061 C 
HETATM   15  C   UNK     0       7.676   7.196  91.079  0.00  0.00    -0.061 C 
BRANCH  15  16
HETATM   16  C   UNK     0       6.631   8.166  90.983  0.00  0.00     0.018 A 
HETATM   17  C   UNK     0       6.943   9.505  90.745  0.00  0.00     0.022 A 
HETATM   18  C   UNK     0       5.922  10.451  90.649  0.00  0.00     0.018 A 
HETATM   19  C   UNK     0       4.614  10.038  90.794  0.00  0.00     0.032 A 
HETATM   20  C   UNK     0       4.280   8.721  91.031  0.00  0.00     0.018 A 
HETATM   21  C   UNK     0       5.300   7.775  91.127  0.00  0.00     0.022 A 
BRANCH  19  22
HETATM   22  C   UNK     0       3.528  11.047  90.694  0.00  0.00     0.252 C 
HETATM   23  O   UNK     0       2.666  10.917  89.829  0.00  0.00    -0.268 OA
HETATM   24  N   UNK     0       3.562  12.072  91.630  0.00  0.00    -0.341 N 
HETATM   25  H   UNK     0       4.292  12.101  92.333  0.00  0.00     0.163 HD
BRANCH  24  26
HETATM   26  C   UNK     0       2.566  13.111  91.679  0.00  0.00     0.207 C 
BRANCH  26  27
HETATM   27  C   UNK     0       2.479  13.788  93.053  0.00  0.00     0.146 C 
HETATM   28  C   UNK     0       3.717  13.536  93.906  0.00  0.00     0.042 C 
BRANCH  27  29
HETATM   29  O   UNK     0       2.312  15.195  92.883  0.00  0.00    -0.393 OA
HETATM   30  H   UNK     0       2.352  15.615  93.758  0.00  0.00     0.210 HD
ENDBRANCH  27  29
ENDBRANCH  26  27
BRANCH  26  31
HETATM   31  C   UNK     0       2.892  14.121  90.583  0.00  0.00     0.266 C 
HETATM   32  O   UNK     0       2.031  14.664  89.894  0.00  0.00    -0.269 OA
HETATM   33  N   UNK     0       4.245  14.313  90.441  0.00  0.00    -0.236 N 
HETATM   34  H   UNK     0       4.983  13.817  90.928  0.00  0.00     0.197 HD
BRANCH  33  35
HETATM   35  O   UNK     0       4.632  15.200  89.426  0.00  0.00    -0.287 OA
HETATM   36  H   UNK     0       4.478  14.646  88.642  0.00  0.00     0.244 HD
ENDBRANCH  33  35
ENDBRANCH  26  31
ENDBRANCH  24  26
ENDBRANCH  19  22
ENDBRANCH  15  16
ENDBRANCH  11  14
ENDBRANCH   7   8
ENDBRANCH   2   7
TORSDOF 10
ENDMDL
MODEL 3
REMARK VINA RESULT:      -6.4      1.515      2.717
REMARK  10 active torsions:
REMARK  status: ('A' for Active; 'I' for Inactive)
REMARK    1  A    between atoms: O_2  and  C_18 
REMARK    2  A    between atoms: O_5  and  N_8 
REMARK    3  A    between atoms: N_6  and  C_11 
REMARK    4  A    between atoms: N_7  and  C_15 
REMARK       I    between atoms: N_7  and  C_24 
REMARK       I    between atoms: N_8  and  C_23 
REMARK    5  A    between atoms: C_11  and  C_14 
REMARK    6  A    between atoms: C_15  and  C_18 
REMARK    7  A    between atoms: C_15  and  C_23 
REMARK    8  A    between atoms: C_21  and  C_26 
REMARK    9  A    between atoms: C_24  and  C_25 
REMARK   10  A    between atoms: C_29  and  C_32 
ROOT
HETATM    1  O   UNK     0      16.551   3.399  93.766  0.00  0.00    -0.388 OA
HETATM    2  N   UNK     0      13.839   2.816  93.128  0.00  0.00     0.096 N 
HETATM    3  C   UNK     0      14.867   1.766  93.142  0.00  0.00     0.299 C 
HETATM    4  C   UNK     0      14.446   4.111  92.792  0.00  0.00     0.299 C 
HETATM    5  C   UNK     0      15.975   2.141  94.123  0.00  0.00     0.198 C 
HETATM    6  C   UNK     0      15.564   4.431  93.781  0.00  0.00     0.198 C 
ENDROOT
BRANCH   2   7
HETATM    7  C   UNK     0      12.772   2.484  92.186  0.00  0.00     0.311 C 
BRANCH   7   8
HETATM    8  C   UNK     0      11.774   3.582  92.047  0.00  0.00    -0.030 A 
HETATM    9  C   UNK     0      11.266   4.210  93.185  0.00  0.00     0.010 A 
HETATM   10  C   UNK     0      10.331   5.237  93.056  0.00  0.00     0.021 A 
HETATM   11  C   UNK     0       9.906   5.636  91.789  0.00  0.00     0.018 A 
HETATM   12  C   UNK     0      10.413   5.010  90.652  0.00  0.00     0.021 A 
HETATM   13  C   UNK     0      11.347   3.983  90.781  0.00  0.00     0.010 A 
BRANCH  11  14
HETATM   14  C   UNK     0       8.948   6.691  91.657  0.00  0.00    -0.061 C 
HETATM   15  C   UNK     0       8.143   7.577  91.545  0.00  0.00    -0.061 C 
BRANCH  15  16
HETATM   16  C   UNK     0       7.188   8.631  91.413  0.00  0.00     0.018 A 
HETATM   17  C   UNK     0       7.450   9.707  90.564  0.00  0.00     0.022 A 
HETATM   18  C   UNK     0       6.516  10.735  90.433  0.00  0.00     0.018 A 
HETATM   19  C   UNK     0       5.342  10.665  91.153  0.00  0.00     0.032 A 
HETATM   20  C   UNK     0       5.059   9.614  91.999  0.00  0.00     0.018 A 
HETATM   21  C   UNK     0       5.993   8.586  92.131  0.00  0.00     0.022 A 
BRANCH  19  22
HETATM   22  C   UNK     0       4.349  11.762  91.015  0.00  0.00     0.252 C 
HETATM   23  O   UNK     0       3.224  11.502  90.596  0.00  0.00    -0.268 OA
HETATM   24  N   UNK     0       4.778  13.023  91.404  0.00  0.00    -0.341 N 
HETATM   25  H   UNK     0       5.715  13.157  91.765  0.00  0.00     0.163 HD
BRANCH  24  26
HETATM   26  C   UNK     0       3.924  14.183  91.352  0.00  0.00     0.207 C 
BRANCH  26  27
HETATM   27  C   UNK     0       3.750  14.728  89.930  0.00  0.00     0.146 C 
HETATM   28  C   UNK     0       5.080  14.904  89.205  0.00  0.00     0.042 C 
BRANCH  27  29
HETATM   29  O   UNK     0       2.924  13.841  89.176  0.00  0.00    -0.393 OA
HETATM   30  H   UNK     0       3.498  13.189  88.739  0.00  0.00     0.210 HD
ENDBRANCH  27  29
ENDBRANCH  26  27
BRANCH  26  31
HETATM   31  C   UNK     0       2.582  13.801  91.968  0.00  0.00     0.266 C 
HETATM   32  O   UNK     0       1.503  14.096  91.458  0.00  0.00    -0.269 OA
HETATM   33  N   UNK     0       2.729  13.134  93.160  0.00  0.00    -0.236 N 
HETATM   34  H   UNK     0       3.596  12.954  93.652  0.00  0.00     0.197 HD
BRANCH  33  35
HETATM   35  O   UNK     0       1.539  12.780  93.812  0.00  0.00    -0.287 OA
HETATM   36  H   UNK     0       1.057  13.623  93.765  0.00  0.00     0.244 HD
ENDBRANCH  33  35
ENDBRANCH  26  31
ENDBRANCH  24  26
ENDBRANCH  19  22
ENDBRANCH  15  16
ENDBRANCH  11  14
ENDBRANCH   7   8
ENDBRANCH   2   7
TORSDOF 10
ENDMDL
MODEL 4
REMARK VINA RESULT:      -5.7      1.981      2.620
REMARK  10 active torsions:
REMARK  status: ('A' for Active; 'I' for Inactive)
REMARK    1  A    between atoms: O_2  and  C_18 
REMARK    2  A    between atoms: O_5  and  N_8 
REMARK    3  A    between atoms: N_6  and  C_11 
REMARK    4  A    between atoms: N_7  and  C_15 
REMARK       I    between atoms: N_7  and  C_24 
REMARK       I    between atoms: N_8  and  C_23 
REMARK    5  A    between atoms: C_11  and  C_14 
REMARK    6  A    between atoms: C_15  and  C_18 
REMARK    7  A    between atoms: C_15  and  C_23 
REMARK    8  A    between atoms: C_21  and  C_26 
REMARK    9  A    between atoms: C_24  and  C_25 
REMARK   10  A    between atoms: C_29  and  C_32 
ROOT
HETATM    1  O   UNK     0      17.232   4.648  93.193  0.00  0.00    -0.388 OA
HETATM    2  N   UNK     0      15.186   2.902  94.124  0.00  0.00     0.096 N 
HETATM    3  C   UNK     0      16.218   2.443  93.184  0.00  0.00     0.299 C 
HETATM    4  C   UNK     0      14.946   4.340  93.945  0.00  0.00     0.299 C 
HETATM    5  C   UNK     0      17.495   3.256  93.382  0.00  0.00     0.198 C 
HETATM    6  C   UNK     0      16.252   5.109  94.124  0.00  0.00     0.198 C 
ENDROOT
BRANCH   2   7
HETATM    7  C   UNK     0      13.949   2.143  93.945  0.00  0.00     0.311 C 
BRANCH   7   8
HETATM    8  C   UNK     0      12.908   2.918  93.210  0.00  0.00    -0.030 A 
HETATM    9  C   UNK     0      13.058   3.165  91.845  0.00  0.00     0.010 A 
HETATM   10  C   UNK     0      12.087   3.891  91.157  0.00  0.00     0.021 A 
HETATM   11  C   UNK     0      10.965   4.368  91.834  0.00  0.00     0.018 A 
HETATM   12  C   UNK     0      10.814   4.122  93.197  0.00  0.00     0.021 A 
HETATM   13  C   UNK     0      11.786   3.396  93.886  0.00  0.00     0.010 A 
BRANCH  11  14
HETATM   14  C   UNK     0       9.967   5.111  91.128  0.00  0.00    -0.061 C 
HETATM   15  C   UNK     0       9.128   5.736  90.534  0.00  0.00    -0.061 C 
BRANCH  15  16
HETATM   16  C   UNK     0       8.131   6.478  89.830  0.00  0.00     0.018 A 
HETATM   17  C   UNK     0       8.393   7.787  89.423  0.00  0.00     0.022 A 
HETATM   18  C   UNK     0       7.421   8.511  88.734  0.00  0.00     0.018 A 
HETATM   19  C   UNK     0       6.208   7.911  88.465  0.00  0.00     0.032 A 
HETATM   20  C   UNK     0       5.924   6.619  88.857  0.00  0.00     0.018 A 
HETATM   21  C   UNK     0       6.896   5.895  89.547  0.00  0.00     0.022 A 
BRANCH  19  22
HETATM   22  C   UNK     0       5.172   8.683  87.732  0.00  0.00     0.252 C 
HETATM   23  O   UNK     0       4.833   8.316  86.610  0.00  0.00    -0.268 OA
HETATM   24  N   UNK     0       4.637   9.773  88.404  0.00  0.00    -0.341 N 
HETATM   25  H   UNK     0       4.949  10.001  89.341  0.00  0.00     0.163 HD
BRANCH  24  26
HETATM   26  C   UNK     0       3.607  10.605  87.837  0.00  0.00     0.207 C 
BRANCH  26  27
HETATM   27  C   UNK     0       2.206  10.249  88.350  0.00  0.00     0.146 C 
HETATM   28  C   UNK     0       1.536   9.164  87.514  0.00  0.00     0.042 C 
BRANCH  27  29
HETATM   29  O   UNK     0       2.293   9.805  89.703  0.00  0.00    -0.393 OA
HETATM   30  H   UNK     0       2.796   8.973  89.720  0.00  0.00     0.210 HD
ENDBRANCH  27  29
ENDBRANCH  26  27
BRANCH  26  31
HETATM   31  C   UNK     0       3.958  12.057  88.145  0.00  0.00     0.266 C 
HETATM   32  O   UNK     0       4.955  12.616  87.691  0.00  0.00    -0.269 OA
HETATM   33  N   UNK     0       3.060  12.636  89.008  0.00  0.00    -0.236 N 
HETATM   34  H   UNK     0       2.281  12.180  89.470  0.00  0.00     0.197 HD
BRANCH  33  35
HETATM   35  O   UNK     0       3.333  13.962  89.373  0.00  0.00    -0.287 OA
HETATM   36  H   UNK     0       2.576  14.415  88.963  0.00  0.00     0.244 HD
ENDBRANCH  33  35
ENDBRANCH  26  31
ENDBRANCH  24  26
ENDBRANCH  19  22
ENDBRANCH  15  16
ENDBRANCH  11  14
ENDBRANCH   7   8
ENDBRANCH   2   7
TORSDOF 10
ENDMDL
MODEL 5
REMARK VINA RESULT:      -5.6      1.620      2.174
REMARK  10 active torsions:
REMARK  status: ('A' for Active; 'I' for Inactive)
REMARK    1  A    between atoms: O_2  and  C_18 
REMARK    2  A    between atoms: O_5  and  N_8 
REMARK    3  A    between atoms: N_6  and  C_11 
REMARK    4  A    between atoms: N_7  and  C_15 
REMARK       I    between atoms: N_7  and  C_24 
REMARK       I    between atoms: N_8  and  C_23 
REMARK    5  A    between atoms: C_11  and  C_14 
REMARK    6  A    between atoms: C_15  and  C_18 
REMARK    7  A    between atoms: C_15  and  C_23 
REMARK    8  A    between atoms: C_21  and  C_26 
REMARK    9  A    between atoms: C_24  and  C_25 
REMARK   10  A    between atoms: C_29  and  C_32 
ROOT
HETATM    1  O   UNK     0      16.181   3.954  94.077  0.00  0.00    -0.388 OA
HETATM    2  N   UNK     0      14.256   2.597  92.478  0.00  0.00     0.096 N 
HETATM    3  C   UNK     0      14.376   4.062  92.458  0.00  0.00     0.299 C 
HETATM    4  C   UNK     0      14.672   2.076  93.786  0.00  0.00     0.299 C 
HETATM    5  C   UNK     0      15.808   4.468  92.797  0.00  0.00     0.198 C 
HETATM    6  C   UNK     0      16.097   2.528  94.095  0.00  0.00     0.198 C 
ENDROOT
BRANCH   2   7
HETATM    7  C   UNK     0      12.889   2.186  92.166  0.00  0.00     0.311 C 
BRANCH   7   8
HETATM    8  C   UNK     0      11.932   3.329  92.191  0.00  0.00    -0.030 A 
HETATM    9  C   UNK     0      11.611   3.942  93.402  0.00  0.00     0.010 A 
HETATM   10  C   UNK     0      10.714   5.010  93.427  0.00  0.00     0.021 A 
HETATM   11  C   UNK     0      10.141   5.465  92.241  0.00  0.00     0.018 A 
HETATM   12  C   UNK     0      10.461   4.854  91.030  0.00  0.00     0.021 A 
HETATM   13  C   UNK     0      11.357   3.786  91.005  0.00  0.00     0.010 A 
BRANCH  11  14
HETATM   14  C   UNK     0       9.222   6.562  92.266  0.00  0.00    -0.061 C 
HETATM   15  C   UNK     0       8.450   7.484  92.288  0.00  0.00    -0.061 C 
BRANCH  15  16
HETATM   16  C   UNK     0       7.533   8.579  92.312  0.00  0.00     0.018 A 
HETATM   17  C   UNK     0       7.324   9.286  93.497  0.00  0.00     0.022 A 
HETATM   18  C   UNK     0       6.430  10.357  93.520  0.00  0.00     0.018 A 
HETATM   19  C   UNK     0       5.766  10.697  92.360  0.00  0.00     0.032 A 
HETATM   20  C   UNK     0       5.955  10.014  91.177  0.00  0.00     0.018 A 
HETATM   21  C   UNK     0       6.848   8.943  91.153  0.00  0.00     0.022 A 
BRANCH  19  22
HETATM   22  C   UNK     0       4.812  11.836  92.387  0.00  0.00     0.252 C 
HETATM   23  O   UNK     0       4.860  12.637  93.317  0.00  0.00    -0.268 OA
HETATM   24  N   UNK     0       3.935  11.919  91.314  0.00  0.00    -0.341 N 
HETATM   25  H   UNK     0       3.970  11.234  90.568  0.00  0.00     0.163 HD
BRANCH  24  26
HETATM   26  C   UNK     0       2.968  12.979  91.184  0.00  0.00     0.207 C 
BRANCH  26  27
HETATM   27  C   UNK     0       1.880  12.926  92.264  0.00  0.00     0.146 C 
HETATM   28  C   UNK     0       1.412  11.504  92.552  0.00  0.00     0.042 C 
BRANCH  27  29
HETATM   29  O   UNK     0       2.377  13.504  93.471  0.00  0.00    -0.393 OA
HETATM   30  H   UNK     0       3.242  13.105  93.666  0.00  0.00     0.210 HD
ENDBRANCH  27  29
ENDBRANCH  26  27
BRANCH  26  31
HETATM   31  C   UNK     0       3.722  14.305  91.221  0.00  0.00     0.266 C 
HETATM   32  O   UNK     0       3.506  15.174  92.063  0.00  0.00    -0.269 OA
HETATM   33  N   UNK     0       4.625  14.417  90.192  0.00  0.00    -0.236 N 
HETATM   34  H   UNK     0       4.764  13.761  89.432  0.00  0.00     0.197 HD
BRANCH  33  35
HETATM   35  O   UNK     0       5.334  15.625  90.132  0.00  0.00    -0.287 OA
HETATM   36  H   UNK     0       4.887  16.125  90.835  0.00  0.00     0.244 HD
ENDBRANCH  33  35
ENDBRANCH  26  31
ENDBRANCH  24  26
ENDBRANCH  19  22
ENDBRANCH  15  16
ENDBRANCH  11  14
ENDBRANCH   7   8
ENDBRANCH   2   7
TORSDOF 10
ENDMDL
MODEL 6
REMARK VINA RESULT:      -5.5      2.402     12.761
REMARK  10 active torsions:
REMARK  status: ('A' for Active; 'I' for Inactive)
REMARK    1  A    between atoms: O_2  and  C_18 
REMARK    2  A    between atoms: O_5  and  N_8 
REMARK    3  A    between atoms: N_6  and  C_11 
REMARK    4  A    between atoms: N_7  and  C_15 
REMARK       I    between atoms: N_7  and  C_24 
REMARK       I    between atoms: N_8  and  C_23 
REMARK    5  A    between atoms: C_11  and  C_14 
REMARK    6  A    between atoms: C_15  and  C_18 
REMARK    7  A    between atoms: C_15  and  C_23 
REMARK    8  A    between atoms: C_21  and  C_26 
REMARK    9  A    between atoms: C_24  and  C_25 
REMARK   10  A    between atoms: C_29  and  C_32 
ROOT
HETATM    1  O   UNK     0       2.348  15.575  92.953  0.00  0.00    -0.388 OA
HETATM    2  N   UNK     0       3.302  13.263  91.596  0.00  0.00     0.096 N 
HETATM    3  C   UNK     0       4.194  14.383  91.923  0.00  0.00     0.299 C 
HETATM    4  C   UNK     0       1.929  13.750  91.411  0.00  0.00     0.299 C 
HETATM    5  C   UNK     0       3.681  15.107  93.166  0.00  0.00     0.198 C 
HETATM    6  C   UNK     0       1.469  14.488  92.665  0.00  0.00     0.198 C 
ENDROOT
BRANCH   2   7
HETATM    7  C   UNK     0       3.769  12.561  90.401  0.00  0.00     0.311 C 
BRANCH   7   8
HETATM    8  C   UNK     0       4.751  11.486  90.721  0.00  0.00    -0.030 A 
HETATM    9  C   UNK     0       4.429  10.507  91.663  0.00  0.00     0.010 A 
HETATM   10  C   UNK     0       5.348   9.502  91.964  0.00  0.00     0.021 A 
HETATM   11  C   UNK     0       6.586   9.474  91.323  0.00  0.00     0.018 A 
HETATM   12  C   UNK     0       6.907  10.451  90.383  0.00  0.00     0.021 A 
HETATM   13  C   UNK     0       5.990  11.457  90.081  0.00  0.00     0.010 A 
BRANCH  11  14
HETATM   14  C   UNK     0       7.527   8.442  91.631  0.00  0.00    -0.061 C 
HETATM   15  C   UNK     0       8.317   7.574  91.890  0.00  0.00    -0.061 C 
BRANCH  15  16
HETATM   16  C   UNK     0       9.257   6.543  92.200  0.00  0.00     0.018 A 
HETATM   17  C   UNK     0       9.670   6.349  93.519  0.00  0.00     0.022 A 
HETATM   18  C   UNK     0      10.586   5.341  93.821  0.00  0.00     0.018 A 
HETATM   19  C   UNK     0      11.068   4.550  92.799  0.00  0.00     0.032 A 
HETATM   20  C   UNK     0      10.677   4.721  91.488  0.00  0.00     0.018 A 
HETATM   21  C   UNK     0       9.761   5.729  91.185  0.00  0.00     0.022 A 
BRANCH  19  22
HETATM   22  C   UNK     0      12.045   3.478  93.122  0.00  0.00     0.252 C 
HETATM   23  O   UNK     0      11.722   2.304  92.961  0.00  0.00    -0.268 OA
HETATM   24  N   UNK     0      13.289   3.903  93.569  0.00  0.00    -0.341 N 
HETATM   25  H   UNK     0      13.493   4.892  93.653  0.00  0.00     0.163 HD
BRANCH  24  26
HETATM   26  C   UNK     0      14.350   2.986  93.898  0.00  0.00     0.207 C 
BRANCH  26  27
HETATM   27  C   UNK     0      14.393   1.769  92.966  0.00  0.00     0.146 C 
HETATM   28  C   UNK     0      15.144   2.052  91.670  0.00  0.00     0.042 C 
BRANCH  27  29
HETATM   29  O   UNK     0      15.021   0.676  93.636  0.00  0.00    -0.393 OA
HETATM   30  H   UNK     0      15.925   0.586  93.290  0.00  0.00     0.210 HD
ENDBRANCH  27  29
ENDBRANCH  26  27
BRANCH  26  31
HETATM   31  C   UNK     0      15.663   3.760  93.861  0.00  0.00     0.266 C 
HETATM   32  O   UNK     0      15.724   4.964  93.620  0.00  0.00    -0.269 OA
HETATM   33  N   UNK     0      16.749   2.950  94.088  0.00  0.00    -0.236 N 
HETATM   34  H   UNK     0      16.742   1.943  94.200  0.00  0.00     0.197 HD
BRANCH  33  35
HETATM   35  O   UNK     0      18.001   3.579  94.032  0.00  0.00    -0.287 OA
HETATM   36  H   UNK     0      18.588   2.808  94.117  0.00  0.00     0.244 HD
ENDBRANCH  33  35
ENDBRANCH  26  31
ENDBRANCH  24  26
ENDBRANCH  19  22
ENDBRANCH  15  16
ENDBRANCH  11  14
ENDBRANCH   7   8
ENDBRANCH   2   7
TORSDOF 10
ENDMDL
MODEL 7
REMARK VINA RESULT:      -4.9      1.975     12.353
REMARK  10 active torsions:
REMARK  status: ('A' for Active; 'I' for Inactive)
REMARK    1  A    between atoms: O_2  and  C_18 
REMARK    2  A    between atoms: O_5  and  N_8 
REMARK    3  A    between atoms: N_6  and  C_11 
REMARK    4  A    between atoms: N_7  and  C_15 
REMARK       I    between atoms: N_7  and  C_24 
REMARK       I    between atoms: N_8  and  C_23 
REMARK    5  A    between atoms: C_11  and  C_14 
REMARK    6  A    between atoms: C_15  and  C_18 
REMARK    7  A    between atoms: C_15  and  C_23 
REMARK    8  A    between atoms: C_21  and  C_26 
REMARK    9  A    between atoms: C_24  and  C_25 
REMARK   10  A    between atoms: C_29  and  C_32 
ROOT
HETATM    1  O   UNK     0       5.662  14.718  88.770  0.00  0.00    -0.388 OA
HETATM    2  N   UNK     0       3.748  13.487  90.479  0.00  0.00     0.096 N 
HETATM    3  C   UNK     0       4.684  14.502  90.981  0.00  0.00     0.299 C 
HETATM    4  C   UNK     0       4.347  12.763  89.350  0.00  0.00     0.299 C 
HETATM    5  C   UNK     0       5.075  15.449  89.849  0.00  0.00     0.198 C 
HETATM    6  C   UNK     0       4.747  13.750  88.257  0.00  0.00     0.198 C 
ENDROOT
BRANCH   2   7
HETATM    7  C   UNK     0       3.368  12.562  91.546  0.00  0.00     0.311 C 
BRANCH   7   8
HETATM    8  C   UNK     0       4.368  11.473  91.736  0.00  0.00    -0.030 A 
HETATM    9  C   UNK     0       5.164  11.450  92.882  0.00  0.00     0.010 A 
HETATM   10  C   UNK     0       6.102  10.433  93.060  0.00  0.00     0.021 A 
HETATM   11  C   UNK     0       6.241   9.438  92.093  0.00  0.00     0.018 A 
HETATM   12  C   UNK     0       5.447   9.459  90.949  0.00  0.00     0.021 A 
HETATM   13  C   UNK     0       4.510  10.476  90.770  0.00  0.00     0.010 A 
BRANCH  11  14
HETATM   14  C   UNK     0       7.202   8.394  92.277  0.00  0.00    -0.061 C 
HETATM   15  C   UNK     0       8.008   7.515  92.432  0.00  0.00    -0.061 C 
BRANCH  15  16
HETATM   16  C   UNK     0       8.967   6.472  92.617  0.00  0.00     0.018 A 
HETATM   17  C   UNK     0       9.012   5.401  91.723  0.00  0.00     0.022 A 
HETATM   18  C   UNK     0       9.949   4.384  91.902  0.00  0.00     0.018 A 
HETATM   19  C   UNK     0      10.820   4.459  92.969  0.00  0.00     0.032 A 
HETATM   20  C   UNK     0      10.795   5.506  93.867  0.00  0.00     0.018 A 
HETATM   21  C   UNK     0       9.858   6.523  93.689  0.00  0.00     0.022 A 
BRANCH  19  22
HETATM   22  C   UNK     0      11.816   3.374  93.161  0.00  0.00     0.252 C 
HETATM   23  O   UNK     0      11.491   2.212  92.925  0.00  0.00    -0.268 OA
HETATM   24  N   UNK     0      13.078   3.773  93.579  0.00  0.00    -0.341 N 
HETATM   25  H   UNK     0      13.281   4.755  93.730  0.00  0.00     0.163 HD
BRANCH  24  26
HETATM   26  C   UNK     0      14.158   2.842  93.785  0.00  0.00     0.207 C 
BRANCH  26  27
HETATM   27  C   UNK     0      14.276   1.811  92.656  0.00  0.00     0.146 C 
HETATM   28  C   UNK     0      15.221   2.263  91.549  0.00  0.00     0.042 C 
BRANCH  27  29
HETATM   29  O   UNK     0      14.745   0.572  93.188  0.00  0.00    -0.393 OA
HETATM   30  H   UNK     0      14.322  -0.151  92.695  0.00  0.00     0.210 HD
ENDBRANCH  27  29
ENDBRANCH  26  27
BRANCH  26  31
HETATM   31  C   UNK     0      15.444   3.647  93.938  0.00  0.00     0.266 C 
HETATM   32  O   UNK     0      16.550   3.124  94.070  0.00  0.00    -0.269 OA
HETATM   33  N   UNK     0      15.211   5.001  93.948  0.00  0.00    -0.236 N 
HETATM   34  H   UNK     0      14.309   5.462  93.932  0.00  0.00     0.197 HD
BRANCH  33  35
HETATM   35  O   UNK     0      16.341   5.813  94.123  0.00  0.00    -0.287 OA
HETATM   36  H   UNK     0      16.007   6.655  93.770  0.00  0.00     0.244 HD
ENDBRANCH  33  35
ENDBRANCH  26  31
ENDBRANCH  24  26
ENDBRANCH  19  22
ENDBRANCH  15  16
ENDBRANCH  11  14
ENDBRANCH   7   8
ENDBRANCH   2   7
TORSDOF 10
ENDMDL
MODEL 8
REMARK VINA RESULT:      -4.5      2.823     12.350
REMARK  10 active torsions:
REMARK  status: ('A' for Active; 'I' for Inactive)
REMARK    1  A    between atoms: O_2  and  C_18 
REMARK    2  A    between atoms: O_5  and  N_8 
REMARK    3  A    between atoms: N_6  and  C_11 
REMARK    4  A    between atoms: N_7  and  C_15 
REMARK       I    between atoms: N_7  and  C_24 
REMARK       I    between atoms: N_8  and  C_23 
REMARK    5  A    between atoms: C_11  and  C_14 
REMARK    6  A    between atoms: C_15  and  C_18 
REMARK    7  A    between atoms: C_15  and  C_23 
REMARK    8  A    between atoms: C_21  and  C_26 
REMARK    9  A    between atoms: C_24  and  C_25 
REMARK   10  A    between atoms: C_29  and  C_32 
ROOT
HETATM    1  O   UNK     0       2.048  13.881  94.124  0.00  0.00    -0.388 OA
HETATM    2  N   UNK     0       1.964  14.031  91.282  0.00  0.00     0.096 N 
HETATM    3  C   UNK     0       1.801  12.753  91.989  0.00  0.00     0.299 C 
HETATM    4  C   UNK     0       2.800  14.942  92.075  0.00  0.00     0.299 C 
HETATM    5  C   UNK     0       1.209  13.000  93.374  0.00  0.00     0.198 C 
HETATM    6  C   UNK     0       2.185  15.137  93.458  0.00  0.00     0.198 C 
ENDROOT
BRANCH   2   7
HETATM    7  C   UNK     0       2.540  13.820  89.956  0.00  0.00     0.311 C 
BRANCH   7   8
HETATM    8  C   UNK     0       3.546  12.720  89.942  0.00  0.00    -0.030 A 
HETATM    9  C   UNK     0       3.328  11.586  89.159  0.00  0.00     0.010 A 
HETATM   10  C   UNK     0       4.268  10.555  89.148  0.00  0.00     0.021 A 
HETATM   11  C   UNK     0       5.426  10.661  89.917  0.00  0.00     0.018 A 
HETATM   12  C   UNK     0       5.645  11.793  90.699  0.00  0.00     0.021 A 
HETATM   13  C   UNK     0       4.705  12.823  90.712  0.00  0.00     0.010 A 
BRANCH  11  14
HETATM   14  C   UNK     0       6.391   9.604  89.903  0.00  0.00    -0.061 C 
HETATM   15  C   UNK     0       7.202   8.717  89.892  0.00  0.00    -0.061 C 
BRANCH  15  16
HETATM   16  C   UNK     0       8.166   7.663  89.877  0.00  0.00     0.018 A 
HETATM   17  C   UNK     0       8.129   6.670  90.858  0.00  0.00     0.022 A 
HETATM   18  C   UNK     0       9.069   5.640  90.842  0.00  0.00     0.018 A 
HETATM   19  C   UNK     0      10.023   5.623  89.847  0.00  0.00     0.032 A 
HETATM   20  C   UNK     0      10.082   6.591  88.867  0.00  0.00     0.018 A 
HETATM   21  C   UNK     0       9.143   7.623  88.883  0.00  0.00     0.022 A 
BRANCH  19  22
HETATM   22  C   UNK     0      11.025   4.526  89.832  0.00  0.00     0.252 C 
HETATM   23  O   UNK     0      11.015   3.717  88.908  0.00  0.00    -0.268 OA
HETATM   24  N   UNK     0      11.933   4.517  90.882  0.00  0.00    -0.341 N 
HETATM   25  H   UNK     0      11.896   5.233  91.598  0.00  0.00     0.163 HD
BRANCH  24  26
HETATM   26  C   UNK     0      12.979   3.532  90.995  0.00  0.00     0.207 C 
BRANCH  26  27
HETATM   27  C   UNK     0      14.287   4.116  91.545  0.00  0.00     0.146 C 
HETATM   28  C   UNK     0      14.230   4.360  93.049  0.00  0.00     0.042 C 
BRANCH  27  29
HETATM   29  O   UNK     0      15.364   3.223  91.261  0.00  0.00    -0.393 OA
HETATM   30  H   UNK     0      16.162   3.559  91.704  0.00  0.00     0.210 HD
ENDBRANCH  27  29
ENDBRANCH  26  27
BRANCH  26  31
HETATM   31  C   UNK     0      12.461   2.402  91.878  0.00  0.00     0.266 C 
HETATM   32  O   UNK     0      13.188   1.520  92.332  0.00  0.00    -0.269 OA
HETATM   33  N   UNK     0      11.102   2.470  92.065  0.00  0.00    -0.236 N 
HETATM   34  H   UNK     0      10.463   3.128  91.634  0.00  0.00     0.197 HD
BRANCH  33  35
HETATM   35  O   UNK     0      10.540   1.443  92.836  0.00  0.00    -0.287 OA
HETATM   36  H   UNK     0      11.187   1.395  93.560  0.00  0.00     0.244 HD
ENDBRANCH  33  35
ENDBRANCH  26  31
ENDBRANCH  24  26
ENDBRANCH  19  22
ENDBRANCH  15  16
ENDBRANCH  11  14
ENDBRANCH   7   8
ENDBRANCH   2   7
TORSDOF 10
ENDMDL
MODEL 9
REMARK VINA RESULT:      -3.8      2.328     12.501
REMARK  10 active torsions:
REMARK  status: ('A' for Active; 'I' for Inactive)
REMARK    1  A    between atoms: O_2  and  C_18 
REMARK    2  A    between atoms: O_5  and  N_8 
REMARK    3  A    between atoms: N_6  and  C_11 
REMARK    4  A    between atoms: N_7  and  C_15 
REMARK       I    between atoms: N_7  and  C_24 
REMARK       I    between atoms: N_8  and  C_23 
REMARK    5  A    between atoms: C_11  and  C_14 
REMARK    6  A    between atoms: C_15  and  C_18 
REMARK    7  A    between atoms: C_15  and  C_23 
REMARK    8  A    between atoms: C_21  and  C_26 
REMARK    9  A    between atoms: C_24  and  C_25 
REMARK   10  A    between atoms: C_29  and  C_32 
ROOT
HETATM    1  O   UNK     0       2.257  15.284  92.444  0.00  0.00    -0.388 OA
HETATM    2  N   UNK     0       2.581  12.483  92.054  0.00  0.00     0.096 N 
HETATM    3  C   UNK     0       3.290  13.462  91.218  0.00  0.00     0.299 C 
HETATM    4  C   UNK     0       1.312  13.051  92.526  0.00  0.00     0.299 C 
HETATM    5  C   UNK     0       3.509  14.751  92.005  0.00  0.00     0.198 C 
HETATM    6  C   UNK     0       1.575  14.350  93.282  0.00  0.00     0.198 C 
ENDROOT
BRANCH   2   7
HETATM    7  C   UNK     0       2.351  11.242  91.316  0.00  0.00     0.311 C 
BRANCH   7   8
HETATM    8  C   UNK     0       3.487  10.285  91.447  0.00  0.00    -0.030 A 
HETATM    9  C   UNK     0       4.071  10.064  92.695  0.00  0.00     0.010 A 
HETATM   10  C   UNK     0       5.135   9.171  92.819  0.00  0.00     0.021 A 
HETATM   11  C   UNK     0       5.612   8.497  91.695  0.00  0.00     0.018 A 
HETATM   12  C   UNK     0       5.029   8.716  90.448  0.00  0.00     0.021 A 
HETATM   13  C   UNK     0       3.966   9.610  90.324  0.00  0.00     0.010 A 
BRANCH  11  14
HETATM   14  C   UNK     0       6.702   7.578  91.822  0.00  0.00    -0.061 C 
HETATM   15  C   UNK     0       7.617   6.806  91.930  0.00  0.00    -0.061 C 
BRANCH  15  16
HETATM   16  C   UNK     0       8.706   5.890  92.058  0.00  0.00     0.018 A 
HETATM   17  C   UNK     0       9.592   6.006  93.130  0.00  0.00     0.022 A 
HETATM   18  C   UNK     0      10.654   5.111  93.257  0.00  0.00     0.018 A 
HETATM   19  C   UNK     0      10.806   4.119  92.311  0.00  0.00     0.032 A 
HETATM   20  C   UNK     0       9.945   3.983  91.242  0.00  0.00     0.018 A 
HETATM   21  C   UNK     0       8.884   4.879  91.114  0.00  0.00     0.022 A 
BRANCH  19  22
HETATM   22  C   UNK     0      11.939   3.166  92.445  0.00  0.00     0.252 C 
HETATM   23  O   UNK     0      11.721   1.960  92.362  0.00  0.00    -0.268 OA
HETATM   24  N   UNK     0      13.191   3.734  92.637  0.00  0.00    -0.341 N 
HETATM   25  H   UNK     0      13.298   4.741  92.671  0.00  0.00     0.163 HD
BRANCH  24  26
HETATM   26  C   UNK     0      14.389   2.944  92.760  0.00  0.00     0.207 C 
BRANCH  26  27
HETATM   27  C   UNK     0      14.884   2.401  91.414  0.00  0.00     0.146 C 
HETATM   28  C   UNK     0      14.653   3.381  90.269  0.00  0.00     0.042 C 
BRANCH  27  29
HETATM   29  O   UNK     0      16.279   2.111  91.500  0.00  0.00    -0.393 OA
HETATM   30  H   UNK     0      16.469   1.794  92.399  0.00  0.00     0.210 HD
ENDBRANCH  27  29
ENDBRANCH  26  27
BRANCH  26  31
HETATM   31  C   UNK     0      15.450   3.809  93.433  0.00  0.00     0.266 C 
HETATM   32  O   UNK     0      16.355   3.343  94.124  0.00  0.00    -0.269 OA
HETATM   33  N   UNK     0      15.247   5.149  93.207  0.00  0.00    -0.236 N 
HETATM   34  H   UNK     0      14.465   5.570  92.720  0.00  0.00     0.197 HD
BRANCH  33  35
HETATM   35  O   UNK     0      16.159   6.016  93.824  0.00  0.00    -0.287 OA
HETATM   36  H   UNK     0      16.997   5.576  93.600  0.00  0.00     0.244 HD
ENDBRANCH  33  35
ENDBRANCH  26  31
ENDBRANCH  24  26
ENDBRANCH  19  22
ENDBRANCH  15  16
ENDBRANCH  11  14
ENDBRANCH   7   8
ENDBRANCH   2   7
TORSDOF 10
ENDMDL
