MODEL 1
REMARK VINA RESULT:      -7.4      0.000      0.000
REMARK  9 active torsions:
REMARK  status: ('A' for Active; 'I' for Inactive)
REMARK    1  A    between atoms: O_2  and  C_17 
REMARK    2  A    between atoms: N_5  and  C_10 
REMARK    3  A    between atoms: N_6  and  C_14 
REMARK       I    between atoms: N_6  and  C_23 
REMARK       I    between atoms: N_7  and  C_22 
REMARK    4  A    between atoms: C_10  and  C_13 
REMARK    5  A    between atoms: C_14  and  C_17 
REMARK    6  A    between atoms: C_14  and  C_22 
REMARK    7  A    between atoms: C_20  and  C_25 
REMARK    8  A    between atoms: C_23  and  C_24 
REMARK    9  A    between atoms: C_28  and  C_31 
ROOT
HETATM    1  O   UNL     1      15.741   3.639  94.124  1.00  0.00    -0.388 OA
HETATM    2  N   UNL     1      13.896   2.479  92.293  1.00  0.00     0.096 N 
HETATM    3  C   UNL     1      14.034   3.936  92.424  1.00  0.00     0.299 C 
HETATM    4  C   UNL     1      14.230   1.825  93.566  1.00  0.00     0.299 C 
HETATM    5  C   UNL     1      15.449   4.282  92.882  1.00  0.00     0.198 C 
HETATM    6  C   UNL     1      15.639   2.220  93.997  1.00  0.00     0.198 C 
ENDROOT
BRANCH   2   7
HETATM    7  C   UNL     1      12.544   2.123  91.866  1.00  0.00     0.311 C 
BRANCH   7   8
HETATM    8  C   UNL     1      11.709   3.322  91.568  1.00  0.00    -0.030 A 
HETATM    9  C   UNL     1      10.893   3.867  92.560  1.00  0.00     0.010 A 
HETATM   10  C   UNL     1      10.110   4.987  92.282  1.00  0.00     0.021 A 
HETATM   11  C   UNL     1      10.145   5.563  91.012  1.00  0.00     0.018 A 
HETATM   12  C   UNL     1      10.959   5.020  90.021  1.00  0.00     0.021 A 
HETATM   13  C   UNL     1      11.742   3.899  90.298  1.00  0.00     0.010 A 
BRANCH  11  14
HETATM   14  C   UNL     1       9.343   6.713  90.727  1.00  0.00    -0.061 C 
HETATM   15  C   UNL     1       8.670   7.680  90.487  1.00  0.00    -0.061 C 
BRANCH  15  16
HETATM   16  C   UNL     1       7.868   8.829  90.202  1.00  0.00     0.018 A 
HETATM   17  C   UNL     1       6.568   8.912  90.701  1.00  0.00     0.022 A 
HETATM   18  C   UNL     1       5.787  10.034  90.425  1.00  0.00     0.018 A 
HETATM   19  C   UNL     1       6.323  11.047  89.658  1.00  0.00     0.032 A 
HETATM   20  C   UNL     1       7.605  10.988  89.153  1.00  0.00     0.018 A 
HETATM   21  C   UNL     1       8.387   9.867  89.428  1.00  0.00     0.022 A 
BRANCH  19  22
HETATM   22  C   UNL     1       5.490  12.242  89.362  1.00  0.00     0.252 C 
HETATM   23  O   UNL     1       5.580  12.778  88.261  1.00  0.00    -0.268 OA
HETATM   24  N   UNL     1       4.635  12.652  90.376  1.00  0.00    -0.342 N 
HETATM   25  H   UNL     1       4.596  12.144  91.251  1.00  0.00     0.163 HD
BRANCH  24  26
HETATM   26  C   UNL     1       3.747  13.778  90.232  1.00  0.00     0.199 C 
BRANCH  26  27
HETATM   27  C   UNL     1       2.506  13.673  91.128  1.00  0.00     0.145 C 
HETATM   28  C   UNL     1       2.558  12.467  92.059  1.00  0.00     0.042 C 
BRANCH  27  29
HETATM   29  O   UNL     1       2.382  14.859  91.912  1.00  0.00    -0.393 OA
HETATM   30  H   UNL     1       1.626  15.369  91.575  1.00  0.00     0.210 HD
ENDBRANCH  27  29
ENDBRANCH  26  27
BRANCH  26  31
HETATM   31  C   UNL     1       4.545  15.042  90.536  1.00  0.00     0.220 C 
HETATM   32  O   UNL     1       4.672  15.496  91.672  1.00  0.00    -0.278 OA
HETATM   33  N   UNL     1       5.059  15.617  89.400  1.00  0.00    -0.271 NA
HETATM   34  H   UNL     1       4.899  15.321  88.444  1.00  0.00     0.127 HD
HETATM   35  H   UNL     1       4.657  16.803  88.765  1.00  0.00     0.127 HD
ENDBRANCH  26  31
ENDBRANCH  24  26
ENDBRANCH  19  22
ENDBRANCH  15  16
ENDBRANCH  11  14
ENDBRANCH   7   8
ENDBRANCH   2   7
TORSDOF 9
ENDMDL
