MODEL 1
REMARK VINA RESULT:      -6.1      0.000      0.000
REMARK  12 active torsions:
REMARK  status: ('A' for Active; 'I' for Inactive)
REMARK    1  A    between atoms: O_2  and  C_16 
REMARK    2  A    between atoms: N_5  and  C_9 
REMARK    3  A    between atoms: N_6  and  C_13 
REMARK       I    between atoms: N_6  and  C_22 
REMARK    4  A    between atoms: C_9  and  C_12 
REMARK    5  A    between atoms: C_13  and  C_16 
REMARK    6  A    between atoms: C_13  and  C_21 
REMARK    7  A    between atoms: C_19  and  C_24 
REMARK    8  A    between atoms: C_21  and  C_33 
REMARK    9  A    between atoms: C_22  and  C_23 
REMARK   10  A    between atoms: C_27  and  C_30 
REMARK   11  A    between atoms: C_33  and  C_34 
REMARK   12  A    between atoms: C_34  and  C_35 
ROOT
HETATM    1  O   UNL     1      16.867   3.671  93.694  1.00  0.00    -0.350 OA
HETATM    2  N   UNL     1      14.250   3.195  92.682  1.00  0.00     0.147 N 
HETATM    3  C   UNL     1      15.152   2.088  93.029  1.00  0.00     0.283 C 
HETATM    4  C   UNL     1      15.030   4.371  92.273  1.00  0.00     0.283 C 
HETATM    5  C   UNL     1      16.119   2.533  94.124  1.00  0.00     0.178 C 
HETATM    6  C   UNL     1      15.999   4.761  93.384  1.00  0.00     0.178 C 
ENDROOT
BRANCH   2   7
HETATM    7  C   UNL     1      13.322   2.794  91.626  1.00  0.00     0.277 C 
BRANCH   7   8
HETATM    8  C   UNL     1      12.145   3.705  91.528  1.00  0.00     0.011 A 
HETATM    9  C   UNL     1      11.575   4.233  92.687  1.00  0.00    -0.002 A 
HETATM   10  C   UNL     1      10.473   5.083  92.597  1.00  0.00     0.008 A 
HETATM   11  C   UNL     1       9.944   5.407  91.348  1.00  0.00     0.042 A 
HETATM   12  C   UNL     1      10.513   4.880  90.190  1.00  0.00     0.008 A 
HETATM   13  C   UNL     1      11.614   4.029  90.280  1.00  0.00    -0.002 A 
BRANCH  11  14
HETATM   14  C   UNL     1       8.815   6.281  91.255  1.00  0.00    -0.059 C 
HETATM   15  C   UNL     1       7.867   7.016  91.177  1.00  0.00    -0.059 C 
BRANCH  15  16
HETATM   16  C   UNL     1       6.739   7.890  91.084  1.00  0.00     0.042 A 
HETATM   17  C   UNL     1       6.121   8.356  92.244  1.00  0.00     0.008 A 
HETATM   18  C   UNL     1       5.023   9.210  92.153  1.00  0.00     0.005 A 
HETATM   19  C   UNL     1       4.567   9.580  90.904  1.00  0.00     0.056 A 
HETATM   20  C   UNL     1       5.160   9.132  89.743  1.00  0.00     0.005 A 
HETATM   21  C   UNL     1       6.259   8.278  89.833  1.00  0.00     0.008 A 
BRANCH  19  22
HETATM   22  C   UNL     1       3.396  10.488  90.808  1.00  0.00     0.254 C 
HETATM   23  O   UNL     1       2.452  10.176  90.085  1.00  0.00    -0.268 OA
HETATM   24  N   UNL     1       3.453  11.639  91.582  1.00  0.00    -0.335 N 
HETATM   25  HN  UNL     1       4.255  11.818  92.175  1.00  0.00     0.164 HD
BRANCH  24  26
HETATM   26  C   UNL     1       2.385  12.605  91.615  1.00  0.00     0.166 C 
BRANCH  26  27
HETATM   27  C   UNL     1       1.843  12.843  93.030  1.00  0.00     0.138 C 
HETATM   28  C   UNL     1       1.362  11.558  93.695  1.00  0.00     0.034 C 
BRANCH  27  29
HETATM   29  O   UNL     1       2.862  13.430  93.839  1.00  0.00    -0.383 OA
HETATM   30  H   UNL     1       2.456  13.733  94.669  1.00  0.00     0.210 HD
ENDBRANCH  27  29
ENDBRANCH  26  27
BRANCH  26  31
HETATM   31  C   UNL     1       2.907  13.898  90.997  1.00  0.00     0.181 C 
HETATM   32  O   UNL     1       2.631  15.011  91.439  1.00  0.00    -0.294 OA
BRANCH  31  33
HETATM   33  C   UNL     1       4.518  13.870  90.815  1.00  0.00     0.138 C 
BRANCH  33  34
HETATM   34  C   UNL     1       4.650  14.324  89.484  1.00  0.00     0.208 C 
HETATM   35  O   UNL     1       4.994  15.475  89.345  1.00  0.00    -0.289 OA
BRANCH  34  36
HETATM   36  C   UNL     1       4.737  13.623  88.312  1.00  0.00     0.194 C 
HETATM   37  O   UNL     1       4.751  12.243  88.083  1.00  0.00    -0.185 OA
ENDBRANCH  34  36
ENDBRANCH  33  34
ENDBRANCH  31  33
ENDBRANCH  26  31
ENDBRANCH  24  26
ENDBRANCH  19  22
ENDBRANCH  15  16
ENDBRANCH  11  14
ENDBRANCH   7   8
ENDBRANCH   2   7
TORSDOF 12
ENDMDL
