MODEL 1
REMARK VINA RESULT:      -6.6      0.000      0.000
REMARK  10 active torsions:
REMARK  status: ('A' for Active; 'I' for Inactive)
REMARK    1  A    between atoms: O_2  and  C_18 
REMARK    2  A    between atoms: O_5  and  N_8 
REMARK    3  A    between atoms: N_6  and  C_11 
REMARK    4  A    between atoms: N_7  and  C_15 
REMARK       I    between atoms: N_7  and  C_24 
REMARK       I    between atoms: N_8  and  C_23 
REMARK    5  A    between atoms: C_11  and  C_14 
REMARK    6  A    between atoms: C_15  and  C_18 
REMARK    7  A    between atoms: C_15  and  C_23 
REMARK    8  A    between atoms: C_21  and  C_26 
REMARK    9  A    between atoms: C_24  and  C_25 
REMARK   10  A    between atoms: C_29  and  C_32 
ROOT
HETATM    1  O   UNK     0      16.532   3.207  93.754  0.00  0.00    -0.388 OA
HETATM    2  N   UNK     0      13.900   2.817  92.745  0.00  0.00     0.096 N 
HETATM    3  C   UNK     0      14.794   1.683  93.014  0.00  0.00     0.299 C 
HETATM    4  C   UNK     0      14.687   4.008  92.399  0.00  0.00     0.299 C 
HETATM    5  C   UNK     0      15.777   2.051  94.123  0.00  0.00     0.198 C 
HETATM    6  C   UNK     0      15.672   4.322  93.521  0.00  0.00     0.198 C 
ENDROOT
BRANCH   2   7
HETATM    7  C   UNK     0      12.956   2.490  91.678  0.00  0.00     0.311 C 
BRANCH   7   8
HETATM    8  C   UNK     0      11.854   3.489  91.568  0.00  0.00    -0.030 A 
HETATM    9  C   UNK     0      11.182   3.913  92.715  0.00  0.00     0.010 A 
HETATM   10  C   UNK     0      10.150   4.845  92.613  0.00  0.00     0.021 A 
HETATM   11  C   UNK     0       9.792   5.354  91.365  0.00  0.00     0.018 A 
HETATM   12  C   UNK     0      10.463   4.932  90.219  0.00  0.00     0.021 A 
HETATM   13  C   UNK     0      11.495   3.999  90.320  0.00  0.00     0.010 A 
BRANCH  11  14
HETATM   14  C   UNK     0       8.734   6.312  91.261  0.00  0.00    -0.061 C 
HETATM   15  C   UNK     0       7.846   7.118  91.174  0.00  0.00    -0.061 C 
BRANCH  15  16
HETATM   16  C   UNK     0       6.789   8.074  91.071  0.00  0.00     0.018 A 
HETATM   17  C   UNK     0       6.382   8.530  89.817  0.00  0.00     0.022 A 
HETATM   18  C   UNK     0       5.349   9.462  89.715  0.00  0.00     0.018 A 
HETATM   19  C   UNK     0       4.745   9.916  90.869  0.00  0.00     0.032 A 
HETATM   20  C   UNK     0       5.128   9.481  92.121  0.00  0.00     0.018 A 
HETATM   21  C   UNK     0       6.162   8.550  92.222  0.00  0.00     0.022 A 
BRANCH  19  22
HETATM   22  C   UNK     0       3.646  10.910  90.761  0.00  0.00     0.252 C 
HETATM   23  O   UNK     0       2.712  10.690  89.993  0.00  0.00    -0.268 OA
HETATM   24  N   UNK     0       3.754  12.027  91.577  0.00  0.00    -0.341 N 
HETATM   25  H   UNK     0       4.542  12.129  92.206  0.00  0.00     0.163 HD
BRANCH  24  26
HETATM   26  C   UNK     0       2.757  13.067  91.605  0.00  0.00     0.207 C 
BRANCH  26  27
HETATM   27  C   UNK     0       2.614  13.716  92.987  0.00  0.00     0.146 C 
HETATM   28  C   UNK     0       3.769  13.367  93.918  0.00  0.00     0.042 C 
BRANCH  27  29
HETATM   29  O   UNK     0       2.546  15.134  92.844  0.00  0.00    -0.393 OA
HETATM   30  H   UNK     0       3.316  15.426  92.327  0.00  0.00     0.210 HD
ENDBRANCH  27  29
ENDBRANCH  26  27
BRANCH  26  31
HETATM   31  C   UNK     0       3.130  14.098  90.544  0.00  0.00     0.266 C 
HETATM   32  O   UNK     0       2.347  14.480  89.677  0.00  0.00    -0.269 OA
HETATM   33  N   UNK     0       4.437  14.506  90.654  0.00  0.00    -0.236 N 
HETATM   34  H   UNK     0       5.133  14.147  91.298  0.00  0.00     0.197 HD
BRANCH  33  35
HETATM   35  O   UNK     0       4.872  15.427  89.691  0.00  0.00    -0.287 OA
HETATM   36  H   UNK     0       5.656  15.790  90.137  0.00  0.00     0.244 HD
ENDBRANCH  33  35
ENDBRANCH  26  31
ENDBRANCH  24  26
ENDBRANCH  19  22
ENDBRANCH  15  16
ENDBRANCH  11  14
ENDBRANCH   7   8
ENDBRANCH   2   7
TORSDOF 10
ENDMDL
MODEL 2
REMARK VINA RESULT:      -5.7      2.483     12.496
REMARK  10 active torsions:
REMARK  status: ('A' for Active; 'I' for Inactive)
REMARK    1  A    between atoms: O_2  and  C_18 
REMARK    2  A    between atoms: O_5  and  N_8 
REMARK    3  A    between atoms: N_6  and  C_11 
REMARK    4  A    between atoms: N_7  and  C_15 
REMARK       I    between atoms: N_7  and  C_24 
REMARK       I    between atoms: N_8  and  C_23 
REMARK    5  A    between atoms: C_11  and  C_14 
REMARK    6  A    between atoms: C_15  and  C_18 
REMARK    7  A    between atoms: C_15  and  C_23 
REMARK    8  A    between atoms: C_21  and  C_26 
REMARK    9  A    between atoms: C_24  and  C_25 
REMARK   10  A    between atoms: C_29  and  C_32 
ROOT
HETATM    1  O   UNK     0       3.155  14.916  94.009  0.00  0.00    -0.388 OA
HETATM    2  N   UNK     0       2.802  14.776  91.188  0.00  0.00     0.096 N 
HETATM    3  C   UNK     0       1.886  14.092  92.112  0.00  0.00     0.299 C 
HETATM    4  C   UNK     0       4.137  14.883  91.791  0.00  0.00     0.299 C 
HETATM    5  C   UNK     0       1.845  14.835  93.445  0.00  0.00     0.198 C 
HETATM    6  C   UNK     0       4.044  15.607  93.131  0.00  0.00     0.198 C 
ENDROOT
BRANCH   2   7
HETATM    7  C   UNK     0       2.864  14.074  89.907  0.00  0.00     0.311 C 
BRANCH   7   8
HETATM    8  C   UNK     0       3.864  12.969  89.914  0.00  0.00    -0.030 A 
HETATM    9  C   UNK     0       5.071  13.117  89.229  0.00  0.00     0.010 A 
HETATM   10  C   UNK     0       6.006  12.082  89.232  0.00  0.00     0.021 A 
HETATM   11  C   UNK     0       5.735  10.901  89.922  0.00  0.00     0.018 A 
HETATM   12  C   UNK     0       4.531  10.752  90.606  0.00  0.00     0.021 A 
HETATM   13  C   UNK     0       3.595  11.786  90.603  0.00  0.00     0.010 A 
BRANCH  11  14
HETATM   14  C   UNK     0       6.696   9.841  89.927  0.00  0.00    -0.061 C 
HETATM   15  C   UNK     0       7.503   8.950  89.932  0.00  0.00    -0.061 C 
BRANCH  15  16
HETATM   16  C   UNK     0       8.463   7.892  89.936  0.00  0.00     0.018 A 
HETATM   17  C   UNK     0       8.624   7.101  91.075  0.00  0.00     0.022 A 
HETATM   18  C   UNK     0       9.559   6.066  91.079  0.00  0.00     0.018 A 
HETATM   19  C   UNK     0      10.312   5.844  89.945  0.00  0.00     0.032 A 
HETATM   20  C   UNK     0      10.173   6.611  88.807  0.00  0.00     0.018 A 
HETATM   21  C   UNK     0       9.239   7.647  88.803  0.00  0.00     0.022 A 
BRANCH  19  22
HETATM   22  C   UNK     0      11.310   4.743  89.950  0.00  0.00     0.252 C 
HETATM   23  O   UNK     0      11.498   4.099  88.921  0.00  0.00    -0.268 OA
HETATM   24  N   UNK     0      11.986   4.542  91.145  0.00  0.00    -0.341 N 
HETATM   25  H   UNK     0      11.796   5.130  91.948  0.00  0.00     0.163 HD
BRANCH  24  26
HETATM   26  C   UNK     0      13.000   3.529  91.301  0.00  0.00     0.207 C 
BRANCH  26  27
HETATM   27  C   UNK     0      14.187   4.004  92.149  0.00  0.00     0.146 C 
HETATM   28  C   UNK     0      13.827   4.159  93.622  0.00  0.00     0.042 C 
BRANCH  27  29
HETATM   29  O   UNK     0      15.261   3.071  92.030  0.00  0.00    -0.393 OA
HETATM   30  H   UNK     0      14.957   2.323  91.489  0.00  0.00     0.210 HD
ENDBRANCH  27  29
ENDBRANCH  26  27
BRANCH  26  31
HETATM   31  C   UNK     0      12.339   2.298  91.912  0.00  0.00     0.266 C 
HETATM   32  O   UNK     0      12.896   1.205  91.983  0.00  0.00    -0.269 OA
HETATM   33  N   UNK     0      11.055   2.552  92.330  0.00  0.00    -0.236 N 
HETATM   34  H   UNK     0      10.536   3.414  92.206  0.00  0.00     0.197 HD
BRANCH  33  35
HETATM   35  O   UNK     0      10.362   1.460  92.870  0.00  0.00    -0.287 OA
HETATM   36  H   UNK     0       9.449   1.700  92.637  0.00  0.00     0.244 HD
ENDBRANCH  33  35
ENDBRANCH  26  31
ENDBRANCH  24  26
ENDBRANCH  19  22
ENDBRANCH  15  16
ENDBRANCH  11  14
ENDBRANCH   7   8
ENDBRANCH   2   7
TORSDOF 10
ENDMDL
MODEL 3
REMARK VINA RESULT:      -5.5      1.436      2.048
REMARK  10 active torsions:
REMARK  status: ('A' for Active; 'I' for Inactive)
REMARK    1  A    between atoms: O_2  and  C_18 
REMARK    2  A    between atoms: O_5  and  N_8 
REMARK    3  A    between atoms: N_6  and  C_11 
REMARK    4  A    between atoms: N_7  and  C_15 
REMARK       I    between atoms: N_7  and  C_24 
REMARK       I    between atoms: N_8  and  C_23 
REMARK    5  A    between atoms: C_11  and  C_14 
REMARK    6  A    between atoms: C_15  and  C_18 
REMARK    7  A    between atoms: C_15  and  C_23 
REMARK    8  A    between atoms: C_21  and  C_26 
REMARK    9  A    between atoms: C_24  and  C_25 
REMARK   10  A    between atoms: C_29  and  C_32 
ROOT
HETATM    1  O   UNK     0      16.651   3.118  93.712  0.00  0.00    -0.388 OA
HETATM    2  N   UNK     0      13.871   2.932  93.133  0.00  0.00     0.096 N 
HETATM    3  C   UNK     0      14.728   1.739  93.172  0.00  0.00     0.299 C 
HETATM    4  C   UNK     0      14.660   4.107  92.740  0.00  0.00     0.299 C 
HETATM    5  C   UNK     0      15.899   1.976  94.124  0.00  0.00     0.198 C 
HETATM    6  C   UNK     0      15.832   4.288  93.700  0.00  0.00     0.198 C 
ENDROOT
BRANCH   2   7
HETATM    7  C   UNK     0      12.748   2.732  92.218  0.00  0.00     0.311 C 
BRANCH   7   8
HETATM    8  C   UNK     0      11.758   3.845  92.282  0.00  0.00    -0.030 A 
HETATM    9  C   UNK     0      11.204   4.352  91.106  0.00  0.00     0.010 A 
HETATM   10  C   UNK     0      10.280   5.395  91.164  0.00  0.00     0.021 A 
HETATM   11  C   UNK     0       9.909   5.929  92.398  0.00  0.00     0.018 A 
HETATM   12  C   UNK     0      10.462   5.423  93.573  0.00  0.00     0.021 A 
HETATM   13  C   UNK     0      11.386   4.381  93.515  0.00  0.00     0.010 A 
BRANCH  11  14
HETATM   14  C   UNK     0       8.959   6.997  92.457  0.00  0.00    -0.061 C 
HETATM   15  C   UNK     0       8.161   7.895  92.508  0.00  0.00    -0.061 C 
BRANCH  15  16
HETATM   16  C   UNK     0       7.212   8.961  92.566  0.00  0.00     0.018 A 
HETATM   17  C   UNK     0       6.819   9.477  93.802  0.00  0.00     0.022 A 
HETATM   18  C   UNK     0       5.894  10.520  93.859  0.00  0.00     0.018 A 
HETATM   19  C   UNK     0       5.383  11.024  92.681  0.00  0.00     0.032 A 
HETATM   20  C   UNK     0       5.755  10.531  91.448  0.00  0.00     0.018 A 
HETATM   21  C   UNK     0       6.679   9.488  91.390  0.00  0.00     0.022 A 
BRANCH  19  22
HETATM   22  C   UNK     0       4.396  12.133  92.743  0.00  0.00     0.252 C 
HETATM   23  O   UNK     0       4.577  13.053  93.537  0.00  0.00    -0.268 OA
HETATM   24  N   UNK     0       3.332  12.050  91.856  0.00  0.00    -0.341 N 
HETATM   25  H   UNK     0       3.261  11.272  91.211  0.00  0.00     0.163 HD
BRANCH  24  26
HETATM   26  C   UNK     0       2.307  13.059  91.778  0.00  0.00     0.207 C 
BRANCH  26  27
HETATM   27  C   UNK     0       1.395  13.076  93.012  0.00  0.00     0.146 C 
HETATM   28  C   UNK     0       1.189  11.686  93.604  0.00  0.00     0.042 C 
BRANCH  27  29
HETATM   29  O   UNK     0       1.958  13.926  94.010  0.00  0.00    -0.393 OA
HETATM   30  H   UNK     0       2.901  13.707  94.101  0.00  0.00     0.210 HD
ENDBRANCH  27  29
ENDBRANCH  26  27
BRANCH  26  31
HETATM   31  C   UNK     0       2.993  14.406  91.578  0.00  0.00     0.266 C 
HETATM   32  O   UNK     0       2.748  15.392  92.270  0.00  0.00    -0.269 OA
HETATM   33  N   UNK     0       3.874  14.389  90.524  0.00  0.00    -0.236 N 
HETATM   34  H   UNK     0       4.034  13.623  89.880  0.00  0.00     0.197 HD
BRANCH  33  35
HETATM   35  O   UNK     0       4.520  15.602  90.248  0.00  0.00    -0.287 OA
HETATM   36  H   UNK     0       5.450  15.324  90.319  0.00  0.00     0.244 HD
ENDBRANCH  33  35
ENDBRANCH  26  31
ENDBRANCH  24  26
ENDBRANCH  19  22
ENDBRANCH  15  16
ENDBRANCH  11  14
ENDBRANCH   7   8
ENDBRANCH   2   7
TORSDOF 10
ENDMDL
MODEL 4
REMARK VINA RESULT:      -5.2      1.967     12.687
REMARK  10 active torsions:
REMARK  status: ('A' for Active; 'I' for Inactive)
REMARK    1  A    between atoms: O_2  and  C_18 
REMARK    2  A    between atoms: O_5  and  N_8 
REMARK    3  A    between atoms: N_6  and  C_11 
REMARK    4  A    between atoms: N_7  and  C_15 
REMARK       I    between atoms: N_7  and  C_24 
REMARK       I    between atoms: N_8  and  C_23 
REMARK    5  A    between atoms: C_11  and  C_14 
REMARK    6  A    between atoms: C_15  and  C_18 
REMARK    7  A    between atoms: C_15  and  C_23 
REMARK    8  A    between atoms: C_21  and  C_26 
REMARK    9  A    between atoms: C_24  and  C_25 
REMARK   10  A    between atoms: C_29  and  C_32 
ROOT
HETATM    1  O   UNK     0       3.386  14.309  92.148  0.00  0.00    -0.388 OA
HETATM    2  N   UNK     0       4.021  13.864  89.410  0.00  0.00     0.096 N 
HETATM    3  C   UNK     0       3.047  13.022  90.119  0.00  0.00     0.299 C 
HETATM    4  C   UNK     0       5.017  14.386  90.354  0.00  0.00     0.299 C 
HETATM    5  C   UNK     0       2.394  13.823  91.243  0.00  0.00     0.198 C 
HETATM    6  C   UNK     0       4.319  15.153  91.473  0.00  0.00     0.198 C 
ENDROOT
BRANCH   2   7
HETATM    7  C   UNK     0       4.667  13.113  88.335  0.00  0.00     0.311 C 
BRANCH   7   8
HETATM    8  C   UNK     0       5.519  12.004  88.849  0.00  0.00    -0.030 A 
HETATM    9  C   UNK     0       4.933  10.799  89.239  0.00  0.00     0.010 A 
HETATM   10  C   UNK     0       5.729   9.761  89.723  0.00  0.00     0.021 A 
HETATM   11  C   UNK     0       7.111   9.927  89.814  0.00  0.00     0.018 A 
HETATM   12  C   UNK     0       7.697  11.129  89.425  0.00  0.00     0.021 A 
HETATM   13  C   UNK     0       6.902  12.168  88.942  0.00  0.00     0.010 A 
BRANCH  11  14
HETATM   14  C   UNK     0       7.927   8.861  90.308  0.00  0.00    -0.061 C 
HETATM   15  C   UNK     0       8.613   7.965  90.723  0.00  0.00    -0.061 C 
BRANCH  15  16
HETATM   16  C   UNK     0       9.427   6.900  91.217  0.00  0.00     0.018 A 
HETATM   17  C   UNK     0       9.706   6.811  92.582  0.00  0.00     0.022 A 
HETATM   18  C   UNK     0      10.500   5.770  93.064  0.00  0.00     0.018 A 
HETATM   19  C   UNK     0      10.995   4.841  92.174  0.00  0.00     0.032 A 
HETATM   20  C   UNK     0      10.734   4.906  90.821  0.00  0.00     0.018 A 
HETATM   21  C   UNK     0       9.942   5.948  90.337  0.00  0.00     0.022 A 
BRANCH  19  22
HETATM   22  C   UNK     0      11.842   3.734  92.688  0.00  0.00     0.252 C 
HETATM   23  O   UNK     0      11.413   2.583  92.649  0.00  0.00    -0.268 OA
HETATM   24  N   UNK     0      13.094   4.096  93.163  0.00  0.00    -0.341 N 
HETATM   25  H   UNK     0      13.391   5.065  93.141  0.00  0.00     0.163 HD
BRANCH  24  26
HETATM   26  C   UNK     0      14.039   3.134  93.672  0.00  0.00     0.207 C 
BRANCH  26  27
HETATM   27  C   UNK     0      14.155   1.889  92.783  0.00  0.00     0.146 C 
HETATM   28  C   UNK     0      15.018   2.131  91.550  0.00  0.00     0.042 C 
BRANCH  27  29
HETATM   29  O   UNK     0      14.716   0.815  93.538  0.00  0.00    -0.393 OA
HETATM   30  H   UNK     0      15.599   0.621  93.182  0.00  0.00     0.210 HD
ENDBRANCH  27  29
ENDBRANCH  26  27
BRANCH  26  31
HETATM   31  C   UNK     0      15.384   3.837  93.821  0.00  0.00     0.266 C 
HETATM   32  O   UNK     0      15.514   5.058  93.753  0.00  0.00    -0.269 OA
HETATM   33  N   UNK     0      16.417   2.948  93.998  0.00  0.00    -0.236 N 
HETATM   34  H   UNK     0      16.359   1.937  93.970  0.00  0.00     0.197 HD
BRANCH  33  35
HETATM   35  O   UNK     0      17.696   3.512  94.106  0.00  0.00    -0.287 OA
HETATM   36  H   UNK     0      17.680   3.805  95.033  0.00  0.00     0.244 HD
ENDBRANCH  33  35
ENDBRANCH  26  31
ENDBRANCH  24  26
ENDBRANCH  19  22
ENDBRANCH  15  16
ENDBRANCH  11  14
ENDBRANCH   7   8
ENDBRANCH   2   7
TORSDOF 10
ENDMDL
MODEL 5
REMARK VINA RESULT:      -5.2      1.675      2.442
REMARK  10 active torsions:
REMARK  status: ('A' for Active; 'I' for Inactive)
REMARK    1  A    between atoms: O_2  and  C_18 
REMARK    2  A    between atoms: O_5  and  N_8 
REMARK    3  A    between atoms: N_6  and  C_11 
REMARK    4  A    between atoms: N_7  and  C_15 
REMARK       I    between atoms: N_7  and  C_24 
REMARK       I    between atoms: N_8  and  C_23 
REMARK    5  A    between atoms: C_11  and  C_14 
REMARK    6  A    between atoms: C_15  and  C_18 
REMARK    7  A    between atoms: C_15  and  C_23 
REMARK    8  A    between atoms: C_21  and  C_26 
REMARK    9  A    between atoms: C_24  and  C_25 
REMARK   10  A    between atoms: C_29  and  C_32 
ROOT
HETATM    1  O   UNK     0      15.402   4.595  92.352  0.00  0.00    -0.388 OA
HETATM    2  N   UNK     0      13.259   2.756  91.993  0.00  0.00     0.096 N 
HETATM    3  C   UNK     0      13.243   4.086  91.368  0.00  0.00     0.299 C 
HETATM    4  C   UNK     0      14.037   2.795  93.238  0.00  0.00     0.299 C 
HETATM    5  C   UNK     0      14.674   4.559  91.124  0.00  0.00     0.198 C 
HETATM    6  C   UNK     0      15.449   3.299  92.951  0.00  0.00     0.198 C 
ENDROOT
BRANCH   2   7
HETATM    7  C   UNK     0      11.898   2.287  92.246  0.00  0.00     0.311 C 
BRANCH   7   8
HETATM    8  C   UNK     0      10.925   3.409  92.377  0.00  0.00    -0.030 A 
HETATM    9  C   UNK     0       9.863   3.518  91.478  0.00  0.00     0.010 A 
HETATM   10  C   UNK     0       8.954   4.569  91.598  0.00  0.00     0.021 A 
HETATM   11  C   UNK     0       9.106   5.508  92.618  0.00  0.00     0.018 A 
HETATM   12  C   UNK     0      10.166   5.400  93.516  0.00  0.00     0.021 A 
HETATM   13  C   UNK     0      11.076   4.350  93.396  0.00  0.00     0.010 A 
BRANCH  11  14
HETATM   14  C   UNK     0       8.172   6.585  92.742  0.00  0.00    -0.061 C 
HETATM   15  C   UNK     0       7.387   7.490  92.847  0.00  0.00    -0.061 C 
BRANCH  15  16
HETATM   16  C   UNK     0       6.453   8.564  92.973  0.00  0.00     0.018 A 
HETATM   17  C   UNK     0       6.752   9.655  93.791  0.00  0.00     0.022 A 
HETATM   18  C   UNK     0       5.842  10.705  93.912  0.00  0.00     0.018 A 
HETATM   19  C   UNK     0       4.655  10.642  93.212  0.00  0.00     0.032 A 
HETATM   20  C   UNK     0       4.335   9.575  92.398  0.00  0.00     0.018 A 
HETATM   21  C   UNK     0       5.245   8.525  92.277  0.00  0.00     0.022 A 
BRANCH  19  22
HETATM   22  C   UNK     0       3.685  11.760  93.343  0.00  0.00     0.252 C 
HETATM   23  O   UNK     0       2.640  11.578  93.964  0.00  0.00    -0.268 OA
HETATM   24  N   UNK     0       4.058  12.961  92.757  0.00  0.00    -0.341 N 
HETATM   25  H   UNK     0       4.949  13.044  92.281  0.00  0.00     0.163 HD
BRANCH  24  26
HETATM   26  C   UNK     0       3.237  14.143  92.819  0.00  0.00     0.207 C 
BRANCH  26  27
HETATM   27  C   UNK     0       4.060  15.433  92.924  0.00  0.00     0.146 C 
HETATM   28  C   UNK     0       5.000  15.429  94.124  0.00  0.00     0.042 C 
BRANCH  27  29
HETATM   29  O   UNK     0       4.828  15.608  91.734  0.00  0.00    -0.393 OA
HETATM   30  H   UNK     0       5.680  15.154  91.851  0.00  0.00     0.210 HD
ENDBRANCH  27  29
ENDBRANCH  26  27
BRANCH  26  31
HETATM   31  C   UNK     0       2.343  14.154  91.582  0.00  0.00     0.266 C 
HETATM   32  O   UNK     0       1.195  14.594  91.590  0.00  0.00    -0.269 OA
HETATM   33  N   UNK     0       2.958  13.587  90.492  0.00  0.00    -0.236 N 
HETATM   34  H   UNK     0       3.866  13.137  90.474  0.00  0.00     0.197 HD
BRANCH  33  35
HETATM   35  O   UNK     0       2.189  13.524  89.322  0.00  0.00    -0.287 OA
HETATM   36  H   UNK     0       1.325  13.275  89.694  0.00  0.00     0.244 HD
ENDBRANCH  33  35
ENDBRANCH  26  31
ENDBRANCH  24  26
ENDBRANCH  19  22
ENDBRANCH  15  16
ENDBRANCH  11  14
ENDBRANCH   7   8
ENDBRANCH   2   7
TORSDOF 10
ENDMDL
MODEL 6
REMARK VINA RESULT:      -5.1      2.073     12.568
REMARK  10 active torsions:
REMARK  status: ('A' for Active; 'I' for Inactive)
REMARK    1  A    between atoms: O_2  and  C_18 
REMARK    2  A    between atoms: O_5  and  N_8 
REMARK    3  A    between atoms: N_6  and  C_11 
REMARK    4  A    between atoms: N_7  and  C_15 
REMARK       I    between atoms: N_7  and  C_24 
REMARK       I    between atoms: N_8  and  C_23 
REMARK    5  A    between atoms: C_11  and  C_14 
REMARK    6  A    between atoms: C_15  and  C_18 
REMARK    7  A    between atoms: C_15  and  C_23 
REMARK    8  A    between atoms: C_21  and  C_26 
REMARK    9  A    between atoms: C_24  and  C_25 
REMARK   10  A    between atoms: C_29  and  C_32 
ROOT
HETATM    1  O   UNK     0       2.732  14.865  93.956  0.00  0.00    -0.388 OA
HETATM    2  N   UNK     0       2.669  14.459  91.139  0.00  0.00     0.096 N 
HETATM    3  C   UNK     0       1.614  13.932  92.015  0.00  0.00     0.299 C 
HETATM    4  C   UNK     0       3.938  14.543  91.875  0.00  0.00     0.299 C 
HETATM    5  C   UNK     0       1.487  14.809  93.258  0.00  0.00     0.198 C 
HETATM    6  C   UNK     0       3.757  15.405  93.121  0.00  0.00     0.198 C 
ENDROOT
BRANCH   2   7
HETATM    7  C   UNK     0       2.815  13.628  89.946  0.00  0.00     0.311 C 
BRANCH   7   8
HETATM    8  C   UNK     0       3.839  12.558  90.121  0.00  0.00    -0.030 A 
HETATM    9  C   UNK     0       5.077  12.668  89.486  0.00  0.00     0.010 A 
HETATM   10  C   UNK     0       6.034  11.666  89.648  0.00  0.00     0.021 A 
HETATM   11  C   UNK     0       5.754  10.557  90.445  0.00  0.00     0.018 A 
HETATM   12  C   UNK     0       4.518  10.447  91.079  0.00  0.00     0.021 A 
HETATM   13  C   UNK     0       3.560  11.447  90.918  0.00  0.00     0.010 A 
BRANCH  11  14
HETATM   14  C   UNK     0       6.737   9.531  90.612  0.00  0.00    -0.061 C 
HETATM   15  C   UNK     0       7.563   8.669  90.752  0.00  0.00    -0.061 C 
BRANCH  15  16
HETATM   16  C   UNK     0       8.544   7.643  90.918  0.00  0.00     0.018 A 
HETATM   17  C   UNK     0       8.948   7.267  92.200  0.00  0.00     0.022 A 
HETATM   18  C   UNK     0       9.904   6.264  92.363  0.00  0.00     0.018 A 
HETATM   19  C   UNK     0      10.434   5.660  91.242  0.00  0.00     0.032 A 
HETATM   20  C   UNK     0      10.052   6.013  89.965  0.00  0.00     0.018 A 
HETATM   21  C   UNK     0       9.096   7.016  89.802  0.00  0.00     0.022 A 
BRANCH  19  22
HETATM   22  C   UNK     0      11.454   4.593  91.416  0.00  0.00     0.252 C 
HETATM   23  O   UNK     0      11.748   3.883  90.458  0.00  0.00    -0.268 OA
HETATM   24  N   UNK     0      12.025   4.498  92.678  0.00  0.00    -0.341 N 
HETATM   25  H   UNK     0      11.750   5.137  93.415  0.00  0.00     0.163 HD
BRANCH  24  26
HETATM   26  C   UNK     0      13.045   3.532  92.996  0.00  0.00     0.207 C 
BRANCH  26  27
HETATM   27  C   UNK     0      12.930   2.250  92.161  0.00  0.00     0.146 C 
HETATM   28  C   UNK     0      13.996   1.221  92.521  0.00  0.00     0.042 C 
BRANCH  27  29
HETATM   29  O   UNK     0      11.641   1.669  92.354  0.00  0.00    -0.393 OA
HETATM   30  H   UNK     0      10.976   2.375  92.293  0.00  0.00     0.210 HD
ENDBRANCH  27  29
ENDBRANCH  26  27
BRANCH  26  31
HETATM   31  C   UNK     0      14.400   4.203  92.799  0.00  0.00     0.266 C 
HETATM   32  O   UNK     0      14.756   4.692  91.729  0.00  0.00    -0.269 OA
HETATM   33  N   UNK     0      15.172   4.157  93.935  0.00  0.00    -0.236 N 
HETATM   34  H   UNK     0      14.947   3.685  94.803  0.00  0.00     0.197 HD
BRANCH  33  35
HETATM   35  O   UNK     0      16.452   4.719  93.826  0.00  0.00    -0.287 OA
HETATM   36  H   UNK     0      16.819   4.488  94.696  0.00  0.00     0.244 HD
ENDBRANCH  33  35
ENDBRANCH  26  31
ENDBRANCH  24  26
ENDBRANCH  19  22
ENDBRANCH  15  16
ENDBRANCH  11  14
ENDBRANCH   7   8
ENDBRANCH   2   7
TORSDOF 10
ENDMDL
MODEL 7
REMARK VINA RESULT:      -4.9      1.203      1.819
REMARK  10 active torsions:
REMARK  status: ('A' for Active; 'I' for Inactive)
REMARK    1  A    between atoms: O_2  and  C_18 
REMARK    2  A    between atoms: O_5  and  N_8 
REMARK    3  A    between atoms: N_6  and  C_11 
REMARK    4  A    between atoms: N_7  and  C_15 
REMARK       I    between atoms: N_7  and  C_24 
REMARK       I    between atoms: N_8  and  C_23 
REMARK    5  A    between atoms: C_11  and  C_14 
REMARK    6  A    between atoms: C_15  and  C_18 
REMARK    7  A    between atoms: C_15  and  C_23 
REMARK    8  A    between atoms: C_21  and  C_26 
REMARK    9  A    between atoms: C_24  and  C_25 
REMARK   10  A    between atoms: C_29  and  C_32 
ROOT
HETATM    1  O   UNK     0      15.575   4.201  92.171  0.00  0.00    -0.388 OA
HETATM    2  N   UNK     0      13.338   2.442  92.113  0.00  0.00     0.096 N 
HETATM    3  C   UNK     0      13.319   3.731  91.408  0.00  0.00     0.299 C 
HETATM    4  C   UNK     0      14.224   2.520  93.282  0.00  0.00     0.299 C 
HETATM    5  C   UNK     0      14.740   4.126  91.014  0.00  0.00     0.198 C 
HETATM    6  C   UNK     0      15.623   2.943  92.845  0.00  0.00     0.198 C 
ENDROOT
BRANCH   2   7
HETATM    7  C   UNK     0      11.987   2.049  92.510  0.00  0.00     0.311 C 
BRANCH   7   8
HETATM    8  C   UNK     0      11.007   3.164  92.370  0.00  0.00    -0.030 A 
HETATM    9  C   UNK     0      10.114   3.176  91.298  0.00  0.00     0.010 A 
HETATM   10  C   UNK     0       9.199   4.219  91.164  0.00  0.00     0.021 A 
HETATM   11  C   UNK     0       9.175   5.249  92.104  0.00  0.00     0.018 A 
HETATM   12  C   UNK     0      10.066   5.238  93.176  0.00  0.00     0.021 A 
HETATM   13  C   UNK     0      10.983   4.195  93.309  0.00  0.00     0.010 A 
BRANCH  11  14
HETATM   14  C   UNK     0       8.234   6.319  91.969  0.00  0.00    -0.061 C 
HETATM   15  C   UNK     0       7.444   7.218  91.855  0.00  0.00    -0.061 C 
BRANCH  15  16
HETATM   16  C   UNK     0       6.504   8.285  91.720  0.00  0.00     0.018 A 
HETATM   17  C   UNK     0       6.582   9.393  92.564  0.00  0.00     0.022 A 
HETATM   18  C   UNK     0       5.666  10.436  92.432  0.00  0.00     0.018 A 
HETATM   19  C   UNK     0       4.692  10.349  91.459  0.00  0.00     0.032 A 
HETATM   20  C   UNK     0       4.592   9.264  90.613  0.00  0.00     0.018 A 
HETATM   21  C   UNK     0       5.508   8.221  90.746  0.00  0.00     0.022 A 
BRANCH  19  22
HETATM   22  C   UNK     0       3.715  11.459  91.320  0.00  0.00     0.252 C 
HETATM   23  O   UNK     0       2.661  11.259  90.720  0.00  0.00    -0.268 OA
HETATM   24  N   UNK     0       4.071  12.661  91.916  0.00  0.00    -0.341 N 
HETATM   25  H   UNK     0       4.948  12.745  92.416  0.00  0.00     0.163 HD
BRANCH  24  26
HETATM   26  C   UNK     0       3.219  13.823  91.889  0.00  0.00     0.207 C 
BRANCH  26  27
HETATM   27  C   UNK     0       3.517  14.804  93.029  0.00  0.00     0.146 C 
HETATM   28  C   UNK     0       2.287  15.101  93.880  0.00  0.00     0.042 C 
BRANCH  27  29
HETATM   29  O   UNK     0       4.541  14.267  93.866  0.00  0.00    -0.393 OA
HETATM   30  H   UNK     0       4.229  13.417  94.221  0.00  0.00     0.210 HD
ENDBRANCH  27  29
ENDBRANCH  26  27
BRANCH  26  31
HETATM   31  C   UNK     0       3.384  14.489  90.527  0.00  0.00     0.266 C 
HETATM   32  O   UNK     0       2.494  14.508  89.678  0.00  0.00    -0.269 OA
HETATM   33  N   UNK     0       4.639  15.020  90.357  0.00  0.00    -0.236 N 
HETATM   34  H   UNK     0       5.421  14.945  90.997  0.00  0.00     0.197 HD
BRANCH  33  35
HETATM   35  O   UNK     0       4.885  15.619  89.113  0.00  0.00    -0.287 OA
HETATM   36  H   UNK     0       4.227  15.160  88.565  0.00  0.00     0.244 HD
ENDBRANCH  33  35
ENDBRANCH  26  31
ENDBRANCH  24  26
ENDBRANCH  19  22
ENDBRANCH  15  16
ENDBRANCH  11  14
ENDBRANCH   7   8
ENDBRANCH   2   7
TORSDOF 10
ENDMDL
MODEL 8
REMARK VINA RESULT:      -4.8      1.873     12.635
REMARK  10 active torsions:
REMARK  status: ('A' for Active; 'I' for Inactive)
REMARK    1  A    between atoms: O_2  and  C_18 
REMARK    2  A    between atoms: O_5  and  N_8 
REMARK    3  A    between atoms: N_6  and  C_11 
REMARK    4  A    between atoms: N_7  and  C_15 
REMARK       I    between atoms: N_7  and  C_24 
REMARK       I    between atoms: N_8  and  C_23 
REMARK    5  A    between atoms: C_11  and  C_14 
REMARK    6  A    between atoms: C_15  and  C_18 
REMARK    7  A    between atoms: C_15  and  C_23 
REMARK    8  A    between atoms: C_21  and  C_26 
REMARK    9  A    between atoms: C_24  and  C_25 
REMARK   10  A    between atoms: C_29  and  C_32 
ROOT
HETATM    1  O   UNK     0       5.261  14.734  89.279  0.00  0.00    -0.388 OA
HETATM    2  N   UNK     0       3.522  13.130  90.862  0.00  0.00     0.096 N 
HETATM    3  C   UNK     0       4.068  14.397  91.366  0.00  0.00     0.299 C 
HETATM    4  C   UNK     0       4.450  12.531  89.894  0.00  0.00     0.299 C 
HETATM    5  C   UNK     0       4.350  15.339  90.198  0.00  0.00     0.198 C 
HETATM    6  C   UNK     0       4.723  13.516  88.761  0.00  0.00     0.198 C 
ENDROOT
BRANCH   2   7
HETATM    7  C   UNK     0       3.254  12.207  91.964  0.00  0.00     0.311 C 
BRANCH   7   8
HETATM    8  C   UNK     0       4.311  11.165  92.101  0.00  0.00    -0.030 A 
HETATM    9  C   UNK     0       5.515  11.472  92.738  0.00  0.00     0.010 A 
HETATM   10  C   UNK     0       6.505  10.498  92.865  0.00  0.00     0.021 A 
HETATM   11  C   UNK     0       6.291   9.217  92.357  0.00  0.00     0.018 A 
HETATM   12  C   UNK     0       5.090   8.909  91.722  0.00  0.00     0.021 A 
HETATM   13  C   UNK     0       4.099   9.883  91.594  0.00  0.00     0.010 A 
BRANCH  11  14
HETATM   14  C   UNK     0       7.306   8.218  92.490  0.00  0.00    -0.061 C 
HETATM   15  C   UNK     0       8.159   7.378  92.601  0.00  0.00    -0.061 C 
BRANCH  15  16
HETATM   16  C   UNK     0       9.174   6.381  92.734  0.00  0.00     0.018 A 
HETATM   17  C   UNK     0       9.710   6.096  93.991  0.00  0.00     0.022 A 
HETATM   18  C   UNK     0      10.699   5.121  94.121  0.00  0.00     0.018 A 
HETATM   19  C   UNK     0      11.129   4.452  92.994  0.00  0.00     0.032 A 
HETATM   20  C   UNK     0      10.616   4.715  91.742  0.00  0.00     0.018 A 
HETATM   21  C   UNK     0       9.628   5.691  91.610  0.00  0.00     0.022 A 
BRANCH  19  22
HETATM   22  C   UNK     0      12.184   3.415  93.134  0.00  0.00     0.252 C 
HETATM   23  O   UNK     0      12.042   2.335  92.567  0.00  0.00    -0.268 OA
HETATM   24  N   UNK     0      13.289   3.770  93.896  0.00  0.00    -0.341 N 
HETATM   25  H   UNK     0      13.349   4.691  94.314  0.00  0.00     0.163 HD
BRANCH  24  26
HETATM   26  C   UNK     0      14.405   2.883  94.104  0.00  0.00     0.207 C 
BRANCH  26  27
HETATM   27  C   UNK     0      14.418   1.706  93.121  0.00  0.00     0.146 C 
HETATM   28  C   UNK     0      15.260   1.989  91.882  0.00  0.00     0.042 C 
BRANCH  27  29
HETATM   29  O   UNK     0      14.932   0.545  93.774  0.00  0.00    -0.393 OA
HETATM   30  H   UNK     0      15.432   0.831  94.556  0.00  0.00     0.210 HD
ENDBRANCH  27  29
ENDBRANCH  26  27
BRANCH  26  31
HETATM   31  C   UNK     0      15.682   3.709  93.998  0.00  0.00     0.266 C 
HETATM   32  O   UNK     0      16.807   3.214  94.052  0.00  0.00    -0.269 OA
HETATM   33  N   UNK     0      15.423   5.052  93.875  0.00  0.00    -0.236 N 
HETATM   34  H   UNK     0      14.516   5.502  93.916  0.00  0.00     0.197 HD
BRANCH  33  35
HETATM   35  O   UNK     0      16.548   5.887  93.810  0.00  0.00    -0.287 OA
HETATM   36  H   UNK     0      16.689   6.064  94.755  0.00  0.00     0.244 HD
ENDBRANCH  33  35
ENDBRANCH  26  31
ENDBRANCH  24  26
ENDBRANCH  19  22
ENDBRANCH  15  16
ENDBRANCH  11  14
ENDBRANCH   7   8
ENDBRANCH   2   7
TORSDOF 10
ENDMDL
