MODEL 1
REMARK VINA RESULT:      -7.6      0.000      0.000
REMARK  9 active torsions:
REMARK  status: ('A' for Active; 'I' for Inactive)
REMARK    1  A    between atoms: N_3  and  C_6 
REMARK    2  A    between atoms: C_6  and  C_9 
REMARK    3  A    between atoms: C_14  and  C_17 
REMARK       I    between atoms: N_26  and  C_15 
REMARK    4  A    between atoms: C_15  and  C_16 
REMARK    5  A    between atoms: C_20  and  C_23 
REMARK    6  A    between atoms: OG1_24  and  CB_28 
REMARK    7  A    between atoms: N_26  and  CA_27 
REMARK    8  A    between atoms: CA_27  and  CB_28 
REMARK    9  A    between atoms: CA_27  and  C_30 
ROOT
HETATM    1  O   UNK A   0       1.947   8.184  87.845  1.00  0.00    -0.388 OA
HETATM    2  N   UNK A   0       4.730   7.608  87.677  1.00  0.00     0.096 N 
HETATM    3  C   UNK A   0       4.236   8.989  87.775  1.00  0.00     0.299 C 
HETATM    4  C   UNK A   0       3.728   6.761  87.015  1.00  0.00     0.299 C 
HETATM    5  C   UNK A   0       2.902   9.009  88.517  1.00  0.00     0.198 C 
HETATM    6  C   UNK A   0       2.406   6.834  87.773  1.00  0.00     0.198 C 
ENDROOT
BRANCH   2   7
HETATM    7  C   UNK A   0       6.003   7.563  86.961  1.00  0.00     0.311 C 
BRANCH   7   8
HETATM    8  C   UNK A   0       7.092   6.951  87.774  1.00  0.00    -0.030 A 
HETATM    9  C   UNK A   0       6.863   6.625  89.112  1.00  0.00     0.010 A 
HETATM   10  C   UNK A   0       7.881   6.054  89.875  1.00  0.00     0.021 A 
HETATM   11  C   UNK A   0       9.127   5.807  89.299  1.00  0.00     0.018 A 
HETATM   12  C   UNK A   0       9.357   6.132  87.964  1.00  0.00     0.021 A 
HETATM   13  C   UNK A   0       8.339   6.704  87.201  1.00  0.00     0.010 A 
BRANCH  11  14
HETATM   14  C   UNK A   0      10.171   5.219  90.082  1.00  0.00    -0.061 C 
HETATM   15  C   UNK A   0      11.048   4.725  90.739  1.00  0.00    -0.061 C 
BRANCH  15  16
HETATM   16  C   UNK A   0      12.091   4.137  91.520  1.00  0.00     0.018 A 
HETATM   17  C   UNK A   0      13.343   3.905  90.949  1.00  0.00     0.022 A 
HETATM   18  C   UNK A   0      14.361   3.334  91.712  1.00  0.00     0.018 A 
HETATM   19  C   UNK A   0      14.106   3.008  93.027  1.00  0.00     0.032 A 
HETATM   20  C   UNK A   0      12.878   3.227  93.615  1.00  0.00     0.018 A 
HETATM   21  C   UNK A   0      11.858   3.798  92.853  1.00  0.00     0.022 A 
BRANCH  19  22
HETATM   22  C   UNK A   0      15.191   2.398  93.839  1.00  0.00     0.252 C 
HETATM   23  O   UNK A   0      16.335   2.835  93.737  1.00  0.00    -0.268 OA
ENDBRANCH  19  22
ENDBRANCH  15  16
ENDBRANCH  11  14
ENDBRANCH   7   8
ENDBRANCH   2   7
TORSDOF 9
ENDMDL
