MODEL 1
REMARK VINA RESULT:      -6.7      0.000      0.000
REMARK  11 active torsions:
REMARK  status: ('A' for Active; 'I' for Inactive)
REMARK    1  A    between atoms: O_2  and  C_18 
REMARK    2  A    between atoms: O_5  and  P_8 
REMARK    3  A    between atoms: N_6  and  C_11 
REMARK    4  A    between atoms: N_7  and  C_15 
REMARK       I    between atoms: N_7  and  C_24 
REMARK    5  A    between atoms: P_8  and  C_23 
REMARK    6  A    between atoms: C_11  and  C_14 
REMARK    7  A    between atoms: C_15  and  C_18 
REMARK    8  A    between atoms: C_15  and  C_23 
REMARK    9  A    between atoms: C_21  and  C_26 
REMARK   10  A    between atoms: C_24  and  C_25 
REMARK   11  A    between atoms: C_29  and  C_32 
ROOT
HETATM    1  O   UNL     1      16.060   4.269  94.053  1.00  0.00     0.000 OA
HETATM    2  N   UNL     1      14.379   2.738  92.341  1.00  0.00     0.000 N 
HETATM    3  C   UNL     1      14.414   4.205  92.271  1.00  0.00     0.000 C 
HETATM    4  C   UNL     1      14.700   2.291  93.704  1.00  0.00     0.000 C 
HETATM    5  C   UNL     1      15.781   4.712  92.724  1.00  0.00     0.000 C 
HETATM    6  C   UNL     1      16.059   2.843  94.123  1.00  0.00     0.000 C 
ENDROOT
BRANCH   2   7
HETATM    7  C   UNL     1      13.074   2.231  91.922  1.00  0.00     0.000 C 
BRANCH   7   8
HETATM    8  C   UNL     1      12.105   3.326  91.631  1.00  0.00     0.000 A 
HETATM    9  C   UNL     1      11.476   3.996  92.681  1.00  0.00     0.000 A 
HETATM   10  C   UNL     1      10.568   5.020  92.410  1.00  0.00     0.000 A 
HETATM   11  C   UNL     1      10.292   5.374  91.090  1.00  0.00     0.000 A 
HETATM   12  C   UNL     1      10.920   4.706  90.041  1.00  0.00     0.000 A 
HETATM   13  C   UNL     1      11.827   3.681  90.311  1.00  0.00     0.000 A 
BRANCH  11  14
HETATM   14  C   UNL     1       9.362   6.426  90.813  1.00  0.00     0.000 C 
HETATM   15  C   UNL     1       8.582   7.310  90.579  1.00  0.00     0.000 C 
BRANCH  15  16
HETATM   16  C   UNL     1       7.653   8.361  90.301  1.00  0.00     0.000 A 
HETATM   17  C   UNL     1       7.968   9.677  90.641  1.00  0.00     0.000 A 
HETATM   18  C   UNL     1       7.063  10.702  90.367  1.00  0.00     0.000 A 
HETATM   19  C   UNL     1       5.865  10.389  89.759  1.00  0.00     0.000 A 
HETATM   20  C   UNL     1       5.530   9.097  89.413  1.00  0.00     0.000 A 
HETATM   21  C   UNL     1       6.435   8.071  89.687  1.00  0.00     0.000 A 
BRANCH  19  22
HETATM   22  C   UNL     1       4.901  11.482  89.469  1.00  0.00     0.000 C 
HETATM   23  O   UNL     1       4.395  11.555  88.352  1.00  0.00     0.000 OA
HETATM   24  N   UNL     1       4.623  12.343  90.522  1.00  0.00     0.000 N 
HETATM   25  HN  UNL     1       5.061  12.206  91.425  1.00  0.00     0.000 HD
BRANCH  24  26
HETATM   26  C   UNL     1       3.691  13.436  90.405  1.00  0.00     0.000 C 
BRANCH  26  27
HETATM   27  C   UNL     1       2.388  13.190  91.175  1.00  0.00     0.000 C 
HETATM   28  C   UNL     1       2.599  12.336  92.421  1.00  0.00     0.000 C 
BRANCH  27  29
HETATM   29  O   UNL     1       1.820  14.441  91.562  1.00  0.00     0.000 OA
HETATM   30  H   UNL     1       2.306  15.150  91.110  1.00  0.00     0.000 HD
ENDBRANCH  27  29
ENDBRANCH  26  27
BRANCH  26  31
HETATM   31  C   UNL     1       4.393  14.700  90.890  1.00  0.00     0.000 C 
HETATM   32  O   UNL     1       4.414  15.043  92.071  1.00  0.00     0.000 OA
BRANCH  31  33
HETATM   33  P   UNL     1       4.952  15.413  89.857  1.00  0.00     0.000 P 
HETATM   34  H   UNL     1       4.227  16.577  89.705  1.00  0.00     0.000 HD
BRANCH  33  35
HETATM   35  O   UNL     1       4.986  14.763  88.615  1.00  0.00     0.000 OA
HETATM   36  H   UNL     1       5.107  15.524  88.023  1.00  0.00     0.000 HD
ENDBRANCH  33  35
ENDBRANCH  31  33
ENDBRANCH  26  31
ENDBRANCH  24  26
ENDBRANCH  19  22
ENDBRANCH  15  16
ENDBRANCH  11  14
ENDBRANCH   7   8
ENDBRANCH   2   7
TORSDOF 11
ENDMDL
