MODEL 1
REMARK VINA RESULT:      -6.1      0.000      0.000
REMARK  12 active torsions:
REMARK  status: ('A' for Active; 'I' for Inactive)
REMARK    1  A    between atoms: O_2  and  C_16 
REMARK    2  A    between atoms: N_5  and  C_9 
REMARK    3  A    between atoms: N_6  and  C_13 
REMARK       I    between atoms: N_6  and  C_22 
REMARK    4  A    between atoms: C_9  and  C_12 
REMARK    5  A    between atoms: C_13  and  C_16 
REMARK    6  A    between atoms: C_13  and  C_21 
REMARK    7  A    between atoms: C_19  and  C_24 
REMARK    8  A    between atoms: C_21  and  C_33 
REMARK    9  A    between atoms: C_22  and  C_23 
REMARK   10  A    between atoms: C_27  and  C_30 
REMARK   11  A    between atoms: C_33  and  C_34 
REMARK   12  A    between atoms: C_34  and  C_35 
ROOT
HETATM    1  O   UNL     1      16.629   3.245  93.862  1.00  0.00    -0.350 OA
HETATM    2  N   UNL     1      14.045   2.989  92.694  1.00  0.00     0.147 N 
HETATM    3  C   UNL     1      14.895   1.816  92.944  1.00  0.00     0.283 C 
HETATM    4  C   UNL     1      14.881   4.175  92.460  1.00  0.00     0.283 C 
HETATM    5  C   UNL     1      15.825   2.093  94.123  1.00  0.00     0.178 C 
HETATM    6  C   UNL     1      15.811   4.396  93.649  1.00  0.00     0.178 C 
ENDROOT
BRANCH   2   7
HETATM    7  C   UNL     1      13.153   2.750  91.562  1.00  0.00     0.277 C 
BRANCH   7   8
HETATM    8  C   UNL     1      11.987   3.680  91.551  1.00  0.00     0.011 A 
HETATM    9  C   UNL     1      11.498   4.169  90.339  1.00  0.00    -0.002 A 
HETATM   10  C   UNL     1      10.409   5.040  90.328  1.00  0.00     0.008 A 
HETATM   11  C   UNL     1       9.809   5.420  91.528  1.00  0.00     0.042 A 
HETATM   12  C   UNL     1      10.296   4.932  92.738  1.00  0.00     0.008 A 
HETATM   13  C   UNL     1      11.386   4.061  92.750  1.00  0.00    -0.002 A 
BRANCH  11  14
HETATM   14  C   UNL     1       8.690   6.312  91.516  1.00  0.00    -0.059 C 
HETATM   15  C   UNL     1       7.750   7.062  91.507  1.00  0.00    -0.059 C 
BRANCH  15  16
HETATM   16  C   UNL     1       6.633   7.954  91.495  1.00  0.00     0.042 A 
HETATM   17  C   UNL     1       6.693   9.154  92.205  1.00  0.00     0.008 A 
HETATM   18  C   UNL     1       5.604  10.026  92.191  1.00  0.00     0.005 A 
HETATM   19  C   UNL     1       4.481   9.679  91.469  1.00  0.00     0.056 A 
HETATM   20  C   UNL     1       4.398   8.499  90.761  1.00  0.00     0.005 A 
HETATM   21  C   UNL     1       5.486   7.626  90.773  1.00  0.00     0.008 A 
BRANCH  19  22
HETATM   22  C   UNL     1       3.321  10.607  91.457  1.00  0.00     0.254 C 
HETATM   23  O   UNL     1       2.217  10.182  91.126  1.00  0.00    -0.268 OA
HETATM   24  N   UNL     1       3.581  11.911  91.854  1.00  0.00    -0.335 N 
HETATM   25  HN  UNL     1       4.514  12.184  92.138  1.00  0.00     0.164 HD
BRANCH  24  26
HETATM   26  C   UNL     1       2.555  12.921  91.919  1.00  0.00     0.166 C 
BRANCH  26  27
HETATM   27  C   UNL     1       2.632  13.765  93.197  1.00  0.00     0.138 C 
HETATM   28  C   UNL     1       4.034  13.790  93.796  1.00  0.00     0.034 C 
BRANCH  27  29
HETATM   29  O   UNL     1       2.226  15.103  92.912  1.00  0.00    -0.383 OA
HETATM   30  H   UNL     1       1.415  15.288  93.414  1.00  0.00     0.210 HD
ENDBRANCH  27  29
ENDBRANCH  26  27
BRANCH  26  31
HETATM   31  C   UNL     1       2.680  13.791  90.672  1.00  0.00     0.181 C 
HETATM   32  O   UNL     1       1.964  14.769  90.464  1.00  0.00    -0.294 OA
BRANCH  31  33
HETATM   33  C   UNL     1       4.205  14.288  90.434  1.00  0.00     0.138 C 
BRANCH  33  34
HETATM   34  C   UNL     1       4.411  13.902  89.091  1.00  0.00     0.208 C 
HETATM   35  O   UNL     1       4.977  14.707  88.387  1.00  0.00    -0.289 OA
BRANCH  34  36
HETATM   36  C   UNL     1       4.345  12.669  88.501  1.00  0.00     0.194 C 
HETATM   37  O   UNL     1       5.313  11.665  88.394  1.00  0.00    -0.185 OA
ENDBRANCH  34  36
ENDBRANCH  33  34
ENDBRANCH  31  33
ENDBRANCH  26  31
ENDBRANCH  24  26
ENDBRANCH  19  22
ENDBRANCH  15  16
ENDBRANCH  11  14
ENDBRANCH   7   8
ENDBRANCH   2   7
TORSDOF 12
ENDMDL
MODEL 2
REMARK VINA RESULT:      -6.0      1.116      1.615
REMARK  12 active torsions:
REMARK  status: ('A' for Active; 'I' for Inactive)
REMARK    1  A    between atoms: O_2  and  C_16 
REMARK    2  A    between atoms: N_5  and  C_9 
REMARK    3  A    between atoms: N_6  and  C_13 
REMARK       I    between atoms: N_6  and  C_22 
REMARK    4  A    between atoms: C_9  and  C_12 
REMARK    5  A    between atoms: C_13  and  C_16 
REMARK    6  A    between atoms: C_13  and  C_21 
REMARK    7  A    between atoms: C_19  and  C_24 
REMARK    8  A    between atoms: C_21  and  C_33 
REMARK    9  A    between atoms: C_22  and  C_23 
REMARK   10  A    between atoms: C_27  and  C_30 
REMARK   11  A    between atoms: C_33  and  C_34 
REMARK   12  A    between atoms: C_34  and  C_35 
ROOT
HETATM    1  O   UNL     1      16.276   4.423  93.951  1.00  0.00    -0.350 OA
HETATM    2  N   UNL     1      14.566   2.628  92.552  1.00  0.00     0.147 N 
HETATM    3  C   UNL     1      14.460   4.083  92.377  1.00  0.00     0.283 C 
HETATM    4  C   UNL     1      15.070   2.319  93.897  1.00  0.00     0.283 C 
HETATM    5  C   UNL     1      15.817   4.735  92.634  1.00  0.00     0.178 C 
HETATM    6  C   UNL     1      16.411   3.012  94.120  1.00  0.00     0.178 C 
ENDROOT
BRANCH   2   7
HETATM    7  C   UNL     1      13.274   1.984  92.321  1.00  0.00     0.277 C 
BRANCH   7   8
HETATM    8  C   UNL     1      12.155   2.965  92.247  1.00  0.00     0.011 A 
HETATM    9  C   UNL     1      11.866   3.776  93.346  1.00  0.00    -0.002 A 
HETATM   10  C   UNL     1      10.817   4.693  93.279  1.00  0.00     0.008 A 
HETATM   11  C   UNL     1      10.060   4.801  92.113  1.00  0.00     0.042 A 
HETATM   12  C   UNL     1      10.348   3.992  91.016  1.00  0.00     0.008 A 
HETATM   13  C   UNL     1      11.396   3.074  91.082  1.00  0.00    -0.002 A 
BRANCH  11  14
HETATM   14  C   UNL     1       8.986   5.743  92.044  1.00  0.00    -0.059 C 
HETATM   15  C   UNL     1       8.083   6.535  91.987  1.00  0.00    -0.059 C 
BRANCH  15  16
HETATM   16  C   UNL     1       7.010   7.478  91.918  1.00  0.00     0.042 A 
HETATM   17  C   UNL     1       7.287   8.841  91.807  1.00  0.00     0.008 A 
HETATM   18  C   UNL     1       6.240   9.760  91.737  1.00  0.00     0.005 A 
HETATM   19  C   UNL     1       4.942   9.296  91.779  1.00  0.00     0.056 A 
HETATM   20  C   UNL     1       4.642   7.955  91.889  1.00  0.00     0.005 A 
HETATM   21  C   UNL     1       5.688   7.035  91.959  1.00  0.00     0.008 A 
BRANCH  19  22
HETATM   22  C   UNL     1       3.827  10.276  91.707  1.00  0.00     0.254 C 
HETATM   23  O   UNL     1       2.668   9.871  91.757  1.00  0.00    -0.268 OA
HETATM   24  N   UNL     1       4.196  11.611  91.610  1.00  0.00    -0.335 N 
HETATM   25  HN  UNL     1       5.174  11.873  91.599  1.00  0.00     0.164 HD
BRANCH  24  26
HETATM   26  C   UNL     1       3.231  12.680  91.555  1.00  0.00     0.166 C 
BRANCH  26  27
HETATM   27  C   UNL     1       3.146  13.470  92.867  1.00  0.00     0.138 C 
HETATM   28  C   UNL     1       2.304  12.762  93.922  1.00  0.00     0.034 C 
BRANCH  27  29
HETATM   29  O   UNL     1       4.460  13.678  93.385  1.00  0.00    -0.383 OA
HETATM   30  H   UNL     1       4.388  14.220  94.189  1.00  0.00     0.210 HD
ENDBRANCH  27  29
ENDBRANCH  26  27
BRANCH  26  31
HETATM   31  C   UNL     1       3.605  13.585  90.386  1.00  0.00     0.181 C 
HETATM   32  O   UNL     1       3.683  14.808  90.484  1.00  0.00    -0.294 OA
BRANCH  31  33
HETATM   33  C   UNL     1       4.972  13.101  89.663  1.00  0.00     0.138 C 
BRANCH  33  34
HETATM   34  C   UNL     1       4.485  12.696  88.400  1.00  0.00     0.208 C 
HETATM   35  O   UNL     1       4.921  13.295  87.444  1.00  0.00    -0.289 OA
BRANCH  34  36
HETATM   36  C   UNL     1       3.823  11.558  88.028  1.00  0.00     0.194 C 
HETATM   37  O   UNL     1       4.264  10.231  87.975  1.00  0.00    -0.185 OA
ENDBRANCH  34  36
ENDBRANCH  33  34
ENDBRANCH  31  33
ENDBRANCH  26  31
ENDBRANCH  24  26
ENDBRANCH  19  22
ENDBRANCH  15  16
ENDBRANCH  11  14
ENDBRANCH   7   8
ENDBRANCH   2   7
TORSDOF 12
ENDMDL
MODEL 3
REMARK VINA RESULT:      -5.0      2.352     12.867
REMARK  12 active torsions:
REMARK  status: ('A' for Active; 'I' for Inactive)
REMARK    1  A    between atoms: O_2  and  C_16 
REMARK    2  A    between atoms: N_5  and  C_9 
REMARK    3  A    between atoms: N_6  and  C_13 
REMARK       I    between atoms: N_6  and  C_22 
REMARK    4  A    between atoms: C_9  and  C_12 
REMARK    5  A    between atoms: C_13  and  C_16 
REMARK    6  A    between atoms: C_13  and  C_21 
REMARK    7  A    between atoms: C_19  and  C_24 
REMARK    8  A    between atoms: C_21  and  C_33 
REMARK    9  A    between atoms: C_22  and  C_23 
REMARK   10  A    between atoms: C_27  and  C_30 
REMARK   11  A    between atoms: C_33  and  C_34 
REMARK   12  A    between atoms: C_34  and  C_35 
ROOT
HETATM    1  O   UNL     1       3.228  14.869  93.807  1.00  0.00    -0.350 OA
HETATM    2  N   UNL     1       3.008  14.571  90.985  1.00  0.00     0.147 N 
HETATM    3  C   UNL     1       1.944  14.116  91.890  1.00  0.00     0.283 C 
HETATM    4  C   UNL     1       4.309  14.509  91.665  1.00  0.00     0.283 C 
HETATM    5  C   UNL     1       1.954  14.956  93.165  1.00  0.00     0.178 C 
HETATM    6  C   UNL     1       4.264  15.339  92.944  1.00  0.00     0.178 C 
ENDROOT
BRANCH   2   7
HETATM    7  C   UNL     1       3.023  13.772  89.761  1.00  0.00     0.277 C 
BRANCH   7   8
HETATM    8  C   UNL     1       4.025  12.670  89.814  1.00  0.00     0.011 A 
HETATM    9  C   UNL     1       5.266  12.825  89.195  1.00  0.00    -0.002 A 
HETATM   10  C   UNL     1       6.203  11.794  89.243  1.00  0.00     0.008 A 
HETATM   11  C   UNL     1       5.900  10.608  89.912  1.00  0.00     0.042 A 
HETATM   12  C   UNL     1       4.662  10.452  90.531  1.00  0.00     0.008 A 
HETATM   13  C   UNL     1       3.724  11.483  90.483  1.00  0.00    -0.002 A 
BRANCH  11  14
HETATM   14  C   UNL     1       6.863   9.551  89.963  1.00  0.00    -0.059 C 
HETATM   15  C   UNL     1       7.672   8.663  90.006  1.00  0.00    -0.059 C 
BRANCH  15  16
HETATM   16  C   UNL     1       8.634   7.606  90.058  1.00  0.00     0.042 A 
HETATM   17  C   UNL     1       8.819   6.890  91.241  1.00  0.00     0.008 A 
HETATM   18  C   UNL     1       9.755   5.858  91.290  1.00  0.00     0.005 A 
HETATM   19  C   UNL     1      10.484   5.563  90.156  1.00  0.00     0.056 A 
HETATM   20  C   UNL     1      10.319   6.256  88.975  1.00  0.00     0.005 A 
HETATM   21  C   UNL     1       9.383   7.289  88.925  1.00  0.00     0.008 A 
BRANCH  19  22
HETATM   22  C   UNL     1      11.482   4.464  90.210  1.00  0.00     0.254 C 
HETATM   23  O   UNL     1      11.596   3.709  89.247  1.00  0.00    -0.268 OA
HETATM   24  N   UNL     1      12.245   4.391  91.367  1.00  0.00    -0.335 N 
HETATM   25  HN  UNL     1      12.112   5.066  92.112  1.00  0.00     0.164 HD
BRANCH  24  26
HETATM   26  C   UNL     1      13.270   3.397  91.560  1.00  0.00     0.166 C 
BRANCH  26  27
HETATM   27  C   UNL     1      14.622   3.817  90.969  1.00  0.00     0.138 C 
HETATM   28  C   UNL     1      14.999   3.001  89.737  1.00  0.00     0.034 C 
BRANCH  27  29
HETATM   29  O   UNL     1      14.580   5.199  90.614  1.00  0.00    -0.383 OA
HETATM   30  H   UNL     1      13.651   5.486  90.618  1.00  0.00     0.210 HD
ENDBRANCH  27  29
ENDBRANCH  26  27
BRANCH  26  31
HETATM   31  C   UNL     1      13.380   3.124  93.056  1.00  0.00     0.181 C 
HETATM   32  O   UNL     1      12.409   2.848  93.759  1.00  0.00    -0.294 OA
BRANCH  31  33
HETATM   33  C   UNL     1      14.508   2.008  93.384  1.00  0.00     0.138 C 
BRANCH  33  34
HETATM   34  C   UNL     1      15.657   2.817  93.535  1.00  0.00     0.208 C 
HETATM   35  O   UNL     1      16.603   2.534  92.836  1.00  0.00    -0.289 OA
BRANCH  34  36
HETATM   36  C   UNL     1      15.807   4.042  94.124  1.00  0.00     0.194 C 
HETATM   37  O   UNL     1      16.311   5.240  93.604  1.00  0.00    -0.185 OA
ENDBRANCH  34  36
ENDBRANCH  33  34
ENDBRANCH  31  33
ENDBRANCH  26  31
ENDBRANCH  24  26
ENDBRANCH  19  22
ENDBRANCH  15  16
ENDBRANCH  11  14
ENDBRANCH   7   8
ENDBRANCH   2   7
TORSDOF 12
ENDMDL
MODEL 4
REMARK VINA RESULT:      -4.8      2.908     12.363
REMARK  12 active torsions:
REMARK  status: ('A' for Active; 'I' for Inactive)
REMARK    1  A    between atoms: O_2  and  C_16 
REMARK    2  A    between atoms: N_5  and  C_9 
REMARK    3  A    between atoms: N_6  and  C_13 
REMARK       I    between atoms: N_6  and  C_22 
REMARK    4  A    between atoms: C_9  and  C_12 
REMARK    5  A    between atoms: C_13  and  C_16 
REMARK    6  A    between atoms: C_13  and  C_21 
REMARK    7  A    between atoms: C_19  and  C_24 
REMARK    8  A    between atoms: C_21  and  C_33 
REMARK    9  A    between atoms: C_22  and  C_23 
REMARK   10  A    between atoms: C_27  and  C_30 
REMARK   11  A    between atoms: C_33  and  C_34 
REMARK   12  A    between atoms: C_34  and  C_35 
ROOT
HETATM    1  O   UNL     1       2.962  14.946  94.095  1.00  0.00    -0.350 OA
HETATM    2  N   UNL     1       2.588  14.839  91.276  1.00  0.00     0.147 N 
HETATM    3  C   UNL     1       1.600  14.272  92.204  1.00  0.00     0.283 C 
HETATM    4  C   UNL     1       3.928  14.790  91.876  1.00  0.00     0.283 C 
HETATM    5  C   UNL     1       1.650  15.019  93.534  1.00  0.00     0.178 C 
HETATM    6  C   UNL     1       3.924  15.524  93.213  1.00  0.00     0.178 C 
ENDROOT
BRANCH   2   7
HETATM    7  C   UNL     1       2.564  14.131  89.997  1.00  0.00     0.277 C 
BRANCH   7   8
HETATM    8  C   UNL     1       3.560  13.023  89.944  1.00  0.00     0.011 A 
HETATM    9  C   UNL     1       3.262  11.790  90.525  1.00  0.00    -0.002 A 
HETATM   10  C   UNL     1       4.193  10.753  90.477  1.00  0.00     0.008 A 
HETATM   11  C   UNL     1       5.421  10.949  89.846  1.00  0.00     0.042 A 
HETATM   12  C   UNL     1       5.720  12.179  89.265  1.00  0.00     0.008 A 
HETATM   13  C   UNL     1       4.789  13.217  89.313  1.00  0.00    -0.002 A 
BRANCH  11  14
HETATM   14  C   UNL     1       6.376   9.884  89.796  1.00  0.00    -0.059 C 
HETATM   15  C   UNL     1       7.178   8.989  89.753  1.00  0.00    -0.059 C 
BRANCH  15  16
HETATM   16  C   UNL     1       8.132   7.926  89.701  1.00  0.00     0.042 A 
HETATM   17  C   UNL     1       9.358   8.120  89.065  1.00  0.00     0.008 A 
HETATM   18  C   UNL     1      10.290   7.083  89.017  1.00  0.00     0.005 A 
HETATM   19  C   UNL     1       9.975   5.877  89.606  1.00  0.00     0.056 A 
HETATM   20  C   UNL     1       8.770   5.659  90.240  1.00  0.00     0.005 A 
HETATM   21  C   UNL     1       7.837   6.695  90.288  1.00  0.00     0.008 A 
BRANCH  19  22
HETATM   22  C   UNL     1      10.967   4.771  89.553  1.00  0.00     0.254 C 
HETATM   23  O   UNL     1      11.108   4.142  88.507  1.00  0.00    -0.268 OA
HETATM   24  N   UNL     1      11.692   4.549  90.715  1.00  0.00    -0.335 N 
HETATM   25  HN  UNL     1      11.539   5.126  91.534  1.00  0.00     0.164 HD
BRANCH  24  26
HETATM   26  C   UNL     1      12.707   3.531  90.813  1.00  0.00     0.166 C 
BRANCH  26  27
HETATM   27  C   UNL     1      14.089   4.101  91.153  1.00  0.00     0.138 C 
HETATM   28  C   UNL     1      15.213   3.107  90.885  1.00  0.00     0.034 C 
BRANCH  27  29
HETATM   29  O   UNL     1      14.321   5.281  90.383  1.00  0.00    -0.383 OA
HETATM   30  H   UNL     1      14.861   5.040  89.611  1.00  0.00     0.210 HD
ENDBRANCH  27  29
ENDBRANCH  26  27
BRANCH  26  31
HETATM   31  C   UNL     1      12.252   2.520  91.861  1.00  0.00     0.181 C 
HETATM   32  O   UNL     1      12.785   1.421  92.007  1.00  0.00    -0.294 OA
BRANCH  31  33
HETATM   33  C   UNL     1      12.165   3.181  93.338  1.00  0.00     0.138 C 
BRANCH  33  34
HETATM   34  C   UNL     1      11.025   4.005  93.202  1.00  0.00     0.208 C 
HETATM   35  O   UNL     1      10.041   3.479  92.735  1.00  0.00    -0.289 OA
BRANCH  34  36
HETATM   36  C   UNL     1      10.736   5.218  93.765  1.00  0.00     0.194 C 
HETATM   37  O   UNL     1      10.283   6.403  93.174  1.00  0.00    -0.185 OA
ENDBRANCH  34  36
ENDBRANCH  33  34
ENDBRANCH  31  33
ENDBRANCH  26  31
ENDBRANCH  24  26
ENDBRANCH  19  22
ENDBRANCH  15  16
ENDBRANCH  11  14
ENDBRANCH   7   8
ENDBRANCH   2   7
TORSDOF 12
ENDMDL
MODEL 5
REMARK VINA RESULT:      -4.4      1.162      1.553
REMARK  12 active torsions:
REMARK  status: ('A' for Active; 'I' for Inactive)
REMARK    1  A    between atoms: O_2  and  C_16 
REMARK    2  A    between atoms: N_5  and  C_9 
REMARK    3  A    between atoms: N_6  and  C_13 
REMARK       I    between atoms: N_6  and  C_22 
REMARK    4  A    between atoms: C_9  and  C_12 
REMARK    5  A    between atoms: C_13  and  C_16 
REMARK    6  A    between atoms: C_13  and  C_21 
REMARK    7  A    between atoms: C_19  and  C_24 
REMARK    8  A    between atoms: C_21  and  C_33 
REMARK    9  A    between atoms: C_22  and  C_23 
REMARK   10  A    between atoms: C_27  and  C_30 
REMARK   11  A    between atoms: C_33  and  C_34 
REMARK   12  A    between atoms: C_34  and  C_35 
ROOT
HETATM    1  O   UNL     1      16.153   2.846  91.606  1.00  0.00    -0.350 OA
HETATM    2  N   UNL     1      13.746   3.140  93.097  1.00  0.00     0.147 N 
HETATM    3  C   UNL     1      14.831   2.260  93.555  1.00  0.00     0.283 C 
HETATM    4  C   UNL     1      13.758   3.232  91.631  1.00  0.00     0.283 C 
HETATM    5  C   UNL     1      16.170   2.775  93.033  1.00  0.00     0.178 C 
HETATM    6  C   UNL     1      15.121   3.723  91.154  1.00  0.00     0.178 C 
ENDROOT
BRANCH   2   7
HETATM    7  C   UNL     1      12.452   2.659  93.578  1.00  0.00     0.277 C 
BRANCH   7   8
HETATM    8  C   UNL     1      11.356   3.640  93.335  1.00  0.00     0.011 A 
HETATM    9  C   UNL     1      10.430   3.411  92.316  1.00  0.00    -0.002 A 
HETATM   10  C   UNL     1       9.406   4.329  92.086  1.00  0.00     0.008 A 
HETATM   11  C   UNL     1       9.306   5.474  92.877  1.00  0.00     0.042 A 
HETATM   12  C   UNL     1      10.230   5.702  93.894  1.00  0.00     0.008 A 
HETATM   13  C   UNL     1      11.255   4.785  94.124  1.00  0.00    -0.002 A 
BRANCH  11  14
HETATM   14  C   UNL     1       8.253   6.414  92.642  1.00  0.00    -0.059 C 
HETATM   15  C   UNL     1       7.368   7.204  92.446  1.00  0.00    -0.059 C 
BRANCH  15  16
HETATM   16  C   UNL     1       6.316   8.143  92.212  1.00  0.00     0.042 A 
HETATM   17  C   UNL     1       5.015   7.691  91.993  1.00  0.00     0.008 A 
HETATM   18  C   UNL     1       3.988   8.608  91.768  1.00  0.00     0.005 A 
HETATM   19  C   UNL     1       4.285   9.955  91.768  1.00  0.00     0.056 A 
HETATM   20  C   UNL     1       5.563  10.427  91.982  1.00  0.00     0.005 A 
HETATM   21  C   UNL     1       6.591   9.511  92.207  1.00  0.00     0.008 A 
BRANCH  19  22
HETATM   22  C   UNL     1       3.191  10.931  91.527  1.00  0.00     0.254 C 
HETATM   23  O   UNL     1       2.104  10.526  91.124  1.00  0.00    -0.268 OA
HETATM   24  N   UNL     1       3.488  12.258  91.807  1.00  0.00    -0.335 N 
HETATM   25  HN  UNL     1       4.401  12.516  92.161  1.00  0.00     0.164 HD
BRANCH  24  26
HETATM   26  C   UNL     1       2.525  13.318  91.647  1.00  0.00     0.166 C 
BRANCH  26  27
HETATM   27  C   UNL     1       2.671  14.418  92.706  1.00  0.00     0.138 C 
HETATM   28  C   UNL     1       1.372  14.680  93.459  1.00  0.00     0.034 C 
BRANCH  27  29
HETATM   29  O   UNL     1       3.683  14.046  93.643  1.00  0.00    -0.383 OA
HETATM   30  H   UNL     1       4.407  14.692  93.582  1.00  0.00     0.210 HD
ENDBRANCH  27  29
ENDBRANCH  26  27
BRANCH  26  31
HETATM   31  C   UNL     1       2.682  13.881  90.238  1.00  0.00     0.181 C 
HETATM   32  O   UNL     1       1.858  14.634  89.723  1.00  0.00    -0.294 OA
BRANCH  31  33
HETATM   33  C   UNL     1       4.129  14.581  90.027  1.00  0.00     0.138 C 
BRANCH  33  34
HETATM   34  C   UNL     1       4.577  13.934  88.854  1.00  0.00     0.208 C 
HETATM   35  O   UNL     1       5.582  14.380  88.351  1.00  0.00    -0.289 OA
BRANCH  34  36
HETATM   36  C   UNL     1       4.246  12.713  88.333  1.00  0.00     0.194 C 
HETATM   37  O   UNL     1       4.824  11.455  88.538  1.00  0.00    -0.185 OA
ENDBRANCH  34  36
ENDBRANCH  33  34
ENDBRANCH  31  33
ENDBRANCH  26  31
ENDBRANCH  24  26
ENDBRANCH  19  22
ENDBRANCH  15  16
ENDBRANCH  11  14
ENDBRANCH   7   8
ENDBRANCH   2   7
TORSDOF 12
ENDMDL
MODEL 6
REMARK VINA RESULT:      -3.6      1.901      2.841
REMARK  12 active torsions:
REMARK  status: ('A' for Active; 'I' for Inactive)
REMARK    1  A    between atoms: O_2  and  C_16 
REMARK    2  A    between atoms: N_5  and  C_9 
REMARK    3  A    between atoms: N_6  and  C_13 
REMARK       I    between atoms: N_6  and  C_22 
REMARK    4  A    between atoms: C_9  and  C_12 
REMARK    5  A    between atoms: C_13  and  C_16 
REMARK    6  A    between atoms: C_13  and  C_21 
REMARK    7  A    between atoms: C_19  and  C_24 
REMARK    8  A    between atoms: C_21  and  C_33 
REMARK    9  A    between atoms: C_22  and  C_23 
REMARK   10  A    between atoms: C_27  and  C_30 
REMARK   11  A    between atoms: C_33  and  C_34 
REMARK   12  A    between atoms: C_34  and  C_35 
ROOT
HETATM    1  O   UNL     1      16.819   3.817  93.162  1.00  0.00    -0.350 OA
HETATM    2  N   UNL     1      14.758   1.891  92.782  1.00  0.00     0.147 N 
HETATM    3  C   UNL     1      15.011   2.950  91.795  1.00  0.00     0.283 C 
HETATM    4  C   UNL     1      15.143   2.351  94.124  1.00  0.00     0.283 C 
HETATM    5  C   UNL     1      16.479   3.367  91.849  1.00  0.00     0.178 C 
HETATM    6  C   UNL     1      16.606   2.783  94.123  1.00  0.00     0.178 C 
ENDROOT
BRANCH   2   7
HETATM    7  C   UNL     1      13.355   1.482  92.755  1.00  0.00     0.277 C 
BRANCH   7   8
HETATM    8  C   UNL     1      12.426   2.646  92.675  1.00  0.00     0.011 A 
HETATM    9  C   UNL     1      12.359   3.557  93.729  1.00  0.00    -0.002 A 
HETATM   10  C   UNL     1      11.489   4.645  93.656  1.00  0.00     0.008 A 
HETATM   11  C   UNL     1      10.688   4.822  92.528  1.00  0.00     0.042 A 
HETATM   12  C   UNL     1      10.755   3.912  91.474  1.00  0.00     0.008 A 
HETATM   13  C   UNL     1      11.625   2.824  91.547  1.00  0.00    -0.002 A 
BRANCH  11  14
HETATM   14  C   UNL     1       9.797   5.938  92.452  1.00  0.00    -0.059 C 
HETATM   15  C   UNL     1       9.049   6.877  92.389  1.00  0.00    -0.059 C 
BRANCH  15  16
HETATM   16  C   UNL     1       8.159   7.994  92.314  1.00  0.00     0.042 A 
HETATM   17  C   UNL     1       8.476   9.083  91.501  1.00  0.00     0.008 A 
HETATM   18  C   UNL     1       7.606  10.171  91.426  1.00  0.00     0.005 A 
HETATM   19  C   UNL     1       6.441  10.146  92.163  1.00  0.00     0.056 A 
HETATM   20  C   UNL     1       6.106   9.082  92.973  1.00  0.00     0.005 A 
HETATM   21  C   UNL     1       6.974   7.993  93.050  1.00  0.00     0.008 A 
BRANCH  19  22
HETATM   22  C   UNL     1       5.516  11.306  92.083  1.00  0.00     0.254 C 
HETATM   23  O   UNL     1       5.168  11.867  93.119  1.00  0.00    -0.268 OA
HETATM   24  N   UNL     1       5.129  11.689  90.807  1.00  0.00    -0.335 N 
HETATM   25  HN  UNL     1       5.478  11.193  89.995  1.00  0.00     0.164 HD
BRANCH  24  26
HETATM   26  C   UNL     1       4.256  12.809  90.564  1.00  0.00     0.166 C 
BRANCH  26  27
HETATM   27  C   UNL     1       4.999  14.032  90.012  1.00  0.00     0.138 C 
HETATM   28  C   UNL     1       5.764  13.720  88.730  1.00  0.00     0.034 C 
BRANCH  27  29
HETATM   29  O   UNL     1       4.066  15.080  89.751  1.00  0.00    -0.383 OA
HETATM   30  H   UNL     1       3.691  15.372  90.599  1.00  0.00     0.210 HD
ENDBRANCH  27  29
ENDBRANCH  26  27
BRANCH  26  31
HETATM   31  C   UNL     1       3.160  12.347  89.609  1.00  0.00     0.181 C 
HETATM   32  O   UNL     1       2.349  13.118  89.098  1.00  0.00    -0.294 OA
BRANCH  31  33
HETATM   33  C   UNL     1       3.756  11.450  88.398  1.00  0.00     0.138 C 
BRANCH  33  34
HETATM   34  C   UNL     1       3.141  10.204  88.652  1.00  0.00     0.208 C 
HETATM   35  O   UNL     1       2.080  10.012  88.104  1.00  0.00    -0.289 OA
BRANCH  34  36
HETATM   36  C   UNL     1       3.655   9.052  89.181  1.00  0.00     0.194 C 
HETATM   37  O   UNL     1       3.754   7.769  88.629  1.00  0.00    -0.185 OA
ENDBRANCH  34  36
ENDBRANCH  33  34
ENDBRANCH  31  33
ENDBRANCH  26  31
ENDBRANCH  24  26
ENDBRANCH  19  22
ENDBRANCH  15  16
ENDBRANCH  11  14
ENDBRANCH   7   8
ENDBRANCH   2   7
TORSDOF 12
ENDMDL
MODEL 7
REMARK VINA RESULT:      -3.4      1.575      3.146
REMARK  12 active torsions:
REMARK  status: ('A' for Active; 'I' for Inactive)
REMARK    1  A    between atoms: O_2  and  C_16 
REMARK    2  A    between atoms: N_5  and  C_9 
REMARK    3  A    between atoms: N_6  and  C_13 
REMARK       I    between atoms: N_6  and  C_22 
REMARK    4  A    between atoms: C_9  and  C_12 
REMARK    5  A    between atoms: C_13  and  C_16 
REMARK    6  A    between atoms: C_13  and  C_21 
REMARK    7  A    between atoms: C_19  and  C_24 
REMARK    8  A    between atoms: C_21  and  C_33 
REMARK    9  A    between atoms: C_22  and  C_23 
REMARK   10  A    between atoms: C_27  and  C_30 
REMARK   11  A    between atoms: C_33  and  C_34 
REMARK   12  A    between atoms: C_34  and  C_35 
ROOT
HETATM    1  O   UNL     1      16.820   3.692  92.963  1.00  0.00    -0.350 OA
HETATM    2  N   UNL     1      14.731   1.764  92.817  1.00  0.00     0.147 N 
HETATM    3  C   UNL     1      15.169   2.513  91.631  1.00  0.00     0.283 C 
HETATM    4  C   UNL     1      14.955   2.564  94.029  1.00  0.00     0.283 C 
HETATM    5  C   UNL     1      16.635   2.908  91.782  1.00  0.00     0.178 C 
HETATM    6  C   UNL     1      16.426   2.959  94.124  1.00  0.00     0.178 C 
ENDROOT
BRANCH   2   7
HETATM    7  C   UNL     1      13.324   1.383  92.699  1.00  0.00     0.277 C 
BRANCH   7   8
HETATM    8  C   UNL     1      12.423   2.566  92.596  1.00  0.00     0.011 A 
HETATM    9  C   UNL     1      12.426   3.534  93.601  1.00  0.00    -0.002 A 
HETATM   10  C   UNL     1      11.581   4.640  93.508  1.00  0.00     0.008 A 
HETATM   11  C   UNL     1      10.735   4.778  92.408  1.00  0.00     0.042 A 
HETATM   12  C   UNL     1      10.731   3.813  91.403  1.00  0.00     0.008 A 
HETATM   13  C   UNL     1      11.575   2.706  91.497  1.00  0.00    -0.002 A 
BRANCH  11  14
HETATM   14  C   UNL     1       9.870   5.914  92.310  1.00  0.00    -0.059 C 
HETATM   15  C   UNL     1       9.144   6.868  92.230  1.00  0.00    -0.059 C 
BRANCH  15  16
HETATM   16  C   UNL     1       8.280   8.004  92.133  1.00  0.00     0.042 A 
HETATM   17  C   UNL     1       8.661   9.105  91.365  1.00  0.00     0.008 A 
HETATM   18  C   UNL     1       7.817  10.211  91.269  1.00  0.00     0.005 A 
HETATM   19  C   UNL     1       6.613  10.192  91.940  1.00  0.00     0.056 A 
HETATM   20  C   UNL     1       6.214   9.116  92.705  1.00  0.00     0.005 A 
HETATM   21  C   UNL     1       7.057   8.009  92.803  1.00  0.00     0.008 A 
BRANCH  19  22
HETATM   22  C   UNL     1       5.715  11.371  91.839  1.00  0.00     0.254 C 
HETATM   23  O   UNL     1       5.397  11.973  92.862  1.00  0.00    -0.268 OA
HETATM   24  N   UNL     1       5.316  11.723  90.557  1.00  0.00    -0.335 N 
HETATM   25  HN  UNL     1       5.640  11.194  89.755  1.00  0.00     0.164 HD
BRANCH  24  26
HETATM   26  C   UNL     1       4.467  12.857  90.292  1.00  0.00     0.166 C 
BRANCH  26  27
HETATM   27  C   UNL     1       4.874  13.622  89.027  1.00  0.00     0.138 C 
HETATM   28  C   UNL     1       5.300  15.056  89.324  1.00  0.00     0.034 C 
BRANCH  27  29
HETATM   29  O   UNL     1       5.952  12.942  88.385  1.00  0.00    -0.383 OA
HETATM   30  H   UNL     1       5.834  13.023  87.423  1.00  0.00     0.210 HD
ENDBRANCH  27  29
ENDBRANCH  26  27
BRANCH  26  31
HETATM   31  C   UNL     1       3.031  12.350  90.195  1.00  0.00     0.181 C 
HETATM   32  O   UNL     1       2.706  11.389  89.501  1.00  0.00    -0.294 OA
BRANCH  31  33
HETATM   33  C   UNL     1       2.384  12.091  91.659  1.00  0.00     0.138 C 
BRANCH  33  34
HETATM   34  C   UNL     1       2.104  13.413  92.072  1.00  0.00     0.208 C 
HETATM   35  O   UNL     1       1.189  13.544  92.852  1.00  0.00    -0.289 OA
BRANCH  34  36
HETATM   36  C   UNL     1       2.857  14.551  91.976  1.00  0.00     0.194 C 
HETATM   37  O   UNL     1       3.202  15.492  92.952  1.00  0.00    -0.185 OA
ENDBRANCH  34  36
ENDBRANCH  33  34
ENDBRANCH  31  33
ENDBRANCH  26  31
ENDBRANCH  24  26
ENDBRANCH  19  22
ENDBRANCH  15  16
ENDBRANCH  11  14
ENDBRANCH   7   8
ENDBRANCH   2   7
TORSDOF 12
ENDMDL
MODEL 8
REMARK VINA RESULT:      -3.3      2.427     12.917
REMARK  12 active torsions:
REMARK  status: ('A' for Active; 'I' for Inactive)
REMARK    1  A    between atoms: O_2  and  C_16 
REMARK    2  A    between atoms: N_5  and  C_9 
REMARK    3  A    between atoms: N_6  and  C_13 
REMARK       I    between atoms: N_6  and  C_22 
REMARK    4  A    between atoms: C_9  and  C_12 
REMARK    5  A    between atoms: C_13  and  C_16 
REMARK    6  A    between atoms: C_13  and  C_21 
REMARK    7  A    between atoms: C_19  and  C_24 
REMARK    8  A    between atoms: C_21  and  C_33 
REMARK    9  A    between atoms: C_22  and  C_23 
REMARK   10  A    between atoms: C_27  and  C_30 
REMARK   11  A    between atoms: C_33  and  C_34 
REMARK   12  A    between atoms: C_34  and  C_35 
ROOT
HETATM    1  O   UNL     1       2.874  15.065  93.994  1.00  0.00    -0.350 OA
HETATM    2  N   UNL     1       2.642  14.701  91.181  1.00  0.00     0.147 N 
HETATM    3  C   UNL     1       1.644  14.154  92.111  1.00  0.00     0.283 C 
HETATM    4  C   UNL     1       3.953  14.784  91.840  1.00  0.00     0.283 C 
HETATM    5  C   UNL     1       1.588  15.011  93.372  1.00  0.00     0.178 C 
HETATM    6  C   UNL     1       3.843  15.625  93.107  1.00  0.00     0.178 C 
ENDROOT
BRANCH   2   7
HETATM    7  C   UNL     1       2.720  13.888  89.968  1.00  0.00     0.277 C 
BRANCH   7   8
HETATM    8  C   UNL     1       3.683  12.758  90.103  1.00  0.00     0.011 A 
HETATM    9  C   UNL     1       3.274  11.562  90.693  1.00  0.00    -0.002 A 
HETATM   10  C   UNL     1       4.175  10.504  90.822  1.00  0.00     0.008 A 
HETATM   11  C   UNL     1       5.483  10.643  90.358  1.00  0.00     0.042 A 
HETATM   12  C   UNL     1       5.892  11.838  89.769  1.00  0.00     0.008 A 
HETATM   13  C   UNL     1       4.992  12.895  89.641  1.00  0.00    -0.002 A 
BRANCH  11  14
HETATM   14  C   UNL     1       6.406   9.558  90.489  1.00  0.00    -0.059 C 
HETATM   15  C   UNL     1       7.181   8.645  90.597  1.00  0.00    -0.059 C 
BRANCH  15  16
HETATM   16  C   UNL     1       8.103   7.561  90.727  1.00  0.00     0.042 A 
HETATM   17  C   UNL     1       9.021   7.302  89.708  1.00  0.00     0.008 A 
HETATM   18  C   UNL     1       9.923   6.246  89.835  1.00  0.00     0.005 A 
HETATM   19  C   UNL     1       9.887   5.473  90.977  1.00  0.00     0.056 A 
HETATM   20  C   UNL     1       8.990   5.708  91.998  1.00  0.00     0.005 A 
HETATM   21  C   UNL     1       8.088   6.764  91.871  1.00  0.00     0.008 A 
BRANCH  19  22
HETATM   22  C   UNL     1      10.847   4.346  91.112  1.00  0.00     0.254 C 
HETATM   23  O   UNL     1      11.147   3.692  90.116  1.00  0.00    -0.268 OA
HETATM   24  N   UNL     1      11.360   4.133  92.383  1.00  0.00    -0.335 N 
HETATM   25  HN  UNL     1      11.085   4.731  93.154  1.00  0.00     0.164 HD
BRANCH  24  26
HETATM   26  C   UNL     1      12.319   3.096  92.669  1.00  0.00     0.166 C 
BRANCH  26  27
HETATM   27  C   UNL     1      12.061   1.813  91.869  1.00  0.00     0.138 C 
HETATM   28  C   UNL     1      13.171   0.782  92.045  1.00  0.00     0.034 C 
BRANCH  27  29
HETATM   29  O   UNL     1      10.822   1.235  92.279  1.00  0.00    -0.383 OA
HETATM   30  H   UNL     1      10.981   0.303  92.506  1.00  0.00     0.210 HD
ENDBRANCH  27  29
ENDBRANCH  26  27
BRANCH  26  31
HETATM   31  C   UNL     1      13.709   3.656  92.387  1.00  0.00     0.181 C 
HETATM   32  O   UNL     1      13.959   4.373  91.420  1.00  0.00    -0.294 OA
BRANCH  31  33
HETATM   33  C   UNL     1      14.329   4.410  93.681  1.00  0.00     0.138 C 
BRANCH  33  34
HETATM   34  C   UNL     1      15.431   3.579  93.980  1.00  0.00     0.208 C 
HETATM   35  O   UNL     1      15.252   2.390  93.849  1.00  0.00    -0.289 OA
BRANCH  34  36
HETATM   36  C   UNL     1      16.758   3.881  94.121  1.00  0.00     0.194 C 
HETATM   37  O   UNL     1      17.883   3.051  94.083  1.00  0.00    -0.185 OA
ENDBRANCH  34  36
ENDBRANCH  33  34
ENDBRANCH  31  33
ENDBRANCH  26  31
ENDBRANCH  24  26
ENDBRANCH  19  22
ENDBRANCH  15  16
ENDBRANCH  11  14
ENDBRANCH   7   8
ENDBRANCH   2   7
TORSDOF 12
ENDMDL
MODEL 9
REMARK VINA RESULT:      -3.2      1.924      3.444
REMARK  12 active torsions:
REMARK  status: ('A' for Active; 'I' for Inactive)
REMARK    1  A    between atoms: O_2  and  C_16 
REMARK    2  A    between atoms: N_5  and  C_9 
REMARK    3  A    between atoms: N_6  and  C_13 
REMARK       I    between atoms: N_6  and  C_22 
REMARK    4  A    between atoms: C_9  and  C_12 
REMARK    5  A    between atoms: C_13  and  C_16 
REMARK    6  A    between atoms: C_13  and  C_21 
REMARK    7  A    between atoms: C_19  and  C_24 
REMARK    8  A    between atoms: C_21  and  C_33 
REMARK    9  A    between atoms: C_22  and  C_23 
REMARK   10  A    between atoms: C_27  and  C_30 
REMARK   11  A    between atoms: C_33  and  C_34 
REMARK   12  A    between atoms: C_34  and  C_35 
ROOT
HETATM    1  O   UNL     1      17.464   3.537  92.635  1.00  0.00    -0.350 OA
HETATM    2  N   UNL     1      15.319   1.837  93.416  1.00  0.00     0.147 N 
HETATM    3  C   UNL     1      15.742   1.943  92.013  1.00  0.00     0.283 C 
HETATM    4  C   UNL     1      15.601   3.093  94.124  1.00  0.00     0.283 C 
HETATM    5  C   UNL     1      17.223   2.308  91.947  1.00  0.00     0.178 C 
HETATM    6  C   UNL     1      17.083   3.432  94.007  1.00  0.00     0.178 C 
ENDROOT
BRANCH   2   7
HETATM    7  C   UNL     1      13.899   1.498  93.504  1.00  0.00     0.277 C 
BRANCH   7   8
HETATM    8  C   UNL     1      13.022   2.593  93.001  1.00  0.00     0.011 A 
HETATM    9  C   UNL     1      12.454   2.502  91.730  1.00  0.00    -0.002 A 
HETATM   10  C   UNL     1      11.635   3.527  91.257  1.00  0.00     0.008 A 
HETATM   11  C   UNL     1      11.382   4.641  92.057  1.00  0.00     0.042 A 
HETATM   12  C   UNL     1      11.948   4.733  93.327  1.00  0.00     0.008 A 
HETATM   13  C   UNL     1      12.768   3.708  93.799  1.00  0.00    -0.002 A 
BRANCH  11  14
HETATM   14  C   UNL     1      10.539   5.691  91.573  1.00  0.00    -0.059 C 
HETATM   15  C   UNL     1       9.832   6.575  91.166  1.00  0.00    -0.059 C 
BRANCH  15  16
HETATM   16  C   UNL     1       8.991   7.624  90.681  1.00  0.00     0.042 A 
HETATM   17  C   UNL     1       8.204   7.419  89.547  1.00  0.00     0.008 A 
HETATM   18  C   UNL     1       7.382   8.442  89.076  1.00  0.00     0.005 A 
HETATM   19  C   UNL     1       7.363   9.646  89.749  1.00  0.00     0.056 A 
HETATM   20  C   UNL     1       8.131   9.873  90.872  1.00  0.00     0.005 A 
HETATM   21  C   UNL     1       8.954   8.851  91.344  1.00  0.00     0.008 A 
BRANCH  19  22
HETATM   22  C   UNL     1       6.488  10.736  89.246  1.00  0.00     0.254 C 
HETATM   23  O   UNL     1       6.997  11.791  88.877  1.00  0.00    -0.268 OA
HETATM   24  N   UNL     1       5.129  10.457  89.210  1.00  0.00    -0.335 N 
HETATM   25  HN  UNL     1       4.783   9.552  89.508  1.00  0.00     0.164 HD
BRANCH  24  26
HETATM   26  C   UNL     1       4.155  11.402  88.725  1.00  0.00     0.166 C 
BRANCH  26  27
HETATM   27  C   UNL     1       3.157  10.776  87.743  1.00  0.00     0.138 C 
HETATM   28  C   UNL     1       2.887   9.306  88.044  1.00  0.00     0.034 C 
BRANCH  27  29
HETATM   29  O   UNL     1       1.925  11.494  87.793  1.00  0.00    -0.383 OA
HETATM   30  H   UNL     1       1.348  11.064  88.447  1.00  0.00     0.210 HD
ENDBRANCH  27  29
ENDBRANCH  26  27
BRANCH  26  31
HETATM   31  C   UNL     1       3.443  11.999  89.935  1.00  0.00     0.181 C 
HETATM   32  O   UNL     1       2.693  11.347  90.659  1.00  0.00    -0.294 OA
BRANCH  31  33
HETATM   33  C   UNL     1       4.474  12.765  90.923  1.00  0.00     0.138 C 
BRANCH  33  34
HETATM   34  C   UNL     1       4.215  14.115  90.597  1.00  0.00     0.208 C 
HETATM   35  O   UNL     1       3.531  14.303  89.617  1.00  0.00    -0.289 OA
BRANCH  34  36
HETATM   36  C   UNL     1       4.356  15.252  91.344  1.00  0.00     0.194 C 
HETATM   37  O   UNL     1       3.773  15.610  92.564  1.00  0.00    -0.185 OA
ENDBRANCH  34  36
ENDBRANCH  33  34
ENDBRANCH  31  33
ENDBRANCH  26  31
ENDBRANCH  24  26
ENDBRANCH  19  22
ENDBRANCH  15  16
ENDBRANCH  11  14
ENDBRANCH   7   8
ENDBRANCH   2   7
TORSDOF 12
ENDMDL
