MODEL 1
REMARK VINA RESULT:      -7.0      0.000      0.000
REMARK  10 active torsions:
REMARK  status: ('A' for Active; 'I' for Inactive)
REMARK    1  A    between atoms: O_2  and  C_18 
REMARK    2  A    between atoms: O_5  and  N_8 
REMARK    3  A    between atoms: N_6  and  C_11 
REMARK    4  A    between atoms: N_7  and  C_15 
REMARK       I    between atoms: N_7  and  C_24 
REMARK       I    between atoms: N_8  and  C_23 
REMARK    5  A    between atoms: C_11  and  C_14 
REMARK    6  A    between atoms: C_15  and  C_18 
REMARK    7  A    between atoms: C_15  and  C_23 
REMARK    8  A    between atoms: C_21  and  C_26 
REMARK    9  A    between atoms: C_24  and  C_25 
REMARK   10  A    between atoms: C_29  and  C_32 
ROOT
HETATM    1  O   UNK     0      16.505   4.435  94.073  0.00  0.00    -0.388 OA
HETATM    2  N   UNK     0      14.794   2.671  92.637  0.00  0.00     0.096 N 
HETATM    3  C   UNK     0      14.615   4.128  92.582  0.00  0.00     0.299 C 
HETATM    4  C   UNK     0      15.390   2.285  93.923  0.00  0.00     0.299 C 
HETATM    5  C   UNK     0      15.955   4.823  92.813  0.00  0.00     0.198 C 
HETATM    6  C   UNK     0      16.711   3.023  94.123  0.00  0.00     0.198 C 
ENDROOT
BRANCH   2   7
HETATM    7  C   UNK     0      13.520   1.985  92.429  0.00  0.00     0.311 C 
BRANCH   7   8
HETATM    8  C   UNK     0      12.406   2.931  92.139  0.00  0.00    -0.030 A 
HETATM    9  C   UNK     0      11.870   3.710  93.166  0.00  0.00     0.010 A 
HETATM   10  C   UNK     0      10.825   4.595  92.897  0.00  0.00     0.021 A 
HETATM   11  C   UNK     0      10.319   4.702  91.602  0.00  0.00     0.018 A 
HETATM   12  C   UNK     0      10.854   3.925  90.576  0.00  0.00     0.021 A 
HETATM   13  C   UNK     0      11.898   3.039  90.845  0.00  0.00     0.010 A 
BRANCH  11  14
HETATM   14  C   UNK     0       9.250   5.611  91.326  0.00  0.00    -0.061 C 
HETATM   15  C   UNK     0       8.351   6.374  91.093  0.00  0.00    -0.061 C 
BRANCH  15  16
HETATM   16  C   UNK     0       7.283   7.283  90.817  0.00  0.00     0.018 A 
HETATM   17  C   UNK     0       5.988   6.986  91.243  0.00  0.00     0.022 A 
HETATM   18  C   UNK     0       4.946   7.874  90.975  0.00  0.00     0.018 A 
HETATM   19  C   UNK     0       5.221   9.038  90.289  0.00  0.00     0.032 A 
HETATM   20  C   UNK     0       6.492   9.355  89.857  0.00  0.00     0.018 A 
HETATM   21  C   UNK     0       7.534   8.467  90.123  0.00  0.00     0.022 A 
BRANCH  19  22
HETATM   22  C   UNK     0       4.111   9.983  90.003  0.00  0.00     0.252 C 
HETATM   23  O   UNK     0       3.032   9.540  89.615  0.00  0.00    -0.268 OA
HETATM   24  N   UNK     0       4.382  11.326  90.225  0.00  0.00    -0.341 N 
HETATM   25  H   UNK     0       5.290  11.615  90.570  0.00  0.00     0.163 HD
BRANCH  24  26
HETATM   26  C   UNK     0       3.400  12.360  90.017  0.00  0.00     0.207 C 
BRANCH  26  27
HETATM   27  C   UNK     0       3.010  13.078  91.315  0.00  0.00     0.146 C 
HETATM   28  C   UNK     0       2.488  12.119  92.379  0.00  0.00     0.042 C 
BRANCH  27  29
HETATM   29  O   UNK     0       4.143  13.774  91.834  0.00  0.00    -0.393 OA
HETATM   30  H   UNK     0       3.833  14.398  92.512  0.00  0.00     0.210 HD
ENDBRANCH  27  29
ENDBRANCH  26  27
BRANCH  26  31
HETATM   31  C   UNK     0       3.964  13.337  88.990  0.00  0.00     0.266 C 
HETATM   32  O   UNK     0       4.089  14.541  89.209  0.00  0.00    -0.269 OA
HETATM   33  N   UNK     0       4.271  12.721  87.801  0.00  0.00    -0.236 N 
HETATM   34  H   UNK     0       4.098  11.753  87.557  0.00  0.00     0.197 HD
BRANCH  33  35
HETATM   35  O   UNK     0       4.760  13.559  86.789  0.00  0.00    -0.287 OA
HETATM   36  H   UNK     0       4.635  12.986  86.013  0.00  0.00     0.244 HD
ENDBRANCH  33  35
ENDBRANCH  26  31
ENDBRANCH  24  26
ENDBRANCH  19  22
ENDBRANCH  15  16
ENDBRANCH  11  14
ENDBRANCH   7   8
ENDBRANCH   2   7
TORSDOF 10
ENDMDL
MODEL 2
REMARK VINA RESULT:      -6.7      1.492      2.143
REMARK  10 active torsions:
REMARK  status: ('A' for Active; 'I' for Inactive)
REMARK    1  A    between atoms: O_2  and  C_18 
REMARK    2  A    between atoms: O_5  and  N_8 
REMARK    3  A    between atoms: N_6  and  C_11 
REMARK    4  A    between atoms: N_7  and  C_15 
REMARK       I    between atoms: N_7  and  C_24 
REMARK       I    between atoms: N_8  and  C_23 
REMARK    5  A    between atoms: C_11  and  C_14 
REMARK    6  A    between atoms: C_15  and  C_18 
REMARK    7  A    between atoms: C_15  and  C_23 
REMARK    8  A    between atoms: C_21  and  C_26 
REMARK    9  A    between atoms: C_24  and  C_25 
REMARK   10  A    between atoms: C_29  and  C_32 
ROOT
HETATM    1  O   UNK     0      16.472   3.107  93.725  0.00  0.00    -0.388 OA
HETATM    2  N   UNK     0      13.823   2.889  92.706  0.00  0.00     0.096 N 
HETATM    3  C   UNK     0      14.626   1.698  93.019  0.00  0.00     0.299 C 
HETATM    4  C   UNK     0      14.702   4.003  92.329  0.00  0.00     0.299 C 
HETATM    5  C   UNK     0      15.627   2.026  94.124  0.00  0.00     0.198 C 
HETATM    6  C   UNK     0      15.702   4.277  93.449  0.00  0.00     0.198 C 
ENDROOT
BRANCH   2   7
HETATM    7  C   UNK     0      12.864   2.601  91.641  0.00  0.00     0.311 C 
BRANCH   7   8
HETATM    8  C   UNK     0      11.746   3.586  91.602  0.00  0.00    -0.030 A 
HETATM    9  C   UNK     0      11.203   3.975  90.377  0.00  0.00     0.010 A 
HETATM   10  C   UNK     0      10.159   4.899  90.339  0.00  0.00     0.021 A 
HETATM   11  C   UNK     0       9.657   5.431  91.526  0.00  0.00     0.018 A 
HETATM   12  C   UNK     0      10.198   5.044  92.750  0.00  0.00     0.021 A 
HETATM   13  C   UNK     0      11.243   4.121  92.788  0.00  0.00     0.010 A 
BRANCH  11  14
HETATM   14  C   UNK     0       8.584   6.377  91.487  0.00  0.00    -0.061 C 
HETATM   15  C   UNK     0       7.682   7.172  91.455  0.00  0.00    -0.061 C 
BRANCH  15  16
HETATM   16  C   UNK     0       6.610   8.116  91.415  0.00  0.00     0.018 A 
HETATM   17  C   UNK     0       5.831   8.237  90.264  0.00  0.00     0.022 A 
HETATM   18  C   UNK     0       4.783   9.157  90.225  0.00  0.00     0.018 A 
HETATM   19  C   UNK     0       4.537   9.934  91.338  0.00  0.00     0.032 A 
HETATM   20  C   UNK     0       5.292   9.834  92.487  0.00  0.00     0.018 A 
HETATM   21  C   UNK     0       6.341   8.915  92.526  0.00  0.00     0.022 A 
BRANCH  19  22
HETATM   22  C   UNK     0       3.422  10.915  91.295  0.00  0.00     0.252 C 
HETATM   23  O   UNK     0       2.323  10.556  90.878  0.00  0.00    -0.268 OA
HETATM   24  N   UNK     0       3.713  12.187  91.767  0.00  0.00    -0.341 N 
HETATM   25  H   UNK     0       4.638  12.404  92.120  0.00  0.00     0.163 HD
BRANCH  24  26
HETATM   26  C   UNK     0       2.731  13.241  91.813  0.00  0.00     0.207 C 
BRANCH  26  27
HETATM   27  C   UNK     0       2.752  14.014  93.137  0.00  0.00     0.146 C 
HETATM   28  C   UNK     0       3.961  13.665  93.998  0.00  0.00     0.042 C 
BRANCH  27  29
HETATM   29  O   UNK     0       2.762  15.416  92.872  0.00  0.00    -0.393 OA
HETATM   30  H   UNK     0       3.473  15.821  93.397  0.00  0.00     0.210 HD
ENDBRANCH  27  29
ENDBRANCH  26  27
BRANCH  26  31
HETATM   31  C   UNK     0       2.985  14.166  90.627  0.00  0.00     0.266 C 
HETATM   32  O   UNK     0       2.114  14.461  89.810  0.00  0.00    -0.269 OA
HETATM   33  N   UNK     0       4.291  14.587  90.567  0.00  0.00    -0.236 N 
HETATM   34  H   UNK     0       5.051  14.294  91.169  0.00  0.00     0.197 HD
BRANCH  33  35
HETATM   35  O   UNK     0       4.617  15.413  89.482  0.00  0.00    -0.287 OA
HETATM   36  H   UNK     0       3.904  15.177  88.863  0.00  0.00     0.244 HD
ENDBRANCH  33  35
ENDBRANCH  26  31
ENDBRANCH  24  26
ENDBRANCH  19  22
ENDBRANCH  15  16
ENDBRANCH  11  14
ENDBRANCH   7   8
ENDBRANCH   2   7
TORSDOF 10
ENDMDL
MODEL 3
REMARK VINA RESULT:      -6.4      1.823      2.757
REMARK  10 active torsions:
REMARK  status: ('A' for Active; 'I' for Inactive)
REMARK    1  A    between atoms: O_2  and  C_18 
REMARK    2  A    between atoms: O_5  and  N_8 
REMARK    3  A    between atoms: N_6  and  C_11 
REMARK    4  A    between atoms: N_7  and  C_15 
REMARK       I    between atoms: N_7  and  C_24 
REMARK       I    between atoms: N_8  and  C_23 
REMARK    5  A    between atoms: C_11  and  C_14 
REMARK    6  A    between atoms: C_15  and  C_18 
REMARK    7  A    between atoms: C_15  and  C_23 
REMARK    8  A    between atoms: C_21  and  C_26 
REMARK    9  A    between atoms: C_24  and  C_25 
REMARK   10  A    between atoms: C_29  and  C_32 
ROOT
HETATM    1  O   UNK     0      16.479   4.029  93.940  0.00  0.00    -0.388 OA
HETATM    2  N   UNK     0      14.449   2.563  92.585  0.00  0.00     0.096 N 
HETATM    3  C   UNK     0      14.604   4.012  92.398  0.00  0.00     0.299 C 
HETATM    4  C   UNK     0      14.912   2.176  93.925  0.00  0.00     0.299 C 
HETATM    5  C   UNK     0      16.060   4.410  92.628  0.00  0.00     0.198 C 
HETATM    6  C   UNK     0      16.360   2.617  94.119  0.00  0.00     0.198 C 
ENDROOT
BRANCH   2   7
HETATM    7  C   UNK     0      13.058   2.161  92.380  0.00  0.00     0.311 C 
BRANCH   7   8
HETATM    8  C   UNK     0      12.122   3.320  92.409  0.00  0.00    -0.030 A 
HETATM    9  C   UNK     0      11.861   3.976  93.613  0.00  0.00     0.010 A 
HETATM   10  C   UNK     0      10.983   5.059  93.642  0.00  0.00     0.021 A 
HETATM   11  C   UNK     0      10.368   5.488  92.466  0.00  0.00     0.018 A 
HETATM   12  C   UNK     0      10.628   4.834  91.263  0.00  0.00     0.021 A 
HETATM   13  C   UNK     0      11.505   3.750  91.234  0.00  0.00     0.010 A 
BRANCH  11  14
HETATM   14  C   UNK     0       9.469   6.601  92.495  0.00  0.00    -0.061 C 
HETATM   15  C   UNK     0       8.714   7.536  92.519  0.00  0.00    -0.061 C 
BRANCH  15  16
HETATM   16  C   UNK     0       7.817   8.648  92.547  0.00  0.00     0.018 A 
HETATM   17  C   UNK     0       7.516   9.331  91.368  0.00  0.00     0.022 A 
HETATM   18  C   UNK     0       6.640  10.415  91.395  0.00  0.00     0.018 A 
HETATM   19  C   UNK     0       6.083  10.793  92.599  0.00  0.00     0.032 A 
HETATM   20  C   UNK     0       6.364  10.135  93.778  0.00  0.00     0.018 A 
HETATM   21  C   UNK     0       7.242   9.051  93.752  0.00  0.00     0.022 A 
BRANCH  19  22
HETATM   22  C   UNK     0       5.151  11.949  92.627  0.00  0.00     0.252 C 
HETATM   23  O   UNK     0       4.735  12.358  93.709  0.00  0.00    -0.268 OA
HETATM   24  N   UNK     0       4.834  12.506  91.396  0.00  0.00    -0.341 N 
HETATM   25  H   UNK     0       5.236  12.130  90.545  0.00  0.00     0.163 HD
BRANCH  24  26
HETATM   26  C   UNK     0       3.963  13.646  91.260  0.00  0.00     0.207 C 
BRANCH  26  27
HETATM   27  C   UNK     0       3.975  14.237  89.845  0.00  0.00     0.146 C 
HETATM   28  C   UNK     0       5.250  13.897  89.081  0.00  0.00     0.042 C 
BRANCH  27  29
HETATM   29  O   UNK     0       2.852  13.747  89.114  0.00  0.00    -0.393 OA
HETATM   30  H   UNK     0       3.053  13.813  88.165  0.00  0.00     0.210 HD
ENDBRANCH  27  29
ENDBRANCH  26  27
BRANCH  26  31
HETATM   31  C   UNK     0       2.560  13.210  91.668  0.00  0.00     0.266 C 
HETATM   32  O   UNK     0       1.660  14.008  91.926  0.00  0.00    -0.269 OA
HETATM   33  N   UNK     0       2.442  11.844  91.746  0.00  0.00    -0.236 N 
HETATM   34  H   UNK     0       3.183  11.163  91.627  0.00  0.00     0.197 HD
BRANCH  33  35
HETATM   35  O   UNK     0       1.190  11.362  92.152  0.00  0.00    -0.287 OA
HETATM   36  H   UNK     0       1.427  10.453  92.406  0.00  0.00     0.244 HD
ENDBRANCH  33  35
ENDBRANCH  26  31
ENDBRANCH  24  26
ENDBRANCH  19  22
ENDBRANCH  15  16
ENDBRANCH  11  14
ENDBRANCH   7   8
ENDBRANCH   2   7
TORSDOF 10
ENDMDL
MODEL 4
REMARK VINA RESULT:      -5.6      1.945      2.357
REMARK  10 active torsions:
REMARK  status: ('A' for Active; 'I' for Inactive)
REMARK    1  A    between atoms: O_2  and  C_18 
REMARK    2  A    between atoms: O_5  and  N_8 
REMARK    3  A    between atoms: N_6  and  C_11 
REMARK    4  A    between atoms: N_7  and  C_15 
REMARK       I    between atoms: N_7  and  C_24 
REMARK       I    between atoms: N_8  and  C_23 
REMARK    5  A    between atoms: C_11  and  C_14 
REMARK    6  A    between atoms: C_15  and  C_18 
REMARK    7  A    between atoms: C_15  and  C_23 
REMARK    8  A    between atoms: C_21  and  C_26 
REMARK    9  A    between atoms: C_24  and  C_25 
REMARK   10  A    between atoms: C_29  and  C_32 
ROOT
HETATM    1  O   UNK     0      16.511   4.278  93.908  0.00  0.00    -0.388 OA
HETATM    2  N   UNK     0      14.604   2.769  92.430  0.00  0.00     0.096 N 
HETATM    3  C   UNK     0      14.678   4.232  92.318  0.00  0.00     0.299 C 
HETATM    4  C   UNK     0      15.057   2.342  93.760  0.00  0.00     0.299 C 
HETATM    5  C   UNK     0      16.103   4.700  92.605  0.00  0.00     0.198 C 
HETATM    6  C   UNK     0      16.471   2.855  94.015  0.00  0.00     0.198 C 
ENDROOT
BRANCH   2   7
HETATM    7  C   UNK     0      13.245   2.298  92.168  0.00  0.00     0.311 C 
BRANCH   7   8
HETATM    8  C   UNK     0      12.234   3.388  92.285  0.00  0.00    -0.030 A 
HETATM    9  C   UNK     0      11.876   3.875  93.542  0.00  0.00     0.010 A 
HETATM   10  C   UNK     0      10.930   4.893  93.652  0.00  0.00     0.021 A 
HETATM   11  C   UNK     0      10.343   5.425  92.504  0.00  0.00     0.018 A 
HETATM   12  C   UNK     0      10.699   4.940  91.248  0.00  0.00     0.021 A 
HETATM   13  C   UNK     0      11.645   3.921  91.138  0.00  0.00     0.010 A 
BRANCH  11  14
HETATM   14  C   UNK     0       9.373   6.471  92.617  0.00  0.00    -0.061 C 
HETATM   15  C   UNK     0       8.558   7.350  92.712  0.00  0.00    -0.061 C 
BRANCH  15  16
HETATM   16  C   UNK     0       7.589   8.394  92.826  0.00  0.00     0.018 A 
HETATM   17  C   UNK     0       7.506   9.378  91.840  0.00  0.00     0.022 A 
HETATM   18  C   UNK     0       6.559  10.396  91.949  0.00  0.00     0.018 A 
HETATM   19  C   UNK     0       5.716  10.408  93.040  0.00  0.00     0.032 A 
HETATM   20  C   UNK     0       5.777   9.448  94.028  0.00  0.00     0.018 A 
HETATM   21  C   UNK     0       6.725   8.430  93.920  0.00  0.00     0.022 A 
BRANCH  19  22
HETATM   22  C   UNK     0       4.708  11.493  93.157  0.00  0.00     0.252 C 
HETATM   23  O   UNK     0       3.949  11.505  94.123  0.00  0.00    -0.268 OA
HETATM   24  N   UNK     0       4.722  12.447  92.149  0.00  0.00    -0.341 N 
HETATM   25  H   UNK     0       5.396  12.386  91.395  0.00  0.00     0.163 HD
BRANCH  24  26
HETATM   26  C   UNK     0       3.824  13.574  92.135  0.00  0.00     0.207 C 
BRANCH  26  27
HETATM   27  C   UNK     0       4.256  14.690  93.095  0.00  0.00     0.146 C 
HETATM   28  C   UNK     0       3.069  15.400  93.735  0.00  0.00     0.042 C 
BRANCH  27  29
HETATM   29  O   UNK     0       5.079  14.142  94.124  0.00  0.00    -0.393 OA
HETATM   30  H   UNK     0       5.205  13.196  93.942  0.00  0.00     0.210 HD
ENDBRANCH  27  29
ENDBRANCH  26  27
BRANCH  26  31
HETATM   31  C   UNK     0       3.736  14.081  90.699  0.00  0.00     0.266 C 
HETATM   32  O   UNK     0       2.751  13.902  89.985  0.00  0.00    -0.269 OA
HETATM   33  N   UNK     0       4.888  14.714  90.300  0.00  0.00    -0.236 N 
HETATM   34  H   UNK     0       5.748  14.799  90.830  0.00  0.00     0.197 HD
BRANCH  33  35
HETATM   35  O   UNK     0       4.903  15.177  88.977  0.00  0.00    -0.287 OA
HETATM   36  H   UNK     0       5.478  14.510  88.565  0.00  0.00     0.244 HD
ENDBRANCH  33  35
ENDBRANCH  26  31
ENDBRANCH  24  26
ENDBRANCH  19  22
ENDBRANCH  15  16
ENDBRANCH  11  14
ENDBRANCH   7   8
ENDBRANCH   2   7
TORSDOF 10
ENDMDL
MODEL 5
REMARK VINA RESULT:      -5.3      1.948     12.450
REMARK  10 active torsions:
REMARK  status: ('A' for Active; 'I' for Inactive)
REMARK    1  A    between atoms: O_2  and  C_18 
REMARK    2  A    between atoms: O_5  and  N_8 
REMARK    3  A    between atoms: N_6  and  C_11 
REMARK    4  A    between atoms: N_7  and  C_15 
REMARK       I    between atoms: N_7  and  C_24 
REMARK       I    between atoms: N_8  and  C_23 
REMARK    5  A    between atoms: C_11  and  C_14 
REMARK    6  A    between atoms: C_15  and  C_18 
REMARK    7  A    between atoms: C_15  and  C_23 
REMARK    8  A    between atoms: C_21  and  C_26 
REMARK    9  A    between atoms: C_24  and  C_25 
REMARK   10  A    between atoms: C_29  and  C_32 
ROOT
HETATM    1  O   UNK     0       3.703  14.323  92.114  0.00  0.00    -0.388 OA
HETATM    2  N   UNK     0       3.795  13.415  89.417  0.00  0.00     0.096 N 
HETATM    3  C   UNK     0       3.062  12.673  90.453  0.00  0.00     0.299 C 
HETATM    4  C   UNK     0       4.917  14.146  90.021  0.00  0.00     0.299 C 
HETATM    5  C   UNK     0       2.590  13.634  91.541  0.00  0.00     0.198 C 
HETATM    6  C   UNK     0       4.402  15.072  91.119  0.00  0.00     0.198 C 
ENDROOT
BRANCH   2   7
HETATM    7  C   UNK     0       4.266  12.512  88.369  0.00  0.00     0.311 C 
BRANCH   7   8
HETATM    8  C   UNK     0       5.170  11.451  88.898  0.00  0.00    -0.030 A 
HETATM    9  C   UNK     0       6.481  11.768  89.258  0.00  0.00     0.010 A 
HETATM   10  C   UNK     0       7.328  10.776  89.751  0.00  0.00     0.021 A 
HETATM   11  C   UNK     0       6.864   9.468  89.885  0.00  0.00     0.018 A 
HETATM   12  C   UNK     0       5.555   9.150  89.527  0.00  0.00     0.021 A 
HETATM   13  C   UNK     0       4.708  10.142  89.033  0.00  0.00     0.010 A 
BRANCH  11  14
HETATM   14  C   UNK     0       7.732   8.451  90.393  0.00  0.00    -0.061 C 
HETATM   15  C   UNK     0       8.462   7.596  90.820  0.00  0.00    -0.061 C 
BRANCH  15  16
HETATM   16  C   UNK     0       9.330   6.581  91.327  0.00  0.00     0.018 A 
HETATM   17  C   UNK     0       9.496   6.430  92.705  0.00  0.00     0.022 A 
HETATM   18  C   UNK     0      10.343   5.438  93.200  0.00  0.00     0.018 A 
HETATM   19  C   UNK     0      11.003   4.619  92.309  0.00  0.00     0.032 A 
HETATM   20  C   UNK     0      10.857   4.747  90.943  0.00  0.00     0.018 A 
HETATM   21  C   UNK     0      10.011   5.739  90.447  0.00  0.00     0.022 A 
BRANCH  19  22
HETATM   22  C   UNK     0      11.906   3.563  92.837  0.00  0.00     0.252 C 
HETATM   23  O   UNK     0      11.501   2.405  92.900  0.00  0.00    -0.268 OA
HETATM   24  N   UNK     0      13.178   3.979  93.205  0.00  0.00    -0.341 N 
HETATM   25  H   UNK     0      13.450   4.950  93.101  0.00  0.00     0.163 HD
BRANCH  24  26
HETATM   26  C   UNK     0      14.175   3.071  93.712  0.00  0.00     0.207 C 
BRANCH  26  27
HETATM   27  C   UNK     0      14.323   1.811  92.849  0.00  0.00     0.146 C 
HETATM   28  C   UNK     0      15.250   2.025  91.658  0.00  0.00     0.042 C 
BRANCH  27  29
HETATM   29  O   UNK     0      14.833   0.743  93.647  0.00  0.00    -0.393 OA
HETATM   30  H   UNK     0      14.876   1.046  94.570  0.00  0.00     0.210 HD
ENDBRANCH  27  29
ENDBRANCH  26  27
BRANCH  26  31
HETATM   31  C   UNK     0      15.492   3.833  93.811  0.00  0.00     0.266 C 
HETATM   32  O   UNK     0      15.575   5.050  93.654  0.00  0.00    -0.269 OA
HETATM   33  N   UNK     0      16.557   3.000  94.055  0.00  0.00    -0.236 N 
HETATM   34  H   UNK     0      16.537   1.987  94.100  0.00  0.00     0.197 HD
BRANCH  33  35
HETATM   35  O   UNK     0      17.813   3.619  94.123  0.00  0.00    -0.287 OA
HETATM   36  H   UNK     0      18.199   3.324  93.280  0.00  0.00     0.244 HD
ENDBRANCH  33  35
ENDBRANCH  26  31
ENDBRANCH  24  26
ENDBRANCH  19  22
ENDBRANCH  15  16
ENDBRANCH  11  14
ENDBRANCH   7   8
ENDBRANCH   2   7
TORSDOF 10
ENDMDL
MODEL 6
REMARK VINA RESULT:      -5.2      2.696     12.358
REMARK  10 active torsions:
REMARK  status: ('A' for Active; 'I' for Inactive)
REMARK    1  A    between atoms: O_2  and  C_18 
REMARK    2  A    between atoms: O_5  and  N_8 
REMARK    3  A    between atoms: N_6  and  C_11 
REMARK    4  A    between atoms: N_7  and  C_15 
REMARK       I    between atoms: N_7  and  C_24 
REMARK       I    between atoms: N_8  and  C_23 
REMARK    5  A    between atoms: C_11  and  C_14 
REMARK    6  A    between atoms: C_15  and  C_18 
REMARK    7  A    between atoms: C_15  and  C_23 
REMARK    8  A    between atoms: C_21  and  C_26 
REMARK    9  A    between atoms: C_24  and  C_25 
REMARK   10  A    between atoms: C_29  and  C_32 
ROOT
HETATM    1  O   UNK     0       3.031  14.974  93.989  0.00  0.00    -0.388 OA
HETATM    2  N   UNK     0       2.835  14.573  91.178  0.00  0.00     0.096 N 
HETATM    3  C   UNK     0       1.891  13.943  92.111  0.00  0.00     0.299 C 
HETATM    4  C   UNK     0       4.132  14.778  91.836  0.00  0.00     0.299 C 
HETATM    5  C   UNK     0       1.756  14.799  93.367  0.00  0.00     0.198 C 
HETATM    6  C   UNK     0       3.945  15.615  93.099  0.00  0.00     0.198 C 
ENDROOT
BRANCH   2   7
HETATM    7  C   UNK     0       2.988  13.764  89.970  0.00  0.00     0.311 C 
BRANCH   7   8
HETATM    8  C   UNK     0       3.998  12.680  90.137  0.00  0.00    -0.030 A 
HETATM    9  C   UNK     0       3.755  11.631  91.025  0.00  0.00     0.010 A 
HETATM   10  C   UNK     0       4.700  10.618  91.183  0.00  0.00     0.021 A 
HETATM   11  C   UNK     0       5.887  10.654  90.452  0.00  0.00     0.018 A 
HETATM   12  C   UNK     0       6.131  11.700  89.566  0.00  0.00     0.021 A 
HETATM   13  C   UNK     0       5.187  12.714  89.407  0.00  0.00     0.010 A 
BRANCH  11  14
HETATM   14  C   UNK     0       6.856   9.613  90.614  0.00  0.00    -0.061 C 
HETATM   15  C   UNK     0       7.670   8.739  90.749  0.00  0.00    -0.061 C 
BRANCH  15  16
HETATM   16  C   UNK     0       8.638   7.700  90.911  0.00  0.00     0.018 A 
HETATM   17  C   UNK     0       9.155   7.421  92.177  0.00  0.00     0.022 A 
HETATM   18  C   UNK     0      10.099   6.406  92.336  0.00  0.00     0.018 A 
HETATM   19  C   UNK     0      10.503   5.692  91.228  0.00  0.00     0.032 A 
HETATM   20  C   UNK     0      10.007   5.948  89.966  0.00  0.00     0.018 A 
HETATM   21  C   UNK     0       9.065   6.963  89.806  0.00  0.00     0.022 A 
BRANCH  19  22
HETATM   22  C   UNK     0      11.509   4.612  91.397  0.00  0.00     0.252 C 
HETATM   23  O   UNK     0      11.802   3.908  90.434  0.00  0.00    -0.268 OA
HETATM   24  N   UNK     0      12.071   4.497  92.661  0.00  0.00    -0.341 N 
HETATM   25  H   UNK     0      11.798   5.131  93.403  0.00  0.00     0.163 HD
BRANCH  24  26
HETATM   26  C   UNK     0      13.077   3.516  92.977  0.00  0.00     0.207 C 
BRANCH  26  27
HETATM   27  C   UNK     0      12.961   2.250  92.118  0.00  0.00     0.146 C 
HETATM   28  C   UNK     0      13.990   1.191  92.498  0.00  0.00     0.042 C 
BRANCH  27  29
HETATM   29  O   UNK     0      11.653   1.696  92.258  0.00  0.00    -0.393 OA
HETATM   30  H   UNK     0      11.710   0.738  92.105  0.00  0.00     0.210 HD
ENDBRANCH  27  29
ENDBRANCH  26  27
BRANCH  26  31
HETATM   31  C   UNK     0      14.441   4.177  92.809  0.00  0.00     0.266 C 
HETATM   32  O   UNK     0      14.856   4.591  91.728  0.00  0.00    -0.269 OA
HETATM   33  N   UNK     0      15.149   4.214  93.986  0.00  0.00    -0.236 N 
HETATM   34  H   UNK     0      14.876   3.804  94.871  0.00  0.00     0.197 HD
BRANCH  33  35
HETATM   35  O   UNK     0      16.432   4.773  93.909  0.00  0.00    -0.287 OA
HETATM   36  H   UNK     0      16.578   5.005  94.842  0.00  0.00     0.244 HD
ENDBRANCH  33  35
ENDBRANCH  26  31
ENDBRANCH  24  26
ENDBRANCH  19  22
ENDBRANCH  15  16
ENDBRANCH  11  14
ENDBRANCH   7   8
ENDBRANCH   2   7
TORSDOF 10
ENDMDL
MODEL 7
REMARK VINA RESULT:      -4.8      2.134     12.467
REMARK  10 active torsions:
REMARK  status: ('A' for Active; 'I' for Inactive)
REMARK    1  A    between atoms: O_2  and  C_18 
REMARK    2  A    between atoms: O_5  and  N_8 
REMARK    3  A    between atoms: N_6  and  C_11 
REMARK    4  A    between atoms: N_7  and  C_15 
REMARK       I    between atoms: N_7  and  C_24 
REMARK       I    between atoms: N_8  and  C_23 
REMARK    5  A    between atoms: C_11  and  C_14 
REMARK    6  A    between atoms: C_15  and  C_18 
REMARK    7  A    between atoms: C_15  and  C_23 
REMARK    8  A    between atoms: C_21  and  C_26 
REMARK    9  A    between atoms: C_24  and  C_25 
REMARK   10  A    between atoms: C_29  and  C_32 
ROOT
HETATM    1  O   UNK     0       5.239  14.809  89.156  0.00  0.00    -0.388 OA
HETATM    2  N   UNK     0       3.430  13.533  90.946  0.00  0.00     0.096 N 
HETATM    3  C   UNK     0       4.353  14.582  91.404  0.00  0.00     0.299 C 
HETATM    4  C   UNK     0       4.009  12.819  89.800  0.00  0.00     0.299 C 
HETATM    5  C   UNK     0       4.671  15.530  90.251  0.00  0.00     0.198 C 
HETATM    6  C   UNK     0       4.335  13.808  88.685  0.00  0.00     0.198 C 
ENDROOT
BRANCH   2   7
HETATM    7  C   UNK     0       3.120  12.606  92.033  0.00  0.00     0.311 C 
BRANCH   7   8
HETATM    8  C   UNK     0       4.137  11.524  92.164  0.00  0.00    -0.030 A 
HETATM    9  C   UNK     0       4.054  10.388  91.358  0.00  0.00     0.010 A 
HETATM   10  C   UNK     0       5.004   9.375  91.482  0.00  0.00     0.021 A 
HETATM   11  C   UNK     0       6.037   9.498  92.410  0.00  0.00     0.018 A 
HETATM   12  C   UNK     0       6.121  10.632  93.216  0.00  0.00     0.021 A 
HETATM   13  C   UNK     0       5.171  11.646  93.093  0.00  0.00     0.010 A 
BRANCH  11  14
HETATM   14  C   UNK     0       7.013   8.459  92.536  0.00  0.00    -0.061 C 
HETATM   15  C   UNK     0       7.833   7.586  92.640  0.00  0.00    -0.061 C 
BRANCH  15  16
HETATM   16  C   UNK     0       8.806   6.548  92.766  0.00  0.00     0.018 A 
HETATM   17  C   UNK     0       9.591   6.464  93.916  0.00  0.00     0.022 A 
HETATM   18  C   UNK     0      10.540   5.449  94.040  0.00  0.00     0.018 A 
HETATM   19  C   UNK     0      10.683   4.541  93.012  0.00  0.00     0.032 A 
HETATM   20  C   UNK     0       9.920   4.602  91.865  0.00  0.00     0.018 A 
HETATM   21  C   UNK     0       8.971   5.617  91.740  0.00  0.00     0.022 A 
BRANCH  19  22
HETATM   22  C   UNK     0      11.695   3.461  93.143  0.00  0.00     0.252 C 
HETATM   23  O   UNK     0      11.380   2.306  92.865  0.00  0.00    -0.268 OA
HETATM   24  N   UNK     0      12.958   3.859  93.558  0.00  0.00    -0.341 N 
HETATM   25  H   UNK     0      13.152   4.836  93.746  0.00  0.00     0.163 HD
BRANCH  24  26
HETATM   26  C   UNK     0      14.052   2.934  93.710  0.00  0.00     0.207 C 
BRANCH  26  27
HETATM   27  C   UNK     0      14.187   1.975  92.520  0.00  0.00     0.146 C 
HETATM   28  C   UNK     0      15.155   2.491  91.461  0.00  0.00     0.042 C 
BRANCH  27  29
HETATM   29  O   UNK     0      14.641   0.703  92.982  0.00  0.00    -0.393 OA
HETATM   30  H   UNK     0      13.922   0.288  93.489  0.00  0.00     0.210 HD
ENDBRANCH  27  29
ENDBRANCH  26  27
BRANCH  26  31
HETATM   31  C   UNK     0      15.326   3.747  93.914  0.00  0.00     0.266 C 
HETATM   32  O   UNK     0      15.329   4.973  94.013  0.00  0.00    -0.269 OA
HETATM   33  N   UNK     0      16.449   2.957  93.933  0.00  0.00    -0.236 N 
HETATM   34  H   UNK     0      16.492   1.958  93.765  0.00  0.00     0.197 HD
BRANCH  33  35
HETATM   35  O   UNK     0      17.669   3.633  94.078  0.00  0.00    -0.287 OA
HETATM   36  H   UNK     0      18.131   3.030  94.685  0.00  0.00     0.244 HD
ENDBRANCH  33  35
ENDBRANCH  26  31
ENDBRANCH  24  26
ENDBRANCH  19  22
ENDBRANCH  15  16
ENDBRANCH  11  14
ENDBRANCH   7   8
ENDBRANCH   2   7
TORSDOF 10
ENDMDL
MODEL 8
REMARK VINA RESULT:      -4.7      1.218      1.729
REMARK  10 active torsions:
REMARK  status: ('A' for Active; 'I' for Inactive)
REMARK    1  A    between atoms: O_2  and  C_18 
REMARK    2  A    between atoms: O_5  and  N_8 
REMARK    3  A    between atoms: N_6  and  C_11 
REMARK    4  A    between atoms: N_7  and  C_15 
REMARK       I    between atoms: N_7  and  C_24 
REMARK       I    between atoms: N_8  and  C_23 
REMARK    5  A    between atoms: C_11  and  C_14 
REMARK    6  A    between atoms: C_15  and  C_18 
REMARK    7  A    between atoms: C_15  and  C_23 
REMARK    8  A    between atoms: C_21  and  C_26 
REMARK    9  A    between atoms: C_24  and  C_25 
REMARK   10  A    between atoms: C_29  and  C_32 
ROOT
HETATM    1  O   UNK     0      15.961   3.721  91.771  0.00  0.00    -0.388 OA
HETATM    2  N   UNK     0      13.829   2.283  92.992  0.00  0.00     0.096 N 
HETATM    3  C   UNK     0      13.609   3.125  91.807  0.00  0.00     0.299 C 
HETATM    4  C   UNK     0      14.952   2.808  93.780  0.00  0.00     0.299 C 
HETATM    5  C   UNK     0      14.890   3.200  90.981  0.00  0.00     0.198 C 
HETATM    6  C   UNK     0      16.202   2.891  92.908  0.00  0.00     0.198 C 
ENDROOT
BRANCH   2   7
HETATM    7  C   UNK     0      12.616   2.205  93.804  0.00  0.00     0.311 C 
BRANCH   7   8
HETATM    8  C   UNK     0      11.600   3.221  93.407  0.00  0.00    -0.030 A 
HETATM    9  C   UNK     0      10.764   2.981  92.316  0.00  0.00     0.010 A 
HETATM   10  C   UNK     0       9.815   3.932  91.942  0.00  0.00     0.021 A 
HETATM   11  C   UNK     0       9.700   5.121  92.660  0.00  0.00     0.018 A 
HETATM   12  C   UNK     0      10.534   5.362  93.750  0.00  0.00     0.021 A 
HETATM   13  C   UNK     0      11.484   4.412  94.124  0.00  0.00     0.010 A 
BRANCH  11  14
HETATM   14  C   UNK     0       8.725   6.096  92.278  0.00  0.00    -0.061 C 
HETATM   15  C   UNK     0       7.905   6.915  91.957  0.00  0.00    -0.061 C 
BRANCH  15  16
HETATM   16  C   UNK     0       6.931   7.887  91.576  0.00  0.00     0.018 A 
HETATM   17  C   UNK     0       7.100   8.621  90.400  0.00  0.00     0.022 A 
HETATM   18  C   UNK     0       6.148   9.569  90.027  0.00  0.00     0.018 A 
HETATM   19  C   UNK     0       5.047   9.763  90.836  0.00  0.00     0.032 A 
HETATM   20  C   UNK     0       4.857   9.052  92.002  0.00  0.00     0.018 A 
HETATM   21  C   UNK     0       5.809   8.104  92.376  0.00  0.00     0.022 A 
BRANCH  19  22
HETATM   22  C   UNK     0       4.034  10.774  90.439  0.00  0.00     0.252 C 
HETATM   23  O   UNK     0       2.873  10.419  90.253  0.00  0.00    -0.268 OA
HETATM   24  N   UNK     0       4.489  12.081  90.330  0.00  0.00    -0.341 N 
HETATM   25  H   UNK     0       5.459  12.304  90.524  0.00  0.00     0.163 HD
BRANCH  24  26
HETATM   26  C   UNK     0       3.623  13.177  89.978  0.00  0.00     0.207 C 
BRANCH  26  27
HETATM   27  C   UNK     0       3.362  14.128  91.153  0.00  0.00     0.146 C 
HETATM   28  C   UNK     0       2.020  13.868  91.827  0.00  0.00     0.042 C 
BRANCH  27  29
HETATM   29  O   UNK     0       4.402  13.988  92.120  0.00  0.00    -0.393 OA
HETATM   30  H   UNK     0       5.192  13.643  91.671  0.00  0.00     0.210 HD
ENDBRANCH  27  29
ENDBRANCH  26  27
BRANCH  26  31
HETATM   31  C   UNK     0       4.256  13.911  88.800  0.00  0.00     0.266 C 
HETATM   32  O   UNK     0       4.567  15.100  88.841  0.00  0.00    -0.269 OA
HETATM   33  N   UNK     0       4.396  13.102  87.699  0.00  0.00    -0.236 N 
HETATM   34  H   UNK     0       4.070  12.147  87.602  0.00  0.00     0.197 HD
BRANCH  33  35
HETATM   35  O   UNK     0       4.936  13.712  86.558  0.00  0.00    -0.287 OA
HETATM   36  H   UNK     0       4.123  14.025  86.126  0.00  0.00     0.244 HD
ENDBRANCH  33  35
ENDBRANCH  26  31
ENDBRANCH  24  26
ENDBRANCH  19  22
ENDBRANCH  15  16
ENDBRANCH  11  14
ENDBRANCH   7   8
ENDBRANCH   2   7
TORSDOF 10
ENDMDL
MODEL 9
REMARK VINA RESULT:      -4.2      1.633      2.342
REMARK  10 active torsions:
REMARK  status: ('A' for Active; 'I' for Inactive)
REMARK    1  A    between atoms: O_2  and  C_18 
REMARK    2  A    between atoms: O_5  and  N_8 
REMARK    3  A    between atoms: N_6  and  C_11 
REMARK    4  A    between atoms: N_7  and  C_15 
REMARK       I    between atoms: N_7  and  C_24 
REMARK       I    between atoms: N_8  and  C_23 
REMARK    5  A    between atoms: C_11  and  C_14 
REMARK    6  A    between atoms: C_15  and  C_18 
REMARK    7  A    between atoms: C_15  and  C_23 
REMARK    8  A    between atoms: C_21  and  C_26 
REMARK    9  A    between atoms: C_24  and  C_25 
REMARK   10  A    between atoms: C_29  and  C_32 
ROOT
HETATM    1  O   UNK     0      17.153   3.921  93.121  0.00  0.00    -0.388 OA
HETATM    2  N   UNK     0      15.129   1.947  92.794  0.00  0.00     0.096 N 
HETATM    3  C   UNK     0      15.354   2.991  91.784  0.00  0.00     0.299 C 
HETATM    4  C   UNK     0      15.512   2.441  94.123  0.00  0.00     0.299 C 
HETATM    5  C   UNK     0      16.813   3.439  91.820  0.00  0.00     0.198 C 
HETATM    6  C   UNK     0      16.967   2.903  94.104  0.00  0.00     0.198 C 
ENDROOT
BRANCH   2   7
HETATM    7  C   UNK     0      13.734   1.510  92.785  0.00  0.00     0.311 C 
BRANCH   7   8
HETATM    8  C   UNK     0      12.784   2.647  92.615  0.00  0.00    -0.030 A 
HETATM    9  C   UNK     0      12.049   3.110  93.707  0.00  0.00     0.010 A 
HETATM   10  C   UNK     0      11.159   4.171  93.549  0.00  0.00     0.021 A 
HETATM   11  C   UNK     0      11.005   4.771  92.299  0.00  0.00     0.018 A 
HETATM   12  C   UNK     0      11.738   4.309  91.208  0.00  0.00     0.021 A 
HETATM   13  C   UNK     0      12.628   3.247  91.365  0.00  0.00     0.010 A 
BRANCH  11  14
HETATM   14  C   UNK     0      10.093   5.861  92.137  0.00  0.00    -0.061 C 
HETATM   15  C   UNK     0       9.326   6.777  92.001  0.00  0.00    -0.061 C 
BRANCH  15  16
HETATM   16  C   UNK     0       8.417   7.867  91.839  0.00  0.00     0.018 A 
HETATM   17  C   UNK     0       8.904   9.149  91.581  0.00  0.00     0.022 A 
HETATM   18  C   UNK     0       8.016  10.213  91.421  0.00  0.00     0.018 A 
HETATM   19  C   UNK     0       6.662   9.972  91.522  0.00  0.00     0.032 A 
HETATM   20  C   UNK     0       6.155   8.715  91.777  0.00  0.00     0.018 A 
HETATM   21  C   UNK     0       7.042   7.651  91.937  0.00  0.00     0.022 A 
BRANCH  19  22
HETATM   22  C   UNK     0       5.717  11.106  91.353  0.00  0.00     0.252 C 
HETATM   23  O   UNK     0       5.162  11.577  92.344  0.00  0.00    -0.268 OA
HETATM   24  N   UNK     0       5.550  11.571  90.056  0.00  0.00    -0.341 N 
HETATM   25  H   UNK     0       6.062  11.149  89.290  0.00  0.00     0.163 HD
BRANCH  24  26
HETATM   26  C   UNK     0       4.687  12.679  89.735  0.00  0.00     0.207 C 
BRANCH  26  27
HETATM   27  C   UNK     0       5.224  13.534  88.580  0.00  0.00     0.146 C 
HETATM   28  C   UNK     0       5.349  15.007  88.952  0.00  0.00     0.042 C 
BRANCH  27  29
HETATM   29  O   UNK     0       6.505  13.047  88.181  0.00  0.00    -0.393 OA
HETATM   30  H   UNK     0       6.400  12.565  87.343  0.00  0.00     0.210 HD
ENDBRANCH  27  29
ENDBRANCH  26  27
BRANCH  26  31
HETATM   31  C   UNK     0       3.307  12.116  89.413  0.00  0.00     0.266 C 
HETATM   32  O   UNK     0       2.480  11.835  90.279  0.00  0.00    -0.269 OA
HETATM   33  N   UNK     0       3.123  11.931  88.064  0.00  0.00    -0.236 N 
HETATM   34  H   UNK     0       3.812  12.068  87.334  0.00  0.00     0.197 HD
BRANCH  33  35
HETATM   35  O   UNK     0       1.891  11.380  87.686  0.00  0.00    -0.287 OA
HETATM   36  H   UNK     0       1.711  10.811  88.454  0.00  0.00     0.244 HD
ENDBRANCH  33  35
ENDBRANCH  26  31
ENDBRANCH  24  26
ENDBRANCH  19  22
ENDBRANCH  15  16
ENDBRANCH  11  14
ENDBRANCH   7   8
ENDBRANCH   2   7
TORSDOF 10
ENDMDL
