MODEL 1
REMARK VINA RESULT:      -5.0      0.000      0.000
REMARK  10 active torsions:
REMARK  status: ('A' for Active; 'I' for Inactive)
REMARK    1  A    between atoms: O_2  and  C_18 
REMARK    2  A    between atoms: O_5  and  N_8 
REMARK    3  A    between atoms: N_6  and  C_11 
REMARK    4  A    between atoms: N_7  and  C_15 
REMARK       I    between atoms: N_7  and  C_24 
REMARK       I    between atoms: N_8  and  C_23 
REMARK    5  A    between atoms: C_11  and  C_14 
REMARK    6  A    between atoms: C_15  and  C_18 
REMARK    7  A    between atoms: C_15  and  C_23 
REMARK    8  A    between atoms: C_21  and  C_26 
REMARK    9  A    between atoms: C_24  and  C_25 
REMARK   10  A    between atoms: C_29  and  C_32 
ROOT
HETATM    1  O   UNK     0       3.214  14.868  93.865  0.00  0.00    -0.388 OA
HETATM    2  N   UNK     0       2.884  14.734  91.041  0.00  0.00     0.096 N 
HETATM    3  C   UNK     0       1.985  14.015  91.954  0.00  0.00     0.299 C 
HETATM    4  C   UNK     0       4.211  14.880  91.653  0.00  0.00     0.299 C 
HETATM    5  C   UNK     0       1.911  14.748  93.291  0.00  0.00     0.198 C 
HETATM    6  C   UNK     0       4.086  15.592  92.997  0.00  0.00     0.198 C 
ENDROOT
BRANCH   2   7
HETATM    7  C   UNK     0       2.977  14.042  89.756  0.00  0.00     0.311 C 
BRANCH   7   8
HETATM    8  C   UNK     0       3.975  12.935  89.779  0.00  0.00    -0.030 A 
HETATM    9  C   UNK     0       3.665  11.731  90.413  0.00  0.00     0.010 A 
HETATM   10  C   UNK     0       4.598  10.695  90.437  0.00  0.00     0.021 A 
HETATM   11  C   UNK     0       5.840  10.862  89.824  0.00  0.00     0.018 A 
HETATM   12  C   UNK     0       6.150  12.063  89.190  0.00  0.00     0.021 A 
HETATM   13  C   UNK     0       5.218  13.100  89.167  0.00  0.00     0.010 A 
BRANCH  11  14
HETATM   14  C   UNK     0       6.796   9.798  89.847  0.00  0.00    -0.061 C 
HETATM   15  C   UNK     0       7.600   8.904  89.865  0.00  0.00    -0.061 C 
BRANCH  15  16
HETATM   16  C   UNK     0       8.554   7.841  89.888  0.00  0.00     0.018 A 
HETATM   17  C   UNK     0       8.858   7.203  91.092  0.00  0.00     0.022 A 
HETATM   18  C   UNK     0       9.788   6.164  91.114  0.00  0.00     0.018 A 
HETATM   19  C   UNK     0      10.393   5.785  89.934  0.00  0.00     0.032 A 
HETATM   20  C   UNK     0      10.110   6.399  88.732  0.00  0.00     0.018 A 
HETATM   21  C   UNK     0       9.181   7.438  88.709  0.00  0.00     0.022 A 
BRANCH  19  22
HETATM   22  C   UNK     0      11.385   4.679  89.960  0.00  0.00     0.252 C 
HETATM   23  O   UNK     0      11.534   3.984  88.957  0.00  0.00    -0.268 OA
HETATM   24  N   UNK     0      12.100   4.530  91.139  0.00  0.00    -0.341 N 
HETATM   25  H   UNK     0      11.940   5.158  91.919  0.00  0.00     0.163 HD
BRANCH  24  26
HETATM   26  C   UNK     0      13.114   3.520  91.310  0.00  0.00     0.207 C 
BRANCH  26  27
HETATM   27  C   UNK     0      14.310   4.013  92.135  0.00  0.00     0.146 C 
HETATM   28  C   UNK     0      13.955   4.239  93.600  0.00  0.00     0.042 C 
BRANCH  27  29
HETATM   29  O   UNK     0      15.369   3.059  92.056  0.00  0.00    -0.393 OA
HETATM   30  H   UNK     0      15.861   3.217  91.233  0.00  0.00     0.210 HD
ENDBRANCH  27  29
ENDBRANCH  26  27
BRANCH  26  31
HETATM   31  C   UNK     0      12.456   2.306  91.957  0.00  0.00     0.266 C 
HETATM   32  O   UNK     0      13.057   1.254  92.172  0.00  0.00    -0.269 OA
HETATM   33  N   UNK     0      11.126   2.518  92.229  0.00  0.00    -0.236 N 
HETATM   34  H   UNK     0      10.581   3.336  91.985  0.00  0.00     0.197 HD
BRANCH  33  35
HETATM   35  O   UNK     0      10.438   1.434  92.791  0.00  0.00    -0.287 OA
HETATM   36  H   UNK     0      10.155   0.970  91.985  0.00  0.00     0.244 HD
ENDBRANCH  33  35
ENDBRANCH  26  31
ENDBRANCH  24  26
ENDBRANCH  19  22
ENDBRANCH  15  16
ENDBRANCH  11  14
ENDBRANCH   7   8
ENDBRANCH   2   7
TORSDOF 10
ENDMDL
