MODEL 1
REMARK VINA RESULT:      -7.2      0.000      0.000
REMARK  9 active torsions:
REMARK  status: ('A' for Active; 'I' for Inactive)
REMARK    1  A    between atoms: O_2  and  C_17 
REMARK    2  A    between atoms: N_5  and  C_10 
REMARK    3  A    between atoms: N_6  and  C_14 
REMARK       I    between atoms: N_6  and  C_23 
REMARK       I    between atoms: N_7  and  C_22 
REMARK    4  A    between atoms: C_10  and  C_13 
REMARK    5  A    between atoms: C_14  and  C_17 
REMARK    6  A    between atoms: C_14  and  C_22 
REMARK    7  A    between atoms: C_20  and  C_25 
REMARK    8  A    between atoms: C_23  and  C_24 
REMARK    9  A    between atoms: C_28  and  C_31 
ROOT
HETATM    1  O   UNL     1      15.944   3.952  94.082  1.00  0.00    -0.388 OA
HETATM    2  N   UNL     1      14.145   2.591  92.346  1.00  0.00     0.096 N 
HETATM    3  C   UNL     1      14.285   4.054  92.314  1.00  0.00     0.299 C 
HETATM    4  C   UNL     1      14.443   2.087  93.694  1.00  0.00     0.299 C 
HETATM    5  C   UNL     1      15.688   4.449  92.767  1.00  0.00     0.198 C 
HETATM    6  C   UNL     1      15.840   2.528  94.115  1.00  0.00     0.198 C 
ENDROOT
BRANCH   2   7
HETATM    7  C   UNL     1      12.804   2.190  91.925  1.00  0.00     0.311 C 
BRANCH   7   8
HETATM    8  C   UNL     1      11.927   3.359  91.632  1.00  0.00    -0.030 A 
HETATM    9  C   UNL     1      11.280   4.023  92.674  1.00  0.00     0.010 A 
HETATM   10  C   UNL     1      10.457   5.116  92.401  1.00  0.00     0.021 A 
HETATM   11  C   UNL     1      10.285   5.546  91.085  1.00  0.00     0.018 A 
HETATM   12  C   UNL     1      10.931   4.884  90.044  1.00  0.00     0.021 A 
HETATM   13  C   UNL     1      11.753   3.790  90.316  1.00  0.00     0.010 A 
BRANCH  11  14
HETATM   14  C   UNL     1       9.443   6.668  90.805  1.00  0.00    -0.061 C 
HETATM   15  C   UNL     1       8.736   7.612  90.569  1.00  0.00    -0.061 C 
BRANCH  15  16
HETATM   16  C   UNL     1       7.894   8.733  90.289  1.00  0.00     0.018 A 
HETATM   17  C   UNL     1       6.566   8.731  90.715  1.00  0.00     0.022 A 
HETATM   18  C   UNL     1       5.746   9.826  90.444  1.00  0.00     0.018 A 
HETATM   19  C   UNL     1       6.272  10.897  89.753  1.00  0.00     0.032 A 
HETATM   20  C   UNL     1       7.581  10.923  89.320  1.00  0.00     0.018 A 
HETATM   21  C   UNL     1       8.402   9.829  89.591  1.00  0.00     0.022 A 
BRANCH  19  22
HETATM   22  C   UNL     1       5.397  12.063  89.462  1.00  0.00     0.252 C 
HETATM   23  O   UNL     1       5.317  12.480  88.309  1.00  0.00    -0.268 OA
HETATM   24  N   UNL     1       4.703  12.587  90.544  1.00  0.00    -0.342 N 
HETATM   25  H   UNL     1       4.800  12.174  91.464  1.00  0.00     0.163 HD
BRANCH  24  26
HETATM   26  C   UNL     1       3.797  13.701  90.418  1.00  0.00     0.199 C 
BRANCH  26  27
HETATM   27  C   UNL     1       2.636  13.637  91.418  1.00  0.00     0.145 C 
HETATM   28  C   UNL     1       2.953  12.763  92.627  1.00  0.00     0.042 C 
BRANCH  27  29
HETATM   29  O   UNL     1       2.321  14.954  91.869  1.00  0.00    -0.393 OA
HETATM   30  H   UNL     1       2.752  15.591  91.273  1.00  0.00     0.210 HD
ENDBRANCH  27  29
ENDBRANCH  26  27
BRANCH  26  31
HETATM   31  C   UNL     1       4.608  14.981  90.591  1.00  0.00     0.220 C 
HETATM   32  O   UNL     1       4.951  15.414  91.689  1.00  0.00    -0.278 OA
HETATM   33  N   UNL     1       4.866  15.598  89.390  1.00  0.00    -0.271 NA
HETATM   34  H   UNL     1       4.524  15.318  88.479  1.00  0.00     0.127 HD
HETATM   35  H   UNL     1       4.314  16.785  88.883  1.00  0.00     0.127 HD
ENDBRANCH  26  31
ENDBRANCH  24  26
ENDBRANCH  19  22
ENDBRANCH  15  16
ENDBRANCH  11  14
ENDBRANCH   7   8
ENDBRANCH   2   7
TORSDOF 9
ENDMDL
MODEL 2
REMARK VINA RESULT:      -6.8      1.373      1.773
REMARK  9 active torsions:
REMARK  status: ('A' for Active; 'I' for Inactive)
REMARK    1  A    between atoms: O_2  and  C_17 
REMARK    2  A    between atoms: N_5  and  C_10 
REMARK    3  A    between atoms: N_6  and  C_14 
REMARK       I    between atoms: N_6  and  C_23 
REMARK       I    between atoms: N_7  and  C_22 
REMARK    4  A    between atoms: C_10  and  C_13 
REMARK    5  A    between atoms: C_14  and  C_17 
REMARK    6  A    between atoms: C_14  and  C_22 
REMARK    7  A    between atoms: C_20  and  C_25 
REMARK    8  A    between atoms: C_23  and  C_24 
REMARK    9  A    between atoms: C_28  and  C_31 
ROOT
HETATM    1  O   UNL     1      16.434   4.257  94.124  1.00  0.00    -0.388 OA
HETATM    2  N   UNL     1      14.794   2.617  92.473  1.00  0.00     0.096 N 
HETATM    3  C   UNL     1      14.663   4.081  92.474  1.00  0.00     0.299 C 
HETATM    4  C   UNL     1      15.273   2.154  93.783  1.00  0.00     0.299 C 
HETATM    5  C   UNL     1      16.000   4.719  92.844  1.00  0.00     0.198 C 
HETATM    6  C   UNL     1      16.594   2.838  94.123  1.00  0.00     0.198 C 
ENDROOT
BRANCH   2   7
HETATM    7  C   UNL     1      13.522   1.984  92.131  1.00  0.00     0.311 C 
BRANCH   7   8
HETATM    8  C   UNL     1      12.456   2.980  91.826  1.00  0.00    -0.030 A 
HETATM    9  C   UNL     1      12.315   3.474  90.528  1.00  0.00     0.010 A 
HETATM   10  C   UNL     1      11.320   4.408  90.241  1.00  0.00     0.021 A 
HETATM   11  C   UNL     1      10.464   4.845  91.251  1.00  0.00     0.018 A 
HETATM   12  C   UNL     1      10.602   4.352  92.547  1.00  0.00     0.021 A 
HETATM   13  C   UNL     1      11.598   3.419  92.835  1.00  0.00     0.010 A 
BRANCH  11  14
HETATM   14  C   UNL     1       9.441   5.801  90.957  1.00  0.00    -0.061 C 
HETATM   15  C   UNL     1       8.582   6.605  90.708  1.00  0.00    -0.061 C 
BRANCH  15  16
HETATM   16  C   UNL     1       7.560   7.560  90.413  1.00  0.00     0.018 A 
HETATM   17  C   UNL     1       6.246   7.135  90.214  1.00  0.00     0.022 A 
HETATM   18  C   UNL     1       5.249   8.068  89.928  1.00  0.00     0.018 A 
HETATM   19  C   UNL     1       5.587   9.403  89.849  1.00  0.00     0.032 A 
HETATM   20  C   UNL     1       6.878   9.847  90.041  1.00  0.00     0.018 A 
HETATM   21  C   UNL     1       7.876   8.916  90.327  1.00  0.00     0.022 A 
BRANCH  19  22
HETATM   22  C   UNL     1       4.525  10.395  89.543  1.00  0.00     0.252 C 
HETATM   23  O   UNL     1       3.385  10.001  89.309  1.00  0.00    -0.268 OA
HETATM   24  N   UNL     1       4.912  11.728  89.569  1.00  0.00    -0.342 N 
HETATM   25  H   UNL     1       5.867  11.980  89.795  1.00  0.00     0.163 HD
BRANCH  24  26
HETATM   26  C   UNL     1       3.992  12.808  89.318  1.00  0.00     0.199 C 
BRANCH  26  27
HETATM   27  C   UNL     1       3.488  13.471  90.606  1.00  0.00     0.145 C 
HETATM   28  C   UNL     1       2.825  12.477  91.554  1.00  0.00     0.042 C 
BRANCH  27  29
HETATM   29  O   UNL     1       4.580  14.095  91.280  1.00  0.00    -0.393 OA
HETATM   30  H   UNL     1       4.791  13.571  92.071  1.00  0.00     0.210 HD
ENDBRANCH  27  29
ENDBRANCH  26  27
BRANCH  26  31
HETATM   31  C   UNL     1       4.693  13.816  88.413  1.00  0.00     0.220 C 
HETATM   32  O   UNL     1       5.055  14.925  88.801  1.00  0.00    -0.278 OA
HETATM   33  N   UNL     1       4.830  13.352  87.128  1.00  0.00    -0.271 NA
HETATM   34  H   UNL     1       4.465  12.484  86.754  1.00  0.00     0.127 HD
HETATM   35  H   UNL     1       4.148  13.768  85.973  1.00  0.00     0.127 HD
ENDBRANCH  26  31
ENDBRANCH  24  26
ENDBRANCH  19  22
ENDBRANCH  15  16
ENDBRANCH  11  14
ENDBRANCH   7   8
ENDBRANCH   2   7
TORSDOF 9
ENDMDL
MODEL 3
REMARK VINA RESULT:      -6.7      1.715      2.608
REMARK  9 active torsions:
REMARK  status: ('A' for Active; 'I' for Inactive)
REMARK    1  A    between atoms: O_2  and  C_17 
REMARK    2  A    between atoms: N_5  and  C_10 
REMARK    3  A    between atoms: N_6  and  C_14 
REMARK       I    between atoms: N_6  and  C_23 
REMARK       I    between atoms: N_7  and  C_22 
REMARK    4  A    between atoms: C_10  and  C_13 
REMARK    5  A    between atoms: C_14  and  C_17 
REMARK    6  A    between atoms: C_14  and  C_22 
REMARK    7  A    between atoms: C_20  and  C_25 
REMARK    8  A    between atoms: C_23  and  C_24 
REMARK    9  A    between atoms: C_28  and  C_31 
ROOT
HETATM    1  O   UNL     1      16.159   3.957  94.071  1.00  0.00    -0.388 OA
HETATM    2  N   UNL     1      14.244   2.622  92.442  1.00  0.00     0.096 N 
HETATM    3  C   UNL     1      14.415   4.080  92.388  1.00  0.00     0.299 C 
HETATM    4  C   UNL     1      14.599   2.123  93.778  1.00  0.00     0.299 C 
HETATM    5  C   UNL     1      15.848   4.448  92.765  1.00  0.00     0.198 C 
HETATM    6  C   UNL     1      16.025   2.537  94.124  1.00  0.00     0.198 C 
ENDROOT
BRANCH   2   7
HETATM    7  C   UNL     1      12.875   2.247  92.094  1.00  0.00     0.311 C 
BRANCH   7   8
HETATM    8  C   UNL     1      11.936   3.404  92.158  1.00  0.00    -0.030 A 
HETATM    9  C   UNL     1      11.384   3.918  90.984  1.00  0.00     0.010 A 
HETATM   10  C   UNL     1      10.507   5.001  91.042  1.00  0.00     0.021 A 
HETATM   11  C   UNL     1      10.182   5.568  92.274  1.00  0.00     0.018 A 
HETATM   12  C   UNL     1      10.733   5.055  93.446  1.00  0.00     0.021 A 
HETATM   13  C   UNL     1      11.610   3.972  93.389  1.00  0.00     0.010 A 
BRANCH  11  14
HETATM   14  C   UNL     1       9.281   6.678  92.334  1.00  0.00    -0.061 C 
HETATM   15  C   UNL     1       8.524   7.611  92.385  1.00  0.00    -0.061 C 
BRANCH  15  16
HETATM   16  C   UNL     1       7.624   8.720  92.445  1.00  0.00     0.018 A 
HETATM   17  C   UNL     1       6.643   8.875  91.465  1.00  0.00     0.022 A 
HETATM   18  C   UNL     1       5.764   9.956  91.525  1.00  0.00     0.018 A 
HETATM   19  C   UNL     1       5.884  10.857  92.563  1.00  0.00     0.032 A 
HETATM   20  C   UNL     1       6.845  10.725  93.543  1.00  0.00     0.018 A 
HETATM   21  C   UNL     1       7.725   9.645  93.484  1.00  0.00     0.022 A 
BRANCH  19  22
HETATM   22  C   UNL     1       4.949  12.009  92.625  1.00  0.00     0.252 C 
HETATM   23  O   UNL     1       4.569  12.415  93.721  1.00  0.00    -0.268 OA
HETATM   24  N   UNL     1       4.587  12.566  91.406  1.00  0.00    -0.342 N 
HETATM   25  H   UNL     1       4.961  12.193  90.541  1.00  0.00     0.163 HD
BRANCH  24  26
HETATM   26  C   UNL     1       3.708  13.702  91.303  1.00  0.00     0.199 C 
BRANCH  26  27
HETATM   27  C   UNL     1       3.776  14.383  89.930  1.00  0.00     0.145 C 
HETATM   28  C   UNL     1       5.034  15.227  89.759  1.00  0.00     0.042 C 
BRANCH  27  29
HETATM   29  O   UNL     1       3.739  13.392  88.904  1.00  0.00    -0.393 OA
HETATM   30  H   UNL     1       4.551  12.861  88.964  1.00  0.00     0.210 HD
ENDBRANCH  27  29
ENDBRANCH  26  27
BRANCH  26  31
HETATM   31  C   UNL     1       2.293  13.226  91.617  1.00  0.00     0.220 C 
HETATM   32  O   UNL     1       1.869  12.121  91.284  1.00  0.00    -0.278 OA
HETATM   33  N   UNL     1       1.556  14.184  92.270  1.00  0.00    -0.271 NA
HETATM   34  H   UNL     1       1.844  15.133  92.479  1.00  0.00     0.127 HD
HETATM   35  H   UNL     1       0.491  14.953  91.774  1.00  0.00     0.127 HD
ENDBRANCH  26  31
ENDBRANCH  24  26
ENDBRANCH  19  22
ENDBRANCH  15  16
ENDBRANCH  11  14
ENDBRANCH   7   8
ENDBRANCH   2   7
TORSDOF 9
ENDMDL
MODEL 4
REMARK VINA RESULT:      -6.2      1.717      2.631
REMARK  9 active torsions:
REMARK  status: ('A' for Active; 'I' for Inactive)
REMARK    1  A    between atoms: O_2  and  C_17 
REMARK    2  A    between atoms: N_5  and  C_10 
REMARK    3  A    between atoms: N_6  and  C_14 
REMARK       I    between atoms: N_6  and  C_23 
REMARK       I    between atoms: N_7  and  C_22 
REMARK    4  A    between atoms: C_10  and  C_13 
REMARK    5  A    between atoms: C_14  and  C_17 
REMARK    6  A    between atoms: C_14  and  C_22 
REMARK    7  A    between atoms: C_20  and  C_25 
REMARK    8  A    between atoms: C_23  and  C_24 
REMARK    9  A    between atoms: C_28  and  C_31 
ROOT
HETATM    1  O   UNL     1      16.433   2.808  93.687  1.00  0.00    -0.388 OA
HETATM    2  N   UNL     1      13.732   3.035  92.817  1.00  0.00     0.096 N 
HETATM    3  C   UNL     1      14.349   1.726  93.074  1.00  0.00     0.299 C 
HETATM    4  C   UNL     1      14.757   4.002  92.401  1.00  0.00     0.299 C 
HETATM    5  C   UNL     1      15.448   1.869  94.123  1.00  0.00     0.198 C 
HETATM    6  C   UNL     1      15.847   4.091  93.465  1.00  0.00     0.198 C 
ENDROOT
BRANCH   2   7
HETATM    7  C   UNL     1      12.682   2.923  91.806  1.00  0.00     0.311 C 
BRANCH   7   8
HETATM    8  C   UNL     1      11.655   3.996  91.933  1.00  0.00    -0.030 A 
HETATM    9  C   UNL     1      11.279   4.454  93.196  1.00  0.00     0.010 A 
HETATM   10  C   UNL     1      10.316   5.457  93.316  1.00  0.00     0.021 A 
HETATM   11  C   UNL     1       9.732   6.001  92.172  1.00  0.00     0.018 A 
HETATM   12  C   UNL     1      10.107   5.545  90.911  1.00  0.00     0.021 A 
HETATM   13  C   UNL     1      11.069   4.542  90.790  1.00  0.00     0.010 A 
BRANCH  11  14
HETATM   14  C   UNL     1       8.746   7.031  92.296  1.00  0.00    -0.061 C 
HETATM   15  C   UNL     1       7.918   7.897  92.398  1.00  0.00    -0.061 C 
BRANCH  15  16
HETATM   16  C   UNL     1       6.933   8.926  92.520  1.00  0.00     0.018 A 
HETATM   17  C   UNL     1       6.598   9.704  91.412  1.00  0.00     0.022 A 
HETATM   18  C   UNL     1       5.634  10.705  91.531  1.00  0.00     0.018 A 
HETATM   19  C   UNL     1       5.028  10.906  92.753  1.00  0.00     0.032 A 
HETATM   20  C   UNL     1       5.343  10.151  93.864  1.00  0.00     0.018 A 
HETATM   21  C   UNL     1       6.306   9.149  93.746  1.00  0.00     0.022 A 
BRANCH  19  22
HETATM   22  C   UNL     1       4.004  11.975  92.880  1.00  0.00     0.252 C 
HETATM   23  O   UNL     1       3.143  11.881  93.751  1.00  0.00    -0.268 OA
HETATM   24  N   UNL     1       4.120  13.036  91.992  1.00  0.00    -0.342 N 
HETATM   25  H   UNL     1       4.872  13.058  91.314  1.00  0.00     0.163 HD
BRANCH  24  26
HETATM   26  C   UNL     1       3.218  14.160  92.005  1.00  0.00     0.199 C 
BRANCH  26  27
HETATM   27  C   UNL     1       3.935  15.494  92.242  1.00  0.00     0.145 C 
HETATM   28  C   UNL     1       4.474  15.623  93.663  1.00  0.00     0.042 C 
BRANCH  27  29
HETATM   29  O   UNL     1       5.019  15.623  91.322  1.00  0.00    -0.393 OA
HETATM   30  H   UNL     1       4.652  15.825  90.445  1.00  0.00     0.210 HD
ENDBRANCH  27  29
ENDBRANCH  26  27
BRANCH  26  31
HETATM   31  C   UNL     1       2.461  14.165  90.681  1.00  0.00     0.220 C 
HETATM   32  O   UNL     1       1.327  14.625  90.560  1.00  0.00    -0.278 OA
HETATM   33  N   UNL     1       3.175  13.566  89.672  1.00  0.00    -0.271 NA
HETATM   34  H   UNL     1       4.070  13.098  89.758  1.00  0.00     0.127 HD
HETATM   35  H   UNL     1       2.943  12.326  89.057  1.00  0.00     0.127 HD
ENDBRANCH  26  31
ENDBRANCH  24  26
ENDBRANCH  19  22
ENDBRANCH  15  16
ENDBRANCH  11  14
ENDBRANCH   7   8
ENDBRANCH   2   7
TORSDOF 9
ENDMDL
MODEL 5
REMARK VINA RESULT:      -6.0      2.158     12.234
REMARK  9 active torsions:
REMARK  status: ('A' for Active; 'I' for Inactive)
REMARK    1  A    between atoms: O_2  and  C_17 
REMARK    2  A    between atoms: N_5  and  C_10 
REMARK    3  A    between atoms: N_6  and  C_14 
REMARK       I    between atoms: N_6  and  C_23 
REMARK       I    between atoms: N_7  and  C_22 
REMARK    4  A    between atoms: C_10  and  C_13 
REMARK    5  A    between atoms: C_14  and  C_17 
REMARK    6  A    between atoms: C_14  and  C_22 
REMARK    7  A    between atoms: C_20  and  C_25 
REMARK    8  A    between atoms: C_23  and  C_24 
REMARK    9  A    between atoms: C_28  and  C_31 
ROOT
HETATM    1  O   UNL     1       2.754  14.474  93.992  1.00  0.00    -0.388 OA
HETATM    2  N   UNL     1       2.729  14.513  91.146  1.00  0.00     0.096 N 
HETATM    3  C   UNL     1       1.643  13.889  91.915  1.00  0.00     0.299 C 
HETATM    4  C   UNL     1       3.986  14.443  91.903  1.00  0.00     0.299 C 
HETATM    5  C   UNL     1       1.520  14.565  93.278  1.00  0.00     0.198 C 
HETATM    6  C   UNL     1       3.808  15.106  93.265  1.00  0.00     0.198 C 
ENDROOT
BRANCH   2   7
HETATM    7  C   UNL     1       2.872  13.872  89.840  1.00  0.00     0.311 C 
BRANCH   7   8
HETATM    8  C   UNL     1       3.883  12.777  89.852  1.00  0.00    -0.030 A 
HETATM    9  C   UNL     1       3.594  11.570  90.489  1.00  0.00     0.010 A 
HETATM   10  C   UNL     1       4.541  10.545  90.503  1.00  0.00     0.021 A 
HETATM   11  C   UNL     1       5.774  10.728  89.878  1.00  0.00     0.018 A 
HETATM   12  C   UNL     1       6.063  11.933  89.241  1.00  0.00     0.021 A 
HETATM   13  C   UNL     1       5.117  12.958  89.228  1.00  0.00     0.010 A 
BRANCH  11  14
HETATM   14  C   UNL     1       6.743   9.676  89.891  1.00  0.00    -0.061 C 
HETATM   15  C   UNL     1       7.558   8.791  89.900  1.00  0.00    -0.061 C 
BRANCH  15  16
HETATM   16  C   UNL     1       8.528   7.741  89.912  1.00  0.00     0.018 A 
HETATM   17  C   UNL     1       8.842   7.097  91.109  1.00  0.00     0.022 A 
HETATM   18  C   UNL     1       9.786   6.070  91.120  1.00  0.00     0.018 A 
HETATM   19  C   UNL     1      10.393   5.710  89.935  1.00  0.00     0.032 A 
HETATM   20  C   UNL     1      10.099   6.331  88.739  1.00  0.00     0.018 A 
HETATM   21  C   UNL     1       9.156   7.358  88.727  1.00  0.00     0.022 A 
BRANCH  19  22
HETATM   22  C   UNL     1      11.400   4.617  89.948  1.00  0.00     0.252 C 
HETATM   23  O   UNL     1      11.607   3.981  88.918  1.00  0.00    -0.268 OA
HETATM   24  N   UNL     1      12.061   4.413  91.151  1.00  0.00    -0.342 N 
HETATM   25  H   UNL     1      11.855   4.995  91.954  1.00  0.00     0.163 HD
BRANCH  24  26
HETATM   26  C   UNL     1      13.081   3.409  91.315  1.00  0.00     0.199 C 
BRANCH  26  27
HETATM   27  C   UNL     1      14.298   3.921  92.096  1.00  0.00     0.145 C 
HETATM   28  C   UNL     1      13.981   4.184  93.564  1.00  0.00     0.042 C 
BRANCH  27  29
HETATM   29  O   UNL     1      15.354   2.964  92.014  1.00  0.00    -0.393 OA
HETATM   30  H   UNL     1      15.724   2.994  91.116  1.00  0.00     0.210 HD
ENDBRANCH  27  29
ENDBRANCH  26  27
BRANCH  26  31
HETATM   31  C   UNL     1      12.444   2.207  92.006  1.00  0.00     0.220 C 
HETATM   32  O   UNL     1      13.047   1.155  92.209  1.00  0.00    -0.278 OA
HETATM   33  N   UNL     1      11.128   2.432  92.329  1.00  0.00    -0.271 NA
HETATM   34  H   UNL     1      10.577   3.250  92.097  1.00  0.00     0.127 HD
HETATM   35  H   UNL     1       9.979   1.881  91.739  1.00  0.00     0.127 HD
ENDBRANCH  26  31
ENDBRANCH  24  26
ENDBRANCH  19  22
ENDBRANCH  15  16
ENDBRANCH  11  14
ENDBRANCH   7   8
ENDBRANCH   2   7
TORSDOF 9
ENDMDL
MODEL 6
REMARK VINA RESULT:      -5.0      1.925     12.294
REMARK  9 active torsions:
REMARK  status: ('A' for Active; 'I' for Inactive)
REMARK    1  A    between atoms: O_2  and  C_17 
REMARK    2  A    between atoms: N_5  and  C_10 
REMARK    3  A    between atoms: N_6  and  C_14 
REMARK       I    between atoms: N_6  and  C_23 
REMARK       I    between atoms: N_7  and  C_22 
REMARK    4  A    between atoms: C_10  and  C_13 
REMARK    5  A    between atoms: C_14  and  C_17 
REMARK    6  A    between atoms: C_14  and  C_22 
REMARK    7  A    between atoms: C_20  and  C_25 
REMARK    8  A    between atoms: C_23  and  C_24 
REMARK    9  A    between atoms: C_28  and  C_31 
ROOT
HETATM    1  O   UNL     1       5.696  14.854  89.310  1.00  0.00    -0.388 OA
HETATM    2  N   UNL     1       3.597  13.102  90.101  1.00  0.00     0.096 N 
HETATM    3  C   UNL     1       4.218  14.034  91.052  1.00  0.00     0.299 C 
HETATM    4  C   UNL     1       4.564  12.723  89.062  1.00  0.00     0.299 C 
HETATM    5  C   UNL     1       4.753  15.254  90.306  1.00  0.00     0.198 C 
HETATM    6  C   UNL     1       5.091  13.972  88.364  1.00  0.00     0.198 C 
ENDROOT
BRANCH   2   7
HETATM    7  C   UNL     1       3.087  11.920  90.793  1.00  0.00     0.311 C 
BRANCH   7   8
HETATM    8  C   UNL     1       4.162  10.935  91.103  1.00  0.00    -0.030 A 
HETATM    9  C   UNL     1       3.976   9.584  90.805  1.00  0.00     0.010 A 
HETATM   10  C   UNL     1       4.981   8.662  91.097  1.00  0.00     0.021 A 
HETATM   11  C   UNL     1       6.171   9.090  91.683  1.00  0.00     0.018 A 
HETATM   12  C   UNL     1       6.358  10.439  91.980  1.00  0.00     0.021 A 
HETATM   13  C   UNL     1       5.353  11.362  91.689  1.00  0.00     0.010 A 
BRANCH  11  14
HETATM   14  C   UNL     1       7.203   8.144  91.980  1.00  0.00    -0.061 C 
HETATM   15  C   UNL     1       8.070   7.350  92.230  1.00  0.00    -0.061 C 
BRANCH  15  16
HETATM   16  C   UNL     1       9.100   6.404  92.527  1.00  0.00     0.018 A 
HETATM   17  C   UNL     1       9.623   6.328  93.819  1.00  0.00     0.022 A 
HETATM   18  C   UNL     1      10.627   5.404  94.109  1.00  0.00     0.018 A 
HETATM   19  C   UNL     1      11.084   4.577  93.104  1.00  0.00     0.032 A 
HETATM   20  C   UNL     1      10.583   4.634  91.820  1.00  0.00     0.018 A 
HETATM   21  C   UNL     1       9.580   5.558  91.528  1.00  0.00     0.022 A 
BRANCH  19  22
HETATM   22  C   UNL     1      12.154   3.594  93.414  1.00  0.00     0.252 C 
HETATM   23  O   UNL     1      11.850   2.514  93.913  1.00  0.00    -0.268 OA
HETATM   24  N   UNL     1      13.446   3.978  93.083  1.00  0.00    -0.342 N 
HETATM   25  H   UNL     1      13.619   4.877  92.649  1.00  0.00     0.163 HD
BRANCH  24  26
HETATM   26  C   UNL     1      14.588   3.125  93.299  1.00  0.00     0.199 C 
BRANCH  26  27
HETATM   27  C   UNL     1      15.038   2.402  92.023  1.00  0.00     0.145 C 
HETATM   28  C   UNL     1      14.668   3.167  90.757  1.00  0.00     0.042 C 
BRANCH  27  29
HETATM   29  O   UNL     1      16.453   2.215  92.055  1.00  0.00    -0.393 OA
HETATM   30  H   UNL     1      16.747   2.269  92.980  1.00  0.00     0.210 HD
ENDBRANCH  27  29
ENDBRANCH  26  27
BRANCH  26  31
HETATM   31  C   UNL     1      15.708   3.985  93.874  1.00  0.00     0.220 C 
HETATM   32  O   UNL     1      15.598   5.196  94.055  1.00  0.00    -0.278 OA
HETATM   33  N   UNL     1      16.846   3.255  94.124  1.00  0.00    -0.271 NA
HETATM   34  H   UNL     1      17.000   2.278  93.905  1.00  0.00     0.127 HD
HETATM   35  H   UNL     1      18.065   3.277  93.429  1.00  0.00     0.127 HD
ENDBRANCH  26  31
ENDBRANCH  24  26
ENDBRANCH  19  22
ENDBRANCH  15  16
ENDBRANCH  11  14
ENDBRANCH   7   8
ENDBRANCH   2   7
TORSDOF 9
ENDMDL
MODEL 7
REMARK VINA RESULT:      -4.6      1.612     12.446
REMARK  9 active torsions:
REMARK  status: ('A' for Active; 'I' for Inactive)
REMARK    1  A    between atoms: O_2  and  C_17 
REMARK    2  A    between atoms: N_5  and  C_10 
REMARK    3  A    between atoms: N_6  and  C_14 
REMARK       I    between atoms: N_6  and  C_23 
REMARK       I    between atoms: N_7  and  C_22 
REMARK    4  A    between atoms: C_10  and  C_13 
REMARK    5  A    between atoms: C_14  and  C_17 
REMARK    6  A    between atoms: C_14  and  C_22 
REMARK    7  A    between atoms: C_20  and  C_25 
REMARK    8  A    between atoms: C_23  and  C_24 
REMARK    9  A    between atoms: C_28  and  C_31 
ROOT
HETATM    1  O   UNL     1       2.668  14.028  92.063  1.00  0.00    -0.388 OA
HETATM    2  N   UNL     1       4.070  13.386  89.672  1.00  0.00     0.096 N 
HETATM    3  C   UNL     1       2.603  13.448  89.708  1.00  0.00     0.299 C 
HETATM    4  C   UNL     1       4.591  13.009  90.993  1.00  0.00     0.299 C 
HETATM    5  C   UNL     1       2.153  14.426  90.791  1.00  0.00     0.198 C 
HETATM    6  C   UNL     1       4.095  13.995  92.045  1.00  0.00     0.198 C 
ENDROOT
BRANCH   2   7
HETATM    7  C   UNL     1       4.524  12.447  88.647  1.00  0.00     0.311 C 
BRANCH   7   8
HETATM    8  C   UNL     1       5.440  11.407  89.196  1.00  0.00    -0.030 A 
HETATM    9  C   UNL     1       4.919  10.215  89.699  1.00  0.00     0.010 A 
HETATM   10  C   UNL     1       5.775   9.242  90.215  1.00  0.00     0.021 A 
HETATM   11  C   UNL     1       7.152   9.461  90.224  1.00  0.00     0.018 A 
HETATM   12  C   UNL     1       7.674  10.651  89.721  1.00  0.00     0.021 A 
HETATM   13  C   UNL     1       6.818  11.624  89.206  1.00  0.00     0.010 A 
BRANCH  11  14
HETATM   14  C   UNL     1       8.031   8.462  90.751  1.00  0.00    -0.061 C 
HETATM   15  C   UNL     1       8.769   7.622  91.193  1.00  0.00    -0.061 C 
BRANCH  15  16
HETATM   16  C   UNL     1       9.647   6.624  91.718  1.00  0.00     0.018 A 
HETATM   17  C   UNL     1       9.809   6.495  93.098  1.00  0.00     0.022 A 
HETATM   18  C   UNL     1      10.664   5.519  93.610  1.00  0.00     0.018 A 
HETATM   19  C   UNL     1      11.336   4.694  92.733  1.00  0.00     0.032 A 
HETATM   20  C   UNL     1      11.193   4.802  91.365  1.00  0.00     0.018 A 
HETATM   21  C   UNL     1      10.339   5.777  90.852  1.00  0.00     0.022 A 
BRANCH  19  22
HETATM   22  C   UNL     1      12.248   3.656  93.279  1.00  0.00     0.252 C 
HETATM   23  O   UNL     1      11.809   2.532  93.506  1.00  0.00    -0.268 OA
HETATM   24  N   UNL     1      13.566   4.046  93.472  1.00  0.00    -0.342 N 
HETATM   25  H   UNL     1      13.863   4.986  93.239  1.00  0.00     0.163 HD
BRANCH  24  26
HETATM   26  C   UNL     1      14.575   3.147  93.972  1.00  0.00     0.199 C 
BRANCH  26  27
HETATM   27  C   UNL     1      14.675   1.853  93.154  1.00  0.00     0.145 C 
HETATM   28  C   UNL     1      15.691   1.955  92.022  1.00  0.00     0.042 C 
BRANCH  27  29
HETATM   29  O   UNL     1      15.044   0.773  94.012  1.00  0.00    -0.393 OA
HETATM   30  H   UNL     1      15.159  -0.024  93.467  1.00  0.00     0.210 HD
ENDBRANCH  27  29
ENDBRANCH  26  27
BRANCH  26  31
HETATM   31  C   UNL     1      15.903   3.898  93.987  1.00  0.00     0.220 C 
HETATM   32  O   UNL     1      15.982   5.119  93.868  1.00  0.00    -0.278 OA
HETATM   33  N   UNL     1      16.977   3.050  94.106  1.00  0.00    -0.271 NA
HETATM   34  H   UNL     1      16.953   2.037  94.116  1.00  0.00     0.127 HD
HETATM   35  H   UNL     1      17.926   2.703  93.132  1.00  0.00     0.127 HD
ENDBRANCH  26  31
ENDBRANCH  24  26
ENDBRANCH  19  22
ENDBRANCH  15  16
ENDBRANCH  11  14
ENDBRANCH   7   8
ENDBRANCH   2   7
TORSDOF 9
ENDMDL
