MODEL 1
REMARK VINA RESULT:      -6.9      0.000      0.000
REMARK  9 active torsions:
REMARK  status: ('A' for Active; 'I' for Inactive)
REMARK    1  A    between atoms: O_2  and  C_17 
REMARK    2  A    between atoms: N_5  and  C_10 
REMARK    3  A    between atoms: N_6  and  C_14 
REMARK       I    between atoms: N_6  and  C_23 
REMARK       I    between atoms: N_7  and  C_22 
REMARK    4  A    between atoms: C_10  and  C_13 
REMARK    5  A    between atoms: C_14  and  C_17 
REMARK    6  A    between atoms: C_14  and  C_22 
REMARK    7  A    between atoms: C_20  and  C_25 
REMARK    8  A    between atoms: C_23  and  C_24 
REMARK    9  A    between atoms: C_28  and  C_31 
ROOT
HETATM    1  O   UNL     1      16.548   3.322  93.599  1.00  0.00    -0.388 OA
HETATM    2  N   UNL     1      13.817   2.803  92.989  1.00  0.00     0.096 N 
HETATM    3  C   UNL     1      14.781   1.711  93.182  1.00  0.00     0.299 C 
HETATM    4  C   UNL     1      14.504   3.998  92.481  1.00  0.00     0.299 C 
HETATM    5  C   UNL     1      15.894   2.165  94.124  1.00  0.00     0.198 C 
HETATM    6  C   UNL     1      15.623   4.398  93.437  1.00  0.00     0.198 C 
ENDROOT
BRANCH   2   7
HETATM    7  C   UNL     1      12.746   2.393  92.082  1.00  0.00     0.311 C 
BRANCH   7   8
HETATM    8  C   UNL     1      11.779   3.495  91.811  1.00  0.00    -0.030 A 
HETATM    9  C   UNL     1      11.206   4.196  92.873  1.00  0.00     0.010 A 
HETATM   10  C   UNL     1      10.300   5.225  92.620  1.00  0.00     0.021 A 
HETATM   11  C   UNL     1       9.968   5.554  91.306  1.00  0.00     0.018 A 
HETATM   12  C   UNL     1      10.539   4.855  90.245  1.00  0.00     0.021 A 
HETATM   13  C   UNL     1      11.445   3.825  90.497  1.00  0.00     0.010 A 
BRANCH  11  14
HETATM   14  C   UNL     1       9.039   6.611  91.048  1.00  0.00    -0.061 C 
HETATM   15  C   UNL     1       8.259   7.500  90.831  1.00  0.00    -0.061 C 
BRANCH  15  16
HETATM   16  C   UNL     1       7.331   8.557  90.573  1.00  0.00     0.018 A 
HETATM   17  C   UNL     1       7.348   9.707  91.363  1.00  0.00     0.022 A 
HETATM   18  C   UNL     1       6.445  10.739  91.109  1.00  0.00     0.018 A 
HETATM   19  C   UNL     1       5.547  10.600  90.072  1.00  0.00     0.032 A 
HETATM   20  C   UNL     1       5.510   9.473  89.277  1.00  0.00     0.018 A 
HETATM   21  C   UNL     1       6.413   8.440  89.530  1.00  0.00     0.022 A 
BRANCH  19  22
HETATM   22  C   UNL     1       4.584  11.699  89.803  1.00  0.00     0.252 C 
HETATM   23  O   UNL     1       3.847  11.624  88.823  1.00  0.00    -0.268 OA
HETATM   24  N   UNL     1       4.579  12.740  90.721  1.00  0.00    -0.342 N 
HETATM   25  H   UNL     1       5.200  12.722  91.521  1.00  0.00     0.163 HD
BRANCH  24  26
HETATM   26  C   UNL     1       3.686  13.866  90.611  1.00  0.00     0.199 C 
BRANCH  26  27
HETATM   27  C   UNL     1       2.770  14.019  91.833  1.00  0.00     0.145 C 
HETATM   28  C   UNL     1       1.595  13.048  91.807  1.00  0.00     0.042 C 
BRANCH  27  29
HETATM   29  O   UNL     1       3.525  13.801  93.025  1.00  0.00    -0.393 OA
HETATM   30  H   UNL     1       3.588  12.843  93.175  1.00  0.00     0.210 HD
ENDBRANCH  27  29
ENDBRANCH  26  27
BRANCH  26  31
HETATM   31  C   UNL     1       4.535  15.114  90.395  1.00  0.00     0.220 C 
HETATM   32  O   UNL     1       4.776  15.575  89.281  1.00  0.00    -0.278 OA
HETATM   33  N   UNL     1       5.018  15.625  91.575  1.00  0.00    -0.271 NA
HETATM   34  H   UNL     1       4.913  15.221  92.499  1.00  0.00     0.127 HD
HETATM   35  H   UNL     1       6.335  15.602  92.061  1.00  0.00     0.127 HD
ENDBRANCH  26  31
ENDBRANCH  24  26
ENDBRANCH  19  22
ENDBRANCH  15  16
ENDBRANCH  11  14
ENDBRANCH   7   8
ENDBRANCH   2   7
TORSDOF 9
ENDMDL
