MODEL 1
REMARK VINA RESULT:      -7.0      0.000      0.000
REMARK  11 active torsions:
REMARK  status: ('A' for Active; 'I' for Inactive)
REMARK    1  A    between atoms: O_2  and  C_18 
REMARK    2  A    between atoms: O_5  and  P_8 
REMARK    3  A    between atoms: N_6  and  C_11 
REMARK    4  A    between atoms: N_7  and  C_15 
REMARK       I    between atoms: N_7  and  C_24 
REMARK    5  A    between atoms: P_8  and  C_23 
REMARK    6  A    between atoms: C_11  and  C_14 
REMARK    7  A    between atoms: C_15  and  C_18 
REMARK    8  A    between atoms: C_15  and  C_23 
REMARK    9  A    between atoms: C_21  and  C_26 
REMARK   10  A    between atoms: C_24  and  C_25 
REMARK   11  A    between atoms: C_29  and  C_32 
ROOT
HETATM    1  O   UNL     1      16.462   4.254  94.124  1.00  0.00     0.000 OA
HETATM    2  N   UNL     1      14.611   2.712  92.608  1.00  0.00     0.000 N 
HETATM    3  C   UNL     1      14.541   4.180  92.643  1.00  0.00     0.000 C 
HETATM    4  C   UNL     1      15.189   2.206  93.861  1.00  0.00     0.000 C 
HETATM    5  C   UNL     1      15.931   4.757  92.897  1.00  0.00     0.000 C 
HETATM    6  C   UNL     1      16.562   2.830  94.087  1.00  0.00     0.000 C 
ENDROOT
BRANCH   2   7
HETATM    7  C   UNL     1      13.287   2.137  92.376  1.00  0.00     0.000 C 
BRANCH   7   8
HETATM    8  C   UNL     1      12.251   3.178  92.127  1.00  0.00     0.000 A 
HETATM    9  C   UNL     1      11.861   3.473  90.820  1.00  0.00     0.000 A 
HETATM   10  C   UNL     1      10.892   4.449  90.584  1.00  0.00     0.000 A 
HETATM   11  C   UNL     1      10.314   5.128  91.656  1.00  0.00     0.000 A 
HETATM   12  C   UNL     1      10.702   4.834  92.962  1.00  0.00     0.000 A 
HETATM   13  C   UNL     1      11.671   3.859  93.197  1.00  0.00     0.000 A 
BRANCH  11  14
HETATM   14  C   UNL     1       9.319   6.128  91.415  1.00  0.00     0.000 C 
HETATM   15  C   UNL     1       8.482   6.967  91.212  1.00  0.00     0.000 C 
BRANCH  15  16
HETATM   16  C   UNL     1       7.488   7.966  90.971  1.00  0.00     0.000 A 
HETATM   17  C   UNL     1       7.820   9.317  91.066  1.00  0.00     0.000 A 
HETATM   18  C   UNL     1       6.850  10.291  90.829  1.00  0.00     0.000 A 
HETATM   19  C   UNL     1       5.571   9.892  90.501  1.00  0.00     0.000 A 
HETATM   20  C   UNL     1       5.218   8.563  90.401  1.00  0.00     0.000 A 
HETATM   21  C   UNL     1       6.187   7.588  90.639  1.00  0.00     0.000 A 
BRANCH  19  22
HETATM   22  C   UNL     1       4.538  10.930  90.250  1.00  0.00     0.000 C 
HETATM   23  O   UNL     1       3.397  10.582  89.957  1.00  0.00     0.000 OA
HETATM   24  N   UNL     1       4.951  12.247  90.395  1.00  0.00     0.000 N 
HETATM   25  HN  UNL     1       5.905  12.459  90.665  1.00  0.00     0.000 HD
BRANCH  24  26
HETATM   26  C   UNL     1       4.061  13.364  90.210  1.00  0.00     0.000 C 
BRANCH  26  27
HETATM   27  C   UNL     1       3.652  14.024  91.533  1.00  0.00     0.000 C 
HETATM   28  C   UNL     1       2.161  13.886  91.818  1.00  0.00     0.000 C 
BRANCH  27  29
HETATM   29  O   UNL     1       4.386  13.436  92.606  1.00  0.00     0.000 OA
HETATM   30  H   UNL     1       4.477  12.484  92.428  1.00  0.00     0.000 HD
ENDBRANCH  27  29
ENDBRANCH  26  27
BRANCH  26  31
HETATM   31  C   UNL     1       4.750  14.361  89.283  1.00  0.00     0.000 C 
HETATM   32  O   UNL     1       4.682  15.578  89.439  1.00  0.00     0.000 OA
BRANCH  31  33
HETATM   33  P   UNL     1       5.410  13.739  88.251  1.00  0.00     0.000 P 
HETATM   34  H   UNL     1       6.101  14.704  87.548  1.00  0.00     0.000 HD
BRANCH  33  35
HETATM   35  O   UNL     1       4.601  13.042  87.341  1.00  0.00     0.000 OA
HETATM   36  H   UNL     1       4.280  13.778  86.794  1.00  0.00     0.000 HD
ENDBRANCH  33  35
ENDBRANCH  31  33
ENDBRANCH  26  31
ENDBRANCH  24  26
ENDBRANCH  19  22
ENDBRANCH  15  16
ENDBRANCH  11  14
ENDBRANCH   7   8
ENDBRANCH   2   7
TORSDOF 11
ENDMDL
MODEL 2
REMARK VINA RESULT:      -7.0      1.169      1.453
REMARK  11 active torsions:
REMARK  status: ('A' for Active; 'I' for Inactive)
REMARK    1  A    between atoms: O_2  and  C_18 
REMARK    2  A    between atoms: O_5  and  P_8 
REMARK    3  A    between atoms: N_6  and  C_11 
REMARK    4  A    between atoms: N_7  and  C_15 
REMARK       I    between atoms: N_7  and  C_24 
REMARK    5  A    between atoms: P_8  and  C_23 
REMARK    6  A    between atoms: C_11  and  C_14 
REMARK    7  A    between atoms: C_15  and  C_18 
REMARK    8  A    between atoms: C_15  and  C_23 
REMARK    9  A    between atoms: C_21  and  C_26 
REMARK   10  A    between atoms: C_24  and  C_25 
REMARK   11  A    between atoms: C_29  and  C_32 
ROOT
HETATM    1  O   UNL     1      15.846   3.870  94.120  1.00  0.00     0.000 OA
HETATM    2  N   UNL     1      14.076   2.573  92.307  1.00  0.00     0.000 N 
HETATM    3  C   UNL     1      14.133   4.037  92.409  1.00  0.00     0.000 C 
HETATM    4  C   UNL     1      14.440   1.964  93.595  1.00  0.00     0.000 C 
HETATM    5  C   UNL     1      15.525   4.470  92.864  1.00  0.00     0.000 C 
HETATM    6  C   UNL     1      15.822   2.445  94.022  1.00  0.00     0.000 C 
ENDROOT
BRANCH   2   7
HETATM    7  C   UNL     1      12.748   2.135  91.883  1.00  0.00     0.000 C 
BRANCH   7   8
HETATM    8  C   UNL     1      11.829   3.280  91.621  1.00  0.00     0.000 A 
HETATM    9  C   UNL     1      11.646   3.741  90.317  1.00  0.00     0.000 A 
HETATM   10  C   UNL     1      10.789   4.814  90.071  1.00  0.00     0.000 A 
HETATM   11  C   UNL     1      10.113   5.422  91.129  1.00  0.00     0.000 A 
HETATM   12  C   UNL     1      10.295   4.961  92.431  1.00  0.00     0.000 A 
HETATM   13  C   UNL     1      11.153   3.890  92.677  1.00  0.00     0.000 A 
BRANCH  11  14
HETATM   14  C   UNL     1       9.232   6.521  90.876  1.00  0.00     0.000 C 
HETATM   15  C   UNL     1       8.491   7.443  90.664  1.00  0.00     0.000 C 
BRANCH  15  16
HETATM   16  C   UNL     1       7.611   8.542  90.413  1.00  0.00     0.000 A 
HETATM   17  C   UNL     1       7.537   9.597  91.322  1.00  0.00     0.000 A 
HETATM   18  C   UNL     1       6.680  10.669  91.075  1.00  0.00     0.000 A 
HETATM   19  C   UNL     1       5.918  10.663  89.925  1.00  0.00     0.000 A 
HETATM   20  C   UNL     1       5.973   9.632  89.011  1.00  0.00     0.000 A 
HETATM   21  C   UNL     1       6.829   8.558  89.257  1.00  0.00     0.000 A 
BRANCH  19  22
HETATM   22  C   UNL     1       5.004  11.805  89.664  1.00  0.00     0.000 C 
HETATM   23  O   UNL     1       4.720  12.092  88.503  1.00  0.00     0.000 OA
HETATM   24  N   UNL     1       4.511  12.458  90.785  1.00  0.00     0.000 N 
HETATM   25  HN  UNL     1       4.770  12.149  91.714  1.00  0.00     0.000 HD
BRANCH  24  26
HETATM   26  C   UNL     1       3.596  13.568  90.696  1.00  0.00     0.000 C 
BRANCH  26  27
HETATM   27  C   UNL     1       2.262  13.296  91.403  1.00  0.00     0.000 C 
HETATM   28  C   UNL     1       2.422  12.397  92.624  1.00  0.00     0.000 C 
BRANCH  27  29
HETATM   29  O   UNL     1       1.678  14.532  91.812  1.00  0.00     0.000 OA
HETATM   30  H   UNL     1       0.875  14.335  92.323  1.00  0.00     0.000 HD
ENDBRANCH  27  29
ENDBRANCH  26  27
BRANCH  26  31
HETATM   31  C   UNL     1       4.292  14.794  91.277  1.00  0.00     0.000 C 
HETATM   32  O   UNL     1       4.241  15.090  92.470  1.00  0.00     0.000 OA
BRANCH  31  33
HETATM   33  P   UNL     1       4.937  15.530  90.314  1.00  0.00     0.000 P 
HETATM   34  H   UNL     1       4.444  16.818  90.364  1.00  0.00     0.000 HD
BRANCH  33  35
HETATM   35  O   UNL     1       4.798  15.068  88.997  1.00  0.00     0.000 OA
HETATM   36  H   UNL     1       4.528  14.149  89.163  1.00  0.00     0.000 HD
ENDBRANCH  33  35
ENDBRANCH  31  33
ENDBRANCH  26  31
ENDBRANCH  24  26
ENDBRANCH  19  22
ENDBRANCH  15  16
ENDBRANCH  11  14
ENDBRANCH   7   8
ENDBRANCH   2   7
TORSDOF 11
ENDMDL
MODEL 3
REMARK VINA RESULT:      -6.7      1.822      2.734
REMARK  11 active torsions:
REMARK  status: ('A' for Active; 'I' for Inactive)
REMARK    1  A    between atoms: O_2  and  C_18 
REMARK    2  A    between atoms: O_5  and  P_8 
REMARK    3  A    between atoms: N_6  and  C_11 
REMARK    4  A    between atoms: N_7  and  C_15 
REMARK       I    between atoms: N_7  and  C_24 
REMARK    5  A    between atoms: P_8  and  C_23 
REMARK    6  A    between atoms: C_11  and  C_14 
REMARK    7  A    between atoms: C_15  and  C_18 
REMARK    8  A    between atoms: C_15  and  C_23 
REMARK    9  A    between atoms: C_21  and  C_26 
REMARK   10  A    between atoms: C_24  and  C_25 
REMARK   11  A    between atoms: C_29  and  C_32 
ROOT
HETATM    1  O   UNL     1      16.152   4.038  93.988  1.00  0.00     0.000 OA
HETATM    2  N   UNL     1      14.214   2.682  92.405  1.00  0.00     0.000 N 
HETATM    3  C   UNL     1      14.408   4.135  92.303  1.00  0.00     0.000 C 
HETATM    4  C   UNL     1      14.562   2.221  93.756  1.00  0.00     0.000 C 
HETATM    5  C   UNL     1      15.847   4.491  92.667  1.00  0.00     0.000 C 
HETATM    6  C   UNL     1      15.996   2.622  94.086  1.00  0.00     0.000 C 
ENDROOT
BRANCH   2   7
HETATM    7  C   UNL     1      12.838   2.319  92.070  1.00  0.00     0.000 C 
BRANCH   7   8
HETATM    8  C   UNL     1      11.906   3.480  92.159  1.00  0.00     0.000 A 
HETATM    9  C   UNL     1      11.351   4.017  90.997  1.00  0.00     0.000 A 
HETATM   10  C   UNL     1      10.481   5.104  91.078  1.00  0.00     0.000 A 
HETATM   11  C   UNL     1      10.166   5.652  92.321  1.00  0.00     0.000 A 
HETATM   12  C   UNL     1      10.720   5.116  93.482  1.00  0.00     0.000 A 
HETATM   13  C   UNL     1      11.590   4.029  93.401  1.00  0.00     0.000 A 
BRANCH  11  14
HETATM   14  C   UNL     1       9.272   6.766  92.405  1.00  0.00     0.000 C 
HETATM   15  C   UNL     1       8.521   7.703  92.474  1.00  0.00     0.000 C 
BRANCH  15  16
HETATM   16  C   UNL     1       7.628   8.816  92.557  1.00  0.00     0.000 A 
HETATM   17  C   UNL     1       6.820   9.142  91.468  1.00  0.00     0.000 A 
HETATM   18  C   UNL     1       5.946  10.227  91.549  1.00  0.00     0.000 A 
HETATM   19  C   UNL     1       5.900  10.959  92.717  1.00  0.00     0.000 A 
HETATM   20  C   UNL     1       6.689  10.657  93.807  1.00  0.00     0.000 A 
HETATM   21  C   UNL     1       7.563   9.573  93.727  1.00  0.00     0.000 A 
BRANCH  19  22
HETATM   22  C   UNL     1       4.970  12.115  92.803  1.00  0.00     0.000 C 
HETATM   23  O   UNL     1       4.837  12.700  93.875  1.00  0.00     0.000 OA
HETATM   24  N   UNL     1       4.327  12.467  91.624  1.00  0.00     0.000 N 
HETATM   25  HN  UNL     1       4.506  11.953  90.769  1.00  0.00     0.000 HD
BRANCH  24  26
HETATM   26  C   UNL     1       3.416  13.580  91.541  1.00  0.00     0.000 C 
BRANCH  26  27
HETATM   27  C   UNL     1       3.395  14.227  90.150  1.00  0.00     0.000 C 
HETATM   28  C   UNL     1       4.775  14.700  89.706  1.00  0.00     0.000 C 
BRANCH  27  29
HETATM   29  O   UNL     1       2.896  13.292  89.195  1.00  0.00     0.000 OA
HETATM   30  H   UNL     1       3.651  12.810  88.818  1.00  0.00     0.000 HD
ENDBRANCH  27  29
ENDBRANCH  26  27
BRANCH  26  31
HETATM   31  C   UNL     1       2.031  13.079  91.939  1.00  0.00     0.000 C 
HETATM   32  O   UNL     1       1.663  11.918  91.764  1.00  0.00     0.000 OA
BRANCH  31  33
HETATM   33  P   UNL     1       1.251  14.077  92.471  1.00  0.00     0.000 P 
HETATM   34  H   UNL     1       0.490  14.608  91.450  1.00  0.00     0.000 HD
BRANCH  33  35
HETATM   35  O   UNL     1       1.943  15.131  93.084  1.00  0.00     0.000 OA
HETATM   36  H   UNL     1       2.760  14.674  93.346  1.00  0.00     0.000 HD
ENDBRANCH  33  35
ENDBRANCH  31  33
ENDBRANCH  26  31
ENDBRANCH  24  26
ENDBRANCH  19  22
ENDBRANCH  15  16
ENDBRANCH  11  14
ENDBRANCH   7   8
ENDBRANCH   2   7
TORSDOF 11
ENDMDL
MODEL 4
REMARK VINA RESULT:      -5.2      3.412     12.234
REMARK  11 active torsions:
REMARK  status: ('A' for Active; 'I' for Inactive)
REMARK    1  A    between atoms: O_2  and  C_18 
REMARK    2  A    between atoms: O_5  and  P_8 
REMARK    3  A    between atoms: N_6  and  C_11 
REMARK    4  A    between atoms: N_7  and  C_15 
REMARK       I    between atoms: N_7  and  C_24 
REMARK    5  A    between atoms: P_8  and  C_23 
REMARK    6  A    between atoms: C_11  and  C_14 
REMARK    7  A    between atoms: C_15  and  C_18 
REMARK    8  A    between atoms: C_15  and  C_23 
REMARK    9  A    between atoms: C_21  and  C_26 
REMARK   10  A    between atoms: C_24  and  C_25 
REMARK   11  A    between atoms: C_29  and  C_32 
ROOT
HETATM    1  O   UNL     1       3.185  14.788  93.719  1.00  0.00     0.000 OA
HETATM    2  N   UNL     1       2.821  14.458  90.915  1.00  0.00     0.000 N 
HETATM    3  C   UNL     1       1.865  13.904  91.884  1.00  0.00     0.000 C 
HETATM    4  C   UNL     1       4.161  14.528  91.514  1.00  0.00     0.000 C 
HETATM    5  C   UNL     1       1.872  14.746  93.157  1.00  0.00     0.000 C 
HETATM    6  C   UNL     1       4.114  15.355  92.795  1.00  0.00     0.000 C 
ENDROOT
BRANCH   2   7
HETATM    7  C   UNL     1       2.839  13.659  89.691  1.00  0.00     0.000 C 
BRANCH   7   8
HETATM    8  C   UNL     1       3.837  12.553  89.749  1.00  0.00     0.000 A 
HETATM    9  C   UNL     1       5.142  12.768  89.303  1.00  0.00     0.000 A 
HETATM   10  C   UNL     1       6.076  11.734  89.355  1.00  0.00     0.000 A 
HETATM   11  C   UNL     1       5.705  10.486  89.855  1.00  0.00     0.000 A 
HETATM   12  C   UNL     1       4.403  10.270  90.301  1.00  0.00     0.000 A 
HETATM   13  C   UNL     1       3.468  11.304  90.249  1.00  0.00     0.000 A 
BRANCH  11  14
HETATM   14  C   UNL     1       6.664   9.425  89.910  1.00  0.00     0.000 C 
HETATM   15  C   UNL     1       7.470   8.534  89.957  1.00  0.00     0.000 C 
BRANCH  15  16
HETATM   16  C   UNL     1       8.429   7.475  90.013  1.00  0.00     0.000 A 
HETATM   17  C   UNL     1       9.253   7.223  88.916  1.00  0.00     0.000 A 
HETATM   18  C   UNL     1      10.190   6.191  88.972  1.00  0.00     0.000 A 
HETATM   19  C   UNL     1      10.282   5.436  90.122  1.00  0.00     0.000 A 
HETATM   20  C   UNL     1       9.478   5.665  91.219  1.00  0.00     0.000 A 
HETATM   21  C   UNL     1       8.541   6.696  91.165  1.00  0.00     0.000 A 
BRANCH  19  22
HETATM   22  C   UNL     1      11.279   4.335  90.180  1.00  0.00     0.000 C 
HETATM   23  O   UNL     1      11.327   3.521  89.262  1.00  0.00     0.000 OA
HETATM   24  N   UNL     1      12.115   4.331  91.288  1.00  0.00     0.000 N 
HETATM   25  HN  UNL     1      12.034   5.052  91.995  1.00  0.00     0.000 HD
BRANCH  24  26
HETATM   26  C   UNL     1      13.148   3.344  91.476  1.00  0.00     0.000 C 
BRANCH  26  27
HETATM   27  C   UNL     1      14.547   3.877  91.140  1.00  0.00     0.000 C 
HETATM   28  C   UNL     1      15.351   2.906  90.283  1.00  0.00     0.000 C 
BRANCH  27  29
HETATM   29  O   UNL     1      14.431   5.120  90.448  1.00  0.00     0.000 OA
HETATM   30  H   UNL     1      15.156   5.699  90.738  1.00  0.00     0.000 HD
ENDBRANCH  27  29
ENDBRANCH  26  27
BRANCH  26  31
HETATM   31  C   UNL     1      13.071   2.858  92.919  1.00  0.00     0.000 C 
HETATM   32  O   UNL     1      13.920   2.126  93.426  1.00  0.00     0.000 OA
BRANCH  31  33
HETATM   33  P   UNL     1      11.938   3.302  93.557  1.00  0.00     0.000 P 
HETATM   34  H   UNL     1      10.911   3.310  92.635  1.00  0.00     0.000 HD
BRANCH  33  35
HETATM   35  O   UNL     1      12.018   4.582  94.123  1.00  0.00     0.000 OA
HETATM   36  H   UNL     1      11.842   5.131  93.340  1.00  0.00     0.000 HD
ENDBRANCH  33  35
ENDBRANCH  31  33
ENDBRANCH  26  31
ENDBRANCH  24  26
ENDBRANCH  19  22
ENDBRANCH  15  16
ENDBRANCH  11  14
ENDBRANCH   7   8
ENDBRANCH   2   7
TORSDOF 11
ENDMDL
MODEL 5
REMARK VINA RESULT:      -5.0      1.378      2.389
REMARK  11 active torsions:
REMARK  status: ('A' for Active; 'I' for Inactive)
REMARK    1  A    between atoms: O_2  and  C_18 
REMARK    2  A    between atoms: O_5  and  P_8 
REMARK    3  A    between atoms: N_6  and  C_11 
REMARK    4  A    between atoms: N_7  and  C_15 
REMARK       I    between atoms: N_7  and  C_24 
REMARK    5  A    between atoms: P_8  and  C_23 
REMARK    6  A    between atoms: C_11  and  C_14 
REMARK    7  A    between atoms: C_15  and  C_18 
REMARK    8  A    between atoms: C_15  and  C_23 
REMARK    9  A    between atoms: C_21  and  C_26 
REMARK   10  A    between atoms: C_24  and  C_25 
REMARK   11  A    between atoms: C_29  and  C_32 
ROOT
HETATM    1  O   UNL     1      17.044   3.931  93.756  1.00  0.00     0.000 OA
HETATM    2  N   UNL     1      14.539   2.674  93.259  1.00  0.00     0.000 N 
HETATM    3  C   UNL     1      15.808   2.021  92.910  1.00  0.00     0.000 C 
HETATM    4  C   UNL     1      14.692   4.135  93.201  1.00  0.00     0.000 C 
HETATM    5  C   UNL     1      16.914   2.510  93.842  1.00  0.00     0.000 C 
HETATM    6  C   UNL     1      15.824   4.574  94.124  1.00  0.00     0.000 C 
ENDROOT
BRANCH   2   7
HETATM    7  C   UNL     1      13.466   2.228  92.372  1.00  0.00     0.000 C 
BRANCH   7   8
HETATM    8  C   UNL     1      12.502   3.319  92.054  1.00  0.00     0.000 A 
HETATM    9  C   UNL     1      11.669   3.827  93.052  1.00  0.00     0.000 A 
HETATM   10  C   UNL     1      10.765   4.846  92.755  1.00  0.00     0.000 A 
HETATM   11  C   UNL     1      10.695   5.359  91.460  1.00  0.00     0.000 A 
HETATM   12  C   UNL     1      11.526   4.853  90.462  1.00  0.00     0.000 A 
HETATM   13  C   UNL     1      12.430   3.833  90.759  1.00  0.00     0.000 A 
BRANCH  11  14
HETATM   14  C   UNL     1       9.769   6.406  91.155  1.00  0.00     0.000 C 
HETATM   15  C   UNL     1       8.991   7.286  90.898  1.00  0.00     0.000 C 
BRANCH  15  16
HETATM   16  C   UNL     1       8.065   8.331  90.594  1.00  0.00     0.000 A 
HETATM   17  C   UNL     1       7.142   8.165  89.561  1.00  0.00     0.000 A 
HETATM   18  C   UNL     1       6.237   9.185  89.266  1.00  0.00     0.000 A 
HETATM   19  C   UNL     1       6.274  10.346  90.010  1.00  0.00     0.000 A 
HETATM   20  C   UNL     1       7.176  10.534  91.035  1.00  0.00     0.000 A 
HETATM   21  C   UNL     1       8.082   9.515  91.331  1.00  0.00     0.000 A 
BRANCH  19  22
HETATM   22  C   UNL     1       5.311  11.432  89.694  1.00  0.00     0.000 C 
HETATM   23  O   UNL     1       4.753  11.439  88.599  1.00  0.00     0.000 OA
HETATM   24  N   UNL     1       5.094  12.364  90.699  1.00  0.00     0.000 N 
HETATM   25  HN  UNL     1       5.572  12.280  91.588  1.00  0.00     0.000 HD
BRANCH  24  26
HETATM   26  C   UNL     1       4.172  13.462  90.554  1.00  0.00     0.000 C 
BRANCH  26  27
HETATM   27  C   UNL     1       2.727  12.997  90.332  1.00  0.00     0.000 C 
HETATM   28  C   UNL     1       1.711  13.902  91.020  1.00  0.00     0.000 C 
BRANCH  27  29
HETATM   29  O   UNL     1       2.445  12.964  88.933  1.00  0.00     0.000 OA
HETATM   30  H   UNL     1       1.660  12.408  88.793  1.00  0.00     0.000 HD
ENDBRANCH  27  29
ENDBRANCH  26  27
BRANCH  26  31
HETATM   31  C   UNL     1       4.289  14.336  91.797  1.00  0.00     0.000 C 
HETATM   32  O   UNL     1       4.258  15.565  91.758  1.00  0.00     0.000 OA
BRANCH  31  33
HETATM   33  P   UNL     1       4.469  13.594  92.939  1.00  0.00     0.000 P 
HETATM   34  H   UNL     1       3.364  12.781  93.094  1.00  0.00     0.000 HD
BRANCH  33  35
HETATM   35  O   UNL     1       4.632  14.326  94.124  1.00  0.00     0.000 OA
HETATM   36  H   UNL     1       5.554  14.102  94.341  1.00  0.00     0.000 HD
ENDBRANCH  33  35
ENDBRANCH  31  33
ENDBRANCH  26  31
ENDBRANCH  24  26
ENDBRANCH  19  22
ENDBRANCH  15  16
ENDBRANCH  11  14
ENDBRANCH   7   8
ENDBRANCH   2   7
TORSDOF 11
ENDMDL
MODEL 6
REMARK VINA RESULT:      -4.8      3.554     12.339
REMARK  11 active torsions:
REMARK  status: ('A' for Active; 'I' for Inactive)
REMARK    1  A    between atoms: O_2  and  C_18 
REMARK    2  A    between atoms: O_5  and  P_8 
REMARK    3  A    between atoms: N_6  and  C_11 
REMARK    4  A    between atoms: N_7  and  C_15 
REMARK       I    between atoms: N_7  and  C_24 
REMARK    5  A    between atoms: P_8  and  C_23 
REMARK    6  A    between atoms: C_11  and  C_14 
REMARK    7  A    between atoms: C_15  and  C_18 
REMARK    8  A    between atoms: C_15  and  C_23 
REMARK    9  A    between atoms: C_21  and  C_26 
REMARK   10  A    between atoms: C_24  and  C_25 
REMARK   11  A    between atoms: C_29  and  C_32 
ROOT
HETATM    1  O   UNL     1       2.692  14.734  94.083  1.00  0.00     0.000 OA
HETATM    2  N   UNL     1       2.677  14.566  91.242  1.00  0.00     0.000 N 
HETATM    3  C   UNL     1       1.774  13.749  92.064  1.00  0.00     0.000 C 
HETATM    4  C   UNL     1       3.908  14.861  91.988  1.00  0.00     0.000 C 
HETATM    5  C   UNL     1       1.478  14.468  93.378  1.00  0.00     0.000 C 
HETATM    6  C   UNL     1       3.563  15.553  93.303  1.00  0.00     0.000 C 
ENDROOT
BRANCH   2   7
HETATM    7  C   UNL     1       2.983  13.890  89.982  1.00  0.00     0.000 C 
BRANCH   7   8
HETATM    8  C   UNL     1       3.982  12.797  90.151  1.00  0.00     0.000 A 
HETATM    9  C   UNL     1       5.031  12.665  89.241  1.00  0.00     0.000 A 
HETATM   10  C   UNL     1       5.965  11.641  89.397  1.00  0.00     0.000 A 
HETATM   11  C   UNL     1       5.850  10.751  90.464  1.00  0.00     0.000 A 
HETATM   12  C   UNL     1       4.803  10.882  91.374  1.00  0.00     0.000 A 
HETATM   13  C   UNL     1       3.869  11.905  91.218  1.00  0.00     0.000 A 
BRANCH  11  14
HETATM   14  C   UNL     1       6.810   9.702  90.626  1.00  0.00     0.000 C 
HETATM   15  C   UNL     1       7.615   8.819  90.761  1.00  0.00     0.000 C 
BRANCH  15  16
HETATM   16  C   UNL     1       8.574   7.771  90.922  1.00  0.00     0.000 A 
HETATM   17  C   UNL     1       9.029   7.433  92.196  1.00  0.00     0.000 A 
HETATM   18  C   UNL     1       9.962   6.408  92.352  1.00  0.00     0.000 A 
HETATM   19  C   UNL     1      10.418   5.744  91.232  1.00  0.00     0.000 A 
HETATM   20  C   UNL     1       9.983   6.060  89.962  1.00  0.00     0.000 A 
HETATM   21  C   UNL     1       9.050   7.085  89.805  1.00  0.00     0.000 A 
BRANCH  19  22
HETATM   22  C   UNL     1      11.413   4.654  91.399  1.00  0.00     0.000 C 
HETATM   23  O   UNL     1      11.589   3.856  90.482  1.00  0.00     0.000 OA
HETATM   24  N   UNL     1      12.102   4.638  92.605  1.00  0.00     0.000 N 
HETATM   25  HN  UNL     1      11.921   5.345  93.307  1.00  0.00     0.000 HD
BRANCH  24  26
HETATM   26  C   UNL     1      13.115   3.659  92.906  1.00  0.00     0.000 C 
BRANCH  26  27
HETATM   27  C   UNL     1      12.862   2.312  92.217  1.00  0.00     0.000 C 
HETATM   28  C   UNL     1      13.892   1.256  92.604  1.00  0.00     0.000 C 
BRANCH  27  29
HETATM   29  O   UNL     1      11.561   1.837  92.560  1.00  0.00     0.000 OA
HETATM   30  H   UNL     1      11.613   1.403  93.428  1.00  0.00     0.000 HD
ENDBRANCH  27  29
ENDBRANCH  26  27
BRANCH  26  31
HETATM   31  C   UNL     1      14.464   4.244  92.502  1.00  0.00     0.000 C 
HETATM   32  O   UNL     1      14.695   4.677  91.375  1.00  0.00     0.000 OA
BRANCH  31  33
HETATM   33  P   UNL     1      15.380   4.192  93.525  1.00  0.00     0.000 P 
HETATM   34  H   UNL     1      14.686   4.027  94.706  1.00  0.00     0.000 HD
BRANCH  33  35
HETATM   35  O   UNL     1      16.204   5.317  93.664  1.00  0.00     0.000 OA
HETATM   36  H   UNL     1      16.103   5.717  92.783  1.00  0.00     0.000 HD
ENDBRANCH  33  35
ENDBRANCH  31  33
ENDBRANCH  26  31
ENDBRANCH  24  26
ENDBRANCH  19  22
ENDBRANCH  15  16
ENDBRANCH  11  14
ENDBRANCH   7   8
ENDBRANCH   2   7
TORSDOF 11
ENDMDL
MODEL 7
REMARK VINA RESULT:      -4.5      3.439     12.500
REMARK  11 active torsions:
REMARK  status: ('A' for Active; 'I' for Inactive)
REMARK    1  A    between atoms: O_2  and  C_18 
REMARK    2  A    between atoms: O_5  and  P_8 
REMARK    3  A    between atoms: N_6  and  C_11 
REMARK    4  A    between atoms: N_7  and  C_15 
REMARK       I    between atoms: N_7  and  C_24 
REMARK    5  A    between atoms: P_8  and  C_23 
REMARK    6  A    between atoms: C_11  and  C_14 
REMARK    7  A    between atoms: C_15  and  C_18 
REMARK    8  A    between atoms: C_15  and  C_23 
REMARK    9  A    between atoms: C_21  and  C_26 
REMARK   10  A    between atoms: C_24  and  C_25 
REMARK   11  A    between atoms: C_29  and  C_32 
ROOT
HETATM    1  O   UNL     1       2.478  13.684  92.000  1.00  0.00     0.000 OA
HETATM    2  N   UNL     1       3.076  12.501  89.481  1.00  0.00     0.000 N 
HETATM    3  C   UNL     1       3.218  11.749  90.735  1.00  0.00     0.000 C 
HETATM    4  C   UNL     1       3.287  13.934  89.726  1.00  0.00     0.000 C 
HETATM    5  C   UNL     1       2.243  12.293  91.777  1.00  0.00     0.000 C 
HETATM    6  C   UNL     1       2.312  14.426  90.791  1.00  0.00     0.000 C 
ENDROOT
BRANCH   2   7
HETATM    7  C   UNL     1       4.009  12.004  88.471  1.00  0.00     0.000 C 
BRANCH   7   8
HETATM    8  C   UNL     1       4.984  11.025  89.032  1.00  0.00     0.000 A 
HETATM    9  C   UNL     1       4.617   9.687  89.185  1.00  0.00     0.000 A 
HETATM   10  C   UNL     1       5.527   8.770  89.711  1.00  0.00     0.000 A 
HETATM   11  C   UNL     1       6.804   9.191  90.081  1.00  0.00     0.000 A 
HETATM   12  C   UNL     1       7.171  10.527  89.929  1.00  0.00     0.000 A 
HETATM   13  C   UNL     1       6.261  11.444  89.403  1.00  0.00     0.000 A 
BRANCH  11  14
HETATM   14  C   UNL     1       7.738   8.251  90.619  1.00  0.00     0.000 C 
HETATM   15  C   UNL     1       8.523   7.460  91.072  1.00  0.00     0.000 C 
BRANCH  15  16
HETATM   16  C   UNL     1       9.456   6.520  91.610  1.00  0.00     0.000 A 
HETATM   17  C   UNL     1      10.141   5.653  90.758  1.00  0.00     0.000 A 
HETATM   18  C   UNL     1      11.053   4.738  91.283  1.00  0.00     0.000 A 
HETATM   19  C   UNL     1      11.260   4.710  92.646  1.00  0.00     0.000 A 
HETATM   20  C   UNL     1      10.595   5.556  93.509  1.00  0.00     0.000 A 
HETATM   21  C   UNL     1       9.683   6.471  92.985  1.00  0.00     0.000 A 
BRANCH  19  22
HETATM   22  C   UNL     1      12.230   3.733  93.204  1.00  0.00     0.000 C 
HETATM   23  O   UNL     1      11.820   2.654  93.626  1.00  0.00     0.000 OA
HETATM   24  N   UNL     1      13.563   4.120  93.183  1.00  0.00     0.000 N 
HETATM   25  HN  UNL     1      13.831   5.017  92.796  1.00  0.00     0.000 HD
BRANCH  24  26
HETATM   26  C   UNL     1      14.624   3.273  93.666  1.00  0.00     0.000 C 
BRANCH  26  27
HETATM   27  C   UNL     1      14.963   2.134  92.696  1.00  0.00     0.000 C 
HETATM   28  C   UNL     1      14.332   0.809  93.110  1.00  0.00     0.000 C 
BRANCH  27  29
HETATM   29  O   UNL     1      14.512   2.472  91.385  1.00  0.00     0.000 OA
HETATM   30  H   UNL     1      13.793   3.122  91.469  1.00  0.00     0.000 HD
ENDBRANCH  27  29
ENDBRANCH  26  27
BRANCH  26  31
HETATM   31  C   UNL     1      15.840   4.155  93.931  1.00  0.00     0.000 C 
HETATM   32  O   UNL     1      15.788   5.384  93.933  1.00  0.00     0.000 OA
BRANCH  31  33
HETATM   33  P   UNL     1      16.984   3.419  94.124  1.00  0.00     0.000 P 
HETATM   34  H   UNL     1      17.538   3.806  95.327  1.00  0.00     0.000 HD
BRANCH  33  35
HETATM   35  O   UNL     1      17.968   3.550  93.134  1.00  0.00     0.000 OA
HETATM   36  H   UNL     1      17.932   4.510  92.979  1.00  0.00     0.000 HD
ENDBRANCH  33  35
ENDBRANCH  31  33
ENDBRANCH  26  31
ENDBRANCH  24  26
ENDBRANCH  19  22
ENDBRANCH  15  16
ENDBRANCH  11  14
ENDBRANCH   7   8
ENDBRANCH   2   7
TORSDOF 11
ENDMDL
MODEL 8
REMARK VINA RESULT:      -4.4      1.442      1.967
REMARK  11 active torsions:
REMARK  status: ('A' for Active; 'I' for Inactive)
REMARK    1  A    between atoms: O_2  and  C_18 
REMARK    2  A    between atoms: O_5  and  P_8 
REMARK    3  A    between atoms: N_6  and  C_11 
REMARK    4  A    between atoms: N_7  and  C_15 
REMARK       I    between atoms: N_7  and  C_24 
REMARK    5  A    between atoms: P_8  and  C_23 
REMARK    6  A    between atoms: C_11  and  C_14 
REMARK    7  A    between atoms: C_15  and  C_18 
REMARK    8  A    between atoms: C_15  and  C_23 
REMARK    9  A    between atoms: C_21  and  C_26 
REMARK   10  A    between atoms: C_24  and  C_25 
REMARK   11  A    between atoms: C_29  and  C_32 
ROOT
HETATM    1  O   UNL     1      15.863   3.230  91.533  1.00  0.00     0.000 OA
HETATM    2  N   UNL     1      13.397   2.177  92.487  1.00  0.00     0.000 N 
HETATM    3  C   UNL     1      13.437   3.307  91.549  1.00  0.00     0.000 C 
HETATM    4  C   UNL     1      14.609   2.168  93.317  1.00  0.00     0.000 C 
HETATM    5  C   UNL     1      14.703   3.229  90.699  1.00  0.00     0.000 C 
HETATM    6  C   UNL     1      15.846   2.117  92.427  1.00  0.00     0.000 C 
ENDROOT
BRANCH   2   7
HETATM    7  C   UNL     1      12.197   2.238  93.320  1.00  0.00     0.000 C 
BRANCH   7   8
HETATM    8  C   UNL     1      11.295   3.360  92.935  1.00  0.00     0.000 A 
HETATM    9  C   UNL     1      11.227   4.504  93.731  1.00  0.00     0.000 A 
HETATM   10  C   UNL     1      10.382   5.554  93.373  1.00  0.00     0.000 A 
HETATM   11  C   UNL     1       9.606   5.461  92.218  1.00  0.00     0.000 A 
HETATM   12  C   UNL     1       9.674   4.319  91.421  1.00  0.00     0.000 A 
HETATM   13  C   UNL     1      10.518   3.269  91.779  1.00  0.00     0.000 A 
BRANCH  11  14
HETATM   14  C   UNL     1       8.741   6.539  91.849  1.00  0.00     0.000 C 
HETATM   15  C   UNL     1       8.014   7.445  91.539  1.00  0.00     0.000 C 
BRANCH  15  16
HETATM   16  C   UNL     1       7.148   8.521  91.170  1.00  0.00     0.000 A 
HETATM   17  C   UNL     1       5.849   8.254  90.739  1.00  0.00     0.000 A 
HETATM   18  C   UNL     1       5.004   9.305  90.382  1.00  0.00     0.000 A 
HETATM   19  C   UNL     1       5.476  10.598  90.465  1.00  0.00     0.000 A 
HETATM   20  C   UNL     1       6.757  10.888  90.888  1.00  0.00     0.000 A 
HETATM   21  C   UNL     1       7.603   9.838  91.245  1.00  0.00     0.000 A 
BRANCH  19  22
HETATM   22  C   UNL     1       4.576  11.717  90.082  1.00  0.00     0.000 C 
HETATM   23  O   UNL     1       4.037  11.702  88.979  1.00  0.00     0.000 OA
HETATM   24  N   UNL     1       4.394  12.705  91.040  1.00  0.00     0.000 N 
HETATM   25  HN  UNL     1       4.854  12.637  91.940  1.00  0.00     0.000 HD
BRANCH  24  26
HETATM   26  C   UNL     1       3.533  13.841  90.828  1.00  0.00     0.000 C 
BRANCH  26  27
HETATM   27  C   UNL     1       2.291  13.819  91.727  1.00  0.00     0.000 C 
HETATM   28  C   UNL     1       2.221  12.569  92.598  1.00  0.00     0.000 C 
BRANCH  27  29
HETATM   29  O   UNL     1       2.291  14.971  92.569  1.00  0.00     0.000 OA
HETATM   30  H   UNL     1       2.235  15.761  92.005  1.00  0.00     0.000 HD
ENDBRANCH  27  29
ENDBRANCH  26  27
BRANCH  26  31
HETATM   31  C   UNL     1       4.361  15.101  91.056  1.00  0.00     0.000 C 
HETATM   32  O   UNL     1       4.532  15.598  92.168  1.00  0.00     0.000 OA
BRANCH  31  33
HETATM   33  P   UNL     1       4.847  15.623  89.882  1.00  0.00     0.000 P 
HETATM   34  H   UNL     1       3.962  16.589  89.449  1.00  0.00     0.000 HD
BRANCH  33  35
HETATM   35  O   UNL     1       5.028  14.706  88.836  1.00  0.00     0.000 OA
HETATM   36  H   UNL     1       4.165  14.258  88.846  1.00  0.00     0.000 HD
ENDBRANCH  33  35
ENDBRANCH  31  33
ENDBRANCH  26  31
ENDBRANCH  24  26
ENDBRANCH  19  22
ENDBRANCH  15  16
ENDBRANCH  11  14
ENDBRANCH   7   8
ENDBRANCH   2   7
TORSDOF 11
ENDMDL
MODEL 9
REMARK VINA RESULT:      -4.1      3.084     12.348
REMARK  11 active torsions:
REMARK  status: ('A' for Active; 'I' for Inactive)
REMARK    1  A    between atoms: O_2  and  C_18 
REMARK    2  A    between atoms: O_5  and  P_8 
REMARK    3  A    between atoms: N_6  and  C_11 
REMARK    4  A    between atoms: N_7  and  C_15 
REMARK       I    between atoms: N_7  and  C_24 
REMARK    5  A    between atoms: P_8  and  C_23 
REMARK    6  A    between atoms: C_11  and  C_14 
REMARK    7  A    between atoms: C_15  and  C_18 
REMARK    8  A    between atoms: C_15  and  C_23 
REMARK    9  A    between atoms: C_21  and  C_26 
REMARK   10  A    between atoms: C_24  and  C_25 
REMARK   11  A    between atoms: C_29  and  C_32 
ROOT
HETATM    1  O   UNL     1       5.434  14.965  89.170  1.00  0.00     0.000 OA
HETATM    2  N   UNL     1       3.754  12.775  89.867  1.00  0.00     0.000 N 
HETATM    3  C   UNL     1       3.660  14.067  90.562  1.00  0.00     0.000 C 
HETATM    4  C   UNL     1       5.123  12.568  89.374  1.00  0.00     0.000 C 
HETATM    5  C   UNL     1       4.098  15.190  89.626  1.00  0.00     0.000 C 
HETATM    6  C   UNL     1       5.527  13.726  88.467  1.00  0.00     0.000 C 
ENDROOT
BRANCH   2   7
HETATM    7  C   UNL     1       3.348  11.682  90.749  1.00  0.00     0.000 C 
BRANCH   7   8
HETATM    8  C   UNL     1       4.416  10.654  90.908  1.00  0.00     0.000 A 
HETATM    9  C   UNL     1       5.172  10.610  92.080  1.00  0.00     0.000 A 
HETATM   10  C   UNL     1       6.173   9.649  92.228  1.00  0.00     0.000 A 
HETATM   11  C   UNL     1       6.415   8.733  91.205  1.00  0.00     0.000 A 
HETATM   12  C   UNL     1       5.661   8.776  90.035  1.00  0.00     0.000 A 
HETATM   13  C   UNL     1       4.661   9.737  89.886  1.00  0.00     0.000 A 
BRANCH  11  14
HETATM   14  C   UNL     1       7.440   7.747  91.358  1.00  0.00     0.000 C 
HETATM   15  C   UNL     1       8.302   6.918  91.488  1.00  0.00     0.000 C 
BRANCH  15  16
HETATM   16  C   UNL     1       9.326   5.933  91.642  1.00  0.00     0.000 A 
HETATM   17  C   UNL     1      10.047   5.858  92.834  1.00  0.00     0.000 A 
HETATM   18  C   UNL     1      11.045   4.895  92.985  1.00  0.00     0.000 A 
HETATM   19  C   UNL     1      11.298   4.028  91.942  1.00  0.00     0.000 A 
HETATM   20  C   UNL     1      10.600   4.082  90.754  1.00  0.00     0.000 A 
HETATM   21  C   UNL     1       9.602   5.045  90.602  1.00  0.00     0.000 A 
BRANCH  19  22
HETATM   22  C   UNL     1      12.362   3.004  92.103  1.00  0.00     0.000 C 
HETATM   23  O   UNL     1      12.095   1.823  91.892  1.00  0.00     0.000 OA
HETATM   24  N   UNL     1      13.615   3.479  92.466  1.00  0.00     0.000 N 
HETATM   25  HN  UNL     1      13.767   4.472  92.599  1.00  0.00     0.000 HD
BRANCH  24  26
HETATM   26  C   UNL     1      14.753   2.613  92.637  1.00  0.00     0.000 C 
BRANCH  26  27
HETATM   27  C   UNL     1      15.460   2.294  91.313  1.00  0.00     0.000 C 
HETATM   28  C   UNL     1      15.214   3.357  90.249  1.00  0.00     0.000 C 
BRANCH  27  29
HETATM   29  O   UNL     1      16.865   2.179  91.538  1.00  0.00     0.000 OA
HETATM   30  H   UNL     1      17.314   2.869  91.021  1.00  0.00     0.000 HD
ENDBRANCH  27  29
ENDBRANCH  26  27
BRANCH  26  31
HETATM   31  C   UNL     1      15.703   3.282  93.625  1.00  0.00     0.000 C 
HETATM   32  O   UNL     1      16.670   2.706  94.120  1.00  0.00     0.000 OA
BRANCH  31  33
HETATM   33  P   UNL     1      15.326   4.571  93.916  1.00  0.00     0.000 P 
HETATM   34  H   UNL     1      14.091   4.791  93.341  1.00  0.00     0.000 HD
BRANCH  33  35
HETATM   35  O   UNL     1      16.194   5.577  93.467  1.00  0.00     0.000 OA
HETATM   36  H   UNL     1      16.991   5.361  93.980  1.00  0.00     0.000 HD
ENDBRANCH  33  35
ENDBRANCH  31  33
ENDBRANCH  26  31
ENDBRANCH  24  26
ENDBRANCH  19  22
ENDBRANCH  15  16
ENDBRANCH  11  14
ENDBRANCH   7   8
ENDBRANCH   2   7
TORSDOF 11
ENDMDL
