MODEL 1
REMARK VINA RESULT:      -7.5      0.000      0.000
REMARK  9 active torsions:
REMARK  status: ('A' for Active; 'I' for Inactive)
REMARK    1  A    between atoms: N_3  and  C_6 
REMARK    2  A    between atoms: C_6  and  C_9 
REMARK    3  A    between atoms: C_14  and  C_17 
REMARK       I    between atoms: N_26  and  C_15 
REMARK    4  A    between atoms: C_15  and  C_16 
REMARK    5  A    between atoms: C_20  and  C_23 
REMARK    6  A    between atoms: OG1_24  and  CB_28 
REMARK    7  A    between atoms: N_26  and  CA_27 
REMARK    8  A    between atoms: CA_27  and  CB_28 
REMARK    9  A    between atoms: CA_27  and  C_30 
ROOT
HETATM    1  O   UNK A   0       1.861   8.326  87.959  1.00  0.00    -0.388 OA
HETATM    2  N   UNK A   0       4.605   7.613  87.709  1.00  0.00     0.096 N 
HETATM    3  C   UNK A   0       4.181   9.018  87.795  1.00  0.00     0.299 C 
HETATM    4  C   UNK A   0       3.542   6.803  87.099  1.00  0.00     0.299 C 
HETATM    5  C   UNK A   0       2.875   9.116  88.581  1.00  0.00     0.198 C 
HETATM    6  C   UNK A   0       2.252   6.954  87.899  1.00  0.00     0.198 C 
ENDROOT
BRANCH   2   7
HETATM    7  C   UNK A   0       5.850   7.494  86.952  1.00  0.00     0.311 C 
BRANCH   7   8
HETATM    8  C   UNK A   0       6.954   6.906  87.762  1.00  0.00    -0.030 A 
HETATM    9  C   UNK A   0       6.729   6.552  89.093  1.00  0.00     0.010 A 
HETATM   10  C   UNK A   0       7.762   6.005  89.853  1.00  0.00     0.021 A 
HETATM   11  C   UNK A   0       9.019   5.809  89.282  1.00  0.00     0.018 A 
HETATM   12  C   UNK A   0       9.245   6.162  87.953  1.00  0.00     0.021 A 
HETATM   13  C   UNK A   0       8.212   6.710  87.193  1.00  0.00     0.010 A 
BRANCH  11  14
HETATM   14  C   UNK A   0      10.078   5.245  90.061  1.00  0.00    -0.061 C 
HETATM   15  C   UNK A   0      10.968   4.771  90.715  1.00  0.00    -0.061 C 
BRANCH  15  16
HETATM   16  C   UNK A   0      12.027   4.207  91.493  1.00  0.00     0.018 A 
HETATM   17  C   UNK A   0      11.814   3.892  92.836  1.00  0.00     0.022 A 
HETATM   18  C   UNK A   0      12.846   3.340  93.594  1.00  0.00     0.018 A 
HETATM   19  C   UNK A   0      14.067   3.115  92.993  1.00  0.00     0.032 A 
HETATM   20  C   UNK A   0      14.304   3.419  91.669  1.00  0.00     0.018 A 
HETATM   21  C   UNK A   0      13.272   3.971  90.910  1.00  0.00     0.022 A 
BRANCH  19  22
HETATM   22  C   UNK A   0      15.168   2.529  93.802  1.00  0.00     0.252 C 
HETATM   23  O   UNK A   0      16.321   2.903  93.605  1.00  0.00    -0.268 OA
ENDBRANCH  19  22
ENDBRANCH  15  16
ENDBRANCH  11  14
ENDBRANCH   7   8
ENDBRANCH   2   7
TORSDOF 9
ENDMDL
