MODEL 1
REMARK VINA RESULT:      -6.1      0.000      0.000
REMARK  12 active torsions:
REMARK  status: ('A' for Active; 'I' for Inactive)
REMARK    1  A    between atoms: O_2  and  C_16 
REMARK    2  A    between atoms: N_5  and  C_9 
REMARK    3  A    between atoms: N_6  and  C_13 
REMARK       I    between atoms: N_6  and  C_22 
REMARK    4  A    between atoms: C_9  and  C_12 
REMARK    5  A    between atoms: C_13  and  C_16 
REMARK    6  A    between atoms: C_13  and  C_21 
REMARK    7  A    between atoms: C_19  and  C_24 
REMARK    8  A    between atoms: C_21  and  C_33 
REMARK    9  A    between atoms: C_22  and  C_23 
REMARK   10  A    between atoms: C_27  and  C_30 
REMARK   11  A    between atoms: C_33  and  C_34 
REMARK   12  A    between atoms: C_34  and  C_35 
ROOT
HETATM    1  O   UNL     1      16.564   3.127  93.974  1.00  0.00    -0.350 OA
HETATM    2  N   UNL     1      14.072   3.000  92.605  1.00  0.00     0.147 N 
HETATM    3  C   UNL     1      14.872   1.793  92.857  1.00  0.00     0.283 C 
HETATM    4  C   UNL     1      14.951   4.173  92.495  1.00  0.00     0.283 C 
HETATM    5  C   UNL     1      15.716   1.986  94.115  1.00  0.00     0.178 C 
HETATM    6  C   UNL     1      15.793   4.309  93.759  1.00  0.00     0.178 C 
ENDROOT
BRANCH   2   7
HETATM    7  C   UNL     1      13.263   2.842  91.397  1.00  0.00     0.277 C 
BRANCH   7   8
HETATM    8  C   UNL     1      12.078   3.745  91.386  1.00  0.00     0.011 A 
HETATM    9  C   UNL     1      11.643   4.308  90.185  1.00  0.00    -0.002 A 
HETATM   10  C   UNL     1      10.535   5.155  90.173  1.00  0.00     0.008 A 
HETATM   11  C   UNL     1       9.861   5.437  91.361  1.00  0.00     0.042 A 
HETATM   12  C   UNL     1      10.295   4.876  92.560  1.00  0.00     0.008 A 
HETATM   13  C   UNL     1      11.403   4.029  92.573  1.00  0.00    -0.002 A 
BRANCH  11  14
HETATM   14  C   UNL     1       8.724   6.305  91.348  1.00  0.00    -0.059 C 
HETATM   15  C   UNL     1       7.767   7.033  91.338  1.00  0.00    -0.059 C 
BRANCH  15  16
HETATM   16  C   UNL     1       6.630   7.899  91.325  1.00  0.00     0.042 A 
HETATM   17  C   UNL     1       5.427   7.462  90.770  1.00  0.00     0.008 A 
HETATM   18  C   UNL     1       4.317   8.306  90.761  1.00  0.00     0.005 A 
HETATM   19  C   UNL     1       4.433   9.567  91.307  1.00  0.00     0.056 A 
HETATM   20  C   UNL     1       5.611  10.023  91.862  1.00  0.00     0.005 A 
HETATM   21  C   UNL     1       6.722   9.180  91.871  1.00  0.00     0.008 A 
BRANCH  19  22
HETATM   22  C   UNL     1       3.251  10.467  91.295  1.00  0.00     0.254 C 
HETATM   23  O   UNL     1       2.142   9.997  91.050  1.00  0.00    -0.268 OA
HETATM   24  N   UNL     1       3.498  11.799  91.595  1.00  0.00    -0.335 N 
HETATM   25  HN  UNL     1       4.437  12.111  91.812  1.00  0.00     0.164 HD
BRANCH  24  26
HETATM   26  C   UNL     1       2.452  12.789  91.647  1.00  0.00     0.166 C 
BRANCH  26  27
HETATM   27  C   UNL     1       2.311  13.431  93.033  1.00  0.00     0.138 C 
HETATM   28  C   UNL     1       3.641  13.941  93.578  1.00  0.00     0.034 C 
BRANCH  27  29
HETATM   29  O   UNL     1       1.391  14.520  92.964  1.00  0.00    -0.383 OA
HETATM   30  H   UNL     1       1.040  14.680  93.856  1.00  0.00     0.210 HD
ENDBRANCH  27  29
ENDBRANCH  26  27
BRANCH  26  31
HETATM   31  C   UNL     1       2.748  13.836  90.578  1.00  0.00     0.181 C 
HETATM   32  O   UNL     1       1.996  14.779  90.339  1.00  0.00    -0.294 OA
BRANCH  31  33
HETATM   33  C   UNL     1       4.229  14.471  90.751  1.00  0.00     0.138 C 
BRANCH  33  34
HETATM   34  C   UNL     1       4.684  14.470  89.414  1.00  0.00     0.208 C 
HETATM   35  O   UNL     1       4.893  15.556  88.922  1.00  0.00    -0.289 OA
BRANCH  34  36
HETATM   36  C   UNL     1       5.208  13.460  88.656  1.00  0.00     0.194 C 
HETATM   37  O   UNL     1       4.576  12.549  87.801  1.00  0.00    -0.185 OA
ENDBRANCH  34  36
ENDBRANCH  33  34
ENDBRANCH  31  33
ENDBRANCH  26  31
ENDBRANCH  24  26
ENDBRANCH  19  22
ENDBRANCH  15  16
ENDBRANCH  11  14
ENDBRANCH   7   8
ENDBRANCH   2   7
TORSDOF 12
ENDMDL
