MODEL 1
REMARK VINA RESULT:      -6.3      0.000      0.000
REMARK  12 active torsions:
REMARK  status: ('A' for Active; 'I' for Inactive)
REMARK    1  A    between atoms: O_2  and  C_16 
REMARK    2  A    between atoms: N_5  and  C_9 
REMARK    3  A    between atoms: N_6  and  C_13 
REMARK       I    between atoms: N_6  and  C_22 
REMARK    4  A    between atoms: C_9  and  C_12 
REMARK    5  A    between atoms: C_13  and  C_16 
REMARK    6  A    between atoms: C_13  and  C_21 
REMARK    7  A    between atoms: C_19  and  C_24 
REMARK    8  A    between atoms: C_21  and  C_33 
REMARK    9  A    between atoms: C_22  and  C_23 
REMARK   10  A    between atoms: C_27  and  C_30 
REMARK   11  A    between atoms: C_33  and  C_34 
REMARK   12  A    between atoms: C_34  and  C_35 
ROOT
HETATM    1  O   UNL     1      16.730   3.512  93.868  1.00  0.00    -0.350 OA
HETATM    2  N   UNL     1      14.180   3.086  92.677  1.00  0.00     0.147 N 
HETATM    3  C   UNL     1      15.102   1.971  92.937  1.00  0.00     0.283 C 
HETATM    4  C   UNL     1      14.938   4.323  92.449  1.00  0.00     0.283 C 
HETATM    5  C   UNL     1      16.000   2.310  94.124  1.00  0.00     0.178 C 
HETATM    6  C   UNL     1      15.840   4.606  93.645  1.00  0.00     0.178 C 
ENDROOT
BRANCH   2   7
HETATM    7  C   UNL     1      13.316   2.787  91.537  1.00  0.00     0.277 C 
BRANCH   7   8
HETATM    8  C   UNL     1      12.141   3.702  91.460  1.00  0.00     0.011 A 
HETATM    9  C   UNL     1      11.850   4.363  90.266  1.00  0.00    -0.002 A 
HETATM   10  C   UNL     1      10.753   5.221  90.193  1.00  0.00     0.008 A 
HETATM   11  C   UNL     1       9.945   5.414  91.314  1.00  0.00     0.042 A 
HETATM   12  C   UNL     1      10.234   4.754  92.506  1.00  0.00     0.008 A 
HETATM   13  C   UNL     1      11.332   3.897  92.579  1.00  0.00    -0.002 A 
BRANCH  11  14
HETATM   14  C   UNL     1       8.818   6.292  91.238  1.00  0.00    -0.059 C 
HETATM   15  C   UNL     1       7.870   7.029  91.175  1.00  0.00    -0.059 C 
BRANCH  15  16
HETATM   16  C   UNL     1       6.743   7.906  91.101  1.00  0.00     0.042 A 
HETATM   17  C   UNL     1       5.696   7.622  90.224  1.00  0.00     0.008 A 
HETATM   18  C   UNL     1       4.596   8.476  90.153  1.00  0.00     0.005 A 
HETATM   19  C   UNL     1       4.567   9.594  90.961  1.00  0.00     0.056 A 
HETATM   20  C   UNL     1       5.589   9.897  91.836  1.00  0.00     0.005 A 
HETATM   21  C   UNL     1       6.690   9.043  91.907  1.00  0.00     0.008 A 
BRANCH  19  22
HETATM   22  C   UNL     1       3.395  10.504  90.884  1.00  0.00     0.254 C 
HETATM   23  O   UNL     1       2.390  10.139  90.279  1.00  0.00    -0.268 OA
HETATM   24  N   UNL     1       3.525  11.720  91.542  1.00  0.00    -0.335 N 
HETATM   25  HN  UNL     1       4.377  11.943  92.043  1.00  0.00     0.164 HD
BRANCH  24  26
HETATM   26  C   UNL     1       2.469  12.699  91.579  1.00  0.00     0.166 C 
BRANCH  26  27
HETATM   27  C   UNL     1       2.343  13.384  92.946  1.00  0.00     0.138 C 
HETATM   28  C   UNL     1       3.698  13.738  93.549  1.00  0.00     0.034 C 
BRANCH  27  29
HETATM   29  O   UNL     1       1.570  14.576  92.812  1.00  0.00    -0.383 OA
HETATM   30  H   UNL     1       1.362  14.906  93.702  1.00  0.00     0.210 HD
ENDBRANCH  27  29
ENDBRANCH  26  27
BRANCH  26  31
HETATM   31  C   UNL     1       2.735  13.713  90.472  1.00  0.00     0.181 C 
HETATM   32  O   UNL     1       1.952  14.619  90.192  1.00  0.00    -0.294 OA
BRANCH  31  33
HETATM   33  C   UNL     1       4.191  14.407  90.629  1.00  0.00     0.138 C 
BRANCH  33  34
HETATM   34  C   UNL     1       4.686  14.306  89.309  1.00  0.00     0.208 C 
HETATM   35  O   UNL     1       4.997  15.346  88.776  1.00  0.00    -0.289 OA
BRANCH  34  36
HETATM   36  C   UNL     1       5.149  13.221  88.617  1.00  0.00     0.194 C 
HETATM   37  O   UNL     1       4.451  12.229  87.918  1.00  0.00    -0.185 OA
ENDBRANCH  34  36
ENDBRANCH  33  34
ENDBRANCH  31  33
ENDBRANCH  26  31
ENDBRANCH  24  26
ENDBRANCH  19  22
ENDBRANCH  15  16
ENDBRANCH  11  14
ENDBRANCH   7   8
ENDBRANCH   2   7
TORSDOF 12
ENDMDL
