MODEL 1
REMARK VINA RESULT:      -6.8      0.000      0.000
REMARK  10 active torsions:
REMARK  status: ('A' for Active; 'I' for Inactive)
REMARK    1  A    between atoms: O_2  and  C_18 
REMARK    2  A    between atoms: O_5  and  N_8 
REMARK    3  A    between atoms: N_6  and  C_11 
REMARK    4  A    between atoms: N_7  and  C_15 
REMARK       I    between atoms: N_7  and  C_24 
REMARK       I    between atoms: N_8  and  C_23 
REMARK    5  A    between atoms: C_11  and  C_14 
REMARK    6  A    between atoms: C_15  and  C_18 
REMARK    7  A    between atoms: C_15  and  C_23 
REMARK    8  A    between atoms: C_21  and  C_26 
REMARK    9  A    between atoms: C_24  and  C_25 
REMARK   10  A    between atoms: C_29  and  C_32 
ROOT
HETATM    1  O   UNK     0      16.308   4.422  93.920  0.00  0.00    -0.388 OA
HETATM    2  N   UNK     0      14.674   2.552  92.529  0.00  0.00     0.096 N 
HETATM    3  C   UNK     0      14.531   3.999  92.322  0.00  0.00     0.299 C 
HETATM    4  C   UNK     0      15.162   2.284  93.888  0.00  0.00     0.299 C 
HETATM    5  C   UNK     0      15.863   4.694  92.589  0.00  0.00     0.198 C 
HETATM    6  C   UNK     0      16.479   3.019  94.120  0.00  0.00     0.198 C 
ENDROOT
BRANCH   2   7
HETATM    7  C   UNK     0      13.406   1.866  92.288  0.00  0.00     0.311 C 
BRANCH   7   8
HETATM    8  C   UNK     0      12.293   2.815  91.999  0.00  0.00    -0.030 A 
HETATM    9  C   UNK     0      11.839   2.979  90.690  0.00  0.00     0.010 A 
HETATM   10  C   UNK     0      10.799   3.869  90.419  0.00  0.00     0.021 A 
HETATM   11  C   UNK     0      10.213   4.592  91.457  0.00  0.00     0.018 A 
HETATM   12  C   UNK     0      10.665   4.429  92.765  0.00  0.00     0.021 A 
HETATM   13  C   UNK     0      11.706   3.540  93.036  0.00  0.00     0.010 A 
BRANCH  11  14
HETATM   14  C   UNK     0       9.145   5.503  91.179  0.00  0.00    -0.061 C 
HETATM   15  C   UNK     0       8.248   6.268  90.944  0.00  0.00    -0.061 C 
BRANCH  15  16
HETATM   16  C   UNK     0       7.183   7.178  90.666  0.00  0.00     0.018 A 
HETATM   17  C   UNK     0       5.859   6.739  90.718  0.00  0.00     0.022 A 
HETATM   18  C   UNK     0       4.818   7.628  90.449  0.00  0.00     0.018 A 
HETATM   19  C   UNK     0       5.123   8.935  90.134  0.00  0.00     0.032 A 
HETATM   20  C   UNK     0       6.423   9.395  90.076  0.00  0.00     0.018 A 
HETATM   21  C   UNK     0       7.463   8.506  90.344  0.00  0.00     0.022 A 
BRANCH  19  22
HETATM   22  C   UNK     0       4.015   9.881  89.845  0.00  0.00     0.252 C 
HETATM   23  O   UNK     0       2.951   9.445  89.412  0.00  0.00    -0.268 OA
HETATM   24  N   UNK     0       4.269  11.218  90.119  0.00  0.00    -0.341 N 
HETATM   25  H   UNK     0       5.164  11.502  90.499  0.00  0.00     0.163 HD
BRANCH  24  26
HETATM   26  C   UNK     0       3.287  12.252  89.914  0.00  0.00     0.207 C 
BRANCH  26  27
HETATM   27  C   UNK     0       2.851  12.923  91.223  0.00  0.00     0.146 C 
HETATM   28  C   UNK     0       2.165  11.952  92.177  0.00  0.00     0.042 C 
BRANCH  27  29
HETATM   29  O   UNK     0       3.990  13.485  91.874  0.00  0.00    -0.393 OA
HETATM   30  H   UNK     0       3.887  14.452  91.887  0.00  0.00     0.210 HD
ENDBRANCH  27  29
ENDBRANCH  26  27
BRANCH  26  31
HETATM   31  C   UNK     0       3.874  13.267  88.940  0.00  0.00     0.266 C 
HETATM   32  O   UNK     0       3.904  14.475  89.168  0.00  0.00    -0.269 OA
HETATM   33  N   UNK     0       4.321  12.677  87.782  0.00  0.00    -0.236 N 
HETATM   34  H   UNK     0       4.230  11.701  87.525  0.00  0.00     0.197 HD
BRANCH  33  35
HETATM   35  O   UNK     0       4.842  13.548  86.815  0.00  0.00    -0.287 OA
HETATM   36  H   UNK     0       4.271  14.323  86.952  0.00  0.00     0.244 HD
ENDBRANCH  33  35
ENDBRANCH  26  31
ENDBRANCH  24  26
ENDBRANCH  19  22
ENDBRANCH  15  16
ENDBRANCH  11  14
ENDBRANCH   7   8
ENDBRANCH   2   7
TORSDOF 10
ENDMDL
MODEL 2
REMARK VINA RESULT:      -6.6      1.507      1.909
REMARK  10 active torsions:
REMARK  status: ('A' for Active; 'I' for Inactive)
REMARK    1  A    between atoms: O_2  and  C_18 
REMARK    2  A    between atoms: O_5  and  N_8 
REMARK    3  A    between atoms: N_6  and  C_11 
REMARK    4  A    between atoms: N_7  and  C_15 
REMARK       I    between atoms: N_7  and  C_24 
REMARK       I    between atoms: N_8  and  C_23 
REMARK    5  A    between atoms: C_11  and  C_14 
REMARK    6  A    between atoms: C_15  and  C_18 
REMARK    7  A    between atoms: C_15  and  C_23 
REMARK    8  A    between atoms: C_21  and  C_26 
REMARK    9  A    between atoms: C_24  and  C_25 
REMARK   10  A    between atoms: C_29  and  C_32 
ROOT
HETATM    1  O   UNK     0      16.560   3.282  93.757  0.00  0.00    -0.388 OA
HETATM    2  N   UNK     0      13.910   2.878  92.800  0.00  0.00     0.096 N 
HETATM    3  C   UNK     0      14.824   1.750  93.031  0.00  0.00     0.299 C 
HETATM    4  C   UNK     0      14.676   4.083  92.455  0.00  0.00     0.299 C 
HETATM    5  C   UNK     0      15.826   2.112  94.124  0.00  0.00     0.198 C 
HETATM    6  C   UNK     0      15.682   4.391  93.561  0.00  0.00     0.198 C 
ENDROOT
BRANCH   2   7
HETATM    7  C   UNK     0      12.947   2.556  91.748  0.00  0.00     0.311 C 
BRANCH   7   8
HETATM    8  C   UNK     0      11.861   3.572  91.643  0.00  0.00    -0.030 A 
HETATM    9  C   UNK     0      11.466   4.042  90.390  0.00  0.00     0.010 A 
HETATM   10  C   UNK     0      10.451   4.994  90.291  0.00  0.00     0.021 A 
HETATM   11  C   UNK     0       9.831   5.473  91.445  0.00  0.00     0.018 A 
HETATM   12  C   UNK     0      10.224   5.004  92.696  0.00  0.00     0.021 A 
HETATM   13  C   UNK     0      11.239   4.053  92.796  0.00  0.00     0.010 A 
BRANCH  11  14
HETATM   14  C   UNK     0       8.788   6.448  91.343  0.00  0.00    -0.061 C 
HETATM   15  C   UNK     0       7.912   7.267  91.257  0.00  0.00    -0.061 C 
BRANCH  15  16
HETATM   16  C   UNK     0       6.872   8.241  91.156  0.00  0.00     0.018 A 
HETATM   17  C   UNK     0       5.744   7.977  90.378  0.00  0.00     0.022 A 
HETATM   18  C   UNK     0       4.727   8.927  90.281  0.00  0.00     0.018 A 
HETATM   19  C   UNK     0       4.860  10.119  90.963  0.00  0.00     0.032 A 
HETATM   20  C   UNK     0       5.965  10.404  91.737  0.00  0.00     0.018 A 
HETATM   21  C   UNK     0       6.982   9.455  91.834  0.00  0.00     0.022 A 
BRANCH  19  22
HETATM   22  C   UNK     0       3.777  11.131  90.857  0.00  0.00     0.252 C 
HETATM   23  O   UNK     0       2.916  11.000  89.991  0.00  0.00    -0.268 OA
HETATM   24  N   UNK     0       3.814  12.159  91.789  0.00  0.00    -0.341 N 
HETATM   25  H   UNK     0       4.542  12.189  92.492  0.00  0.00     0.163 HD
BRANCH  24  26
HETATM   26  C   UNK     0       2.821  13.203  91.831  0.00  0.00     0.207 C 
BRANCH  26  27
HETATM   27  C   UNK     0       2.793  13.941  93.175  0.00  0.00     0.146 C 
HETATM   28  C   UNK     0       4.175  14.052  93.809  0.00  0.00     0.042 C 
BRANCH  27  29
HETATM   29  O   UNK     0       2.263  15.253  92.988  0.00  0.00    -0.393 OA
HETATM   30  H   UNK     0       1.508  15.193  92.378  0.00  0.00     0.210 HD
ENDBRANCH  27  29
ENDBRANCH  26  27
BRANCH  26  31
HETATM   31  C   UNK     0       3.102  14.160  90.678  0.00  0.00     0.266 C 
HETATM   32  O   UNK     0       2.251  14.481  89.850  0.00  0.00    -0.269 OA
HETATM   33  N   UNK     0       4.410  14.580  90.659  0.00  0.00    -0.236 N 
HETATM   34  H   UNK     0       5.157  14.267  91.269  0.00  0.00     0.197 HD
BRANCH  33  35
HETATM   35  O   UNK     0       4.761  15.435  89.604  0.00  0.00    -0.287 OA
HETATM   36  H   UNK     0       4.583  16.299  90.014  0.00  0.00     0.244 HD
ENDBRANCH  33  35
ENDBRANCH  26  31
ENDBRANCH  24  26
ENDBRANCH  19  22
ENDBRANCH  15  16
ENDBRANCH  11  14
ENDBRANCH   7   8
ENDBRANCH   2   7
TORSDOF 10
ENDMDL
MODEL 3
REMARK VINA RESULT:      -6.4      1.796      2.381
REMARK  10 active torsions:
REMARK  status: ('A' for Active; 'I' for Inactive)
REMARK    1  A    between atoms: O_2  and  C_18 
REMARK    2  A    between atoms: O_5  and  N_8 
REMARK    3  A    between atoms: N_6  and  C_11 
REMARK    4  A    between atoms: N_7  and  C_15 
REMARK       I    between atoms: N_7  and  C_24 
REMARK       I    between atoms: N_8  and  C_23 
REMARK    5  A    between atoms: C_11  and  C_14 
REMARK    6  A    between atoms: C_15  and  C_18 
REMARK    7  A    between atoms: C_15  and  C_23 
REMARK    8  A    between atoms: C_21  and  C_26 
REMARK    9  A    between atoms: C_24  and  C_25 
REMARK   10  A    between atoms: C_29  and  C_32 
ROOT
HETATM    1  O   UNK     0      16.695   4.085  94.124  0.00  0.00    -0.388 OA
HETATM    2  N   UNK     0      14.671   2.645  92.735  0.00  0.00     0.096 N 
HETATM    3  C   UNK     0      14.709   4.114  92.730  0.00  0.00     0.299 C 
HETATM    4  C   UNK     0      15.266   2.130  93.975  0.00  0.00     0.299 C 
HETATM    5  C   UNK     0      16.147   4.594  92.907  0.00  0.00     0.198 C 
HETATM    6  C   UNK     0      16.691   2.657  94.124  0.00  0.00     0.198 C 
ENDROOT
BRANCH   2   7
HETATM    7  C   UNK     0      13.301   2.161  92.577  0.00  0.00     0.311 C 
BRANCH   7   8
HETATM    8  C   UNK     0      12.303   3.269  92.588  0.00  0.00    -0.030 A 
HETATM    9  C   UNK     0      12.042   3.959  93.772  0.00  0.00     0.010 A 
HETATM   10  C   UNK     0      11.107   4.995  93.784  0.00  0.00     0.021 A 
HETATM   11  C   UNK     0      10.436   5.340  92.612  0.00  0.00     0.018 A 
HETATM   12  C   UNK     0      10.697   4.652  91.429  0.00  0.00     0.021 A 
HETATM   13  C   UNK     0      11.631   3.617  91.416  0.00  0.00     0.010 A 
BRANCH  11  14
HETATM   14  C   UNK     0       9.479   6.404  92.624  0.00  0.00    -0.061 C 
HETATM   15  C   UNK     0       8.674   7.297  92.634  0.00  0.00    -0.061 C 
BRANCH  15  16
HETATM   16  C   UNK     0       7.718   8.359  92.645  0.00  0.00     0.018 A 
HETATM   17  C   UNK     0       7.615   9.192  93.760  0.00  0.00     0.022 A 
HETATM   18  C   UNK     0       6.683  10.230  93.769  0.00  0.00     0.018 A 
HETATM   19  C   UNK     0       5.877  10.413  92.666  0.00  0.00     0.032 A 
HETATM   20  C   UNK     0       5.959   9.604  91.552  0.00  0.00     0.018 A 
HETATM   21  C   UNK     0       6.890   8.565  91.542  0.00  0.00     0.022 A 
BRANCH  19  22
HETATM   22  C   UNK     0       4.883  11.518  92.678  0.00  0.00     0.252 C 
HETATM   23  O   UNK     0       4.301  11.790  93.725  0.00  0.00    -0.268 OA
HETATM   24  N   UNK     0       4.705  12.188  91.475  0.00  0.00    -0.341 N 
HETATM   25  H   UNK     0       5.240  11.924  90.656  0.00  0.00     0.163 HD
BRANCH  24  26
HETATM   26  C   UNK     0       3.795  13.297  91.333  0.00  0.00     0.207 C 
BRANCH  26  27
HETATM   27  C   UNK     0       4.394  14.622  91.821  0.00  0.00     0.146 C 
HETATM   28  C   UNK     0       4.911  15.486  90.677  0.00  0.00     0.042 C 
BRANCH  27  29
HETATM   29  O   UNK     0       3.405  15.354  92.545  0.00  0.00    -0.393 OA
HETATM   30  H   UNK     0       2.539  15.180  92.139  0.00  0.00     0.210 HD
ENDBRANCH  27  29
ENDBRANCH  26  27
BRANCH  26  31
HETATM   31  C   UNK     0       3.388  13.379  89.866  0.00  0.00     0.266 C 
HETATM   32  O   UNK     0       2.567  14.192  89.444  0.00  0.00    -0.269 OA
HETATM   33  N   UNK     0       4.012  12.426  89.099  0.00  0.00    -0.236 N 
HETATM   34  H   UNK     0       4.623  11.687  89.428  0.00  0.00     0.197 HD
BRANCH  33  35
HETATM   35  O   UNK     0       3.663  12.409  87.741  0.00  0.00    -0.287 OA
HETATM   36  H   UNK     0       3.815  11.472  87.533  0.00  0.00     0.244 HD
ENDBRANCH  33  35
ENDBRANCH  26  31
ENDBRANCH  24  26
ENDBRANCH  19  22
ENDBRANCH  15  16
ENDBRANCH  11  14
ENDBRANCH   7   8
ENDBRANCH   2   7
TORSDOF 10
ENDMDL
MODEL 4
REMARK VINA RESULT:      -5.9      1.519      2.562
REMARK  10 active torsions:
REMARK  status: ('A' for Active; 'I' for Inactive)
REMARK    1  A    between atoms: O_2  and  C_18 
REMARK    2  A    between atoms: O_5  and  N_8 
REMARK    3  A    between atoms: N_6  and  C_11 
REMARK    4  A    between atoms: N_7  and  C_15 
REMARK       I    between atoms: N_7  and  C_24 
REMARK       I    between atoms: N_8  and  C_23 
REMARK    5  A    between atoms: C_11  and  C_14 
REMARK    6  A    between atoms: C_15  and  C_18 
REMARK    7  A    between atoms: C_15  and  C_23 
REMARK    8  A    between atoms: C_21  and  C_26 
REMARK    9  A    between atoms: C_24  and  C_25 
REMARK   10  A    between atoms: C_29  and  C_32 
ROOT
HETATM    1  O   UNK     0      16.207   4.288  94.120  0.00  0.00    -0.388 OA
HETATM    2  N   UNK     0      14.502   2.808  92.386  0.00  0.00     0.096 N 
HETATM    3  C   UNK     0      14.512   4.277  92.383  0.00  0.00     0.299 C 
HETATM    4  C   UNK     0      14.868   2.305  93.717  0.00  0.00     0.299 C 
HETATM    5  C   UNK     0      15.884   4.786  92.821  0.00  0.00     0.198 C 
HETATM    6  C   UNK     0      16.230   2.860  94.124  0.00  0.00     0.198 C 
ENDROOT
BRANCH   2   7
HETATM    7  C   UNK     0      13.194   2.298  91.980  0.00  0.00     0.311 C 
BRANCH   7   8
HETATM    8  C   UNK     0      12.184   3.384  91.827  0.00  0.00    -0.030 A 
HETATM    9  C   UNK     0      11.597   3.954  92.958  0.00  0.00     0.010 A 
HETATM   10  C   UNK     0      10.650   4.968  92.816  0.00  0.00     0.021 A 
HETATM   11  C   UNK     0      10.293   5.414  91.544  0.00  0.00     0.018 A 
HETATM   12  C   UNK     0      10.879   4.846  90.414  0.00  0.00     0.021 A 
HETATM   13  C   UNK     0      11.825   3.831  90.556  0.00  0.00     0.010 A 
BRANCH  11  14
HETATM   14  C   UNK     0       9.323   6.456  91.398  0.00  0.00    -0.061 C 
HETATM   15  C   UNK     0       8.508   7.331  91.276  0.00  0.00    -0.061 C 
BRANCH  15  16
HETATM   16  C   UNK     0       7.540   8.372  91.130  0.00  0.00     0.018 A 
HETATM   17  C   UNK     0       6.500   8.490  92.053  0.00  0.00     0.022 A 
HETATM   18  C   UNK     0       5.555   9.507  91.912  0.00  0.00     0.018 A 
HETATM   19  C   UNK     0       5.671  10.382  90.852  0.00  0.00     0.032 A 
HETATM   20  C   UNK     0       6.689  10.286  89.926  0.00  0.00     0.018 A 
HETATM   21  C   UNK     0       7.633   9.269  90.067  0.00  0.00     0.022 A 
BRANCH  19  22
HETATM   22  C   UNK     0       4.664  11.464  90.701  0.00  0.00     0.252 C 
HETATM   23  O   UNK     0       3.621  11.231  90.093  0.00  0.00    -0.268 OA
HETATM   24  N   UNK     0       4.980  12.677  91.296  0.00  0.00    -0.341 N 
HETATM   25  H   UNK     0       5.850  12.787  91.804  0.00  0.00     0.163 HD
BRANCH  24  26
HETATM   26  C   UNK     0       4.095  13.813  91.258  0.00  0.00     0.207 C 
BRANCH  26  27
HETATM   27  C   UNK     0       3.842  14.321  89.833  0.00  0.00     0.146 C 
HETATM   28  C   UNK     0       5.117  14.379  88.999  0.00  0.00     0.042 C 
BRANCH  27  29
HETATM   29  O   UNK     0       2.901  13.468  89.183  0.00  0.00    -0.393 OA
HETATM   30  H   UNK     0       2.869  12.625  89.665  0.00  0.00     0.210 HD
ENDBRANCH  27  29
ENDBRANCH  26  27
BRANCH  26  31
HETATM   31  C   UNK     0       2.793  13.413  91.944  0.00  0.00     0.266 C 
HETATM   32  O   UNK     0       1.697  13.864  91.615  0.00  0.00    -0.269 OA
HETATM   33  N   UNK     0       3.000  12.533  92.978  0.00  0.00    -0.236 N 
HETATM   34  H   UNK     0       3.894  12.212  93.332  0.00  0.00     0.197 HD
BRANCH  33  35
HETATM   35  O   UNK     0       1.854  12.144  93.687  0.00  0.00    -0.287 OA
HETATM   36  H   UNK     0       2.130  12.356  94.595  0.00  0.00     0.244 HD
ENDBRANCH  33  35
ENDBRANCH  26  31
ENDBRANCH  24  26
ENDBRANCH  19  22
ENDBRANCH  15  16
ENDBRANCH  11  14
ENDBRANCH   7   8
ENDBRANCH   2   7
TORSDOF 10
ENDMDL
MODEL 5
REMARK VINA RESULT:      -5.7      2.884     12.265
REMARK  10 active torsions:
REMARK  status: ('A' for Active; 'I' for Inactive)
REMARK    1  A    between atoms: O_2  and  C_18 
REMARK    2  A    between atoms: O_5  and  N_8 
REMARK    3  A    between atoms: N_6  and  C_11 
REMARK    4  A    between atoms: N_7  and  C_15 
REMARK       I    between atoms: N_7  and  C_24 
REMARK       I    between atoms: N_8  and  C_23 
REMARK    5  A    between atoms: C_11  and  C_14 
REMARK    6  A    between atoms: C_15  and  C_18 
REMARK    7  A    between atoms: C_15  and  C_23 
REMARK    8  A    between atoms: C_21  and  C_26 
REMARK    9  A    between atoms: C_24  and  C_25 
REMARK   10  A    between atoms: C_29  and  C_32 
ROOT
HETATM    1  O   UNK     0       3.182  14.897  94.117  0.00  0.00    -0.388 OA
HETATM    2  N   UNK     0       2.831  14.766  91.295  0.00  0.00     0.096 N 
HETATM    3  C   UNK     0       1.900  14.100  92.217  0.00  0.00     0.299 C 
HETATM    4  C   UNK     0       4.167  14.846  91.900  0.00  0.00     0.299 C 
HETATM    5  C   UNK     0       1.872  14.843  93.550  0.00  0.00     0.198 C 
HETATM    6  C   UNK     0       4.086  15.571  93.240  0.00  0.00     0.198 C 
ENDROOT
BRANCH   2   7
HETATM    7  C   UNK     0       2.882  14.065  90.014  0.00  0.00     0.311 C 
BRANCH   7   8
HETATM    8  C   UNK     0       3.885  12.962  90.009  0.00  0.00    -0.030 A 
HETATM    9  C   UNK     0       3.650  11.803  90.750  0.00  0.00     0.010 A 
HETATM   10  C   UNK     0       4.589  10.772  90.748  0.00  0.00     0.021 A 
HETATM   11  C   UNK     0       5.762  10.900  90.004  0.00  0.00     0.018 A 
HETATM   12  C   UNK     0       5.998  12.057  89.264  0.00  0.00     0.021 A 
HETATM   13  C   UNK     0       5.059  13.089  89.266  0.00  0.00     0.010 A 
BRANCH  11  14
HETATM   14  C   UNK     0       6.725   9.841  90.001  0.00  0.00    -0.061 C 
HETATM   15  C   UNK     0       7.534   8.952  89.998  0.00  0.00    -0.061 C 
BRANCH  15  16
HETATM   16  C   UNK     0       8.494   7.895  89.993  0.00  0.00     0.018 A 
HETATM   17  C   UNK     0       9.297   7.687  88.871  0.00  0.00     0.022 A 
HETATM   18  C   UNK     0      10.237   6.656  88.866  0.00  0.00     0.018 A 
HETATM   19  C   UNK     0      10.353   5.856  89.984  0.00  0.00     0.032 A 
HETATM   20  C   UNK     0       9.572   6.040  91.105  0.00  0.00     0.018 A 
HETATM   21  C   UNK     0       8.632   7.070  91.110  0.00  0.00     0.022 A 
BRANCH  19  22
HETATM   22  C   UNK     0      11.353   4.757  89.978  0.00  0.00     0.252 C 
HETATM   23  O   UNK     0      11.528   4.111  88.948  0.00  0.00    -0.268 OA
HETATM   24  N   UNK     0      12.045   4.558  91.165  0.00  0.00    -0.341 N 
HETATM   25  H   UNK     0      11.865   5.148  91.969  0.00  0.00     0.163 HD
BRANCH  24  26
HETATM   26  C   UNK     0      13.062   3.548  91.309  0.00  0.00     0.207 C 
BRANCH  26  27
HETATM   27  C   UNK     0      14.254   4.022  92.150  0.00  0.00     0.146 C 
HETATM   28  C   UNK     0      13.894   4.212  93.620  0.00  0.00     0.042 C 
BRANCH  27  29
HETATM   29  O   UNK     0      15.315   3.072  92.052  0.00  0.00    -0.393 OA
HETATM   30  H   UNK     0      15.050   2.383  91.420  0.00  0.00     0.210 HD
ENDBRANCH  27  29
ENDBRANCH  26  27
BRANCH  26  31
HETATM   31  C   UNK     0      12.409   2.313  91.921  0.00  0.00     0.266 C 
HETATM   32  O   UNK     0      12.995   1.240  92.051  0.00  0.00    -0.269 OA
HETATM   33  N   UNK     0      11.097   2.536  92.264  0.00  0.00    -0.236 N 
HETATM   34  H   UNK     0      10.559   3.377  92.089  0.00  0.00     0.197 HD
BRANCH  33  35
HETATM   35  O   UNK     0      10.411   1.436  92.799  0.00  0.00    -0.287 OA
HETATM   36  H   UNK     0       9.522   1.594  92.439  0.00  0.00     0.244 HD
ENDBRANCH  33  35
ENDBRANCH  26  31
ENDBRANCH  24  26
ENDBRANCH  19  22
ENDBRANCH  15  16
ENDBRANCH  11  14
ENDBRANCH   7   8
ENDBRANCH   2   7
TORSDOF 10
ENDMDL
MODEL 6
REMARK VINA RESULT:      -5.2      2.565     12.716
REMARK  10 active torsions:
REMARK  status: ('A' for Active; 'I' for Inactive)
REMARK    1  A    between atoms: O_2  and  C_18 
REMARK    2  A    between atoms: O_5  and  N_8 
REMARK    3  A    between atoms: N_6  and  C_11 
REMARK    4  A    between atoms: N_7  and  C_15 
REMARK       I    between atoms: N_7  and  C_24 
REMARK       I    between atoms: N_8  and  C_23 
REMARK    5  A    between atoms: C_11  and  C_14 
REMARK    6  A    between atoms: C_15  and  C_18 
REMARK    7  A    between atoms: C_15  and  C_23 
REMARK    8  A    between atoms: C_21  and  C_26 
REMARK    9  A    between atoms: C_24  and  C_25 
REMARK   10  A    between atoms: C_29  and  C_32 
ROOT
HETATM    1  O   UNK     0       1.402  14.853  92.460  0.00  0.00    -0.388 OA
HETATM    2  N   UNK     0       3.539  13.342  91.341  0.00  0.00     0.096 N 
HETATM    3  C   UNK     0       3.735  14.723  91.803  0.00  0.00     0.299 C 
HETATM    4  C   UNK     0       2.150  13.150  90.902  0.00  0.00     0.299 C 
HETATM    5  C   UNK     0       2.742  15.040  92.919  0.00  0.00     0.198 C 
HETATM    6  C   UNK     0       1.195  13.504  92.038  0.00  0.00     0.198 C 
ENDROOT
BRANCH   2   7
HETATM    7  C   UNK     0       4.473  13.019  90.263  0.00  0.00     0.311 C 
BRANCH   7   8
HETATM    8  C   UNK     0       5.382  11.892  90.618  0.00  0.00    -0.030 A 
HETATM    9  C   UNK     0       6.144  11.273  89.627  0.00  0.00     0.010 A 
HETATM   10  C   UNK     0       6.993  10.217  89.957  0.00  0.00     0.021 A 
HETATM   11  C   UNK     0       7.082   9.782  91.279  0.00  0.00     0.018 A 
HETATM   12  C   UNK     0       6.321  10.400  92.270  0.00  0.00     0.021 A 
HETATM   13  C   UNK     0       5.471  11.455  91.940  0.00  0.00     0.010 A 
BRANCH  11  14
HETATM   14  C   UNK     0       7.954   8.701  91.619  0.00  0.00    -0.061 C 
HETATM   15  C   UNK     0       8.688   7.792  91.904  0.00  0.00    -0.061 C 
BRANCH  15  16
HETATM   16  C   UNK     0       9.561   6.712  92.242  0.00  0.00     0.018 A 
HETATM   17  C   UNK     0       9.910   6.490  93.575  0.00  0.00     0.022 A 
HETATM   18  C   UNK     0      10.760   5.434  93.905  0.00  0.00     0.018 A 
HETATM   19  C   UNK     0      11.241   4.625  92.897  0.00  0.00     0.032 A 
HETATM   20  C   UNK     0      10.911   4.824  91.573  0.00  0.00     0.018 A 
HETATM   21  C   UNK     0      10.062   5.879  91.242  0.00  0.00     0.022 A 
BRANCH  19  22
HETATM   22  C   UNK     0      12.148   3.502  93.250  0.00  0.00     0.252 C 
HETATM   23  O   UNK     0      11.738   2.348  93.155  0.00  0.00    -0.268 OA
HETATM   24  N   UNK     0      13.430   3.857  93.646  0.00  0.00    -0.341 N 
HETATM   25  H   UNK     0      13.706   4.832  93.676  0.00  0.00     0.163 HD
BRANCH  24  26
HETATM   26  C   UNK     0      14.432   2.882  93.996  0.00  0.00     0.207 C 
BRANCH  26  27
HETATM   27  C   UNK     0      14.406   1.651  93.082  0.00  0.00     0.146 C 
HETATM   28  C   UNK     0      15.098   1.900  91.746  0.00  0.00     0.042 C 
BRANCH  27  29
HETATM   29  O   UNK     0      15.046   0.556  93.738  0.00  0.00    -0.393 OA
HETATM   30  H   UNK     0      15.633   0.914  94.425  0.00  0.00     0.210 HD
ENDBRANCH  27  29
ENDBRANCH  26  27
BRANCH  26  31
HETATM   31  C   UNK     0      15.790   3.575  93.954  0.00  0.00     0.266 C 
HETATM   32  O   UNK     0      16.852   2.977  94.121  0.00  0.00    -0.269 OA
HETATM   33  N   UNK     0      15.677   4.929  93.750  0.00  0.00    -0.236 N 
HETATM   34  H   UNK     0      14.818   5.465  93.698  0.00  0.00     0.197 HD
BRANCH  33  35
HETATM   35  O   UNK     0      16.881   5.647  93.738  0.00  0.00    -0.287 OA
HETATM   36  H   UNK     0      17.286   5.292  92.928  0.00  0.00     0.244 HD
ENDBRANCH  33  35
ENDBRANCH  26  31
ENDBRANCH  24  26
ENDBRANCH  19  22
ENDBRANCH  15  16
ENDBRANCH  11  14
ENDBRANCH   7   8
ENDBRANCH   2   7
TORSDOF 10
ENDMDL
MODEL 7
REMARK VINA RESULT:      -4.0      1.646     12.318
REMARK  10 active torsions:
REMARK  status: ('A' for Active; 'I' for Inactive)
REMARK    1  A    between atoms: O_2  and  C_18 
REMARK    2  A    between atoms: O_5  and  N_8 
REMARK    3  A    between atoms: N_6  and  C_11 
REMARK    4  A    between atoms: N_7  and  C_15 
REMARK       I    between atoms: N_7  and  C_24 
REMARK       I    between atoms: N_8  and  C_23 
REMARK    5  A    between atoms: C_11  and  C_14 
REMARK    6  A    between atoms: C_15  and  C_18 
REMARK    7  A    between atoms: C_15  and  C_23 
REMARK    8  A    between atoms: C_21  and  C_26 
REMARK    9  A    between atoms: C_24  and  C_25 
REMARK   10  A    between atoms: C_29  and  C_32 
ROOT
HETATM    1  O   UNK     0       4.515  13.983  89.840  0.00  0.00    -0.388 OA
HETATM    2  N   UNK     0       3.337  11.580  88.870  0.00  0.00     0.096 N 
HETATM    3  C   UNK     0       2.846  12.238  90.089  0.00  0.00     0.299 C 
HETATM    4  C   UNK     0       4.766  11.863  88.686  0.00  0.00     0.299 C 
HETATM    5  C   UNK     0       3.117  13.738  90.011  0.00  0.00     0.198 C 
HETATM    6  C   UNK     0       4.993  13.372  88.641  0.00  0.00     0.198 C 
ENDROOT
BRANCH   2   7
HETATM    7  C   UNK     0       3.097  10.139  88.928  0.00  0.00     0.311 C 
BRANCH   7   8
HETATM    8  C   UNK     0       4.319   9.374  89.308  0.00  0.00    -0.030 A 
HETATM    9  C   UNK     0       4.775   9.400  90.627  0.00  0.00     0.010 A 
HETATM   10  C   UNK     0       5.919   8.687  90.983  0.00  0.00     0.021 A 
HETATM   11  C   UNK     0       6.606   7.946  90.021  0.00  0.00     0.018 A 
HETATM   12  C   UNK     0       6.151   7.920  88.704  0.00  0.00     0.021 A 
HETATM   13  C   UNK     0       5.007   8.633  88.347  0.00  0.00     0.010 A 
BRANCH  11  14
HETATM   14  C   UNK     0       7.779   7.213  90.387  0.00  0.00    -0.061 C 
HETATM   15  C   UNK     0       8.764   6.597  90.695  0.00  0.00    -0.061 C 
BRANCH  15  16
HETATM   16  C   UNK     0       9.936   5.866  91.061  0.00  0.00     0.018 A 
HETATM   17  C   UNK     0      10.799   5.393  90.072  0.00  0.00     0.022 A 
HETATM   18  C   UNK     0      11.944   4.681  90.429  0.00  0.00     0.018 A 
HETATM   19  C   UNK     0      12.201   4.458  91.766  0.00  0.00     0.032 A 
HETATM   20  C   UNK     0      11.364   4.914  92.762  0.00  0.00     0.018 A 
HETATM   21  C   UNK     0      10.218   5.625  92.406  0.00  0.00     0.022 A 
BRANCH  19  22
HETATM   22  C   UNK     0      13.420   3.698  92.146  0.00  0.00     0.252 C 
HETATM   23  O   UNK     0      14.238   3.403  91.277  0.00  0.00    -0.268 OA
HETATM   24  N   UNK     0      13.552   3.394  93.493  0.00  0.00    -0.341 N 
HETATM   25  H   UNK     0      12.847   3.692  94.158  0.00  0.00     0.163 HD
BRANCH  24  26
HETATM   26  C   UNK     0      14.689   2.683  94.021  0.00  0.00     0.207 C 
BRANCH  26  27
HETATM   27  C   UNK     0      14.967   1.372  93.275  0.00  0.00     0.146 C 
HETATM   28  C   UNK     0      13.718   0.800  92.613  0.00  0.00     0.042 C 
BRANCH  27  29
HETATM   29  O   UNK     0      15.962   1.592  92.276  0.00  0.00    -0.393 OA
HETATM   30  H   UNK     0      15.792   2.455  91.862  0.00  0.00     0.210 HD
ENDBRANCH  27  29
ENDBRANCH  26  27
BRANCH  26  31
HETATM   31  C   UNK     0      15.891   3.620  93.962  0.00  0.00     0.266 C 
HETATM   32  O   UNK     0      17.049   3.233  94.113  0.00  0.00    -0.269 OA
HETATM   33  N   UNK     0      15.521   4.928  93.764  0.00  0.00    -0.236 N 
HETATM   34  H   UNK     0      14.576   5.292  93.725  0.00  0.00     0.197 HD
BRANCH  33  35
HETATM   35  O   UNK     0      16.568   5.860  93.736  0.00  0.00    -0.287 OA
HETATM   36  H   UNK     0      16.213   6.538  94.337  0.00  0.00     0.244 HD
ENDBRANCH  33  35
ENDBRANCH  26  31
ENDBRANCH  24  26
ENDBRANCH  19  22
ENDBRANCH  15  16
ENDBRANCH  11  14
ENDBRANCH   7   8
ENDBRANCH   2   7
TORSDOF 10
ENDMDL
MODEL 8
REMARK VINA RESULT:      -3.9      2.623     12.434
REMARK  10 active torsions:
REMARK  status: ('A' for Active; 'I' for Inactive)
REMARK    1  A    between atoms: O_2  and  C_18 
REMARK    2  A    between atoms: O_5  and  N_8 
REMARK    3  A    between atoms: N_6  and  C_11 
REMARK    4  A    between atoms: N_7  and  C_15 
REMARK       I    between atoms: N_7  and  C_24 
REMARK       I    between atoms: N_8  and  C_23 
REMARK    5  A    between atoms: C_11  and  C_14 
REMARK    6  A    between atoms: C_15  and  C_18 
REMARK    7  A    between atoms: C_15  and  C_23 
REMARK    8  A    between atoms: C_21  and  C_26 
REMARK    9  A    between atoms: C_24  and  C_25 
REMARK   10  A    between atoms: C_29  and  C_32 
ROOT
HETATM    1  O   UNK     0       3.647  14.757  90.494  0.00  0.00    -0.388 OA
HETATM    2  N   UNK     0       2.709  13.798  93.005  0.00  0.00     0.096 N 
HETATM    3  C   UNK     0       4.064  14.345  92.849  0.00  0.00     0.299 C 
HETATM    4  C   UNK     0       2.257  13.206  91.740  0.00  0.00     0.299 C 
HETATM    5  C   UNK     0       4.083  15.363  91.712  0.00  0.00     0.198 C 
HETATM    6  C   UNK     0       2.318  14.250  90.628  0.00  0.00     0.198 C 
ENDROOT
BRANCH   2   7
HETATM    7  C   UNK     0       2.670  12.811  94.083  0.00  0.00     0.311 C 
BRANCH   7   8
HETATM    8  C   UNK     0       3.689  11.737  93.907  0.00  0.00    -0.030 A 
HETATM    9  C   UNK     0       5.032  12.072  93.735  0.00  0.00     0.010 A 
HETATM   10  C   UNK     0       5.986  11.068  93.568  0.00  0.00     0.021 A 
HETATM   11  C   UNK     0       5.595   9.729  93.575  0.00  0.00     0.018 A 
HETATM   12  C   UNK     0       4.254   9.393  93.747  0.00  0.00     0.021 A 
HETATM   13  C   UNK     0       3.300  10.397  93.914  0.00  0.00     0.010 A 
BRANCH  11  14
HETATM   14  C   UNK     0       6.574   8.699  93.406  0.00  0.00    -0.061 C 
HETATM   15  C   UNK     0       7.396   7.834  93.264  0.00  0.00    -0.061 C 
BRANCH  15  16
HETATM   16  C   UNK     0       8.373   6.805  93.093  0.00  0.00     0.018 A 
HETATM   17  C   UNK     0       9.269   6.518  94.124  0.00  0.00     0.022 A 
HETATM   18  C   UNK     0      10.222   5.512  93.959  0.00  0.00     0.018 A 
HETATM   19  C   UNK     0      10.257   4.816  92.769  0.00  0.00     0.032 A 
HETATM   20  C   UNK     0       9.383   5.080  91.735  0.00  0.00     0.018 A 
HETATM   21  C   UNK     0       8.431   6.087  91.899  0.00  0.00     0.022 A 
BRANCH  19  22
HETATM   22  C   UNK     0      11.273   3.746  92.593  0.00  0.00     0.252 C 
HETATM   23  O   UNK     0      10.909   2.625  92.244  0.00  0.00    -0.268 OA
HETATM   24  N   UNK     0      12.591   4.116  92.820  0.00  0.00    -0.341 N 
HETATM   25  H   UNK     0      12.818   5.068  93.082  0.00  0.00     0.163 HD
BRANCH  24  26
HETATM   26  C   UNK     0      13.691   3.199  92.667  0.00  0.00     0.207 C 
BRANCH  26  27
HETATM   27  C   UNK     0      14.050   2.941  91.198  0.00  0.00     0.146 C 
HETATM   28  C   UNK     0      13.758   4.143  90.306  0.00  0.00     0.042 C 
BRANCH  27  29
HETATM   29  O   UNK     0      15.435   2.613  91.095  0.00  0.00    -0.393 OA
HETATM   30  H   UNK     0      15.927   3.171  91.720  0.00  0.00     0.210 HD
ENDBRANCH  27  29
ENDBRANCH  26  27
BRANCH  26  31
HETATM   31  C   UNK     0      14.880   3.764  93.437  0.00  0.00     0.266 C 
HETATM   32  O   UNK     0      14.810   4.782  94.124  0.00  0.00    -0.269 OA
HETATM   33  N   UNK     0      16.024   3.031  93.237  0.00  0.00    -0.236 N 
HETATM   34  H   UNK     0      16.139   2.243  92.610  0.00  0.00     0.197 HD
BRANCH  33  35
HETATM   35  O   UNK     0      17.175   3.508  93.881  0.00  0.00    -0.287 OA
HETATM   36  H   UNK     0      17.764   2.742  93.775  0.00  0.00     0.244 HD
ENDBRANCH  33  35
ENDBRANCH  26  31
ENDBRANCH  24  26
ENDBRANCH  19  22
ENDBRANCH  15  16
ENDBRANCH  11  14
ENDBRANCH   7   8
ENDBRANCH   2   7
TORSDOF 10
ENDMDL
