MODEL 1
REMARK VINA RESULT:      -6.9      0.000      0.000
REMARK  14 active torsions:
REMARK  status: ('A' for Active; 'I' for Inactive)
REMARK    1  A    between atoms: O_2  and  C_18 
REMARK    2  A    between atoms: C_5  and  C_8 
REMARK    3  A    between atoms: C_5  and  O_35 
REMARK    4  A    between atoms: C_5  and  C_36 
REMARK    5  A    between atoms: N_6  and  C_11 
REMARK    6  A    between atoms: N_7  and  C_15 
REMARK       I    between atoms: N_7  and  C_24 
REMARK    7  A    between atoms: C_8  and  C_23 
REMARK    8  A    between atoms: C_11  and  C_14 
REMARK    9  A    between atoms: C_15  and  C_18 
REMARK   10  A    between atoms: C_15  and  C_23 
REMARK   11  A    between atoms: C_21  and  C_26 
REMARK   12  A    between atoms: C_24  and  C_25 
REMARK   13  A    between atoms: C_29  and  C_32 
REMARK   14  A    between atoms: C_36  and  O_39 
ROOT
HETATM    1  O   UNL     1      17.216   4.850  93.633  1.00  0.00    -0.350 OA
HETATM    2  N   UNL     1      15.255   2.789  93.735  1.00  0.00     0.147 N 
HETATM    3  C   UNL     1      16.619   2.528  93.255  1.00  0.00     0.283 C 
HETATM    4  C   UNL     1      14.888   4.188  93.471  1.00  0.00     0.283 C 
HETATM    5  C   UNL     1      17.594   3.501  93.914  1.00  0.00     0.178 C 
HETATM    6  C   UNL     1      15.903   5.121  94.124  1.00  0.00     0.178 C 
ENDROOT
BRANCH   2   7
HETATM    7  C   UNL     1      14.302   1.875  93.108  1.00  0.00     0.277 C 
BRANCH   7   8
HETATM    8  C   UNL     1      13.206   2.595  92.398  1.00  0.00     0.011 A 
HETATM    9  C   UNL     1      11.913   2.586  92.922  1.00  0.00    -0.002 A 
HETATM   10  C   UNL     1      10.887   3.258  92.258  1.00  0.00     0.008 A 
HETATM   11  C   UNL     1      11.155   3.940  91.072  1.00  0.00     0.042 A 
HETATM   12  C   UNL     1      12.446   3.950  90.548  1.00  0.00     0.008 A 
HETATM   13  C   UNL     1      13.473   3.278  91.211  1.00  0.00    -0.002 A 
BRANCH  11  14
HETATM   14  C   UNL     1      10.103   4.631  90.392  1.00  0.00    -0.059 C 
HETATM   15  C   UNL     1       9.219   5.212  89.820  1.00  0.00    -0.059 C 
BRANCH  15  16
HETATM   16  C   UNL     1       8.168   5.902  89.140  1.00  0.00     0.042 A 
HETATM   17  C   UNL     1       8.444   6.617  87.974  1.00  0.00     0.008 A 
HETATM   18  C   UNL     1       7.418   7.288  87.309  1.00  0.00     0.005 A 
HETATM   19  C   UNL     1       6.140   7.229  87.823  1.00  0.00     0.056 A 
HETATM   20  C   UNL     1       5.841   6.530  88.974  1.00  0.00     0.005 A 
HETATM   21  C   UNL     1       6.866   5.858  89.640  1.00  0.00     0.008 A 
BRANCH  19  22
HETATM   22  C   UNL     1       5.048   7.946  87.115  1.00  0.00     0.254 C 
HETATM   23  O   UNL     1       5.104   8.069  85.894  1.00  0.00    -0.268 OA
HETATM   24  N   UNL     1       4.010   8.410  87.911  1.00  0.00    -0.335 N 
HETATM   25  HN  UNL     1       4.019   8.250  88.912  1.00  0.00     0.164 HD
BRANCH  24  26
HETATM   26  C   UNL     1       2.868   9.103  87.370  1.00  0.00     0.169 C 
BRANCH  26  27
HETATM   27  C   UNL     1       1.552   8.349  87.602  1.00  0.00     0.138 C 
HETATM   28  C   UNL     1       1.632   6.888  87.172  1.00  0.00     0.034 C 
BRANCH  27  29
HETATM   29  O   UNL     1       1.207   8.406  88.986  1.00  0.00    -0.383 OA
HETATM   30  H   UNL     1       2.002   8.206  89.507  1.00  0.00     0.210 HD
ENDBRANCH  27  29
ENDBRANCH  26  27
BRANCH  26  31
HETATM   31  C   UNL     1       2.828  10.494  87.995  1.00  0.00     0.194 C 
HETATM   32  O   UNL     1       1.931  11.304  87.767  1.00  0.00    -0.289 OA
BRANCH  31  33
HETATM   33  C   UNL     1       3.918  10.735  88.795  1.00  0.00     0.053 C 
BRANCH  33  34
HETATM   34  C   UNL     1       4.601  11.935  88.550  1.00  0.00     0.220 C 
BRANCH  34  35
HETATM   35  O   UNL     1       4.360  12.277  87.377  1.00  0.00    -0.371 OA
HETATM   36  H   UNL     1       4.749  11.535  86.940  1.00  0.00     0.211 HD
ENDBRANCH  34  35
BRANCH  34  37
HETATM   37  C   UNL     1       4.300  12.950  89.474  1.00  0.00     0.185 C 
HETATM   38  O   UNL     1       5.262  12.373  90.178  1.00  0.00    -0.647 OA
BRANCH  37  39
HETATM   39  O   UNL     1       3.515  13.846  89.564  1.00  0.00    -0.774 OA
HETATM   40  H   UNL     1       2.471  13.467  89.796  1.00  0.00     0.167 HD
ENDBRANCH  37  39
ENDBRANCH  34  37
ENDBRANCH  33  34
ENDBRANCH  31  33
ENDBRANCH  26  31
ENDBRANCH  24  26
ENDBRANCH  19  22
ENDBRANCH  15  16
ENDBRANCH  11  14
ENDBRANCH   7   8
ENDBRANCH   2   7
TORSDOF 14
ENDMDL
MODEL 2
REMARK VINA RESULT:      -6.4      2.974      4.520
REMARK  14 active torsions:
REMARK  status: ('A' for Active; 'I' for Inactive)
REMARK    1  A    between atoms: O_2  and  C_18 
REMARK    2  A    between atoms: C_5  and  C_8 
REMARK    3  A    between atoms: C_5  and  O_35 
REMARK    4  A    between atoms: C_5  and  C_36 
REMARK    5  A    between atoms: N_6  and  C_11 
REMARK    6  A    between atoms: N_7  and  C_15 
REMARK       I    between atoms: N_7  and  C_24 
REMARK    7  A    between atoms: C_8  and  C_23 
REMARK    8  A    between atoms: C_11  and  C_14 
REMARK    9  A    between atoms: C_15  and  C_18 
REMARK   10  A    between atoms: C_15  and  C_23 
REMARK   11  A    between atoms: C_21  and  C_26 
REMARK   12  A    between atoms: C_24  and  C_25 
REMARK   13  A    between atoms: C_29  and  C_32 
REMARK   14  A    between atoms: C_36  and  O_39 
ROOT
HETATM    1  O   UNL     1      16.420   4.289  94.124  1.00  0.00    -0.350 OA
HETATM    2  N   UNL     1      14.576   2.812  92.537  1.00  0.00     0.147 N 
HETATM    3  C   UNL     1      14.549   4.280  92.579  1.00  0.00     0.283 C 
HETATM    4  C   UNL     1      15.096   2.282  93.805  1.00  0.00     0.283 C 
HETATM    5  C   UNL     1      15.946   4.814  92.883  1.00  0.00     0.178 C 
HETATM    6  C   UNL     1      16.479   2.862  94.081  1.00  0.00     0.178 C 
ENDROOT
BRANCH   2   7
HETATM    7  C   UNL     1      13.244   2.278  92.257  1.00  0.00     0.277 C 
BRANCH   7   8
HETATM    8  C   UNL     1      12.184   3.323  92.339  1.00  0.00     0.011 A 
HETATM    9  C   UNL     1      11.501   3.713  91.186  1.00  0.00    -0.002 A 
HETATM   10  C   UNL     1      10.511   4.693  91.261  1.00  0.00     0.008 A 
HETATM   11  C   UNL     1      10.203   5.279  92.487  1.00  0.00     0.042 A 
HETATM   12  C   UNL     1      10.884   4.890  93.639  1.00  0.00     0.008 A 
HETATM   13  C   UNL     1      11.875   3.912  93.565  1.00  0.00    -0.002 A 
BRANCH  11  14
HETATM   14  C   UNL     1       9.185   6.283  92.564  1.00  0.00    -0.059 C 
HETATM   15  C   UNL     1       8.331   7.126  92.628  1.00  0.00    -0.059 C 
BRANCH  15  16
HETATM   16  C   UNL     1       7.314   8.128  92.703  1.00  0.00     0.042 A 
HETATM   17  C   UNL     1       7.621   9.455  92.402  1.00  0.00     0.008 A 
HETATM   18  C   UNL     1       6.628  10.433  92.473  1.00  0.00     0.005 A 
HETATM   19  C   UNL     1       5.352  10.061  92.843  1.00  0.00     0.056 A 
HETATM   20  C   UNL     1       5.024   8.756  93.146  1.00  0.00     0.005 A 
HETATM   21  C   UNL     1       6.016   7.778  93.075  1.00  0.00     0.008 A 
BRANCH  19  22
HETATM   22  C   UNL     1       4.295  11.103  92.920  1.00  0.00     0.254 C 
HETATM   23  O   UNL     1       3.418  11.005  93.775  1.00  0.00    -0.268 OA
HETATM   24  N   UNL     1       4.401  12.145  92.010  1.00  0.00    -0.335 N 
HETATM   25  HN  UNL     1       5.168  12.172  91.349  1.00  0.00     0.164 HD
BRANCH  24  26
HETATM   26  C   UNL     1       3.468  13.242  91.976  1.00  0.00     0.169 C 
BRANCH  26  27
HETATM   27  C   UNL     1       3.823  14.355  92.971  1.00  0.00     0.138 C 
HETATM   28  C   UNL     1       2.591  14.954  93.641  1.00  0.00     0.034 C 
BRANCH  27  29
HETATM   29  O   UNL     1       4.692  13.836  93.977  1.00  0.00    -0.383 OA
HETATM   30  H   UNL     1       4.819  14.522  94.653  1.00  0.00     0.210 HD
ENDBRANCH  27  29
ENDBRANCH  26  27
BRANCH  26  31
HETATM   31  C   UNL     1       3.423  13.771  90.546  1.00  0.00     0.194 C 
HETATM   32  O   UNL     1       2.378  14.098  89.986  1.00  0.00    -0.289 OA
BRANCH  31  33
HETATM   33  C   UNL     1       4.666  13.797  89.963  1.00  0.00     0.053 C 
BRANCH  33  34
HETATM   34  C   UNL     1       4.693  13.605  88.574  1.00  0.00     0.220 C 
BRANCH  34  35
HETATM   35  O   UNL     1       5.800  13.996  88.157  1.00  0.00    -0.371 OA
HETATM   36  H   UNL     1       5.937  14.694  88.780  1.00  0.00     0.211 HD
ENDBRANCH  34  35
BRANCH  34  37
HETATM   37  C   UNL     1       4.413  12.284  88.186  1.00  0.00     0.185 C 
HETATM   38  O   UNL     1       5.638  12.061  88.635  1.00  0.00    -0.647 OA
BRANCH  37  39
HETATM   39  O   UNL     1       3.512  11.699  87.662  1.00  0.00    -0.774 OA
HETATM   40  H   UNL     1       2.874  12.392  87.031  1.00  0.00     0.167 HD
ENDBRANCH  37  39
ENDBRANCH  34  37
ENDBRANCH  33  34
ENDBRANCH  31  33
ENDBRANCH  26  31
ENDBRANCH  24  26
ENDBRANCH  19  22
ENDBRANCH  15  16
ENDBRANCH  11  14
ENDBRANCH   7   8
ENDBRANCH   2   7
TORSDOF 14
ENDMDL
MODEL 3
REMARK VINA RESULT:      -5.7      3.619     12.671
REMARK  14 active torsions:
REMARK  status: ('A' for Active; 'I' for Inactive)
REMARK    1  A    between atoms: O_2  and  C_18 
REMARK    2  A    between atoms: C_5  and  C_8 
REMARK    3  A    between atoms: C_5  and  O_35 
REMARK    4  A    between atoms: C_5  and  C_36 
REMARK    5  A    between atoms: N_6  and  C_11 
REMARK    6  A    between atoms: N_7  and  C_15 
REMARK       I    between atoms: N_7  and  C_24 
REMARK    7  A    between atoms: C_8  and  C_23 
REMARK    8  A    between atoms: C_11  and  C_14 
REMARK    9  A    between atoms: C_15  and  C_18 
REMARK   10  A    between atoms: C_15  and  C_23 
REMARK   11  A    between atoms: C_21  and  C_26 
REMARK   12  A    between atoms: C_24  and  C_25 
REMARK   13  A    between atoms: C_29  and  C_32 
REMARK   14  A    between atoms: C_36  and  O_39 
ROOT
HETATM    1  O   UNL     1       3.112  14.737  93.810  1.00  0.00    -0.350 OA
HETATM    2  N   UNL     1       2.753  14.559  90.992  1.00  0.00     0.147 N 
HETATM    3  C   UNL     1       1.822  13.912  91.927  1.00  0.00     0.283 C 
HETATM    4  C   UNL     1       4.091  14.645  91.592  1.00  0.00     0.283 C 
HETATM    5  C   UNL     1       1.800  14.678  93.247  1.00  0.00     0.178 C 
HETATM    6  C   UNL     1       4.016  15.393  92.920  1.00  0.00     0.178 C 
ENDROOT
BRANCH   2   7
HETATM    7  C   UNL     1       2.798  13.835  89.723  1.00  0.00     0.277 C 
BRANCH   7   8
HETATM    8  C   UNL     1       3.766  12.702  89.749  1.00  0.00     0.011 A 
HETATM    9  C   UNL     1       5.074  12.892  89.301  1.00  0.00    -0.002 A 
HETATM   10  C   UNL     1       5.980  11.832  89.324  1.00  0.00     0.008 A 
HETATM   11  C   UNL     1       5.578  10.583  89.797  1.00  0.00     0.042 A 
HETATM   12  C   UNL     1       4.272  10.392  90.245  1.00  0.00     0.008 A 
HETATM   13  C   UNL     1       3.366  11.452  90.222  1.00  0.00    -0.002 A 
BRANCH  11  14
HETATM   14  C   UNL     1       6.508   9.496  89.822  1.00  0.00    -0.059 C 
HETATM   15  C   UNL     1       7.290   8.583  89.843  1.00  0.00    -0.059 C 
BRANCH  15  16
HETATM   16  C   UNL     1       8.219   7.496  89.870  1.00  0.00     0.042 A 
HETATM   17  C   UNL     1       9.055   7.321  90.973  1.00  0.00     0.008 A 
HETATM   18  C   UNL     1       9.959   6.260  90.999  1.00  0.00     0.005 A 
HETATM   19  C   UNL     1      10.007   5.398  89.923  1.00  0.00     0.056 A 
HETATM   20  C   UNL     1       9.192   5.550  88.821  1.00  0.00     0.005 A 
HETATM   21  C   UNL     1       8.287   6.611  88.794  1.00  0.00     0.008 A 
BRANCH  19  22
HETATM   22  C   UNL     1      10.972   4.268  89.951  1.00  0.00     0.254 C 
HETATM   23  O   UNL     1      10.872   3.373  89.116  1.00  0.00    -0.268 OA
HETATM   24  N   UNL     1      11.953   4.330  90.932  1.00  0.00    -0.335 N 
HETATM   25  HN  UNL     1      11.989   5.115  91.572  1.00  0.00     0.164 HD
BRANCH  24  26
HETATM   26  C   UNL     1      12.974   3.324  91.072  1.00  0.00     0.169 C 
BRANCH  26  27
HETATM   27  C   UNL     1      14.393   3.899  90.970  1.00  0.00     0.138 C 
HETATM   28  C   UNL     1      15.320   3.023  90.135  1.00  0.00     0.034 C 
BRANCH  27  29
HETATM   29  O   UNL     1      14.339   5.202  90.390  1.00  0.00    -0.383 OA
HETATM   30  H   UNL     1      13.925   5.129  89.514  1.00  0.00     0.210 HD
ENDBRANCH  27  29
ENDBRANCH  26  27
BRANCH  26  31
HETATM   31  C   UNL     1      12.755   2.620  92.407  1.00  0.00     0.194 C 
HETATM   32  O   UNL     1      11.996   1.663  92.543  1.00  0.00    -0.289 OA
BRANCH  31  33
HETATM   33  C   UNL     1      13.469   3.206  93.425  1.00  0.00     0.053 C 
BRANCH  33  34
HETATM   34  C   UNL     1      14.518   2.440  93.954  1.00  0.00     0.220 C 
BRANCH  34  35
HETATM   35  O   UNL     1      14.515   1.339  93.372  1.00  0.00    -0.371 OA
HETATM   36  H   UNL     1      14.801   1.637  92.522  1.00  0.00     0.211 HD
ENDBRANCH  34  35
BRANCH  34  37
HETATM   37  C   UNL     1      15.768   3.078  93.884  1.00  0.00     0.185 C 
HETATM   38  O   UNL     1      15.048   4.164  94.122  1.00  0.00    -0.647 OA
BRANCH  37  39
HETATM   39  O   UNL     1      16.899   2.763  93.664  1.00  0.00    -0.774 OA
HETATM   40  H   UNL     1      16.989   2.177  92.697  1.00  0.00     0.167 HD
ENDBRANCH  37  39
ENDBRANCH  34  37
ENDBRANCH  33  34
ENDBRANCH  31  33
ENDBRANCH  26  31
ENDBRANCH  24  26
ENDBRANCH  19  22
ENDBRANCH  15  16
ENDBRANCH  11  14
ENDBRANCH   7   8
ENDBRANCH   2   7
TORSDOF 14
ENDMDL
MODEL 4
REMARK VINA RESULT:      -5.2      3.780     12.024
REMARK  14 active torsions:
REMARK  status: ('A' for Active; 'I' for Inactive)
REMARK    1  A    between atoms: O_2  and  C_18 
REMARK    2  A    between atoms: C_5  and  C_8 
REMARK    3  A    between atoms: C_5  and  O_35 
REMARK    4  A    between atoms: C_5  and  C_36 
REMARK    5  A    between atoms: N_6  and  C_11 
REMARK    6  A    between atoms: N_7  and  C_15 
REMARK       I    between atoms: N_7  and  C_24 
REMARK    7  A    between atoms: C_8  and  C_23 
REMARK    8  A    between atoms: C_11  and  C_14 
REMARK    9  A    between atoms: C_15  and  C_18 
REMARK   10  A    between atoms: C_15  and  C_23 
REMARK   11  A    between atoms: C_21  and  C_26 
REMARK   12  A    between atoms: C_24  and  C_25 
REMARK   13  A    between atoms: C_29  and  C_32 
REMARK   14  A    between atoms: C_36  and  O_39 
ROOT
HETATM    1  O   UNL     1       3.066  14.735  93.860  1.00  0.00    -0.350 OA
HETATM    2  N   UNL     1       2.726  14.706  91.034  1.00  0.00     0.147 N 
HETATM    3  C   UNL     1       1.755  14.064  91.931  1.00  0.00     0.283 C 
HETATM    4  C   UNL     1       4.061  14.698  91.647  1.00  0.00     0.283 C 
HETATM    5  C   UNL     1       1.758  14.768  93.285  1.00  0.00     0.178 C 
HETATM    6  C   UNL     1       4.010  15.385  93.008  1.00  0.00     0.178 C 
ENDROOT
BRANCH   2   7
HETATM    7  C   UNL     1       2.748  14.041  89.732  1.00  0.00     0.277 C 
BRANCH   7   8
HETATM    8  C   UNL     1       3.724  12.915  89.686  1.00  0.00     0.011 A 
HETATM    9  C   UNL     1       3.336  11.639  90.098  1.00  0.00    -0.002 A 
HETATM   10  C   UNL     1       4.249  10.586  90.058  1.00  0.00     0.008 A 
HETATM   11  C   UNL     1       5.548  10.808  89.604  1.00  0.00     0.042 A 
HETATM   12  C   UNL     1       5.937  12.081  89.192  1.00  0.00     0.008 A 
HETATM   13  C   UNL     1       5.024  13.135  89.233  1.00  0.00    -0.002 A 
BRANCH  11  14
HETATM   14  C   UNL     1       6.484   9.726  89.560  1.00  0.00    -0.059 C 
HETATM   15  C   UNL     1       7.270   8.817  89.524  1.00  0.00    -0.059 C 
BRANCH  15  16
HETATM   16  C   UNL     1       8.204   7.736  89.480  1.00  0.00     0.042 A 
HETATM   17  C   UNL     1       7.768   6.429  89.700  1.00  0.00     0.008 A 
HETATM   18  C   UNL     1       8.680   5.374  89.654  1.00  0.00     0.005 A 
HETATM   19  C   UNL     1      10.005   5.649  89.389  1.00  0.00     0.056 A 
HETATM   20  C   UNL     1      10.461   6.932  89.169  1.00  0.00     0.005 A 
HETATM   21  C   UNL     1       9.550   7.988  89.215  1.00  0.00     0.008 A 
BRANCH  19  22
HETATM   22  C   UNL     1      10.976   4.525  89.343  1.00  0.00     0.254 C 
HETATM   23  O   UNL     1      11.013   3.805  88.348  1.00  0.00    -0.268 OA
HETATM   24  N   UNL     1      11.803   4.390  90.449  1.00  0.00    -0.335 N 
HETATM   25  HN  UNL     1      11.732   5.038  91.225  1.00  0.00     0.164 HD
BRANCH  24  26
HETATM   26  C   UNL     1      12.811   3.365  90.543  1.00  0.00     0.169 C 
BRANCH  26  27
HETATM   27  C   UNL     1      14.236   3.932  90.548  1.00  0.00     0.138 C 
HETATM   28  C   UNL     1      14.633   4.502  91.906  1.00  0.00     0.034 C 
BRANCH  27  29
HETATM   29  O   UNL     1      15.160   2.906  90.188  1.00  0.00    -0.383 OA
HETATM   30  H   UNL     1      16.052   3.194  90.447  1.00  0.00     0.210 HD
ENDBRANCH  27  29
ENDBRANCH  26  27
BRANCH  26  31
HETATM   31  C   UNL     1      12.533   2.552  91.804  1.00  0.00     0.194 C 
HETATM   32  O   UNL     1      13.342   1.759  92.281  1.00  0.00    -0.289 OA
BRANCH  31  33
HETATM   33  C   UNL     1      11.276   2.786  92.305  1.00  0.00     0.053 C 
BRANCH  33  34
HETATM   34  C   UNL     1      11.197   3.731  93.338  1.00  0.00     0.220 C 
BRANCH  34  35
HETATM   35  O   UNL     1      12.350   3.924  93.766  1.00  0.00    -0.371 OA
HETATM   36  H   UNL     1      12.220   4.794  94.111  1.00  0.00     0.211 HD
ENDBRANCH  34  35
BRANCH  34  37
HETATM   37  C   UNL     1      10.562   4.926  92.956  1.00  0.00     0.185 C 
HETATM   38  O   UNL     1       9.557   4.113  92.671  1.00  0.00    -0.647 OA
BRANCH  37  39
HETATM   39  O   UNL     1      10.846   6.084  92.891  1.00  0.00    -0.774 OA
HETATM   40  H   UNL     1      11.963   6.234  92.764  1.00  0.00     0.167 HD
ENDBRANCH  37  39
ENDBRANCH  34  37
ENDBRANCH  33  34
ENDBRANCH  31  33
ENDBRANCH  26  31
ENDBRANCH  24  26
ENDBRANCH  19  22
ENDBRANCH  15  16
ENDBRANCH  11  14
ENDBRANCH   7   8
ENDBRANCH   2   7
TORSDOF 14
ENDMDL
