MODEL 1
REMARK VINA RESULT:      -7.0      0.000      0.000
REMARK  9 active torsions:
REMARK  status: ('A' for Active; 'I' for Inactive)
REMARK    1  A    between atoms: O_2  and  C_17 
REMARK    2  A    between atoms: N_5  and  C_10 
REMARK    3  A    between atoms: N_6  and  C_14 
REMARK       I    between atoms: N_6  and  C_23 
REMARK       I    between atoms: N_7  and  C_22 
REMARK    4  A    between atoms: C_10  and  C_13 
REMARK    5  A    between atoms: C_14  and  C_17 
REMARK    6  A    between atoms: C_14  and  C_22 
REMARK    7  A    between atoms: C_20  and  C_25 
REMARK    8  A    between atoms: C_23  and  C_24 
REMARK    9  A    between atoms: C_28  and  C_31 
ROOT
HETATM    1  O   UNL     1      16.865   3.712  93.694  1.00  0.00    -0.388 OA
HETATM    2  N   UNL     1      14.174   2.962  93.149  1.00  0.00     0.096 N 
HETATM    3  C   UNL     1      15.256   1.968  93.186  1.00  0.00     0.299 C 
HETATM    4  C   UNL     1      14.706   4.270  92.740  1.00  0.00     0.299 C 
HETATM    5  C   UNL     1      16.364   2.445  94.122  1.00  0.00     0.198 C 
HETATM    6  C   UNL     1      15.826   4.692  93.685  1.00  0.00     0.198 C 
ENDROOT
BRANCH   2   7
HETATM    7  C   UNL     1      13.106   2.531  92.249  1.00  0.00     0.311 C 
BRANCH   7   8
HETATM    8  C   UNL     1      12.169   3.639  91.908  1.00  0.00    -0.030 A 
HETATM    9  C   UNL     1      12.019   4.040  90.580  1.00  0.00     0.010 A 
HETATM   10  C   UNL     1      11.144   5.078  90.260  1.00  0.00     0.021 A 
HETATM   11  C   UNL     1      10.419   5.713  91.267  1.00  0.00     0.018 A 
HETATM   12  C   UNL     1      10.567   5.313  92.594  1.00  0.00     0.021 A 
HETATM   13  C   UNL     1      11.443   4.276  92.914  1.00  0.00     0.010 A 
BRANCH  11  14
HETATM   14  C   UNL     1       9.520   6.777  90.938  1.00  0.00    -0.061 C 
HETATM   15  C   UNL     1       8.764   7.670  90.661  1.00  0.00    -0.061 C 
BRANCH  15  16
HETATM   16  C   UNL     1       7.865   8.732  90.332  1.00  0.00     0.018 A 
HETATM   17  C   UNL     1       8.353   9.902  89.748  1.00  0.00     0.022 A 
HETATM   18  C   UNL     1       7.476  10.936  89.425  1.00  0.00     0.018 A 
HETATM   19  C   UNL     1       6.132  10.779  89.692  1.00  0.00     0.032 A 
HETATM   20  C   UNL     1       5.625   9.633  90.269  1.00  0.00     0.018 A 
HETATM   21  C   UNL     1       6.502   8.598  90.593  1.00  0.00     0.022 A 
BRANCH  19  22
HETATM   22  C   UNL     1       5.198  11.882  89.350  1.00  0.00     0.252 C 
HETATM   23  O   UNL     1       4.918  12.088  88.171  1.00  0.00    -0.268 OA
HETATM   24  N   UNL     1       4.683  12.598  90.422  1.00  0.00    -0.342 N 
HETATM   25  H   UNL     1       4.940  12.355  91.371  1.00  0.00     0.163 HD
BRANCH  24  26
HETATM   26  C   UNL     1       3.747  13.681  90.253  1.00  0.00     0.199 C 
BRANCH  26  27
HETATM   27  C   UNL     1       2.522  13.555  91.169  1.00  0.00     0.145 C 
HETATM   28  C   UNL     1       2.844  12.846  92.480  1.00  0.00     0.042 C 
BRANCH  27  29
HETATM   29  O   UNL     1       2.008  14.854  91.459  1.00  0.00    -0.393 OA
HETATM   30  H   UNL     1       2.756  15.471  91.524  1.00  0.00     0.210 HD
ENDBRANCH  27  29
ENDBRANCH  26  27
BRANCH  26  31
HETATM   31  C   UNL     1       4.495  14.986  90.504  1.00  0.00     0.220 C 
HETATM   32  O   UNL     1       4.635  15.473  91.624  1.00  0.00    -0.278 OA
HETATM   33  N   UNL     1       4.947  15.557  89.339  1.00  0.00    -0.271 NA
HETATM   34  H   UNL     1       4.772  15.231  88.396  1.00  0.00     0.127 HD
HETATM   35  H   UNL     1       4.472  16.708  88.691  1.00  0.00     0.127 HD
ENDBRANCH  26  31
ENDBRANCH  24  26
ENDBRANCH  19  22
ENDBRANCH  15  16
ENDBRANCH  11  14
ENDBRANCH   7   8
ENDBRANCH   2   7
TORSDOF 9
ENDMDL
