MODEL 1
REMARK VINA RESULT:      -7.0      0.000      0.000
REMARK  10 active torsions:
REMARK  status: ('A' for Active; 'I' for Inactive)
REMARK    1  A    between atoms: O_2  and  C_18 
REMARK    2  A    between atoms: O_5  and  N_8 
REMARK    3  A    between atoms: N_6  and  C_11 
REMARK    4  A    between atoms: N_7  and  C_15 
REMARK       I    between atoms: N_7  and  C_24 
REMARK       I    between atoms: N_8  and  C_23 
REMARK    5  A    between atoms: C_11  and  C_14 
REMARK    6  A    between atoms: C_15  and  C_18 
REMARK    7  A    between atoms: C_15  and  C_23 
REMARK    8  A    between atoms: C_21  and  C_26 
REMARK    9  A    between atoms: C_24  and  C_25 
REMARK   10  A    between atoms: C_29  and  C_32 
ROOT
HETATM    1  O   UNK     0      16.385   4.094  94.089  0.00  0.00    -0.388 OA
HETATM    2  N   UNK     0      14.605   2.457  92.588  0.00  0.00     0.096 N 
HETATM    3  C   UNK     0      14.514   3.924  92.553  0.00  0.00     0.299 C 
HETATM    4  C   UNK     0      15.148   2.017  93.879  0.00  0.00     0.299 C 
HETATM    5  C   UNK     0      15.887   4.533  92.823  0.00  0.00     0.198 C 
HETATM    6  C   UNK     0      16.506   2.672  94.120  0.00  0.00     0.198 C 
ENDROOT
BRANCH   2   7
HETATM    7  C   UNK     0      13.297   1.852  92.341  0.00  0.00     0.311 C 
BRANCH   7   8
HETATM    8  C   UNK     0      12.235   2.870  92.106  0.00  0.00    -0.030 A 
HETATM    9  C   UNK     0      11.813   3.691  93.152  0.00  0.00     0.010 A 
HETATM   10  C   UNK     0      10.817   4.643  92.933  0.00  0.00     0.021 A 
HETATM   11  C   UNK     0      10.246   4.775  91.668  0.00  0.00     0.018 A 
HETATM   12  C   UNK     0      10.667   3.956  90.622  0.00  0.00     0.021 A 
HETATM   13  C   UNK     0      11.662   3.004  90.841  0.00  0.00     0.010 A 
BRANCH  11  14
HETATM   14  C   UNK     0       9.226   5.753  91.443  0.00  0.00    -0.061 C 
HETATM   15  C   UNK     0       8.369   6.575  91.254  0.00  0.00    -0.061 C 
BRANCH  15  16
HETATM   16  C   UNK     0       7.352   7.553  91.029  0.00  0.00     0.018 A 
HETATM   17  C   UNK     0       6.018   7.157  90.920  0.00  0.00     0.022 A 
HETATM   18  C   UNK     0       5.024   8.112  90.703  0.00  0.00     0.018 A 
HETATM   19  C   UNK     0       5.385   9.439  90.599  0.00  0.00     0.032 A 
HETATM   20  C   UNK     0       6.695   9.855  90.703  0.00  0.00     0.018 A 
HETATM   21  C   UNK     0       7.690   8.901  90.920  0.00  0.00     0.022 A 
BRANCH  19  22
HETATM   22  C   UNK     0       4.326  10.455  90.366  0.00  0.00     0.252 C 
HETATM   23  O   UNK     0       3.154  10.093  90.293  0.00  0.00    -0.268 OA
HETATM   24  N   UNK     0       4.756  11.770  90.269  0.00  0.00    -0.341 N 
HETATM   25  H   UNK     0       5.740  11.997  90.364  0.00  0.00     0.163 HD
BRANCH  24  26
HETATM   26  C   UNK     0       3.848  12.871  90.068  0.00  0.00     0.207 C 
BRANCH  26  27
HETATM   27  C   UNK     0       3.676  13.736  91.323  0.00  0.00     0.146 C 
HETATM   28  C   UNK     0       2.218  13.855  91.753  0.00  0.00     0.042 C 
BRANCH  27  29
HETATM   29  O   UNK     0       4.432  13.175  92.396  0.00  0.00    -0.393 OA
HETATM   30  H   UNK     0       5.332  12.999  92.075  0.00  0.00     0.210 HD
ENDBRANCH  27  29
ENDBRANCH  26  27
BRANCH  26  31
HETATM   31  C   UNK     0       4.368  13.695  88.894  0.00  0.00     0.266 C 
HETATM   32  O   UNK     0       4.650  14.888  88.986  0.00  0.00    -0.269 OA
HETATM   33  N   UNK     0       4.441  12.959  87.736  0.00  0.00    -0.236 N 
HETATM   34  H   UNK     0       4.133  12.003  87.604  0.00  0.00     0.197 HD
BRANCH  33  35
HETATM   35  O   UNK     0       4.874  13.654  86.598  0.00  0.00    -0.287 OA
HETATM   36  H   UNK     0       4.561  13.056  85.898  0.00  0.00     0.244 HD
ENDBRANCH  33  35
ENDBRANCH  26  31
ENDBRANCH  24  26
ENDBRANCH  19  22
ENDBRANCH  15  16
ENDBRANCH  11  14
ENDBRANCH   7   8
ENDBRANCH   2   7
TORSDOF 10
ENDMDL
