MODEL 1
REMARK VINA RESULT:      -6.9      0.000      0.000
REMARK  10 active torsions:
REMARK  status: ('A' for Active; 'I' for Inactive)
REMARK    1  A    between atoms: O_2  and  C_18 
REMARK    2  A    between atoms: O_5  and  N_8 
REMARK    3  A    between atoms: N_6  and  C_11 
REMARK    4  A    between atoms: N_7  and  C_15 
REMARK       I    between atoms: N_7  and  C_24 
REMARK       I    between atoms: N_8  and  C_23 
REMARK    5  A    between atoms: C_11  and  C_14 
REMARK    6  A    between atoms: C_15  and  C_18 
REMARK    7  A    between atoms: C_15  and  C_23 
REMARK    8  A    between atoms: C_21  and  C_26 
REMARK    9  A    between atoms: C_24  and  C_25 
REMARK   10  A    between atoms: C_29  and  C_32 
ROOT
HETATM    1  O   UNK     0      16.401   4.306  94.045  0.00  0.00    -0.388 OA
HETATM    2  N   UNK     0      14.673   2.575  92.589  0.00  0.00     0.096 N 
HETATM    3  C   UNK     0      14.544   4.037  92.505  0.00  0.00     0.299 C 
HETATM    4  C   UNK     0      15.220   2.192  93.897  0.00  0.00     0.299 C 
HETATM    5  C   UNK     0      15.899   4.691  92.763  0.00  0.00     0.198 C 
HETATM    6  C   UNK     0      16.558   2.889  94.123  0.00  0.00     0.198 C 
ENDROOT
BRANCH   2   7
HETATM    7  C   UNK     0      13.383   1.928  92.355  0.00  0.00     0.311 C 
BRANCH   7   8
HETATM    8  C   UNK     0      12.307   2.907  92.030  0.00  0.00    -0.030 A 
HETATM    9  C   UNK     0      11.929   3.110  90.702  0.00  0.00     0.010 A 
HETATM   10  C   UNK     0      10.923   4.028  90.397  0.00  0.00     0.021 A 
HETATM   11  C   UNK     0      10.296   4.739  91.419  0.00  0.00     0.018 A 
HETATM   12  C   UNK     0      10.672   4.536  92.745  0.00  0.00     0.021 A 
HETATM   13  C   UNK     0      11.678   3.619  93.051  0.00  0.00     0.010 A 
BRANCH  11  14
HETATM   14  C   UNK     0       9.263   5.678  91.106  0.00  0.00    -0.061 C 
HETATM   15  C   UNK     0       8.395   6.468  90.842  0.00  0.00    -0.061 C 
BRANCH  15  16
HETATM   16  C   UNK     0       7.364   7.406  90.530  0.00  0.00     0.018 A 
HETATM   17  C   UNK     0       6.428   7.109  89.539  0.00  0.00     0.022 A 
HETATM   18  C   UNK     0       5.420   8.024  89.236  0.00  0.00     0.018 A 
HETATM   19  C   UNK     0       5.370   9.215  89.929  0.00  0.00     0.032 A 
HETATM   20  C   UNK     0       6.283   9.533  90.912  0.00  0.00     0.018 A 
HETATM   21  C   UNK     0       7.292   8.619  91.216  0.00  0.00     0.022 A 
BRANCH  19  22
HETATM   22  C   UNK     0       4.297  10.190  89.604  0.00  0.00     0.252 C 
HETATM   23  O   UNK     0       3.401   9.861  88.831  0.00  0.00    -0.268 OA
HETATM   24  N   UNK     0       4.383  11.422  90.237  0.00  0.00    -0.341 N 
HETATM   25  H   UNK     0       5.139  11.615  90.884  0.00  0.00     0.163 HD
BRANCH  24  26
HETATM   26  C   UNK     0       3.406  12.464  90.044  0.00  0.00     0.207 C 
BRANCH  26  27
HETATM   27  C   UNK     0       3.055  13.197  91.345  0.00  0.00     0.146 C 
HETATM   28  C   UNK     0       1.897  12.541  92.090  0.00  0.00     0.042 C 
BRANCH  27  29
HETATM   29  O   UNK     0       4.197  13.227  92.200  0.00  0.00    -0.393 OA
HETATM   30  H   UNK     0       4.433  14.156  92.360  0.00  0.00     0.210 HD
ENDBRANCH  27  29
ENDBRANCH  26  27
BRANCH  26  31
HETATM   31  C   UNK     0       3.953  13.427  88.996  0.00  0.00     0.266 C 
HETATM   32  O   UNK     0       4.010  14.643  89.168  0.00  0.00    -0.269 OA
HETATM   33  N   UNK     0       4.331  12.781  87.844  0.00  0.00    -0.236 N 
HETATM   34  H   UNK     0       4.216  11.796  87.635  0.00  0.00     0.197 HD
BRANCH  33  35
HETATM   35  O   UNK     0       4.811  13.601  86.813  0.00  0.00    -0.287 OA
HETATM   36  H   UNK     0       5.755  13.370  86.831  0.00  0.00     0.244 HD
ENDBRANCH  33  35
ENDBRANCH  26  31
ENDBRANCH  24  26
ENDBRANCH  19  22
ENDBRANCH  15  16
ENDBRANCH  11  14
ENDBRANCH   7   8
ENDBRANCH   2   7
TORSDOF 10
ENDMDL
