MODEL 1
REMARK VINA RESULT:      -7.0      0.000      0.000
REMARK  14 active torsions:
REMARK  status: ('A' for Active; 'I' for Inactive)
REMARK    1  A    between atoms: O_2  and  C_18 
REMARK    2  A    between atoms: C_5  and  C_8 
REMARK    3  A    between atoms: C_5  and  O_35 
REMARK    4  A    between atoms: C_5  and  C_36 
REMARK    5  A    between atoms: N_6  and  C_11 
REMARK    6  A    between atoms: N_7  and  C_15 
REMARK       I    between atoms: N_7  and  C_24 
REMARK    7  A    between atoms: C_8  and  C_23 
REMARK    8  A    between atoms: C_11  and  C_14 
REMARK    9  A    between atoms: C_15  and  C_18 
REMARK   10  A    between atoms: C_15  and  C_23 
REMARK   11  A    between atoms: C_21  and  C_26 
REMARK   12  A    between atoms: C_24  and  C_25 
REMARK   13  A    between atoms: C_29  and  C_32 
REMARK   14  A    between atoms: C_36  and  O_39 
ROOT
HETATM    1  O   UNL     1      16.229   4.217  94.109  1.00  0.00    -0.350 OA
HETATM    2  N   UNL     1      14.389   2.718  92.537  1.00  0.00     0.147 N 
HETATM    3  C   UNL     1      14.392   4.187  92.523  1.00  0.00     0.283 C 
HETATM    4  C   UNL     1      14.870   2.226  93.836  1.00  0.00     0.283 C 
HETATM    5  C   UNL     1      15.794   4.704  92.838  1.00  0.00     0.178 C 
HETATM    6  C   UNL     1      16.259   2.789  94.121  1.00  0.00     0.178 C 
ENDROOT
BRANCH   2   7
HETATM    7  C   UNL     1      13.053   2.200  92.247  1.00  0.00     0.277 C 
BRANCH   7   8
HETATM    8  C   UNL     1      12.011   3.266  92.285  1.00  0.00     0.011 A 
HETATM    9  C   UNL     1      11.779   3.972  93.466  1.00  0.00    -0.002 A 
HETATM   10  C   UNL     1      10.803   4.967  93.503  1.00  0.00     0.008 A 
HETATM   11  C   UNL     1      10.061   5.257  92.358  1.00  0.00     0.042 A 
HETATM   12  C   UNL     1      10.291   4.553  91.179  1.00  0.00     0.008 A 
HETATM   13  C   UNL     1      11.267   3.557  91.141  1.00  0.00    -0.002 A 
BRANCH  11  14
HETATM   14  C   UNL     1       9.061   6.280  92.396  1.00  0.00    -0.059 C 
HETATM   15  C   UNL     1       8.220   7.139  92.428  1.00  0.00    -0.059 C 
BRANCH  15  16
HETATM   16  C   UNL     1       7.222   8.162  92.465  1.00  0.00     0.042 A 
HETATM   17  C   UNL     1       5.876   7.817  92.594  1.00  0.00     0.008 A 
HETATM   18  C   UNL     1       4.902   8.815  92.633  1.00  0.00     0.005 A 
HETATM   19  C   UNL     1       5.295  10.134  92.544  1.00  0.00     0.056 A 
HETATM   20  C   UNL     1       6.619  10.500  92.416  1.00  0.00     0.005 A 
HETATM   21  C   UNL     1       7.593   9.503  92.376  1.00  0.00     0.008 A 
BRANCH  19  22
HETATM   22  C   UNL     1       4.258  11.196  92.584  1.00  0.00     0.254 C 
HETATM   23  O   UNL     1       3.303  11.074  93.348  1.00  0.00    -0.268 OA
HETATM   24  N   UNL     1       4.469  12.284  91.749  1.00  0.00    -0.335 N 
HETATM   25  HN  UNL     1       5.294  12.328  91.163  1.00  0.00     0.164 HD
BRANCH  24  26
HETATM   26  C   UNL     1       3.565  13.405  91.692  1.00  0.00     0.169 C 
BRANCH  26  27
HETATM   27  C   UNL     1       4.139  14.664  92.356  1.00  0.00     0.138 C 
HETATM   28  C   UNL     1       4.947  15.518  91.386  1.00  0.00     0.034 C 
BRANCH  27  29
HETATM   29  O   UNL     1       3.073  15.450  92.889  1.00  0.00    -0.383 OA
HETATM   30  H   UNL     1       2.969  15.224  93.828  1.00  0.00     0.210 HD
ENDBRANCH  27  29
ENDBRANCH  26  27
BRANCH  26  31
HETATM   31  C   UNL     1       3.226  13.657  90.226  1.00  0.00     0.194 C 
HETATM   32  O   UNL     1       2.256  14.321  89.868  1.00  0.00    -0.289 OA
BRANCH  31  33
HETATM   33  C   UNL     1       4.102  13.027  89.376  1.00  0.00     0.053 C 
BRANCH  33  34
HETATM   34  C   UNL     1       3.519  12.225  88.384  1.00  0.00     0.220 C 
BRANCH  34  35
HETATM   35  O   UNL     1       4.220  12.318  87.359  1.00  0.00    -0.371 OA
HETATM   36  H   UNL     1       4.392  11.398  87.231  1.00  0.00     0.211 HD
ENDBRANCH  34  35
BRANCH  34  37
HETATM   37  C   UNL     1       3.331  10.890  88.782  1.00  0.00     0.185 C 
HETATM   38  O   UNL     1       4.156  10.642  87.777  1.00  0.00    -0.647 OA
BRANCH  37  39
HETATM   39  O   UNL     1       2.690  10.305  89.603  1.00  0.00    -0.774 OA
HETATM   40  H   UNL     1       3.010  10.577  90.656  1.00  0.00     0.167 HD
ENDBRANCH  37  39
ENDBRANCH  34  37
ENDBRANCH  33  34
ENDBRANCH  31  33
ENDBRANCH  26  31
ENDBRANCH  24  26
ENDBRANCH  19  22
ENDBRANCH  15  16
ENDBRANCH  11  14
ENDBRANCH   7   8
ENDBRANCH   2   7
TORSDOF 14
ENDMDL
MODEL 2
REMARK VINA RESULT:      -6.0      1.346      2.145
REMARK  14 active torsions:
REMARK  status: ('A' for Active; 'I' for Inactive)
REMARK    1  A    between atoms: O_2  and  C_18 
REMARK    2  A    between atoms: C_5  and  C_8 
REMARK    3  A    between atoms: C_5  and  O_35 
REMARK    4  A    between atoms: C_5  and  C_36 
REMARK    5  A    between atoms: N_6  and  C_11 
REMARK    6  A    between atoms: N_7  and  C_15 
REMARK       I    between atoms: N_7  and  C_24 
REMARK    7  A    between atoms: C_8  and  C_23 
REMARK    8  A    between atoms: C_11  and  C_14 
REMARK    9  A    between atoms: C_15  and  C_18 
REMARK   10  A    between atoms: C_15  and  C_23 
REMARK   11  A    between atoms: C_21  and  C_26 
REMARK   12  A    between atoms: C_24  and  C_25 
REMARK   13  A    between atoms: C_29  and  C_32 
REMARK   14  A    between atoms: C_36  and  O_39 
ROOT
HETATM    1  O   UNL     1      16.534   4.266  94.094  1.00  0.00    -0.350 OA
HETATM    2  N   UNL     1      14.623   2.763  92.614  1.00  0.00     0.147 N 
HETATM    3  C   UNL     1      14.636   4.232  92.582  1.00  0.00     0.283 C 
HETATM    4  C   UNL     1      15.152   2.283  93.899  1.00  0.00     0.283 C 
HETATM    5  C   UNL     1      16.053   4.742  92.836  1.00  0.00     0.178 C 
HETATM    6  C   UNL     1      16.554   2.838  94.122  1.00  0.00     0.178 C 
ENDROOT
BRANCH   2   7
HETATM    7  C   UNL     1      13.273   2.252  92.384  1.00  0.00     0.277 C 
BRANCH   7   8
HETATM    8  C   UNL     1      12.247   3.333  92.394  1.00  0.00     0.011 A 
HETATM    9  C   UNL     1      11.672   3.759  91.196  1.00  0.00    -0.002 A 
HETATM   10  C   UNL     1      10.713   4.772  91.205  1.00  0.00     0.008 A 
HETATM   11  C   UNL     1      10.329   5.357  92.411  1.00  0.00     0.042 A 
HETATM   12  C   UNL     1      10.903   4.933  93.608  1.00  0.00     0.008 A 
HETATM   13  C   UNL     1      11.862   3.920  93.600  1.00  0.00    -0.002 A 
BRANCH  11  14
HETATM   14  C   UNL     1       9.345   6.395  92.420  1.00  0.00    -0.059 C 
HETATM   15  C   UNL     1       8.517   7.267  92.426  1.00  0.00    -0.059 C 
BRANCH  15  16
HETATM   16  C   UNL     1       7.532   8.304  92.435  1.00  0.00     0.042 A 
HETATM   17  C   UNL     1       7.751   9.466  93.175  1.00  0.00     0.008 A 
HETATM   18  C   UNL     1       6.791  10.479  93.181  1.00  0.00     0.005 A 
HETATM   19  C   UNL     1       5.636  10.306  92.448  1.00  0.00     0.056 A 
HETATM   20  C   UNL     1       5.395   9.166  91.710  1.00  0.00     0.005 A 
HETATM   21  C   UNL     1       6.354   8.153  91.703  1.00  0.00     0.008 A 
BRANCH  19  22
HETATM   22  C   UNL     1       4.613  11.384  92.457  1.00  0.00     0.254 C 
HETATM   23  O   UNL     1       4.783  12.366  93.175  1.00  0.00    -0.268 OA
HETATM   24  N   UNL     1       3.528  11.200  91.611  1.00  0.00    -0.335 N 
HETATM   25  HN  UNL     1       3.468  10.373  91.027  1.00  0.00     0.164 HD
BRANCH  24  26
HETATM   26  C   UNL     1       2.467  12.166  91.489  1.00  0.00     0.169 C 
BRANCH  26  27
HETATM   27  C   UNL     1       1.647  12.313  92.777  1.00  0.00     0.138 C 
HETATM   28  C   UNL     1       1.490  10.992  93.523  1.00  0.00     0.034 C 
BRANCH  27  29
HETATM   29  O   UNL     1       2.276  13.260  93.638  1.00  0.00    -0.383 OA
HETATM   30  H   UNL     1       3.144  12.907  93.897  1.00  0.00     0.210 HD
ENDBRANCH  27  29
ENDBRANCH  26  27
BRANCH  26  31
HETATM   31  C   UNL     1       3.092  13.495  91.075  1.00  0.00     0.194 C 
HETATM   32  O   UNL     1       3.349  14.391  91.876  1.00  0.00    -0.289 OA
BRANCH  31  33
HETATM   33  C   UNL     1       3.289  13.575  89.718  1.00  0.00     0.053 C 
BRANCH  33  34
HETATM   34  C   UNL     1       4.614  13.772  89.305  1.00  0.00     0.220 C 
BRANCH  34  35
HETATM   35  O   UNL     1       5.359  13.448  90.249  1.00  0.00    -0.371 OA
HETATM   36  H   UNL     1       5.684  12.637  89.889  1.00  0.00     0.211 HD
ENDBRANCH  34  35
BRANCH  34  37
HETATM   37  C   UNL     1       4.936  13.097  88.115  1.00  0.00     0.185 C 
HETATM   38  O   UNL     1       5.746  12.415  88.909  1.00  0.00    -0.647 OA
BRANCH  37  39
HETATM   39  O   UNL     1       4.637  13.170  86.961  1.00  0.00    -0.774 OA
HETATM   40  H   UNL     1       5.531  13.434  86.313  1.00  0.00     0.167 HD
ENDBRANCH  37  39
ENDBRANCH  34  37
ENDBRANCH  33  34
ENDBRANCH  31  33
ENDBRANCH  26  31
ENDBRANCH  24  26
ENDBRANCH  19  22
ENDBRANCH  15  16
ENDBRANCH  11  14
ENDBRANCH   7   8
ENDBRANCH   2   7
TORSDOF 14
ENDMDL
MODEL 3
REMARK VINA RESULT:      -5.9      2.833     12.924
REMARK  14 active torsions:
REMARK  status: ('A' for Active; 'I' for Inactive)
REMARK    1  A    between atoms: O_2  and  C_18 
REMARK    2  A    between atoms: C_5  and  C_8 
REMARK    3  A    between atoms: C_5  and  O_35 
REMARK    4  A    between atoms: C_5  and  C_36 
REMARK    5  A    between atoms: N_6  and  C_11 
REMARK    6  A    between atoms: N_7  and  C_15 
REMARK       I    between atoms: N_7  and  C_24 
REMARK    7  A    between atoms: C_8  and  C_23 
REMARK    8  A    between atoms: C_11  and  C_14 
REMARK    9  A    between atoms: C_15  and  C_18 
REMARK   10  A    between atoms: C_15  and  C_23 
REMARK   11  A    between atoms: C_21  and  C_26 
REMARK   12  A    between atoms: C_24  and  C_25 
REMARK   13  A    between atoms: C_29  and  C_32 
REMARK   14  A    between atoms: C_36  and  O_39 
ROOT
HETATM    1  O   UNL     1       3.083  14.943  93.943  1.00  0.00    -0.350 OA
HETATM    2  N   UNL     1       2.568  14.504  91.179  1.00  0.00     0.147 N 
HETATM    3  C   UNL     1       1.682  13.965  92.220  1.00  0.00     0.283 C 
HETATM    4  C   UNL     1       3.939  14.624  91.696  1.00  0.00     0.283 C 
HETATM    5  C   UNL     1       1.742  14.854  93.460  1.00  0.00     0.178 C 
HETATM    6  C   UNL     1       3.945  15.495  92.948  1.00  0.00     0.178 C 
ENDROOT
BRANCH   2   7
HETATM    7  C   UNL     1       2.535  13.662  89.984  1.00  0.00     0.277 C 
BRANCH   7   8
HETATM    8  C   UNL     1       3.535  12.557  90.040  1.00  0.00     0.011 A 
HETATM    9  C   UNL     1       4.794  12.727  89.464  1.00  0.00    -0.002 A 
HETATM   10  C   UNL     1       5.730  11.694  89.514  1.00  0.00     0.008 A 
HETATM   11  C   UNL     1       5.406  10.492  90.142  1.00  0.00     0.042 A 
HETATM   12  C   UNL     1       4.149  10.321  90.718  1.00  0.00     0.008 A 
HETATM   13  C   UNL     1       3.213  11.354  90.668  1.00  0.00    -0.002 A 
BRANCH  11  14
HETATM   14  C   UNL     1       6.366   9.433  90.195  1.00  0.00    -0.059 C 
HETATM   15  C   UNL     1       7.173   8.542  90.240  1.00  0.00    -0.059 C 
BRANCH  15  16
HETATM   16  C   UNL     1       8.132   7.483  90.292  1.00  0.00     0.042 A 
HETATM   17  C   UNL     1       9.418   7.682  89.789  1.00  0.00     0.008 A 
HETATM   18  C   UNL     1      10.354   6.650  89.843  1.00  0.00     0.005 A 
HETATM   19  C   UNL     1       9.984   5.443  90.399  1.00  0.00     0.056 A 
HETATM   20  C   UNL     1       8.720   5.221  90.902  1.00  0.00     0.005 A 
HETATM   21  C   UNL     1       7.783   6.253  90.849  1.00  0.00     0.008 A 
BRANCH  19  22
HETATM   22  C   UNL     1      10.982   4.343  90.454  1.00  0.00     0.254 C 
HETATM   23  O   UNL     1      10.919   3.434  89.629  1.00  0.00    -0.268 OA
HETATM   24  N   UNL     1      11.946   4.446  91.447  1.00  0.00    -0.335 N 
HETATM   25  HN  UNL     1      11.950   5.239  92.077  1.00  0.00     0.164 HD
BRANCH  24  26
HETATM   26  C   UNL     1      12.995   3.472  91.613  1.00  0.00     0.169 C 
BRANCH  26  27
HETATM   27  C   UNL     1      14.311   3.898  90.952  1.00  0.00     0.138 C 
HETATM   28  C   UNL     1      14.776   2.910  89.887  1.00  0.00     0.034 C 
BRANCH  27  29
HETATM   29  O   UNL     1      14.151   5.183  90.353  1.00  0.00    -0.383 OA
HETATM   30  H   UNL     1      13.733   5.772  91.004  1.00  0.00     0.210 HD
ENDBRANCH  27  29
ENDBRANCH  26  27
BRANCH  26  31
HETATM   31  C   UNL     1      13.177   3.234  93.109  1.00  0.00     0.194 C 
HETATM   32  O   UNL     1      12.387   2.577  93.784  1.00  0.00    -0.289 OA
BRANCH  31  33
HETATM   33  C   UNL     1      14.292   3.868  93.603  1.00  0.00     0.053 C 
BRANCH  33  34
HETATM   34  C   UNL     1      15.289   3.030  94.123  1.00  0.00     0.220 C 
BRANCH  34  35
HETATM   35  O   UNL     1      15.028   1.865  93.770  1.00  0.00    -0.371 OA
HETATM   36  H   UNL     1      15.792   1.442  94.133  1.00  0.00     0.211 HD
ENDBRANCH  34  35
BRANCH  34  37
HETATM   37  C   UNL     1      16.590   3.419  93.762  1.00  0.00     0.185 C 
HETATM   38  O   UNL     1      16.064   4.634  93.793  1.00  0.00    -0.647 OA
BRANCH  37  39
HETATM   39  O   UNL     1      17.626   2.879  93.511  1.00  0.00    -0.774 OA
HETATM   40  H   UNL     1      18.359   2.958  94.374  1.00  0.00     0.167 HD
ENDBRANCH  37  39
ENDBRANCH  34  37
ENDBRANCH  33  34
ENDBRANCH  31  33
ENDBRANCH  26  31
ENDBRANCH  24  26
ENDBRANCH  19  22
ENDBRANCH  15  16
ENDBRANCH  11  14
ENDBRANCH   7   8
ENDBRANCH   2   7
TORSDOF 14
ENDMDL
MODEL 4
REMARK VINA RESULT:      -5.8      3.012     12.395
REMARK  14 active torsions:
REMARK  status: ('A' for Active; 'I' for Inactive)
REMARK    1  A    between atoms: O_2  and  C_18 
REMARK    2  A    between atoms: C_5  and  C_8 
REMARK    3  A    between atoms: C_5  and  O_35 
REMARK    4  A    between atoms: C_5  and  C_36 
REMARK    5  A    between atoms: N_6  and  C_11 
REMARK    6  A    between atoms: N_7  and  C_15 
REMARK       I    between atoms: N_7  and  C_24 
REMARK    7  A    between atoms: C_8  and  C_23 
REMARK    8  A    between atoms: C_11  and  C_14 
REMARK    9  A    between atoms: C_15  and  C_18 
REMARK   10  A    between atoms: C_15  and  C_23 
REMARK   11  A    between atoms: C_21  and  C_26 
REMARK   12  A    between atoms: C_24  and  C_25 
REMARK   13  A    between atoms: C_29  and  C_32 
REMARK   14  A    between atoms: C_36  and  O_39 
ROOT
HETATM    1  O   UNL     1       3.192  14.490  93.809  1.00  0.00    -0.350 OA
HETATM    2  N   UNL     1       2.920  14.608  90.978  1.00  0.00     0.147 N 
HETATM    3  C   UNL     1       2.029  13.779  91.802  1.00  0.00     0.283 C 
HETATM    4  C   UNL     1       4.230  14.740  91.631  1.00  0.00     0.283 C 
HETATM    5  C   UNL     1       1.905  14.383  93.198  1.00  0.00     0.178 C 
HETATM    6  C   UNL     1       4.055  15.320  93.031  1.00  0.00     0.178 C 
ENDROOT
BRANCH   2   7
HETATM    7  C   UNL     1       3.062  14.042  89.638  1.00  0.00     0.277 C 
BRANCH   7   8
HETATM    8  C   UNL     1       4.001  12.885  89.606  1.00  0.00     0.011 A 
HETATM    9  C   UNL     1       5.315  13.066  89.171  1.00  0.00    -0.002 A 
HETATM   10  C   UNL     1       6.194  11.984  89.139  1.00  0.00     0.008 A 
HETATM   11  C   UNL     1       5.760  10.722  89.544  1.00  0.00     0.042 A 
HETATM   12  C   UNL     1       4.449  10.541  89.979  1.00  0.00     0.008 A 
HETATM   13  C   UNL     1       3.569  11.622  90.011  1.00  0.00    -0.002 A 
BRANCH  11  14
HETATM   14  C   UNL     1       6.663   9.613  89.513  1.00  0.00    -0.059 C 
HETATM   15  C   UNL     1       7.421   8.680  89.486  1.00  0.00    -0.059 C 
BRANCH  15  16
HETATM   16  C   UNL     1       8.323   7.571  89.454  1.00  0.00     0.042 A 
HETATM   17  C   UNL     1       9.072   7.250  90.587  1.00  0.00     0.008 A 
HETATM   18  C   UNL     1       9.950   6.167  90.556  1.00  0.00     0.005 A 
HETATM   19  C   UNL     1      10.059   5.429  89.396  1.00  0.00     0.056 A 
HETATM   20  C   UNL     1       9.331   5.727  88.263  1.00  0.00     0.005 A 
HETATM   21  C   UNL     1       8.452   6.810  88.293  1.00  0.00     0.008 A 
BRANCH  19  22
HETATM   22  C   UNL     1      10.996   4.277  89.363  1.00  0.00     0.254 C 
HETATM   23  O   UNL     1      11.122   3.636  88.323  1.00  0.00    -0.268 OA
HETATM   24  N   UNL     1      11.691   4.025  90.538  1.00  0.00    -0.335 N 
HETATM   25  HN  UNL     1      11.553   4.613  91.352  1.00  0.00     0.164 HD
BRANCH  24  26
HETATM   26  C   UNL     1      12.652   2.958  90.657  1.00  0.00     0.169 C 
BRANCH  26  27
HETATM   27  C   UNL     1      14.096   3.468  90.754  1.00  0.00     0.138 C 
HETATM   28  C   UNL     1      14.179   4.990  90.749  1.00  0.00     0.034 C 
BRANCH  27  29
HETATM   29  O   UNL     1      14.696   2.975  91.952  1.00  0.00    -0.383 OA
HETATM   30  H   UNL     1      15.508   2.497  91.712  1.00  0.00     0.210 HD
ENDBRANCH  27  29
ENDBRANCH  26  27
BRANCH  26  31
HETATM   31  C   UNL     1      12.275   2.125  91.877  1.00  0.00     0.194 C 
HETATM   32  O   UNL     1      12.745   1.010  92.098  1.00  0.00    -0.289 OA
BRANCH  31  33
HETATM   33  C   UNL     1      11.334   2.747  92.660  1.00  0.00     0.053 C 
BRANCH  33  34
HETATM   34  C   UNL     1      11.794   3.245  93.888  1.00  0.00     0.220 C 
BRANCH  34  35
HETATM   35  O   UNL     1      12.963   2.845  94.046  1.00  0.00    -0.371 OA
HETATM   36  H   UNL     1      12.866   2.492  94.918  1.00  0.00     0.211 HD
ENDBRANCH  34  35
BRANCH  34  37
HETATM   37  C   UNL     1      11.687   4.641  94.002  1.00  0.00     0.185 C 
HETATM   38  O   UNL     1      13.009   4.578  94.049  1.00  0.00    -0.647 OA
BRANCH  37  39
HETATM   39  O   UNL     1      10.809   5.448  94.070  1.00  0.00    -0.774 OA
HETATM   40  H   UNL     1      11.093   6.420  93.559  1.00  0.00     0.167 HD
ENDBRANCH  37  39
ENDBRANCH  34  37
ENDBRANCH  33  34
ENDBRANCH  31  33
ENDBRANCH  26  31
ENDBRANCH  24  26
ENDBRANCH  19  22
ENDBRANCH  15  16
ENDBRANCH  11  14
ENDBRANCH   7   8
ENDBRANCH   2   7
TORSDOF 14
ENDMDL
MODEL 5
REMARK VINA RESULT:      -4.3      1.495      2.787
REMARK  14 active torsions:
REMARK  status: ('A' for Active; 'I' for Inactive)
REMARK    1  A    between atoms: O_2  and  C_18 
REMARK    2  A    between atoms: C_5  and  C_8 
REMARK    3  A    between atoms: C_5  and  O_35 
REMARK    4  A    between atoms: C_5  and  C_36 
REMARK    5  A    between atoms: N_6  and  C_11 
REMARK    6  A    between atoms: N_7  and  C_15 
REMARK       I    between atoms: N_7  and  C_24 
REMARK    7  A    between atoms: C_8  and  C_23 
REMARK    8  A    between atoms: C_11  and  C_14 
REMARK    9  A    between atoms: C_15  and  C_18 
REMARK   10  A    between atoms: C_15  and  C_23 
REMARK   11  A    between atoms: C_21  and  C_26 
REMARK   12  A    between atoms: C_24  and  C_25 
REMARK   13  A    between atoms: C_29  and  C_32 
REMARK   14  A    between atoms: C_36  and  O_39 
ROOT
HETATM    1  O   UNL     1      16.901   2.470  92.636  1.00  0.00    -0.350 OA
HETATM    2  N   UNL     1      14.134   3.021  93.016  1.00  0.00     0.147 N 
HETATM    3  C   UNL     1      14.981   2.543  94.118  1.00  0.00     0.283 C 
HETATM    4  C   UNL     1      14.650   2.523  91.733  1.00  0.00     0.283 C 
HETATM    5  C   UNL     1      16.426   2.975  93.885  1.00  0.00     0.178 C 
HETATM    6  C   UNL     1      16.102   2.954  91.556  1.00  0.00     0.178 C 
ENDROOT
BRANCH   2   7
HETATM    7  C   UNL     1      12.746   2.608  93.214  1.00  0.00     0.277 C 
BRANCH   7   8
HETATM    8  C   UNL     1      11.780   3.705  92.919  1.00  0.00     0.011 A 
HETATM    9  C   UNL     1      11.304   3.883  91.620  1.00  0.00    -0.002 A 
HETATM   10  C   UNL     1      10.402   4.911  91.343  1.00  0.00     0.008 A 
HETATM   11  C   UNL     1       9.976   5.758  92.365  1.00  0.00     0.042 A 
HETATM   12  C   UNL     1      10.451   5.581  93.663  1.00  0.00     0.008 A 
HETATM   13  C   UNL     1      11.353   4.554  93.940  1.00  0.00    -0.002 A 
BRANCH  11  14
HETATM   14  C   UNL     1       9.049   6.810  92.081  1.00  0.00    -0.059 C 
HETATM   15  C   UNL     1       8.270   7.694  91.843  1.00  0.00    -0.059 C 
BRANCH  15  16
HETATM   16  C   UNL     1       7.344   8.746  91.560  1.00  0.00     0.042 A 
HETATM   17  C   UNL     1       6.060   8.709  92.105  1.00  0.00     0.008 A 
HETATM   18  C   UNL     1       5.158   9.737  91.831  1.00  0.00     0.005 A 
HETATM   19  C   UNL     1       5.558  10.777  91.019  1.00  0.00     0.056 A 
HETATM   20  C   UNL     1       6.821  10.837  90.468  1.00  0.00     0.005 A 
HETATM   21  C   UNL     1       7.725   9.810  90.741  1.00  0.00     0.008 A 
BRANCH  19  22
HETATM   22  C   UNL     1       4.596  11.871  90.726  1.00  0.00     0.254 C 
HETATM   23  O   UNL     1       3.865  11.779  89.743  1.00  0.00    -0.268 OA
HETATM   24  N   UNL     1       4.583  12.927  91.626  1.00  0.00    -0.335 N 
HETATM   25  HN  UNL     1       5.199  12.923  92.431  1.00  0.00     0.164 HD
BRANCH  24  26
HETATM   26  C   UNL     1       3.690  14.050  91.492  1.00  0.00     0.169 C 
BRANCH  26  27
HETATM   27  C   UNL     1       3.595  14.564  90.050  1.00  0.00     0.138 C 
HETATM   28  C   UNL     1       4.927  14.482  89.312  1.00  0.00     0.034 C 
BRANCH  27  29
HETATM   29  O   UNL     1       2.622  13.803  89.335  1.00  0.00    -0.383 OA
HETATM   30  H   UNL     1       1.781  14.292  89.351  1.00  0.00     0.210 HD
ENDBRANCH  27  29
ENDBRANCH  26  27
BRANCH  26  31
HETATM   31  C   UNL     1       2.324  13.624  92.020  1.00  0.00     0.194 C 
HETATM   32  O   UNL     1       1.270  14.124  91.631  1.00  0.00    -0.289 OA
BRANCH  31  33
HETATM   33  C   UNL     1       2.422  12.659  92.993  1.00  0.00     0.053 C 
BRANCH  33  34
HETATM   34  C   UNL     1       1.645  11.509  92.792  1.00  0.00     0.220 C 
BRANCH  34  35
HETATM   35  O   UNL     1       1.907  11.067  91.657  1.00  0.00    -0.371 OA
HETATM   36  H   UNL     1       1.021  10.897  91.373  1.00  0.00     0.211 HD
ENDBRANCH  34  35
BRANCH  34  37
HETATM   37  C   UNL     1       1.813  10.538  93.794  1.00  0.00     0.185 C 
HETATM   38  O   UNL     1       2.853  11.287  94.123  1.00  0.00    -0.647 OA
BRANCH  37  39
HETATM   39  O   UNL     1       1.281   9.520  94.122  1.00  0.00    -0.774 OA
HETATM   40  H   UNL     1       0.225   9.449  93.713  1.00  0.00     0.167 HD
ENDBRANCH  37  39
ENDBRANCH  34  37
ENDBRANCH  33  34
ENDBRANCH  31  33
ENDBRANCH  26  31
ENDBRANCH  24  26
ENDBRANCH  19  22
ENDBRANCH  15  16
ENDBRANCH  11  14
ENDBRANCH   7   8
ENDBRANCH   2   7
TORSDOF 14
ENDMDL
