MODEL 1
REMARK VINA RESULT:      -7.1      0.000      0.000
REMARK  9 active torsions:
REMARK  status: ('A' for Active; 'I' for Inactive)
REMARK    1  A    between atoms: O_2  and  C_17 
REMARK    2  A    between atoms: N_5  and  C_10 
REMARK    3  A    between atoms: N_6  and  C_14 
REMARK       I    between atoms: N_6  and  C_23 
REMARK       I    between atoms: N_7  and  C_22 
REMARK    4  A    between atoms: C_10  and  C_13 
REMARK    5  A    between atoms: C_14  and  C_17 
REMARK    6  A    between atoms: C_14  and  C_22 
REMARK    7  A    between atoms: C_20  and  C_25 
REMARK    8  A    between atoms: C_23  and  C_24 
REMARK    9  A    between atoms: C_28  and  C_31 
ROOT
HETATM    1  O   UNL     1      16.821   4.358  94.123  1.00  0.00    -0.388 OA
HETATM    2  N   UNL     1      14.896   2.759  92.767  1.00  0.00     0.096 N 
HETATM    3  C   UNL     1      14.813   4.226  92.766  1.00  0.00     0.299 C 
HETATM    4  C   UNL     1      15.556   2.292  93.994  1.00  0.00     0.299 C 
HETATM    5  C   UNL     1      16.209   4.823  92.918  1.00  0.00     0.198 C 
HETATM    6  C   UNL     1      16.934   2.935  94.118  1.00  0.00     0.198 C 
ENDROOT
BRANCH   2   7
HETATM    7  C   UNL     1      13.567   2.165  92.633  1.00  0.00     0.311 C 
BRANCH   7   8
HETATM    8  C   UNL     1      12.541   3.158  92.203  1.00  0.00    -0.030 A 
HETATM    9  C   UNL     1      12.462   3.541  90.864  1.00  0.00     0.010 A 
HETATM   10  C   UNL     1      11.505   4.472  90.461  1.00  0.00     0.021 A 
HETATM   11  C   UNL     1      10.626   5.017  91.396  1.00  0.00     0.018 A 
HETATM   12  C   UNL     1      10.705   4.635  92.734  1.00  0.00     0.021 A 
HETATM   13  C   UNL     1      11.662   3.705  93.138  1.00  0.00     0.010 A 
BRANCH  11  14
HETATM   14  C   UNL     1       9.643   5.970  90.982  1.00  0.00    -0.061 C 
HETATM   15  C   UNL     1       8.817   6.772  90.634  1.00  0.00    -0.061 C 
BRANCH  15  16
HETATM   16  C   UNL     1       7.835   7.725  90.220  1.00  0.00     0.018 A 
HETATM   17  C   UNL     1       7.503   7.841  88.870  1.00  0.00     0.022 A 
HETATM   18  C   UNL     1       6.543   8.768  88.466  1.00  0.00     0.018 A 
HETATM   19  C   UNL     1       5.936   9.558  89.420  1.00  0.00     0.032 A 
HETATM   20  C   UNL     1       6.247   9.463  90.761  1.00  0.00     0.018 A 
HETATM   21  C   UNL     1       7.207   8.536  91.166  1.00  0.00     0.022 A 
BRANCH  19  22
HETATM   22  C   UNL     1       4.915  10.548  88.989  1.00  0.00     0.252 C 
HETATM   23  O   UNL     1       4.129  10.247  88.095  1.00  0.00    -0.268 OA
HETATM   24  N   UNL     1       4.916  11.758  89.669  1.00  0.00    -0.342 N 
HETATM   25  H   UNL     1       5.581  11.926  90.415  1.00  0.00     0.163 HD
BRANCH  24  26
HETATM   26  C   UNL     1       3.973  12.809  89.383  1.00  0.00     0.199 C 
BRANCH  26  27
HETATM   27  C   UNL     1       3.429  13.479  90.652  1.00  0.00     0.145 C 
HETATM   28  C   UNL     1       2.491  12.569  91.437  1.00  0.00     0.042 C 
BRANCH  27  29
HETATM   29  O   UNL     1       4.517  13.861  91.493  1.00  0.00    -0.393 OA
HETATM   30  H   UNL     1       5.257  13.253  91.330  1.00  0.00     0.210 HD
ENDBRANCH  27  29
ENDBRANCH  26  27
BRANCH  26  31
HETATM   31  C   UNL     1       4.663  13.820  88.474  1.00  0.00     0.220 C 
HETATM   32  O   UNL     1       4.952  14.959  88.837  1.00  0.00    -0.278 OA
HETATM   33  N   UNL     1       4.880  13.320  87.213  1.00  0.00    -0.271 NA
HETATM   34  H   UNL     1       4.576  12.422  86.855  1.00  0.00     0.127 HD
HETATM   35  H   UNL     1       4.231  13.662  86.016  1.00  0.00     0.127 HD
ENDBRANCH  26  31
ENDBRANCH  24  26
ENDBRANCH  19  22
ENDBRANCH  15  16
ENDBRANCH  11  14
ENDBRANCH   7   8
ENDBRANCH   2   7
TORSDOF 9
ENDMDL
