MODEL 1
REMARK VINA RESULT:      -6.4      0.000      0.000
REMARK  14 active torsions:
REMARK  status: ('A' for Active; 'I' for Inactive)
REMARK    1  A    between atoms: O_2  and  C_18 
REMARK    2  A    between atoms: C_5  and  C_8 
REMARK    3  A    between atoms: C_5  and  O_35 
REMARK    4  A    between atoms: C_5  and  C_36 
REMARK    5  A    between atoms: N_6  and  C_11 
REMARK    6  A    between atoms: N_7  and  C_15 
REMARK       I    between atoms: N_7  and  C_24 
REMARK    7  A    between atoms: C_8  and  C_23 
REMARK    8  A    between atoms: C_11  and  C_14 
REMARK    9  A    between atoms: C_15  and  C_18 
REMARK   10  A    between atoms: C_15  and  C_23 
REMARK   11  A    between atoms: C_21  and  C_26 
REMARK   12  A    between atoms: C_24  and  C_25 
REMARK   13  A    between atoms: C_29  and  C_32 
REMARK   14  A    between atoms: C_36  and  O_39 
ROOT
HETATM    1  O   UNL     1      16.632   3.308  93.658  1.00  0.00    -0.350 OA
HETATM    2  N   UNL     1      13.915   2.843  92.947  1.00  0.00     0.147 N 
HETATM    3  C   UNL     1      14.861   1.734  93.134  1.00  0.00     0.283 C 
HETATM    4  C   UNL     1      14.632   4.045  92.500  1.00  0.00     0.283 C 
HETATM    5  C   UNL     1      15.949   2.143  94.124  1.00  0.00     0.178 C 
HETATM    6  C   UNL     1      15.725   4.400  93.503  1.00  0.00     0.178 C 
ENDROOT
BRANCH   2   7
HETATM    7  C   UNL     1      12.869   2.476  91.994  1.00  0.00     0.277 C 
BRANCH   7   8
HETATM    8  C   UNL     1      11.721   3.426  92.018  1.00  0.00     0.011 A 
HETATM    9  C   UNL     1      10.910   3.567  90.891  1.00  0.00    -0.002 A 
HETATM   10  C   UNL     1       9.836   4.457  90.911  1.00  0.00     0.008 A 
HETATM   11  C   UNL     1       9.573   5.205  92.059  1.00  0.00     0.042 A 
HETATM   12  C   UNL     1      10.383   5.065  93.184  1.00  0.00     0.008 A 
HETATM   13  C   UNL     1      11.457   4.176  93.164  1.00  0.00    -0.002 A 
BRANCH  11  14
HETATM   14  C   UNL     1       8.471   6.116  92.080  1.00  0.00    -0.059 C 
HETATM   15  C   UNL     1       7.545   6.883  92.097  1.00  0.00    -0.059 C 
BRANCH  15  16
HETATM   16  C   UNL     1       6.443   7.794  92.118  1.00  0.00     0.042 A 
HETATM   17  C   UNL     1       6.643   9.121  92.501  1.00  0.00     0.008 A 
HETATM   18  C   UNL     1       5.569  10.010  92.518  1.00  0.00     0.005 A 
HETATM   19  C   UNL     1       4.320   9.554  92.151  1.00  0.00     0.056 A 
HETATM   20  C   UNL     1       4.096   8.248  91.769  1.00  0.00     0.005 A 
HETATM   21  C   UNL     1       5.170   7.357  91.752  1.00  0.00     0.008 A 
BRANCH  19  22
HETATM   22  C   UNL     1       3.175  10.501  92.172  1.00  0.00     0.254 C 
HETATM   23  O   UNL     1       2.064  10.091  92.496  1.00  0.00    -0.268 OA
HETATM   24  N   UNL     1       3.468  11.815  91.836  1.00  0.00    -0.335 N 
HETATM   25  HN  UNL     1       4.416  12.086  91.603  1.00  0.00     0.164 HD
BRANCH  24  26
HETATM   26  C   UNL     1       2.471  12.856  91.833  1.00  0.00     0.169 C 
BRANCH  26  27
HETATM   27  C   UNL     1       2.418  13.631  93.156  1.00  0.00     0.138 C 
HETATM   28  C   UNL     1       3.805  13.924  93.716  1.00  0.00     0.034 C 
BRANCH  27  29
HETATM   29  O   UNL     1       1.727  14.864  92.958  1.00  0.00    -0.383 OA
HETATM   30  H   UNL     1       2.386  15.577  92.901  1.00  0.00     0.210 HD
ENDBRANCH  27  29
ENDBRANCH  26  27
BRANCH  26  31
HETATM   31  C   UNL     1       2.768  13.782  90.659  1.00  0.00     0.194 C 
HETATM   32  O   UNL     1       1.888  14.363  90.025  1.00  0.00    -0.289 OA
BRANCH  31  33
HETATM   33  C   UNL     1       4.111  13.853  90.380  1.00  0.00     0.053 C 
BRANCH  33  34
HETATM   34  C   UNL     1       4.445  14.075  89.036  1.00  0.00     0.220 C 
BRANCH  34  35
HETATM   35  O   UNL     1       5.388  14.887  89.008  1.00  0.00    -0.371 OA
HETATM   36  H   UNL     1       6.099  14.269  89.084  1.00  0.00     0.211 HD
ENDBRANCH  34  35
BRANCH  34  37
HETATM   37  C   UNL     1       4.735  12.895  88.330  1.00  0.00     0.185 C 
HETATM   38  O   UNL     1       5.807  12.883  89.107  1.00  0.00    -0.647 OA
BRANCH  37  39
HETATM   39  O   UNL     1       4.249  12.269  87.436  1.00  0.00    -0.774 OA
HETATM   40  H   UNL     1       4.217  11.160  87.671  1.00  0.00     0.167 HD
ENDBRANCH  37  39
ENDBRANCH  34  37
ENDBRANCH  33  34
ENDBRANCH  31  33
ENDBRANCH  26  31
ENDBRANCH  24  26
ENDBRANCH  19  22
ENDBRANCH  15  16
ENDBRANCH  11  14
ENDBRANCH   7   8
ENDBRANCH   2   7
TORSDOF 14
ENDMDL
MODEL 2
REMARK VINA RESULT:      -6.2      1.389      2.007
REMARK  14 active torsions:
REMARK  status: ('A' for Active; 'I' for Inactive)
REMARK    1  A    between atoms: O_2  and  C_18 
REMARK    2  A    between atoms: C_5  and  C_8 
REMARK    3  A    between atoms: C_5  and  O_35 
REMARK    4  A    between atoms: C_5  and  C_36 
REMARK    5  A    between atoms: N_6  and  C_11 
REMARK    6  A    between atoms: N_7  and  C_15 
REMARK       I    between atoms: N_7  and  C_24 
REMARK    7  A    between atoms: C_8  and  C_23 
REMARK    8  A    between atoms: C_11  and  C_14 
REMARK    9  A    between atoms: C_15  and  C_18 
REMARK   10  A    between atoms: C_15  and  C_23 
REMARK   11  A    between atoms: C_21  and  C_26 
REMARK   12  A    between atoms: C_24  and  C_25 
REMARK   13  A    between atoms: C_29  and  C_32 
REMARK   14  A    between atoms: C_36  and  O_39 
ROOT
HETATM    1  O   UNL     1      16.842   4.476  94.124  1.00  0.00    -0.350 OA
HETATM    2  N   UNL     1      14.848   2.967  92.764  1.00  0.00     0.147 N 
HETATM    3  C   UNL     1      14.796   4.435  92.820  1.00  0.00     0.283 C 
HETATM    4  C   UNL     1      15.531   2.442  93.954  1.00  0.00     0.283 C 
HETATM    5  C   UNL     1      16.208   4.998  92.954  1.00  0.00     0.178 C 
HETATM    6  C   UNL     1      16.925   3.052  94.063  1.00  0.00     0.178 C 
ENDROOT
BRANCH   2   7
HETATM    7  C   UNL     1      13.504   2.405  92.646  1.00  0.00     0.277 C 
BRANCH   7   8
HETATM    8  C   UNL     1      12.446   3.455  92.659  1.00  0.00     0.011 A 
HETATM    9  C   UNL     1      12.136   4.116  93.848  1.00  0.00    -0.002 A 
HETATM   10  C   UNL     1      11.144   5.097  93.862  1.00  0.00     0.008 A 
HETATM   11  C   UNL     1      10.466   5.419  92.687  1.00  0.00     0.042 A 
HETATM   12  C   UNL     1      10.776   4.760  91.499  1.00  0.00     0.008 A 
HETATM   13  C   UNL     1      11.766   3.778  91.485  1.00  0.00    -0.002 A 
BRANCH  11  14
HETATM   14  C   UNL     1       9.451   6.427  92.701  1.00  0.00    -0.059 C 
HETATM   15  C   UNL     1       8.598   7.274  92.713  1.00  0.00    -0.059 C 
BRANCH  15  16
HETATM   16  C   UNL     1       7.583   8.280  92.726  1.00  0.00     0.042 A 
HETATM   17  C   UNL     1       7.294   8.962  93.909  1.00  0.00     0.008 A 
HETATM   18  C   UNL     1       6.305   9.946  93.921  1.00  0.00     0.005 A 
HETATM   19  C   UNL     1       5.629  10.227  92.753  1.00  0.00     0.056 A 
HETATM   20  C   UNL     1       5.895   9.567  91.571  1.00  0.00     0.005 A 
HETATM   21  C   UNL     1       6.884   8.582  91.558  1.00  0.00     0.008 A 
BRANCH  19  22
HETATM   22  C   UNL     1       4.575  11.274  92.767  1.00  0.00     0.254 C 
HETATM   23  O   UNL     1       3.712  11.244  93.641  1.00  0.00    -0.268 OA
HETATM   24  N   UNL     1       4.667  12.243  91.778  1.00  0.00    -0.335 N 
HETATM   25  HN  UNL     1       5.423  12.217  91.104  1.00  0.00     0.164 HD
BRANCH  24  26
HETATM   26  C   UNL     1       3.734  13.336  91.674  1.00  0.00     0.169 C 
BRANCH  26  27
HETATM   27  C   UNL     1       4.290  14.647  92.246  1.00  0.00     0.138 C 
HETATM   28  C   UNL     1       4.807  15.585  91.161  1.00  0.00     0.034 C 
BRANCH  27  29
HETATM   29  O   UNL     1       3.270  15.314  92.989  1.00  0.00    -0.383 OA
HETATM   30  H   UNL     1       2.506  14.718  93.060  1.00  0.00     0.210 HD
ENDBRANCH  27  29
ENDBRANCH  26  27
BRANCH  26  31
HETATM   31  C   UNL     1       3.356  13.489  90.205  1.00  0.00     0.194 C 
HETATM   32  O   UNL     1       2.327  14.049  89.833  1.00  0.00    -0.289 OA
BRANCH  31  33
HETATM   33  C   UNL     1       4.273  12.899  89.369  1.00  0.00     0.053 C 
BRANCH  33  34
HETATM   34  C   UNL     1       3.753  12.321  88.202  1.00  0.00     0.220 C 
BRANCH  34  35
HETATM   35  O   UNL     1       4.521  12.602  87.263  1.00  0.00    -0.371 OA
HETATM   36  H   UNL     1       3.877  12.643  86.573  1.00  0.00     0.211 HD
ENDBRANCH  34  35
BRANCH  34  37
HETATM   37  C   UNL     1       3.529  10.938  88.314  1.00  0.00     0.185 C 
HETATM   38  O   UNL     1       4.789  10.929  88.722  1.00  0.00    -0.647 OA
BRANCH  37  39
HETATM   39  O   UNL     1       2.637  10.176  88.091  1.00  0.00    -0.774 OA
HETATM   40  H   UNL     1       3.025   9.149  87.807  1.00  0.00     0.167 HD
ENDBRANCH  37  39
ENDBRANCH  34  37
ENDBRANCH  33  34
ENDBRANCH  31  33
ENDBRANCH  26  31
ENDBRANCH  24  26
ENDBRANCH  19  22
ENDBRANCH  15  16
ENDBRANCH  11  14
ENDBRANCH   7   8
ENDBRANCH   2   7
TORSDOF 14
ENDMDL
MODEL 3
REMARK VINA RESULT:      -5.6      2.698     13.063
REMARK  14 active torsions:
REMARK  status: ('A' for Active; 'I' for Inactive)
REMARK    1  A    between atoms: O_2  and  C_18 
REMARK    2  A    between atoms: C_5  and  C_8 
REMARK    3  A    between atoms: C_5  and  O_35 
REMARK    4  A    between atoms: C_5  and  C_36 
REMARK    5  A    between atoms: N_6  and  C_11 
REMARK    6  A    between atoms: N_7  and  C_15 
REMARK       I    between atoms: N_7  and  C_24 
REMARK    7  A    between atoms: C_8  and  C_23 
REMARK    8  A    between atoms: C_11  and  C_14 
REMARK    9  A    between atoms: C_15  and  C_18 
REMARK   10  A    between atoms: C_15  and  C_23 
REMARK   11  A    between atoms: C_21  and  C_26 
REMARK   12  A    between atoms: C_24  and  C_25 
REMARK   13  A    between atoms: C_29  and  C_32 
REMARK   14  A    between atoms: C_36  and  O_39 
ROOT
HETATM    1  O   UNL     1       2.914  14.857  93.896  1.00  0.00    -0.350 OA
HETATM    2  N   UNL     1       2.701  14.734  91.060  1.00  0.00     0.147 N 
HETATM    3  C   UNL     1       1.740  14.046  91.933  1.00  0.00     0.283 C 
HETATM    4  C   UNL     1       4.005  14.836  91.730  1.00  0.00     0.283 C 
HETATM    5  C   UNL     1       1.634  14.782  93.266  1.00  0.00     0.178 C 
HETATM    6  C   UNL     1       3.847  15.552  93.067  1.00  0.00     0.178 C 
ENDROOT
BRANCH   2   7
HETATM    7  C   UNL     1       2.827  14.039  89.780  1.00  0.00     0.277 C 
BRANCH   7   8
HETATM    8  C   UNL     1       3.803  12.914  89.838  1.00  0.00     0.011 A 
HETATM    9  C   UNL     1       5.056  13.047  89.238  1.00  0.00    -0.002 A 
HETATM   10  C   UNL     1       5.969  11.994  89.289  1.00  0.00     0.008 A 
HETATM   11  C   UNL     1       5.630  10.810  89.942  1.00  0.00     0.042 A 
HETATM   12  C   UNL     1       4.379  10.676  90.542  1.00  0.00     0.008 A 
HETATM   13  C   UNL     1       3.465  11.728  90.490  1.00  0.00    -0.002 A 
BRANCH  11  14
HETATM   14  C   UNL     1       6.568   9.730  89.997  1.00  0.00    -0.059 C 
HETATM   15  C   UNL     1       7.356   8.824  90.044  1.00  0.00    -0.059 C 
BRANCH  15  16
HETATM   16  C   UNL     1       8.292   7.745  90.099  1.00  0.00     0.042 A 
HETATM   17  C   UNL     1       8.100   6.701  91.004  1.00  0.00     0.008 A 
HETATM   18  C   UNL     1       9.012   5.647  91.056  1.00  0.00     0.005 A 
HETATM   19  C   UNL     1      10.095   5.660  90.201  1.00  0.00     0.056 A 
HETATM   20  C   UNL     1      10.307   6.680  89.298  1.00  0.00     0.005 A 
HETATM   21  C   UNL     1       9.396   7.735  89.246  1.00  0.00     0.008 A 
BRANCH  19  22
HETATM   22  C   UNL     1      11.067   4.538  90.258  1.00  0.00     0.254 C 
HETATM   23  O   UNL     1      11.061   3.693  89.366  1.00  0.00    -0.268 OA
HETATM   24  N   UNL     1      11.946   4.549  91.333  1.00  0.00    -0.335 N 
HETATM   25  HN  UNL     1      11.908   5.294  92.018  1.00  0.00     0.164 HD
BRANCH  24  26
HETATM   26  C   UNL     1      12.962   3.543  91.514  1.00  0.00     0.169 C 
BRANCH  26  27
HETATM   27  C   UNL     1      14.347   4.008  91.046  1.00  0.00     0.138 C 
HETATM   28  C   UNL     1      15.130   2.900  90.350  1.00  0.00     0.034 C 
BRANCH  27  29
HETATM   29  O   UNL     1      14.203   5.108  90.148  1.00  0.00    -0.383 OA
HETATM   30  H   UNL     1      13.279   5.137  89.847  1.00  0.00     0.210 HD
ENDBRANCH  27  29
ENDBRANCH  26  27
BRANCH  26  31
HETATM   31  C   UNL     1      12.976   3.156  92.989  1.00  0.00     0.194 C 
HETATM   32  O   UNL     1      12.111   2.450  93.504  1.00  0.00    -0.289 OA
BRANCH  31  33
HETATM   33  C   UNL     1      14.034   3.716  93.662  1.00  0.00     0.053 C 
BRANCH  33  34
HETATM   34  C   UNL     1      15.008   2.819  94.124  1.00  0.00     0.220 C 
BRANCH  34  35
HETATM   35  O   UNL     1      14.870   1.752  93.496  1.00  0.00    -0.371 OA
HETATM   36  H   UNL     1      14.963   1.156  94.224  1.00  0.00     0.211 HD
ENDBRANCH  34  35
BRANCH  34  37
HETATM   37  C   UNL     1      16.317   3.322  94.041  1.00  0.00     0.185 C 
HETATM   38  O   UNL     1      15.692   4.478  93.879  1.00  0.00    -0.647 OA
BRANCH  37  39
HETATM   39  O   UNL     1      17.427   2.879  94.062  1.00  0.00    -0.774 OA
HETATM   40  H   UNL     1      17.981   3.096  93.096  1.00  0.00     0.167 HD
ENDBRANCH  37  39
ENDBRANCH  34  37
ENDBRANCH  33  34
ENDBRANCH  31  33
ENDBRANCH  26  31
ENDBRANCH  24  26
ENDBRANCH  19  22
ENDBRANCH  15  16
ENDBRANCH  11  14
ENDBRANCH   7   8
ENDBRANCH   2   7
TORSDOF 14
ENDMDL
MODEL 4
REMARK VINA RESULT:      -5.2      1.449      3.213
REMARK  14 active torsions:
REMARK  status: ('A' for Active; 'I' for Inactive)
REMARK    1  A    between atoms: O_2  and  C_18 
REMARK    2  A    between atoms: C_5  and  C_8 
REMARK    3  A    between atoms: C_5  and  O_35 
REMARK    4  A    between atoms: C_5  and  C_36 
REMARK    5  A    between atoms: N_6  and  C_11 
REMARK    6  A    between atoms: N_7  and  C_15 
REMARK       I    between atoms: N_7  and  C_24 
REMARK    7  A    between atoms: C_8  and  C_23 
REMARK    8  A    between atoms: C_11  and  C_14 
REMARK    9  A    between atoms: C_15  and  C_18 
REMARK   10  A    between atoms: C_15  and  C_23 
REMARK   11  A    between atoms: C_21  and  C_26 
REMARK   12  A    between atoms: C_24  and  C_25 
REMARK   13  A    between atoms: C_29  and  C_32 
REMARK   14  A    between atoms: C_36  and  O_39 
ROOT
HETATM    1  O   UNL     1      16.169   3.944  94.124  1.00  0.00    -0.350 OA
HETATM    2  N   UNL     1      14.311   2.536  92.491  1.00  0.00     0.147 N 
HETATM    3  C   UNL     1      14.357   4.004  92.511  1.00  0.00     0.283 C 
HETATM    4  C   UNL     1      14.758   2.001  93.785  1.00  0.00     0.283 C 
HETATM    5  C   UNL     1      15.767   4.473  92.859  1.00  0.00     0.178 C 
HETATM    6  C   UNL     1      16.157   2.516  94.103  1.00  0.00     0.178 C 
ENDROOT
BRANCH   2   7
HETATM    7  C   UNL     1      12.965   2.064  92.170  1.00  0.00     0.277 C 
BRANCH   7   8
HETATM    8  C   UNL     1      12.003   3.185  91.970  1.00  0.00     0.011 A 
HETATM    9  C   UNL     1      11.471   3.851  93.074  1.00  0.00    -0.002 A 
HETATM   10  C   UNL     1      10.569   4.899  92.888  1.00  0.00     0.008 A 
HETATM   11  C   UNL     1      10.201   5.280  91.598  1.00  0.00     0.042 A 
HETATM   12  C   UNL     1      10.733   4.616  90.495  1.00  0.00     0.008 A 
HETATM   13  C   UNL     1      11.634   3.568  90.680  1.00  0.00    -0.002 A 
BRANCH  11  14
HETATM   14  C   UNL     1       9.278   6.356  91.407  1.00  0.00    -0.059 C 
HETATM   15  C   UNL     1       8.502   7.261  91.248  1.00  0.00    -0.059 C 
BRANCH  15  16
HETATM   16  C   UNL     1       7.580   8.337  91.057  1.00  0.00     0.042 A 
HETATM   17  C   UNL     1       6.650   8.281  90.019  1.00  0.00     0.008 A 
HETATM   18  C   UNL     1       5.748   9.330  89.835  1.00  0.00     0.005 A 
HETATM   19  C   UNL     1       5.797  10.409  90.693  1.00  0.00     0.056 A 
HETATM   20  C   UNL     1       6.707  10.487  91.726  1.00  0.00     0.005 A 
HETATM   21  C   UNL     1       7.609   9.440  91.911  1.00  0.00     0.008 A 
BRANCH  19  22
HETATM   22  C   UNL     1       4.837  11.526  90.495  1.00  0.00     0.254 C 
HETATM   23  O   UNL     1       3.976  11.430  89.624  1.00  0.00    -0.268 OA
HETATM   24  N   UNL     1       4.981  12.609  91.351  1.00  0.00    -0.335 N 
HETATM   25  HN  UNL     1       5.701  12.608  92.064  1.00  0.00     0.164 HD
BRANCH  24  26
HETATM   26  C   UNL     1       4.113  13.758  91.300  1.00  0.00     0.169 C 
BRANCH  26  27
HETATM   27  C   UNL     1       3.968  14.331  89.884  1.00  0.00     0.138 C 
HETATM   28  C   UNL     1       5.215  14.111  89.035  1.00  0.00     0.034 C 
BRANCH  27  29
HETATM   29  O   UNL     1       2.852  13.721  89.235  1.00  0.00    -0.383 OA
HETATM   30  H   UNL     1       2.295  14.425  88.862  1.00  0.00     0.210 HD
ENDBRANCH  27  29
ENDBRANCH  26  27
BRANCH  26  31
HETATM   31  C   UNL     1       2.761  13.346  91.873  1.00  0.00     0.194 C 
HETATM   32  O   UNL     1       1.699  13.845  91.507  1.00  0.00    -0.289 OA
BRANCH  31  33
HETATM   33  C   UNL     1       2.882  12.395  92.857  1.00  0.00     0.053 C 
BRANCH  33  34
HETATM   34  C   UNL     1       2.051  11.273  92.726  1.00  0.00     0.220 C 
BRANCH  34  35
HETATM   35  O   UNL     1       1.862  11.079  91.511  1.00  0.00    -0.371 OA
HETATM   36  H   UNL     1       1.605  10.171  91.560  1.00  0.00     0.211 HD
ENDBRANCH  34  35
BRANCH  34  37
HETATM   37  C   UNL     1       2.545  10.131  93.379  1.00  0.00     0.185 C 
HETATM   38  O   UNL     1       3.538  10.944  93.706  1.00  0.00    -0.647 OA
BRANCH  37  39
HETATM   39  O   UNL     1       2.221   8.989  93.508  1.00  0.00    -0.774 OA
HETATM   40  H   UNL     1       1.246   8.893  94.080  1.00  0.00     0.167 HD
ENDBRANCH  37  39
ENDBRANCH  34  37
ENDBRANCH  33  34
ENDBRANCH  31  33
ENDBRANCH  26  31
ENDBRANCH  24  26
ENDBRANCH  19  22
ENDBRANCH  15  16
ENDBRANCH  11  14
ENDBRANCH   7   8
ENDBRANCH   2   7
TORSDOF 14
ENDMDL
MODEL 5
REMARK VINA RESULT:      -4.8      3.059     12.443
REMARK  14 active torsions:
REMARK  status: ('A' for Active; 'I' for Inactive)
REMARK    1  A    between atoms: O_2  and  C_18 
REMARK    2  A    between atoms: C_5  and  C_8 
REMARK    3  A    between atoms: C_5  and  O_35 
REMARK    4  A    between atoms: C_5  and  C_36 
REMARK    5  A    between atoms: N_6  and  C_11 
REMARK    6  A    between atoms: N_7  and  C_15 
REMARK       I    between atoms: N_7  and  C_24 
REMARK    7  A    between atoms: C_8  and  C_23 
REMARK    8  A    between atoms: C_11  and  C_14 
REMARK    9  A    between atoms: C_15  and  C_18 
REMARK   10  A    between atoms: C_15  and  C_23 
REMARK   11  A    between atoms: C_21  and  C_26 
REMARK   12  A    between atoms: C_24  and  C_25 
REMARK   13  A    between atoms: C_29  and  C_32 
REMARK   14  A    between atoms: C_36  and  O_39 
ROOT
HETATM    1  O   UNL     1       3.077  14.759  94.116  1.00  0.00    -0.350 OA
HETATM    2  N   UNL     1       2.687  14.767  91.296  1.00  0.00     0.147 N 
HETATM    3  C   UNL     1       1.729  14.118  92.202  1.00  0.00     0.283 C 
HETATM    4  C   UNL     1       4.032  14.745  91.886  1.00  0.00     0.283 C 
HETATM    5  C   UNL     1       1.759  14.805  93.565  1.00  0.00     0.178 C 
HETATM    6  C   UNL     1       4.009  15.416  93.256  1.00  0.00     0.178 C 
ENDROOT
BRANCH   2   7
HETATM    7  C   UNL     1       2.683  14.118  89.986  1.00  0.00     0.277 C 
BRANCH   7   8
HETATM    8  C   UNL     1       3.662  12.997  89.905  1.00  0.00     0.011 A 
HETATM    9  C   UNL     1       4.916  13.209  89.330  1.00  0.00    -0.002 A 
HETATM   10  C   UNL     1       5.833  12.160  89.251  1.00  0.00     0.008 A 
HETATM   11  C   UNL     1       5.495  10.902  89.749  1.00  0.00     0.042 A 
HETATM   12  C   UNL     1       4.244  10.690  90.323  1.00  0.00     0.008 A 
HETATM   13  C   UNL     1       3.326  11.738  90.401  1.00  0.00    -0.002 A 
BRANCH  11  14
HETATM   14  C   UNL     1       6.436   9.827  89.670  1.00  0.00    -0.059 C 
HETATM   15  C   UNL     1       7.227   8.924  89.604  1.00  0.00    -0.059 C 
BRANCH  15  16
HETATM   16  C   UNL     1       8.167   7.849  89.526  1.00  0.00     0.042 A 
HETATM   17  C   UNL     1       7.729   6.531  89.649  1.00  0.00     0.008 A 
HETATM   18  C   UNL     1       8.646   5.482  89.570  1.00  0.00     0.005 A 
HETATM   19  C   UNL     1       9.978   5.776  89.369  1.00  0.00     0.056 A 
HETATM   20  C   UNL     1      10.436   7.070  89.245  1.00  0.00     0.005 A 
HETATM   21  C   UNL     1       9.520   8.120  89.324  1.00  0.00     0.008 A 
BRANCH  19  22
HETATM   22  C   UNL     1      10.954   4.659  89.287  1.00  0.00     0.254 C 
HETATM   23  O   UNL     1      11.047   4.019  88.242  1.00  0.00    -0.268 OA
HETATM   24  N   UNL     1      11.722   4.437  90.422  1.00  0.00    -0.335 N 
HETATM   25  HN  UNL     1      11.608   5.023  91.240  1.00  0.00     0.164 HD
BRANCH  24  26
HETATM   26  C   UNL     1      12.728   3.408  90.489  1.00  0.00     0.169 C 
BRANCH  26  27
HETATM   27  C   UNL     1      14.155   3.969  90.443  1.00  0.00     0.138 C 
HETATM   28  C   UNL     1      14.534   4.707  91.722  1.00  0.00     0.034 C 
BRANCH  27  29
HETATM   29  O   UNL     1      15.080   2.902  90.232  1.00  0.00    -0.383 OA
HETATM   30  H   UNL     1      14.613   2.061  90.371  1.00  0.00     0.210 HD
ENDBRANCH  27  29
ENDBRANCH  26  27
BRANCH  26  31
HETATM   31  C   UNL     1      12.489   2.605  91.763  1.00  0.00     0.194 C 
HETATM   32  O   UNL     1      13.328   1.847  92.245  1.00  0.00    -0.289 OA
BRANCH  31  33
HETATM   33  C   UNL     1      11.228   2.802  92.271  1.00  0.00     0.053 C 
BRANCH  33  34
HETATM   34  C   UNL     1      11.128   3.739  93.310  1.00  0.00     0.220 C 
BRANCH  34  35
HETATM   35  O   UNL     1      12.273   3.930  93.761  1.00  0.00    -0.371 OA
HETATM   36  H   UNL     1      12.216   4.867  93.876  1.00  0.00     0.211 HD
ENDBRANCH  34  35
BRANCH  34  37
HETATM   37  C   UNL     1      10.499   4.936  92.926  1.00  0.00     0.185 C 
HETATM   38  O   UNL     1       9.513   4.121  92.585  1.00  0.00    -0.647 OA
BRANCH  37  39
HETATM   39  O   UNL     1      10.776   6.097  92.894  1.00  0.00    -0.774 OA
HETATM   40  H   UNL     1      11.879   6.270  93.093  1.00  0.00     0.167 HD
ENDBRANCH  37  39
ENDBRANCH  34  37
ENDBRANCH  33  34
ENDBRANCH  31  33
ENDBRANCH  26  31
ENDBRANCH  24  26
ENDBRANCH  19  22
ENDBRANCH  15  16
ENDBRANCH  11  14
ENDBRANCH   7   8
ENDBRANCH   2   7
TORSDOF 14
ENDMDL
