MODEL 1
REMARK VINA RESULT:      -7.0      0.000      0.000
REMARK  10 active torsions:
REMARK  status: ('A' for Active; 'I' for Inactive)
REMARK    1  A    between atoms: O_2  and  C_16 
REMARK    2  A    between atoms: N_5  and  C_9 
REMARK    3  A    between atoms: N_6  and  C_13 
REMARK       I    between atoms: N_6  and  C_22 
REMARK    4  A    between atoms: C_9  and  C_12 
REMARK    5  A    between atoms: C_13  and  C_16 
REMARK    6  A    between atoms: C_13  and  C_21 
REMARK    7  A    between atoms: C_19  and  C_24 
REMARK    8  A    between atoms: C_22  and  C_23 
REMARK    9  A    between atoms: C_27  and  C_30 
REMARK   10  A    between atoms: N_33  and  S_34 
ROOT
HETATM    1  C   UNL     1       5.833  11.100  89.543  1.00  0.00     0.056 A 
HETATM    2  C   UNL     1       7.197  11.288  89.453  1.00  0.00     0.005 A 
HETATM    3  C   UNL     1       5.280   9.891  89.911  1.00  0.00     0.005 A 
HETATM    4  C   UNL     1       7.511   8.987  90.117  1.00  0.00     0.042 A 
HETATM    5  C   UNL     1       8.046  10.220  89.743  1.00  0.00     0.008 A 
HETATM    6  C   UNL     1       6.128   8.822  90.201  1.00  0.00     0.008 A 
ENDROOT
BRANCH   1   7
HETATM    7  C   UNL     1       4.929  12.238  89.236  1.00  0.00     0.254 C 
HETATM    8  O   UNL     1       4.710  12.530  88.063  1.00  0.00    -0.268 OA
HETATM    9  N   UNL     1       4.371  12.883  90.331  1.00  0.00    -0.337 N 
HETATM   10  HN  UNL     1       4.579  12.570  91.272  1.00  0.00     0.164 HD
BRANCH   9  11
HETATM   11  C   UNL     1       3.456  13.989  90.196  1.00  0.00     0.172 C 
BRANCH  11  12
HETATM   12  C   UNL     1       2.078  13.696  90.803  1.00  0.00     0.136 C 
HETATM   13  C   UNL     1       2.110  12.538  91.793  1.00  0.00     0.034 C 
BRANCH  12  14
HETATM   14  O   UNL     1       1.593  14.862  91.469  1.00  0.00    -0.383 OA
HETATM   15  H   UNL     1       2.327  15.255  91.969  1.00  0.00     0.210 HD
ENDBRANCH  12  14
ENDBRANCH  11  12
BRANCH  11  16
HETATM   16  C   UNL     1       4.101  15.208  90.847  1.00  0.00     0.398 A 
HETATM   17  O   UNL     1       5.252  15.566  90.605  1.00  0.00    -0.136 OA
HETATM   18  N   UNL     1       4.984  15.625  92.100  1.00  0.00     0.142 N 
HETATM   19  HN  UNL     1       5.905  15.962  92.107  1.00  0.00     0.338 HD
BRANCH  18  20
HETATM   20  S   UNL     1       4.162  15.126  93.104  1.00  0.00     0.076 SA
HETATM   21  H   UNL     1       3.637  15.927  93.808  1.00  0.00     0.136 HD
ENDBRANCH  18  20
ENDBRANCH  11  16
ENDBRANCH   9  11
ENDBRANCH   1   7
BRANCH   4  22
HETATM   22  C   UNL     1       8.381   7.892  90.412  1.00  0.00    -0.059 C 
HETATM   23  C   UNL     1       9.113   6.971  90.660  1.00  0.00    -0.059 C 
BRANCH  23  24
HETATM   24  C   UNL     1       9.983   5.874  90.955  1.00  0.00     0.042 A 
HETATM   25  C   UNL     1      10.125   5.433  92.271  1.00  0.00     0.008 A 
HETATM   26  C   UNL     1      10.975   4.366  92.559  1.00  0.00    -0.002 A 
HETATM   27  C   UNL     1      11.681   3.739  91.532  1.00  0.00     0.011 A 
HETATM   28  C   UNL     1      11.538   4.181  90.217  1.00  0.00    -0.002 A 
HETATM   29  C   UNL     1      10.688   5.249  89.929  1.00  0.00     0.008 A 
BRANCH  27  30
HETATM   30  C   UNL     1      12.588   2.596  91.841  1.00  0.00     0.277 C 
BRANCH  30  31
HETATM   31  N   UNL     1      13.615   2.950  92.819  1.00  0.00     0.147 N 
HETATM   32  C   UNL     1      14.476   1.795  93.110  1.00  0.00     0.283 C 
HETATM   33  C   UNL     1      15.546   2.190  94.124  1.00  0.00     0.178 C 
HETATM   34  O   UNL     1      16.325   3.279  93.625  1.00  0.00    -0.350 OA
HETATM   35  C   UNL     1      15.501   4.416  93.369  1.00  0.00     0.178 C 
HETATM   36  C   UNL     1      14.429   4.075  92.338  1.00  0.00     0.283 C 
ENDBRANCH  30  31
ENDBRANCH  27  30
ENDBRANCH  23  24
ENDBRANCH   4  22
TORSDOF 10
ENDMDL
