MODEL 1
REMARK VINA RESULT:      -6.4      0.000      0.000
REMARK  12 active torsions:
REMARK  status: ('A' for Active; 'I' for Inactive)
REMARK    1  A    between atoms: O_2  and  C_16 
REMARK    2  A    between atoms: N_5  and  C_9 
REMARK    3  A    between atoms: N_6  and  C_13 
REMARK       I    between atoms: N_6  and  C_22 
REMARK    4  A    between atoms: C_9  and  C_12 
REMARK    5  A    between atoms: C_13  and  C_16 
REMARK    6  A    between atoms: C_13  and  C_21 
REMARK    7  A    between atoms: C_19  and  C_24 
REMARK    8  A    between atoms: C_21  and  C_33 
REMARK    9  A    between atoms: C_22  and  C_23 
REMARK   10  A    between atoms: C_27  and  C_30 
REMARK   11  A    between atoms: C_33  and  C_34 
REMARK   12  A    between atoms: C_34  and  C_35 
ROOT
HETATM    1  O   UNL     1      17.485   4.735  93.770  1.00  0.00    -0.350 OA
HETATM    2  N   UNL     1      15.372   2.829  93.739  1.00  0.00     0.147 N 
HETATM    3  C   UNL     1      16.752   2.452  93.401  1.00  0.00     0.283 C 
HETATM    4  C   UNL     1      15.139   4.240  93.402  1.00  0.00     0.283 C 
HETATM    5  C   UNL     1      17.731   3.373  94.124  1.00  0.00     0.178 C 
HETATM    6  C   UNL     1      16.156   5.119  94.124  1.00  0.00     0.178 C 
ENDROOT
BRANCH   2   7
HETATM    7  C   UNL     1      14.416   1.965  93.048  1.00  0.00     0.277 C 
BRANCH   7   8
HETATM    8  C   UNL     1      13.323   2.738  92.393  1.00  0.00     0.011 A 
HETATM    9  C   UNL     1      12.113   2.935  93.060  1.00  0.00    -0.002 A 
HETATM   10  C   UNL     1      11.088   3.656  92.447  1.00  0.00     0.008 A 
HETATM   11  C   UNL     1      11.275   4.182  91.169  1.00  0.00     0.042 A 
HETATM   12  C   UNL     1      12.483   3.986  90.503  1.00  0.00     0.008 A 
HETATM   13  C   UNL     1      13.507   3.264  91.115  1.00  0.00    -0.002 A 
BRANCH  11  14
HETATM   14  C   UNL     1      10.225   4.923  90.541  1.00  0.00    -0.059 C 
HETATM   15  C   UNL     1       9.342   5.546  90.014  1.00  0.00    -0.059 C 
BRANCH  15  16
HETATM   16  C   UNL     1       8.292   6.287  89.388  1.00  0.00     0.042 A 
HETATM   17  C   UNL     1       6.963   6.040  89.734  1.00  0.00     0.008 A 
HETATM   18  C   UNL     1       5.939   6.765  89.124  1.00  0.00     0.005 A 
HETATM   19  C   UNL     1       6.266   7.721  88.185  1.00  0.00     0.056 A 
HETATM   20  C   UNL     1       7.571   7.983  87.826  1.00  0.00     0.005 A 
HETATM   21  C   UNL     1       8.596   7.258  88.434  1.00  0.00     0.008 A 
BRANCH  19  22
HETATM   22  C   UNL     1       5.175   8.491  87.535  1.00  0.00     0.254 C 
HETATM   23  O   UNL     1       5.016   8.398  86.320  1.00  0.00    -0.268 OA
HETATM   24  N   UNL     1       4.384   9.258  88.380  1.00  0.00    -0.335 N 
HETATM   25  HN  UNL     1       4.559   9.266  89.378  1.00  0.00     0.164 HD
BRANCH  24  26
HETATM   26  C   UNL     1       3.273  10.041  87.904  1.00  0.00     0.166 C 
BRANCH  26  27
HETATM   27  C   UNL     1       1.915   9.406  88.232  1.00  0.00     0.138 C 
HETATM   28  C   UNL     1       1.666   8.123  87.447  1.00  0.00     0.034 C 
BRANCH  27  29
HETATM   29  O   UNL     1       1.849   9.115  89.628  1.00  0.00    -0.383 OA
HETATM   30  H   UNL     1       2.422   9.745  90.098  1.00  0.00     0.210 HD
ENDBRANCH  27  29
ENDBRANCH  26  27
BRANCH  26  31
HETATM   31  C   UNL     1       3.393  11.436  88.509  1.00  0.00     0.181 C 
HETATM   32  O   UNL     1       2.642  11.851  89.390  1.00  0.00    -0.294 OA
BRANCH  31  33
HETATM   33  C   UNL     1       4.901  11.744  89.018  1.00  0.00     0.138 C 
BRANCH  33  34
HETATM   34  C   UNL     1       5.072  13.074  88.575  1.00  0.00     0.208 C 
HETATM   35  O   UNL     1       4.915  13.266  87.392  1.00  0.00    -0.289 OA
BRANCH  34  36
HETATM   36  C   UNL     1       5.105  14.246  89.280  1.00  0.00     0.194 C 
HETATM   37  O   UNL     1       4.146  14.825  90.119  1.00  0.00    -0.185 OA
ENDBRANCH  34  36
ENDBRANCH  33  34
ENDBRANCH  31  33
ENDBRANCH  26  31
ENDBRANCH  24  26
ENDBRANCH  19  22
ENDBRANCH  15  16
ENDBRANCH  11  14
ENDBRANCH   7   8
ENDBRANCH   2   7
TORSDOF 12
ENDMDL
MODEL 2
REMARK VINA RESULT:      -6.3      2.310      3.253
REMARK  12 active torsions:
REMARK  status: ('A' for Active; 'I' for Inactive)
REMARK    1  A    between atoms: O_2  and  C_16 
REMARK    2  A    between atoms: N_5  and  C_9 
REMARK    3  A    between atoms: N_6  and  C_13 
REMARK       I    between atoms: N_6  and  C_22 
REMARK    4  A    between atoms: C_9  and  C_12 
REMARK    5  A    between atoms: C_13  and  C_16 
REMARK    6  A    between atoms: C_13  and  C_21 
REMARK    7  A    between atoms: C_19  and  C_24 
REMARK    8  A    between atoms: C_21  and  C_33 
REMARK    9  A    between atoms: C_22  and  C_23 
REMARK   10  A    between atoms: C_27  and  C_30 
REMARK   11  A    between atoms: C_33  and  C_34 
REMARK   12  A    between atoms: C_34  and  C_35 
ROOT
HETATM    1  O   UNL     1      16.847   3.649  93.858  1.00  0.00    -0.350 OA
HETATM    2  N   UNL     1      14.304   3.129  92.690  1.00  0.00     0.147 N 
HETATM    3  C   UNL     1      15.267   2.049  92.946  1.00  0.00     0.283 C 
HETATM    4  C   UNL     1      15.016   4.392  92.451  1.00  0.00     0.283 C 
HETATM    5  C   UNL     1      16.163   2.423  94.124  1.00  0.00     0.178 C 
HETATM    6  C   UNL     1      15.918   4.711  93.639  1.00  0.00     0.178 C 
ENDROOT
BRANCH   2   7
HETATM    7  C   UNL     1      13.441   2.796  91.558  1.00  0.00     0.277 C 
BRANCH   7   8
HETATM    8  C   UNL     1      12.234   3.668  91.489  1.00  0.00     0.011 A 
HETATM    9  C   UNL     1      11.869   4.256  90.277  1.00  0.00    -0.002 A 
HETATM   10  C   UNL     1      10.741   5.074  90.211  1.00  0.00     0.008 A 
HETATM   11  C   UNL     1       9.978   5.301  91.356  1.00  0.00     0.042 A 
HETATM   12  C   UNL     1      10.341   4.714  92.566  1.00  0.00     0.008 A 
HETATM   13  C   UNL     1      11.469   3.897  92.633  1.00  0.00    -0.002 A 
BRANCH  11  14
HETATM   14  C   UNL     1       8.819   6.138  91.288  1.00  0.00    -0.059 C 
HETATM   15  C   UNL     1       7.846   6.842  91.230  1.00  0.00    -0.059 C 
BRANCH  15  16
HETATM   16  C   UNL     1       6.689   7.679  91.161  1.00  0.00     0.042 A 
HETATM   17  C   UNL     1       5.655   7.514  92.083  1.00  0.00     0.008 A 
HETATM   18  C   UNL     1       4.527   8.332  92.017  1.00  0.00     0.005 A 
HETATM   19  C   UNL     1       4.459   9.296  91.032  1.00  0.00     0.056 A 
HETATM   20  C   UNL     1       5.467   9.477  90.109  1.00  0.00     0.005 A 
HETATM   21  C   UNL     1       6.595   8.660  90.174  1.00  0.00     0.008 A 
BRANCH  19  22
HETATM   22  C   UNL     1       3.256  10.166  90.961  1.00  0.00     0.254 C 
HETATM   23  O   UNL     1       2.189   9.685  90.587  1.00  0.00    -0.268 OA
HETATM   24  N   UNL     1       3.435  11.484  91.357  1.00  0.00    -0.335 N 
HETATM   25  HN  UNL     1       4.341  11.804  91.679  1.00  0.00     0.164 HD
BRANCH  24  26
HETATM   26  C   UNL     1       2.360  12.443  91.368  1.00  0.00     0.166 C 
BRANCH  26  27
HETATM   27  C   UNL     1       1.618  12.489  92.710  1.00  0.00     0.138 C 
HETATM   28  C   UNL     1       1.222  11.102  93.205  1.00  0.00     0.034 C 
BRANCH  27  29
HETATM   29  O   UNL     1       2.445  13.113  93.691  1.00  0.00    -0.383 OA
HETATM   30  H   UNL     1       2.191  14.049  93.754  1.00  0.00     0.210 HD
ENDBRANCH  27  29
ENDBRANCH  26  27
BRANCH  26  31
HETATM   31  C   UNL     1       2.947  13.805  91.013  1.00  0.00     0.181 C 
HETATM   32  O   UNL     1       2.683  14.832  91.636  1.00  0.00    -0.294 OA
BRANCH  31  33
HETATM   33  C   UNL     1       4.563  13.752  90.894  1.00  0.00     0.138 C 
BRANCH  33  34
HETATM   34  C   UNL     1       4.768  14.399  89.656  1.00  0.00     0.208 C 
HETATM   35  O   UNL     1       4.979  15.589  89.706  1.00  0.00    -0.289 OA
BRANCH  34  36
HETATM   36  C   UNL     1       5.056  13.884  88.422  1.00  0.00     0.194 C 
HETATM   37  O   UNL     1       4.572  12.735  87.787  1.00  0.00    -0.185 OA
ENDBRANCH  34  36
ENDBRANCH  33  34
ENDBRANCH  31  33
ENDBRANCH  26  31
ENDBRANCH  24  26
ENDBRANCH  19  22
ENDBRANCH  15  16
ENDBRANCH  11  14
ENDBRANCH   7   8
ENDBRANCH   2   7
TORSDOF 12
ENDMDL
MODEL 3
REMARK VINA RESULT:      -6.1      2.399      3.779
REMARK  12 active torsions:
REMARK  status: ('A' for Active; 'I' for Inactive)
REMARK    1  A    between atoms: O_2  and  C_16 
REMARK    2  A    between atoms: N_5  and  C_9 
REMARK    3  A    between atoms: N_6  and  C_13 
REMARK       I    between atoms: N_6  and  C_22 
REMARK    4  A    between atoms: C_9  and  C_12 
REMARK    5  A    between atoms: C_13  and  C_16 
REMARK    6  A    between atoms: C_13  and  C_21 
REMARK    7  A    between atoms: C_19  and  C_24 
REMARK    8  A    between atoms: C_21  and  C_33 
REMARK    9  A    between atoms: C_22  and  C_23 
REMARK   10  A    between atoms: C_27  and  C_30 
REMARK   11  A    between atoms: C_33  and  C_34 
REMARK   12  A    between atoms: C_34  and  C_35 
ROOT
HETATM    1  O   UNL     1      17.065   3.740  93.724  1.00  0.00    -0.350 OA
HETATM    2  N   UNL     1      14.376   3.012  93.141  1.00  0.00     0.147 N 
HETATM    3  C   UNL     1      15.453   2.013  93.169  1.00  0.00     0.283 C 
HETATM    4  C   UNL     1      14.917   4.324  92.761  1.00  0.00     0.283 C 
HETATM    5  C   UNL     1      16.554   2.467  94.124  1.00  0.00     0.178 C 
HETATM    6  C   UNL     1      16.030   4.724  93.723  1.00  0.00     0.178 C 
ENDROOT
BRANCH   2   7
HETATM    7  C   UNL     1      13.314   2.602  92.224  1.00  0.00     0.277 C 
BRANCH   7   8
HETATM    8  C   UNL     1      12.183   3.574  92.193  1.00  0.00     0.011 A 
HETATM    9  C   UNL     1      11.674   4.087  93.387  1.00  0.00    -0.002 A 
HETATM   10  C   UNL     1      10.615   4.994  93.359  1.00  0.00     0.008 A 
HETATM   11  C   UNL     1      10.068   5.389  92.139  1.00  0.00     0.042 A 
HETATM   12  C   UNL     1      10.576   4.878  90.947  1.00  0.00     0.008 A 
HETATM   13  C   UNL     1      11.634   3.970  90.974  1.00  0.00    -0.002 A 
BRANCH  11  14
HETATM   14  C   UNL     1       8.983   6.322  92.111  1.00  0.00    -0.059 C 
HETATM   15  C   UNL     1       8.072   7.106  92.088  1.00  0.00    -0.059 C 
BRANCH  15  16
HETATM   16  C   UNL     1       6.988   8.038  92.060  1.00  0.00     0.042 A 
HETATM   17  C   UNL     1       7.248   9.409  92.078  1.00  0.00     0.008 A 
HETATM   18  C   UNL     1       6.191  10.318  92.047  1.00  0.00     0.005 A 
HETATM   19  C   UNL     1       4.899   9.837  91.999  1.00  0.00     0.056 A 
HETATM   20  C   UNL     1       4.616   8.488  91.981  1.00  0.00     0.005 A 
HETATM   21  C   UNL     1       5.672   7.577  92.011  1.00  0.00     0.008 A 
BRANCH  19  22
HETATM   22  C   UNL     1       3.773  10.807  91.969  1.00  0.00     0.254 C 
HETATM   23  O   UNL     1       2.646  10.426  92.274  1.00  0.00    -0.268 OA
HETATM   24  N   UNL     1       4.100  12.107  91.611  1.00  0.00    -0.335 N 
HETATM   25  HN  UNL     1       5.059  12.354  91.396  1.00  0.00     0.164 HD
BRANCH  24  26
HETATM   26  C   UNL     1       3.124  13.166  91.559  1.00  0.00     0.166 C 
BRANCH  26  27
HETATM   27  C   UNL     1       3.074  13.991  92.851  1.00  0.00     0.138 C 
HETATM   28  C   UNL     1       4.414  14.636  93.184  1.00  0.00     0.034 C 
BRANCH  27  29
HETATM   29  O   UNL     1       2.085  15.013  92.727  1.00  0.00    -0.383 OA
HETATM   30  H   UNL     1       2.520  15.874  92.846  1.00  0.00     0.210 HD
ENDBRANCH  27  29
ENDBRANCH  26  27
BRANCH  26  31
HETATM   31  C   UNL     1       3.451  14.042  90.354  1.00  0.00     0.181 C 
HETATM   32  O   UNL     1       3.397  15.270  90.385  1.00  0.00    -0.294 OA
BRANCH  31  33
HETATM   33  C   UNL     1       4.891  13.668  89.710  1.00  0.00     0.138 C 
BRANCH  33  34
HETATM   34  C   UNL     1       4.504  13.171  88.446  1.00  0.00     0.208 C 
HETATM   35  O   UNL     1       4.887  13.800  87.487  1.00  0.00    -0.289 OA
BRANCH  34  36
HETATM   36  C   UNL     1       4.013  11.946  88.087  1.00  0.00     0.194 C 
HETATM   37  O   UNL     1       2.972  11.191  88.640  1.00  0.00    -0.185 OA
ENDBRANCH  34  36
ENDBRANCH  33  34
ENDBRANCH  31  33
ENDBRANCH  26  31
ENDBRANCH  24  26
ENDBRANCH  19  22
ENDBRANCH  15  16
ENDBRANCH  11  14
ENDBRANCH   7   8
ENDBRANCH   2   7
TORSDOF 12
ENDMDL
MODEL 4
REMARK VINA RESULT:      -5.5      2.697      4.177
REMARK  12 active torsions:
REMARK  status: ('A' for Active; 'I' for Inactive)
REMARK    1  A    between atoms: O_2  and  C_16 
REMARK    2  A    between atoms: N_5  and  C_9 
REMARK    3  A    between atoms: N_6  and  C_13 
REMARK       I    between atoms: N_6  and  C_22 
REMARK    4  A    between atoms: C_9  and  C_12 
REMARK    5  A    between atoms: C_13  and  C_16 
REMARK    6  A    between atoms: C_13  and  C_21 
REMARK    7  A    between atoms: C_19  and  C_24 
REMARK    8  A    between atoms: C_21  and  C_33 
REMARK    9  A    between atoms: C_22  and  C_23 
REMARK   10  A    between atoms: C_27  and  C_30 
REMARK   11  A    between atoms: C_33  and  C_34 
REMARK   12  A    between atoms: C_34  and  C_35 
ROOT
HETATM    1  O   UNL     1      16.299   4.255  94.099  1.00  0.00    -0.350 OA
HETATM    2  N   UNL     1      14.471   2.737  92.532  1.00  0.00     0.147 N 
HETATM    3  C   UNL     1      14.442   4.206  92.536  1.00  0.00     0.283 C 
HETATM    4  C   UNL     1      14.979   2.239  93.817  1.00  0.00     0.283 C 
HETATM    5  C   UNL     1      15.836   4.749  92.840  1.00  0.00     0.178 C 
HETATM    6  C   UNL     1      16.359   2.829  94.092  1.00  0.00     0.178 C 
ENDROOT
BRANCH   2   7
HETATM    7  C   UNL     1      13.143   2.194  92.253  1.00  0.00     0.277 C 
BRANCH   7   8
HETATM    8  C   UNL     1      12.083   3.242  92.283  1.00  0.00     0.011 A 
HETATM    9  C   UNL     1      11.337   3.511  91.135  1.00  0.00    -0.002 A 
HETATM   10  C   UNL     1      10.346   4.493  91.162  1.00  0.00     0.008 A 
HETATM   11  C   UNL     1      10.101   5.203  92.337  1.00  0.00     0.042 A 
HETATM   12  C   UNL     1      10.846   4.934  93.484  1.00  0.00     0.008 A 
HETATM   13  C   UNL     1      11.837   3.953  93.457  1.00  0.00    -0.002 A 
BRANCH  11  14
HETATM   14  C   UNL     1       9.084   6.208  92.365  1.00  0.00    -0.059 C 
HETATM   15  C   UNL     1       8.229   7.053  92.389  1.00  0.00    -0.059 C 
BRANCH  15  16
HETATM   16  C   UNL     1       7.213   8.059  92.417  1.00  0.00     0.042 A 
HETATM   17  C   UNL     1       5.929   7.764  91.957  1.00  0.00     0.008 A 
HETATM   18  C   UNL     1       4.937   8.745  91.987  1.00  0.00     0.005 A 
HETATM   19  C   UNL     1       5.251   9.996  92.476  1.00  0.00     0.056 A 
HETATM   20  C   UNL     1       6.512  10.311  92.936  1.00  0.00     0.005 A 
HETATM   21  C   UNL     1       7.505   9.332  92.906  1.00  0.00     0.008 A 
BRANCH  19  22
HETATM   22  C   UNL     1       4.194  11.040  92.506  1.00  0.00     0.254 C 
HETATM   23  O   UNL     1       3.067  10.742  92.895  1.00  0.00    -0.268 OA
HETATM   24  N   UNL     1       4.583  12.310  92.103  1.00  0.00    -0.335 N 
HETATM   25  HN  UNL     1       5.539  12.487  91.818  1.00  0.00     0.164 HD
BRANCH  24  26
HETATM   26  C   UNL     1       3.680  13.433  92.100  1.00  0.00     0.166 C 
BRANCH  26  27
HETATM   27  C   UNL     1       3.762  14.264  93.386  1.00  0.00     0.138 C 
HETATM   28  C   UNL     1       4.563  15.548  93.202  1.00  0.00     0.034 C 
BRANCH  27  29
HETATM   29  O   UNL     1       2.445  14.598  93.822  1.00  0.00    -0.383 OA
HETATM   30  H   UNL     1       2.098  15.295  93.240  1.00  0.00     0.210 HD
ENDBRANCH  27  29
ENDBRANCH  26  27
BRANCH  26  31
HETATM   31  C   UNL     1       3.996  14.280  90.871  1.00  0.00     0.181 C 
HETATM   32  O   UNL     1       5.127  14.384  90.402  1.00  0.00    -0.294 OA
BRANCH  31  33
HETATM   33  C   UNL     1       3.021  13.922  89.626  1.00  0.00     0.138 C 
BRANCH  33  34
HETATM   34  C   UNL     1       3.465  12.622  89.297  1.00  0.00     0.208 C 
HETATM   35  O   UNL     1       2.689  11.722  89.523  1.00  0.00    -0.289 OA
BRANCH  34  36
HETATM   36  C   UNL     1       4.501  12.213  88.504  1.00  0.00     0.194 C 
HETATM   37  O   UNL     1       5.203  11.002  88.487  1.00  0.00    -0.185 OA
ENDBRANCH  34  36
ENDBRANCH  33  34
ENDBRANCH  31  33
ENDBRANCH  26  31
ENDBRANCH  24  26
ENDBRANCH  19  22
ENDBRANCH  15  16
ENDBRANCH  11  14
ENDBRANCH   7   8
ENDBRANCH   2   7
TORSDOF 12
ENDMDL
MODEL 5
REMARK VINA RESULT:      -4.9      3.535     12.096
REMARK  12 active torsions:
REMARK  status: ('A' for Active; 'I' for Inactive)
REMARK    1  A    between atoms: O_2  and  C_16 
REMARK    2  A    between atoms: N_5  and  C_9 
REMARK    3  A    between atoms: N_6  and  C_13 
REMARK       I    between atoms: N_6  and  C_22 
REMARK    4  A    between atoms: C_9  and  C_12 
REMARK    5  A    between atoms: C_13  and  C_16 
REMARK    6  A    between atoms: C_13  and  C_21 
REMARK    7  A    between atoms: C_19  and  C_24 
REMARK    8  A    between atoms: C_21  and  C_33 
REMARK    9  A    between atoms: C_22  and  C_23 
REMARK   10  A    between atoms: C_27  and  C_30 
REMARK   11  A    between atoms: C_33  and  C_34 
REMARK   12  A    between atoms: C_34  and  C_35 
ROOT
HETATM    1  O   UNL     1       3.037  14.847  93.955  1.00  0.00    -0.350 OA
HETATM    2  N   UNL     1       2.694  14.842  91.130  1.00  0.00     0.147 N 
HETATM    3  C   UNL     1       1.791  14.092  92.014  1.00  0.00     0.283 C 
HETATM    4  C   UNL     1       4.025  14.947  91.742  1.00  0.00     0.283 C 
HETATM    5  C   UNL     1       1.730  14.767  93.383  1.00  0.00     0.178 C 
HETATM    6  C   UNL     1       3.913  15.600  93.116  1.00  0.00     0.178 C 
ENDROOT
BRANCH   2   7
HETATM    7  C   UNL     1       2.775  14.207  89.815  1.00  0.00     0.277 C 
BRANCH   7   8
HETATM    8  C   UNL     1       3.758  13.086  89.786  1.00  0.00     0.011 A 
HETATM    9  C   UNL     1       3.465  11.886  90.436  1.00  0.00    -0.002 A 
HETATM   10  C   UNL     1       4.385  10.838  90.411  1.00  0.00     0.008 A 
HETATM   11  C   UNL     1       5.594  10.989  89.734  1.00  0.00     0.042 A 
HETATM   12  C   UNL     1       5.887  12.186  89.084  1.00  0.00     0.008 A 
HETATM   13  C   UNL     1       4.969  13.235  89.110  1.00  0.00    -0.002 A 
BRANCH  11  14
HETATM   14  C   UNL     1       6.537   9.912  89.706  1.00  0.00    -0.059 C 
HETATM   15  C   UNL     1       7.329   9.008  89.683  1.00  0.00    -0.059 C 
BRANCH  15  16
HETATM   16  C   UNL     1       8.271   7.933  89.656  1.00  0.00     0.042 A 
HETATM   17  C   UNL     1       7.934   6.698  90.210  1.00  0.00     0.008 A 
HETATM   18  C   UNL     1       8.852   5.648  90.181  1.00  0.00     0.005 A 
HETATM   19  C   UNL     1      10.084   5.856  89.598  1.00  0.00     0.056 A 
HETATM   20  C   UNL     1      10.441   7.068  89.044  1.00  0.00     0.005 A 
HETATM   21  C   UNL     1       9.524   8.118  89.073  1.00  0.00     0.008 A 
BRANCH  19  22
HETATM   22  C   UNL     1      11.063   4.738  89.570  1.00  0.00     0.254 C 
HETATM   23  O   UNL     1      11.178   4.068  88.546  1.00  0.00    -0.268 OA
HETATM   24  N   UNL     1      11.807   4.551  90.726  1.00  0.00    -0.335 N 
HETATM   25  HN  UNL     1      11.675   5.161  91.525  1.00  0.00     0.164 HD
BRANCH  24  26
HETATM   26  C   UNL     1      12.811   3.526  90.845  1.00  0.00     0.166 C 
BRANCH  26  27
HETATM   27  C   UNL     1      14.211   4.093  91.111  1.00  0.00     0.138 C 
HETATM   28  C   UNL     1      15.318   3.104  90.765  1.00  0.00     0.034 C 
BRANCH  27  29
HETATM   29  O   UNL     1      14.397   5.284  90.346  1.00  0.00    -0.383 OA
HETATM   30  H   UNL     1      14.046   5.130  89.453  1.00  0.00     0.210 HD
ENDBRANCH  27  29
ENDBRANCH  26  27
BRANCH  26  31
HETATM   31  C   UNL     1      12.378   2.575  91.956  1.00  0.00     0.181 C 
HETATM   32  O   UNL     1      12.919   1.490  92.158  1.00  0.00    -0.294 OA
BRANCH  31  33
HETATM   33  C   UNL     1      12.310   3.321  93.394  1.00  0.00     0.138 C 
BRANCH  33  34
HETATM   34  C   UNL     1      11.061   3.975  93.304  1.00  0.00     0.208 C 
HETATM   35  O   UNL     1      10.186   3.375  92.724  1.00  0.00    -0.289 OA
BRANCH  34  36
HETATM   36  C   UNL     1      10.569   5.047  93.997  1.00  0.00     0.194 C 
HETATM   37  O   UNL     1      10.214   6.326  93.554  1.00  0.00    -0.185 OA
ENDBRANCH  34  36
ENDBRANCH  33  34
ENDBRANCH  31  33
ENDBRANCH  26  31
ENDBRANCH  24  26
ENDBRANCH  19  22
ENDBRANCH  15  16
ENDBRANCH  11  14
ENDBRANCH   7   8
ENDBRANCH   2   7
TORSDOF 12
ENDMDL
