MODEL 1
REMARK VINA RESULT:      -7.5      0.000      0.000
REMARK  9 active torsions:
REMARK  status: ('A' for Active; 'I' for Inactive)
REMARK    1  A    between atoms: N_3  and  C_6 
REMARK    2  A    between atoms: C_6  and  C_9 
REMARK    3  A    between atoms: C_14  and  C_17 
REMARK       I    between atoms: N_26  and  C_15 
REMARK    4  A    between atoms: C_15  and  C_16 
REMARK    5  A    between atoms: C_20  and  C_23 
REMARK    6  A    between atoms: OG1_24  and  CB_28 
REMARK    7  A    between atoms: N_26  and  CA_27 
REMARK    8  A    between atoms: CA_27  and  CB_28 
REMARK    9  A    between atoms: CA_27  and  C_30 
ROOT
HETATM    1  O   UNK A   0       1.873   8.143  87.889  1.00  0.00    -0.388 OA
HETATM    2  N   UNK A   0       4.650   7.548  87.697  1.00  0.00     0.096 N 
HETATM    3  C   UNK A   0       4.165   8.933  87.786  1.00  0.00     0.299 C 
HETATM    4  C   UNK A   0       3.636   6.701  87.055  1.00  0.00     0.299 C 
HETATM    5  C   UNK A   0       2.839   8.969  88.542  1.00  0.00     0.198 C 
HETATM    6  C   UNK A   0       2.323   6.789  87.826  1.00  0.00     0.198 C 
ENDROOT
BRANCH   2   7
HETATM    7  C   UNK A   0       5.915   7.489  86.967  1.00  0.00     0.311 C 
BRANCH   7   8
HETATM    8  C   UNK A   0       7.014   6.897  87.782  1.00  0.00    -0.030 A 
HETATM    9  C   UNK A   0       8.266   6.675  87.207  1.00  0.00     0.010 A 
HETATM   10  C   UNK A   0       9.294   6.119  87.969  1.00  0.00     0.021 A 
HETATM   11  C   UNK A   0       9.070   5.788  89.305  1.00  0.00     0.018 A 
HETATM   12  C   UNK A   0       7.820   6.009  89.880  1.00  0.00     0.021 A 
HETATM   13  C   UNK A   0       6.792   6.564  89.119  1.00  0.00     0.010 A 
BRANCH  11  14
HETATM   14  C   UNK A   0      10.125   5.220  90.086  1.00  0.00    -0.061 C 
HETATM   15  C   UNK A   0      11.013   4.744  90.743  1.00  0.00    -0.061 C 
BRANCH  15  16
HETATM   16  C   UNK A   0      12.067   4.177  91.525  1.00  0.00     0.018 A 
HETATM   17  C   UNK A   0      13.326   3.980  90.957  1.00  0.00     0.022 A 
HETATM   18  C   UNK A   0      14.356   3.429  91.721  1.00  0.00     0.018 A 
HETATM   19  C   UNK A   0      14.103   3.089  93.033  1.00  0.00     0.032 A 
HETATM   20  C   UNK A   0      12.867   3.273  93.617  1.00  0.00     0.018 A 
HETATM   21  C   UNK A   0      11.837   3.823  92.854  1.00  0.00     0.022 A 
BRANCH  19  22
HETATM   22  C   UNK A   0      15.199   2.500  93.845  1.00  0.00     0.252 C 
HETATM   23  O   UNK A   0      16.360   2.835  93.619  1.00  0.00    -0.268 OA
ENDBRANCH  19  22
ENDBRANCH  15  16
ENDBRANCH  11  14
ENDBRANCH   7   8
ENDBRANCH   2   7
TORSDOF 9
ENDMDL
