MODEL 1
REMARK VINA RESULT:      -6.2      0.000      0.000
REMARK  12 active torsions:
REMARK  status: ('A' for Active; 'I' for Inactive)
REMARK    1  A    between atoms: O_2  and  C_16 
REMARK    2  A    between atoms: N_5  and  C_9 
REMARK    3  A    between atoms: N_6  and  C_13 
REMARK       I    between atoms: N_6  and  C_22 
REMARK    4  A    between atoms: C_9  and  C_12 
REMARK    5  A    between atoms: C_13  and  C_16 
REMARK    6  A    between atoms: C_13  and  C_21 
REMARK    7  A    between atoms: C_19  and  C_24 
REMARK    8  A    between atoms: C_21  and  C_33 
REMARK    9  A    between atoms: C_22  and  C_23 
REMARK   10  A    between atoms: C_27  and  C_30 
REMARK   11  A    between atoms: C_33  and  C_34 
REMARK   12  A    between atoms: C_34  and  C_35 
ROOT
HETATM    1  O   UNL     1      16.934   3.774  93.890  1.00  0.00    -0.350 OA
HETATM    2  N   UNL     1      14.398   3.129  92.771  1.00  0.00     0.147 N 
HETATM    3  C   UNL     1      15.438   2.107  92.955  1.00  0.00     0.283 C 
HETATM    4  C   UNL     1      15.016   4.446  92.566  1.00  0.00     0.283 C 
HETATM    5  C   UNL     1      16.342   2.495  94.123  1.00  0.00     0.178 C 
HETATM    6  C   UNL     1      15.930   4.778  93.742  1.00  0.00     0.178 C 
ENDROOT
BRANCH   2   7
HETATM    7  C   UNL     1      13.526   2.783  91.650  1.00  0.00     0.277 C 
BRANCH   7   8
HETATM    8  C   UNL     1      12.322   3.659  91.576  1.00  0.00     0.011 A 
HETATM    9  C   UNL     1      11.550   3.880  92.717  1.00  0.00    -0.002 A 
HETATM   10  C   UNL     1      10.422   4.698  92.649  1.00  0.00     0.008 A 
HETATM   11  C   UNL     1      10.068   5.295  91.440  1.00  0.00     0.042 A 
HETATM   12  C   UNL     1      10.838   5.076  90.300  1.00  0.00     0.008 A 
HETATM   13  C   UNL     1      11.966   4.258  90.367  1.00  0.00    -0.002 A 
BRANCH  11  14
HETATM   14  C   UNL     1       8.912   6.136  91.370  1.00  0.00    -0.059 C 
HETATM   15  C   UNL     1       7.941   6.842  91.312  1.00  0.00    -0.059 C 
BRANCH  15  16
HETATM   16  C   UNL     1       6.787   7.683  91.242  1.00  0.00     0.042 A 
HETATM   17  C   UNL     1       5.553   7.143  90.876  1.00  0.00     0.008 A 
HETATM   18  C   UNL     1       4.427   7.963  90.811  1.00  0.00     0.005 A 
HETATM   19  C   UNL     1       4.558   9.302  91.113  1.00  0.00     0.056 A 
HETATM   20  C   UNL     1       5.766   9.859  91.477  1.00  0.00     0.005 A 
HETATM   21  C   UNL     1       6.893   9.041  91.542  1.00  0.00     0.008 A 
BRANCH  19  22
HETATM   22  C   UNL     1       3.358  10.175  91.041  1.00  0.00     0.254 C 
HETATM   23  O   UNL     1       2.292   9.699  90.658  1.00  0.00    -0.268 OA
HETATM   24  N   UNL     1       3.537  11.490  91.448  1.00  0.00    -0.335 N 
HETATM   25  HN  UNL     1       4.442  11.806  91.778  1.00  0.00     0.164 HD
BRANCH  24  26
HETATM   26  C   UNL     1       2.464  12.451  91.460  1.00  0.00     0.166 C 
BRANCH  26  27
HETATM   27  C   UNL     1       2.188  13.016  92.859  1.00  0.00     0.138 C 
HETATM   28  C   UNL     1       3.376  12.852  93.800  1.00  0.00     0.034 C 
BRANCH  27  29
HETATM   29  O   UNL     1       1.863  14.402  92.759  1.00  0.00    -0.383 OA
HETATM   30  H   UNL     1       2.636  14.917  93.046  1.00  0.00     0.210 HD
ENDBRANCH  27  29
ENDBRANCH  26  27
BRANCH  26  31
HETATM   31  C   UNL     1       2.822  13.560  90.475  1.00  0.00     0.181 C 
HETATM   32  O   UNL     1       2.133  14.567  90.321  1.00  0.00    -0.294 OA
BRANCH  31  33
HETATM   33  C   UNL     1       4.343  14.080  90.681  1.00  0.00     0.138 C 
BRANCH  33  34
HETATM   34  C   UNL     1       4.716  14.370  89.350  1.00  0.00     0.208 C 
HETATM   35  O   UNL     1       5.165  15.475  89.151  1.00  0.00    -0.289 OA
BRANCH  34  36
HETATM   36  C   UNL     1       4.930  13.535  88.287  1.00  0.00     0.194 C 
HETATM   37  O   UNL     1       4.925  12.137  88.219  1.00  0.00    -0.185 OA
ENDBRANCH  34  36
ENDBRANCH  33  34
ENDBRANCH  31  33
ENDBRANCH  26  31
ENDBRANCH  24  26
ENDBRANCH  19  22
ENDBRANCH  15  16
ENDBRANCH  11  14
ENDBRANCH   7   8
ENDBRANCH   2   7
TORSDOF 12
ENDMDL
MODEL 2
REMARK VINA RESULT:      -6.0      1.350      1.676
REMARK  12 active torsions:
REMARK  status: ('A' for Active; 'I' for Inactive)
REMARK    1  A    between atoms: O_2  and  C_16 
REMARK    2  A    between atoms: N_5  and  C_9 
REMARK    3  A    between atoms: N_6  and  C_13 
REMARK       I    between atoms: N_6  and  C_22 
REMARK    4  A    between atoms: C_9  and  C_12 
REMARK    5  A    between atoms: C_13  and  C_16 
REMARK    6  A    between atoms: C_13  and  C_21 
REMARK    7  A    between atoms: C_19  and  C_24 
REMARK    8  A    between atoms: C_21  and  C_33 
REMARK    9  A    between atoms: C_22  and  C_23 
REMARK   10  A    between atoms: C_27  and  C_30 
REMARK   11  A    between atoms: C_33  and  C_34 
REMARK   12  A    between atoms: C_34  and  C_35 
ROOT
HETATM    1  O   UNL     1      16.241   4.273  94.110  1.00  0.00    -0.350 OA
HETATM    2  N   UNL     1      14.488   2.722  92.491  1.00  0.00     0.147 N 
HETATM    3  C   UNL     1      14.445   4.191  92.480  1.00  0.00     0.283 C 
HETATM    4  C   UNL     1      14.952   2.242  93.799  1.00  0.00     0.283 C 
HETATM    5  C   UNL     1      15.822   4.751  92.830  1.00  0.00     0.178 C 
HETATM    6  C   UNL     1      16.315   2.847  94.119  1.00  0.00     0.178 C 
ENDROOT
BRANCH   2   7
HETATM    7  C   UNL     1      13.176   2.164  92.168  1.00  0.00     0.277 C 
BRANCH   7   8
HETATM    8  C   UNL     1      12.096   3.191  92.209  1.00  0.00     0.011 A 
HETATM    9  C   UNL     1      11.762   3.802  93.419  1.00  0.00    -0.002 A 
HETATM   10  C   UNL     1      10.750   4.761  93.459  1.00  0.00     0.008 A 
HETATM   11  C   UNL     1      10.075   5.110  92.290  1.00  0.00     0.042 A 
HETATM   12  C   UNL     1      10.408   4.501  91.082  1.00  0.00     0.008 A 
HETATM   13  C   UNL     1      11.419   3.541  91.041  1.00  0.00    -0.002 A 
BRANCH  11  14
HETATM   14  C   UNL     1       9.038   6.096  92.332  1.00  0.00    -0.059 C 
HETATM   15  C   UNL     1       8.167   6.923  92.367  1.00  0.00    -0.059 C 
BRANCH  15  16
HETATM   16  C   UNL     1       7.131   7.908  92.409  1.00  0.00     0.042 A 
HETATM   17  C   UNL     1       5.793   7.512  92.400  1.00  0.00     0.008 A 
HETATM   18  C   UNL     1       4.783   8.473  92.444  1.00  0.00     0.005 A 
HETATM   19  C   UNL     1       5.132   9.806  92.496  1.00  0.00     0.056 A 
HETATM   20  C   UNL     1       6.447  10.222  92.506  1.00  0.00     0.005 A 
HETATM   21  C   UNL     1       7.458   9.263  92.462  1.00  0.00     0.008 A 
BRANCH  19  22
HETATM   22  C   UNL     1       4.055  10.829  92.541  1.00  0.00     0.254 C 
HETATM   23  O   UNL     1       3.039  10.602  93.193  1.00  0.00    -0.268 OA
HETATM   24  N   UNL     1       4.301  12.002  91.841  1.00  0.00    -0.335 N 
HETATM   25  HN  UNL     1       5.175  12.129  91.345  1.00  0.00     0.164 HD
BRANCH  24  26
HETATM   26  C   UNL     1       3.365  13.096  91.809  1.00  0.00     0.166 C 
BRANCH  26  27
HETATM   27  C   UNL     1       3.851  14.317  92.602  1.00  0.00     0.138 C 
HETATM   28  C   UNL     1       2.705  15.087  93.247  1.00  0.00     0.034 C 
BRANCH  27  29
HETATM   29  O   UNL     1       4.757  13.894  93.620  1.00  0.00    -0.383 OA
HETATM   30  H   UNL     1       5.554  14.447  93.568  1.00  0.00     0.210 HD
ENDBRANCH  27  29
ENDBRANCH  26  27
BRANCH  26  31
HETATM   31  C   UNL     1       3.112  13.450  90.347  1.00  0.00     0.181 C 
HETATM   32  O   UNL     1       2.311  14.314  89.996  1.00  0.00    -0.294 OA
BRANCH  31  33
HETATM   33  C   UNL     1       4.492  13.765  89.556  1.00  0.00     0.138 C 
BRANCH  33  34
HETATM   34  C   UNL     1       4.371  12.904  88.442  1.00  0.00     0.208 C 
HETATM   35  O   UNL     1       5.025  13.199  87.468  1.00  0.00    -0.289 OA
BRANCH  34  36
HETATM   36  C   UNL     1       3.869  11.635  88.352  1.00  0.00     0.194 C 
HETATM   37  O   UNL     1       4.299  10.544  87.589  1.00  0.00    -0.185 OA
ENDBRANCH  34  36
ENDBRANCH  33  34
ENDBRANCH  31  33
ENDBRANCH  26  31
ENDBRANCH  24  26
ENDBRANCH  19  22
ENDBRANCH  15  16
ENDBRANCH  11  14
ENDBRANCH   7   8
ENDBRANCH   2   7
TORSDOF 12
ENDMDL
MODEL 3
REMARK VINA RESULT:      -5.0      2.546     12.727
REMARK  12 active torsions:
REMARK  status: ('A' for Active; 'I' for Inactive)
REMARK    1  A    between atoms: O_2  and  C_16 
REMARK    2  A    between atoms: N_5  and  C_9 
REMARK    3  A    between atoms: N_6  and  C_13 
REMARK       I    between atoms: N_6  and  C_22 
REMARK    4  A    between atoms: C_9  and  C_12 
REMARK    5  A    between atoms: C_13  and  C_16 
REMARK    6  A    between atoms: C_13  and  C_21 
REMARK    7  A    between atoms: C_19  and  C_24 
REMARK    8  A    between atoms: C_21  and  C_33 
REMARK    9  A    between atoms: C_22  and  C_23 
REMARK   10  A    between atoms: C_27  and  C_30 
REMARK   11  A    between atoms: C_33  and  C_34 
REMARK   12  A    between atoms: C_34  and  C_35 
ROOT
HETATM    1  O   UNL     1       3.198  14.827  94.026  1.00  0.00    -0.350 OA
HETATM    2  N   UNL     1       2.866  14.658  91.205  1.00  0.00     0.147 N 
HETATM    3  C   UNL     1       1.830  14.177  92.130  1.00  0.00     0.283 C 
HETATM    4  C   UNL     1       4.191  14.548  91.831  1.00  0.00     0.283 C 
HETATM    5  C   UNL     1       1.902  14.960  93.438  1.00  0.00     0.178 C 
HETATM    6  C   UNL     1       4.207  15.321  93.146  1.00  0.00     0.178 C 
ENDROOT
BRANCH   2   7
HETATM    7  C   UNL     1       2.822  13.914  89.947  1.00  0.00     0.277 C 
BRANCH   7   8
HETATM    8  C   UNL     1       3.776  12.768  89.931  1.00  0.00     0.011 A 
HETATM    9  C   UNL     1       3.401  11.542  90.481  1.00  0.00    -0.002 A 
HETATM   10  C   UNL     1       4.293  10.470  90.469  1.00  0.00     0.008 A 
HETATM   11  C   UNL     1       5.559  10.625  89.905  1.00  0.00     0.042 A 
HETATM   12  C   UNL     1       5.935  11.849  89.356  1.00  0.00     0.008 A 
HETATM   13  C   UNL     1       5.043  12.921  89.369  1.00  0.00    -0.002 A 
BRANCH  11  14
HETATM   14  C   UNL     1       6.474   9.524  89.891  1.00  0.00    -0.059 C 
HETATM   15  C   UNL     1       7.242   8.599  89.878  1.00  0.00    -0.059 C 
BRANCH  15  16
HETATM   16  C   UNL     1       8.155   7.500  89.863  1.00  0.00     0.042 A 
HETATM   17  C   UNL     1       9.304   7.559  89.073  1.00  0.00     0.008 A 
HETATM   18  C   UNL     1      10.196   6.488  89.060  1.00  0.00     0.005 A 
HETATM   19  C   UNL     1       9.922   5.382  89.838  1.00  0.00     0.056 A 
HETATM   20  C   UNL     1       8.794   5.299  90.627  1.00  0.00     0.005 A 
HETATM   21  C   UNL     1       7.900   6.370  90.640  1.00  0.00     0.008 A 
BRANCH  19  22
HETATM   22  C   UNL     1      10.872   4.240  89.822  1.00  0.00     0.254 C 
HETATM   23  O   UNL     1      10.712   3.337  89.004  1.00  0.00    -0.268 OA
HETATM   24  N   UNL     1      11.908   4.299  90.744  1.00  0.00    -0.335 N 
HETATM   25  HN  UNL     1      11.991   5.089  91.373  1.00  0.00     0.164 HD
BRANCH  24  26
HETATM   26  C   UNL     1      12.923   3.280  90.836  1.00  0.00     0.166 C 
BRANCH  26  27
HETATM   27  C   UNL     1      14.345   3.848  90.744  1.00  0.00     0.138 C 
HETATM   28  C   UNL     1      15.174   3.173  89.657  1.00  0.00     0.034 C 
BRANCH  27  29
HETATM   29  O   UNL     1      14.282   5.249  90.476  1.00  0.00    -0.383 OA
HETATM   30  H   UNL     1      14.490   5.725  91.297  1.00  0.00     0.210 HD
ENDBRANCH  27  29
ENDBRANCH  26  27
BRANCH  26  31
HETATM   31  C   UNL     1      12.710   2.528  92.146  1.00  0.00     0.181 C 
HETATM   32  O   UNL     1      11.975   1.547  92.243  1.00  0.00    -0.294 OA
BRANCH  31  33
HETATM   33  C   UNL     1      14.116   2.109  92.835  1.00  0.00     0.138 C 
BRANCH  33  34
HETATM   34  C   UNL     1      14.438   3.290  93.539  1.00  0.00     0.208 C 
HETATM   35  O   UNL     1      13.525   3.827  94.124  1.00  0.00    -0.289 OA
BRANCH  34  36
HETATM   36  C   UNL     1      15.652   3.792  93.922  1.00  0.00     0.194 C 
HETATM   37  O   UNL     1      16.177   5.083  93.795  1.00  0.00    -0.185 OA
ENDBRANCH  34  36
ENDBRANCH  33  34
ENDBRANCH  31  33
ENDBRANCH  26  31
ENDBRANCH  24  26
ENDBRANCH  19  22
ENDBRANCH  15  16
ENDBRANCH  11  14
ENDBRANCH   7   8
ENDBRANCH   2   7
TORSDOF 12
ENDMDL
MODEL 4
REMARK VINA RESULT:      -3.6      1.548      2.956
REMARK  12 active torsions:
REMARK  status: ('A' for Active; 'I' for Inactive)
REMARK    1  A    between atoms: O_2  and  C_16 
REMARK    2  A    between atoms: N_5  and  C_9 
REMARK    3  A    between atoms: N_6  and  C_13 
REMARK       I    between atoms: N_6  and  C_22 
REMARK    4  A    between atoms: C_9  and  C_12 
REMARK    5  A    between atoms: C_13  and  C_16 
REMARK    6  A    between atoms: C_13  and  C_21 
REMARK    7  A    between atoms: C_19  and  C_24 
REMARK    8  A    between atoms: C_21  and  C_33 
REMARK    9  A    between atoms: C_22  and  C_23 
REMARK   10  A    between atoms: C_27  and  C_30 
REMARK   11  A    between atoms: C_33  and  C_34 
REMARK   12  A    between atoms: C_34  and  C_35 
ROOT
HETATM    1  O   UNL     1      16.517   3.120  94.100  1.00  0.00    -0.350 OA
HETATM    2  N   UNL     1      14.045   2.951  92.700  1.00  0.00     0.147 N 
HETATM    3  C   UNL     1      14.285   3.989  93.712  1.00  0.00     0.283 C 
HETATM    4  C   UNL     1      14.835   1.752  93.012  1.00  0.00     0.283 C 
HETATM    5  C   UNL     1      15.777   4.302  93.788  1.00  0.00     0.178 C 
HETATM    6  C   UNL     1      16.313   2.116  93.105  1.00  0.00     0.178 C 
ENDROOT
BRANCH   2   7
HETATM    7  C   UNL     1      12.621   2.628  92.617  1.00  0.00     0.277 C 
BRANCH   7   8
HETATM    8  C   UNL     1      11.789   3.814  92.266  1.00  0.00     0.011 A 
HETATM    9  C   UNL     1      11.065   4.475  93.258  1.00  0.00    -0.002 A 
HETATM   10  C   UNL     1      10.285   5.584  92.930  1.00  0.00     0.008 A 
HETATM   11  C   UNL     1      10.231   6.031  91.610  1.00  0.00     0.042 A 
HETATM   12  C   UNL     1      10.954   5.371  90.618  1.00  0.00     0.008 A 
HETATM   13  C   UNL     1      11.734   4.263  90.946  1.00  0.00    -0.002 A 
BRANCH  11  14
HETATM   14  C   UNL     1       9.432   7.169  91.274  1.00  0.00    -0.059 C 
HETATM   15  C   UNL     1       8.760   8.126  90.991  1.00  0.00    -0.059 C 
BRANCH  15  16
HETATM   16  C   UNL     1       7.961   9.263  90.656  1.00  0.00     0.042 A 
HETATM   17  C   UNL     1       8.298  10.051  89.556  1.00  0.00     0.008 A 
HETATM   18  C   UNL     1       7.517  11.159  89.227  1.00  0.00     0.005 A 
HETATM   19  C   UNL     1       6.418  11.454  90.006  1.00  0.00     0.056 A 
HETATM   20  C   UNL     1       6.064  10.691  91.099  1.00  0.00     0.005 A 
HETATM   21  C   UNL     1       6.844   9.583  91.428  1.00  0.00     0.008 A 
BRANCH  19  22
HETATM   22  C   UNL     1       5.587  12.636  89.656  1.00  0.00     0.254 C 
HETATM   23  O   UNL     1       5.552  13.021  88.490  1.00  0.00    -0.268 OA
HETATM   24  N   UNL     1       4.879  13.211  90.702  1.00  0.00    -0.335 N 
HETATM   25  HN  UNL     1       4.937  12.822  91.636  1.00  0.00     0.164 HD
BRANCH  24  26
HETATM   26  C   UNL     1       4.011  14.347  90.519  1.00  0.00     0.166 C 
BRANCH  26  27
HETATM   27  C   UNL     1       2.620  13.955  90.004  1.00  0.00     0.138 C 
HETATM   28  C   UNL     1       2.566  12.513  89.511  1.00  0.00     0.034 C 
BRANCH  27  29
HETATM   29  O   UNL     1       1.660  14.124  91.047  1.00  0.00    -0.383 OA
HETATM   30  H   UNL     1       1.927  13.570  91.800  1.00  0.00     0.210 HD
ENDBRANCH  27  29
ENDBRANCH  26  27
BRANCH  26  31
HETATM   31  C   UNL     1       3.922  15.085  91.850  1.00  0.00     0.181 C 
HETATM   32  O   UNL     1       2.874  15.560  92.284  1.00  0.00    -0.294 OA
BRANCH  31  33
HETATM   33  C   UNL     1       4.560  14.218  93.063  1.00  0.00     0.138 C 
BRANCH  33  34
HETATM   34  C   UNL     1       3.395  13.722  93.688  1.00  0.00     0.208 C 
HETATM   35  O   UNL     1       2.600  14.551  94.066  1.00  0.00    -0.289 OA
BRANCH  34  36
HETATM   36  C   UNL     1       2.859  12.463  93.693  1.00  0.00     0.194 C 
HETATM   37  O   UNL     1       1.957  11.861  92.809  1.00  0.00    -0.185 OA
ENDBRANCH  34  36
ENDBRANCH  33  34
ENDBRANCH  31  33
ENDBRANCH  26  31
ENDBRANCH  24  26
ENDBRANCH  19  22
ENDBRANCH  15  16
ENDBRANCH  11  14
ENDBRANCH   7   8
ENDBRANCH   2   7
TORSDOF 12
ENDMDL
MODEL 5
REMARK VINA RESULT:      -3.3      2.477     12.766
REMARK  12 active torsions:
REMARK  status: ('A' for Active; 'I' for Inactive)
REMARK    1  A    between atoms: O_2  and  C_16 
REMARK    2  A    between atoms: N_5  and  C_9 
REMARK    3  A    between atoms: N_6  and  C_13 
REMARK       I    between atoms: N_6  and  C_22 
REMARK    4  A    between atoms: C_9  and  C_12 
REMARK    5  A    between atoms: C_13  and  C_16 
REMARK    6  A    between atoms: C_13  and  C_21 
REMARK    7  A    between atoms: C_19  and  C_24 
REMARK    8  A    between atoms: C_21  and  C_33 
REMARK    9  A    between atoms: C_22  and  C_23 
REMARK   10  A    between atoms: C_27  and  C_30 
REMARK   11  A    between atoms: C_33  and  C_34 
REMARK   12  A    between atoms: C_34  and  C_35 
ROOT
HETATM    1  O   UNL     1       2.084  15.625  93.266  1.00  0.00    -0.350 OA
HETATM    2  N   UNL     1       2.832  13.354  91.720  1.00  0.00     0.147 N 
HETATM    3  C   UNL     1       3.698  14.538  91.815  1.00  0.00     0.283 C 
HETATM    4  C   UNL     1       1.425  13.746  91.880  1.00  0.00     0.283 C 
HETATM    5  C   UNL     1       3.457  15.250  93.144  1.00  0.00     0.178 C 
HETATM    6  C   UNL     1       1.238  14.476  93.206  1.00  0.00     0.178 C 
ENDROOT
BRANCH   2   7
HETATM    7  C   UNL     1       3.038  12.662  90.449  1.00  0.00     0.277 C 
BRANCH   7   8
HETATM    8  C   UNL     1       4.175  11.700  90.505  1.00  0.00     0.011 A 
HETATM    9  C   UNL     1       4.192  10.698  91.476  1.00  0.00    -0.002 A 
HETATM   10  C   UNL     1       5.256   9.797  91.530  1.00  0.00     0.008 A 
HETATM   11  C   UNL     1       6.301   9.899  90.612  1.00  0.00     0.042 A 
HETATM   12  C   UNL     1       6.285  10.898  89.641  1.00  0.00     0.008 A 
HETATM   13  C   UNL     1       5.221  11.799  89.587  1.00  0.00    -0.002 A 
BRANCH  11  14
HETATM   14  C   UNL     1       7.391   8.974  90.666  1.00  0.00    -0.059 C 
HETATM   15  C   UNL     1       8.308   8.197  90.712  1.00  0.00    -0.059 C 
BRANCH  15  16
HETATM   16  C   UNL     1       9.397   7.272  90.767  1.00  0.00     0.042 A 
HETATM   17  C   UNL     1       9.890   6.850  92.002  1.00  0.00     0.008 A 
HETATM   18  C   UNL     1      10.951   5.946  92.055  1.00  0.00     0.005 A 
HETATM   19  C   UNL     1      11.494   5.485  90.874  1.00  0.00     0.056 A 
HETATM   20  C   UNL     1      11.025   5.887  89.642  1.00  0.00     0.005 A 
HETATM   21  C   UNL     1       9.964   6.791  89.587  1.00  0.00     0.008 A 
BRANCH  19  22
HETATM   22  C   UNL     1      12.626   4.523  90.932  1.00  0.00     0.254 C 
HETATM   23  O   UNL     1      12.907   3.867  89.932  1.00  0.00    -0.268 OA
HETATM   24  N   UNL     1      13.308   4.459  92.139  1.00  0.00    -0.335 N 
HETATM   25  HN  UNL     1      13.035   5.050  92.915  1.00  0.00     0.164 HD
BRANCH  24  26
HETATM   26  C   UNL     1      14.442   3.594  92.343  1.00  0.00     0.166 C 
BRANCH  26  27
HETATM   27  C   UNL     1      15.435   4.150  93.372  1.00  0.00     0.138 C 
HETATM   28  C   UNL     1      16.615   3.214  93.610  1.00  0.00     0.034 C 
BRANCH  27  29
HETATM   29  O   UNL     1      15.928   5.413  92.926  1.00  0.00    -0.383 OA
HETATM   30  H   UNL     1      15.282   6.096  93.171  1.00  0.00     0.210 HD
ENDBRANCH  27  29
ENDBRANCH  26  27
BRANCH  26  31
HETATM   31  C   UNL     1      13.915   2.226  92.764  1.00  0.00     0.181 C 
HETATM   32  O   UNL     1      14.607   1.390  93.341  1.00  0.00    -0.294 OA
BRANCH  31  33
HETATM   33  C   UNL     1      12.544   2.347  93.621  1.00  0.00     0.138 C 
BRANCH  33  34
HETATM   34  C   UNL     1      11.576   2.092  92.625  1.00  0.00     0.208 C 
HETATM   35  O   UNL     1      11.910   1.343  91.737  1.00  0.00    -0.289 OA
BRANCH  34  36
HETATM   36  C   UNL     1      10.225   2.311  92.624  1.00  0.00     0.194 C 
HETATM   37  O   UNL     1       9.447   3.164  91.833  1.00  0.00    -0.185 OA
ENDBRANCH  34  36
ENDBRANCH  33  34
ENDBRANCH  31  33
ENDBRANCH  26  31
ENDBRANCH  24  26
ENDBRANCH  19  22
ENDBRANCH  15  16
ENDBRANCH  11  14
ENDBRANCH   7   8
ENDBRANCH   2   7
TORSDOF 12
ENDMDL
