MODEL 1
REMARK VINA RESULT:      -6.8      0.000      0.000
REMARK  10 active torsions:
REMARK  status: ('A' for Active; 'I' for Inactive)
REMARK    1  A    between atoms: O_2  and  C_16 
REMARK    2  A    between atoms: N_5  and  C_9 
REMARK    3  A    between atoms: N_6  and  C_13 
REMARK       I    between atoms: N_6  and  C_22 
REMARK    4  A    between atoms: C_9  and  C_12 
REMARK    5  A    between atoms: C_13  and  C_16 
REMARK    6  A    between atoms: C_13  and  C_21 
REMARK    7  A    between atoms: C_19  and  C_24 
REMARK    8  A    between atoms: C_22  and  C_23 
REMARK    9  A    between atoms: C_27  and  C_30 
REMARK   10  A    between atoms: N_33  and  S_34 
ROOT
HETATM    1  C   UNL     1       5.782  11.185  89.722  1.00  0.00     0.056 A 
HETATM    2  C   UNL     1       5.233  10.029  90.236  1.00  0.00     0.005 A 
HETATM    3  C   UNL     1       7.131  11.307  89.461  1.00  0.00     0.005 A 
HETATM    4  C   UNL     1       7.439   9.044  90.247  1.00  0.00     0.042 A 
HETATM    5  C   UNL     1       6.071   8.945  90.502  1.00  0.00     0.008 A 
HETATM    6  C   UNL     1       7.969  10.224  89.727  1.00  0.00     0.008 A 
ENDROOT
BRANCH   1   7
HETATM    7  C   UNL     1       4.889  12.338  89.437  1.00  0.00     0.254 C 
HETATM    8  O   UNL     1       4.831  12.782  88.293  1.00  0.00    -0.268 OA
HETATM    9  N   UNL     1       4.154  12.818  90.512  1.00  0.00    -0.337 N 
HETATM   10  HN  UNL     1       4.236  12.384  91.424  1.00  0.00     0.164 HD
BRANCH   9  11
HETATM   11  C   UNL     1       3.227  13.915  90.390  1.00  0.00     0.172 C 
BRANCH  11  12
HETATM   12  C   UNL     1       1.894  13.647  91.099  1.00  0.00     0.136 C 
HETATM   13  C   UNL     1       1.977  12.481  92.078  1.00  0.00     0.034 C 
BRANCH  12  14
HETATM   14  O   UNL     1       1.487  14.818  91.807  1.00  0.00    -0.383 OA
HETATM   15  H   UNL     1       0.515  14.844  91.819  1.00  0.00     0.210 HD
ENDBRANCH  12  14
ENDBRANCH  11  12
BRANCH  11  16
HETATM   16  C   UNL     1       3.908  15.163  90.941  1.00  0.00     0.398 A 
HETATM   17  O   UNL     1       5.005  15.557  90.548  1.00  0.00    -0.136 OA
HETATM   18  N   UNL     1       4.931  15.625  92.065  1.00  0.00     0.142 N 
HETATM   19  HN  UNL     1       5.833  15.992  91.948  1.00  0.00     0.338 HD
BRANCH  18  20
HETATM   20  S   UNL     1       4.265  15.111  93.172  1.00  0.00     0.076 SA
HETATM   21  H   UNL     1       3.664  15.889  93.839  1.00  0.00     0.136 HD
ENDBRANCH  18  20
ENDBRANCH  11  16
ENDBRANCH   9  11
ENDBRANCH   1   7
BRANCH   4  22
HETATM   22  C   UNL     1       8.298   7.934  90.523  1.00  0.00    -0.059 C 
HETATM   23  C   UNL     1       9.020   7.001  90.753  1.00  0.00    -0.059 C 
BRANCH  23  24
HETATM   24  C   UNL     1       9.880   5.891  91.029  1.00  0.00     0.042 A 
HETATM   25  C   UNL     1      10.705   5.385  90.025  1.00  0.00     0.008 A 
HETATM   26  C   UNL     1      11.542   4.302  90.292  1.00  0.00    -0.002 A 
HETATM   27  C   UNL     1      11.555   3.727  91.564  1.00  0.00     0.011 A 
HETATM   28  C   UNL     1      10.730   4.236  92.567  1.00  0.00    -0.002 A 
HETATM   29  C   UNL     1       9.892   5.319  92.299  1.00  0.00     0.008 A 
BRANCH  27  30
HETATM   30  C   UNL     1      12.452   2.571  91.849  1.00  0.00     0.277 C 
BRANCH  30  31
HETATM   31  N   UNL     1      13.479   2.894  92.838  1.00  0.00     0.147 N 
HETATM   32  C   UNL     1      14.336   1.728  93.098  1.00  0.00     0.283 C 
HETATM   33  C   UNL     1      15.406   2.092  94.124  1.00  0.00     0.178 C 
HETATM   34  O   UNL     1      16.189   3.192  93.657  1.00  0.00    -0.350 OA
HETATM   35  C   UNL     1      15.368   4.339  93.432  1.00  0.00     0.178 C 
HETATM   36  C   UNL     1      14.297   4.030  92.391  1.00  0.00     0.283 C 
ENDBRANCH  30  31
ENDBRANCH  27  30
ENDBRANCH  23  24
ENDBRANCH   4  22
TORSDOF 10
ENDMDL
MODEL 2
REMARK VINA RESULT:      -6.8      1.411      2.071
REMARK  10 active torsions:
REMARK  status: ('A' for Active; 'I' for Inactive)
REMARK    1  A    between atoms: O_2  and  C_16 
REMARK    2  A    between atoms: N_5  and  C_9 
REMARK    3  A    between atoms: N_6  and  C_13 
REMARK       I    between atoms: N_6  and  C_22 
REMARK    4  A    between atoms: C_9  and  C_12 
REMARK    5  A    between atoms: C_13  and  C_16 
REMARK    6  A    between atoms: C_13  and  C_21 
REMARK    7  A    between atoms: C_19  and  C_24 
REMARK    8  A    between atoms: C_22  and  C_23 
REMARK    9  A    between atoms: C_27  and  C_30 
REMARK   10  A    between atoms: N_33  and  S_34 
ROOT
HETATM    1  C   UNL     1       5.256  10.694  90.989  1.00  0.00     0.056 A 
HETATM    2  C   UNL     1       6.359  10.731  90.162  1.00  0.00     0.005 A 
HETATM    3  C   UNL     1       5.066   9.692  91.919  1.00  0.00     0.005 A 
HETATM    4  C   UNL     1       7.146   8.696  91.199  1.00  0.00     0.042 A 
HETATM    5  C   UNL     1       7.315   9.721  90.267  1.00  0.00     0.008 A 
HETATM    6  C   UNL     1       6.022   8.682  92.025  1.00  0.00     0.008 A 
ENDROOT
BRANCH   1   7
HETATM    7  C   UNL     1       4.239  11.771  90.878  1.00  0.00     0.254 C 
HETATM    8  O   UNL     1       3.199  11.553  90.261  1.00  0.00    -0.268 OA
HETATM    9  N   UNL     1       4.543  12.963  91.520  1.00  0.00    -0.337 N 
HETATM   10  HN  UNL     1       5.411  13.062  92.033  1.00  0.00     0.164 HD
BRANCH   9  11
HETATM   11  C   UNL     1       3.648  14.092  91.524  1.00  0.00     0.172 C 
BRANCH  11  12
HETATM   12  C   UNL     1       3.613  14.827  90.178  1.00  0.00     0.136 C 
HETATM   13  C   UNL     1       5.003  15.014  89.579  1.00  0.00     0.034 C 
BRANCH  12  14
HETATM   14  O   UNL     1       2.806  14.096  89.256  1.00  0.00    -0.383 OA
HETATM   15  H   UNL     1       2.877  14.521  88.385  1.00  0.00     0.210 HD
ENDBRANCH  12  14
ENDBRANCH  11  12
BRANCH  11  16
HETATM   16  C   UNL     1       2.263  13.587  91.916  1.00  0.00     0.398 A 
HETATM   17  O   UNL     1       1.247  14.273  91.816  1.00  0.00    -0.136 OA
HETATM   18  N   UNL     1       1.262  13.542  93.149  1.00  0.00     0.142 N 
HETATM   19  HN  UNL     1       0.396  13.993  93.242  1.00  0.00     0.338 HD
BRANCH  18  20
HETATM   20  S   UNL     1       2.099  12.922  94.070  1.00  0.00     0.076 SA
HETATM   21  H   UNL     1       3.240  12.807  93.758  1.00  0.00     0.136 HD
ENDBRANCH  18  20
ENDBRANCH  11  16
ENDBRANCH   9  11
ENDBRANCH   1   7
BRANCH   4  22
HETATM   22  C   UNL     1       8.125   7.659  91.306  1.00  0.00    -0.059 C 
HETATM   23  C   UNL     1       8.948   6.788  91.395  1.00  0.00    -0.059 C 
BRANCH  23  24
HETATM   24  C   UNL     1       9.928   5.751  91.501  1.00  0.00     0.042 A 
HETATM   25  C   UNL     1      10.497   5.210  90.349  1.00  0.00     0.008 A 
HETATM   26  C   UNL     1      11.451   4.197  90.453  1.00  0.00    -0.002 A 
HETATM   27  C   UNL     1      11.836   3.728  91.709  1.00  0.00     0.011 A 
HETATM   28  C   UNL     1      11.266   4.271  92.861  1.00  0.00    -0.002 A 
HETATM   29  C   UNL     1      10.312   5.283  92.756  1.00  0.00     0.008 A 
BRANCH  27  30
HETATM   30  C   UNL     1      12.857   2.648  91.819  1.00  0.00     0.277 C 
BRANCH  30  31
HETATM   31  N   UNL     1      13.859   2.930  92.846  1.00  0.00     0.147 N 
HETATM   32  C   UNL     1      14.730   1.766  93.057  1.00  0.00     0.283 C 
HETATM   33  C   UNL     1      15.773   2.087  94.124  1.00  0.00     0.178 C 
HETATM   34  O   UNL     1      16.546   3.225  93.737  1.00  0.00    -0.350 OA
HETATM   35  C   UNL     1      15.709   4.369  93.561  1.00  0.00     0.178 C 
HETATM   36  C   UNL     1      14.665   4.103  92.481  1.00  0.00     0.283 C 
ENDBRANCH  30  31
ENDBRANCH  27  30
ENDBRANCH  23  24
ENDBRANCH   4  22
TORSDOF 10
ENDMDL
MODEL 3
REMARK VINA RESULT:      -6.7      1.392      1.594
REMARK  10 active torsions:
REMARK  status: ('A' for Active; 'I' for Inactive)
REMARK    1  A    between atoms: O_2  and  C_16 
REMARK    2  A    between atoms: N_5  and  C_9 
REMARK    3  A    between atoms: N_6  and  C_13 
REMARK       I    between atoms: N_6  and  C_22 
REMARK    4  A    between atoms: C_9  and  C_12 
REMARK    5  A    between atoms: C_13  and  C_16 
REMARK    6  A    between atoms: C_13  and  C_21 
REMARK    7  A    between atoms: C_19  and  C_24 
REMARK    8  A    between atoms: C_22  and  C_23 
REMARK    9  A    between atoms: C_27  and  C_30 
REMARK   10  A    between atoms: N_33  and  S_34 
ROOT
HETATM    1  C   UNL     1       4.806   9.728  90.595  1.00  0.00     0.056 A 
HETATM    2  C   UNL     1       4.530   8.378  90.534  1.00  0.00     0.005 A 
HETATM    3  C   UNL     1       6.081  10.210  90.805  1.00  0.00     0.005 A 
HETATM    4  C   UNL     1       6.875   7.931  90.904  1.00  0.00     0.042 A 
HETATM    5  C   UNL     1       5.576   7.468  90.690  1.00  0.00     0.008 A 
HETATM    6  C   UNL     1       7.127   9.301  90.961  1.00  0.00     0.008 A 
ENDROOT
BRANCH   1   7
HETATM    7  C   UNL     1       3.692  10.696  90.426  1.00  0.00     0.254 C 
HETATM    8  O   UNL     1       2.663  10.335  89.859  1.00  0.00    -0.268 OA
HETATM    9  N   UNL     1       3.899  11.961  90.959  1.00  0.00    -0.337 N 
HETATM   10  HN  UNL     1       4.765  12.180  91.437  1.00  0.00     0.164 HD
BRANCH   9  11
HETATM   11  C   UNL     1       2.904  13.001  90.897  1.00  0.00     0.172 C 
BRANCH  11  12
HETATM   12  C   UNL     1       2.608  13.622  92.268  1.00  0.00     0.136 C 
HETATM   13  C   UNL     1       1.230  13.239  92.797  1.00  0.00     0.034 C 
BRANCH  12  14
HETATM   14  O   UNL     1       3.598  13.201  93.207  1.00  0.00    -0.383 OA
HETATM   15  H   UNL     1       4.086  12.455  92.820  1.00  0.00     0.210 HD
ENDBRANCH  12  14
ENDBRANCH  11  12
BRANCH  11  16
HETATM   16  C   UNL     1       3.392  14.053  89.906  1.00  0.00     0.398 A 
HETATM   17  O   UNL     1       4.025  13.774  88.890  1.00  0.00    -0.136 OA
HETATM   18  N   UNL     1       4.649  14.970  89.589  1.00  0.00     0.142 N 
HETATM   19  HN  UNL     1       5.254  14.923  88.818  1.00  0.00     0.338 HD
BRANCH  18  20
HETATM   20  S   UNL     1       4.744  15.620  90.814  1.00  0.00     0.076 SA
HETATM   21  H   UNL     1       5.085  14.959  91.741  1.00  0.00     0.136 HD
ENDBRANCH  18  20
ENDBRANCH  11  16
ENDBRANCH   9  11
ENDBRANCH   1   7
BRANCH   4  22
HETATM   22  C   UNL     1       7.946   6.999  91.067  1.00  0.00    -0.059 C 
HETATM   23  C   UNL     1       8.847   6.214  91.205  1.00  0.00    -0.059 C 
BRANCH  23  24
HETATM   24  C   UNL     1       9.920   5.281  91.367  1.00  0.00     0.042 A 
HETATM   25  C   UNL     1      10.634   4.841  90.253  1.00  0.00     0.008 A 
HETATM   26  C   UNL     1      11.678   3.930  90.411  1.00  0.00    -0.002 A 
HETATM   27  C   UNL     1      12.009   3.462  91.684  1.00  0.00     0.011 A 
HETATM   28  C   UNL     1      11.293   3.904  92.797  1.00  0.00    -0.002 A 
HETATM   29  C   UNL     1      10.249   4.814  92.638  1.00  0.00     0.008 A 
BRANCH  27  30
HETATM   30  C   UNL     1      13.126   2.489  91.852  1.00  0.00     0.277 C 
BRANCH  30  31
HETATM   31  N   UNL     1      14.095   2.922  92.858  1.00  0.00     0.147 N 
HETATM   32  C   UNL     1      15.119   1.891  93.072  1.00  0.00     0.283 C 
HETATM   33  C   UNL     1      16.124   2.369  94.117  1.00  0.00     0.178 C 
HETATM   34  O   UNL     1      16.729   3.594  93.700  1.00  0.00    -0.350 OA
HETATM   35  C   UNL     1      15.743   4.611  93.520  1.00  0.00     0.178 C 
HETATM   36  C   UNL     1      14.729   4.187  92.462  1.00  0.00     0.283 C 
ENDBRANCH  30  31
ENDBRANCH  27  30
ENDBRANCH  23  24
ENDBRANCH   4  22
TORSDOF 10
ENDMDL
MODEL 4
REMARK VINA RESULT:      -6.4      1.398      1.956
REMARK  10 active torsions:
REMARK  status: ('A' for Active; 'I' for Inactive)
REMARK    1  A    between atoms: O_2  and  C_16 
REMARK    2  A    between atoms: N_5  and  C_9 
REMARK    3  A    between atoms: N_6  and  C_13 
REMARK       I    between atoms: N_6  and  C_22 
REMARK    4  A    between atoms: C_9  and  C_12 
REMARK    5  A    between atoms: C_13  and  C_16 
REMARK    6  A    between atoms: C_13  and  C_21 
REMARK    7  A    between atoms: C_19  and  C_24 
REMARK    8  A    between atoms: C_22  and  C_23 
REMARK    9  A    between atoms: C_27  and  C_30 
REMARK   10  A    between atoms: N_33  and  S_34 
ROOT
HETATM    1  C   UNL     1       5.701   9.767  89.574  1.00  0.00     0.056 A 
HETATM    2  C   UNL     1       6.950  10.213  89.950  1.00  0.00     0.005 A 
HETATM    3  C   UNL     1       5.383   8.427  89.520  1.00  0.00     0.005 A 
HETATM    4  C   UNL     1       7.631   7.913  90.238  1.00  0.00     0.042 A 
HETATM    5  C   UNL     1       7.928   9.276  90.286  1.00  0.00     0.008 A 
HETATM    6  C   UNL     1       6.359   7.488  89.855  1.00  0.00     0.008 A 
ENDROOT
BRANCH   1   7
HETATM    7  C   UNL     1       4.660  10.766  89.219  1.00  0.00     0.254 C 
HETATM    8  O   UNL     1       4.018  10.621  88.181  1.00  0.00    -0.268 OA
HETATM    9  N   UNL     1       4.474  11.800  90.126  1.00  0.00    -0.337 N 
HETATM   10  HN  UNL     1       5.024  11.842  90.976  1.00  0.00     0.164 HD
BRANCH   9  11
HETATM   11  C   UNL     1       3.486  12.832  89.935  1.00  0.00     0.172 C 
BRANCH  11  12
HETATM   12  C   UNL     1       2.860  13.306  91.252  1.00  0.00     0.136 C 
HETATM   13  C   UNL     1       1.578  14.101  91.036  1.00  0.00     0.034 C 
BRANCH  12  14
HETATM   14  O   UNL     1       2.572  12.177  92.077  1.00  0.00    -0.383 OA
HETATM   15  H   UNL     1       2.189  12.498  92.910  1.00  0.00     0.210 HD
ENDBRANCH  12  14
ENDBRANCH  11  12
BRANCH  11  16
HETATM   16  C   UNL     1       4.155  13.984  89.192  1.00  0.00     0.398 A 
HETATM   17  O   UNL     1       5.121  13.831  88.447  1.00  0.00    -0.136 OA
HETATM   18  N   UNL     1       5.332  15.041  89.343  1.00  0.00     0.142 N 
HETATM   19  HN  UNL     1       6.162  15.100  88.824  1.00  0.00     0.338 HD
BRANCH  18  20
HETATM   20  S   UNL     1       4.933  15.623  90.541  1.00  0.00     0.076 SA
HETATM   21  H   UNL     1       3.773  15.573  90.795  1.00  0.00     0.136 HD
ENDBRANCH  18  20
ENDBRANCH  11  16
ENDBRANCH   9  11
ENDBRANCH   1   7
BRANCH   4  22
HETATM   22  C   UNL     1       8.633   6.952  90.579  1.00  0.00    -0.059 C 
HETATM   23  C   UNL     1       9.476   6.144  90.867  1.00  0.00    -0.059 C 
BRANCH  23  24
HETATM   24  C   UNL     1      10.478   5.182  91.209  1.00  0.00     0.042 A 
HETATM   25  C   UNL     1      10.461   4.575  92.464  1.00  0.00     0.008 A 
HETATM   26  C   UNL     1      11.439   3.639  92.798  1.00  0.00    -0.002 A 
HETATM   27  C   UNL     1      12.432   3.308  91.875  1.00  0.00     0.011 A 
HETATM   28  C   UNL     1      12.447   3.916  90.620  1.00  0.00    -0.002 A 
HETATM   29  C   UNL     1      11.469   4.853  90.287  1.00  0.00     0.008 A 
BRANCH  27  30
HETATM   30  C   UNL     1      13.476   2.305  92.232  1.00  0.00     0.277 C 
BRANCH  30  31
HETATM   31  N   UNL     1      14.452   2.832  93.185  1.00  0.00     0.147 N 
HETATM   32  C   UNL     1      15.701   2.060  93.130  1.00  0.00     0.283 C 
HETATM   33  C   UNL     1      16.708   2.635  94.124  1.00  0.00     0.178 C 
HETATM   34  O   UNL     1      16.959   4.012  93.836  1.00  0.00    -0.350 OA
HETATM   35  C   UNL     1      15.755   4.775  93.918  1.00  0.00     0.178 C 
HETATM   36  C   UNL     1      14.726   4.252  92.921  1.00  0.00     0.283 C 
ENDBRANCH  30  31
ENDBRANCH  27  30
ENDBRANCH  23  24
ENDBRANCH   4  22
TORSDOF 10
ENDMDL
MODEL 5
REMARK VINA RESULT:      -5.8      3.012      3.927
REMARK  10 active torsions:
REMARK  status: ('A' for Active; 'I' for Inactive)
REMARK    1  A    between atoms: O_2  and  C_16 
REMARK    2  A    between atoms: N_5  and  C_9 
REMARK    3  A    between atoms: N_6  and  C_13 
REMARK       I    between atoms: N_6  and  C_22 
REMARK    4  A    between atoms: C_9  and  C_12 
REMARK    5  A    between atoms: C_13  and  C_16 
REMARK    6  A    between atoms: C_13  and  C_21 
REMARK    7  A    between atoms: C_19  and  C_24 
REMARK    8  A    between atoms: C_22  and  C_23 
REMARK    9  A    between atoms: C_27  and  C_30 
REMARK   10  A    between atoms: N_33  and  S_34 
ROOT
HETATM    1  C   UNL     1       6.274   7.478  88.026  1.00  0.00     0.056 A 
HETATM    2  C   UNL     1       7.490   7.330  87.392  1.00  0.00     0.005 A 
HETATM    3  C   UNL     1       6.029   6.953  89.277  1.00  0.00     0.005 A 
HETATM    4  C   UNL     1       8.282   6.084  89.303  1.00  0.00     0.042 A 
HETATM    5  C   UNL     1       8.506   6.625  88.037  1.00  0.00     0.008 A 
HETATM    6  C   UNL     1       7.044   6.248  89.924  1.00  0.00     0.008 A 
ENDROOT
BRANCH   1   7
HETATM    7  C   UNL     1       5.193   8.231  87.339  1.00  0.00     0.254 C 
HETATM    8  O   UNL     1       5.225   8.344  86.116  1.00  0.00    -0.268 OA
HETATM    9  N   UNL     1       4.193   8.740  88.156  1.00  0.00    -0.337 N 
HETATM   10  HN  UNL     1       4.221   8.586  89.157  1.00  0.00     0.164 HD
BRANCH   9  11
HETATM   11  C   UNL     1       3.066   9.472  87.637  1.00  0.00     0.172 C 
BRANCH  11  12
HETATM   12  C   UNL     1       1.722   8.915  88.124  1.00  0.00     0.136 C 
HETATM   13  C   UNL     1       1.304   7.656  87.371  1.00  0.00     0.034 C 
BRANCH  12  14
HETATM   14  O   UNL     1       1.806   8.614  89.517  1.00  0.00    -0.383 OA
HETATM   15  H   UNL     1       2.602   9.044  89.874  1.00  0.00     0.210 HD
ENDBRANCH  12  14
ENDBRANCH  11  12
BRANCH  11  16
HETATM   16  C   UNL     1       3.236  10.934  88.034  1.00  0.00     0.398 A 
HETATM   17  O   UNL     1       4.242  11.589  87.764  1.00  0.00    -0.136 OA
HETATM   18  N   UNL     1       3.816  11.843  89.201  1.00  0.00     0.142 N 
HETATM   19  HN  UNL     1       4.585  12.452  89.169  1.00  0.00     0.338 HD
BRANCH  18  20
HETATM   20  S   UNL     1       3.087  11.310  90.258  1.00  0.00     0.076 SA
HETATM   21  H   UNL     1       1.926  11.140  90.071  1.00  0.00     0.136 HD
ENDBRANCH  18  20
ENDBRANCH  11  16
ENDBRANCH   9  11
ENDBRANCH   1   7
BRANCH   4  22
HETATM   22  C   UNL     1       9.322   5.359  89.963  1.00  0.00    -0.059 C 
HETATM   23  C   UNL     1      10.197   4.749  90.519  1.00  0.00    -0.059 C 
BRANCH  23  24
HETATM   24  C   UNL     1      11.237   4.022  91.180  1.00  0.00     0.042 A 
HETATM   25  C   UNL     1      12.500   3.928  90.595  1.00  0.00     0.008 A 
HETATM   26  C   UNL     1      13.514   3.217  91.237  1.00  0.00    -0.002 A 
HETATM   27  C   UNL     1      13.265   2.604  92.466  1.00  0.00     0.011 A 
HETATM   28  C   UNL     1      12.002   2.700  93.050  1.00  0.00    -0.002 A 
HETATM   29  C   UNL     1      10.988   3.410  92.406  1.00  0.00     0.008 A 
BRANCH  27  30
HETATM   30  C   UNL     1      14.350   1.847  93.153  1.00  0.00     0.277 C 
BRANCH  30  31
HETATM   31  N   UNL     1      15.366   2.728  93.726  1.00  0.00     0.147 N 
HETATM   32  C   UNL     1      16.684   2.457  93.133  1.00  0.00     0.283 C 
HETATM   33  C   UNL     1      17.725   3.395  93.738  1.00  0.00     0.178 C 
HETATM   34  O   UNL     1      17.352   4.758  93.524  1.00  0.00    -0.350 OA
HETATM   35  C   UNL     1      16.087   5.037  94.124  1.00  0.00     0.178 C 
HETATM   36  C   UNL     1      15.006   4.139  93.529  1.00  0.00     0.283 C 
ENDBRANCH  30  31
ENDBRANCH  27  30
ENDBRANCH  23  24
ENDBRANCH   4  22
TORSDOF 10
ENDMDL
MODEL 6
REMARK VINA RESULT:      -5.4      3.546     12.365
REMARK  10 active torsions:
REMARK  status: ('A' for Active; 'I' for Inactive)
REMARK    1  A    between atoms: O_2  and  C_16 
REMARK    2  A    between atoms: N_5  and  C_9 
REMARK    3  A    between atoms: N_6  and  C_13 
REMARK       I    between atoms: N_6  and  C_22 
REMARK    4  A    between atoms: C_9  and  C_12 
REMARK    5  A    between atoms: C_13  and  C_16 
REMARK    6  A    between atoms: C_13  and  C_21 
REMARK    7  A    between atoms: C_19  and  C_24 
REMARK    8  A    between atoms: C_22  and  C_23 
REMARK    9  A    between atoms: C_27  and  C_30 
REMARK   10  A    between atoms: N_33  and  S_34 
ROOT
HETATM    1  C   UNL     1      10.097   5.752  89.765  1.00  0.00     0.056 A 
HETATM    2  C   UNL     1      10.233   6.802  88.880  1.00  0.00     0.005 A 
HETATM    3  C   UNL     1       9.067   5.690  90.680  1.00  0.00     0.005 A 
HETATM    4  C   UNL     1       8.246   7.796  89.829  1.00  0.00     0.042 A 
HETATM    5  C   UNL     1       9.297   7.836  88.912  1.00  0.00     0.008 A 
HETATM    6  C   UNL     1       8.131   6.723  90.713  1.00  0.00     0.008 A 
ENDROOT
BRANCH   1   7
HETATM    7  C   UNL     1      11.093   4.650  89.729  1.00  0.00     0.254 C 
HETATM    8  O   UNL     1      11.266   4.031  88.682  1.00  0.00    -0.268 OA
HETATM    9  N   UNL     1      11.785   4.418  90.910  1.00  0.00    -0.337 N 
HETATM   10  HN  UNL     1      11.607   4.987  91.729  1.00  0.00     0.164 HD
BRANCH   9  11
HETATM   11  C   UNL     1      12.799   3.401  91.027  1.00  0.00     0.172 C 
BRANCH  11  12
HETATM   12  C   UNL     1      14.213   3.983  91.145  1.00  0.00     0.136 C 
HETATM   13  C   UNL     1      15.289   3.000  90.697  1.00  0.00     0.034 C 
BRANCH  12  14
HETATM   14  O   UNL     1      14.309   5.167  90.353  1.00  0.00    -0.383 OA
HETATM   15  H   UNL     1      14.514   4.907  89.439  1.00  0.00     0.210 HD
ENDBRANCH  12  14
ENDBRANCH  11  12
BRANCH  11  16
HETATM   16  C   UNL     1      12.454   2.535  92.234  1.00  0.00     0.398 A 
HETATM   17  O   UNL     1      11.340   2.528  92.756  1.00  0.00    -0.136 OA
HETATM   18  N   UNL     1      12.424   2.576  93.822  1.00  0.00     0.142 N 
HETATM   19  HN  UNL     1      11.642   2.548  94.414  1.00  0.00     0.338 HD
BRANCH  18  20
HETATM   20  S   UNL     1      13.754   2.914  94.044  1.00  0.00     0.076 SA
HETATM   21  H   UNL     1      14.534   2.019  94.057  1.00  0.00     0.136 HD
ENDBRANCH  18  20
ENDBRANCH  11  16
ENDBRANCH   9  11
ENDBRANCH   1   7
BRANCH   4  22
HETATM   22  C   UNL     1       7.289   8.857  89.864  1.00  0.00    -0.059 C 
HETATM   23  C   UNL     1       6.483   9.749  89.894  1.00  0.00    -0.059 C 
BRANCH  23  24
HETATM   24  C   UNL     1       5.526  10.812  89.929  1.00  0.00     0.042 A 
HETATM   25  C   UNL     1       5.795  12.014  89.275  1.00  0.00     0.008 A 
HETATM   26  C   UNL     1       4.863  13.050  89.311  1.00  0.00    -0.002 A 
HETATM   27  C   UNL     1       3.660  12.883  89.999  1.00  0.00     0.011 A 
HETATM   28  C   UNL     1       3.392  11.680  90.652  1.00  0.00    -0.002 A 
HETATM   29  C   UNL     1       4.325  10.644  90.616  1.00  0.00     0.008 A 
BRANCH  27  30
HETATM   30  C   UNL     1       2.664  13.991  90.035  1.00  0.00     0.277 C 
BRANCH  30  31
HETATM   31  N   UNL     1       2.673  14.708  91.308  1.00  0.00     0.147 N 
HETATM   32  C   UNL     1       1.805  14.040  92.288  1.00  0.00     0.283 C 
HETATM   33  C   UNL     1       1.839  14.800  93.612  1.00  0.00     0.178 C 
HETATM   34  O   UNL     1       3.178  14.879  94.104  1.00  0.00    -0.350 OA
HETATM   35  C   UNL     1       4.022  15.555  93.171  1.00  0.00     0.178 C 
HETATM   36  C   UNL     1       4.040  14.815  91.838  1.00  0.00     0.283 C 
ENDBRANCH  30  31
ENDBRANCH  27  30
ENDBRANCH  23  24
ENDBRANCH   4  22
TORSDOF 10
ENDMDL
MODEL 7
REMARK VINA RESULT:      -5.3      3.539     12.560
REMARK  10 active torsions:
REMARK  status: ('A' for Active; 'I' for Inactive)
REMARK    1  A    between atoms: O_2  and  C_16 
REMARK    2  A    between atoms: N_5  and  C_9 
REMARK    3  A    between atoms: N_6  and  C_13 
REMARK       I    between atoms: N_6  and  C_22 
REMARK    4  A    between atoms: C_9  and  C_12 
REMARK    5  A    between atoms: C_13  and  C_16 
REMARK    6  A    between atoms: C_13  and  C_21 
REMARK    7  A    between atoms: C_19  and  C_24 
REMARK    8  A    between atoms: C_22  and  C_23 
REMARK    9  A    between atoms: C_27  and  C_30 
REMARK   10  A    between atoms: N_33  and  S_34 
ROOT
HETATM    1  C   UNL     1      10.454   5.019  91.935  1.00  0.00     0.056 A 
HETATM    2  C   UNL     1       9.741   4.949  90.757  1.00  0.00     0.005 A 
HETATM    3  C   UNL     1      10.293   6.053  92.833  1.00  0.00     0.005 A 
HETATM    4  C   UNL     1       8.645   7.017  91.353  1.00  0.00     0.042 A 
HETATM    5  C   UNL     1       8.826   5.960  90.461  1.00  0.00     0.008 A 
HETATM    6  C   UNL     1       9.378   7.064  92.539  1.00  0.00     0.008 A 
ENDROOT
BRANCH   1   7
HETATM    7  C   UNL     1      11.426   3.940  92.250  1.00  0.00     0.254 C 
HETATM    8  O   UNL     1      11.052   2.770  92.229  1.00  0.00    -0.268 OA
HETATM    9  N   UNL     1      12.722   4.353  92.528  1.00  0.00    -0.337 N 
HETATM   10  HN  UNL     1      12.964   5.336  92.502  1.00  0.00     0.164 HD
BRANCH   9  11
HETATM   11  C   UNL     1      13.784   3.426  92.828  1.00  0.00     0.172 C 
BRANCH  11  12
HETATM   12  C   UNL     1      14.325   2.719  91.579  1.00  0.00     0.136 C 
HETATM   13  C   UNL     1      14.318   3.620  90.349  1.00  0.00     0.034 C 
BRANCH  12  14
HETATM   14  O   UNL     1      15.660   2.277  91.822  1.00  0.00    -0.383 OA
HETATM   15  H   UNL     1      15.663   1.748  92.637  1.00  0.00     0.210 HD
ENDBRANCH  12  14
ENDBRANCH  11  12
BRANCH  11  16
HETATM   16  C   UNL     1      14.884   4.195  93.550  1.00  0.00     0.398 A 
HETATM   17  O   UNL     1      15.449   5.173  93.062  1.00  0.00    -0.136 OA
HETATM   18  N   UNL     1      16.464   4.245  93.710  1.00  0.00     0.142 N 
HETATM   19  HN  UNL     1      17.081   4.949  93.416  1.00  0.00     0.338 HD
BRANCH  18  20
HETATM   20  S   UNL     1      16.669   2.933  94.123  1.00  0.00     0.076 SA
HETATM   21  H   UNL     1      15.978   2.540  95.006  1.00  0.00     0.136 HD
ENDBRANCH  18  20
ENDBRANCH  11  16
ENDBRANCH   9  11
ENDBRANCH   1   7
BRANCH   4  22
HETATM   22  C   UNL     1       7.710   8.055  91.049  1.00  0.00    -0.059 C 
HETATM   23  C   UNL     1       6.923   8.928  90.794  1.00  0.00    -0.059 C 
BRANCH  23  24
HETATM   24  C   UNL     1       5.987   9.966  90.490  1.00  0.00     0.042 A 
HETATM   25  C   UNL     1       4.684   9.894  90.981  1.00  0.00     0.008 A 
HETATM   26  C   UNL     1       3.770  10.905  90.684  1.00  0.00    -0.002 A 
HETATM   27  C   UNL     1       4.162  11.990  89.898  1.00  0.00     0.011 A 
HETATM   28  C   UNL     1       5.466  12.061  89.408  1.00  0.00    -0.002 A 
HETATM   29  C   UNL     1       6.379  11.048  89.705  1.00  0.00     0.008 A 
BRANCH  27  30
HETATM   30  C   UNL     1       3.186  13.071  89.582  1.00  0.00     0.277 C 
BRANCH  30  31
HETATM   31  N   UNL     1       3.138  14.099  90.621  1.00  0.00     0.147 N 
HETATM   32  C   UNL     1       2.384  13.624  91.789  1.00  0.00     0.283 C 
HETATM   33  C   UNL     1       2.358  14.708  92.864  1.00  0.00     0.178 C 
HETATM   34  O   UNL     1       3.689  15.067  93.241  1.00  0.00    -0.350 OA
HETATM   35  C   UNL     1       4.419  15.559  92.117  1.00  0.00     0.178 C 
HETATM   36  C   UNL     1       4.494  14.497  91.025  1.00  0.00     0.283 C 
ENDBRANCH  30  31
ENDBRANCH  27  30
ENDBRANCH  23  24
ENDBRANCH   4  22
TORSDOF 10
ENDMDL
MODEL 8
REMARK VINA RESULT:      -5.2      3.693     12.594
REMARK  10 active torsions:
REMARK  status: ('A' for Active; 'I' for Inactive)
REMARK    1  A    between atoms: O_2  and  C_16 
REMARK    2  A    between atoms: N_5  and  C_9 
REMARK    3  A    between atoms: N_6  and  C_13 
REMARK       I    between atoms: N_6  and  C_22 
REMARK    4  A    between atoms: C_9  and  C_12 
REMARK    5  A    between atoms: C_13  and  C_16 
REMARK    6  A    between atoms: C_13  and  C_21 
REMARK    7  A    between atoms: C_19  and  C_24 
REMARK    8  A    between atoms: C_22  and  C_23 
REMARK    9  A    between atoms: C_27  and  C_30 
REMARK   10  A    between atoms: N_33  and  S_34 
ROOT
HETATM    1  C   UNL     1      10.428   4.713  92.739  1.00  0.00     0.056 A 
HETATM    2  C   UNL     1       9.467   4.576  91.760  1.00  0.00     0.005 A 
HETATM    3  C   UNL     1      10.439   5.778  93.616  1.00  0.00     0.005 A 
HETATM    4  C   UNL     1       8.462   6.634  92.525  1.00  0.00     0.042 A 
HETATM    5  C   UNL     1       8.472   5.548  91.650  1.00  0.00     0.008 A 
HETATM    6  C   UNL     1       9.445   6.750  93.508  1.00  0.00     0.008 A 
ENDROOT
BRANCH   1   7
HETATM    7  C   UNL     1      11.487   3.677  92.857  1.00  0.00     0.254 C 
HETATM    8  O   UNL     1      11.178   2.491  92.768  1.00  0.00    -0.268 OA
HETATM    9  N   UNL     1      12.780   4.147  93.039  1.00  0.00    -0.337 N 
HETATM   10  HN  UNL     1      12.963   5.143  93.078  1.00  0.00     0.164 HD
BRANCH   9  11
HETATM   11  C   UNL     1      13.917   3.268  93.145  1.00  0.00     0.172 C 
BRANCH  11  12
HETATM   12  C   UNL     1      14.380   2.728  91.786  1.00  0.00     0.136 C 
HETATM   13  C   UNL     1      14.239   3.758  90.671  1.00  0.00     0.034 C 
BRANCH  12  14
HETATM   14  O   UNL     1      15.745   2.323  91.873  1.00  0.00    -0.383 OA
HETATM   15  H   UNL     1      16.074   2.162  90.973  1.00  0.00     0.210 HD
ENDBRANCH  12  14
ENDBRANCH  11  12
BRANCH  11  16
HETATM   16  C   UNL     1      15.033   4.033  93.847  1.00  0.00     0.398 A 
HETATM   17  O   UNL     1      15.492   5.091  93.420  1.00  0.00    -0.136 OA
HETATM   18  N   UNL     1      16.616   4.173  93.873  1.00  0.00     0.142 N 
HETATM   19  HN  UNL     1      17.160   4.944  93.604  1.00  0.00     0.338 HD
BRANCH  18  20
HETATM   20  S   UNL     1      16.935   2.844  94.124  1.00  0.00     0.076 SA
HETATM   21  H   UNL     1      17.156   2.163  93.176  1.00  0.00     0.136 HD
ENDBRANCH  18  20
ENDBRANCH  11  16
ENDBRANCH   9  11
ENDBRANCH   1   7
BRANCH   4  22
HETATM   22  C   UNL     1       7.444   7.632  92.412  1.00  0.00    -0.059 C 
HETATM   23  C   UNL     1       6.587   8.470  92.317  1.00  0.00    -0.059 C 
BRANCH  23  24
HETATM   24  C   UNL     1       5.569   9.469  92.204  1.00  0.00     0.042 A 
HETATM   25  C   UNL     1       5.340  10.352  93.258  1.00  0.00     0.008 A 
HETATM   26  C   UNL     1       4.346  11.324  93.149  1.00  0.00    -0.002 A 
HETATM   27  C   UNL     1       3.582  11.413  91.985  1.00  0.00     0.011 A 
HETATM   28  C   UNL     1       3.813  10.529  90.931  1.00  0.00    -0.002 A 
HETATM   29  C   UNL     1       4.806   9.557  91.041  1.00  0.00     0.008 A 
BRANCH  27  30
HETATM   30  C   UNL     1       2.521  12.454  91.869  1.00  0.00     0.277 C 
BRANCH  30  31
HETATM   31  N   UNL     1       3.039  13.723  91.361  1.00  0.00     0.147 N 
HETATM   32  C   UNL     1       4.009  14.303  92.301  1.00  0.00     0.283 C 
HETATM   33  C   UNL     1       4.544  15.620  91.745  1.00  0.00     0.178 C 
HETATM   34  O   UNL     1       5.150  15.411  90.468  1.00  0.00    -0.350 OA
HETATM   35  C   UNL     1       4.205  14.877  89.540  1.00  0.00     0.178 C 
HETATM   36  C   UNL     1       3.662  13.544  90.042  1.00  0.00     0.283 C 
ENDBRANCH  30  31
ENDBRANCH  27  30
ENDBRANCH  23  24
ENDBRANCH   4  22
TORSDOF 10
ENDMDL
MODEL 9
REMARK VINA RESULT:      -5.2      2.939      3.897
REMARK  10 active torsions:
REMARK  status: ('A' for Active; 'I' for Inactive)
REMARK    1  A    between atoms: O_2  and  C_16 
REMARK    2  A    between atoms: N_5  and  C_9 
REMARK    3  A    between atoms: N_6  and  C_13 
REMARK       I    between atoms: N_6  and  C_22 
REMARK    4  A    between atoms: C_9  and  C_12 
REMARK    5  A    between atoms: C_13  and  C_16 
REMARK    6  A    between atoms: C_13  and  C_21 
REMARK    7  A    between atoms: C_19  and  C_24 
REMARK    8  A    between atoms: C_22  and  C_23 
REMARK    9  A    between atoms: C_27  and  C_30 
REMARK   10  A    between atoms: N_33  and  S_34 
ROOT
HETATM    1  C   UNL     1       5.946   8.031  89.202  1.00  0.00     0.056 A 
HETATM    2  C   UNL     1       5.654   6.878  89.901  1.00  0.00     0.005 A 
HETATM    3  C   UNL     1       7.240   8.464  89.004  1.00  0.00     0.005 A 
HETATM    4  C   UNL     1       8.021   6.542  90.241  1.00  0.00     0.042 A 
HETATM    5  C   UNL     1       6.703   6.125  90.427  1.00  0.00     0.008 A 
HETATM    6  C   UNL     1       8.290   7.711  89.530  1.00  0.00     0.008 A 
ENDROOT
BRANCH   1   7
HETATM    7  C   UNL     1       4.828   8.832  88.640  1.00  0.00     0.254 C 
HETATM    8  O   UNL     1       4.611   8.794  87.432  1.00  0.00    -0.268 OA
HETATM    9  N   UNL     1       4.082   9.561  89.556  1.00  0.00    -0.337 N 
HETATM   10  HN  UNL     1       4.304   9.524  90.544  1.00  0.00     0.164 HD
BRANCH   9  11
HETATM   11  C   UNL     1       2.952  10.367  89.170  1.00  0.00     0.172 C 
BRANCH  11  12
HETATM   12  C   UNL     1       3.312  11.847  88.989  1.00  0.00     0.136 C 
HETATM   13  C   UNL     1       4.333  12.328  90.014  1.00  0.00     0.034 C 
BRANCH  12  14
HETATM   14  O   UNL     1       3.839  12.054  87.679  1.00  0.00    -0.383 OA
HETATM   15  H   UNL     1       4.564  12.698  87.740  1.00  0.00     0.210 HD
ENDBRANCH  12  14
ENDBRANCH  11  12
BRANCH  11  16
HETATM   16  C   UNL     1       2.375   9.777  87.887  1.00  0.00     0.398 A 
HETATM   17  O   UNL     1       1.502  10.335  87.226  1.00  0.00    -0.136 OA
HETATM   18  N   UNL     1       1.190   8.854  87.369  1.00  0.00     0.142 N 
HETATM   19  HN  UNL     1       0.425   9.108  86.810  1.00  0.00     0.338 HD
BRANCH  18  20
HETATM   20  S   UNL     1       1.448   7.732  88.148  1.00  0.00     0.076 SA
HETATM   21  H   UNL     1       0.558   7.345  88.834  1.00  0.00     0.136 HD
ENDBRANCH  18  20
ENDBRANCH  11  16
ENDBRANCH   9  11
ENDBRANCH   1   7
BRANCH   4  22
HETATM   22  C   UNL     1       9.097   5.771  90.782  1.00  0.00    -0.059 C 
HETATM   23  C   UNL     1      10.002   5.123  91.237  1.00  0.00    -0.059 C 
BRANCH  23  24
HETATM   24  C   UNL     1      11.079   4.353  91.780  1.00  0.00     0.042 A 
HETATM   25  C   UNL     1      12.178   4.034  90.982  1.00  0.00     0.008 A 
HETATM   26  C   UNL     1      13.226   3.281  91.510  1.00  0.00    -0.002 A 
HETATM   27  C   UNL     1      13.176   2.849  92.836  1.00  0.00     0.011 A 
HETATM   28  C   UNL     1      12.076   3.169  93.632  1.00  0.00    -0.002 A 
HETATM   29  C   UNL     1      11.027   3.921  93.103  1.00  0.00     0.008 A 
BRANCH  27  30
HETATM   30  C   UNL     1      14.299   2.046  93.400  1.00  0.00     0.277 C 
BRANCH  30  31
HETATM   31  N   UNL     1      15.360   2.885  93.954  1.00  0.00     0.147 N 
HETATM   32  C   UNL     1      16.682   2.390  93.544  1.00  0.00     0.283 C 
HETATM   33  C   UNL     1      17.772   3.287  94.124  1.00  0.00     0.178 C 
HETATM   34  O   UNL     1      17.589   4.636  93.691  1.00  0.00    -0.350 OA
HETATM   35  C   UNL     1      16.319   5.135  94.113  1.00  0.00     0.178 C 
HETATM   36  C   UNL     1      15.194   4.283  93.534  1.00  0.00     0.283 C 
ENDBRANCH  30  31
ENDBRANCH  27  30
ENDBRANCH  23  24
ENDBRANCH   4  22
TORSDOF 10
ENDMDL
