MODEL 1
REMARK VINA RESULT:      -6.9      0.000      0.000
REMARK  11 active torsions:
REMARK  status: ('A' for Active; 'I' for Inactive)
REMARK    1  A    between atoms: O_2  and  C_18 
REMARK    2  A    between atoms: O_5  and  P_8 
REMARK    3  A    between atoms: N_6  and  C_11 
REMARK    4  A    between atoms: N_7  and  C_15 
REMARK       I    between atoms: N_7  and  C_24 
REMARK    5  A    between atoms: P_8  and  C_23 
REMARK    6  A    between atoms: C_11  and  C_14 
REMARK    7  A    between atoms: C_15  and  C_18 
REMARK    8  A    between atoms: C_15  and  C_23 
REMARK    9  A    between atoms: C_21  and  C_26 
REMARK   10  A    between atoms: C_24  and  C_25 
REMARK   11  A    between atoms: C_29  and  C_32 
ROOT
HETATM    1  O   UNL     1      16.291   4.261  94.117  1.00  0.00     0.000 OA
HETATM    2  N   UNL     1      14.562   2.621  92.561  1.00  0.00     0.000 N 
HETATM    3  C   UNL     1      14.434   4.085  92.565  1.00  0.00     0.000 C 
HETATM    4  C   UNL     1      15.109   2.160  93.844  1.00  0.00     0.000 C 
HETATM    5  C   UNL     1      15.789   4.722  92.862  1.00  0.00     0.000 C 
HETATM    6  C   UNL     1      16.448   2.841  94.111  1.00  0.00     0.000 C 
ENDROOT
BRANCH   2   7
HETATM    7  C   UNL     1      13.271   1.990  92.290  1.00  0.00     0.000 C 
BRANCH   7   8
HETATM    8  C   UNL     1      12.205   2.986  91.983  1.00  0.00     0.000 A 
HETATM    9  C   UNL     1      11.689   3.790  93.000  1.00  0.00     0.000 A 
HETATM   10  C   UNL     1      10.690   4.720  92.715  1.00  0.00     0.000 A 
HETATM   11  C   UNL     1      10.209   4.847  91.412  1.00  0.00     0.000 A 
HETATM   12  C   UNL     1      10.723   4.045  90.396  1.00  0.00     0.000 A 
HETATM   13  C   UNL     1      11.722   3.114  90.681  1.00  0.00     0.000 A 
BRANCH  11  14
HETATM   14  C   UNL     1       9.186   5.803  91.119  1.00  0.00     0.000 C 
HETATM   15  C   UNL     1       8.326   6.607  90.873  1.00  0.00     0.000 C 
BRANCH  15  16
HETATM   16  C   UNL     1       7.304   7.563  90.580  1.00  0.00     0.000 A 
HETATM   17  C   UNL     1       6.452   7.360  89.493  1.00  0.00     0.000 A 
HETATM   18  C   UNL     1       5.454   8.292  89.209  1.00  0.00     0.000 A 
HETATM   19  C   UNL     1       5.328   9.403  90.016  1.00  0.00     0.000 A 
HETATM   20  C   UNL     1       6.158   9.626  91.096  1.00  0.00     0.000 A 
HETATM   21  C   UNL     1       7.157   8.695  91.381  1.00  0.00     0.000 A 
BRANCH  19  22
HETATM   22  C   UNL     1       4.265  10.395  89.712  1.00  0.00     0.000 C 
HETATM   23  O   UNL     1       3.270  10.036  89.088  1.00  0.00     0.000 OA
HETATM   24  N   UNL     1       4.478  11.680  90.191  1.00  0.00     0.000 N 
HETATM   25  HN  UNL     1       5.314  11.898  90.721  1.00  0.00     0.000 HD
BRANCH  24  26
HETATM   26  C   UNL     1       3.529  12.747  89.998  1.00  0.00     0.000 C 
BRANCH  26  27
HETATM   27  C   UNL     1       2.797  13.132  91.291  1.00  0.00     0.000 C 
HETATM   28  C   UNL     1       3.755  13.548  92.402  1.00  0.00     0.000 C 
BRANCH  27  29
HETATM   29  O   UNL     1       1.897  14.207  91.027  1.00  0.00     0.000 OA
HETATM   30  H   UNL     1       1.053  14.013  91.468  1.00  0.00     0.000 HD
ENDBRANCH  27  29
ENDBRANCH  26  27
BRANCH  26  31
HETATM   31  C   UNL     1       4.279  13.938  89.410  1.00  0.00     0.000 C 
HETATM   32  O   UNL     1       4.232  15.066  89.898  1.00  0.00     0.000 OA
BRANCH  31  33
HETATM   33  P   UNL     1       4.968  13.605  88.269  1.00  0.00     0.000 P 
HETATM   34  H   UNL     1       5.233  14.771  87.580  1.00  0.00     0.000 HD
BRANCH  33  35
HETATM   35  O   UNL     1       4.311  12.729  87.394  1.00  0.00     0.000 OA
HETATM   36  H   UNL     1       3.734  12.258  88.019  1.00  0.00     0.000 HD
ENDBRANCH  33  35
ENDBRANCH  31  33
ENDBRANCH  26  31
ENDBRANCH  24  26
ENDBRANCH  19  22
ENDBRANCH  15  16
ENDBRANCH  11  14
ENDBRANCH   7   8
ENDBRANCH   2   7
TORSDOF 11
ENDMDL
MODEL 2
REMARK VINA RESULT:      -6.2      1.673      2.143
REMARK  11 active torsions:
REMARK  status: ('A' for Active; 'I' for Inactive)
REMARK    1  A    between atoms: O_2  and  C_18 
REMARK    2  A    between atoms: O_5  and  P_8 
REMARK    3  A    between atoms: N_6  and  C_11 
REMARK    4  A    between atoms: N_7  and  C_15 
REMARK       I    between atoms: N_7  and  C_24 
REMARK    5  A    between atoms: P_8  and  C_23 
REMARK    6  A    between atoms: C_11  and  C_14 
REMARK    7  A    between atoms: C_15  and  C_18 
REMARK    8  A    between atoms: C_15  and  C_23 
REMARK    9  A    between atoms: C_21  and  C_26 
REMARK   10  A    between atoms: C_24  and  C_25 
REMARK   11  A    between atoms: C_29  and  C_32 
ROOT
HETATM    1  O   UNL     1      16.583   2.951  93.836  1.00  0.00     0.000 OA
HETATM    2  N   UNL     1      13.914   2.848  92.853  1.00  0.00     0.000 N 
HETATM    3  C   UNL     1      14.723   1.631  93.008  1.00  0.00     0.000 C 
HETATM    4  C   UNL     1      14.786   4.002  92.591  1.00  0.00     0.000 C 
HETATM    5  C   UNL     1      15.746   1.829  94.123  1.00  0.00     0.000 C 
HETATM    6  C   UNL     1      15.808   4.144  93.714  1.00  0.00     0.000 C 
ENDROOT
BRANCH   2   7
HETATM    7  C   UNL     1      12.932   2.684  91.782  1.00  0.00     0.000 C 
BRANCH   7   8
HETATM    8  C   UNL     1      11.861   3.720  91.830  1.00  0.00     0.000 A 
HETATM    9  C   UNL     1      11.335   4.121  93.059  1.00  0.00     0.000 A 
HETATM   10  C   UNL     1      10.331   5.088  93.105  1.00  0.00     0.000 A 
HETATM   11  C   UNL     1       9.856   5.655  91.923  1.00  0.00     0.000 A 
HETATM   12  C   UNL     1      10.381   5.256  90.696  1.00  0.00     0.000 A 
HETATM   13  C   UNL     1      11.384   4.288  90.649  1.00  0.00     0.000 A 
BRANCH  11  14
HETATM   14  C   UNL     1       8.828   6.649  91.971  1.00  0.00     0.000 C 
HETATM   15  C   UNL     1       7.963   7.484  92.010  1.00  0.00     0.000 C 
BRANCH  15  16
HETATM   16  C   UNL     1       6.935   8.477  92.058  1.00  0.00     0.000 A 
HETATM   17  C   UNL     1       5.609   8.117  91.819  1.00  0.00     0.000 A 
HETATM   18  C   UNL     1       4.606   9.085  91.869  1.00  0.00     0.000 A 
HETATM   19  C   UNL     1       4.951  10.389  92.157  1.00  0.00     0.000 A 
HETATM   20  C   UNL     1       6.255  10.769  92.397  1.00  0.00     0.000 A 
HETATM   21  C   UNL     1       7.259   9.802  92.347  1.00  0.00     0.000 A 
BRANCH  19  22
HETATM   22  C   UNL     1       3.882  11.420  92.208  1.00  0.00     0.000 C 
HETATM   23  O   UNL     1       2.749  11.093  92.553  1.00  0.00     0.000 OA
HETATM   24  N   UNL     1       4.267  12.712  91.875  1.00  0.00     0.000 N 
HETATM   25  HN  UNL     1       5.228  12.912  91.624  1.00  0.00     0.000 HD
BRANCH  24  26
HETATM   26  C   UNL     1       3.352  13.824  91.901  1.00  0.00     0.000 C 
BRANCH  26  27
HETATM   27  C   UNL     1       3.632  14.797  93.053  1.00  0.00     0.000 C 
HETATM   28  C   UNL     1       2.360  15.239  93.767  1.00  0.00     0.000 C 
BRANCH  27  29
HETATM   29  O   UNL     1       4.504  14.178  93.999  1.00  0.00     0.000 OA
HETATM   30  H   UNL     1       4.671  14.810  94.718  1.00  0.00     0.000 HD
ENDBRANCH  27  29
ENDBRANCH  26  27
BRANCH  26  31
HETATM   31  C   UNL     1       3.435  14.527  90.549  1.00  0.00     0.000 C 
HETATM   32  O   UNL     1       2.585  14.392  89.671  1.00  0.00     0.000 OA
BRANCH  31  33
HETATM   33  P   UNL     1       4.576  15.282  90.426  1.00  0.00     0.000 P 
HETATM   34  H   UNL     1       4.205  16.611  90.410  1.00  0.00     0.000 HD
BRANCH  33  35
HETATM   35  O   UNL     1       5.349  15.038  89.282  1.00  0.00     0.000 OA
HETATM   36  H   UNL     1       4.658  15.059  88.597  1.00  0.00     0.000 HD
ENDBRANCH  33  35
ENDBRANCH  31  33
ENDBRANCH  26  31
ENDBRANCH  24  26
ENDBRANCH  19  22
ENDBRANCH  15  16
ENDBRANCH  11  14
ENDBRANCH   7   8
ENDBRANCH   2   7
TORSDOF 11
ENDMDL
MODEL 3
REMARK VINA RESULT:      -5.9      3.586     12.285
REMARK  11 active torsions:
REMARK  status: ('A' for Active; 'I' for Inactive)
REMARK    1  A    between atoms: O_2  and  C_18 
REMARK    2  A    between atoms: O_5  and  P_8 
REMARK    3  A    between atoms: N_6  and  C_11 
REMARK    4  A    between atoms: N_7  and  C_15 
REMARK       I    between atoms: N_7  and  C_24 
REMARK    5  A    between atoms: P_8  and  C_23 
REMARK    6  A    between atoms: C_11  and  C_14 
REMARK    7  A    between atoms: C_15  and  C_18 
REMARK    8  A    between atoms: C_15  and  C_23 
REMARK    9  A    between atoms: C_21  and  C_26 
REMARK   10  A    between atoms: C_24  and  C_25 
REMARK   11  A    between atoms: C_29  and  C_32 
ROOT
HETATM    1  O   UNL     1       2.847  14.683  93.840  1.00  0.00     0.000 OA
HETATM    2  N   UNL     1       2.560  14.618  91.009  1.00  0.00     0.000 N 
HETATM    3  C   UNL     1       1.693  13.821  91.887  1.00  0.00     0.000 C 
HETATM    4  C   UNL     1       3.869  14.822  91.645  1.00  0.00     0.000 C 
HETATM    5  C   UNL     1       1.560  14.507  93.244  1.00  0.00     0.000 C 
HETATM    6  C   UNL     1       3.686  15.484  93.007  1.00  0.00     0.000 C 
ENDROOT
BRANCH   2   7
HETATM    7  C   UNL     1       2.710  13.974  89.705  1.00  0.00     0.000 C 
BRANCH   7   8
HETATM    8  C   UNL     1       3.712  12.870  89.729  1.00  0.00     0.000 A 
HETATM    9  C   UNL     1       3.344  11.604  90.186  1.00  0.00     0.000 A 
HETATM   10  C   UNL     1       4.281  10.572  90.211  1.00  0.00     0.000 A 
HETATM   11  C   UNL     1       5.585  10.805  89.777  1.00  0.00     0.000 A 
HETATM   12  C   UNL     1       5.955  12.068  89.320  1.00  0.00     0.000 A 
HETATM   13  C   UNL     1       5.018  13.102  89.296  1.00  0.00     0.000 A 
BRANCH  11  14
HETATM   14  C   UNL     1       6.546   9.745  89.801  1.00  0.00     0.000 C 
HETATM   15  C   UNL     1       7.353   8.854  89.822  1.00  0.00     0.000 C 
BRANCH  15  16
HETATM   16  C   UNL     1       8.313   7.794  89.845  1.00  0.00     0.000 A 
HETATM   17  C   UNL     1       8.157   6.734  90.739  1.00  0.00     0.000 A 
HETATM   18  C   UNL     1       9.091   5.699  90.760  1.00  0.00     0.000 A 
HETATM   19  C   UNL     1      10.159   5.746  89.888  1.00  0.00     0.000 A 
HETATM   20  C   UNL     1      10.335   6.783  88.996  1.00  0.00     0.000 A 
HETATM   21  C   UNL     1       9.401   7.819  88.974  1.00  0.00     0.000 A 
BRANCH  19  22
HETATM   22  C   UNL     1      11.155   4.644  89.913  1.00  0.00     0.000 C 
HETATM   23  O   UNL     1      11.303   3.947  88.912  1.00  0.00     0.000 OA
HETATM   24  N   UNL     1      11.877   4.503  91.090  1.00  0.00     0.000 N 
HETATM   25  HN  UNL     1      11.718   5.133  91.867  1.00  0.00     0.000 HD
BRANCH  24  26
HETATM   26  C   UNL     1      12.895   3.498  91.259  1.00  0.00     0.000 C 
BRANCH  26  27
HETATM   27  C   UNL     1      14.259   4.091  91.632  1.00  0.00     0.000 C 
HETATM   28  C   UNL     1      15.377   3.055  91.595  1.00  0.00     0.000 C 
BRANCH  27  29
HETATM   29  O   UNL     1      14.581   5.152  90.732  1.00  0.00     0.000 OA
HETATM   30  H   UNL     1      15.167   5.775  91.193  1.00  0.00     0.000 HD
ENDBRANCH  27  29
ENDBRANCH  26  27
BRANCH  26  31
HETATM   31  C   UNL     1      12.409   2.516  92.321  1.00  0.00     0.000 C 
HETATM   32  O   UNL     1      11.962   1.403  92.049  1.00  0.00     0.000 OA
BRANCH  31  33
HETATM   33  P   UNL     1      12.495   3.039  93.589  1.00  0.00     0.000 P 
HETATM   34  H   UNL     1      12.233   2.021  94.484  1.00  0.00     0.000 HD
BRANCH  33  35
HETATM   35  O   UNL     1      11.620   4.097  93.873  1.00  0.00     0.000 OA
HETATM   36  H   UNL     1      10.764   3.649  93.767  1.00  0.00     0.000 HD
ENDBRANCH  33  35
ENDBRANCH  31  33
ENDBRANCH  26  31
ENDBRANCH  24  26
ENDBRANCH  19  22
ENDBRANCH  15  16
ENDBRANCH  11  14
ENDBRANCH   7   8
ENDBRANCH   2   7
TORSDOF 11
ENDMDL
MODEL 4
REMARK VINA RESULT:      -5.1      2.219      3.280
REMARK  11 active torsions:
REMARK  status: ('A' for Active; 'I' for Inactive)
REMARK    1  A    between atoms: O_2  and  C_18 
REMARK    2  A    between atoms: O_5  and  P_8 
REMARK    3  A    between atoms: N_6  and  C_11 
REMARK    4  A    between atoms: N_7  and  C_15 
REMARK       I    between atoms: N_7  and  C_24 
REMARK    5  A    between atoms: P_8  and  C_23 
REMARK    6  A    between atoms: C_11  and  C_14 
REMARK    7  A    between atoms: C_15  and  C_18 
REMARK    8  A    between atoms: C_15  and  C_23 
REMARK    9  A    between atoms: C_21  and  C_26 
REMARK   10  A    between atoms: C_24  and  C_25 
REMARK   11  A    between atoms: C_29  and  C_32 
ROOT
HETATM    1  O   UNL     1      15.443   3.737  91.297  1.00  0.00     0.000 OA
HETATM    2  N   UNL     1      13.111   2.400  92.234  1.00  0.00     0.000 N 
HETATM    3  C   UNL     1      13.022   3.630  91.435  1.00  0.00     0.000 C 
HETATM    4  C   UNL     1      14.365   2.387  93.000  1.00  0.00     0.000 C 
HETATM    5  C   UNL     1      14.241   3.744  90.524  1.00  0.00     0.000 C 
HETATM    6  C   UNL     1      15.552   2.530  92.053  1.00  0.00     0.000 C 
ENDROOT
BRANCH   2   7
HETATM    7  C   UNL     1      11.958   2.276  93.123  1.00  0.00     0.000 C 
BRANCH   7   8
HETATM    8  C   UNL     1      11.098   3.494  93.113  1.00  0.00     0.000 A 
HETATM    9  C   UNL     1      10.121   3.648  92.128  1.00  0.00     0.000 A 
HETATM   10  C   UNL     1       9.318   4.789  92.116  1.00  0.00     0.000 A 
HETATM   11  C   UNL     1       9.491   5.773  93.089  1.00  0.00     0.000 A 
HETATM   12  C   UNL     1      10.466   5.620  94.072  1.00  0.00     0.000 A 
HETATM   13  C   UNL     1      11.270   4.480  94.084  1.00  0.00     0.000 A 
BRANCH  11  14
HETATM   14  C   UNL     1       8.666   6.941  93.077  1.00  0.00     0.000 C 
HETATM   15  C   UNL     1       7.972   7.923  93.067  1.00  0.00     0.000 C 
BRANCH  15  16
HETATM   16  C   UNL     1       7.147   9.091  93.057  1.00  0.00     0.000 A 
HETATM   17  C   UNL     1       6.271   9.315  91.994  1.00  0.00     0.000 A 
HETATM   18  C   UNL     1       5.465  10.453  91.985  1.00  0.00     0.000 A 
HETATM   19  C   UNL     1       5.551  11.340  93.038  1.00  0.00     0.000 A 
HETATM   20  C   UNL     1       6.408  11.140  94.100  1.00  0.00     0.000 A 
HETATM   21  C   UNL     1       7.215  10.003  94.110  1.00  0.00     0.000 A 
BRANCH  19  22
HETATM   22  C   UNL     1       4.693  12.553  93.027  1.00  0.00     0.000 C 
HETATM   23  O   UNL     1       4.537  13.186  94.068  1.00  0.00     0.000 OA
HETATM   24  N   UNL     1       4.140  12.895  91.801  1.00  0.00     0.000 N 
HETATM   25  HN  UNL     1       4.334  12.338  90.977  1.00  0.00     0.000 HD
BRANCH  24  26
HETATM   26  C   UNL     1       3.306  14.057  91.624  1.00  0.00     0.000 C 
BRANCH  26  27
HETATM   27  C   UNL     1       3.389  14.637  90.206  1.00  0.00     0.000 C 
HETATM   28  C   UNL     1       4.720  15.331  89.936  1.00  0.00     0.000 C 
BRANCH  27  29
HETATM   29  O   UNL     1       3.211  13.591  89.251  1.00  0.00     0.000 OA
HETATM   30  H   UNL     1       2.798  13.970  88.457  1.00  0.00     0.000 HD
ENDBRANCH  27  29
ENDBRANCH  26  27
BRANCH  26  31
HETATM   31  C   UNL     1       1.876  13.662  91.978  1.00  0.00     0.000 C 
HETATM   32  O   UNL     1       1.348  12.627  91.576  1.00  0.00     0.000 OA
BRANCH  31  33
HETATM   33  P   UNL     1       1.254  14.609  92.755  1.00  0.00     0.000 P 
HETATM   34  H   UNL     1       0.399  15.327  91.943  1.00  0.00     0.000 HD
BRANCH  33  35
HETATM   35  O   UNL     1       2.101  15.521  93.401  1.00  0.00     0.000 OA
HETATM   36  H   UNL     1       2.963  15.100  93.243  1.00  0.00     0.000 HD
ENDBRANCH  33  35
ENDBRANCH  31  33
ENDBRANCH  26  31
ENDBRANCH  24  26
ENDBRANCH  19  22
ENDBRANCH  15  16
ENDBRANCH  11  14
ENDBRANCH   7   8
ENDBRANCH   2   7
TORSDOF 11
ENDMDL
MODEL 5
REMARK VINA RESULT:      -5.1      3.585     12.507
REMARK  11 active torsions:
REMARK  status: ('A' for Active; 'I' for Inactive)
REMARK    1  A    between atoms: O_2  and  C_18 
REMARK    2  A    between atoms: O_5  and  P_8 
REMARK    3  A    between atoms: N_6  and  C_11 
REMARK    4  A    between atoms: N_7  and  C_15 
REMARK       I    between atoms: N_7  and  C_24 
REMARK    5  A    between atoms: P_8  and  C_23 
REMARK    6  A    between atoms: C_11  and  C_14 
REMARK    7  A    between atoms: C_15  and  C_18 
REMARK    8  A    between atoms: C_15  and  C_23 
REMARK    9  A    between atoms: C_21  and  C_26 
REMARK   10  A    between atoms: C_24  and  C_25 
REMARK   11  A    between atoms: C_29  and  C_32 
ROOT
HETATM    1  O   UNL     1       4.340  14.787  89.884  1.00  0.00     0.000 OA
HETATM    2  N   UNL     1       2.932  13.590  92.048  1.00  0.00     0.000 N 
HETATM    3  C   UNL     1       4.046  14.520  92.278  1.00  0.00     0.000 C 
HETATM    4  C   UNL     1       3.117  12.889  90.770  1.00  0.00     0.000 C 
HETATM    5  C   UNL     1       4.153  15.497  91.110  1.00  0.00     0.000 C 
HETATM    6  C   UNL     1       3.247  13.903  89.638  1.00  0.00     0.000 C 
ENDROOT
BRANCH   2   7
HETATM    7  C   UNL     1       2.817  12.637  93.151  1.00  0.00     0.000 C 
BRANCH   7   8
HETATM    8  C   UNL     1       3.859  11.572  93.092  1.00  0.00     0.000 A 
HETATM    9  C   UNL     1       5.171  11.858  93.471  1.00  0.00     0.000 A 
HETATM   10  C   UNL     1       6.146  10.863  93.414  1.00  0.00     0.000 A 
HETATM   11  C   UNL     1       5.808   9.582  92.980  1.00  0.00     0.000 A 
HETATM   12  C   UNL     1       4.499   9.294  92.602  1.00  0.00     0.000 A 
HETATM   13  C   UNL     1       3.523  10.289  92.658  1.00  0.00     0.000 A 
BRANCH  11  14
HETATM   14  C   UNL     1       6.809   8.560  92.924  1.00  0.00     0.000 C 
HETATM   15  C   UNL     1       7.649   7.702  92.878  1.00  0.00     0.000 C 
BRANCH  15  16
HETATM   16  C   UNL     1       8.648   6.680  92.822  1.00  0.00     0.000 A 
HETATM   17  C   UNL     1       9.531   6.510  93.889  1.00  0.00     0.000 A 
HETATM   18  C   UNL     1      10.504   5.512  93.836  1.00  0.00     0.000 A 
HETATM   19  C   UNL     1      10.572   4.707  92.718  1.00  0.00     0.000 A 
HETATM   20  C   UNL     1       9.711   4.855  91.650  1.00  0.00     0.000 A 
HETATM   21  C   UNL     1       8.738   5.853  91.703  1.00  0.00     0.000 A 
BRANCH  19  22
HETATM   22  C   UNL     1      11.609   3.645  92.661  1.00  0.00     0.000 C 
HETATM   23  O   UNL     1      11.282   2.502  92.349  1.00  0.00     0.000 OA
HETATM   24  N   UNL     1      12.906   4.046  92.949  1.00  0.00     0.000 N 
HETATM   25  HN  UNL     1      13.106   5.013  93.175  1.00  0.00     0.000 HD
BRANCH  24  26
HETATM   26  C   UNL     1      14.025   3.139  92.912  1.00  0.00     0.000 C 
BRANCH  26  27
HETATM   27  C   UNL     1      14.473   2.807  91.483  1.00  0.00     0.000 C 
HETATM   28  C   UNL     1      14.405   4.014  90.555  1.00  0.00     0.000 C 
BRANCH  27  29
HETATM   29  O   UNL     1      15.812   2.313  91.505  1.00  0.00     0.000 OA
HETATM   30  H   UNL     1      16.017   1.948  90.628  1.00  0.00     0.000 HD
ENDBRANCH  27  29
ENDBRANCH  26  27
BRANCH  26  31
HETATM   31  C   UNL     1      15.159   3.764  93.718  1.00  0.00     0.000 C 
HETATM   32  O   UNL     1      15.238   4.972  93.937  1.00  0.00     0.000 OA
BRANCH  31  33
HETATM   33  P   UNL     1      16.083   2.832  94.124  1.00  0.00     0.000 P 
HETATM   34  H   UNL     1      16.072   2.800  95.504  1.00  0.00     0.000 HD
BRANCH  33  35
HETATM   35  O   UNL     1      17.403   3.060  93.709  1.00  0.00     0.000 OA
HETATM   36  H   UNL     1      17.329   3.975  93.389  1.00  0.00     0.000 HD
ENDBRANCH  33  35
ENDBRANCH  31  33
ENDBRANCH  26  31
ENDBRANCH  24  26
ENDBRANCH  19  22
ENDBRANCH  15  16
ENDBRANCH  11  14
ENDBRANCH   7   8
ENDBRANCH   2   7
TORSDOF 11
ENDMDL
MODEL 6
REMARK VINA RESULT:      -4.9      3.695     12.539
REMARK  11 active torsions:
REMARK  status: ('A' for Active; 'I' for Inactive)
REMARK    1  A    between atoms: O_2  and  C_18 
REMARK    2  A    between atoms: O_5  and  P_8 
REMARK    3  A    between atoms: N_6  and  C_11 
REMARK    4  A    between atoms: N_7  and  C_15 
REMARK       I    between atoms: N_7  and  C_24 
REMARK    5  A    between atoms: P_8  and  C_23 
REMARK    6  A    between atoms: C_11  and  C_14 
REMARK    7  A    between atoms: C_15  and  C_18 
REMARK    8  A    between atoms: C_15  and  C_23 
REMARK    9  A    between atoms: C_21  and  C_26 
REMARK   10  A    between atoms: C_24  and  C_25 
REMARK   11  A    between atoms: C_29  and  C_32 
ROOT
HETATM    1  O   UNL     1       2.695  14.801  93.549  1.00  0.00     0.000 OA
HETATM    2  N   UNL     1       3.113  14.246  90.789  1.00  0.00     0.000 N 
HETATM    3  C   UNL     1       1.975  13.676  91.522  1.00  0.00     0.000 C 
HETATM    4  C   UNL     1       4.238  14.477  91.706  1.00  0.00     0.000 C 
HETATM    5  C   UNL     1       1.584  14.602  92.671  1.00  0.00     0.000 C 
HETATM    6  C   UNL     1       3.795  15.383  92.850  1.00  0.00     0.000 C 
ENDROOT
BRANCH   2   7
HETATM    7  C   UNL     1       3.512  13.369  89.689  1.00  0.00     0.000 C 
BRANCH   7   8
HETATM    8  C   UNL     1       4.465  12.309  90.124  1.00  0.00     0.000 A 
HETATM    9  C   UNL     1       4.327  11.723  91.383  1.00  0.00     0.000 A 
HETATM   10  C   UNL     1       5.219  10.732  91.792  1.00  0.00     0.000 A 
HETATM   11  C   UNL     1       6.247  10.326  90.941  1.00  0.00     0.000 A 
HETATM   12  C   UNL     1       6.385  10.910  89.684  1.00  0.00     0.000 A 
HETATM   13  C   UNL     1       5.493  11.902  89.275  1.00  0.00     0.000 A 
BRANCH  11  14
HETATM   14  C   UNL     1       7.161   9.308  91.360  1.00  0.00     0.000 C 
HETATM   15  C   UNL     1       7.929   8.453  91.712  1.00  0.00     0.000 C 
BRANCH  15  16
HETATM   16  C   UNL     1       8.843   7.436  92.130  1.00  0.00     0.000 A 
HETATM   17  C   UNL     1       9.150   7.289  93.483  1.00  0.00     0.000 A 
HETATM   18  C   UNL     1      10.040   6.296  93.891  1.00  0.00     0.000 A 
HETATM   19  C   UNL     1      10.601   5.471  92.938  1.00  0.00     0.000 A 
HETATM   20  C   UNL     1      10.314   5.596  91.595  1.00  0.00     0.000 A 
HETATM   21  C   UNL     1       9.424   6.589  91.186  1.00  0.00     0.000 A 
BRANCH  19  22
HETATM   22  C   UNL     1      11.550   4.414  93.373  1.00  0.00     0.000 C 
HETATM   23  O   UNL     1      11.154   3.522  94.120  1.00  0.00     0.000 OA
HETATM   24  N   UNL     1      12.839   4.508  92.867  1.00  0.00     0.000 N 
HETATM   25  HN  UNL     1      13.088   5.259  92.234  1.00  0.00     0.000 HD
BRANCH  24  26
HETATM   26  C   UNL     1      13.866   3.546  93.177  1.00  0.00     0.000 C 
BRANCH  26  27
HETATM   27  C   UNL     1      13.815   2.310  92.269  1.00  0.00     0.000 C 
HETATM   28  C   UNL     1      14.174   1.027  93.009  1.00  0.00     0.000 C 
BRANCH  27  29
HETATM   29  O   UNL     1      12.505   2.177  91.718  1.00  0.00     0.000 OA
HETATM   30  H   UNL     1      12.169   1.293  91.942  1.00  0.00     0.000 HD
ENDBRANCH  27  29
ENDBRANCH  26  27
BRANCH  26  31
HETATM   31  C   UNL     1      15.213   4.253  93.075  1.00  0.00     0.000 C 
HETATM   32  O   UNL     1      15.503   5.012  92.151  1.00  0.00     0.000 OA
BRANCH  31  33
HETATM   33  P   UNL     1      16.058   3.912  94.103  1.00  0.00     0.000 P 
HETATM   34  H   UNL     1      16.804   5.028  94.426  1.00  0.00     0.000 HD
BRANCH  33  35
HETATM   35  O   UNL     1      16.947   2.861  93.839  1.00  0.00     0.000 OA
HETATM   36  H   UNL     1      17.491   2.886  94.645  1.00  0.00     0.000 HD
ENDBRANCH  33  35
ENDBRANCH  31  33
ENDBRANCH  26  31
ENDBRANCH  24  26
ENDBRANCH  19  22
ENDBRANCH  15  16
ENDBRANCH  11  14
ENDBRANCH   7   8
ENDBRANCH   2   7
TORSDOF 11
ENDMDL
MODEL 7
REMARK VINA RESULT:      -4.9      3.491     12.755
REMARK  11 active torsions:
REMARK  status: ('A' for Active; 'I' for Inactive)
REMARK    1  A    between atoms: O_2  and  C_18 
REMARK    2  A    between atoms: O_5  and  P_8 
REMARK    3  A    between atoms: N_6  and  C_11 
REMARK    4  A    between atoms: N_7  and  C_15 
REMARK       I    between atoms: N_7  and  C_24 
REMARK    5  A    between atoms: P_8  and  C_23 
REMARK    6  A    between atoms: C_11  and  C_14 
REMARK    7  A    between atoms: C_15  and  C_18 
REMARK    8  A    between atoms: C_15  and  C_23 
REMARK    9  A    between atoms: C_21  and  C_26 
REMARK   10  A    between atoms: C_24  and  C_25 
REMARK   11  A    between atoms: C_29  and  C_32 
ROOT
HETATM    1  O   UNL     1       1.662  15.308  92.925  1.00  0.00     0.000 OA
HETATM    2  N   UNL     1       3.434  13.497  91.627  1.00  0.00     0.000 N 
HETATM    3  C   UNL     1       3.894  14.805  92.115  1.00  0.00     0.000 C 
HETATM    4  C   UNL     1       2.008  13.564  91.275  1.00  0.00     0.000 C 
HETATM    5  C   UNL     1       3.039  15.244  93.301  1.00  0.00     0.000 C 
HETATM    6  C   UNL     1       1.199  14.033  92.480  1.00  0.00     0.000 C 
ENDROOT
BRANCH   2   7
HETATM    7  C   UNL     1       4.232  13.061  90.483  1.00  0.00     0.000 C 
BRANCH   7   8
HETATM    8  C   UNL     1       5.141  11.930  90.823  1.00  0.00     0.000 A 
HETATM    9  C   UNL     1       5.384  11.609  92.159  1.00  0.00     0.000 A 
HETATM   10  C   UNL     1       6.237  10.553  92.478  1.00  0.00     0.000 A 
HETATM   11  C   UNL     1       6.844   9.816  91.462  1.00  0.00     0.000 A 
HETATM   12  C   UNL     1       6.602  10.136  90.127  1.00  0.00     0.000 A 
HETATM   13  C   UNL     1       5.750  11.193  89.807  1.00  0.00     0.000 A 
BRANCH  11  14
HETATM   14  C   UNL     1       7.717   8.731  91.789  1.00  0.00     0.000 C 
HETATM   15  C   UNL     1       8.451   7.819  92.064  1.00  0.00     0.000 C 
BRANCH  15  16
HETATM   16  C   UNL     1       9.324   6.735  92.393  1.00  0.00     0.000 A 
HETATM   17  C   UNL     1       9.745   5.854  91.396  1.00  0.00     0.000 A 
HETATM   18  C   UNL     1      10.598   4.798  91.716  1.00  0.00     0.000 A 
HETATM   19  C   UNL     1      11.012   4.648  93.023  1.00  0.00     0.000 A 
HETATM   20  C   UNL     1      10.609   5.505  94.026  1.00  0.00     0.000 A 
HETATM   21  C   UNL     1       9.756   6.561  93.707  1.00  0.00     0.000 A 
BRANCH  19  22
HETATM   22  C   UNL     1      11.920   3.522  93.364  1.00  0.00     0.000 C 
HETATM   23  O   UNL     1      11.451   2.394  93.500  1.00  0.00     0.000 OA
HETATM   24  N   UNL     1      13.266   3.840  93.480  1.00  0.00     0.000 N 
HETATM   25  HN  UNL     1      13.583   4.790  93.329  1.00  0.00     0.000 HD
BRANCH  24  26
HETATM   26  C   UNL     1      14.272   2.854  93.782  1.00  0.00     0.000 C 
BRANCH  26  27
HETATM   27  C   UNL     1      14.356   1.748  92.722  1.00  0.00     0.000 C 
HETATM   28  C   UNL     1      15.209   2.150  91.525  1.00  0.00     0.000 C 
BRANCH  27  29
HETATM   29  O   UNL     1      14.905   0.567  93.307  1.00  0.00     0.000 OA
HETATM   30  H   UNL     1      15.370   0.071  92.612  1.00  0.00     0.000 HD
ENDBRANCH  27  29
ENDBRANCH  26  27
BRANCH  26  31
HETATM   31  C   UNL     1      15.605   3.580  93.933  1.00  0.00     0.000 C 
HETATM   32  O   UNL     1      16.669   2.993  94.123  1.00  0.00     0.000 OA
BRANCH  31  33
HETATM   33  P   UNL     1      15.463   4.945  93.870  1.00  0.00     0.000 P 
HETATM   34  H   UNL     1      14.654   5.236  92.790  1.00  0.00     0.000 HD
BRANCH  33  35
HETATM   35  O   UNL     1      16.650   5.676  93.727  1.00  0.00     0.000 OA
HETATM   36  H   UNL     1      16.339   6.407  93.167  1.00  0.00     0.000 HD
ENDBRANCH  33  35
ENDBRANCH  31  33
ENDBRANCH  26  31
ENDBRANCH  24  26
ENDBRANCH  19  22
ENDBRANCH  15  16
ENDBRANCH  11  14
ENDBRANCH   7   8
ENDBRANCH   2   7
TORSDOF 11
ENDMDL
MODEL 8
REMARK VINA RESULT:      -4.4      3.209     12.402
REMARK  11 active torsions:
REMARK  status: ('A' for Active; 'I' for Inactive)
REMARK    1  A    between atoms: O_2  and  C_18 
REMARK    2  A    between atoms: O_5  and  P_8 
REMARK    3  A    between atoms: N_6  and  C_11 
REMARK    4  A    between atoms: N_7  and  C_15 
REMARK       I    between atoms: N_7  and  C_24 
REMARK    5  A    between atoms: P_8  and  C_23 
REMARK    6  A    between atoms: C_11  and  C_14 
REMARK    7  A    between atoms: C_15  and  C_18 
REMARK    8  A    between atoms: C_15  and  C_23 
REMARK    9  A    between atoms: C_21  and  C_26 
REMARK   10  A    between atoms: C_24  and  C_25 
REMARK   11  A    between atoms: C_29  and  C_32 
ROOT
HETATM    1  O   UNL     1       5.613  14.474  88.590  1.00  0.00     0.000 OA
HETATM    2  N   UNL     1       3.934  12.964  90.324  1.00  0.00     0.000 N 
HETATM    3  C   UNL     1       4.501  14.256  90.736  1.00  0.00     0.000 C 
HETATM    4  C   UNL     1       4.825  12.311  89.355  1.00  0.00     0.000 C 
HETATM    5  C   UNL     1       4.738  15.132  89.509  1.00  0.00     0.000 C 
HETATM    6  C   UNL     1       5.055  13.232  88.161  1.00  0.00     0.000 C 
ENDROOT
BRANCH   2   7
HETATM    7  C   UNL     1       3.709  12.104  91.484  1.00  0.00     0.000 C 
BRANCH   7   8
HETATM    8  C   UNL     1       4.751  11.047  91.619  1.00  0.00     0.000 A 
HETATM    9  C   UNL     1       4.807  10.002  90.696  1.00  0.00     0.000 A 
HETATM   10  C   UNL     1       5.780   9.011  90.822  1.00  0.00     0.000 A 
HETATM   11  C   UNL     1       6.698   9.067  91.871  1.00  0.00     0.000 A 
HETATM   12  C   UNL     1       6.643  10.110  92.793  1.00  0.00     0.000 A 
HETATM   13  C   UNL     1       5.670  11.101  92.667  1.00  0.00     0.000 A 
BRANCH  11  14
HETATM   14  C   UNL     1       7.698   8.052  91.999  1.00  0.00     0.000 C 
HETATM   15  C   UNL     1       8.538   7.198  92.107  1.00  0.00     0.000 C 
BRANCH  15  16
HETATM   16  C   UNL     1       9.536   6.183  92.234  1.00  0.00     0.000 A 
HETATM   17  C   UNL     1       9.563   5.115  91.337  1.00  0.00     0.000 A 
HETATM   18  C   UNL     1      10.539   4.126  91.460  1.00  0.00     0.000 A 
HETATM   19  C   UNL     1      11.466   4.227  92.476  1.00  0.00     0.000 A 
HETATM   20  C   UNL     1      11.461   5.273  93.375  1.00  0.00     0.000 A 
HETATM   21  C   UNL     1      10.485   6.262  93.254  1.00  0.00     0.000 A 
BRANCH  19  22
HETATM   22  C   UNL     1      12.504   3.173  92.607  1.00  0.00     0.000 C 
HETATM   23  O   UNL     1      12.178   1.993  92.503  1.00  0.00     0.000 OA
HETATM   24  N   UNL     1      13.801   3.619  92.820  1.00  0.00     0.000 N 
HETATM   25  HN  UNL     1      14.000   4.612  92.870  1.00  0.00     0.000 HD
BRANCH  24  26
HETATM   26  C   UNL     1      14.921   2.721  92.944  1.00  0.00     0.000 C 
BRANCH  26  27
HETATM   27  C   UNL     1      15.464   2.259  91.586  1.00  0.00     0.000 C 
HETATM   28  C   UNL     1      15.197   3.269  90.476  1.00  0.00     0.000 C 
BRANCH  27  29
HETATM   29  O   UNL     1      16.871   2.040  91.684  1.00  0.00     0.000 OA
HETATM   30  H   UNL     1      17.097   1.925  92.623  1.00  0.00     0.000 HD
ENDBRANCH  27  29
ENDBRANCH  26  27
BRANCH  26  31
HETATM   31  C   UNL     1      15.997   3.427  93.761  1.00  0.00     0.000 C 
HETATM   32  O   UNL     1      17.057   2.891  94.078  1.00  0.00     0.000 OA
BRANCH  31  33
HETATM   33  P   UNL     1      15.623   4.698  94.124  1.00  0.00     0.000 P 
HETATM   34  H   UNL     1      14.251   4.786  94.002  1.00  0.00     0.000 HD
BRANCH  33  35
HETATM   35  O   UNL     1      16.188   5.739  93.372  1.00  0.00     0.000 OA
HETATM   36  H   UNL     1      15.990   6.497  93.948  1.00  0.00     0.000 HD
ENDBRANCH  33  35
ENDBRANCH  31  33
ENDBRANCH  26  31
ENDBRANCH  24  26
ENDBRANCH  19  22
ENDBRANCH  15  16
ENDBRANCH  11  14
ENDBRANCH   7   8
ENDBRANCH   2   7
TORSDOF 11
ENDMDL
