MODEL 1
REMARK VINA RESULT:      -6.3      0.000      0.000
REMARK  12 active torsions:
REMARK  status: ('A' for Active; 'I' for Inactive)
REMARK    1  A    between atoms: O_2  and  C_16 
REMARK    2  A    between atoms: N_5  and  C_9 
REMARK    3  A    between atoms: N_6  and  C_13 
REMARK       I    between atoms: N_6  and  C_22 
REMARK    4  A    between atoms: C_9  and  C_12 
REMARK    5  A    between atoms: C_13  and  C_16 
REMARK    6  A    between atoms: C_13  and  C_21 
REMARK    7  A    between atoms: C_19  and  C_24 
REMARK    8  A    between atoms: C_21  and  C_33 
REMARK    9  A    between atoms: C_22  and  C_23 
REMARK   10  A    between atoms: C_27  and  C_30 
REMARK   11  A    between atoms: C_33  and  C_34 
REMARK   12  A    between atoms: C_34  and  C_35 
ROOT
HETATM    1  O   UNL     1      16.817   3.739  93.862  1.00  0.00    -0.350 OA
HETATM    2  N   UNL     1      14.259   3.121  92.777  1.00  0.00     0.147 N 
HETATM    3  C   UNL     1      15.283   2.085  92.968  1.00  0.00     0.283 C 
HETATM    4  C   UNL     1      14.898   4.424  92.545  1.00  0.00     0.283 C 
HETATM    5  C   UNL     1      16.204   2.475  94.121  1.00  0.00     0.178 C 
HETATM    6  C   UNL     1      15.828   4.759  93.706  1.00  0.00     0.178 C 
ENDROOT
BRANCH   2   7
HETATM    7  C   UNL     1      13.370   2.774  91.670  1.00  0.00     0.277 C 
BRANCH   7   8
HETATM    8  C   UNL     1      12.178   3.665  91.597  1.00  0.00     0.011 A 
HETATM    9  C   UNL     1      11.706   4.096  90.356  1.00  0.00    -0.002 A 
HETATM   10  C   UNL     1      10.591   4.932  90.287  1.00  0.00     0.008 A 
HETATM   11  C   UNL     1       9.949   5.335  91.457  1.00  0.00     0.042 A 
HETATM   12  C   UNL     1      10.419   4.905  92.696  1.00  0.00     0.008 A 
HETATM   13  C   UNL     1      11.534   4.070  92.766  1.00  0.00    -0.002 A 
BRANCH  11  14
HETATM   14  C   UNL     1       8.805   6.191  91.385  1.00  0.00    -0.059 C 
HETATM   15  C   UNL     1       7.844   6.911  91.325  1.00  0.00    -0.059 C 
BRANCH  15  16
HETATM   16  C   UNL     1       6.700   7.767  91.253  1.00  0.00     0.042 A 
HETATM   17  C   UNL     1       6.648   8.926  92.027  1.00  0.00     0.008 A 
HETATM   18  C   UNL     1       5.534   9.762  91.954  1.00  0.00     0.005 A 
HETATM   19  C   UNL     1       4.499   9.421  91.109  1.00  0.00     0.056 A 
HETATM   20  C   UNL     1       4.526   8.281  90.334  1.00  0.00     0.005 A 
HETATM   21  C   UNL     1       5.640   7.444  90.406  1.00  0.00     0.008 A 
BRANCH  19  22
HETATM   22  C   UNL     1       3.311  10.311  91.033  1.00  0.00     0.254 C 
HETATM   23  O   UNL     1       2.248   9.858  90.618  1.00  0.00    -0.268 OA
HETATM   24  N   UNL     1       3.499  11.614  91.473  1.00  0.00    -0.335 N 
HETATM   25  HN  UNL     1       4.401  11.911  91.827  1.00  0.00     0.164 HD
BRANCH  24  26
HETATM   26  C   UNL     1       2.438  12.589  91.485  1.00  0.00     0.166 C 
BRANCH  26  27
HETATM   27  C   UNL     1       2.208  13.199  92.873  1.00  0.00     0.138 C 
HETATM   28  C   UNL     1       3.504  13.370  93.658  1.00  0.00     0.034 C 
BRANCH  27  29
HETATM   29  O   UNL     1       1.578  14.472  92.737  1.00  0.00    -0.383 OA
HETATM   30  H   UNL     1       1.332  14.592  91.804  1.00  0.00     0.210 HD
ENDBRANCH  27  29
ENDBRANCH  26  27
BRANCH  26  31
HETATM   31  C   UNL     1       2.781  13.663  90.457  1.00  0.00     0.181 C 
HETATM   32  O   UNL     1       2.092  14.666  90.282  1.00  0.00    -0.294 OA
BRANCH  31  33
HETATM   33  C   UNL     1       4.307  14.184  90.618  1.00  0.00     0.138 C 
BRANCH  33  34
HETATM   34  C   UNL     1       4.711  14.269  89.267  1.00  0.00     0.208 C 
HETATM   35  O   UNL     1       5.003  15.372  88.866  1.00  0.00    -0.289 OA
BRANCH  34  36
HETATM   36  C   UNL     1       5.107  13.291  88.396  1.00  0.00     0.194 C 
HETATM   37  O   UNL     1       5.041  11.898  88.510  1.00  0.00    -0.185 OA
ENDBRANCH  34  36
ENDBRANCH  33  34
ENDBRANCH  31  33
ENDBRANCH  26  31
ENDBRANCH  24  26
ENDBRANCH  19  22
ENDBRANCH  15  16
ENDBRANCH  11  14
ENDBRANCH   7   8
ENDBRANCH   2   7
TORSDOF 12
ENDMDL
MODEL 2
REMARK VINA RESULT:      -5.9      1.148      1.686
REMARK  12 active torsions:
REMARK  status: ('A' for Active; 'I' for Inactive)
REMARK    1  A    between atoms: O_2  and  C_16 
REMARK    2  A    between atoms: N_5  and  C_9 
REMARK    3  A    between atoms: N_6  and  C_13 
REMARK       I    between atoms: N_6  and  C_22 
REMARK    4  A    between atoms: C_9  and  C_12 
REMARK    5  A    between atoms: C_13  and  C_16 
REMARK    6  A    between atoms: C_13  and  C_21 
REMARK    7  A    between atoms: C_19  and  C_24 
REMARK    8  A    between atoms: C_21  and  C_33 
REMARK    9  A    between atoms: C_22  and  C_23 
REMARK   10  A    between atoms: C_27  and  C_30 
REMARK   11  A    between atoms: C_33  and  C_34 
REMARK   12  A    between atoms: C_34  and  C_35 
ROOT
HETATM    1  O   UNL     1      16.299   4.436  94.090  1.00  0.00    -0.350 OA
HETATM    2  N   UNL     1      14.696   2.832  92.370  1.00  0.00     0.147 N 
HETATM    3  C   UNL     1      14.625   4.299  92.338  1.00  0.00     0.283 C 
HETATM    4  C   UNL     1      15.076   2.375  93.714  1.00  0.00     0.283 C 
HETATM    5  C   UNL     1      15.962   4.891  92.778  1.00  0.00     0.178 C 
HETATM    6  C   UNL     1      16.400   3.011  94.123  1.00  0.00     0.178 C 
ENDROOT
BRANCH   2   7
HETATM    7  C   UNL     1      13.422   2.243  91.962  1.00  0.00     0.277 C 
BRANCH   7   8
HETATM    8  C   UNL     1      12.316   3.243  91.937  1.00  0.00     0.011 A 
HETATM    9  C   UNL     1      11.868   3.816  93.128  1.00  0.00    -0.002 A 
HETATM   10  C   UNL     1      10.833   4.750  93.106  1.00  0.00     0.008 A 
HETATM   11  C   UNL     1      10.247   5.112  91.893  1.00  0.00     0.042 A 
HETATM   12  C   UNL     1      10.694   4.541  90.704  1.00  0.00     0.008 A 
HETATM   13  C   UNL     1      11.729   3.606  90.725  1.00  0.00    -0.002 A 
BRANCH  11  14
HETATM   14  C   UNL     1       9.187   6.072  91.871  1.00  0.00    -0.059 C 
HETATM   15  C   UNL     1       8.295   6.879  91.851  1.00  0.00    -0.059 C 
BRANCH  15  16
HETATM   16  C   UNL     1       7.235   7.837  91.828  1.00  0.00     0.042 A 
HETATM   17  C   UNL     1       7.251   8.915  92.714  1.00  0.00     0.008 A 
HETATM   18  C   UNL     1       6.217   9.851  92.690  1.00  0.00     0.005 A 
HETATM   19  C   UNL     1       5.193   9.690  91.780  1.00  0.00     0.056 A 
HETATM   20  C   UNL     1       5.154   8.634  90.895  1.00  0.00     0.005 A 
HETATM   21  C   UNL     1       6.187   7.697  90.918  1.00  0.00     0.008 A 
BRANCH  19  22
HETATM   22  C   UNL     1       4.091  10.687  91.756  1.00  0.00     0.254 C 
HETATM   23  O   UNL     1       2.927  10.295  91.744  1.00  0.00    -0.268 OA
HETATM   24  N   UNL     1       4.477  12.020  91.774  1.00  0.00    -0.335 N 
HETATM   25  HN  UNL     1       5.459  12.270  91.810  1.00  0.00     0.164 HD
BRANCH  24  26
HETATM   26  C   UNL     1       3.526  13.103  91.779  1.00  0.00     0.166 C 
BRANCH  26  27
HETATM   27  C   UNL     1       3.824  14.150  92.859  1.00  0.00     0.138 C 
HETATM   28  C   UNL     1       2.557  14.760  93.446  1.00  0.00     0.034 C 
BRANCH  27  29
HETATM   29  O   UNL     1       4.580  13.550  93.910  1.00  0.00    -0.383 OA
HETATM   30  H   UNL     1       5.150  12.864  93.523  1.00  0.00     0.210 HD
ENDBRANCH  27  29
ENDBRANCH  26  27
BRANCH  26  31
HETATM   31  C   UNL     1       3.525  13.727  90.387  1.00  0.00     0.181 C 
HETATM   32  O   UNL     1       3.223  14.901  90.180  1.00  0.00    -0.294 OA
BRANCH  31  33
HETATM   33  C   UNL     1       4.927  13.477  89.613  1.00  0.00     0.138 C 
BRANCH  33  34
HETATM   34  C   UNL     1       4.476  12.871  88.419  1.00  0.00     0.208 C 
HETATM   35  O   UNL     1       4.953  13.297  87.393  1.00  0.00    -0.289 OA
BRANCH  34  36
HETATM   36  C   UNL     1       3.809  11.693  88.220  1.00  0.00     0.194 C 
HETATM   37  O   UNL     1       4.188  10.548  87.510  1.00  0.00    -0.185 OA
ENDBRANCH  34  36
ENDBRANCH  33  34
ENDBRANCH  31  33
ENDBRANCH  26  31
ENDBRANCH  24  26
ENDBRANCH  19  22
ENDBRANCH  15  16
ENDBRANCH  11  14
ENDBRANCH   7   8
ENDBRANCH   2   7
TORSDOF 12
ENDMDL
MODEL 3
REMARK VINA RESULT:      -4.9      2.515     12.718
REMARK  12 active torsions:
REMARK  status: ('A' for Active; 'I' for Inactive)
REMARK    1  A    between atoms: O_2  and  C_16 
REMARK    2  A    between atoms: N_5  and  C_9 
REMARK    3  A    between atoms: N_6  and  C_13 
REMARK       I    between atoms: N_6  and  C_22 
REMARK    4  A    between atoms: C_9  and  C_12 
REMARK    5  A    between atoms: C_13  and  C_16 
REMARK    6  A    between atoms: C_13  and  C_21 
REMARK    7  A    between atoms: C_19  and  C_24 
REMARK    8  A    between atoms: C_21  and  C_33 
REMARK    9  A    between atoms: C_22  and  C_23 
REMARK   10  A    between atoms: C_27  and  C_30 
REMARK   11  A    between atoms: C_33  and  C_34 
REMARK   12  A    between atoms: C_34  and  C_35 
ROOT
HETATM    1  O   UNL     1       3.038  14.707  93.929  1.00  0.00    -0.350 OA
HETATM    2  N   UNL     1       2.741  14.543  91.103  1.00  0.00     0.147 N 
HETATM    3  C   UNL     1       1.693  14.064  92.014  1.00  0.00     0.283 C 
HETATM    4  C   UNL     1       4.058  14.429  91.746  1.00  0.00     0.283 C 
HETATM    5  C   UNL     1       1.751  14.845  93.325  1.00  0.00     0.178 C 
HETATM    6  C   UNL     1       4.060  15.200  93.062  1.00  0.00     0.178 C 
ENDROOT
BRANCH   2   7
HETATM    7  C   UNL     1       2.711  13.802  89.844  1.00  0.00     0.277 C 
BRANCH   7   8
HETATM    8  C   UNL     1       3.700  12.686  89.818  1.00  0.00     0.011 A 
HETATM    9  C   UNL     1       4.961  12.885  89.255  1.00  0.00    -0.002 A 
HETATM   10  C   UNL     1       5.886  11.842  89.229  1.00  0.00     0.008 A 
HETATM   11  C   UNL     1       5.550  10.600  89.767  1.00  0.00     0.042 A 
HETATM   12  C   UNL     1       4.291  10.400  90.330  1.00  0.00     0.008 A 
HETATM   13  C   UNL     1       3.366  11.443  90.356  1.00  0.00    -0.002 A 
BRANCH  11  14
HETATM   14  C   UNL     1       6.500   9.530  89.742  1.00  0.00    -0.059 C 
HETATM   15  C   UNL     1       7.298   8.631  89.720  1.00  0.00    -0.059 C 
BRANCH  15  16
HETATM   16  C   UNL     1       8.248   7.563  89.695  1.00  0.00     0.042 A 
HETATM   17  C   UNL     1       7.843   6.264  90.007  1.00  0.00     0.008 A 
HETATM   18  C   UNL     1       8.770   5.222  89.979  1.00  0.00     0.005 A 
HETATM   19  C   UNL     1      10.077   5.500  89.640  1.00  0.00     0.056 A 
HETATM   20  C   UNL     1      10.501   6.775  89.328  1.00  0.00     0.005 A 
HETATM   21  C   UNL     1       9.576   7.818  89.356  1.00  0.00     0.008 A 
BRANCH  19  22
HETATM   22  C   UNL     1      11.064   4.389  89.613  1.00  0.00     0.254 C 
HETATM   23  O   UNL     1      11.125   3.666  88.622  1.00  0.00    -0.268 OA
HETATM   24  N   UNL     1      11.876   4.270  90.732  1.00  0.00    -0.335 N 
HETATM   25  HN  UNL     1      11.785   4.921  91.503  1.00  0.00     0.164 HD
BRANCH  24  26
HETATM   26  C   UNL     1      12.897   3.260  90.846  1.00  0.00     0.166 C 
BRANCH  26  27
HETATM   27  C   UNL     1      14.314   3.829  90.705  1.00  0.00     0.138 C 
HETATM   28  C   UNL     1      15.090   3.187  89.560  1.00  0.00     0.034 C 
BRANCH  27  29
HETATM   29  O   UNL     1      14.243   5.237  90.485  1.00  0.00    -0.383 OA
HETATM   30  H   UNL     1      15.129   5.613  90.625  1.00  0.00     0.210 HD
ENDBRANCH  27  29
ENDBRANCH  26  27
BRANCH  26  31
HETATM   31  C   UNL     1      12.711   2.559  92.187  1.00  0.00     0.181 C 
HETATM   32  O   UNL     1      12.026   1.547  92.325  1.00  0.00    -0.294 OA
BRANCH  31  33
HETATM   33  C   UNL     1      14.131   2.244  92.904  1.00  0.00     0.138 C 
BRANCH  33  34
HETATM   34  C   UNL     1      14.367   3.458  93.586  1.00  0.00     0.208 C 
HETATM   35  O   UNL     1      13.401   3.983  94.091  1.00  0.00    -0.289 OA
BRANCH  34  36
HETATM   36  C   UNL     1      15.536   4.014  94.030  1.00  0.00     0.194 C 
HETATM   37  O   UNL     1      16.095   5.271  93.771  1.00  0.00    -0.185 OA
ENDBRANCH  34  36
ENDBRANCH  33  34
ENDBRANCH  31  33
ENDBRANCH  26  31
ENDBRANCH  24  26
ENDBRANCH  19  22
ENDBRANCH  15  16
ENDBRANCH  11  14
ENDBRANCH   7   8
ENDBRANCH   2   7
TORSDOF 12
ENDMDL
MODEL 4
REMARK VINA RESULT:      -4.7      2.963     12.375
REMARK  12 active torsions:
REMARK  status: ('A' for Active; 'I' for Inactive)
REMARK    1  A    between atoms: O_2  and  C_16 
REMARK    2  A    between atoms: N_5  and  C_9 
REMARK    3  A    between atoms: N_6  and  C_13 
REMARK       I    between atoms: N_6  and  C_22 
REMARK    4  A    between atoms: C_9  and  C_12 
REMARK    5  A    between atoms: C_13  and  C_16 
REMARK    6  A    between atoms: C_13  and  C_21 
REMARK    7  A    between atoms: C_19  and  C_24 
REMARK    8  A    between atoms: C_21  and  C_33 
REMARK    9  A    between atoms: C_22  and  C_23 
REMARK   10  A    between atoms: C_27  and  C_30 
REMARK   11  A    between atoms: C_33  and  C_34 
REMARK   12  A    between atoms: C_34  and  C_35 
ROOT
HETATM    1  O   UNL     1       2.982  14.750  94.036  1.00  0.00    -0.350 OA
HETATM    2  N   UNL     1       2.826  14.873  91.196  1.00  0.00     0.147 N 
HETATM    3  C   UNL     1       1.801  14.184  91.992  1.00  0.00     0.283 C 
HETATM    4  C   UNL     1       4.119  14.830  91.894  1.00  0.00     0.283 C 
HETATM    5  C   UNL     1       1.714  14.814  93.380  1.00  0.00     0.178 C 
HETATM    6  C   UNL     1       3.978  15.444  93.283  1.00  0.00     0.178 C 
ENDROOT
BRANCH   2   7
HETATM    7  C   UNL     1       2.934  14.278  89.865  1.00  0.00     0.277 C 
BRANCH   7   8
HETATM    8  C   UNL     1       3.882  13.127  89.832  1.00  0.00     0.011 A 
HETATM    9  C   UNL     1       5.140  13.278  89.248  1.00  0.00    -0.002 A 
HETATM   10  C   UNL     1       6.026  12.201  89.215  1.00  0.00     0.008 A 
HETATM   11  C   UNL     1       5.655  10.976  89.768  1.00  0.00     0.042 A 
HETATM   12  C   UNL     1       4.399  10.825  90.352  1.00  0.00     0.008 A 
HETATM   13  C   UNL     1       3.512  11.901  90.385  1.00  0.00    -0.002 A 
BRANCH  11  14
HETATM   14  C   UNL     1       6.565   9.873  89.736  1.00  0.00    -0.059 C 
HETATM   15  C   UNL     1       7.330   8.945  89.709  1.00  0.00    -0.059 C 
BRANCH  15  16
HETATM   16  C   UNL     1       8.239   7.842  89.677  1.00  0.00     0.042 A 
HETATM   17  C   UNL     1       8.430   7.131  88.492  1.00  0.00     0.008 A 
HETATM   18  C   UNL     1       9.318   6.057  88.461  1.00  0.00     0.005 A 
HETATM   19  C   UNL     1       9.996   5.718  89.613  1.00  0.00     0.056 A 
HETATM   20  C   UNL     1       9.824   6.404  90.797  1.00  0.00     0.005 A 
HETATM   21  C   UNL     1       8.936   7.479  90.830  1.00  0.00     0.008 A 
BRANCH  19  22
HETATM   22  C   UNL     1      10.941   4.572  89.579  1.00  0.00     0.254 C 
HETATM   23  O   UNL     1      10.925   3.809  88.616  1.00  0.00    -0.268 OA
HETATM   24  N   UNL     1      11.807   4.466  90.659  1.00  0.00    -0.335 N 
HETATM   25  HN  UNL     1      11.780   5.148  91.407  1.00  0.00     0.164 HD
BRANCH  24  26
HETATM   26  C   UNL     1      12.797   3.424  90.759  1.00  0.00     0.166 C 
BRANCH  26  27
HETATM   27  C   UNL     1      14.209   3.969  91.014  1.00  0.00     0.138 C 
HETATM   28  C   UNL     1      15.295   3.068  90.436  1.00  0.00     0.034 C 
BRANCH  27  29
HETATM   29  O   UNL     1      14.330   5.269  90.438  1.00  0.00    -0.383 OA
HETATM   30  H   UNL     1      14.221   5.927  91.145  1.00  0.00     0.210 HD
ENDBRANCH  27  29
ENDBRANCH  26  27
BRANCH  26  31
HETATM   31  C   UNL     1      12.362   2.473  91.869  1.00  0.00     0.181 C 
HETATM   32  O   UNL     1      12.798   1.329  91.980  1.00  0.00    -0.294 OA
BRANCH  31  33
HETATM   33  C   UNL     1      12.499   3.153  93.334  1.00  0.00     0.138 C 
BRANCH  33  34
HETATM   34  C   UNL     1      11.344   3.965  93.368  1.00  0.00     0.208 C 
HETATM   35  O   UNL     1      10.344   3.489  92.883  1.00  0.00    -0.289 OA
BRANCH  34  36
HETATM   36  C   UNL     1      11.068   5.085  94.104  1.00  0.00     0.194 C 
HETATM   37  O   UNL     1       9.934   5.904  94.113  1.00  0.00    -0.185 OA
ENDBRANCH  34  36
ENDBRANCH  33  34
ENDBRANCH  31  33
ENDBRANCH  26  31
ENDBRANCH  24  26
ENDBRANCH  19  22
ENDBRANCH  15  16
ENDBRANCH  11  14
ENDBRANCH   7   8
ENDBRANCH   2   7
TORSDOF 12
ENDMDL
MODEL 5
REMARK VINA RESULT:      -4.3      1.245      2.081
REMARK  12 active torsions:
REMARK  status: ('A' for Active; 'I' for Inactive)
REMARK    1  A    between atoms: O_2  and  C_16 
REMARK    2  A    between atoms: N_5  and  C_9 
REMARK    3  A    between atoms: N_6  and  C_13 
REMARK       I    between atoms: N_6  and  C_22 
REMARK    4  A    between atoms: C_9  and  C_12 
REMARK    5  A    between atoms: C_13  and  C_16 
REMARK    6  A    between atoms: C_13  and  C_21 
REMARK    7  A    between atoms: C_19  and  C_24 
REMARK    8  A    between atoms: C_21  and  C_33 
REMARK    9  A    between atoms: C_22  and  C_23 
REMARK   10  A    between atoms: C_27  and  C_30 
REMARK   11  A    between atoms: C_33  and  C_34 
REMARK   12  A    between atoms: C_34  and  C_35 
ROOT
HETATM    1  O   UNL     1      16.590   2.906  93.797  1.00  0.00    -0.350 OA
HETATM    2  N   UNL     1      13.894   2.945  92.884  1.00  0.00     0.147 N 
HETATM    3  C   UNL     1      14.642   1.687  93.015  1.00  0.00     0.283 C 
HETATM    4  C   UNL     1      14.818   4.053  92.601  1.00  0.00     0.283 C 
HETATM    5  C   UNL     1      15.703   1.828  94.104  1.00  0.00     0.178 C 
HETATM    6  C   UNL     1      15.875   4.138  93.698  1.00  0.00     0.178 C 
ENDROOT
BRANCH   2   7
HETATM    7  C   UNL     1      12.878   2.836  91.838  1.00  0.00     0.277 C 
BRANCH   7   8
HETATM    8  C   UNL     1      11.826   3.885  91.958  1.00  0.00     0.011 A 
HETATM    9  C   UNL     1      11.444   4.349  93.217  1.00  0.00    -0.002 A 
HETATM   10  C   UNL     1      10.458   5.329  93.331  1.00  0.00     0.008 A 
HETATM   11  C   UNL     1       9.856   5.846  92.184  1.00  0.00     0.042 A 
HETATM   12  C   UNL     1      10.236   5.384  90.926  1.00  0.00     0.008 A 
HETATM   13  C   UNL     1      11.222   4.404  90.812  1.00  0.00    -0.002 A 
BRANCH  11  14
HETATM   14  C   UNL     1       8.846   6.853  92.300  1.00  0.00    -0.059 C 
HETATM   15  C   UNL     1       7.997   7.699  92.399  1.00  0.00    -0.059 C 
BRANCH  15  16
HETATM   16  C   UNL     1       6.989   8.706  92.514  1.00  0.00     0.042 A 
HETATM   17  C   UNL     1       5.727   8.494  91.958  1.00  0.00     0.008 A 
HETATM   18  C   UNL     1       4.742   9.475  92.074  1.00  0.00     0.005 A 
HETATM   19  C   UNL     1       5.041  10.644  92.743  1.00  0.00     0.056 A 
HETATM   20  C   UNL     1       6.280  10.877  93.301  1.00  0.00     0.005 A 
HETATM   21  C   UNL     1       7.266   9.897  93.186  1.00  0.00     0.008 A 
BRANCH  19  22
HETATM   22  C   UNL     1       3.992  11.690  92.864  1.00  0.00     0.254 C 
HETATM   23  O   UNL     1       4.081  12.528  93.758  1.00  0.00    -0.268 OA
HETATM   24  N   UNL     1       2.980  11.649  91.915  1.00  0.00    -0.335 N 
HETATM   25  HN  UNL     1       2.985  10.941  91.189  1.00  0.00     0.164 HD
BRANCH  24  26
HETATM   26  C   UNL     1       1.905  12.608  91.885  1.00  0.00     0.166 C 
BRANCH  26  27
HETATM   27  C   UNL     1       1.189  12.740  93.235  1.00  0.00     0.138 C 
HETATM   28  C   UNL     1       1.316  11.483  94.088  1.00  0.00     0.034 C 
BRANCH  27  29
HETATM   29  O   UNL     1       1.730  13.846  93.956  1.00  0.00    -0.383 OA
HETATM   30  H   UNL     1       2.695  13.737  94.004  1.00  0.00     0.210 HD
ENDBRANCH  27  29
ENDBRANCH  26  27
BRANCH  26  31
HETATM   31  C   UNL     1       2.486  13.944  91.433  1.00  0.00     0.181 C 
HETATM   32  O   UNL     1       3.531  14.408  91.887  1.00  0.00    -0.294 OA
BRANCH  31  33
HETATM   33  C   UNL     1       2.618  14.028  89.819  1.00  0.00     0.138 C 
BRANCH  33  34
HETATM   34  C   UNL     1       3.915  13.505  89.623  1.00  0.00     0.208 C 
HETATM   35  O   UNL     1       3.978  12.332  89.337  1.00  0.00    -0.289 OA
BRANCH  34  36
HETATM   36  C   UNL     1       5.107  14.144  89.416  1.00  0.00     0.194 C 
HETATM   37  O   UNL     1       5.387  15.505  89.251  1.00  0.00    -0.185 OA
ENDBRANCH  34  36
ENDBRANCH  33  34
ENDBRANCH  31  33
ENDBRANCH  26  31
ENDBRANCH  24  26
ENDBRANCH  19  22
ENDBRANCH  15  16
ENDBRANCH  11  14
ENDBRANCH   7   8
ENDBRANCH   2   7
TORSDOF 12
ENDMDL
MODEL 6
REMARK VINA RESULT:      -4.1      1.732      2.510
REMARK  12 active torsions:
REMARK  status: ('A' for Active; 'I' for Inactive)
REMARK    1  A    between atoms: O_2  and  C_16 
REMARK    2  A    between atoms: N_5  and  C_9 
REMARK    3  A    between atoms: N_6  and  C_13 
REMARK       I    between atoms: N_6  and  C_22 
REMARK    4  A    between atoms: C_9  and  C_12 
REMARK    5  A    between atoms: C_13  and  C_16 
REMARK    6  A    between atoms: C_13  and  C_21 
REMARK    7  A    between atoms: C_19  and  C_24 
REMARK    8  A    between atoms: C_21  and  C_33 
REMARK    9  A    between atoms: C_22  and  C_23 
REMARK   10  A    between atoms: C_27  and  C_30 
REMARK   11  A    between atoms: C_33  and  C_34 
REMARK   12  A    between atoms: C_34  and  C_35 
ROOT
HETATM    1  O   UNL     1      17.158   4.235  93.092  1.00  0.00    -0.350 OA
HETATM    2  N   UNL     1      14.866   2.573  93.382  1.00  0.00     0.147 N 
HETATM    3  C   UNL     1      15.873   2.318  92.342  1.00  0.00     0.283 C 
HETATM    4  C   UNL     1      14.820   4.007  93.698  1.00  0.00     0.283 C 
HETATM    5  C   UNL     1      17.233   2.838  92.801  1.00  0.00     0.178 C 
HETATM    6  C   UNL     1      16.204   4.488  94.124  1.00  0.00     0.178 C 
ENDROOT
BRANCH   2   7
HETATM    7  C   UNL     1      13.552   2.092  92.959  1.00  0.00     0.277 C 
BRANCH   7   8
HETATM    8  C   UNL     1      12.551   3.191  92.855  1.00  0.00     0.011 A 
HETATM    9  C   UNL     1      12.151   3.653  91.601  1.00  0.00    -0.002 A 
HETATM   10  C   UNL     1      11.216   4.683  91.502  1.00  0.00     0.008 A 
HETATM   11  C   UNL     1      10.680   5.249  92.659  1.00  0.00     0.042 A 
HETATM   12  C   UNL     1      11.078   4.789  93.912  1.00  0.00     0.008 A 
HETATM   13  C   UNL     1      12.013   3.759  94.010  1.00  0.00    -0.002 A 
BRANCH  11  14
HETATM   14  C   UNL     1       9.719   6.305  92.558  1.00  0.00    -0.059 C 
HETATM   15  C   UNL     1       8.912   7.192  92.473  1.00  0.00    -0.059 C 
BRANCH  15  16
HETATM   16  C   UNL     1       7.952   8.247  92.371  1.00  0.00     0.042 A 
HETATM   17  C   UNL     1       8.346   9.506  91.917  1.00  0.00     0.008 A 
HETATM   18  C   UNL     1       7.409  10.534  91.815  1.00  0.00     0.005 A 
HETATM   19  C   UNL     1       6.100  10.280  92.169  1.00  0.00     0.056 A 
HETATM   20  C   UNL     1       5.686   9.045  92.620  1.00  0.00     0.005 A 
HETATM   21  C   UNL     1       6.622   8.016  92.722  1.00  0.00     0.008 A 
BRANCH  19  22
HETATM   22  C   UNL     1       5.103  11.376  92.062  1.00  0.00     0.254 C 
HETATM   23  O   UNL     1       4.269  11.517  92.953  1.00  0.00    -0.268 OA
HETATM   24  N   UNL     1       5.212  12.191  90.944  1.00  0.00    -0.335 N 
HETATM   25  HN  UNL     1       5.943  12.030  90.261  1.00  0.00     0.164 HD
BRANCH  24  26
HETATM   26  C   UNL     1       4.335  13.310  90.711  1.00  0.00     0.166 C 
BRANCH  26  27
HETATM   27  C   UNL     1       5.036  14.478  90.006  1.00  0.00     0.138 C 
HETATM   28  C   UNL     1       5.413  14.149  88.565  1.00  0.00     0.034 C 
BRANCH  27  29
HETATM   29  O   UNL     1       4.182  15.621  90.011  1.00  0.00    -0.383 OA
HETATM   30  H   UNL     1       4.650  16.354  89.576  1.00  0.00     0.210 HD
ENDBRANCH  27  29
ENDBRANCH  26  27
BRANCH  26  31
HETATM   31  C   UNL     1       3.144  12.808  89.900  1.00  0.00     0.181 C 
HETATM   32  O   UNL     1       2.107  13.454  89.763  1.00  0.00    -0.294 OA
BRANCH  31  33
HETATM   33  C   UNL     1       3.584  12.337  88.413  1.00  0.00     0.138 C 
BRANCH  33  34
HETATM   34  C   UNL     1       3.131  10.999  88.404  1.00  0.00     0.208 C 
HETATM   35  O   UNL     1       2.231  10.747  87.636  1.00  0.00    -0.289 OA
BRANCH  34  36
HETATM   36  C   UNL     1       3.709   9.863  88.901  1.00  0.00     0.194 C 
HETATM   37  O   UNL     1       5.059   9.527  89.051  1.00  0.00    -0.185 OA
ENDBRANCH  34  36
ENDBRANCH  33  34
ENDBRANCH  31  33
ENDBRANCH  26  31
ENDBRANCH  24  26
ENDBRANCH  19  22
ENDBRANCH  15  16
ENDBRANCH  11  14
ENDBRANCH   7   8
ENDBRANCH   2   7
TORSDOF 12
ENDMDL
MODEL 7
REMARK VINA RESULT:      -3.3      2.047      3.612
REMARK  12 active torsions:
REMARK  status: ('A' for Active; 'I' for Inactive)
REMARK    1  A    between atoms: O_2  and  C_16 
REMARK    2  A    between atoms: N_5  and  C_9 
REMARK    3  A    between atoms: N_6  and  C_13 
REMARK       I    between atoms: N_6  and  C_22 
REMARK    4  A    between atoms: C_9  and  C_12 
REMARK    5  A    between atoms: C_13  and  C_16 
REMARK    6  A    between atoms: C_13  and  C_21 
REMARK    7  A    between atoms: C_19  and  C_24 
REMARK    8  A    between atoms: C_21  and  C_33 
REMARK    9  A    between atoms: C_22  and  C_23 
REMARK   10  A    between atoms: C_27  and  C_30 
REMARK   11  A    between atoms: C_33  and  C_34 
REMARK   12  A    between atoms: C_34  and  C_35 
ROOT
HETATM    1  O   UNL     1      17.627   4.242  93.496  1.00  0.00    -0.350 OA
HETATM    2  N   UNL     1      15.186   2.851  93.957  1.00  0.00     0.147 N 
HETATM    3  C   UNL     1      16.343   2.188  93.338  1.00  0.00     0.283 C 
HETATM    4  C   UNL     1      15.206   4.288  93.650  1.00  0.00     0.283 C 
HETATM    5  C   UNL     1      17.634   2.849  93.815  1.00  0.00     0.178 C 
HETATM    6  C   UNL     1      16.523   4.899  94.119  1.00  0.00     0.178 C 
ENDROOT
BRANCH   2   7
HETATM    7  C   UNL     1      13.937   2.240  93.505  1.00  0.00     0.277 C 
BRANCH   7   8
HETATM    8  C   UNL     1      12.907   3.255  93.145  1.00  0.00     0.011 A 
HETATM    9  C   UNL     1      12.043   3.748  94.123  1.00  0.00    -0.002 A 
HETATM   10  C   UNL     1      11.077   4.696  93.786  1.00  0.00     0.008 A 
HETATM   11  C   UNL     1      10.977   5.152  92.472  1.00  0.00     0.042 A 
HETATM   12  C   UNL     1      11.839   4.661  91.495  1.00  0.00     0.008 A 
HETATM   13  C   UNL     1      12.805   3.712  91.831  1.00  0.00    -0.002 A 
BRANCH  11  14
HETATM   14  C   UNL     1       9.987   6.126  92.128  1.00  0.00    -0.059 C 
HETATM   15  C   UNL     1       9.156   6.946  91.839  1.00  0.00    -0.059 C 
BRANCH  15  16
HETATM   16  C   UNL     1       8.168   7.920  91.494  1.00  0.00     0.042 A 
HETATM   17  C   UNL     1       8.531   9.054  90.767  1.00  0.00     0.008 A 
HETATM   18  C   UNL     1       7.567  10.002  90.429  1.00  0.00     0.005 A 
HETATM   19  C   UNL     1       6.261   9.796  90.823  1.00  0.00     0.056 A 
HETATM   20  C   UNL     1       5.877   8.683  91.542  1.00  0.00     0.005 A 
HETATM   21  C   UNL     1       6.841   7.734  91.881  1.00  0.00     0.008 A 
BRANCH  19  22
HETATM   22  C   UNL     1       5.234  10.808  90.464  1.00  0.00     0.254 C 
HETATM   23  O   UNL     1       5.338  11.950  90.904  1.00  0.00    -0.268 OA
HETATM   24  N   UNL     1       4.225  10.375  89.615  1.00  0.00    -0.335 N 
HETATM   25  HN  UNL     1       4.218   9.422  89.271  1.00  0.00     0.164 HD
BRANCH  24  26
HETATM   26  C   UNL     1       3.170  11.244  89.157  1.00  0.00     0.166 C 
BRANCH  26  27
HETATM   27  C   UNL     1       3.700  12.499  88.454  1.00  0.00     0.138 C 
HETATM   28  C   UNL     1       3.802  13.696  89.393  1.00  0.00     0.034 C 
BRANCH  27  29
HETATM   29  O   UNL     1       4.990  12.231  87.904  1.00  0.00    -0.383 OA
HETATM   30  H   UNL     1       5.581  12.965  88.139  1.00  0.00     0.210 HD
ENDBRANCH  27  29
ENDBRANCH  26  27
BRANCH  26  31
HETATM   31  C   UNL     1       2.265  10.432  88.236  1.00  0.00     0.181 C 
HETATM   32  O   UNL     1       1.583  10.942  87.349  1.00  0.00    -0.294 OA
BRANCH  31  33
HETATM   33  C   UNL     1       3.058   9.199  87.546  1.00  0.00     0.138 C 
BRANCH  33  34
HETATM   34  C   UNL     1       2.481   8.095  88.212  1.00  0.00     0.208 C 
HETATM   35  O   UNL     1       3.166   7.101  88.286  1.00  0.00    -0.289 OA
BRANCH  34  36
HETATM   36  C   UNL     1       1.397   8.029  89.044  1.00  0.00     0.194 C 
HETATM   37  O   UNL     1       1.328   8.016  90.441  1.00  0.00    -0.185 OA
ENDBRANCH  34  36
ENDBRANCH  33  34
ENDBRANCH  31  33
ENDBRANCH  26  31
ENDBRANCH  24  26
ENDBRANCH  19  22
ENDBRANCH  15  16
ENDBRANCH  11  14
ENDBRANCH   7   8
ENDBRANCH   2   7
TORSDOF 12
ENDMDL
