MODEL 1
REMARK VINA RESULT:      -7.5      0.000      0.000
REMARK  9 active torsions:
REMARK  status: ('A' for Active; 'I' for Inactive)
REMARK    1  A    between atoms: N_3  and  C_6 
REMARK    2  A    between atoms: C_6  and  C_9 
REMARK    3  A    between atoms: C_14  and  C_17 
REMARK       I    between atoms: N_26  and  C_15 
REMARK    4  A    between atoms: C_15  and  C_16 
REMARK    5  A    between atoms: C_20  and  C_23 
REMARK    6  A    between atoms: OG1_24  and  CB_28 
REMARK    7  A    between atoms: N_26  and  CA_27 
REMARK    8  A    between atoms: CA_27  and  CB_28 
REMARK    9  A    between atoms: CA_27  and  C_30 
ROOT
HETATM    1  O   UNK A   0       1.946   8.070  87.822  1.00  0.00    -0.388 OA
HETATM    2  N   UNK A   0       4.741   7.555  87.672  1.00  0.00     0.096 N 
HETATM    3  C   UNK A   0       4.217   8.924  87.771  1.00  0.00     0.299 C 
HETATM    4  C   UNK A   0       3.762   6.689  87.000  1.00  0.00     0.299 C 
HETATM    5  C   UNK A   0       2.877   8.913  88.503  1.00  0.00     0.198 C 
HETATM    6  C   UNK A   0       2.434   6.730  87.748  1.00  0.00     0.198 C 
ENDROOT
BRANCH   2   7
HETATM    7  C   UNK A   0       6.020   7.541  86.964  1.00  0.00     0.311 C 
BRANCH   7   8
HETATM    8  C   UNK A   0       7.113   6.938  87.779  1.00  0.00    -0.030 A 
HETATM    9  C   UNK A   0       6.872   6.566  89.102  1.00  0.00     0.010 A 
HETATM   10  C   UNK A   0       7.894   6.004  89.866  1.00  0.00     0.021 A 
HETATM   11  C   UNK A   0       9.157   5.813  89.307  1.00  0.00     0.018 A 
HETATM   12  C   UNK A   0       9.400   6.185  87.986  1.00  0.00     0.021 A 
HETATM   13  C   UNK A   0       8.378   6.747  87.222  1.00  0.00     0.010 A 
BRANCH  11  14
HETATM   14  C   UNK A   0      10.206   5.235  90.090  1.00  0.00    -0.061 C 
HETATM   15  C   UNK A   0      11.087   4.749  90.748  1.00  0.00    -0.061 C 
BRANCH  15  16
HETATM   16  C   UNK A   0      12.135   4.172  91.531  1.00  0.00     0.018 A 
HETATM   17  C   UNK A   0      11.898   3.820  92.860  1.00  0.00     0.022 A 
HETATM   18  C   UNK A   0      12.920   3.254  93.623  1.00  0.00     0.018 A 
HETATM   19  C   UNK A   0      14.154   3.054  93.040  1.00  0.00     0.032 A 
HETATM   20  C   UNK A   0      14.413   3.394  91.729  1.00  0.00     0.018 A 
HETATM   21  C   UNK A   0      13.392   3.960  90.965  1.00  0.00     0.022 A 
BRANCH  19  22
HETATM   22  C   UNK A   0      15.243   2.453  93.854  1.00  0.00     0.252 C 
HETATM   23  O   UNK A   0      16.394   2.857  93.707  1.00  0.00    -0.268 OA
ENDBRANCH  19  22
ENDBRANCH  15  16
ENDBRANCH  11  14
ENDBRANCH   7   8
ENDBRANCH   2   7
TORSDOF 9
ENDMDL
MODEL 2
REMARK VINA RESULT:      -7.5      0.185      1.024
REMARK  9 active torsions:
REMARK  status: ('A' for Active; 'I' for Inactive)
REMARK    1  A    between atoms: N_3  and  C_6 
REMARK    2  A    between atoms: C_6  and  C_9 
REMARK    3  A    between atoms: C_14  and  C_17 
REMARK       I    between atoms: N_26  and  C_15 
REMARK    4  A    between atoms: C_15  and  C_16 
REMARK    5  A    between atoms: C_20  and  C_23 
REMARK    6  A    between atoms: OG1_24  and  CB_28 
REMARK    7  A    between atoms: N_26  and  CA_27 
REMARK    8  A    between atoms: CA_27  and  CB_28 
REMARK    9  A    between atoms: CA_27  and  C_30 
ROOT
HETATM    1  O   UNK A   0       1.760   7.959  87.987  1.00  0.00    -0.388 OA
HETATM    2  N   UNK A   0       4.561   7.491  87.781  1.00  0.00     0.096 N 
HETATM    3  C   UNK A   0       4.015   8.852  87.888  1.00  0.00     0.299 C 
HETATM    4  C   UNK A   0       3.584   6.607  87.131  1.00  0.00     0.299 C 
HETATM    5  C   UNK A   0       2.691   8.819  88.647  1.00  0.00     0.198 C 
HETATM    6  C   UNK A   0       2.270   6.628  87.906  1.00  0.00     0.198 C 
ENDROOT
BRANCH   2   7
HETATM    7  C   UNK A   0       5.825   7.497  87.047  1.00  0.00     0.311 C 
BRANCH   7   8
HETATM    8  C   UNK A   0       6.943   6.905  87.837  1.00  0.00    -0.030 A 
HETATM    9  C   UNK A   0       6.754   6.592  89.184  1.00  0.00     0.010 A 
HETATM   10  C   UNK A   0       7.799   6.041  89.924  1.00  0.00     0.021 A 
HETATM   11  C   UNK A   0       9.032   5.800  89.317  1.00  0.00     0.018 A 
HETATM   12  C   UNK A   0       9.221   6.112  87.972  1.00  0.00     0.021 A 
HETATM   13  C   UNK A   0       8.176   6.664  87.231  1.00  0.00     0.010 A 
BRANCH  11  14
HETATM   14  C   UNK A   0      10.103   5.232  90.076  1.00  0.00    -0.061 C 
HETATM   15  C   UNK A   0      11.004   4.754  90.713  1.00  0.00    -0.061 C 
BRANCH  15  16
HETATM   16  C   UNK A   0      12.075   4.186  91.471  1.00  0.00     0.018 A 
HETATM   17  C   UNK A   0      13.317   3.976  90.871  1.00  0.00     0.022 A 
HETATM   18  C   UNK A   0      14.363   3.425  91.612  1.00  0.00     0.018 A 
HETATM   19  C   UNK A   0      14.144   3.098  92.934  1.00  0.00     0.032 A 
HETATM   20  C   UNK A   0      12.926   3.296  93.549  1.00  0.00     0.018 A 
HETATM   21  C   UNK A   0      11.879   3.847  92.809  1.00  0.00     0.022 A 
BRANCH  19  22
HETATM   22  C   UNK A   0      15.258   2.509  93.721  1.00  0.00     0.252 C 
HETATM   23  O   UNK A   0      16.307   3.136  93.837  1.00  0.00    -0.268 OA
ENDBRANCH  19  22
ENDBRANCH  15  16
ENDBRANCH  11  14
ENDBRANCH   7   8
ENDBRANCH   2   7
TORSDOF 9
ENDMDL
MODEL 3
REMARK VINA RESULT:      -7.5      0.139      1.016
REMARK  9 active torsions:
REMARK  status: ('A' for Active; 'I' for Inactive)
REMARK    1  A    between atoms: N_3  and  C_6 
REMARK    2  A    between atoms: C_6  and  C_9 
REMARK    3  A    between atoms: C_14  and  C_17 
REMARK       I    between atoms: N_26  and  C_15 
REMARK    4  A    between atoms: C_15  and  C_16 
REMARK    5  A    between atoms: C_20  and  C_23 
REMARK    6  A    between atoms: OG1_24  and  CB_28 
REMARK    7  A    between atoms: N_26  and  CA_27 
REMARK    8  A    between atoms: CA_27  and  CB_28 
REMARK    9  A    between atoms: CA_27  and  C_30 
ROOT
HETATM    1  O   UNK A   0       1.823   8.083  87.844  1.00  0.00    -0.388 OA
HETATM    2  N   UNK A   0       4.622   7.590  87.684  1.00  0.00     0.096 N 
HETATM    3  C   UNK A   0       4.086   8.956  87.768  1.00  0.00     0.299 C 
HETATM    4  C   UNK A   0       3.647   6.707  87.029  1.00  0.00     0.299 C 
HETATM    5  C   UNK A   0       2.751   8.943  88.508  1.00  0.00     0.198 C 
HETATM    6  C   UNK A   0       2.323   6.747  87.785  1.00  0.00     0.198 C 
ENDROOT
BRANCH   2   7
HETATM    7  C   UNK A   0       5.897   7.577  86.969  1.00  0.00     0.311 C 
BRANCH   7   8
HETATM    8  C   UNK A   0       6.995   6.974  87.776  1.00  0.00    -0.030 A 
HETATM    9  C   UNK A   0       8.232   6.712  87.185  1.00  0.00     0.010 A 
HETATM   10  C   UNK A   0       9.259   6.146  87.939  1.00  0.00     0.021 A 
HETATM   11  C   UNK A   0       9.050   5.843  89.284  1.00  0.00     0.018 A 
HETATM   12  C   UNK A   0       7.816   6.104  89.876  1.00  0.00     0.021 A 
HETATM   13  C   UNK A   0       6.788   6.670  89.122  1.00  0.00     0.010 A 
BRANCH  11  14
HETATM   14  C   UNK A   0      10.105   5.264  90.058  1.00  0.00    -0.061 C 
HETATM   15  C   UNK A   0      10.991   4.777  90.709  1.00  0.00    -0.061 C 
BRANCH  15  16
HETATM   16  C   UNK A   0      12.045   4.197  91.482  1.00  0.00     0.018 A 
HETATM   17  C   UNK A   0      11.816   3.834  92.809  1.00  0.00     0.022 A 
HETATM   18  C   UNK A   0      12.844   3.266  93.562  1.00  0.00     0.018 A 
HETATM   19  C   UNK A   0      14.075   3.074  92.972  1.00  0.00     0.032 A 
HETATM   20  C   UNK A   0      14.326   3.425  91.662  1.00  0.00     0.018 A 
HETATM   21  C   UNK A   0      13.299   3.993  90.908  1.00  0.00     0.022 A 
BRANCH  19  22
HETATM   22  C   UNK A   0      15.170   2.471  93.775  1.00  0.00     0.252 C 
HETATM   23  O   UNK A   0      16.225   3.086  93.908  1.00  0.00    -0.268 OA
ENDBRANCH  19  22
ENDBRANCH  15  16
ENDBRANCH  11  14
ENDBRANCH   7   8
ENDBRANCH   2   7
TORSDOF 9
ENDMDL
MODEL 4
REMARK VINA RESULT:      -7.1      1.090      1.557
REMARK  9 active torsions:
REMARK  status: ('A' for Active; 'I' for Inactive)
REMARK    1  A    between atoms: N_3  and  C_6 
REMARK    2  A    between atoms: C_6  and  C_9 
REMARK    3  A    between atoms: C_14  and  C_17 
REMARK       I    between atoms: N_26  and  C_15 
REMARK    4  A    between atoms: C_15  and  C_16 
REMARK    5  A    between atoms: C_20  and  C_23 
REMARK    6  A    between atoms: OG1_24  and  CB_28 
REMARK    7  A    between atoms: N_26  and  CA_27 
REMARK    8  A    between atoms: CA_27  and  CB_28 
REMARK    9  A    between atoms: CA_27  and  C_30 
ROOT
HETATM    1  O   UNK A   0       1.879   7.110  86.905  1.00  0.00    -0.388 OA
HETATM    2  N   UNK A   0       4.138   7.953  88.418  1.00  0.00     0.096 N 
HETATM    3  C   UNK A   0       2.929   8.782  88.318  1.00  0.00     0.299 C 
HETATM    4  C   UNK A   0       4.286   7.129  87.210  1.00  0.00     0.299 C 
HETATM    5  C   UNK A   0       1.710   7.892  88.090  1.00  0.00     0.198 C 
HETATM    6  C   UNK A   0       3.036   6.279  87.008  1.00  0.00     0.198 C 
ENDROOT
BRANCH   2   7
HETATM    7  C   UNK A   0       5.321   8.786  88.626  1.00  0.00     0.311 C 
BRANCH   7   8
HETATM    8  C   UNK A   0       6.468   8.015  89.186  1.00  0.00    -0.030 A 
HETATM    9  C   UNK A   0       7.715   8.069  88.562  1.00  0.00     0.010 A 
HETATM   10  C   UNK A   0       8.787   7.346  89.084  1.00  0.00     0.021 A 
HETATM   11  C   UNK A   0       8.613   6.572  90.231  1.00  0.00     0.018 A 
HETATM   12  C   UNK A   0       7.369   6.518  90.855  1.00  0.00     0.021 A 
HETATM   13  C   UNK A   0       6.296   7.240  90.333  1.00  0.00     0.010 A 
BRANCH  11  14
HETATM   14  C   UNK A   0       9.715   5.833  90.767  1.00  0.00    -0.061 C 
HETATM   15  C   UNK A   0      10.640   5.212  91.218  1.00  0.00    -0.061 C 
BRANCH  15  16
HETATM   16  C   UNK A   0      11.741   4.474  91.754  1.00  0.00     0.018 A 
HETATM   17  C   UNK A   0      11.712   4.046  93.082  1.00  0.00     0.022 A 
HETATM   18  C   UNK A   0      12.784   3.324  93.604  1.00  0.00     0.018 A 
HETATM   19  C   UNK A   0      13.861   3.045  92.789  1.00  0.00     0.032 A 
HETATM   20  C   UNK A   0      13.914   3.457  91.473  1.00  0.00     0.018 A 
HETATM   21  C   UNK A   0      12.842   4.179  90.950  1.00  0.00     0.022 A 
BRANCH  19  22
HETATM   22  C   UNK A   0      15.004   2.277  93.346  1.00  0.00     0.252 C 
HETATM   23  O   UNK A   0      16.090   2.834  93.484  1.00  0.00    -0.268 OA
ENDBRANCH  19  22
ENDBRANCH  15  16
ENDBRANCH  11  14
ENDBRANCH   7   8
ENDBRANCH   2   7
TORSDOF 9
ENDMDL
MODEL 5
REMARK VINA RESULT:      -6.9      1.492      2.282
REMARK  9 active torsions:
REMARK  status: ('A' for Active; 'I' for Inactive)
REMARK    1  A    between atoms: N_3  and  C_6 
REMARK    2  A    between atoms: C_6  and  C_9 
REMARK    3  A    between atoms: C_14  and  C_17 
REMARK       I    between atoms: N_26  and  C_15 
REMARK    4  A    between atoms: C_15  and  C_16 
REMARK    5  A    between atoms: C_20  and  C_23 
REMARK    6  A    between atoms: OG1_24  and  CB_28 
REMARK    7  A    between atoms: N_26  and  CA_27 
REMARK    8  A    between atoms: CA_27  and  CB_28 
REMARK    9  A    between atoms: CA_27  and  C_30 
ROOT
HETATM    1  O   UNK A   0       2.719  11.091  89.652  1.00  0.00    -0.388 OA
HETATM    2  N   UNK A   0       4.620   9.221  88.655  1.00  0.00     0.096 N 
HETATM    3  C   UNK A   0       3.811  10.051  87.750  1.00  0.00     0.299 C 
HETATM    4  C   UNK A   0       3.888   8.980  89.906  1.00  0.00     0.299 C 
HETATM    5  C   UNK A   0       3.436  11.358  88.445  1.00  0.00     0.198 C 
HETATM    6  C   UNK A   0       3.510  10.311  90.549  1.00  0.00     0.198 C 
ENDROOT
BRANCH   2   7
HETATM    7  C   UNK A   0       4.983   7.959  88.013  1.00  0.00     0.311 C 
BRANCH   7   8
HETATM    8  C   UNK A   0       6.188   7.334  88.630  1.00  0.00    -0.030 A 
HETATM    9  C   UNK A   0       7.454   7.862  88.374  1.00  0.00     0.010 A 
HETATM   10  C   UNK A   0       8.582   7.277  88.948  1.00  0.00     0.021 A 
HETATM   11  C   UNK A   0       8.443   6.166  89.780  1.00  0.00     0.018 A 
HETATM   12  C   UNK A   0       7.180   5.639  90.036  1.00  0.00     0.021 A 
HETATM   13  C   UNK A   0       6.051   6.223  89.461  1.00  0.00     0.010 A 
BRANCH  11  14
HETATM   14  C   UNK A   0       9.601   5.568  90.371  1.00  0.00    -0.061 C 
HETATM   15  C   UNK A   0      10.574   5.065  90.868  1.00  0.00    -0.061 C 
BRANCH  15  16
HETATM   16  C   UNK A   0      11.730   4.467  91.459  1.00  0.00     0.018 A 
HETATM   17  C   UNK A   0      12.905   4.342  90.718  1.00  0.00     0.022 A 
HETATM   18  C   UNK A   0      14.034   3.761  91.297  1.00  0.00     0.018 A 
HETATM   19  C   UNK A   0      13.962   3.320  92.601  1.00  0.00     0.032 A 
HETATM   20  C   UNK A   0      12.812   3.432  93.354  1.00  0.00     0.018 A 
HETATM   21  C   UNK A   0      11.683   4.012  92.777  1.00  0.00     0.022 A 
BRANCH  19  22
HETATM   22  C   UNK A   0      15.164   2.699  93.216  1.00  0.00     0.252 C 
HETATM   23  O   UNK A   0      15.021   1.883  94.123  1.00  0.00    -0.268 OA
ENDBRANCH  19  22
ENDBRANCH  15  16
ENDBRANCH  11  14
ENDBRANCH   7   8
ENDBRANCH   2   7
TORSDOF 9
ENDMDL
MODEL 6
REMARK VINA RESULT:      -6.6      3.933     10.460
REMARK  9 active torsions:
REMARK  status: ('A' for Active; 'I' for Inactive)
REMARK    1  A    between atoms: N_3  and  C_6 
REMARK    2  A    between atoms: C_6  and  C_9 
REMARK    3  A    between atoms: C_14  and  C_17 
REMARK       I    between atoms: N_26  and  C_15 
REMARK    4  A    between atoms: C_15  and  C_16 
REMARK    5  A    between atoms: C_20  and  C_23 
REMARK    6  A    between atoms: OG1_24  and  CB_28 
REMARK    7  A    between atoms: N_26  and  CA_27 
REMARK    8  A    between atoms: CA_27  and  CB_28 
REMARK    9  A    between atoms: CA_27  and  C_30 
ROOT
HETATM    1  O   UNK A   0      14.649   3.397  92.058  1.00  0.00    -0.388 OA
HETATM    2  N   UNK A   0      11.922   4.175  92.300  1.00  0.00     0.096 N 
HETATM    3  C   UNK A   0      12.549   3.263  93.267  1.00  0.00     0.299 C 
HETATM    4  C   UNK A   0      12.570   4.040  90.988  1.00  0.00     0.299 C 
HETATM    5  C   UNK A   0      14.048   3.544  93.346  1.00  0.00     0.198 C 
HETATM    6  C   UNK A   0      14.066   4.302  91.120  1.00  0.00     0.198 C 
ENDROOT
BRANCH   2   7
HETATM    7  C   UNK A   0      10.487   3.916  92.201  1.00  0.00     0.311 C 
BRANCH   7   8
HETATM    8  C   UNK A   0       9.705   5.153  91.917  1.00  0.00    -0.030 A 
HETATM    9  C   UNK A   0       9.950   6.315  92.650  1.00  0.00     0.010 A 
HETATM   10  C   UNK A   0       9.218   7.473  92.387  1.00  0.00     0.021 A 
HETATM   11  C   UNK A   0       8.243   7.468  91.390  1.00  0.00     0.018 A 
HETATM   12  C   UNK A   0       7.997   6.309  90.658  1.00  0.00     0.021 A 
HETATM   13  C   UNK A   0       8.729   5.151  90.921  1.00  0.00     0.010 A 
BRANCH  11  14
HETATM   14  C   UNK A   0       7.493   8.657  91.119  1.00  0.00    -0.061 C 
HETATM   15  C   UNK A   0       6.863   9.655  90.891  1.00  0.00    -0.061 C 
BRANCH  15  16
HETATM   16  C   UNK A   0       6.113  10.842  90.619  1.00  0.00     0.018 A 
HETATM   17  C   UNK A   0       6.222  11.465  89.376  1.00  0.00     0.022 A 
HETATM   18  C   UNK A   0       5.488  12.621  89.111  1.00  0.00     0.018 A 
HETATM   19  C   UNK A   0       4.663  13.127  90.093  1.00  0.00     0.032 A 
HETATM   20  C   UNK A   0       4.539  12.530  91.330  1.00  0.00     0.018 A 
HETATM   21  C   UNK A   0       5.272  11.374  91.596  1.00  0.00     0.022 A 
BRANCH  19  22
HETATM   22  C   UNK A   0       3.883  14.360  89.810  1.00  0.00     0.252 C 
HETATM   23  O   UNK A   0       4.468  15.439  89.751  1.00  0.00    -0.268 OA
ENDBRANCH  19  22
ENDBRANCH  15  16
ENDBRANCH  11  14
ENDBRANCH   7   8
ENDBRANCH   2   7
TORSDOF 9
ENDMDL
MODEL 7
REMARK VINA RESULT:      -6.6      3.936     10.410
REMARK  9 active torsions:
REMARK  status: ('A' for Active; 'I' for Inactive)
REMARK    1  A    between atoms: N_3  and  C_6 
REMARK    2  A    between atoms: C_6  and  C_9 
REMARK    3  A    between atoms: C_14  and  C_17 
REMARK       I    between atoms: N_26  and  C_15 
REMARK    4  A    between atoms: C_15  and  C_16 
REMARK    5  A    between atoms: C_20  and  C_23 
REMARK    6  A    between atoms: OG1_24  and  CB_28 
REMARK    7  A    between atoms: N_26  and  CA_27 
REMARK    8  A    between atoms: CA_27  and  CB_28 
REMARK    9  A    between atoms: CA_27  and  C_30 
ROOT
HETATM    1  O   UNK A   0      14.580   3.299  92.171  1.00  0.00    -0.388 OA
HETATM    2  N   UNK A   0      11.866   4.149  92.291  1.00  0.00     0.096 N 
HETATM    3  C   UNK A   0      12.470   3.353  93.369  1.00  0.00     0.299 C 
HETATM    4  C   UNK A   0      12.519   3.841  91.012  1.00  0.00     0.299 C 
HETATM    5  C   UNK A   0      13.973   3.615  93.425  1.00  0.00     0.198 C 
HETATM    6  C   UNK A   0      14.020   4.091  91.123  1.00  0.00     0.198 C 
ENDROOT
BRANCH   2   7
HETATM    7  C   UNK A   0      10.427   3.906  92.212  1.00  0.00     0.311 C 
BRANCH   7   8
HETATM    8  C   UNK A   0       9.656   5.148  91.919  1.00  0.00    -0.030 A 
HETATM    9  C   UNK A   0       9.909   6.312  92.646  1.00  0.00     0.010 A 
HETATM   10  C   UNK A   0       9.187   7.474  92.374  1.00  0.00     0.021 A 
HETATM   11  C   UNK A   0       8.214   7.472  91.375  1.00  0.00     0.018 A 
HETATM   12  C   UNK A   0       7.961   6.310  90.649  1.00  0.00     0.021 A 
HETATM   13  C   UNK A   0       8.682   5.147  90.921  1.00  0.00     0.010 A 
BRANCH  11  14
HETATM   14  C   UNK A   0       7.475   8.664  91.095  1.00  0.00    -0.061 C 
HETATM   15  C   UNK A   0       6.853   9.666  90.860  1.00  0.00    -0.061 C 
BRANCH  15  16
HETATM   16  C   UNK A   0       6.115  10.858  90.581  1.00  0.00     0.018 A 
HETATM   17  C   UNK A   0       5.256  11.387  91.545  1.00  0.00     0.022 A 
HETATM   18  C   UNK A   0       4.537  12.551  91.273  1.00  0.00     0.018 A 
HETATM   19  C   UNK A   0       4.694  13.160  90.046  1.00  0.00     0.032 A 
HETATM   20  C   UNK A   0       5.536  12.657  89.076  1.00  0.00     0.018 A 
HETATM   21  C   UNK A   0       6.255  11.493  89.347  1.00  0.00     0.022 A 
BRANCH  19  22
HETATM   22  C   UNK A   0       3.926  14.399  89.757  1.00  0.00     0.252 C 
HETATM   23  O   UNK A   0       4.496  15.486  89.819  1.00  0.00    -0.268 OA
ENDBRANCH  19  22
ENDBRANCH  15  16
ENDBRANCH  11  14
ENDBRANCH   7   8
ENDBRANCH   2   7
TORSDOF 9
ENDMDL
MODEL 8
REMARK VINA RESULT:      -6.6      3.964     10.417
REMARK  9 active torsions:
REMARK  status: ('A' for Active; 'I' for Inactive)
REMARK    1  A    between atoms: N_3  and  C_6 
REMARK    2  A    between atoms: C_6  and  C_9 
REMARK    3  A    between atoms: C_14  and  C_17 
REMARK       I    between atoms: N_26  and  C_15 
REMARK    4  A    between atoms: C_15  and  C_16 
REMARK    5  A    between atoms: C_20  and  C_23 
REMARK    6  A    between atoms: OG1_24  and  CB_28 
REMARK    7  A    between atoms: N_26  and  CA_27 
REMARK    8  A    between atoms: CA_27  and  CB_28 
REMARK    9  A    between atoms: CA_27  and  C_30 
ROOT
HETATM    1  O   UNK A   0      14.550   3.360  91.997  1.00  0.00    -0.388 OA
HETATM    2  N   UNK A   0      11.846   4.194  92.311  1.00  0.00     0.096 N 
HETATM    3  C   UNK A   0      12.473   3.252  93.249  1.00  0.00     0.299 C 
HETATM    4  C   UNK A   0      12.463   4.067  90.983  1.00  0.00     0.299 C 
HETATM    5  C   UNK A   0      13.979   3.498  93.300  1.00  0.00     0.198 C 
HETATM    6  C   UNK A   0      13.967   4.293  91.087  1.00  0.00     0.198 C 
ENDROOT
BRANCH   2   7
HETATM    7  C   UNK A   0      10.404   3.969  92.238  1.00  0.00     0.311 C 
BRANCH   7   8
HETATM    8  C   UNK A   0       9.649   5.216  91.926  1.00  0.00    -0.030 A 
HETATM    9  C   UNK A   0       8.706   5.221  90.898  1.00  0.00     0.010 A 
HETATM   10  C   UNK A   0       8.001   6.388  90.604  1.00  0.00     0.021 A 
HETATM   11  C   UNK A   0       8.239   7.549  91.339  1.00  0.00     0.018 A 
HETATM   12  C   UNK A   0       9.181   7.546  92.366  1.00  0.00     0.021 A 
HETATM   13  C   UNK A   0       9.886   6.379  92.660  1.00  0.00     0.010 A 
BRANCH  11  14
HETATM   14  C   UNK A   0       7.514   8.746  91.038  1.00  0.00    -0.061 C 
HETATM   15  C   UNK A   0       6.905   9.751  90.786  1.00  0.00    -0.061 C 
BRANCH  15  16
HETATM   16  C   UNK A   0       6.181  10.947  90.487  1.00  0.00     0.018 A 
HETATM   17  C   UNK A   0       5.268  11.458  91.410  1.00  0.00     0.022 A 
HETATM   18  C   UNK A   0       4.564  12.626  91.119  1.00  0.00     0.018 A 
HETATM   19  C   UNK A   0       4.788  13.257  89.913  1.00  0.00     0.032 A 
HETATM   20  C   UNK A   0       5.684  12.771  88.983  1.00  0.00     0.018 A 
HETATM   21  C   UNK A   0       6.389  11.603  89.273  1.00  0.00     0.022 A 
BRANCH  19  22
HETATM   22  C   UNK A   0       4.036  14.500  89.602  1.00  0.00     0.252 C 
HETATM   23  O   UNK A   0       4.633  15.574  89.584  1.00  0.00    -0.268 OA
ENDBRANCH  19  22
ENDBRANCH  15  16
ENDBRANCH  11  14
ENDBRANCH   7   8
ENDBRANCH   2   7
TORSDOF 9
ENDMDL
MODEL 9
REMARK VINA RESULT:      -6.3      1.956      2.879
REMARK  9 active torsions:
REMARK  status: ('A' for Active; 'I' for Inactive)
REMARK    1  A    between atoms: N_3  and  C_6 
REMARK    2  A    between atoms: C_6  and  C_9 
REMARK    3  A    between atoms: C_14  and  C_17 
REMARK       I    between atoms: N_26  and  C_15 
REMARK    4  A    between atoms: C_15  and  C_16 
REMARK    5  A    between atoms: C_20  and  C_23 
REMARK    6  A    between atoms: OG1_24  and  CB_28 
REMARK    7  A    between atoms: N_26  and  CA_27 
REMARK    8  A    between atoms: CA_27  and  CB_28 
REMARK    9  A    between atoms: CA_27  and  C_30 
ROOT
HETATM    1  O   UNK A   0       2.444  10.044  88.007  1.00  0.00    -0.388 OA
HETATM    2  N   UNK A   0       4.002   8.774  90.022  1.00  0.00     0.096 N 
HETATM    3  C   UNK A   0       2.719   8.213  89.576  1.00  0.00     0.299 C 
HETATM    4  C   UNK A   0       3.996  10.235  89.861  1.00  0.00     0.299 C 
HETATM    5  C   UNK A   0       2.452   8.621  88.129  1.00  0.00     0.198 C 
HETATM    6  C   UNK A   0       3.699  10.595  88.409  1.00  0.00     0.198 C 
ENDROOT
BRANCH   2   7
HETATM    7  C   UNK A   0       4.273   8.405  91.410  1.00  0.00     0.311 C 
BRANCH   7   8
HETATM    8  C   UNK A   0       5.579   7.703  91.567  1.00  0.00    -0.030 A 
HETATM    9  C   UNK A   0       6.163   7.592  92.830  1.00  0.00     0.010 A 
HETATM   10  C   UNK A   0       7.386   6.937  92.977  1.00  0.00     0.021 A 
HETATM   11  C   UNK A   0       8.023   6.393  91.862  1.00  0.00     0.018 A 
HETATM   12  C   UNK A   0       7.441   6.504  90.601  1.00  0.00     0.021 A 
HETATM   13  C   UNK A   0       6.218   7.159  90.453  1.00  0.00     0.010 A 
BRANCH  11  14
HETATM   14  C   UNK A   0       9.276   5.720  92.014  1.00  0.00    -0.061 C 
HETATM   15  C   UNK A   0      10.329   5.154  92.141  1.00  0.00    -0.061 C 
BRANCH  15  16
HETATM   16  C   UNK A   0      11.582   4.481  92.292  1.00  0.00     0.018 A 
HETATM   17  C   UNK A   0      12.435   4.345  91.197  1.00  0.00     0.022 A 
HETATM   18  C   UNK A   0      13.658   3.690  91.345  1.00  0.00     0.018 A 
HETATM   19  C   UNK A   0      14.000   3.188  92.583  1.00  0.00     0.032 A 
HETATM   20  C   UNK A   0      13.173   3.309  93.681  1.00  0.00     0.018 A 
HETATM   21  C   UNK A   0      11.950   3.963  93.534  1.00  0.00     0.022 A 
BRANCH  19  22
HETATM   22  C   UNK A   0      15.302   2.489  92.740  1.00  0.00     0.252 C 
HETATM   23  O   UNK A   0      16.003   2.740  93.717  1.00  0.00    -0.268 OA
ENDBRANCH  19  22
ENDBRANCH  15  16
ENDBRANCH  11  14
ENDBRANCH   7   8
ENDBRANCH   2   7
TORSDOF 9
ENDMDL
