MODEL 1
REMARK VINA RESULT:      -6.9      0.000      0.000
REMARK  11 active torsions:
REMARK  status: ('A' for Active; 'I' for Inactive)
REMARK    1  A    between atoms: O_2  and  C_18 
REMARK    2  A    between atoms: O_5  and  P_8 
REMARK    3  A    between atoms: N_6  and  C_11 
REMARK    4  A    between atoms: N_7  and  C_15 
REMARK       I    between atoms: N_7  and  C_24 
REMARK    5  A    between atoms: P_8  and  C_23 
REMARK    6  A    between atoms: C_11  and  C_14 
REMARK    7  A    between atoms: C_15  and  C_18 
REMARK    8  A    between atoms: C_15  and  C_23 
REMARK    9  A    between atoms: C_21  and  C_26 
REMARK   10  A    between atoms: C_24  and  C_25 
REMARK   11  A    between atoms: C_29  and  C_32 
ROOT
HETATM    1  O   UNL     1      16.095   4.024  94.015  1.00  0.00     0.000 OA
HETATM    2  N   UNL     1      14.254   2.586  92.387  1.00  0.00     0.000 N 
HETATM    3  C   UNL     1      14.393   4.045  92.284  1.00  0.00     0.000 C 
HETATM    4  C   UNL     1      14.584   2.144  93.749  1.00  0.00     0.000 C 
HETATM    5  C   UNL     1      15.807   4.460  92.685  1.00  0.00     0.000 C 
HETATM    6  C   UNL     1      15.992   2.603  94.116  1.00  0.00     0.000 C 
ENDROOT
BRANCH   2   7
HETATM    7  C   UNL     1      12.903   2.167  92.018  1.00  0.00     0.000 C 
BRANCH   7   8
HETATM    8  C   UNL     1      12.011   3.324  91.720  1.00  0.00     0.000 A 
HETATM    9  C   UNL     1      11.833   3.745  90.402  1.00  0.00     0.000 A 
HETATM   10  C   UNL     1      11.001   4.828  90.122  1.00  0.00     0.000 A 
HETATM   11  C   UNL     1      10.346   5.489  91.160  1.00  0.00     0.000 A 
HETATM   12  C   UNL     1      10.523   5.070  92.477  1.00  0.00     0.000 A 
HETATM   13  C   UNL     1      11.356   3.987  92.758  1.00  0.00     0.000 A 
BRANCH  11  14
HETATM   14  C   UNL     1       9.490   6.600  90.873  1.00  0.00     0.000 C 
HETATM   15  C   UNL     1       8.772   7.533  90.631  1.00  0.00     0.000 C 
BRANCH  15  16
HETATM   16  C   UNL     1       7.917   8.642  90.343  1.00  0.00     0.000 A 
HETATM   17  C   UNL     1       6.543   8.445  90.207  1.00  0.00     0.000 A 
HETATM   18  C   UNL     1       5.709   9.528  89.929  1.00  0.00     0.000 A 
HETATM   19  C   UNL     1       6.267  10.782  89.793  1.00  0.00     0.000 A 
HETATM   20  C   UNL     1       7.622  11.002  89.922  1.00  0.00     0.000 A 
HETATM   21  C   UNL     1       8.457   9.920  90.200  1.00  0.00     0.000 A 
BRANCH  19  22
HETATM   22  C   UNL     1       5.378  11.935  89.495  1.00  0.00     0.000 C 
HETATM   23  O   UNL     1       5.290  12.341  88.339  1.00  0.00     0.000 OA
HETATM   24  N   UNL     1       4.680  12.460  90.573  1.00  0.00     0.000 N 
HETATM   25  HN  UNL     1       4.784  12.056  91.497  1.00  0.00     0.000 HD
BRANCH  24  26
HETATM   26  C   UNL     1       3.761  13.562  90.441  1.00  0.00     0.000 C 
BRANCH  26  27
HETATM   27  C   UNL     1       2.423  13.307  91.145  1.00  0.00     0.000 C 
HETATM   28  C   UNL     1       2.470  12.094  92.068  1.00  0.00     0.000 C 
BRANCH  27  29
HETATM   29  O   UNL     1       2.060  14.457  91.910  1.00  0.00     0.000 OA
HETATM   30  H   UNL     1       1.148  14.701  91.679  1.00  0.00     0.000 HD
ENDBRANCH  27  29
ENDBRANCH  26  27
BRANCH  26  31
HETATM   31  C   UNL     1       4.448  14.809  90.988  1.00  0.00     0.000 C 
HETATM   32  O   UNL     1       4.531  15.055  92.190  1.00  0.00     0.000 OA
BRANCH  31  33
HETATM   33  P   UNL     1       4.917  15.625  89.987  1.00  0.00     0.000 P 
HETATM   34  H   UNL     1       4.174  16.788  90.007  1.00  0.00     0.000 HD
BRANCH  33  35
HETATM   35  O   UNL     1       4.854  15.097  88.690  1.00  0.00     0.000 OA
HETATM   36  H   UNL     1       5.801  15.062  88.470  1.00  0.00     0.000 HD
ENDBRANCH  33  35
ENDBRANCH  31  33
ENDBRANCH  26  31
ENDBRANCH  24  26
ENDBRANCH  19  22
ENDBRANCH  15  16
ENDBRANCH  11  14
ENDBRANCH   7   8
ENDBRANCH   2   7
TORSDOF 11
ENDMDL
