MODEL 1
REMARK VINA RESULT:      -6.7      0.000      0.000
REMARK  10 active torsions:
REMARK  status: ('A' for Active; 'I' for Inactive)
REMARK    1  A    between atoms: O_2  and  C_18 
REMARK    2  A    between atoms: O_5  and  N_8 
REMARK    3  A    between atoms: N_6  and  C_11 
REMARK    4  A    between atoms: N_7  and  C_15 
REMARK       I    between atoms: N_7  and  C_24 
REMARK       I    between atoms: N_8  and  C_23 
REMARK    5  A    between atoms: C_11  and  C_14 
REMARK    6  A    between atoms: C_15  and  C_18 
REMARK    7  A    between atoms: C_15  and  C_23 
REMARK    8  A    between atoms: C_21  and  C_26 
REMARK    9  A    between atoms: C_24  and  C_25 
REMARK   10  A    between atoms: C_29  and  C_32 
ROOT
HETATM    1  O   UNK     0      17.292   4.267  93.833  0.00  0.00    -0.388 OA
HETATM    2  N   UNK     0      14.817   2.916  93.447  0.00  0.00     0.096 N 
HETATM    3  C   UNK     0      16.103   2.237  93.240  0.00  0.00     0.299 C 
HETATM    4  C   UNK     0      14.958   4.353  93.178  0.00  0.00     0.299 C 
HETATM    5  C   UNK     0      17.173   2.874  94.123  0.00  0.00     0.198 C 
HETATM    6  C   UNK     0      16.054   4.941  94.062  0.00  0.00     0.198 C 
ENDROOT
BRANCH   2   7
HETATM    7  C   UNK     0      13.779   2.329  92.602  0.00  0.00     0.311 C 
BRANCH   7   8
HETATM    8  C   UNK     0      12.668   3.283  92.320  0.00  0.00    -0.030 A 
HETATM    9  C   UNK     0      12.489   3.781  91.029  0.00  0.00     0.010 A 
HETATM   10  C   UNK     0      11.452   4.675  90.764  0.00  0.00     0.021 A 
HETATM   11  C   UNK     0      10.594   5.069  91.790  0.00  0.00     0.018 A 
HETATM   12  C   UNK     0      10.772   4.572  93.080  0.00  0.00     0.021 A 
HETATM   13  C   UNK     0      11.809   3.678  93.345  0.00  0.00     0.010 A 
BRANCH  11  14
HETATM   14  C   UNK     0       9.528   5.984  91.518  0.00  0.00    -0.061 C 
HETATM   15  C   UNK     0       8.633   6.754  91.289  0.00  0.00    -0.061 C 
BRANCH  15  16
HETATM   16  C   UNK     0       7.570   7.669  91.017  0.00  0.00     0.018 A 
HETATM   17  C   UNK     0       7.778   9.041  91.163  0.00  0.00     0.022 A 
HETATM   18  C   UNK     0       6.741   9.935  90.895  0.00  0.00     0.018 A 
HETATM   19  C   UNK     0       5.521   9.438  90.487  0.00  0.00     0.032 A 
HETATM   20  C   UNK     0       5.290   8.087  90.336  0.00  0.00     0.018 A 
HETATM   21  C   UNK     0       6.326   7.192  90.604  0.00  0.00     0.022 A 
BRANCH  19  22
HETATM   22  C   UNK     0       4.416  10.390  90.204  0.00  0.00     0.252 C 
HETATM   23  O   UNK     0       3.299   9.952  89.942  0.00  0.00    -0.268 OA
HETATM   24  N   UNK     0       4.740  11.738  90.284  0.00  0.00    -0.341 N 
HETATM   25  H   UNK     0       5.679  12.026  90.531  0.00  0.00     0.163 HD
BRANCH  24  26
HETATM   26  C   UNK     0       3.772  12.782  90.061  0.00  0.00     0.207 C 
BRANCH  26  27
HETATM   27  C   UNK     0       3.528  13.642  91.308  0.00  0.00     0.146 C 
HETATM   28  C   UNK     0       2.061  14.020  91.477  0.00  0.00     0.042 C 
BRANCH  27  29
HETATM   29  O   UNK     0       3.961  12.933  92.468  0.00  0.00    -0.393 OA
HETATM   30  H   UNK     0       4.599  13.490  92.946  0.00  0.00     0.210 HD
ENDBRANCH  27  29
ENDBRANCH  26  27
BRANCH  26  31
HETATM   31  C   UNK     0       4.263  13.629  88.891  0.00  0.00     0.266 C 
HETATM   32  O   UNK     0       4.467  14.838  88.979  0.00  0.00    -0.269 OA
HETATM   33  N   UNK     0       4.407  12.891  87.741  0.00  0.00    -0.236 N 
HETATM   34  H   UNK     0       4.164  11.916  87.611  0.00  0.00     0.197 HD
BRANCH  33  35
HETATM   35  O   UNK     0       4.819  13.605  86.606  0.00  0.00    -0.287 OA
HETATM   36  H   UNK     0       4.258  13.192  85.928  0.00  0.00     0.244 HD
ENDBRANCH  33  35
ENDBRANCH  26  31
ENDBRANCH  24  26
ENDBRANCH  19  22
ENDBRANCH  15  16
ENDBRANCH  11  14
ENDBRANCH   7   8
ENDBRANCH   2   7
TORSDOF 10
ENDMDL
