MODEL 1
REMARK VINA RESULT:      -7.5      0.000      0.000
REMARK  9 active torsions:
REMARK  status: ('A' for Active; 'I' for Inactive)
REMARK    1  A    between atoms: N_3  and  C_6 
REMARK    2  A    between atoms: C_6  and  C_9 
REMARK    3  A    between atoms: C_14  and  C_17 
REMARK       I    between atoms: N_26  and  C_15 
REMARK    4  A    between atoms: C_15  and  C_16 
REMARK    5  A    between atoms: C_20  and  C_23 
REMARK    6  A    between atoms: OG1_24  and  CB_28 
REMARK    7  A    between atoms: N_26  and  CA_27 
REMARK    8  A    between atoms: CA_27  and  CB_28 
REMARK    9  A    between atoms: CA_27  and  C_30 
ROOT
HETATM    1  O   UNK A   0       1.872   8.096  87.983  1.00  0.00    -0.388 OA
HETATM    2  N   UNK A   0       4.660   7.560  87.779  1.00  0.00     0.096 N 
HETATM    3  C   UNK A   0       4.146   8.934  87.859  1.00  0.00     0.299 C 
HETATM    4  C   UNK A   0       3.661   6.684  87.151  1.00  0.00     0.299 C 
HETATM    5  C   UNK A   0       2.824   8.949  88.622  1.00  0.00     0.198 C 
HETATM    6  C   UNK A   0       2.351   6.752  87.930  1.00  0.00     0.198 C 
ENDROOT
BRANCH   2   7
HETATM    7  C   UNK A   0       5.922   7.520  87.043  1.00  0.00     0.311 C 
BRANCH   7   8
HETATM    8  C   UNK A   0       7.029   6.924  87.843  1.00  0.00    -0.030 A 
HETATM    9  C   UNK A   0       6.844   6.664  89.202  1.00  0.00     0.010 A 
HETATM   10  C   UNK A   0       7.880   6.108  89.953  1.00  0.00     0.021 A 
HETATM   11  C   UNK A   0       9.099   5.811  89.344  1.00  0.00     0.018 A 
HETATM   12  C   UNK A   0       9.285   6.070  87.988  1.00  0.00     0.021 A 
HETATM   13  C   UNK A   0       8.249   6.627  87.237  1.00  0.00     0.010 A 
BRANCH  11  14
HETATM   14  C   UNK A   0      10.161   5.239  90.114  1.00  0.00    -0.061 C 
HETATM   15  C   UNK A   0      11.053   4.758  90.760  1.00  0.00    -0.061 C 
BRANCH  15  16
HETATM   16  C   UNK A   0      12.115   4.187  91.529  1.00  0.00     0.018 A 
HETATM   17  C   UNK A   0      11.906   3.859  92.869  1.00  0.00     0.022 A 
HETATM   18  C   UNK A   0      12.941   3.299  93.618  1.00  0.00     0.018 A 
HETATM   19  C   UNK A   0      14.160   3.080  93.012  1.00  0.00     0.032 A 
HETATM   20  C   UNK A   0      14.391   3.395  91.689  1.00  0.00     0.018 A 
HETATM   21  C   UNK A   0      13.357   3.955  90.939  1.00  0.00     0.022 A 
BRANCH  19  22
HETATM   22  C   UNK A   0      15.262   2.485  93.811  1.00  0.00     0.252 C 
HETATM   23  O   UNK A   0      16.407   2.904  93.658  1.00  0.00    -0.268 OA
ENDBRANCH  19  22
ENDBRANCH  15  16
ENDBRANCH  11  14
ENDBRANCH   7   8
ENDBRANCH   2   7
TORSDOF 9
ENDMDL
