MODEL 1
REMARK VINA RESULT:      -6.6      0.000      0.000
REMARK  10 active torsions:
REMARK  status: ('A' for Active; 'I' for Inactive)
REMARK    1  A    between atoms: O_2  and  C_18 
REMARK    2  A    between atoms: O_5  and  N_8 
REMARK    3  A    between atoms: N_6  and  C_11 
REMARK    4  A    between atoms: N_7  and  C_15 
REMARK       I    between atoms: N_7  and  C_24 
REMARK       I    between atoms: N_8  and  C_23 
REMARK    5  A    between atoms: C_11  and  C_14 
REMARK    6  A    between atoms: C_15  and  C_18 
REMARK    7  A    between atoms: C_15  and  C_23 
REMARK    8  A    between atoms: C_21  and  C_26 
REMARK    9  A    between atoms: C_24  and  C_25 
REMARK   10  A    between atoms: C_29  and  C_32 
ROOT
HETATM    1  O   UNK     0      16.532   3.207  93.754  0.00  0.00    -0.388 OA
HETATM    2  N   UNK     0      13.900   2.817  92.745  0.00  0.00     0.096 N 
HETATM    3  C   UNK     0      14.794   1.683  93.014  0.00  0.00     0.299 C 
HETATM    4  C   UNK     0      14.687   4.008  92.399  0.00  0.00     0.299 C 
HETATM    5  C   UNK     0      15.777   2.051  94.123  0.00  0.00     0.198 C 
HETATM    6  C   UNK     0      15.672   4.322  93.521  0.00  0.00     0.198 C 
ENDROOT
BRANCH   2   7
HETATM    7  C   UNK     0      12.956   2.490  91.678  0.00  0.00     0.311 C 
BRANCH   7   8
HETATM    8  C   UNK     0      11.854   3.489  91.568  0.00  0.00    -0.030 A 
HETATM    9  C   UNK     0      11.182   3.913  92.715  0.00  0.00     0.010 A 
HETATM   10  C   UNK     0      10.150   4.845  92.613  0.00  0.00     0.021 A 
HETATM   11  C   UNK     0       9.792   5.354  91.365  0.00  0.00     0.018 A 
HETATM   12  C   UNK     0      10.463   4.932  90.219  0.00  0.00     0.021 A 
HETATM   13  C   UNK     0      11.495   3.999  90.320  0.00  0.00     0.010 A 
BRANCH  11  14
HETATM   14  C   UNK     0       8.734   6.312  91.261  0.00  0.00    -0.061 C 
HETATM   15  C   UNK     0       7.846   7.118  91.174  0.00  0.00    -0.061 C 
BRANCH  15  16
HETATM   16  C   UNK     0       6.789   8.074  91.071  0.00  0.00     0.018 A 
HETATM   17  C   UNK     0       6.382   8.530  89.817  0.00  0.00     0.022 A 
HETATM   18  C   UNK     0       5.349   9.462  89.715  0.00  0.00     0.018 A 
HETATM   19  C   UNK     0       4.745   9.916  90.869  0.00  0.00     0.032 A 
HETATM   20  C   UNK     0       5.128   9.481  92.121  0.00  0.00     0.018 A 
HETATM   21  C   UNK     0       6.162   8.550  92.222  0.00  0.00     0.022 A 
BRANCH  19  22
HETATM   22  C   UNK     0       3.646  10.910  90.761  0.00  0.00     0.252 C 
HETATM   23  O   UNK     0       2.712  10.690  89.993  0.00  0.00    -0.268 OA
HETATM   24  N   UNK     0       3.754  12.027  91.577  0.00  0.00    -0.341 N 
HETATM   25  H   UNK     0       4.542  12.129  92.206  0.00  0.00     0.163 HD
BRANCH  24  26
HETATM   26  C   UNK     0       2.757  13.067  91.605  0.00  0.00     0.207 C 
BRANCH  26  27
HETATM   27  C   UNK     0       2.614  13.716  92.987  0.00  0.00     0.146 C 
HETATM   28  C   UNK     0       3.769  13.367  93.918  0.00  0.00     0.042 C 
BRANCH  27  29
HETATM   29  O   UNK     0       2.546  15.134  92.844  0.00  0.00    -0.393 OA
HETATM   30  H   UNK     0       3.316  15.426  92.327  0.00  0.00     0.210 HD
ENDBRANCH  27  29
ENDBRANCH  26  27
BRANCH  26  31
HETATM   31  C   UNK     0       3.130  14.098  90.544  0.00  0.00     0.266 C 
HETATM   32  O   UNK     0       2.347  14.480  89.677  0.00  0.00    -0.269 OA
HETATM   33  N   UNK     0       4.437  14.506  90.654  0.00  0.00    -0.236 N 
HETATM   34  H   UNK     0       5.133  14.147  91.298  0.00  0.00     0.197 HD
BRANCH  33  35
HETATM   35  O   UNK     0       4.872  15.427  89.691  0.00  0.00    -0.287 OA
HETATM   36  H   UNK     0       5.656  15.790  90.137  0.00  0.00     0.244 HD
ENDBRANCH  33  35
ENDBRANCH  26  31
ENDBRANCH  24  26
ENDBRANCH  19  22
ENDBRANCH  15  16
ENDBRANCH  11  14
ENDBRANCH   7   8
ENDBRANCH   2   7
TORSDOF 10
ENDMDL
