MODEL 1
REMARK VINA RESULT:      -6.8      0.000      0.000
REMARK  11 active torsions:
REMARK  status: ('A' for Active; 'I' for Inactive)
REMARK    1  A    between atoms: O_2  and  C_18 
REMARK    2  A    between atoms: O_5  and  P_8 
REMARK    3  A    between atoms: N_6  and  C_11 
REMARK    4  A    between atoms: N_7  and  C_15 
REMARK       I    between atoms: N_7  and  C_24 
REMARK    5  A    between atoms: P_8  and  C_23 
REMARK    6  A    between atoms: C_11  and  C_14 
REMARK    7  A    between atoms: C_15  and  C_18 
REMARK    8  A    between atoms: C_15  and  C_23 
REMARK    9  A    between atoms: C_21  and  C_26 
REMARK   10  A    between atoms: C_24  and  C_25 
REMARK   11  A    between atoms: C_29  and  C_32 
ROOT
HETATM    1  O   UNL     1      16.401   4.271  94.124  1.00  0.00     0.000 OA
HETATM    2  N   UNL     1      14.666   2.677  92.526  1.00  0.00     0.000 N 
HETATM    3  C   UNL     1      14.578   4.144  92.526  1.00  0.00     0.000 C 
HETATM    4  C   UNL     1      15.169   2.203  93.823  1.00  0.00     0.000 C 
HETATM    5  C   UNL     1      15.943   4.743  92.856  1.00  0.00     0.000 C 
HETATM    6  C   UNL     1      16.519   2.848  94.122  1.00  0.00     0.000 C 
ENDROOT
BRANCH   2   7
HETATM    7  C   UNL     1      13.367   2.080  92.223  1.00  0.00     0.000 C 
BRANCH   7   8
HETATM    8  C   UNL     1      12.316   3.107  91.968  1.00  0.00     0.000 A 
HETATM    9  C   UNL     1      12.290   3.789  90.751  1.00  0.00     0.000 A 
HETATM   10  C   UNL     1      11.309   4.751  90.512  1.00  0.00     0.000 A 
HETATM   11  C   UNL     1      10.354   5.029  91.490  1.00  0.00     0.000 A 
HETATM   12  C   UNL     1      10.379   4.349  92.705  1.00  0.00     0.000 A 
HETATM   13  C   UNL     1      11.360   3.387  92.945  1.00  0.00     0.000 A 
BRANCH  11  14
HETATM   14  C   UNL     1       9.346   6.015  91.244  1.00  0.00     0.000 C 
HETATM   15  C   UNL     1       8.499   6.843  91.037  1.00  0.00     0.000 C 
BRANCH  15  16
HETATM   16  C   UNL     1       7.491   7.827  90.791  1.00  0.00     0.000 A 
HETATM   17  C   UNL     1       7.705   9.152  91.173  1.00  0.00     0.000 A 
HETATM   18  C   UNL     1       6.722  10.112  90.931  1.00  0.00     0.000 A 
HETATM   19  C   UNL     1       5.551   9.727  90.312  1.00  0.00     0.000 A 
HETATM   20  C   UNL     1       5.317   8.425  89.926  1.00  0.00     0.000 A 
HETATM   21  C   UNL     1       6.298   7.463  90.168  1.00  0.00     0.000 A 
BRANCH  19  22
HETATM   22  C   UNL     1       4.505  10.751  90.057  1.00  0.00     0.000 C 
HETATM   23  O   UNL     1       3.412  10.395  89.621  1.00  0.00     0.000 OA
HETATM   24  N   UNL     1       4.848  12.061  90.362  1.00  0.00     0.000 N 
HETATM   25  HN  UNL     1       5.762  12.276  90.743  1.00  0.00     0.000 HD
BRANCH  24  26
HETATM   26  C   UNL     1       3.933  13.161  90.192  1.00  0.00     0.000 C 
BRANCH  26  27
HETATM   27  C   UNL     1       3.474  13.762  91.527  1.00  0.00     0.000 C 
HETATM   28  C   UNL     1       1.993  14.127  91.523  1.00  0.00     0.000 C 
BRANCH  27  29
HETATM   29  O   UNL     1       3.719  12.831  92.580  1.00  0.00     0.000 OA
HETATM   30  H   UNL     1       3.014  12.161  92.565  1.00  0.00     0.000 HD
ENDBRANCH  27  29
ENDBRANCH  26  27
BRANCH  26  31
HETATM   31  C   UNL     1       4.620  14.207  89.320  1.00  0.00     0.000 C 
HETATM   32  O   UNL     1       4.561  15.414  89.550  1.00  0.00     0.000 OA
BRANCH  31  33
HETATM   33  P   UNL     1       5.267  13.644  88.247  1.00  0.00     0.000 P 
HETATM   34  H   UNL     1       5.821  14.667  87.503  1.00  0.00     0.000 HD
BRANCH  33  35
HETATM   35  O   UNL     1       4.468  12.874  87.389  1.00  0.00     0.000 OA
HETATM   36  H   UNL     1       3.767  13.515  87.181  1.00  0.00     0.000 HD
ENDBRANCH  33  35
ENDBRANCH  31  33
ENDBRANCH  26  31
ENDBRANCH  24  26
ENDBRANCH  19  22
ENDBRANCH  15  16
ENDBRANCH  11  14
ENDBRANCH   7   8
ENDBRANCH   2   7
TORSDOF 11
ENDMDL
