MODEL 1
REMARK VINA RESULT:      -7.6      0.000      0.000
REMARK  9 active torsions:
REMARK  status: ('A' for Active; 'I' for Inactive)
REMARK    1  A    between atoms: N_3  and  C_6 
REMARK    2  A    between atoms: C_6  and  C_9 
REMARK    3  A    between atoms: C_14  and  C_17 
REMARK       I    between atoms: N_26  and  C_15 
REMARK    4  A    between atoms: C_15  and  C_16 
REMARK    5  A    between atoms: C_20  and  C_23 
REMARK    6  A    between atoms: OG1_24  and  CB_28 
REMARK    7  A    between atoms: N_26  and  CA_27 
REMARK    8  A    between atoms: CA_27  and  CB_28 
REMARK    9  A    between atoms: CA_27  and  C_30 
ROOT
HETATM    1  O   UNK A   0       1.971   8.083  87.818  1.00  0.00    -0.388 OA
HETATM    2  N   UNK A   0       4.759   7.533  87.670  1.00  0.00     0.096 N 
HETATM    3  C   UNK A   0       4.253   8.907  87.785  1.00  0.00     0.299 C 
HETATM    4  C   UNK A   0       3.771   6.688  86.984  1.00  0.00     0.299 C 
HETATM    5  C   UNK A   0       2.911   8.905  88.513  1.00  0.00     0.198 C 
HETATM    6  C   UNK A   0       2.441   6.738  87.729  1.00  0.00     0.198 C 
ENDROOT
BRANCH   2   7
HETATM    7  C   UNK A   0       6.040   7.510  86.966  1.00  0.00     0.311 C 
BRANCH   7   8
HETATM    8  C   UNK A   0       7.128   6.903  87.785  1.00  0.00    -0.030 A 
HETATM    9  C   UNK A   0       6.910   6.625  89.136  1.00  0.00     0.010 A 
HETATM   10  C   UNK A   0       7.928   6.060  89.904  1.00  0.00     0.021 A 
HETATM   11  C   UNK A   0       9.161   5.770  89.321  1.00  0.00     0.018 A 
HETATM   12  C   UNK A   0       9.379   6.047  87.973  1.00  0.00     0.021 A 
HETATM   13  C   UNK A   0       8.363   6.614  87.204  1.00  0.00     0.010 A 
BRANCH  11  14
HETATM   14  C   UNK A   0      10.204   5.188  90.108  1.00  0.00    -0.061 C 
HETATM   15  C   UNK A   0      11.081   4.699  90.770  1.00  0.00    -0.061 C 
BRANCH  15  16
HETATM   16  C   UNK A   0      12.123   4.118  91.558  1.00  0.00     0.018 A 
HETATM   17  C   UNK A   0      13.391   3.932  91.007  1.00  0.00     0.022 A 
HETATM   18  C   UNK A   0      14.408   3.367  91.777  1.00  0.00     0.018 A 
HETATM   19  C   UNK A   0      14.135   3.002  93.078  1.00  0.00     0.032 A 
HETATM   20  C   UNK A   0      12.890   3.175  93.645  1.00  0.00     0.018 A 
HETATM   21  C   UNK A   0      11.872   3.740  92.877  1.00  0.00     0.022 A 
BRANCH  19  22
HETATM   22  C   UNK A   0      15.219   2.399  93.897  1.00  0.00     0.252 C 
HETATM   23  O   UNK A   0      16.375   2.780  93.736  1.00  0.00    -0.268 OA
ENDBRANCH  19  22
ENDBRANCH  15  16
ENDBRANCH  11  14
ENDBRANCH   7   8
ENDBRANCH   2   7
TORSDOF 9
ENDMDL
