MODEL 1
REMARK VINA RESULT:      -6.3      0.000      0.000
REMARK  12 active torsions:
REMARK  status: ('A' for Active; 'I' for Inactive)
REMARK    1  A    between atoms: O_2  and  C_16 
REMARK    2  A    between atoms: N_5  and  C_9 
REMARK    3  A    between atoms: N_6  and  C_13 
REMARK       I    between atoms: N_6  and  C_22 
REMARK    4  A    between atoms: C_9  and  C_12 
REMARK    5  A    between atoms: C_13  and  C_16 
REMARK    6  A    between atoms: C_13  and  C_21 
REMARK    7  A    between atoms: C_19  and  C_24 
REMARK    8  A    between atoms: C_21  and  C_33 
REMARK    9  A    between atoms: C_22  and  C_23 
REMARK   10  A    between atoms: C_27  and  C_30 
REMARK   11  A    between atoms: C_33  and  C_34 
REMARK   12  A    between atoms: C_34  and  C_35 
ROOT
HETATM    1  O   UNL     1      16.908   3.779  93.861  1.00  0.00    -0.350 OA
HETATM    2  N   UNL     1      14.354   3.099  92.804  1.00  0.00     0.147 N 
HETATM    3  C   UNL     1      15.406   2.088  92.981  1.00  0.00     0.283 C 
HETATM    4  C   UNL     1      14.958   4.417  92.567  1.00  0.00     0.283 C 
HETATM    5  C   UNL     1      16.331   2.498  94.124  1.00  0.00     0.178 C 
HETATM    6  C   UNL     1      15.893   4.773  93.718  1.00  0.00     0.178 C 
ENDROOT
BRANCH   2   7
HETATM    7  C   UNL     1      13.462   2.731  91.706  1.00  0.00     0.277 C 
BRANCH   7   8
HETATM    8  C   UNL     1      12.269   3.621  91.621  1.00  0.00     0.011 A 
HETATM    9  C   UNL     1      11.588   3.986  92.783  1.00  0.00    -0.002 A 
HETATM   10  C   UNL     1      10.471   4.817  92.704  1.00  0.00     0.008 A 
HETATM   11  C   UNL     1      10.037   5.284  91.464  1.00  0.00     0.042 A 
HETATM   12  C   UNL     1      10.717   4.921  90.303  1.00  0.00     0.008 A 
HETATM   13  C   UNL     1      11.833   4.089  90.381  1.00  0.00    -0.002 A 
BRANCH  11  14
HETATM   14  C   UNL     1       8.892   6.139  91.383  1.00  0.00    -0.059 C 
HETATM   15  C   UNL     1       7.930   6.857  91.315  1.00  0.00    -0.059 C 
BRANCH  15  16
HETATM   16  C   UNL     1       6.786   7.711  91.234  1.00  0.00     0.042 A 
HETATM   17  C   UNL     1       5.565   7.291  91.763  1.00  0.00     0.008 A 
HETATM   18  C   UNL     1       4.450   8.125  91.686  1.00  0.00     0.005 A 
HETATM   19  C   UNL     1       4.580   9.359  91.083  1.00  0.00     0.056 A 
HETATM   20  C   UNL     1       5.776   9.796  90.552  1.00  0.00     0.005 A 
HETATM   21  C   UNL     1       6.892   8.963  90.629  1.00  0.00     0.008 A 
BRANCH  19  22
HETATM   22  C   UNL     1       3.391  10.246  90.999  1.00  0.00     0.254 C 
HETATM   23  O   UNL     1       2.338   9.798  90.553  1.00  0.00    -0.268 OA
HETATM   24  N   UNL     1       3.565  11.541  91.469  1.00  0.00    -0.335 N 
HETATM   25  HN  UNL     1       4.458  11.834  91.848  1.00  0.00     0.164 HD
BRANCH  24  26
HETATM   26  C   UNL     1       2.500  12.512  91.477  1.00  0.00     0.166 C 
BRANCH  26  27
HETATM   27  C   UNL     1       2.245  13.101  92.870  1.00  0.00     0.138 C 
HETATM   28  C   UNL     1       3.371  12.792  93.850  1.00  0.00     0.034 C 
BRANCH  27  29
HETATM   29  O   UNL     1       2.093  14.516  92.769  1.00  0.00    -0.383 OA
HETATM   30  H   UNL     1       1.143  14.720  92.734  1.00  0.00     0.210 HD
ENDBRANCH  27  29
ENDBRANCH  26  27
BRANCH  26  31
HETATM   31  C   UNL     1       2.855  13.601  90.471  1.00  0.00     0.181 C 
HETATM   32  O   UNL     1       2.090  14.517  90.177  1.00  0.00    -0.294 OA
BRANCH  31  33
HETATM   33  C   UNL     1       4.280  14.295  90.813  1.00  0.00     0.138 C 
BRANCH  33  34
HETATM   34  C   UNL     1       4.830  14.443  89.520  1.00  0.00     0.208 C 
HETATM   35  O   UNL     1       5.179  15.560  89.214  1.00  0.00    -0.289 OA
BRANCH  34  36
HETATM   36  C   UNL     1       5.305  13.504  88.646  1.00  0.00     0.194 C 
HETATM   37  O   UNL     1       4.624  12.693  87.731  1.00  0.00    -0.185 OA
ENDBRANCH  34  36
ENDBRANCH  33  34
ENDBRANCH  31  33
ENDBRANCH  26  31
ENDBRANCH  24  26
ENDBRANCH  19  22
ENDBRANCH  15  16
ENDBRANCH  11  14
ENDBRANCH   7   8
ENDBRANCH   2   7
TORSDOF 12
ENDMDL
