MODEL 1
REMARK VINA RESULT:      -6.2      0.000      0.000
REMARK  12 active torsions:
REMARK  status: ('A' for Active; 'I' for Inactive)
REMARK    1  A    between atoms: O_2  and  C_16 
REMARK    2  A    between atoms: N_5  and  C_9 
REMARK    3  A    between atoms: N_6  and  C_13 
REMARK       I    between atoms: N_6  and  C_22 
REMARK    4  A    between atoms: C_9  and  C_12 
REMARK    5  A    between atoms: C_13  and  C_16 
REMARK    6  A    between atoms: C_13  and  C_21 
REMARK    7  A    between atoms: C_19  and  C_24 
REMARK    8  A    between atoms: C_21  and  C_33 
REMARK    9  A    between atoms: C_22  and  C_23 
REMARK   10  A    between atoms: C_27  and  C_30 
REMARK   11  A    between atoms: C_33  and  C_34 
REMARK   12  A    between atoms: C_34  and  C_35 
ROOT
HETATM    1  O   UNL     1      16.478   3.149  94.045  1.00  0.00    -0.350 OA
HETATM    2  N   UNL     1      14.084   3.125  92.505  1.00  0.00     0.147 N 
HETATM    3  C   UNL     1      14.814   1.886  92.810  1.00  0.00     0.283 C 
HETATM    4  C   UNL     1      15.017   4.260  92.459  1.00  0.00     0.283 C 
HETATM    5  C   UNL     1      15.575   2.045  94.124  1.00  0.00     0.178 C 
HETATM    6  C   UNL     1      15.773   4.362  93.779  1.00  0.00     0.178 C 
ENDROOT
BRANCH   2   7
HETATM    7  C   UNL     1      13.355   2.999  91.244  1.00  0.00     0.277 C 
BRANCH   7   8
HETATM    8  C   UNL     1      12.176   3.908  91.177  1.00  0.00     0.011 A 
HETATM    9  C   UNL     1      11.744   4.399  89.944  1.00  0.00    -0.002 A 
HETATM   10  C   UNL     1      10.642   5.251  89.879  1.00  0.00     0.008 A 
HETATM   11  C   UNL     1       9.971   5.611  91.048  1.00  0.00     0.042 A 
HETATM   12  C   UNL     1      10.401   5.122  92.280  1.00  0.00     0.008 A 
HETATM   13  C   UNL     1      11.504   4.270  92.344  1.00  0.00    -0.002 A 
BRANCH  11  14
HETATM   14  C   UNL     1       8.839   6.484  90.982  1.00  0.00    -0.059 C 
HETATM   15  C   UNL     1       7.889   7.218  90.927  1.00  0.00    -0.059 C 
BRANCH  15  16
HETATM   16  C   UNL     1       6.758   8.090  90.861  1.00  0.00     0.042 A 
HETATM   17  C   UNL     1       6.646   9.154  91.757  1.00  0.00     0.008 A 
HETATM   18  C   UNL     1       5.544  10.007  91.690  1.00  0.00     0.005 A 
HETATM   19  C   UNL     1       4.581   9.778  90.730  1.00  0.00     0.056 A 
HETATM   20  C   UNL     1       4.669   8.734  89.833  1.00  0.00     0.005 A 
HETATM   21  C   UNL     1       5.770   7.880  89.899  1.00  0.00     0.008 A 
BRANCH  19  22
HETATM   22  C   UNL     1       3.407  10.686  90.661  1.00  0.00     0.254 C 
HETATM   23  O   UNL     1       2.464  10.393  89.930  1.00  0.00    -0.268 OA
HETATM   24  N   UNL     1       3.461  11.813  91.470  1.00  0.00    -0.335 N 
HETATM   25  HN  UNL     1       4.263  11.977  92.067  1.00  0.00     0.164 HD
BRANCH  24  26
HETATM   26  C   UNL     1       2.390  12.775  91.532  1.00  0.00     0.166 C 
BRANCH  26  27
HETATM   27  C   UNL     1       1.757  12.869  92.926  1.00  0.00     0.138 C 
HETATM   28  C   UNL     1       1.536  11.501  93.561  1.00  0.00     0.034 C 
BRANCH  27  29
HETATM   29  O   UNL     1       2.597  13.646  93.780  1.00  0.00    -0.383 OA
HETATM   30  H   UNL     1       2.137  13.772  94.627  1.00  0.00     0.210 HD
ENDBRANCH  27  29
ENDBRANCH  26  27
BRANCH  26  31
HETATM   31  C   UNL     1       2.948  14.122  91.084  1.00  0.00     0.181 C 
HETATM   32  O   UNL     1       2.679  15.180  91.650  1.00  0.00    -0.294 OA
BRANCH  31  33
HETATM   33  C   UNL     1       4.562  14.086  90.935  1.00  0.00     0.138 C 
BRANCH  33  34
HETATM   34  C   UNL     1       4.719  14.435  89.576  1.00  0.00     0.208 C 
HETATM   35  O   UNL     1       4.779  15.619  89.333  1.00  0.00    -0.289 OA
BRANCH  34  36
HETATM   36  C   UNL     1       5.102  13.677  88.503  1.00  0.00     0.194 C 
HETATM   37  O   UNL     1       5.628  12.381  88.454  1.00  0.00    -0.185 OA
ENDBRANCH  34  36
ENDBRANCH  33  34
ENDBRANCH  31  33
ENDBRANCH  26  31
ENDBRANCH  24  26
ENDBRANCH  19  22
ENDBRANCH  15  16
ENDBRANCH  11  14
ENDBRANCH   7   8
ENDBRANCH   2   7
TORSDOF 12
ENDMDL
MODEL 2
REMARK VINA RESULT:      -5.9      2.358      3.916
REMARK  12 active torsions:
REMARK  status: ('A' for Active; 'I' for Inactive)
REMARK    1  A    between atoms: O_2  and  C_16 
REMARK    2  A    between atoms: N_5  and  C_9 
REMARK    3  A    between atoms: N_6  and  C_13 
REMARK       I    between atoms: N_6  and  C_22 
REMARK    4  A    between atoms: C_9  and  C_12 
REMARK    5  A    between atoms: C_13  and  C_16 
REMARK    6  A    between atoms: C_13  and  C_21 
REMARK    7  A    between atoms: C_19  and  C_24 
REMARK    8  A    between atoms: C_21  and  C_33 
REMARK    9  A    between atoms: C_22  and  C_23 
REMARK   10  A    between atoms: C_27  and  C_30 
REMARK   11  A    between atoms: C_33  and  C_34 
REMARK   12  A    between atoms: C_34  and  C_35 
ROOT
HETATM    1  O   UNL     1      17.413   4.714  93.658  1.00  0.00    -0.350 OA
HETATM    2  N   UNL     1      15.317   2.825  94.036  1.00  0.00     0.147 N 
HETATM    3  C   UNL     1      16.656   2.409  93.597  1.00  0.00     0.283 C 
HETATM    4  C   UNL     1      15.044   4.197  93.586  1.00  0.00     0.283 C 
HETATM    5  C   UNL     1      17.701   3.392  94.119  1.00  0.00     0.178 C 
HETATM    6  C   UNL     1      16.125   5.138  94.107  1.00  0.00     0.178 C 
ENDROOT
BRANCH   2   7
HETATM    7  C   UNL     1      14.299   1.902  93.538  1.00  0.00     0.277 C 
BRANCH   7   8
HETATM    8  C   UNL     1      13.212   2.602  92.795  1.00  0.00     0.011 A 
HETATM    9  C   UNL     1      12.034   2.955  93.453  1.00  0.00    -0.002 A 
HETATM   10  C   UNL     1      11.016   3.608  92.759  1.00  0.00     0.008 A 
HETATM   11  C   UNL     1      11.178   3.910  91.407  1.00  0.00     0.042 A 
HETATM   12  C   UNL     1      12.354   3.559  90.749  1.00  0.00     0.008 A 
HETATM   13  C   UNL     1      13.372   2.905  91.443  1.00  0.00    -0.002 A 
BRANCH  11  14
HETATM   14  C   UNL     1      10.134   4.582  90.695  1.00  0.00    -0.059 C 
HETATM   15  C   UNL     1       9.257   5.146  90.097  1.00  0.00    -0.059 C 
BRANCH  15  16
HETATM   16  C   UNL     1       8.213   5.817  89.387  1.00  0.00     0.042 A 
HETATM   17  C   UNL     1       6.927   5.870  89.924  1.00  0.00     0.008 A 
HETATM   18  C   UNL     1       5.910   6.527  89.232  1.00  0.00     0.005 A 
HETATM   19  C   UNL     1       6.202   7.117  88.020  1.00  0.00     0.056 A 
HETATM   20  C   UNL     1       7.465   7.078  87.467  1.00  0.00     0.005 A 
HETATM   21  C   UNL     1       8.483   6.421  88.159  1.00  0.00     0.008 A 
BRANCH  19  22
HETATM   22  C   UNL     1       5.117   7.815  87.282  1.00  0.00     0.254 C 
HETATM   23  O   UNL     1       5.123   7.802  86.053  1.00  0.00    -0.268 OA
HETATM   24  N   UNL     1       4.144   8.422  88.063  1.00  0.00    -0.335 N 
HETATM   25  HN  UNL     1       4.191   8.370  89.074  1.00  0.00     0.164 HD
BRANCH  24  26
HETATM   26  C   UNL     1       3.016   9.117  87.495  1.00  0.00     0.166 C 
BRANCH  26  27
HETATM   27  C   UNL     1       1.675   8.473  87.865  1.00  0.00     0.138 C 
HETATM   28  C   UNL     1       1.568   7.030  87.385  1.00  0.00     0.034 C 
BRANCH  27  29
HETATM   29  O   UNL     1       1.505   8.503  89.282  1.00  0.00    -0.383 OA
HETATM   30  H   UNL     1       0.669   8.057  89.498  1.00  0.00     0.210 HD
ENDBRANCH  27  29
ENDBRANCH  26  27
BRANCH  26  31
HETATM   31  C   UNL     1       3.081  10.568  87.961  1.00  0.00     0.181 C 
HETATM   32  O   UNL     1       2.116  11.329  87.919  1.00  0.00    -0.294 OA
BRANCH  31  33
HETATM   33  C   UNL     1       3.692  10.694  89.457  1.00  0.00     0.138 C 
BRANCH  33  34
HETATM   34  C   UNL     1       4.731  11.628  89.250  1.00  0.00     0.208 C 
HETATM   35  O   UNL     1       5.685  11.233  88.620  1.00  0.00    -0.289 OA
BRANCH  34  36
HETATM   36  C   UNL     1       4.741  12.989  89.385  1.00  0.00     0.194 C 
HETATM   37  O   UNL     1       3.683  13.889  89.558  1.00  0.00    -0.185 OA
ENDBRANCH  34  36
ENDBRANCH  33  34
ENDBRANCH  31  33
ENDBRANCH  26  31
ENDBRANCH  24  26
ENDBRANCH  19  22
ENDBRANCH  15  16
ENDBRANCH  11  14
ENDBRANCH   7   8
ENDBRANCH   2   7
TORSDOF 12
ENDMDL
MODEL 3
REMARK VINA RESULT:      -5.4      1.659      2.177
REMARK  12 active torsions:
REMARK  status: ('A' for Active; 'I' for Inactive)
REMARK    1  A    between atoms: O_2  and  C_16 
REMARK    2  A    between atoms: N_5  and  C_9 
REMARK    3  A    between atoms: N_6  and  C_13 
REMARK       I    between atoms: N_6  and  C_22 
REMARK    4  A    between atoms: C_9  and  C_12 
REMARK    5  A    between atoms: C_13  and  C_16 
REMARK    6  A    between atoms: C_13  and  C_21 
REMARK    7  A    between atoms: C_19  and  C_24 
REMARK    8  A    between atoms: C_21  and  C_33 
REMARK    9  A    between atoms: C_22  and  C_23 
REMARK   10  A    between atoms: C_27  and  C_30 
REMARK   11  A    between atoms: C_33  and  C_34 
REMARK   12  A    between atoms: C_34  and  C_35 
ROOT
HETATM    1  O   UNL     1      16.550   4.241  94.124  1.00  0.00    -0.350 OA
HETATM    2  N   UNL     1      14.605   2.666  92.768  1.00  0.00     0.147 N 
HETATM    3  C   UNL     1      14.540   4.134  92.768  1.00  0.00     0.283 C 
HETATM    4  C   UNL     1      15.259   2.191  93.995  1.00  0.00     0.283 C 
HETATM    5  C   UNL     1      15.944   4.713  92.919  1.00  0.00     0.178 C 
HETATM    6  C   UNL     1      16.645   2.816  94.118  1.00  0.00     0.178 C 
ENDROOT
BRANCH   2   7
HETATM    7  C   UNL     1      13.268   2.089  92.634  1.00  0.00     0.277 C 
BRANCH   7   8
HETATM    8  C   UNL     1      12.196   3.124  92.670  1.00  0.00     0.011 A 
HETATM    9  C   UNL     1      11.371   3.311  91.560  1.00  0.00    -0.002 A 
HETATM   10  C   UNL     1      10.369   4.281  91.591  1.00  0.00     0.008 A 
HETATM   11  C   UNL     1      10.192   5.062  92.733  1.00  0.00     0.042 A 
HETATM   12  C   UNL     1      11.015   4.876  93.842  1.00  0.00     0.008 A 
HETATM   13  C   UNL     1      12.018   3.907  93.810  1.00  0.00    -0.002 A 
BRANCH  11  14
HETATM   14  C   UNL     1       9.163   6.055  92.766  1.00  0.00    -0.059 C 
HETATM   15  C   UNL     1       8.298   6.890  92.794  1.00  0.00    -0.059 C 
BRANCH  15  16
HETATM   16  C   UNL     1       7.270   7.884  92.828  1.00  0.00     0.042 A 
HETATM   17  C   UNL     1       6.087   7.685  92.116  1.00  0.00     0.008 A 
HETATM   18  C   UNL     1       5.083   8.653  92.151  1.00  0.00     0.005 A 
HETATM   19  C   UNL     1       5.285   9.796  92.896  1.00  0.00     0.056 A 
HETATM   20  C   UNL     1       6.446  10.016  93.607  1.00  0.00     0.005 A 
HETATM   21  C   UNL     1       7.450   9.049  93.573  1.00  0.00     0.008 A 
BRANCH  19  22
HETATM   22  C   UNL     1       4.216  10.828  92.931  1.00  0.00     0.254 C 
HETATM   23  O   UNL     1       3.221  10.637  93.625  1.00  0.00    -0.268 OA
HETATM   24  N   UNL     1       4.447  11.968  92.174  1.00  0.00    -0.335 N 
HETATM   25  HN  UNL     1       5.305  12.067  91.644  1.00  0.00     0.164 HD
BRANCH  24  26
HETATM   26  C   UNL     1       3.516  13.067  92.124  1.00  0.00     0.166 C 
BRANCH  26  27
HETATM   27  C   UNL     1       3.960  14.259  92.982  1.00  0.00     0.138 C 
HETATM   28  C   UNL     1       2.787  14.961  93.657  1.00  0.00     0.034 C 
BRANCH  27  29
HETATM   29  O   UNL     1       4.873  13.813  93.984  1.00  0.00    -0.383 OA
HETATM   30  H   UNL     1       5.445  13.131  93.593  1.00  0.00     0.210 HD
ENDBRANCH  27  29
ENDBRANCH  26  27
BRANCH  26  31
HETATM   31  C   UNL     1       3.347  13.468  90.663  1.00  0.00     0.181 C 
HETATM   32  O   UNL     1       2.271  13.829  90.188  1.00  0.00    -0.294 OA
BRANCH  31  33
HETATM   33  C   UNL     1       4.435  14.582  90.213  1.00  0.00     0.138 C 
BRANCH  33  34
HETATM   34  C   UNL     1       5.017  13.958  89.088  1.00  0.00     0.208 C 
HETATM   35  O   UNL     1       5.054  14.616  88.074  1.00  0.00    -0.289 OA
BRANCH  34  36
HETATM   36  C   UNL     1       5.806  12.844  89.000  1.00  0.00     0.194 C 
HETATM   37  O   UNL     1       5.468  11.515  88.720  1.00  0.00    -0.185 OA
ENDBRANCH  34  36
ENDBRANCH  33  34
ENDBRANCH  31  33
ENDBRANCH  26  31
ENDBRANCH  24  26
ENDBRANCH  19  22
ENDBRANCH  15  16
ENDBRANCH  11  14
ENDBRANCH   7   8
ENDBRANCH   2   7
TORSDOF 12
ENDMDL
MODEL 4
REMARK VINA RESULT:      -3.7      1.645      3.283
REMARK  12 active torsions:
REMARK  status: ('A' for Active; 'I' for Inactive)
REMARK    1  A    between atoms: O_2  and  C_16 
REMARK    2  A    between atoms: N_5  and  C_9 
REMARK    3  A    between atoms: N_6  and  C_13 
REMARK       I    between atoms: N_6  and  C_22 
REMARK    4  A    between atoms: C_9  and  C_12 
REMARK    5  A    between atoms: C_13  and  C_16 
REMARK    6  A    between atoms: C_13  and  C_21 
REMARK    7  A    between atoms: C_19  and  C_24 
REMARK    8  A    between atoms: C_21  and  C_33 
REMARK    9  A    between atoms: C_22  and  C_23 
REMARK   10  A    between atoms: C_27  and  C_30 
REMARK   11  A    between atoms: C_33  and  C_34 
REMARK   12  A    between atoms: C_34  and  C_35 
ROOT
HETATM    1  O   UNL     1      16.391   3.974  93.127  1.00  0.00    -0.350 OA
HETATM    2  N   UNL     1      14.026   2.420  92.821  1.00  0.00     0.147 N 
HETATM    3  C   UNL     1      15.108   2.377  91.827  1.00  0.00     0.283 C 
HETATM    4  C   UNL     1      14.004   3.731  93.484  1.00  0.00     0.283 C 
HETATM    5  C   UNL     1      16.441   2.691  92.500  1.00  0.00     0.178 C 
HETATM    6  C   UNL     1      15.363   4.014  94.117  1.00  0.00     0.178 C 
ENDROOT
BRANCH   2   7
HETATM    7  C   UNL     1      12.737   2.132  92.196  1.00  0.00     0.277 C 
BRANCH   7   8
HETATM    8  C   UNL     1      11.814   3.302  92.231  1.00  0.00     0.011 A 
HETATM    9  C   UNL     1      11.568   3.958  93.438  1.00  0.00    -0.002 A 
HETATM   10  C   UNL     1      10.703   5.052  93.473  1.00  0.00     0.008 A 
HETATM   11  C   UNL     1      10.087   5.490  92.301  1.00  0.00     0.042 A 
HETATM   12  C   UNL     1      10.332   4.836  91.096  1.00  0.00     0.008 A 
HETATM   13  C   UNL     1      11.196   3.742  91.060  1.00  0.00    -0.002 A 
BRANCH  11  14
HETATM   14  C   UNL     1       9.201   6.613  92.337  1.00  0.00    -0.059 C 
HETATM   15  C   UNL     1       8.457   7.557  92.368  1.00  0.00    -0.059 C 
BRANCH  15  16
HETATM   16  C   UNL     1       7.572   8.680  92.404  1.00  0.00     0.042 A 
HETATM   17  C   UNL     1       7.259   9.359  91.226  1.00  0.00     0.008 A 
HETATM   18  C   UNL     1       6.394  10.452  91.262  1.00  0.00     0.005 A 
HETATM   19  C   UNL     1       5.861  10.841  92.473  1.00  0.00     0.056 A 
HETATM   20  C   UNL     1       6.155  10.187  93.651  1.00  0.00     0.005 A 
HETATM   21  C   UNL     1       7.020   9.094  93.616  1.00  0.00     0.008 A 
BRANCH  19  22
HETATM   22  C   UNL     1       4.941  12.008  92.510  1.00  0.00     0.254 C 
HETATM   23  O   UNL     1       4.547  12.426  93.596  1.00  0.00    -0.268 OA
HETATM   24  N   UNL     1       4.611  12.561  91.281  1.00  0.00    -0.335 N 
HETATM   25  HN  UNL     1       4.995  12.178  90.426  1.00  0.00     0.164 HD
BRANCH  24  26
HETATM   26  C   UNL     1       3.750  13.710  91.154  1.00  0.00     0.166 C 
BRANCH  26  27
HETATM   27  C   UNL     1       4.045  14.537  89.897  1.00  0.00     0.138 C 
HETATM   28  C   UNL     1       5.119  15.594  90.132  1.00  0.00     0.034 C 
BRANCH  27  29
HETATM   29  O   UNL     1       4.470  13.671  88.845  1.00  0.00    -0.383 OA
HETATM   30  H   UNL     1       3.862  13.783  88.094  1.00  0.00     0.210 HD
ENDBRANCH  27  29
ENDBRANCH  26  27
BRANCH  26  31
HETATM   31  C   UNL     1       2.308  13.214  91.166  1.00  0.00     0.181 C 
HETATM   32  O   UNL     1       1.956  12.191  91.750  1.00  0.00    -0.294 OA
BRANCH  31  33
HETATM   33  C   UNL     1       1.275  14.375  91.627  1.00  0.00     0.138 C 
BRANCH  33  34
HETATM   34  C   UNL     1       1.523  14.425  93.017  1.00  0.00     0.208 C 
HETATM   35  O   UNL     1       1.253  13.426  93.642  1.00  0.00    -0.289 OA
BRANCH  34  36
HETATM   36  C   UNL     1       2.279  15.296  93.752  1.00  0.00     0.194 C 
HETATM   37  O   UNL     1       3.661  15.331  93.973  1.00  0.00    -0.185 OA
ENDBRANCH  34  36
ENDBRANCH  33  34
ENDBRANCH  31  33
ENDBRANCH  26  31
ENDBRANCH  24  26
ENDBRANCH  19  22
ENDBRANCH  15  16
ENDBRANCH  11  14
ENDBRANCH   7   8
ENDBRANCH   2   7
TORSDOF 12
ENDMDL
