MODEL 1
REMARK VINA RESULT:      -6.7      0.000      0.000
REMARK  11 active torsions:
REMARK  status: ('A' for Active; 'I' for Inactive)
REMARK    1  A    between atoms: O_2  and  C_18 
REMARK    2  A    between atoms: O_5  and  P_8 
REMARK    3  A    between atoms: N_6  and  C_11 
REMARK    4  A    between atoms: N_7  and  C_15 
REMARK       I    between atoms: N_7  and  C_24 
REMARK    5  A    between atoms: P_8  and  C_23 
REMARK    6  A    between atoms: C_11  and  C_14 
REMARK    7  A    between atoms: C_15  and  C_18 
REMARK    8  A    between atoms: C_15  and  C_23 
REMARK    9  A    between atoms: C_21  and  C_26 
REMARK   10  A    between atoms: C_24  and  C_25 
REMARK   11  A    between atoms: C_29  and  C_32 
ROOT
HETATM    1  O   UNL     1      16.444   4.536  93.893  1.00  0.00     0.000 OA
HETATM    2  N   UNL     1      14.581   2.749  92.694  1.00  0.00     0.000 N 
HETATM    3  C   UNL     1      14.521   4.197  92.452  1.00  0.00     0.000 C 
HETATM    4  C   UNL     1      15.158   2.483  94.019  1.00  0.00     0.000 C 
HETATM    5  C   UNL     1      15.915   4.803  92.593  1.00  0.00     0.000 C 
HETATM    6  C   UNL     1      16.535   3.130  94.124  1.00  0.00     0.000 C 
ENDROOT
BRANCH   2   7
HETATM    7  C   UNL     1      13.254   2.148  92.575  1.00  0.00     0.000 C 
BRANCH   7   8
HETATM    8  C   UNL     1      12.198   3.158  92.280  1.00  0.00     0.000 A 
HETATM    9  C   UNL     1      11.722   3.308  90.976  1.00  0.00     0.000 A 
HETATM   10  C   UNL     1      10.736   4.254  90.699  1.00  0.00     0.000 A 
HETATM   11  C   UNL     1      10.224   5.049  91.724  1.00  0.00     0.000 A 
HETATM   12  C   UNL     1      10.698   4.900  93.026  1.00  0.00     0.000 A 
HETATM   13  C   UNL     1      11.685   3.954  93.304  1.00  0.00     0.000 A 
BRANCH  11  14
HETATM   14  C   UNL     1       9.211   6.018  91.440  1.00  0.00     0.000 C 
HETATM   15  C   UNL     1       8.359   6.832  91.200  1.00  0.00     0.000 C 
BRANCH  15  16
HETATM   16  C   UNL     1       7.346   7.800  90.916  1.00  0.00     0.000 A 
HETATM   17  C   UNL     1       7.058   8.799  91.846  1.00  0.00     0.000 A 
HETATM   18  C   UNL     1       6.071   9.745  91.568  1.00  0.00     0.000 A 
HETATM   19  C   UNL     1       5.396   9.671  90.367  1.00  0.00     0.000 A 
HETATM   20  C   UNL     1       5.662   8.693  89.432  1.00  0.00     0.000 A 
HETATM   21  C   UNL     1       6.648   7.746  89.710  1.00  0.00     0.000 A 
BRANCH  19  22
HETATM   22  C   UNL     1       4.344  10.678  90.072  1.00  0.00     0.000 C 
HETATM   23  O   UNL     1       3.238  10.297  89.698  1.00  0.00     0.000 OA
HETATM   24  N   UNL     1       4.699  12.005  90.272  1.00  0.00     0.000 N 
HETATM   25  HN  UNL     1       5.625  12.243  90.608  1.00  0.00     0.000 HD
BRANCH  24  26
HETATM   26  C   UNL     1       3.782  13.095  90.054  1.00  0.00     0.000 C 
BRANCH  26  27
HETATM   27  C   UNL     1       3.173  13.628  91.356  1.00  0.00     0.000 C 
HETATM   28  C   UNL     1       2.096  12.707  91.918  1.00  0.00     0.000 C 
BRANCH  27  29
HETATM   29  O   UNL     1       4.201  13.789  92.333  1.00  0.00     0.000 OA
HETATM   30  H   UNL     1       4.027  14.608  92.827  1.00  0.00     0.000 HD
ENDBRANCH  27  29
ENDBRANCH  26  27
BRANCH  26  31
HETATM   31  C   UNL     1       4.531  14.190  89.302  1.00  0.00     0.000 C 
HETATM   32  O   UNL     1       4.514  15.371  89.646  1.00  0.00     0.000 OA
BRANCH  31  33
HETATM   33  P   UNL     1       5.182  13.707  88.193  1.00  0.00     0.000 P 
HETATM   34  H   UNL     1       5.614  14.788  87.452  1.00  0.00     0.000 HD
BRANCH  33  35
HETATM   35  O   UNL     1       4.421  12.884  87.350  1.00  0.00     0.000 OA
HETATM   36  H   UNL     1       4.942  12.064  87.391  1.00  0.00     0.000 HD
ENDBRANCH  33  35
ENDBRANCH  31  33
ENDBRANCH  26  31
ENDBRANCH  24  26
ENDBRANCH  19  22
ENDBRANCH  15  16
ENDBRANCH  11  14
ENDBRANCH   7   8
ENDBRANCH   2   7
TORSDOF 11
ENDMDL
