MODEL 1
REMARK VINA RESULT:      -6.7      0.000      0.000
REMARK  14 active torsions:
REMARK  status: ('A' for Active; 'I' for Inactive)
REMARK    1  A    between atoms: O_2  and  C_18 
REMARK    2  A    between atoms: C_5  and  C_8 
REMARK    3  A    between atoms: C_5  and  O_35 
REMARK    4  A    between atoms: C_5  and  C_36 
REMARK    5  A    between atoms: N_6  and  C_11 
REMARK    6  A    between atoms: N_7  and  C_15 
REMARK       I    between atoms: N_7  and  C_24 
REMARK    7  A    between atoms: C_8  and  C_23 
REMARK    8  A    between atoms: C_11  and  C_14 
REMARK    9  A    between atoms: C_15  and  C_18 
REMARK   10  A    between atoms: C_15  and  C_23 
REMARK   11  A    between atoms: C_21  and  C_26 
REMARK   12  A    between atoms: C_24  and  C_25 
REMARK   13  A    between atoms: C_29  and  C_32 
REMARK   14  A    between atoms: C_36  and  O_39 
ROOT
HETATM    1  O   UNL     1      16.937   3.925  93.965  1.00  0.00    -0.350 OA
HETATM    2  N   UNL     1      14.457   2.954  92.962  1.00  0.00     0.147 N 
HETATM    3  C   UNL     1      15.658   2.109  92.988  1.00  0.00     0.283 C 
HETATM    4  C   UNL     1      14.838   4.367  92.831  1.00  0.00     0.283 C 
HETATM    5  C   UNL     1      16.578   2.552  94.124  1.00  0.00     0.178 C 
HETATM    6  C   UNL     1      15.776   4.757  93.969  1.00  0.00     0.178 C 
ENDROOT
BRANCH   2   7
HETATM    7  C   UNL     1      13.566   2.554  91.874  1.00  0.00     0.277 C 
BRANCH   7   8
HETATM    8  C   UNL     1      12.412   3.483  91.714  1.00  0.00     0.011 A 
HETATM    9  C   UNL     1      11.554   3.721  92.789  1.00  0.00    -0.002 A 
HETATM   10  C   UNL     1      10.473   4.588  92.640  1.00  0.00     0.008 A 
HETATM   11  C   UNL     1      10.250   5.219  91.416  1.00  0.00     0.042 A 
HETATM   12  C   UNL     1      11.105   4.983  90.342  1.00  0.00     0.008 A 
HETATM   13  C   UNL     1      12.187   4.115  90.491  1.00  0.00    -0.002 A 
BRANCH  11  14
HETATM   14  C   UNL     1       9.141   6.111  91.264  1.00  0.00    -0.059 C 
HETATM   15  C   UNL     1       8.210   6.861  91.136  1.00  0.00    -0.059 C 
BRANCH  15  16
HETATM   16  C   UNL     1       7.102   7.751  90.983  1.00  0.00     0.042 A 
HETATM   17  C   UNL     1       6.079   7.442  90.086  1.00  0.00     0.008 A 
HETATM   18  C   UNL     1       4.997   8.310  89.939  1.00  0.00     0.005 A 
HETATM   19  C   UNL     1       4.961   9.465  90.692  1.00  0.00     0.056 A 
HETATM   20  C   UNL     1       5.960   9.793  91.584  1.00  0.00     0.005 A 
HETATM   21  C   UNL     1       7.043   8.926  91.732  1.00  0.00     0.008 A 
BRANCH  19  22
HETATM   22  C   UNL     1       3.809  10.390  90.534  1.00  0.00     0.254 C 
HETATM   23  O   UNL     1       2.785   9.985  89.989  1.00  0.00    -0.268 OA
HETATM   24  N   UNL     1       3.979  11.667  91.050  1.00  0.00    -0.335 N 
HETATM   25  HN  UNL     1       4.845  11.923  91.510  1.00  0.00     0.164 HD
BRANCH  24  26
HETATM   26  C   UNL     1       2.946  12.669  90.996  1.00  0.00     0.169 C 
BRANCH  26  27
HETATM   27  C   UNL     1       2.078  12.696  92.261  1.00  0.00     0.138 C 
HETATM   28  C   UNL     1       1.255  13.974  92.377  1.00  0.00     0.034 C 
BRANCH  27  29
HETATM   29  O   UNL     1       1.195  11.575  92.257  1.00  0.00    -0.383 OA
HETATM   30  H   UNL     1       0.361  11.844  91.835  1.00  0.00     0.210 HD
ENDBRANCH  27  29
ENDBRANCH  26  27
BRANCH  26  31
HETATM   31  C   UNL     1       3.616  14.018  90.755  1.00  0.00     0.194 C 
HETATM   32  O   UNL     1       4.174  14.657  91.646  1.00  0.00    -0.289 OA
BRANCH  31  33
HETATM   33  C   UNL     1       3.487  14.437  89.453  1.00  0.00     0.053 C 
BRANCH  33  34
HETATM   34  C   UNL     1       4.671  14.476  88.704  1.00  0.00     0.220 C 
BRANCH  34  35
HETATM   35  O   UNL     1       5.604  14.757  89.481  1.00  0.00    -0.371 OA
HETATM   36  H   UNL     1       6.322  14.620  88.882  1.00  0.00     0.211 HD
ENDBRANCH  34  35
BRANCH  34  37
HETATM   37  C   UNL     1       4.916  13.296  87.982  1.00  0.00     0.185 C 
HETATM   38  O   UNL     1       6.176  13.554  88.297  1.00  0.00    -0.647 OA
BRANCH  37  39
HETATM   39  O   UNL     1       4.275  12.503  87.360  1.00  0.00    -0.774 OA
HETATM   40  H   UNL     1       3.428  13.002  86.793  1.00  0.00     0.167 HD
ENDBRANCH  37  39
ENDBRANCH  34  37
ENDBRANCH  33  34
ENDBRANCH  31  33
ENDBRANCH  26  31
ENDBRANCH  24  26
ENDBRANCH  19  22
ENDBRANCH  15  16
ENDBRANCH  11  14
ENDBRANCH   7   8
ENDBRANCH   2   7
TORSDOF 14
ENDMDL
