MODEL 1
REMARK VINA RESULT:      -6.3      0.000      0.000
REMARK  11 active torsions:
REMARK  status: ('A' for Active; 'I' for Inactive)
REMARK    1  A    between atoms: O_2  and  C_18 
REMARK    2  A    between atoms: O_5  and  P_8 
REMARK    3  A    between atoms: N_6  and  C_11 
REMARK    4  A    between atoms: N_7  and  C_15 
REMARK       I    between atoms: N_7  and  C_24 
REMARK    5  A    between atoms: P_8  and  C_23 
REMARK    6  A    between atoms: C_11  and  C_14 
REMARK    7  A    between atoms: C_15  and  C_18 
REMARK    8  A    between atoms: C_15  and  C_23 
REMARK    9  A    between atoms: C_21  and  C_26 
REMARK   10  A    between atoms: C_24  and  C_25 
REMARK   11  A    between atoms: C_29  and  C_32 
ROOT
HETATM    1  O   UNL     1      16.959   4.069  93.881  1.00  0.00     0.000 OA
HETATM    2  N   UNL     1      14.482   2.803  93.279  1.00  0.00     0.000 N 
HETATM    3  C   UNL     1      15.760   2.091  93.147  1.00  0.00     0.000 C 
HETATM    4  C   UNL     1      14.682   4.242  93.061  1.00  0.00     0.000 C 
HETATM    5  C   UNL     1      16.779   2.673  94.124  1.00  0.00     0.000 C 
HETATM    6  C   UNL     1      15.726   4.773  94.038  1.00  0.00     0.000 C 
ENDROOT
BRANCH   2   7
HETATM    7  C   UNL     1      13.493   2.268  92.345  1.00  0.00     0.000 C 
BRANCH   7   8
HETATM    8  C   UNL     1      12.385   3.230  92.078  1.00  0.00     0.000 A 
HETATM    9  C   UNL     1      11.780   3.906  93.138  1.00  0.00     0.000 A 
HETATM   10  C   UNL     1      10.742   4.804  92.891  1.00  0.00     0.000 A 
HETATM   11  C   UNL     1      10.311   5.027  91.583  1.00  0.00     0.000 A 
HETATM   12  C   UNL     1      10.915   4.352  90.524  1.00  0.00     0.000 A 
HETATM   13  C   UNL     1      11.952   3.454  90.771  1.00  0.00     0.000 A 
BRANCH  11  14
HETATM   14  C   UNL     1       9.248   5.950  91.329  1.00  0.00     0.000 C 
HETATM   15  C   UNL     1       8.354   6.725  91.117  1.00  0.00     0.000 C 
BRANCH  15  16
HETATM   16  C   UNL     1       7.291   7.648  90.864  1.00  0.00     0.000 A 
HETATM   17  C   UNL     1       7.279   8.888  91.503  1.00  0.00     0.000 A 
HETATM   18  C   UNL     1       6.243   9.789  91.254  1.00  0.00     0.000 A 
HETATM   19  C   UNL     1       5.246   9.431  90.372  1.00  0.00     0.000 A 
HETATM   20  C   UNL     1       5.236   8.212  89.727  1.00  0.00     0.000 A 
HETATM   21  C   UNL     1       6.270   7.310  89.976  1.00  0.00     0.000 A 
BRANCH  19  22
HETATM   22  C   UNL     1       4.142  10.391  90.108  1.00  0.00     0.000 C 
HETATM   23  O   UNL     1       3.007   9.961  89.916  1.00  0.00     0.000 OA
HETATM   24  N   UNL     1       4.488  11.735  90.125  1.00  0.00     0.000 N 
HETATM   25  HN  UNL     1       5.443  12.016  90.316  1.00  0.00     0.000 HD
BRANCH  24  26
HETATM   26  C   UNL     1       3.526  12.786  89.912  1.00  0.00     0.000 C 
BRANCH  26  27
HETATM   27  C   UNL     1       2.735  13.133  91.179  1.00  0.00     0.000 C 
HETATM   28  C   UNL     1       3.639  13.492  92.353  1.00  0.00     0.000 C 
BRANCH  27  29
HETATM   29  O   UNL     1       1.864  14.231  90.912  1.00  0.00     0.000 OA
HETATM   30  H   UNL     1       2.125  14.973  91.483  1.00  0.00     0.000 HD
ENDBRANCH  27  29
ENDBRANCH  26  27
BRANCH  26  31
HETATM   31  C   UNL     1       4.276  14.001  89.376  1.00  0.00     0.000 C 
HETATM   32  O   UNL     1       4.168  15.124  89.866  1.00  0.00     0.000 OA
BRANCH  31  33
HETATM   33  P   UNL     1       5.040  13.697  88.276  1.00  0.00     0.000 P 
HETATM   34  H   UNL     1       5.249  14.864  87.570  1.00  0.00     0.000 HD
BRANCH  33  35
HETATM   35  O   UNL     1       4.492  12.753  87.395  1.00  0.00     0.000 OA
HETATM   36  H   UNL     1       4.125  12.115  88.030  1.00  0.00     0.000 HD
ENDBRANCH  33  35
ENDBRANCH  31  33
ENDBRANCH  26  31
ENDBRANCH  24  26
ENDBRANCH  19  22
ENDBRANCH  15  16
ENDBRANCH  11  14
ENDBRANCH   7   8
ENDBRANCH   2   7
TORSDOF 11
ENDMDL
MODEL 2
REMARK VINA RESULT:      -6.1      1.912      2.806
REMARK  11 active torsions:
REMARK  status: ('A' for Active; 'I' for Inactive)
REMARK    1  A    between atoms: O_2  and  C_18 
REMARK    2  A    between atoms: O_5  and  P_8 
REMARK    3  A    between atoms: N_6  and  C_11 
REMARK    4  A    between atoms: N_7  and  C_15 
REMARK       I    between atoms: N_7  and  C_24 
REMARK    5  A    between atoms: P_8  and  C_23 
REMARK    6  A    between atoms: C_11  and  C_14 
REMARK    7  A    between atoms: C_15  and  C_18 
REMARK    8  A    between atoms: C_15  and  C_23 
REMARK    9  A    between atoms: C_21  and  C_26 
REMARK   10  A    between atoms: C_24  and  C_25 
REMARK   11  A    between atoms: C_29  and  C_32 
ROOT
HETATM    1  O   UNL     1      16.048   4.096  93.964  1.00  0.00     0.000 OA
HETATM    2  N   UNL     1      14.149   2.702  92.366  1.00  0.00     0.000 N 
HETATM    3  C   UNL     1      14.379   4.144  92.202  1.00  0.00     0.000 C 
HETATM    4  C   UNL     1      14.430   2.301  93.751  1.00  0.00     0.000 C 
HETATM    5  C   UNL     1      15.809   4.489  92.611  1.00  0.00     0.000 C 
HETATM    6  C   UNL     1      15.857   2.690  94.124  1.00  0.00     0.000 C 
ENDROOT
BRANCH   2   7
HETATM    7  C   UNL     1      12.781   2.350  91.989  1.00  0.00     0.000 C 
BRANCH   7   8
HETATM    8  C   UNL     1      11.849   3.509  92.090  1.00  0.00     0.000 A 
HETATM    9  C   UNL     1      11.600   4.097  93.331  1.00  0.00     0.000 A 
HETATM   10  C   UNL     1      10.726   5.179  93.427  1.00  0.00     0.000 A 
HETATM   11  C   UNL     1      10.103   5.675  92.281  1.00  0.00     0.000 A 
HETATM   12  C   UNL     1      10.351   5.089  91.042  1.00  0.00     0.000 A 
HETATM   13  C   UNL     1      11.225   4.006  90.946  1.00  0.00     0.000 A 
BRANCH  11  14
HETATM   14  C   UNL     1       9.208   6.787  92.380  1.00  0.00     0.000 C 
HETATM   15  C   UNL     1       8.457   7.722  92.462  1.00  0.00     0.000 C 
BRANCH  15  16
HETATM   16  C   UNL     1       7.563   8.834  92.559  1.00  0.00     0.000 A 
HETATM   17  C   UNL     1       7.449   9.532  93.762  1.00  0.00     0.000 A 
HETATM   18  C   UNL     1       6.579  10.618  93.855  1.00  0.00     0.000 A 
HETATM   19  C   UNL     1       5.844  10.982  92.746  1.00  0.00     0.000 A 
HETATM   20  C   UNL     1       5.939  10.308  91.547  1.00  0.00     0.000 A 
HETATM   21  C   UNL     1       6.808   9.221  91.452  1.00  0.00     0.000 A 
BRANCH  19  22
HETATM   22  C   UNL     1       4.916  12.138  92.847  1.00  0.00     0.000 C 
HETATM   23  O   UNL     1       4.743  12.675  93.939  1.00  0.00     0.000 OA
HETATM   24  N   UNL     1       4.320  12.545  91.662  1.00  0.00     0.000 N 
HETATM   25  HN  UNL     1       4.530  12.068  90.793  1.00  0.00     0.000 HD
BRANCH  24  26
HETATM   26  C   UNL     1       3.416  13.664  91.593  1.00  0.00     0.000 C 
BRANCH  26  27
HETATM   27  C   UNL     1       3.404  14.333  90.212  1.00  0.00     0.000 C 
HETATM   28  C   UNL     1       4.780  14.843  89.799  1.00  0.00     0.000 C 
BRANCH  27  29
HETATM   29  O   UNL     1       2.941  13.402  89.234  1.00  0.00     0.000 OA
HETATM   30  H   UNL     1       2.546  12.645  89.698  1.00  0.00     0.000 HD
ENDBRANCH  27  29
ENDBRANCH  26  27
BRANCH  26  31
HETATM   31  C   UNL     1       2.027  13.166  91.979  1.00  0.00     0.000 C 
HETATM   32  O   UNL     1       1.622  12.037  91.710  1.00  0.00     0.000 OA
BRANCH  31  33
HETATM   33  P   UNL     1       1.288  14.132  92.618  1.00  0.00     0.000 P 
HETATM   34  H   UNL     1       1.178  15.213  91.766  1.00  0.00     0.000 HD
BRANCH  33  35
HETATM   35  O   UNL     1       1.810  14.595  93.834  1.00  0.00     0.000 OA
HETATM   36  H   UNL     1       2.032  13.750  94.261  1.00  0.00     0.000 HD
ENDBRANCH  33  35
ENDBRANCH  31  33
ENDBRANCH  26  31
ENDBRANCH  24  26
ENDBRANCH  19  22
ENDBRANCH  15  16
ENDBRANCH  11  14
ENDBRANCH   7   8
ENDBRANCH   2   7
TORSDOF 11
ENDMDL
MODEL 3
REMARK VINA RESULT:      -5.8      1.584      2.060
REMARK  11 active torsions:
REMARK  status: ('A' for Active; 'I' for Inactive)
REMARK    1  A    between atoms: O_2  and  C_18 
REMARK    2  A    between atoms: O_5  and  P_8 
REMARK    3  A    between atoms: N_6  and  C_11 
REMARK    4  A    between atoms: N_7  and  C_15 
REMARK       I    between atoms: N_7  and  C_24 
REMARK    5  A    between atoms: P_8  and  C_23 
REMARK    6  A    between atoms: C_11  and  C_14 
REMARK    7  A    between atoms: C_15  and  C_18 
REMARK    8  A    between atoms: C_15  and  C_23 
REMARK    9  A    between atoms: C_21  and  C_26 
REMARK   10  A    between atoms: C_24  and  C_25 
REMARK   11  A    between atoms: C_29  and  C_32 
ROOT
HETATM    1  O   UNL     1      16.595   3.147  93.803  1.00  0.00     0.000 OA
HETATM    2  N   UNL     1      13.907   2.959  92.884  1.00  0.00     0.000 N 
HETATM    3  C   UNL     1      14.752   1.766  93.036  1.00  0.00     0.000 C 
HETATM    4  C   UNL     1      14.741   4.132  92.587  1.00  0.00     0.000 C 
HETATM    5  C   UNL     1      15.796   2.007  94.124  1.00  0.00     0.000 C 
HETATM    6  C   UNL     1      15.784   4.317  93.684  1.00  0.00     0.000 C 
ENDROOT
BRANCH   2   7
HETATM    7  C   UNL     1      12.906   2.754  91.838  1.00  0.00     0.000 C 
BRANCH   7   8
HETATM    8  C   UNL     1      11.844   3.800  91.856  1.00  0.00     0.000 A 
HETATM    9  C   UNL     1      11.302   4.262  90.657  1.00  0.00     0.000 A 
HETATM   10  C   UNL     1      10.309   5.242  90.672  1.00  0.00     0.000 A 
HETATM   11  C   UNL     1       9.858   5.757  91.887  1.00  0.00     0.000 A 
HETATM   12  C   UNL     1      10.399   5.296  93.086  1.00  0.00     0.000 A 
HETATM   13  C   UNL     1      11.392   4.316  93.071  1.00  0.00     0.000 A 
BRANCH  11  14
HETATM   14  C   UNL     1       8.839   6.761  91.903  1.00  0.00     0.000 C 
HETATM   15  C   UNL     1       7.982   7.604  91.916  1.00  0.00     0.000 C 
BRANCH  15  16
HETATM   16  C   UNL     1       6.963   8.607  91.931  1.00  0.00     0.000 A 
HETATM   17  C   UNL     1       6.999   9.623  92.887  1.00  0.00     0.000 A 
HETATM   18  C   UNL     1       6.006  10.602  92.900  1.00  0.00     0.000 A 
HETATM   19  C   UNL     1       5.000  10.544  91.959  1.00  0.00     0.000 A 
HETATM   20  C   UNL     1       4.941   9.550  91.004  1.00  0.00     0.000 A 
HETATM   21  C   UNL     1       5.934   8.570  90.990  1.00  0.00     0.000 A 
BRANCH  19  22
HETATM   22  C   UNL     1       3.941  11.586  91.975  1.00  0.00     0.000 C 
HETATM   23  O   UNL     1       2.763  11.243  92.030  1.00  0.00     0.000 OA
HETATM   24  N   UNL     1       4.383  12.902  91.949  1.00  0.00     0.000 N 
HETATM   25  HN  UNL     1       5.374  13.110  91.929  1.00  0.00     0.000 HD
BRANCH  24  26
HETATM   26  C   UNL     1       3.480  14.024  91.985  1.00  0.00     0.000 C 
BRANCH  26  27
HETATM   27  C   UNL     1       3.745  14.963  93.168  1.00  0.00     0.000 C 
HETATM   28  C   UNL     1       2.463  15.390  93.874  1.00  0.00     0.000 C 
BRANCH  27  29
HETATM   29  O   UNL     1       4.599  14.314  94.110  1.00  0.00     0.000 OA
HETATM   30  H   UNL     1       5.357  14.896  94.285  1.00  0.00     0.000 HD
ENDBRANCH  27  29
ENDBRANCH  26  27
BRANCH  26  31
HETATM   31  C   UNL     1       3.600  14.761  90.655  1.00  0.00     0.000 C 
HETATM   32  O   UNL     1       2.815  14.593  89.723  1.00  0.00     0.000 OA
BRANCH  31  33
HETATM   33  P   UNL     1       4.696  15.588  90.617  1.00  0.00     0.000 P 
HETATM   34  H   UNL     1       4.268  16.871  90.893  1.00  0.00     0.000 HD
BRANCH  33  35
HETATM   35  O   UNL     1       5.394  15.621  89.401  1.00  0.00     0.000 OA
HETATM   36  H   UNL     1       4.717  16.010  88.822  1.00  0.00     0.000 HD
ENDBRANCH  33  35
ENDBRANCH  31  33
ENDBRANCH  26  31
ENDBRANCH  24  26
ENDBRANCH  19  22
ENDBRANCH  15  16
ENDBRANCH  11  14
ENDBRANCH   7   8
ENDBRANCH   2   7
TORSDOF 11
ENDMDL
MODEL 4
REMARK VINA RESULT:      -4.8      2.601      3.304
REMARK  11 active torsions:
REMARK  status: ('A' for Active; 'I' for Inactive)
REMARK    1  A    between atoms: O_2  and  C_18 
REMARK    2  A    between atoms: O_5  and  P_8 
REMARK    3  A    between atoms: N_6  and  C_11 
REMARK    4  A    between atoms: N_7  and  C_15 
REMARK       I    between atoms: N_7  and  C_24 
REMARK    5  A    between atoms: P_8  and  C_23 
REMARK    6  A    between atoms: C_11  and  C_14 
REMARK    7  A    between atoms: C_15  and  C_18 
REMARK    8  A    between atoms: C_15  and  C_23 
REMARK    9  A    between atoms: C_21  and  C_26 
REMARK   10  A    between atoms: C_24  and  C_25 
REMARK   11  A    between atoms: C_29  and  C_32 
ROOT
HETATM    1  O   UNL     1      17.344   4.839  93.648  1.00  0.00     0.000 OA
HETATM    2  N   UNL     1      15.319   2.893  94.111  1.00  0.00     0.000 N 
HETATM    3  C   UNL     1      16.658   2.511  93.643  1.00  0.00     0.000 C 
HETATM    4  C   UNL     1      14.991   4.249  93.647  1.00  0.00     0.000 C 
HETATM    5  C   UNL     1      17.685   3.534  94.122  1.00  0.00     0.000 C 
HETATM    6  C   UNL     1      16.057   5.231  94.124  1.00  0.00     0.000 C 
ENDROOT
BRANCH   2   7
HETATM    7  C   UNL     1      14.317   1.932  93.656  1.00  0.00     0.000 C 
BRANCH   7   8
HETATM    8  C   UNL     1      13.180   2.588  92.948  1.00  0.00     0.000 A 
HETATM    9  C   UNL     1      12.639   3.773  93.448  1.00  0.00     0.000 A 
HETATM   10  C   UNL     1      11.575   4.386  92.789  1.00  0.00     0.000 A 
HETATM   11  C   UNL     1      11.053   3.815  91.628  1.00  0.00     0.000 A 
HETATM   12  C   UNL     1      11.592   2.632  91.128  1.00  0.00     0.000 A 
HETATM   13  C   UNL     1      12.656   2.018  91.788  1.00  0.00     0.000 A 
BRANCH  11  14
HETATM   14  C   UNL     1       9.962   4.446  90.951  1.00  0.00     0.000 C 
HETATM   15  C   UNL     1       9.045   4.975  90.381  1.00  0.00     0.000 C 
BRANCH  15  16
HETATM   16  C   UNL     1       7.954   5.606  89.705  1.00  0.00     0.000 A 
HETATM   17  C   UNL     1       6.669   5.542  90.245  1.00  0.00     0.000 A 
HETATM   18  C   UNL     1       5.606   6.159  89.586  1.00  0.00     0.000 A 
HETATM   19  C   UNL     1       5.851   6.827  88.404  1.00  0.00     0.000 A 
HETATM   20  C   UNL     1       7.112   6.904  87.850  1.00  0.00     0.000 A 
HETATM   21  C   UNL     1       8.176   6.287  88.508  1.00  0.00     0.000 A 
BRANCH  19  22
HETATM   22  C   UNL     1       4.718   7.483  87.702  1.00  0.00     0.000 C 
HETATM   23  O   UNL     1       4.593   7.327  86.490  1.00  0.00     0.000 OA
HETATM   24  N   UNL     1       3.854   8.221  88.499  1.00  0.00     0.000 N 
HETATM   25  HN  UNL     1       4.007   8.284  89.499  1.00  0.00     0.000 HD
BRANCH  24  26
HETATM   26  C   UNL     1       2.696   8.895  87.970  1.00  0.00     0.000 C 
BRANCH  26  27
HETATM   27  C   UNL     1       1.378   8.319  88.504  1.00  0.00     0.000 C 
HETATM   28  C   UNL     1       1.283   6.809  88.320  1.00  0.00     0.000 C 
BRANCH  27  29
HETATM   29  O   UNL     1       1.251   8.626  89.892  1.00  0.00     0.000 OA
HETATM   30  H   UNL     1       1.932   8.130  90.377  1.00  0.00     0.000 HD
ENDBRANCH  27  29
ENDBRANCH  26  27
BRANCH  26  31
HETATM   31  C   UNL     1       2.828  10.378  88.301  1.00  0.00     0.000 C 
HETATM   32  O   UNL     1       2.125  11.245  87.785  1.00  0.00     0.000 OA
BRANCH  31  33
HETATM   33  P   UNL     1       3.837  10.620  89.201  1.00  0.00     0.000 P 
HETATM   34  H   UNL     1       3.441  11.667  90.009  1.00  0.00     0.000 HD
BRANCH  33  35
HETATM   35  O   UNL     1       5.082  10.951  88.648  1.00  0.00     0.000 OA
HETATM   36  H   UNL     1       4.937  11.890  88.441  1.00  0.00     0.000 HD
ENDBRANCH  33  35
ENDBRANCH  31  33
ENDBRANCH  26  31
ENDBRANCH  24  26
ENDBRANCH  19  22
ENDBRANCH  15  16
ENDBRANCH  11  14
ENDBRANCH   7   8
ENDBRANCH   2   7
TORSDOF 11
ENDMDL
MODEL 5
REMARK VINA RESULT:      -4.7      1.309      1.488
REMARK  11 active torsions:
REMARK  status: ('A' for Active; 'I' for Inactive)
REMARK    1  A    between atoms: O_2  and  C_18 
REMARK    2  A    between atoms: O_5  and  P_8 
REMARK    3  A    between atoms: N_6  and  C_11 
REMARK    4  A    between atoms: N_7  and  C_15 
REMARK       I    between atoms: N_7  and  C_24 
REMARK    5  A    between atoms: P_8  and  C_23 
REMARK    6  A    between atoms: C_11  and  C_14 
REMARK    7  A    between atoms: C_15  and  C_18 
REMARK    8  A    between atoms: C_15  and  C_23 
REMARK    9  A    between atoms: C_21  and  C_26 
REMARK   10  A    between atoms: C_24  and  C_25 
REMARK   11  A    between atoms: C_29  and  C_32 
ROOT
HETATM    1  O   UNL     1      16.594   3.125  93.600  1.00  0.00     0.000 OA
HETATM    2  N   UNL     1      13.860   2.748  92.901  1.00  0.00     0.000 N 
HETATM    3  C   UNL     1      14.753   1.608  93.152  1.00  0.00     0.000 C 
HETATM    4  C   UNL     1      14.633   3.891  92.394  1.00  0.00     0.000 C 
HETATM    5  C   UNL     1      15.856   2.020  94.124  1.00  0.00     0.000 C 
HETATM    6  C   UNL     1      15.738   4.248  93.382  1.00  0.00     0.000 C 
ENDROOT
BRANCH   2   7
HETATM    7  C   UNL     1      12.801   2.380  91.964  1.00  0.00     0.000 C 
BRANCH   7   8
HETATM    8  C   UNL     1      11.842   3.496  91.723  1.00  0.00     0.000 A 
HETATM    9  C   UNL     1      11.056   3.976  92.771  1.00  0.00     0.000 A 
HETATM   10  C   UNL     1      10.156   5.019  92.546  1.00  0.00     0.000 A 
HETATM   11  C   UNL     1      10.046   5.581  91.275  1.00  0.00     0.000 A 
HETATM   12  C   UNL     1      10.831   5.102  90.228  1.00  0.00     0.000 A 
HETATM   13  C   UNL     1      11.730   4.059  90.452  1.00  0.00     0.000 A 
BRANCH  11  14
HETATM   14  C   UNL     1       9.125   6.652  91.045  1.00  0.00     0.000 C 
HETATM   15  C   UNL     1       8.351   7.551  90.853  1.00  0.00     0.000 C 
BRANCH  15  16
HETATM   16  C   UNL     1       7.431   8.622  90.624  1.00  0.00     0.000 A 
HETATM   17  C   UNL     1       7.285   9.630  91.577  1.00  0.00     0.000 A 
HETATM   18  C   UNL     1       6.390  10.676  91.352  1.00  0.00     0.000 A 
HETATM   19  C   UNL     1       5.662  10.690  90.181  1.00  0.00     0.000 A 
HETATM   20  C   UNL     1       5.788   9.705  89.224  1.00  0.00     0.000 A 
HETATM   21  C   UNL     1       6.683   8.659  89.447  1.00  0.00     0.000 A 
BRANCH  19  22
HETATM   22  C   UNL     1       4.707  11.803  89.943  1.00  0.00     0.000 C 
HETATM   23  O   UNL     1       4.228  11.953  88.822  1.00  0.00     0.000 OA
HETATM   24  N   UNL     1       4.406  12.592  91.045  1.00  0.00     0.000 N 
HETATM   25  HN  UNL     1       4.821  12.393  91.947  1.00  0.00     0.000 HD
BRANCH  24  26
HETATM   26  C   UNL     1       3.479  13.694  90.980  1.00  0.00     0.000 C 
BRANCH  26  27
HETATM   27  C   UNL     1       2.284  13.520  91.925  1.00  0.00     0.000 C 
HETATM   28  C   UNL     1       1.204  14.573  91.700  1.00  0.00     0.000 C 
BRANCH  27  29
HETATM   29  O   UNL     1       1.713  12.225  91.740  1.00  0.00     0.000 OA
HETATM   30  H   UNL     1       1.359  11.923  92.594  1.00  0.00     0.000 HD
ENDBRANCH  27  29
ENDBRANCH  26  27
BRANCH  26  31
HETATM   31  C   UNL     1       4.252  14.971  91.292  1.00  0.00     0.000 C 
HETATM   32  O   UNL     1       4.349  15.435  92.427  1.00  0.00     0.000 OA
BRANCH  31  33
HETATM   33  P   UNL     1       4.782  15.546  90.162  1.00  0.00     0.000 P 
HETATM   34  H   UNL     1       4.207  16.792  90.013  1.00  0.00     0.000 HD
BRANCH  33  35
HETATM   35  O   UNL     1       4.588  14.838  88.968  1.00  0.00     0.000 OA
HETATM   36  H   UNL     1       3.690  14.493  89.114  1.00  0.00     0.000 HD
ENDBRANCH  33  35
ENDBRANCH  31  33
ENDBRANCH  26  31
ENDBRANCH  24  26
ENDBRANCH  19  22
ENDBRANCH  15  16
ENDBRANCH  11  14
ENDBRANCH   7   8
ENDBRANCH   2   7
TORSDOF 11
ENDMDL
MODEL 6
REMARK VINA RESULT:      -4.2      3.489     12.502
REMARK  11 active torsions:
REMARK  status: ('A' for Active; 'I' for Inactive)
REMARK    1  A    between atoms: O_2  and  C_18 
REMARK    2  A    between atoms: O_5  and  P_8 
REMARK    3  A    between atoms: N_6  and  C_11 
REMARK    4  A    between atoms: N_7  and  C_15 
REMARK       I    between atoms: N_7  and  C_24 
REMARK    5  A    between atoms: P_8  and  C_23 
REMARK    6  A    between atoms: C_11  and  C_14 
REMARK    7  A    between atoms: C_15  and  C_18 
REMARK    8  A    between atoms: C_15  and  C_23 
REMARK    9  A    between atoms: C_21  and  C_26 
REMARK   10  A    between atoms: C_24  and  C_25 
REMARK   11  A    between atoms: C_29  and  C_32 
ROOT
HETATM    1  O   UNL     1       3.653  14.636  92.521  1.00  0.00     0.000 OA
HETATM    2  N   UNL     1       3.570  13.649  89.852  1.00  0.00     0.000 N 
HETATM    3  C   UNL     1       2.919  12.931  90.958  1.00  0.00     0.000 C 
HETATM    4  C   UNL     1       4.722  14.409  90.355  1.00  0.00     0.000 C 
HETATM    5  C   UNL     1       2.511  13.920  92.047  1.00  0.00     0.000 C 
HETATM    6  C   UNL     1       4.273  15.362  91.458  1.00  0.00     0.000 C 
ENDROOT
BRANCH   2   7
HETATM    7  C   UNL     1       3.979  12.719  88.801  1.00  0.00     0.000 C 
BRANCH   7   8
HETATM    8  C   UNL     1       4.928  11.682  89.298  1.00  0.00     0.000 A 
HETATM    9  C   UNL     1       6.303  11.876  89.167  1.00  0.00     0.000 A 
HETATM   10  C   UNL     1       7.192  10.906  89.630  1.00  0.00     0.000 A 
HETATM   11  C   UNL     1       6.705   9.742  90.224  1.00  0.00     0.000 A 
HETATM   12  C   UNL     1       5.331   9.547  90.356  1.00  0.00     0.000 A 
HETATM   13  C   UNL     1       4.442  10.517  89.893  1.00  0.00     0.000 A 
BRANCH  11  14
HETATM   14  C   UNL     1       7.616   8.748  90.700  1.00  0.00     0.000 C 
HETATM   15  C   UNL     1       8.382   7.912  91.100  1.00  0.00     0.000 C 
BRANCH  15  16
HETATM   16  C   UNL     1       9.293   6.918  91.575  1.00  0.00     0.000 A 
HETATM   17  C   UNL     1       9.522   6.780  92.945  1.00  0.00     0.000 A 
HETATM   18  C   UNL     1      10.410   5.809  93.408  1.00  0.00     0.000 A 
HETATM   19  C   UNL     1      11.046   4.997  92.493  1.00  0.00     0.000 A 
HETATM   20  C   UNL     1      10.837   5.113  91.135  1.00  0.00     0.000 A 
HETATM   21  C   UNL     1       9.951   6.084  90.670  1.00  0.00     0.000 A 
BRANCH  19  22
HETATM   22  C   UNL     1      11.993   3.963  92.987  1.00  0.00     0.000 C 
HETATM   23  O   UNL     1      11.548   2.940  93.501  1.00  0.00     0.000 OA
HETATM   24  N   UNL     1      13.341   4.235  92.801  1.00  0.00     0.000 N 
HETATM   25  HN  UNL     1      13.634   5.091  92.345  1.00  0.00     0.000 HD
BRANCH  24  26
HETATM   26  C   UNL     1      14.379   3.320  93.204  1.00  0.00     0.000 C 
BRANCH  26  27
HETATM   27  C   UNL     1      14.590   2.182  92.198  1.00  0.00     0.000 C 
HETATM   28  C   UNL     1      13.493   1.126  92.273  1.00  0.00     0.000 C 
BRANCH  27  29
HETATM   29  O   UNL     1      14.631   2.715  90.875  1.00  0.00     0.000 OA
HETATM   30  H   UNL     1      13.769   2.554  90.455  1.00  0.00     0.000 HD
ENDBRANCH  27  29
ENDBRANCH  26  27
BRANCH  26  31
HETATM   31  C   UNL     1      15.658   4.127  93.405  1.00  0.00     0.000 C 
HETATM   32  O   UNL     1      15.819   5.254  92.941  1.00  0.00     0.000 OA
BRANCH  31  33
HETATM   33  P   UNL     1      16.602   3.433  94.122  1.00  0.00     0.000 P 
HETATM   34  H   UNL     1      16.991   4.222  95.185  1.00  0.00     0.000 HD
BRANCH  33  35
HETATM   35  O   UNL     1      17.756   3.065  93.415  1.00  0.00     0.000 OA
HETATM   36  H   UNL     1      17.584   3.498  92.562  1.00  0.00     0.000 HD
ENDBRANCH  33  35
ENDBRANCH  31  33
ENDBRANCH  26  31
ENDBRANCH  24  26
ENDBRANCH  19  22
ENDBRANCH  15  16
ENDBRANCH  11  14
ENDBRANCH   7   8
ENDBRANCH   2   7
TORSDOF 11
ENDMDL
MODEL 7
REMARK VINA RESULT:      -3.9      3.177     12.506
REMARK  11 active torsions:
REMARK  status: ('A' for Active; 'I' for Inactive)
REMARK    1  A    between atoms: O_2  and  C_18 
REMARK    2  A    between atoms: O_5  and  P_8 
REMARK    3  A    between atoms: N_6  and  C_11 
REMARK    4  A    between atoms: N_7  and  C_15 
REMARK       I    between atoms: N_7  and  C_24 
REMARK    5  A    between atoms: P_8  and  C_23 
REMARK    6  A    between atoms: C_11  and  C_14 
REMARK    7  A    between atoms: C_15  and  C_18 
REMARK    8  A    between atoms: C_15  and  C_23 
REMARK    9  A    between atoms: C_21  and  C_26 
REMARK   10  A    between atoms: C_24  and  C_25 
REMARK   11  A    between atoms: C_29  and  C_32 
ROOT
HETATM    1  O   UNL     1       4.818  13.318  88.255  1.00  0.00     0.000 OA
HETATM    2  N   UNL     1       3.495  12.261  90.543  1.00  0.00     0.000 N 
HETATM    3  C   UNL     1       4.407  13.409  90.645  1.00  0.00     0.000 C 
HETATM    4  C   UNL     1       3.891  11.402  89.419  1.00  0.00     0.000 C 
HETATM    5  C   UNL     1       4.421  14.177  89.326  1.00  0.00     0.000 C 
HETATM    6  C   UNL     1       3.918  12.216  88.129  1.00  0.00     0.000 C 
ENDROOT
BRANCH   2   7
HETATM    7  C   UNL     1       3.474  11.504  91.794  1.00  0.00     0.000 C 
BRANCH   7   8
HETATM    8  C   UNL     1       4.569  10.495  91.866  1.00  0.00     0.000 A 
HETATM    9  C   UNL     1       4.294   9.199  92.304  1.00  0.00     0.000 A 
HETATM   10  C   UNL     1       5.318   8.255  92.374  1.00  0.00     0.000 A 
HETATM   11  C   UNL     1       6.616   8.607  92.003  1.00  0.00     0.000 A 
HETATM   12  C   UNL     1       6.891   9.900  91.564  1.00  0.00     0.000 A 
HETATM   13  C   UNL     1       5.868  10.845  91.495  1.00  0.00     0.000 A 
BRANCH  11  14
HETATM   14  C   UNL     1       7.666   7.637  92.072  1.00  0.00     0.000 C 
HETATM   15  C   UNL     1       8.548   6.822  92.131  1.00  0.00     0.000 C 
BRANCH  15  16
HETATM   16  C   UNL     1       9.596   5.853  92.201  1.00  0.00     0.000 A 
HETATM   17  C   UNL     1      10.112   5.300  91.028  1.00  0.00     0.000 A 
HETATM   18  C   UNL     1      11.137   4.356  91.096  1.00  0.00     0.000 A 
HETATM   19  C   UNL     1      11.623   3.987  92.333  1.00  0.00     0.000 A 
HETATM   20  C   UNL     1      11.130   4.519  93.506  1.00  0.00     0.000 A 
HETATM   21  C   UNL     1      10.105   5.463  93.440  1.00  0.00     0.000 A 
BRANCH  19  22
HETATM   22  C   UNL     1      12.713   2.980  92.405  1.00  0.00     0.000 C 
HETATM   23  O   UNL     1      12.471   1.812  92.114  1.00  0.00     0.000 OA
HETATM   24  N   UNL     1      13.960   3.460  92.783  1.00  0.00     0.000 N 
HETATM   25  HN  UNL     1      14.091   4.444  92.984  1.00  0.00     0.000 HD
BRANCH  24  26
HETATM   26  C   UNL     1      15.122   2.612  92.875  1.00  0.00     0.000 C 
BRANCH  26  27
HETATM   27  C   UNL     1      15.702   2.250  91.502  1.00  0.00     0.000 C 
HETATM   28  C   UNL     1      15.392   3.300  90.441  1.00  0.00     0.000 C 
BRANCH  27  29
HETATM   29  O   UNL     1      17.118   2.100  91.607  1.00  0.00     0.000 OA
HETATM   30  H   UNL     1      17.302   1.338  92.181  1.00  0.00     0.000 HD
ENDBRANCH  27  29
ENDBRANCH  26  27
BRANCH  26  31
HETATM   31  C   UNL     1      16.153   3.328  93.741  1.00  0.00     0.000 C 
HETATM   32  O   UNL     1      17.218   2.814  94.078  1.00  0.00     0.000 OA
BRANCH  31  33
HETATM   33  P   UNL     1      15.732   4.579  94.123  1.00  0.00     0.000 P 
HETATM   34  H   UNL     1      14.355   4.607  94.034  1.00  0.00     0.000 HD
BRANCH  33  35
HETATM   35  O   UNL     1      16.233   5.648  93.366  1.00  0.00     0.000 OA
HETATM   36  H   UNL     1      17.186   5.464  93.414  1.00  0.00     0.000 HD
ENDBRANCH  33  35
ENDBRANCH  31  33
ENDBRANCH  26  31
ENDBRANCH  24  26
ENDBRANCH  19  22
ENDBRANCH  15  16
ENDBRANCH  11  14
ENDBRANCH   7   8
ENDBRANCH   2   7
TORSDOF 11
ENDMDL
MODEL 8
REMARK VINA RESULT:      -3.8      3.538     12.675
REMARK  11 active torsions:
REMARK  status: ('A' for Active; 'I' for Inactive)
REMARK    1  A    between atoms: O_2  and  C_18 
REMARK    2  A    between atoms: O_5  and  P_8 
REMARK    3  A    between atoms: N_6  and  C_11 
REMARK    4  A    between atoms: N_7  and  C_15 
REMARK       I    between atoms: N_7  and  C_24 
REMARK    5  A    between atoms: P_8  and  C_23 
REMARK    6  A    between atoms: C_11  and  C_14 
REMARK    7  A    between atoms: C_15  and  C_18 
REMARK    8  A    between atoms: C_15  and  C_23 
REMARK    9  A    between atoms: C_21  and  C_26 
REMARK   10  A    between atoms: C_24  and  C_25 
REMARK   11  A    between atoms: C_29  and  C_32 
ROOT
HETATM    1  O   UNL     1       1.315  14.881  93.594  1.00  0.00     0.000 OA
HETATM    2  N   UNL     1       2.628  12.912  92.013  1.00  0.00     0.000 N 
HETATM    3  C   UNL     1       2.757  14.345  91.717  1.00  0.00     0.000 C 
HETATM    4  C   UNL     1       1.333  12.645  92.655  1.00  0.00     0.000 C 
HETATM    5  C   UNL     1       2.585  15.156  92.999  1.00  0.00     0.000 C 
HETATM    6  C   UNL     1       1.194  13.495  93.913  1.00  0.00     0.000 C 
ENDROOT
BRANCH   2   7
HETATM    7  C   UNL     1       2.779  12.116  90.796  1.00  0.00     0.000 C 
BRANCH   7   8
HETATM    8  C   UNL     1       3.939  11.182  90.869  1.00  0.00     0.000 A 
HETATM    9  C   UNL     1       4.001  10.080  90.014  1.00  0.00     0.000 A 
HETATM   10  C   UNL     1       5.084   9.205  90.083  1.00  0.00     0.000 A 
HETATM   11  C   UNL     1       6.105   9.432  91.004  1.00  0.00     0.000 A 
HETATM   12  C   UNL     1       6.045  10.531  91.858  1.00  0.00     0.000 A 
HETATM   13  C   UNL     1       4.961  11.407  91.791  1.00  0.00     0.000 A 
BRANCH  11  14
HETATM   14  C   UNL     1       7.218   8.534  91.073  1.00  0.00     0.000 C 
HETATM   15  C   UNL     1       8.153   7.781  91.131  1.00  0.00     0.000 C 
BRANCH  15  16
HETATM   16  C   UNL     1       9.264   6.884  91.201  1.00  0.00     0.000 A 
HETATM   17  C   UNL     1       9.862   6.610  92.431  1.00  0.00     0.000 A 
HETATM   18  C   UNL     1      10.944   5.732  92.499  1.00  0.00     0.000 A 
HETATM   19  C   UNL     1      11.404   5.149  91.337  1.00  0.00     0.000 A 
HETATM   20  C   UNL     1      10.831   5.405  90.109  1.00  0.00     0.000 A 
HETATM   21  C   UNL     1       9.748   6.282  90.039  1.00  0.00     0.000 A 
BRANCH  19  22
HETATM   22  C   UNL     1      12.558   4.217  91.409  1.00  0.00     0.000 C 
HETATM   23  O   UNL     1      12.730   3.404  90.504  1.00  0.00     0.000 OA
HETATM   24  N   UNL     1      13.387   4.359  92.514  1.00  0.00     0.000 N 
HETATM   25  HN  UNL     1      13.196   5.071  93.209  1.00  0.00     0.000 HD
BRANCH  24  26
HETATM   26  C   UNL     1      14.559   3.546  92.714  1.00  0.00     0.000 C 
BRANCH  26  27
HETATM   27  C   UNL     1      15.571   4.189  93.671  1.00  0.00     0.000 C 
HETATM   28  C   UNL     1      16.773   3.291  93.939  1.00  0.00     0.000 C 
BRANCH  27  29
HETATM   29  O   UNL     1      16.028   5.425  93.122  1.00  0.00     0.000 OA
HETATM   30  H   UNL     1      15.338   5.770  92.531  1.00  0.00     0.000 HD
ENDBRANCH  27  29
ENDBRANCH  26  27
BRANCH  26  31
HETATM   31  C   UNL     1      14.100   2.185  93.225  1.00  0.00     0.000 C 
HETATM   32  O   UNL     1      14.716   1.144  93.003  1.00  0.00     0.000 OA
BRANCH  31  33
HETATM   33  P   UNL     1      12.915   2.262  93.916  1.00  0.00     0.000 P 
HETATM   34  H   UNL     1      12.931   1.287  94.893  1.00  0.00     0.000 HD
BRANCH  33  35
HETATM   35  O   UNL     1      11.751   2.088  93.154  1.00  0.00     0.000 OA
HETATM   36  H   UNL     1      12.140   1.914  92.280  1.00  0.00     0.000 HD
ENDBRANCH  33  35
ENDBRANCH  31  33
ENDBRANCH  26  31
ENDBRANCH  24  26
ENDBRANCH  19  22
ENDBRANCH  15  16
ENDBRANCH  11  14
ENDBRANCH   7   8
ENDBRANCH   2   7
TORSDOF 11
ENDMDL
