MODEL 1
REMARK VINA RESULT:      -7.0      0.000      0.000
REMARK  10 active torsions:
REMARK  status: ('A' for Active; 'I' for Inactive)
REMARK    1  A    between atoms: O_2  and  C_18 
REMARK    2  A    between atoms: O_5  and  N_8 
REMARK    3  A    between atoms: N_6  and  C_11 
REMARK    4  A    between atoms: N_7  and  C_15 
REMARK       I    between atoms: N_7  and  C_24 
REMARK       I    between atoms: N_8  and  C_23 
REMARK    5  A    between atoms: C_11  and  C_14 
REMARK    6  A    between atoms: C_15  and  C_18 
REMARK    7  A    between atoms: C_15  and  C_23 
REMARK    8  A    between atoms: C_21  and  C_26 
REMARK    9  A    between atoms: C_24  and  C_25 
REMARK   10  A    between atoms: C_29  and  C_32 
ROOT
HETATM    1  O   UNK     0      16.545   4.285  94.120  0.00  0.00    -0.388 OA
HETATM    2  N   UNK     0      14.716   2.611  92.722  0.00  0.00     0.096 N 
HETATM    3  C   UNK     0      14.544   4.070  92.764  0.00  0.00     0.299 C 
HETATM    4  C   UNK     0      15.407   2.150  93.933  0.00  0.00     0.299 C 
HETATM    5  C   UNK     0      15.902   4.746  92.930  0.00  0.00     0.198 C 
HETATM    6  C   UNK     0      16.745   2.872  94.072  0.00  0.00     0.198 C 
ENDROOT
BRANCH   2   7
HETATM    7  C   UNK     0      13.425   1.941  92.574  0.00  0.00     0.311 C 
BRANCH   7   8
HETATM    8  C   UNK     0      12.321   2.897  92.274  0.00  0.00    -0.030 A 
HETATM    9  C   UNK     0      11.793   2.970  90.985  0.00  0.00     0.010 A 
HETATM   10  C   UNK     0      10.761   3.865  90.703  0.00  0.00     0.021 A 
HETATM   11  C   UNK     0      10.256   4.684  91.712  0.00  0.00     0.018 A 
HETATM   12  C   UNK     0      10.781   4.612  93.000  0.00  0.00     0.021 A 
HETATM   13  C   UNK     0      11.814   3.718  93.282  0.00  0.00     0.010 A 
BRANCH  11  14
HETATM   14  C   UNK     0       9.196   5.601  91.423  0.00  0.00    -0.061 C 
HETATM   15  C   UNK     0       8.305   6.371  91.181  0.00  0.00    -0.061 C 
BRANCH  15  16
HETATM   16  C   UNK     0       7.245   7.285  90.892  0.00  0.00     0.018 A 
HETATM   17  C   UNK     0       6.496   7.834  91.933  0.00  0.00     0.022 A 
HETATM   18  C   UNK     0       5.463   8.728  91.652  0.00  0.00     0.018 A 
HETATM   19  C   UNK     0       5.203   9.054  90.337  0.00  0.00     0.032 A 
HETATM   20  C   UNK     0       5.928   8.525  89.290  0.00  0.00     0.018 A 
HETATM   21  C   UNK     0       6.961   7.630  89.571  0.00  0.00     0.022 A 
BRANCH  19  22
HETATM   22  C   UNK     0       4.101  10.005  90.038  0.00  0.00     0.252 C 
HETATM   23  O   UNK     0       2.985   9.566  89.770  0.00  0.00    -0.268 OA
HETATM   24  N   UNK     0       4.424  11.353  90.110  0.00  0.00    -0.341 N 
HETATM   25  H   UNK     0       5.362  11.642  90.362  0.00  0.00     0.163 HD
BRANCH  24  26
HETATM   26  C   UNK     0       3.460  12.396  89.871  0.00  0.00     0.207 C 
BRANCH  26  27
HETATM   27  C   UNK     0       3.030  13.113  91.157  0.00  0.00     0.146 C 
HETATM   28  C   UNK     0       2.272  12.196  92.111  0.00  0.00     0.042 C 
BRANCH  27  29
HETATM   29  O   UNK     0       4.181  13.627  91.826  0.00  0.00    -0.393 OA
HETATM   30  H   UNK     0       4.620  14.261  91.234  0.00  0.00     0.210 HD
ENDBRANCH  27  29
ENDBRANCH  26  27
BRANCH  26  31
HETATM   31  C   UNK     0       4.068  13.372  88.869  0.00  0.00     0.266 C 
HETATM   32  O   UNK     0       4.271  14.557  89.128  0.00  0.00    -0.269 OA
HETATM   33  N   UNK     0       4.318  12.781  87.655  0.00  0.00    -0.236 N 
HETATM   34  H   UNK     0       4.081  11.834  87.381  0.00  0.00     0.197 HD
BRANCH  33  35
HETATM   35  O   UNK     0       4.843  13.621  86.663  0.00  0.00    -0.287 OA
HETATM   36  H   UNK     0       5.347  14.245  87.213  0.00  0.00     0.244 HD
ENDBRANCH  33  35
ENDBRANCH  26  31
ENDBRANCH  24  26
ENDBRANCH  19  22
ENDBRANCH  15  16
ENDBRANCH  11  14
ENDBRANCH   7   8
ENDBRANCH   2   7
TORSDOF 10
ENDMDL
