MODEL 1
REMARK VINA RESULT:      -6.7      0.000      0.000
REMARK  12 active torsions:
REMARK  status: ('A' for Active; 'I' for Inactive)
REMARK    1  A    between atoms: O_2  and  C_16 
REMARK    2  A    between atoms: N_5  and  C_9 
REMARK    3  A    between atoms: N_6  and  C_13 
REMARK       I    between atoms: N_6  and  C_22 
REMARK    4  A    between atoms: C_9  and  C_12 
REMARK    5  A    between atoms: C_13  and  C_16 
REMARK    6  A    between atoms: C_13  and  C_21 
REMARK    7  A    between atoms: C_19  and  C_24 
REMARK    8  A    between atoms: C_21  and  C_33 
REMARK    9  A    between atoms: C_22  and  C_23 
REMARK   10  A    between atoms: C_27  and  C_30 
REMARK   11  A    between atoms: C_33  and  C_34 
REMARK   12  A    between atoms: C_34  and  C_35 
ROOT
HETATM    1  O   UNL     1      15.999   3.876  94.122  1.00  0.00    -0.350 OA
HETATM    2  N   UNL     1      14.142   2.451  92.502  1.00  0.00     0.147 N 
HETATM    3  C   UNL     1      14.192   3.920  92.502  1.00  0.00     0.283 C 
HETATM    4  C   UNL     1      14.583   1.932  93.804  1.00  0.00     0.283 C 
HETATM    5  C   UNL     1      15.603   4.389  92.849  1.00  0.00     0.178 C 
HETATM    6  C   UNL     1      15.983   2.448  94.121  1.00  0.00     0.178 C 
ENDROOT
BRANCH   2   7
HETATM    7  C   UNL     1      12.796   1.979  92.182  1.00  0.00     0.277 C 
BRANCH   7   8
HETATM    8  C   UNL     1      11.792   3.081  92.185  1.00  0.00     0.011 A 
HETATM    9  C   UNL     1      11.000   3.304  91.058  1.00  0.00    -0.002 A 
HETATM   10  C   UNL     1      10.062   4.336  91.059  1.00  0.00     0.008 A 
HETATM   11  C   UNL     1       9.915   5.143  92.186  1.00  0.00     0.042 A 
HETATM   12  C   UNL     1      10.706   4.921  93.312  1.00  0.00     0.008 A 
HETATM   13  C   UNL     1      11.644   3.890  93.312  1.00  0.00    -0.002 A 
BRANCH  11  14
HETATM   14  C   UNL     1       8.951   6.200  92.187  1.00  0.00    -0.059 C 
HETATM   15  C   UNL     1       8.142   7.090  92.189  1.00  0.00    -0.059 C 
BRANCH  15  16
HETATM   16  C   UNL     1       7.179   8.147  92.189  1.00  0.00     0.042 A 
HETATM   17  C   UNL     1       7.533   9.411  92.661  1.00  0.00     0.008 A 
HETATM   18  C   UNL     1       6.594  10.442  92.659  1.00  0.00     0.005 A 
HETATM   19  C   UNL     1       5.325  10.188  92.184  1.00  0.00     0.056 A 
HETATM   20  C   UNL     1       4.951   8.947  91.712  1.00  0.00     0.005 A 
HETATM   21  C   UNL     1       5.888   7.914  91.714  1.00  0.00     0.008 A 
BRANCH  19  22
HETATM   22  C   UNL     1       4.325  11.287  92.184  1.00  0.00     0.254 C 
HETATM   23  O   UNL     1       3.240  11.110  92.732  1.00  0.00    -0.268 OA
HETATM   24  N   UNL     1       4.718  12.466  91.567  1.00  0.00    -0.335 N 
HETATM   25  HN  UNL     1       5.641  12.548  91.157  1.00  0.00     0.164 HD
BRANCH  24  26
HETATM   26  C   UNL     1       3.870  13.630  91.506  1.00  0.00     0.166 C 
BRANCH  26  27
HETATM   27  C   UNL     1       4.027  14.543  92.728  1.00  0.00     0.138 C 
HETATM   28  C   UNL     1       2.685  14.967  93.316  1.00  0.00     0.034 C 
BRANCH  27  29
HETATM   29  O   UNL     1       4.781  13.869  93.735  1.00  0.00    -0.383 OA
HETATM   30  H   UNL     1       4.215  13.188  94.135  1.00  0.00     0.210 HD
ENDBRANCH  27  29
ENDBRANCH  26  27
BRANCH  26  31
HETATM   31  C   UNL     1       4.191  14.373  90.213  1.00  0.00     0.181 C 
HETATM   32  O   UNL     1       4.403  15.583  90.172  1.00  0.00    -0.294 OA
BRANCH  31  33
HETATM   33  C   UNL     1       5.407  13.672  89.402  1.00  0.00     0.138 C 
BRANCH  33  34
HETATM   34  C   UNL     1       4.720  13.132  88.292  1.00  0.00     0.208 C 
HETATM   35  O   UNL     1       5.051  13.549  87.206  1.00  0.00    -0.289 OA
BRANCH  34  36
HETATM   36  C   UNL     1       3.940  12.012  88.191  1.00  0.00     0.194 C 
HETATM   37  O   UNL     1       4.162  10.816  87.500  1.00  0.00    -0.185 OA
ENDBRANCH  34  36
ENDBRANCH  33  34
ENDBRANCH  31  33
ENDBRANCH  26  31
ENDBRANCH  24  26
ENDBRANCH  19  22
ENDBRANCH  15  16
ENDBRANCH  11  14
ENDBRANCH   7   8
ENDBRANCH   2   7
TORSDOF 12
ENDMDL
