MODEL 1
REMARK VINA RESULT:      -7.5      0.000      0.000
REMARK  9 active torsions:
REMARK  status: ('A' for Active; 'I' for Inactive)
REMARK    1  A    between atoms: N_3  and  C_6 
REMARK    2  A    between atoms: C_6  and  C_9 
REMARK    3  A    between atoms: C_14  and  C_17 
REMARK       I    between atoms: N_26  and  C_15 
REMARK    4  A    between atoms: C_15  and  C_16 
REMARK    5  A    between atoms: C_20  and  C_23 
REMARK    6  A    between atoms: OG1_24  and  CB_28 
REMARK    7  A    between atoms: N_26  and  CA_27 
REMARK    8  A    between atoms: CA_27  and  CB_28 
REMARK    9  A    between atoms: CA_27  and  C_30 
ROOT
HETATM    1  O   UNK A   0       1.873   8.143  87.889  1.00  0.00    -0.388 OA
HETATM    2  N   UNK A   0       4.650   7.548  87.697  1.00  0.00     0.096 N 
HETATM    3  C   UNK A   0       4.165   8.933  87.786  1.00  0.00     0.299 C 
HETATM    4  C   UNK A   0       3.636   6.701  87.055  1.00  0.00     0.299 C 
HETATM    5  C   UNK A   0       2.839   8.969  88.542  1.00  0.00     0.198 C 
HETATM    6  C   UNK A   0       2.323   6.789  87.826  1.00  0.00     0.198 C 
ENDROOT
BRANCH   2   7
HETATM    7  C   UNK A   0       5.915   7.489  86.967  1.00  0.00     0.311 C 
BRANCH   7   8
HETATM    8  C   UNK A   0       7.014   6.897  87.782  1.00  0.00    -0.030 A 
HETATM    9  C   UNK A   0       8.266   6.675  87.207  1.00  0.00     0.010 A 
HETATM   10  C   UNK A   0       9.294   6.119  87.969  1.00  0.00     0.021 A 
HETATM   11  C   UNK A   0       9.070   5.788  89.305  1.00  0.00     0.018 A 
HETATM   12  C   UNK A   0       7.820   6.009  89.880  1.00  0.00     0.021 A 
HETATM   13  C   UNK A   0       6.792   6.564  89.119  1.00  0.00     0.010 A 
BRANCH  11  14
HETATM   14  C   UNK A   0      10.125   5.220  90.086  1.00  0.00    -0.061 C 
HETATM   15  C   UNK A   0      11.013   4.744  90.743  1.00  0.00    -0.061 C 
BRANCH  15  16
HETATM   16  C   UNK A   0      12.067   4.177  91.525  1.00  0.00     0.018 A 
HETATM   17  C   UNK A   0      13.326   3.980  90.957  1.00  0.00     0.022 A 
HETATM   18  C   UNK A   0      14.356   3.429  91.721  1.00  0.00     0.018 A 
HETATM   19  C   UNK A   0      14.103   3.089  93.033  1.00  0.00     0.032 A 
HETATM   20  C   UNK A   0      12.867   3.273  93.617  1.00  0.00     0.018 A 
HETATM   21  C   UNK A   0      11.837   3.823  92.854  1.00  0.00     0.022 A 
BRANCH  19  22
HETATM   22  C   UNK A   0      15.199   2.500  93.845  1.00  0.00     0.252 C 
HETATM   23  O   UNK A   0      16.360   2.835  93.619  1.00  0.00    -0.268 OA
ENDBRANCH  19  22
ENDBRANCH  15  16
ENDBRANCH  11  14
ENDBRANCH   7   8
ENDBRANCH   2   7
TORSDOF 9
ENDMDL
MODEL 2
REMARK VINA RESULT:      -7.5      0.103      1.011
REMARK  9 active torsions:
REMARK  status: ('A' for Active; 'I' for Inactive)
REMARK    1  A    between atoms: N_3  and  C_6 
REMARK    2  A    between atoms: C_6  and  C_9 
REMARK    3  A    between atoms: C_14  and  C_17 
REMARK       I    between atoms: N_26  and  C_15 
REMARK    4  A    between atoms: C_15  and  C_16 
REMARK    5  A    between atoms: C_20  and  C_23 
REMARK    6  A    between atoms: OG1_24  and  CB_28 
REMARK    7  A    between atoms: N_26  and  CA_27 
REMARK    8  A    between atoms: CA_27  and  CB_28 
REMARK    9  A    between atoms: CA_27  and  C_30 
ROOT
HETATM    1  O   UNK A   0       1.827   8.038  87.979  1.00  0.00    -0.388 OA
HETATM    2  N   UNK A   0       4.626   7.555  87.784  1.00  0.00     0.096 N 
HETATM    3  C   UNK A   0       4.087   8.918  87.886  1.00  0.00     0.299 C 
HETATM    4  C   UNK A   0       3.646   6.674  87.133  1.00  0.00     0.299 C 
HETATM    5  C   UNK A   0       2.760   8.895  88.640  1.00  0.00     0.198 C 
HETATM    6  C   UNK A   0       2.330   6.704  87.904  1.00  0.00     0.198 C 
ENDROOT
BRANCH   2   7
HETATM    7  C   UNK A   0       5.893   7.552  87.055  1.00  0.00     0.311 C 
BRANCH   7   8
HETATM    8  C   UNK A   0       7.003   6.950  87.848  1.00  0.00    -0.030 A 
HETATM    9  C   UNK A   0       6.827   6.691  89.208  1.00  0.00     0.010 A 
HETATM   10  C   UNK A   0       7.865   6.130  89.951  1.00  0.00     0.021 A 
HETATM   11  C   UNK A   0       9.078   5.827  89.334  1.00  0.00     0.018 A 
HETATM   12  C   UNK A   0       9.255   6.085  87.976  1.00  0.00     0.021 A 
HETATM   13  C   UNK A   0       8.217   6.647  87.233  1.00  0.00     0.010 A 
BRANCH  11  14
HETATM   14  C   UNK A   0      10.142   5.249  90.096  1.00  0.00    -0.061 C 
HETATM   15  C   UNK A   0      11.036   4.763  90.736  1.00  0.00    -0.061 C 
BRANCH  15  16
HETATM   16  C   UNK A   0      12.100   4.185  91.498  1.00  0.00     0.018 A 
HETATM   17  C   UNK A   0      13.334   3.939  90.895  1.00  0.00     0.022 A 
HETATM   18  C   UNK A   0      14.372   3.378  91.638  1.00  0.00     0.018 A 
HETATM   19  C   UNK A   0      14.153   3.076  92.966  1.00  0.00     0.032 A 
HETATM   20  C   UNK A   0      12.943   3.310  93.585  1.00  0.00     0.018 A 
HETATM   21  C   UNK A   0      11.904   3.871  92.842  1.00  0.00     0.022 A 
BRANCH  19  22
HETATM   22  C   UNK A   0      15.259   2.477  93.757  1.00  0.00     0.252 C 
HETATM   23  O   UNK A   0      16.380   2.977  93.697  1.00  0.00    -0.268 OA
ENDBRANCH  19  22
ENDBRANCH  15  16
ENDBRANCH  11  14
ENDBRANCH   7   8
ENDBRANCH   2   7
TORSDOF 9
ENDMDL
MODEL 3
REMARK VINA RESULT:      -7.5      0.101      1.012
REMARK  9 active torsions:
REMARK  status: ('A' for Active; 'I' for Inactive)
REMARK    1  A    between atoms: N_3  and  C_6 
REMARK    2  A    between atoms: C_6  and  C_9 
REMARK    3  A    between atoms: C_14  and  C_17 
REMARK       I    between atoms: N_26  and  C_15 
REMARK    4  A    between atoms: C_15  and  C_16 
REMARK    5  A    between atoms: C_20  and  C_23 
REMARK    6  A    between atoms: OG1_24  and  CB_28 
REMARK    7  A    between atoms: N_26  and  CA_27 
REMARK    8  A    between atoms: CA_27  and  CB_28 
REMARK    9  A    between atoms: CA_27  and  C_30 
ROOT
HETATM    1  O   UNK A   0       1.903   8.072  87.929  1.00  0.00    -0.388 OA
HETATM    2  N   UNK A   0       4.703   7.590  87.769  1.00  0.00     0.096 N 
HETATM    3  C   UNK A   0       4.162   8.954  87.832  1.00  0.00     0.299 C 
HETATM    4  C   UNK A   0       3.730   6.691  87.132  1.00  0.00     0.299 C 
HETATM    5  C   UNK A   0       2.829   8.947  88.576  1.00  0.00     0.198 C 
HETATM    6  C   UNK A   0       2.408   6.737  87.891  1.00  0.00     0.198 C 
ENDROOT
BRANCH   2   7
HETATM    7  C   UNK A   0       5.976   7.571  87.050  1.00  0.00     0.311 C 
BRANCH   7   8
HETATM    8  C   UNK A   0       7.075   6.968  87.857  1.00  0.00    -0.030 A 
HETATM    9  C   UNK A   0       8.308   6.697  87.263  1.00  0.00     0.010 A 
HETATM   10  C   UNK A   0       9.336   6.131  88.017  1.00  0.00     0.021 A 
HETATM   11  C   UNK A   0       9.132   5.839  89.365  1.00  0.00     0.018 A 
HETATM   12  C   UNK A   0       7.901   6.110  89.959  1.00  0.00     0.021 A 
HETATM   13  C   UNK A   0       6.872   6.675  89.206  1.00  0.00     0.010 A 
BRANCH  11  14
HETATM   14  C   UNK A   0      10.187   5.261  90.138  1.00  0.00    -0.061 C 
HETATM   15  C   UNK A   0      11.075   4.775  90.788  1.00  0.00    -0.061 C 
BRANCH  15  16
HETATM   16  C   UNK A   0      12.130   4.198  91.561  1.00  0.00     0.018 A 
HETATM   17  C   UNK A   0      11.881   3.759  92.861  1.00  0.00     0.022 A 
HETATM   18  C   UNK A   0      12.910   3.194  93.614  1.00  0.00     0.018 A 
HETATM   19  C   UNK A   0      14.163   3.079  93.050  1.00  0.00     0.032 A 
HETATM   20  C   UNK A   0      14.435   3.505  91.767  1.00  0.00     0.018 A 
HETATM   21  C   UNK A   0      13.407   4.070  91.013  1.00  0.00     0.022 A 
BRANCH  19  22
HETATM   22  C   UNK A   0      15.260   2.478  93.853  1.00  0.00     0.252 C 
HETATM   23  O   UNK A   0      16.425   2.763  93.585  1.00  0.00    -0.268 OA
ENDBRANCH  19  22
ENDBRANCH  15  16
ENDBRANCH  11  14
ENDBRANCH   7   8
ENDBRANCH   2   7
TORSDOF 9
ENDMDL
MODEL 4
REMARK VINA RESULT:      -7.5      0.429      1.486
REMARK  9 active torsions:
REMARK  status: ('A' for Active; 'I' for Inactive)
REMARK    1  A    between atoms: N_3  and  C_6 
REMARK    2  A    between atoms: C_6  and  C_9 
REMARK    3  A    between atoms: C_14  and  C_17 
REMARK       I    between atoms: N_26  and  C_15 
REMARK    4  A    between atoms: C_15  and  C_16 
REMARK    5  A    between atoms: C_20  and  C_23 
REMARK    6  A    between atoms: OG1_24  and  CB_28 
REMARK    7  A    between atoms: N_26  and  CA_27 
REMARK    8  A    between atoms: CA_27  and  CB_28 
REMARK    9  A    between atoms: CA_27  and  C_30 
ROOT
HETATM    1  O   UNK A   0       1.833   8.869  88.278  1.00  0.00    -0.388 OA
HETATM    2  N   UNK A   0       4.464   7.872  87.846  1.00  0.00     0.096 N 
HETATM    3  C   UNK A   0       4.188   9.315  87.898  1.00  0.00     0.299 C 
HETATM    4  C   UNK A   0       3.279   7.151  87.362  1.00  0.00     0.299 C 
HETATM    5  C   UNK A   0       2.969   9.577  88.779  1.00  0.00     0.198 C 
HETATM    6  C   UNK A   0       2.082   7.463  88.254  1.00  0.00     0.198 C 
ENDROOT
BRANCH   2   7
HETATM    7  C   UNK A   0       5.622   7.597  86.998  1.00  0.00     0.311 C 
BRANCH   7   8
HETATM    8  C   UNK A   0       6.753   6.993  87.760  1.00  0.00    -0.030 A 
HETATM    9  C   UNK A   0       6.558   6.568  89.074  1.00  0.00     0.010 A 
HETATM   10  C   UNK A   0       7.615   6.004  89.789  1.00  0.00     0.021 A 
HETATM   11  C   UNK A   0       8.866   5.864  89.187  1.00  0.00     0.018 A 
HETATM   12  C   UNK A   0       9.061   6.287  87.874  1.00  0.00     0.021 A 
HETATM   13  C   UNK A   0       8.004   6.852  87.160  1.00  0.00     0.010 A 
BRANCH  11  14
HETATM   14  C   UNK A   0       9.949   5.284  89.919  1.00  0.00    -0.061 C 
HETATM   15  C   UNK A   0      10.860   4.796  90.533  1.00  0.00    -0.061 C 
BRANCH  15  16
HETATM   16  C   UNK A   0      11.944   4.216  91.264  1.00  0.00     0.018 A 
HETATM   17  C   UNK A   0      11.744   3.773  92.572  1.00  0.00     0.022 A 
HETATM   18  C   UNK A   0      12.800   3.205  93.284  1.00  0.00     0.018 A 
HETATM   19  C   UNK A   0      14.032   3.092  92.672  1.00  0.00     0.032 A 
HETATM   20  C   UNK A   0      14.255   3.523  91.381  1.00  0.00     0.018 A 
HETATM   21  C   UNK A   0      13.199   4.091  90.669  1.00  0.00     0.022 A 
BRANCH  19  22
HETATM   22  C   UNK A   0      15.157   2.489  93.432  1.00  0.00     0.252 C 
HETATM   23  O   UNK A   0      16.159   3.163  93.656  1.00  0.00    -0.268 OA
ENDBRANCH  19  22
ENDBRANCH  15  16
ENDBRANCH  11  14
ENDBRANCH   7   8
ENDBRANCH   2   7
TORSDOF 9
ENDMDL
MODEL 5
REMARK VINA RESULT:      -6.9      1.452      1.821
REMARK  9 active torsions:
REMARK  status: ('A' for Active; 'I' for Inactive)
REMARK    1  A    between atoms: N_3  and  C_6 
REMARK    2  A    between atoms: C_6  and  C_9 
REMARK    3  A    between atoms: C_14  and  C_17 
REMARK       I    between atoms: N_26  and  C_15 
REMARK    4  A    between atoms: C_15  and  C_16 
REMARK    5  A    between atoms: C_20  and  C_23 
REMARK    6  A    between atoms: OG1_24  and  CB_28 
REMARK    7  A    between atoms: N_26  and  CA_27 
REMARK    8  A    between atoms: CA_27  and  CB_28 
REMARK    9  A    between atoms: CA_27  and  C_30 
ROOT
HETATM    1  O   UNK A   0       2.758  11.156  89.621  1.00  0.00    -0.388 OA
HETATM    2  N   UNK A   0       4.585   9.153  88.755  1.00  0.00     0.096 N 
HETATM    3  C   UNK A   0       3.855   9.993  87.795  1.00  0.00     0.299 C 
HETATM    4  C   UNK A   0       3.799   8.995  89.986  1.00  0.00     0.299 C 
HETATM    5  C   UNK A   0       3.529  11.341  88.433  1.00  0.00     0.198 C 
HETATM    6  C   UNK A   0       3.474  10.366  90.571  1.00  0.00     0.198 C 
ENDROOT
BRANCH   2   7
HETATM    7  C   UNK A   0       4.899   7.851  88.168  1.00  0.00     0.311 C 
BRANCH   7   8
HETATM    8  C   UNK A   0       6.121   7.239  88.764  1.00  0.00    -0.030 A 
HETATM    9  C   UNK A   0       7.374   7.796  88.508  1.00  0.00     0.010 A 
HETATM   10  C   UNK A   0       8.518   7.223  89.064  1.00  0.00     0.021 A 
HETATM   11  C   UNK A   0       8.408   6.095  89.876  1.00  0.00     0.018 A 
HETATM   12  C   UNK A   0       7.157   5.538  90.133  1.00  0.00     0.021 A 
HETATM   13  C   UNK A   0       6.012   6.110  89.577  1.00  0.00     0.010 A 
BRANCH  11  14
HETATM   14  C   UNK A   0       9.581   5.509  90.447  1.00  0.00    -0.061 C 
HETATM   15  C   UNK A   0      10.568   5.017  90.927  1.00  0.00    -0.061 C 
BRANCH  15  16
HETATM   16  C   UNK A   0      11.741   4.432  91.498  1.00  0.00     0.018 A 
HETATM   17  C   UNK A   0      12.900   4.306  90.732  1.00  0.00     0.022 A 
HETATM   18  C   UNK A   0      14.045   3.738  91.290  1.00  0.00     0.018 A 
HETATM   19  C   UNK A   0      14.006   3.309  92.600  1.00  0.00     0.032 A 
HETATM   20  C   UNK A   0      12.872   3.421  93.378  1.00  0.00     0.018 A 
HETATM   21  C   UNK A   0      11.727   3.989  92.821  1.00  0.00     0.022 A 
BRANCH  19  22
HETATM   22  C   UNK A   0      15.225   2.702  93.194  1.00  0.00     0.252 C 
HETATM   23  O   UNK A   0      16.057   3.430  93.731  1.00  0.00    -0.268 OA
ENDBRANCH  19  22
ENDBRANCH  15  16
ENDBRANCH  11  14
ENDBRANCH   7   8
ENDBRANCH   2   7
TORSDOF 9
ENDMDL
MODEL 6
REMARK VINA RESULT:      -6.6      3.546     10.311
REMARK  9 active torsions:
REMARK  status: ('A' for Active; 'I' for Inactive)
REMARK    1  A    between atoms: N_3  and  C_6 
REMARK    2  A    between atoms: C_6  and  C_9 
REMARK    3  A    between atoms: C_14  and  C_17 
REMARK       I    between atoms: N_26  and  C_15 
REMARK    4  A    between atoms: C_15  and  C_16 
REMARK    5  A    between atoms: C_20  and  C_23 
REMARK    6  A    between atoms: OG1_24  and  CB_28 
REMARK    7  A    between atoms: N_26  and  CA_27 
REMARK    8  A    between atoms: CA_27  and  CB_28 
REMARK    9  A    between atoms: CA_27  and  C_30 
ROOT
HETATM    1  O   UNK A   0      16.205   3.131  93.604  1.00  0.00    -0.388 OA
HETATM    2  N   UNK A   0      13.472   2.872  92.849  1.00  0.00     0.096 N 
HETATM    3  C   UNK A   0      14.306   1.695  93.132  1.00  0.00     0.299 C 
HETATM    4  C   UNK A   0      14.308   3.971  92.347  1.00  0.00     0.299 C 
HETATM    5  C   UNK A   0      15.406   2.066  94.123  1.00  0.00     0.198 C 
HETATM    6  C   UNK A   0      15.407   4.289  93.356  1.00  0.00     0.198 C 
ENDROOT
BRANCH   2   7
HETATM    7  C   UNK A   0      12.418   2.541  91.892  1.00  0.00     0.311 C 
BRANCH   7   8
HETATM    8  C   UNK A   0      11.563   3.717  91.561  1.00  0.00    -0.030 A 
HETATM    9  C   UNK A   0      11.436   4.134  90.235  1.00  0.00     0.010 A 
HETATM   10  C   UNK A   0      10.638   5.235  89.924  1.00  0.00     0.021 A 
HETATM   11  C   UNK A   0       9.967   5.917  90.938  1.00  0.00     0.018 A 
HETATM   12  C   UNK A   0      10.093   5.502  92.262  1.00  0.00     0.021 A 
HETATM   13  C   UNK A   0      10.891   4.401  92.574  1.00  0.00     0.010 A 
BRANCH  11  14
HETATM   14  C   UNK A   0       9.147   7.045  90.618  1.00  0.00    -0.061 C 
HETATM   15  C   UNK A   0       8.458   7.993  90.350  1.00  0.00    -0.061 C 
BRANCH  15  16
HETATM   16  C   UNK A   0       7.638   9.120  90.031  1.00  0.00     0.018 A 
HETATM   17  C   UNK A   0       8.217  10.278  89.512  1.00  0.00     0.022 A 
HETATM   18  C   UNK A   0       7.417  11.377  89.199  1.00  0.00     0.018 A 
HETATM   19  C   UNK A   0       6.056  11.292  89.410  1.00  0.00     0.032 A 
HETATM   20  C   UNK A   0       5.460  10.159  89.921  1.00  0.00     0.018 A 
HETATM   21  C   UNK A   0       6.259   9.060  90.236  1.00  0.00     0.022 A 
BRANCH  19  22
HETATM   22  C   UNK A   0       5.204  12.463  89.077  1.00  0.00     0.252 C 
HETATM   23  O   UNK A   0       4.996  12.738  87.898  1.00  0.00    -0.268 OA
ENDBRANCH  19  22
ENDBRANCH  15  16
ENDBRANCH  11  14
ENDBRANCH   7   8
ENDBRANCH   2   7
TORSDOF 9
ENDMDL
MODEL 7
REMARK VINA RESULT:      -6.6      3.941     10.413
REMARK  9 active torsions:
REMARK  status: ('A' for Active; 'I' for Inactive)
REMARK    1  A    between atoms: N_3  and  C_6 
REMARK    2  A    between atoms: C_6  and  C_9 
REMARK    3  A    between atoms: C_14  and  C_17 
REMARK       I    between atoms: N_26  and  C_15 
REMARK    4  A    between atoms: C_15  and  C_16 
REMARK    5  A    between atoms: C_20  and  C_23 
REMARK    6  A    between atoms: OG1_24  and  CB_28 
REMARK    7  A    between atoms: N_26  and  CA_27 
REMARK    8  A    between atoms: CA_27  and  CB_28 
REMARK    9  A    between atoms: CA_27  and  C_30 
ROOT
HETATM    1  O   UNK A   0      14.555   3.340  92.013  1.00  0.00    -0.388 OA
HETATM    2  N   UNK A   0      11.852   4.183  92.308  1.00  0.00     0.096 N 
HETATM    3  C   UNK A   0      12.495   3.304  93.295  1.00  0.00     0.299 C 
HETATM    4  C   UNK A   0      12.453   3.975  90.983  1.00  0.00     0.299 C 
HETATM    5  C   UNK A   0      14.000   3.559  93.311  1.00  0.00     0.198 C 
HETATM    6  C   UNK A   0      13.958   4.213  91.053  1.00  0.00     0.198 C 
ENDROOT
BRANCH   2   7
HETATM    7  C   UNK A   0      10.410   3.948  92.267  1.00  0.00     0.311 C 
BRANCH   7   8
HETATM    8  C   UNK A   0       9.641   5.190  91.970  1.00  0.00    -0.030 A 
HETATM    9  C   UNK A   0       8.653   5.178  90.984  1.00  0.00     0.010 A 
HETATM   10  C   UNK A   0       7.935   6.340  90.703  1.00  0.00     0.021 A 
HETATM   11  C   UNK A   0       8.202   7.512  91.410  1.00  0.00     0.018 A 
HETATM   12  C   UNK A   0       9.188   7.525  92.395  1.00  0.00     0.021 A 
HETATM   13  C   UNK A   0       9.907   6.363  92.676  1.00  0.00     0.010 A 
BRANCH  11  14
HETATM   14  C   UNK A   0       7.463   8.703  91.124  1.00  0.00    -0.061 C 
HETATM   15  C   UNK A   0       6.842   9.704  90.882  1.00  0.00    -0.061 C 
BRANCH  15  16
HETATM   16  C   UNK A   0       6.103  10.894  90.596  1.00  0.00     0.018 A 
HETATM   17  C   UNK A   0       6.235  11.514  89.354  1.00  0.00     0.022 A 
HETATM   18  C   UNK A   0       5.512  12.674  89.074  1.00  0.00     0.018 A 
HETATM   19  C   UNK A   0       4.673  13.186  90.041  1.00  0.00     0.032 A 
HETATM   20  C   UNK A   0       4.524  12.591  91.277  1.00  0.00     0.018 A 
HETATM   21  C   UNK A   0       5.247  11.432  91.558  1.00  0.00     0.022 A 
BRANCH  19  22
HETATM   22  C   UNK A   0       3.904  14.422  89.743  1.00  0.00     0.252 C 
HETATM   23  O   UNK A   0       4.478  15.507  89.772  1.00  0.00    -0.268 OA
ENDBRANCH  19  22
ENDBRANCH  15  16
ENDBRANCH  11  14
ENDBRANCH   7   8
ENDBRANCH   2   7
TORSDOF 9
ENDMDL
MODEL 8
REMARK VINA RESULT:      -6.4      1.945      2.973
REMARK  9 active torsions:
REMARK  status: ('A' for Active; 'I' for Inactive)
REMARK    1  A    between atoms: N_3  and  C_6 
REMARK    2  A    between atoms: C_6  and  C_9 
REMARK    3  A    between atoms: C_14  and  C_17 
REMARK       I    between atoms: N_26  and  C_15 
REMARK    4  A    between atoms: C_15  and  C_16 
REMARK    5  A    between atoms: C_20  and  C_23 
REMARK    6  A    between atoms: OG1_24  and  CB_28 
REMARK    7  A    between atoms: N_26  and  CA_27 
REMARK    8  A    between atoms: CA_27  and  CB_28 
REMARK    9  A    between atoms: CA_27  and  C_30 
ROOT
HETATM    1  O   UNK A   0       3.716  11.841  88.702  1.00  0.00    -0.388 OA
HETATM    2  N   UNK A   0       4.497   9.259  89.611  1.00  0.00     0.096 N 
HETATM    3  C   UNK A   0       3.297   9.452  88.786  1.00  0.00     0.299 C 
HETATM    4  C   UNK A   0       4.761  10.466  90.406  1.00  0.00     0.299 C 
HETATM    5  C   UNK A   0       3.470  10.684  87.901  1.00  0.00     0.198 C 
HETATM    6  C   UNK A   0       4.899  11.673  89.484  1.00  0.00     0.198 C 
ENDROOT
BRANCH   2   7
HETATM    7  C   UNK A   0       4.349   8.089  90.475  1.00  0.00     0.311 C 
BRANCH   7   8
HETATM    8  C   UNK A   0       5.653   7.426  90.762  1.00  0.00    -0.030 A 
HETATM    9  C   UNK A   0       6.130   7.366  92.072  1.00  0.00     0.010 A 
HETATM   10  C   UNK A   0       7.351   6.747  92.341  1.00  0.00     0.021 A 
HETATM   11  C   UNK A   0       8.092   6.188  91.301  1.00  0.00     0.018 A 
HETATM   12  C   UNK A   0       7.617   6.247  89.992  1.00  0.00     0.021 A 
HETATM   13  C   UNK A   0       6.396   6.866  89.723  1.00  0.00     0.010 A 
BRANCH  11  14
HETATM   14  C   UNK A   0       9.344   5.551  91.577  1.00  0.00    -0.061 C 
HETATM   15  C   UNK A   0      10.396   5.017  91.809  1.00  0.00    -0.061 C 
BRANCH  15  16
HETATM   16  C   UNK A   0      11.646   4.382  92.085  1.00  0.00     0.018 A 
HETATM   17  C   UNK A   0      11.910   3.890  93.364  1.00  0.00     0.022 A 
HETATM   18  C   UNK A   0      13.130   3.268  93.632  1.00  0.00     0.018 A 
HETATM   19  C   UNK A   0      14.056   3.151  92.618  1.00  0.00     0.032 A 
HETATM   20  C   UNK A   0      13.819   3.630  91.346  1.00  0.00     0.018 A 
HETATM   21  C   UNK A   0      12.600   4.252  91.076  1.00  0.00     0.022 A 
BRANCH  19  22
HETATM   22  C   UNK A   0      15.356   2.490  92.905  1.00  0.00     0.252 C 
HETATM   23  O   UNK A   0      16.189   3.078  93.591  1.00  0.00    -0.268 OA
ENDBRANCH  19  22
ENDBRANCH  15  16
ENDBRANCH  11  14
ENDBRANCH   7   8
ENDBRANCH   2   7
TORSDOF 9
ENDMDL
MODEL 9
REMARK VINA RESULT:      -6.4      1.461      2.105
REMARK  9 active torsions:
REMARK  status: ('A' for Active; 'I' for Inactive)
REMARK    1  A    between atoms: N_3  and  C_6 
REMARK    2  A    between atoms: C_6  and  C_9 
REMARK    3  A    between atoms: C_14  and  C_17 
REMARK       I    between atoms: N_26  and  C_15 
REMARK    4  A    between atoms: C_15  and  C_16 
REMARK    5  A    between atoms: C_20  and  C_23 
REMARK    6  A    between atoms: OG1_24  and  CB_28 
REMARK    7  A    between atoms: N_26  and  CA_27 
REMARK    8  A    between atoms: CA_27  and  CB_28 
REMARK    9  A    between atoms: CA_27  and  C_30 
ROOT
HETATM    1  O   UNK A   0       4.802   9.996  90.632  1.00  0.00    -0.388 OA
HETATM    2  N   UNK A   0       5.343   8.380  88.352  1.00  0.00     0.096 N 
HETATM    3  C   UNK A   0       4.298   8.018  89.320  1.00  0.00     0.299 C 
HETATM    4  C   UNK A   0       6.404   9.147  89.019  1.00  0.00     0.299 C 
HETATM    5  C   UNK A   0       3.750   9.278  89.985  1.00  0.00     0.198 C 
HETATM    6  C   UNK A   0       5.807  10.379  89.692  1.00  0.00     0.198 C 
ENDROOT
BRANCH   2   7
HETATM    7  C   UNK A   0       5.890   7.186  87.710  1.00  0.00     0.311 C 
BRANCH   7   8
HETATM    8  C   UNK A   0       7.054   6.625  88.453  1.00  0.00    -0.030 A 
HETATM    9  C   UNK A   0       6.847   5.895  89.624  1.00  0.00     0.010 A 
HETATM   10  C   UNK A   0       7.935   5.371  90.321  1.00  0.00     0.021 A 
HETATM   11  C   UNK A   0       9.230   5.575  89.845  1.00  0.00     0.018 A 
HETATM   12  C   UNK A   0       9.439   6.304  88.676  1.00  0.00     0.021 A 
HETATM   13  C   UNK A   0       8.350   6.829  87.979  1.00  0.00     0.010 A 
BRANCH  11  14
HETATM   14  C   UNK A   0      10.347   5.036  90.559  1.00  0.00    -0.061 C 
HETATM   15  C   UNK A   0      11.285   4.582  91.159  1.00  0.00    -0.061 C 
BRANCH  15  16
HETATM   16  C   UNK A   0      12.401   4.043  91.872  1.00  0.00     0.018 A 
HETATM   17  C   UNK A   0      13.600   3.794  91.203  1.00  0.00     0.022 A 
HETATM   18  C   UNK A   0      14.689   3.271  91.899  1.00  0.00     0.018 A 
HETATM   19  C   UNK A   0      14.556   3.008  93.247  1.00  0.00     0.032 A 
HETATM   20  C   UNK A   0      13.381   3.244  93.930  1.00  0.00     0.018 A 
HETATM   21  C   UNK A   0      12.291   3.768  93.235  1.00  0.00     0.022 A 
BRANCH  19  22
HETATM   22  C   UNK A   0      15.716   2.448  93.987  1.00  0.00     0.252 C 
HETATM   23  O   UNK A   0      16.843   2.877  93.749  1.00  0.00    -0.268 OA
ENDBRANCH  19  22
ENDBRANCH  15  16
ENDBRANCH  11  14
ENDBRANCH   7   8
ENDBRANCH   2   7
TORSDOF 9
ENDMDL
