MODEL 1
REMARK VINA RESULT:      -7.0      0.000      0.000
REMARK  11 active torsions:
REMARK  status: ('A' for Active; 'I' for Inactive)
REMARK    1  A    between atoms: O_2  and  C_18 
REMARK    2  A    between atoms: O_5  and  P_8 
REMARK    3  A    between atoms: N_6  and  C_11 
REMARK    4  A    between atoms: N_7  and  C_15 
REMARK       I    between atoms: N_7  and  C_24 
REMARK    5  A    between atoms: P_8  and  C_23 
REMARK    6  A    between atoms: C_11  and  C_14 
REMARK    7  A    between atoms: C_15  and  C_18 
REMARK    8  A    between atoms: C_15  and  C_23 
REMARK    9  A    between atoms: C_21  and  C_26 
REMARK   10  A    between atoms: C_24  and  C_25 
REMARK   11  A    between atoms: C_29  and  C_32 
ROOT
HETATM    1  O   UNL     1      16.462   4.254  94.124  1.00  0.00     0.000 OA
HETATM    2  N   UNL     1      14.611   2.712  92.608  1.00  0.00     0.000 N 
HETATM    3  C   UNL     1      14.541   4.180  92.643  1.00  0.00     0.000 C 
HETATM    4  C   UNL     1      15.189   2.206  93.861  1.00  0.00     0.000 C 
HETATM    5  C   UNL     1      15.931   4.757  92.897  1.00  0.00     0.000 C 
HETATM    6  C   UNL     1      16.562   2.830  94.087  1.00  0.00     0.000 C 
ENDROOT
BRANCH   2   7
HETATM    7  C   UNL     1      13.287   2.137  92.376  1.00  0.00     0.000 C 
BRANCH   7   8
HETATM    8  C   UNL     1      12.251   3.178  92.127  1.00  0.00     0.000 A 
HETATM    9  C   UNL     1      11.861   3.473  90.820  1.00  0.00     0.000 A 
HETATM   10  C   UNL     1      10.892   4.449  90.584  1.00  0.00     0.000 A 
HETATM   11  C   UNL     1      10.314   5.128  91.656  1.00  0.00     0.000 A 
HETATM   12  C   UNL     1      10.702   4.834  92.962  1.00  0.00     0.000 A 
HETATM   13  C   UNL     1      11.671   3.859  93.197  1.00  0.00     0.000 A 
BRANCH  11  14
HETATM   14  C   UNL     1       9.319   6.128  91.415  1.00  0.00     0.000 C 
HETATM   15  C   UNL     1       8.482   6.967  91.212  1.00  0.00     0.000 C 
BRANCH  15  16
HETATM   16  C   UNL     1       7.488   7.966  90.971  1.00  0.00     0.000 A 
HETATM   17  C   UNL     1       7.820   9.317  91.066  1.00  0.00     0.000 A 
HETATM   18  C   UNL     1       6.850  10.291  90.829  1.00  0.00     0.000 A 
HETATM   19  C   UNL     1       5.571   9.892  90.501  1.00  0.00     0.000 A 
HETATM   20  C   UNL     1       5.218   8.563  90.401  1.00  0.00     0.000 A 
HETATM   21  C   UNL     1       6.187   7.588  90.639  1.00  0.00     0.000 A 
BRANCH  19  22
HETATM   22  C   UNL     1       4.538  10.930  90.250  1.00  0.00     0.000 C 
HETATM   23  O   UNL     1       3.397  10.582  89.957  1.00  0.00     0.000 OA
HETATM   24  N   UNL     1       4.951  12.247  90.395  1.00  0.00     0.000 N 
HETATM   25  HN  UNL     1       5.905  12.459  90.665  1.00  0.00     0.000 HD
BRANCH  24  26
HETATM   26  C   UNL     1       4.061  13.364  90.210  1.00  0.00     0.000 C 
BRANCH  26  27
HETATM   27  C   UNL     1       3.652  14.024  91.533  1.00  0.00     0.000 C 
HETATM   28  C   UNL     1       2.161  13.886  91.818  1.00  0.00     0.000 C 
BRANCH  27  29
HETATM   29  O   UNL     1       4.386  13.436  92.606  1.00  0.00     0.000 OA
HETATM   30  H   UNL     1       4.477  12.484  92.428  1.00  0.00     0.000 HD
ENDBRANCH  27  29
ENDBRANCH  26  27
BRANCH  26  31
HETATM   31  C   UNL     1       4.750  14.361  89.283  1.00  0.00     0.000 C 
HETATM   32  O   UNL     1       4.682  15.578  89.439  1.00  0.00     0.000 OA
BRANCH  31  33
HETATM   33  P   UNL     1       5.410  13.739  88.251  1.00  0.00     0.000 P 
HETATM   34  H   UNL     1       6.101  14.704  87.548  1.00  0.00     0.000 HD
BRANCH  33  35
HETATM   35  O   UNL     1       4.601  13.042  87.341  1.00  0.00     0.000 OA
HETATM   36  H   UNL     1       4.280  13.778  86.794  1.00  0.00     0.000 HD
ENDBRANCH  33  35
ENDBRANCH  31  33
ENDBRANCH  26  31
ENDBRANCH  24  26
ENDBRANCH  19  22
ENDBRANCH  15  16
ENDBRANCH  11  14
ENDBRANCH   7   8
ENDBRANCH   2   7
TORSDOF 11
ENDMDL
