MODEL 1
REMARK VINA RESULT:      -7.3      0.000      0.000
REMARK  9 active torsions:
REMARK  status: ('A' for Active; 'I' for Inactive)
REMARK    1  A    between atoms: O_2  and  C_17 
REMARK    2  A    between atoms: N_5  and  C_10 
REMARK    3  A    between atoms: N_6  and  C_14 
REMARK       I    between atoms: N_6  and  C_23 
REMARK       I    between atoms: N_7  and  C_22 
REMARK    4  A    between atoms: C_10  and  C_13 
REMARK    5  A    between atoms: C_14  and  C_17 
REMARK    6  A    between atoms: C_14  and  C_22 
REMARK    7  A    between atoms: C_20  and  C_25 
REMARK    8  A    between atoms: C_23  and  C_24 
REMARK    9  A    between atoms: C_28  and  C_31 
ROOT
HETATM    1  O   UNL     1      16.598   3.112  93.682  1.00  0.00    -0.388 OA
HETATM    2  N   UNL     1      13.882   2.754  92.908  1.00  0.00     0.096 N 
HETATM    3  C   UNL     1      14.781   1.608  93.107  1.00  0.00     0.299 C 
HETATM    4  C   UNL     1      14.653   3.931  92.486  1.00  0.00     0.299 C 
HETATM    5  C   UNL     1      15.861   1.970  94.124  1.00  0.00     0.198 C 
HETATM    6  C   UNL     1      15.735   4.238  93.516  1.00  0.00     0.198 C 
ENDROOT
BRANCH   2   7
HETATM    7  C   UNL     1      12.845   2.433  91.929  1.00  0.00     0.311 C 
BRANCH   7   8
HETATM    8  C   UNL     1      11.973   3.603  91.622  1.00  0.00    -0.030 A 
HETATM    9  C   UNL     1      11.360   4.306  92.660  1.00  0.00     0.010 A 
HETATM   10  C   UNL     1      10.542   5.399  92.374  1.00  0.00     0.021 A 
HETATM   11  C   UNL     1      10.339   5.789  91.050  1.00  0.00     0.018 A 
HETATM   12  C   UNL     1      10.951   5.088  90.013  1.00  0.00     0.021 A 
HETATM   13  C   UNL     1      11.768   3.994  90.299  1.00  0.00     0.010 A 
BRANCH  11  14
HETATM   14  C   UNL     1       9.502   6.912  90.757  1.00  0.00    -0.061 C 
HETATM   15  C   UNL     1       8.798   7.855  90.512  1.00  0.00    -0.061 C 
BRANCH  15  16
HETATM   16  C   UNL     1       7.962   8.977  90.219  1.00  0.00     0.018 A 
HETATM   17  C   UNL     1       6.694   9.069  90.793  1.00  0.00     0.022 A 
HETATM   18  C   UNL     1       5.879  10.166  90.510  1.00  0.00     0.018 A 
HETATM   19  C   UNL     1       6.351  11.145  89.661  1.00  0.00     0.032 A 
HETATM   20  C   UNL     1       7.600  11.077  89.081  1.00  0.00     0.018 A 
HETATM   21  C   UNL     1       8.416   9.981  89.363  1.00  0.00     0.022 A 
BRANCH  19  22
HETATM   22  C   UNL     1       5.482  12.311  89.358  1.00  0.00     0.252 C 
HETATM   23  O   UNL     1       5.556  12.844  88.253  1.00  0.00    -0.268 OA
HETATM   24  N   UNL     1       4.614  12.702  90.368  1.00  0.00    -0.342 N 
HETATM   25  H   UNL     1       4.591  12.198  91.247  1.00  0.00     0.163 HD
BRANCH  24  26
HETATM   26  C   UNL     1       3.693  13.799  90.218  1.00  0.00     0.199 C 
BRANCH  26  27
HETATM   27  C   UNL     1       2.514  13.723  91.197  1.00  0.00     0.145 C 
HETATM   28  C   UNL     1       2.168  12.290  91.584  1.00  0.00     0.042 C 
BRANCH  27  29
HETATM   29  O   UNL     1       2.828  14.460  92.379  1.00  0.00    -0.393 OA
HETATM   30  H   UNL     1       3.176  15.327  92.114  1.00  0.00     0.210 HD
ENDBRANCH  27  29
ENDBRANCH  26  27
BRANCH  26  31
HETATM   31  C   UNL     1       4.478  15.095  90.395  1.00  0.00     0.220 C 
HETATM   32  O   UNL     1       4.682  15.609  91.493  1.00  0.00    -0.278 OA
HETATM   33  N   UNL     1       4.886  15.623  89.194  1.00  0.00    -0.271 NA
HETATM   34  H   UNL     1       4.659  15.274  88.270  1.00  0.00     0.127 HD
HETATM   35  H   UNL     1       4.404  16.765  88.536  1.00  0.00     0.127 HD
ENDBRANCH  26  31
ENDBRANCH  24  26
ENDBRANCH  19  22
ENDBRANCH  15  16
ENDBRANCH  11  14
ENDBRANCH   7   8
ENDBRANCH   2   7
TORSDOF 9
ENDMDL
MODEL 2
REMARK VINA RESULT:      -7.0      1.405      2.053
REMARK  9 active torsions:
REMARK  status: ('A' for Active; 'I' for Inactive)
REMARK    1  A    between atoms: O_2  and  C_17 
REMARK    2  A    between atoms: N_5  and  C_10 
REMARK    3  A    between atoms: N_6  and  C_14 
REMARK       I    between atoms: N_6  and  C_23 
REMARK       I    between atoms: N_7  and  C_22 
REMARK    4  A    between atoms: C_10  and  C_13 
REMARK    5  A    between atoms: C_14  and  C_17 
REMARK    6  A    between atoms: C_14  and  C_22 
REMARK    7  A    between atoms: C_20  and  C_25 
REMARK    8  A    between atoms: C_23  and  C_24 
REMARK    9  A    between atoms: C_28  and  C_31 
ROOT
HETATM    1  O   UNL     1      16.291   4.193  94.111  1.00  0.00    -0.388 OA
HETATM    2  N   UNL     1      14.513   2.592  92.568  1.00  0.00     0.096 N 
HETATM    3  C   UNL     1      14.435   4.060  92.553  1.00  0.00     0.299 C 
HETATM    4  C   UNL     1      15.040   2.130  93.860  1.00  0.00     0.299 C 
HETATM    5  C   UNL     1      15.810   4.654  92.847  1.00  0.00     0.198 C 
HETATM    6  C   UNL     1      16.399   2.769  94.124  1.00  0.00     0.198 C 
ENDROOT
BRANCH   2   7
HETATM    7  C   UNL     1      13.204   2.001  92.299  1.00  0.00     0.311 C 
BRANCH   7   8
HETATM    8  C   UNL     1      12.179   3.026  91.949  1.00  0.00    -0.030 A 
HETATM    9  C   UNL     1      11.790   3.197  90.620  1.00  0.00     0.010 A 
HETATM   10  C   UNL     1      10.834   4.157  90.291  1.00  0.00     0.021 A 
HETATM   11  C   UNL     1      10.265   4.944  91.292  1.00  0.00     0.018 A 
HETATM   12  C   UNL     1      10.652   4.774  92.619  1.00  0.00     0.021 A 
HETATM   13  C   UNL     1      11.609   3.815  92.949  1.00  0.00     0.010 A 
BRANCH  11  14
HETATM   14  C   UNL     1       9.281   5.927  90.954  1.00  0.00    -0.061 C 
HETATM   15  C   UNL     1       8.455   6.753  90.670  1.00  0.00    -0.061 C 
BRANCH  15  16
HETATM   16  C   UNL     1       7.472   7.735  90.333  1.00  0.00     0.018 A 
HETATM   17  C   UNL     1       7.159   7.976  88.995  1.00  0.00     0.022 A 
HETATM   18  C   UNL     1       6.198   8.932  88.666  1.00  0.00     0.018 A 
HETATM   19  C   UNL     1       5.572   9.624  89.681  1.00  0.00     0.032 A 
HETATM   20  C   UNL     1       5.864   9.405  91.011  1.00  0.00     0.018 A 
HETATM   21  C   UNL     1       6.825   8.449  91.341  1.00  0.00     0.022 A 
BRANCH  19  22
HETATM   22  C   UNL     1       4.549  10.644  89.331  1.00  0.00     0.252 C 
HETATM   23  O   UNL     1       3.505  10.286  88.791  1.00  0.00    -0.268 OA
HETATM   24  N   UNL     1       4.855  11.954  89.672  1.00  0.00    -0.342 N 
HETATM   25  H   UNL     1       5.728  12.172  90.139  1.00  0.00     0.163 HD
BRANCH  24  26
HETATM   26  C   UNL     1       3.956  13.051  89.420  1.00  0.00     0.199 C 
BRANCH  26  27
HETATM   27  C   UNL     1       3.470  13.728  90.708  1.00  0.00     0.145 C 
HETATM   28  C   UNL     1       2.582  12.817  91.547  1.00  0.00     0.042 C 
BRANCH  27  29
HETATM   29  O   UNL     1       4.595  14.129  91.490  1.00  0.00    -0.393 OA
HETATM   30  H   UNL     1       4.900  14.992  91.166  1.00  0.00     0.210 HD
ENDBRANCH  27  29
ENDBRANCH  26  27
BRANCH  26  31
HETATM   31  C   UNL     1       4.674  14.042  88.509  1.00  0.00     0.220 C 
HETATM   32  O   UNL     1       4.949  15.190  88.854  1.00  0.00    -0.278 OA
HETATM   33  N   UNL     1       4.934  13.513  87.269  1.00  0.00    -0.271 NA
HETATM   34  H   UNL     1       4.643  12.606  86.923  1.00  0.00     0.127 HD
HETATM   35  H   UNL     1       4.323  13.823  86.043  1.00  0.00     0.127 HD
ENDBRANCH  26  31
ENDBRANCH  24  26
ENDBRANCH  19  22
ENDBRANCH  15  16
ENDBRANCH  11  14
ENDBRANCH   7   8
ENDBRANCH   2   7
TORSDOF 9
ENDMDL
MODEL 3
REMARK VINA RESULT:      -6.8      1.837      2.694
REMARK  9 active torsions:
REMARK  status: ('A' for Active; 'I' for Inactive)
REMARK    1  A    between atoms: O_2  and  C_17 
REMARK    2  A    between atoms: N_5  and  C_10 
REMARK    3  A    between atoms: N_6  and  C_14 
REMARK       I    between atoms: N_6  and  C_23 
REMARK       I    between atoms: N_7  and  C_22 
REMARK    4  A    between atoms: C_10  and  C_13 
REMARK    5  A    between atoms: C_14  and  C_17 
REMARK    6  A    between atoms: C_14  and  C_22 
REMARK    7  A    between atoms: C_20  and  C_25 
REMARK    8  A    between atoms: C_23  and  C_24 
REMARK    9  A    between atoms: C_28  and  C_31 
ROOT
HETATM    1  O   UNL     1      16.259   3.919  94.124  1.00  0.00    -0.388 OA
HETATM    2  N   UNL     1      14.311   2.632  92.495  1.00  0.00     0.096 N 
HETATM    3  C   UNL     1      14.468   4.093  92.495  1.00  0.00     0.299 C 
HETATM    4  C   UNL     1      14.706   2.084  93.800  1.00  0.00     0.299 C 
HETATM    5  C   UNL     1      15.908   4.459  92.848  1.00  0.00     0.198 C 
HETATM    6  C   UNL     1      16.138   2.496  94.123  1.00  0.00     0.198 C 
ENDROOT
BRANCH   2   7
HETATM    7  C   UNL     1      12.936   2.259  92.169  1.00  0.00     0.311 C 
BRANCH   7   8
HETATM    8  C   UNL     1      12.001   3.418  92.240  1.00  0.00    -0.030 A 
HETATM    9  C   UNL     1      11.729   4.020  93.470  1.00  0.00     0.010 A 
HETATM   10  C   UNL     1      10.853   5.103  93.538  1.00  0.00     0.021 A 
HETATM   11  C   UNL     1      10.251   5.585  92.376  1.00  0.00     0.018 A 
HETATM   12  C   UNL     1      10.522   4.986  91.148  1.00  0.00     0.021 A 
HETATM   13  C   UNL     1      11.397   3.902  91.079  1.00  0.00     0.010 A 
BRANCH  11  14
HETATM   14  C   UNL     1       9.354   6.698  92.446  1.00  0.00    -0.061 C 
HETATM   15  C   UNL     1       8.600   7.632  92.505  1.00  0.00    -0.061 C 
BRANCH  15  16
HETATM   16  C   UNL     1       7.704   8.744  92.575  1.00  0.00     0.018 A 
HETATM   17  C   UNL     1       7.447   9.355  93.803  1.00  0.00     0.022 A 
HETATM   18  C   UNL     1       6.575  10.441  93.871  1.00  0.00     0.018 A 
HETATM   19  C   UNL     1       5.981  10.893  92.711  1.00  0.00     0.032 A 
HETATM   20  C   UNL     1       6.218  10.307  91.486  1.00  0.00     0.018 A 
HETATM   21  C   UNL     1       7.090   9.220  91.417  1.00  0.00     0.022 A 
BRANCH  19  22
HETATM   22  C   UNL     1       5.050  12.049  92.785  1.00  0.00     0.252 C 
HETATM   23  O   UNL     1       4.870  12.606  93.865  1.00  0.00    -0.268 OA
HETATM   24  N   UNL     1       4.462  12.433  91.587  1.00  0.00    -0.342 N 
HETATM   25  H   UNL     1       4.678  11.941  90.729  1.00  0.00     0.163 HD
BRANCH  24  26
HETATM   26  C   UNL     1       3.557  13.550  91.491  1.00  0.00     0.199 C 
BRANCH  26  27
HETATM   27  C   UNL     1       3.610  14.241  90.123  1.00  0.00     0.145 C 
HETATM   28  C   UNL     1       5.024  14.304  89.556  1.00  0.00     0.042 C 
BRANCH  27  29
HETATM   29  O   UNL     1       2.772  13.543  89.203  1.00  0.00    -0.393 OA
HETATM   30  H   UNL     1       2.860  12.590  89.372  1.00  0.00     0.210 HD
ENDBRANCH  27  29
ENDBRANCH  26  27
BRANCH  26  31
HETATM   31  C   UNL     1       2.153  13.039  91.800  1.00  0.00     0.220 C 
HETATM   32  O   UNL     1       1.845  11.850  91.742  1.00  0.00    -0.278 OA
HETATM   33  N   UNL     1       1.285  14.060  92.106  1.00  0.00    -0.271 NA
HETATM   34  H   UNL     1       1.482  15.053  92.076  1.00  0.00     0.127 HD
HETATM   35  H   UNL     1       0.229  14.567  91.333  1.00  0.00     0.127 HD
ENDBRANCH  26  31
ENDBRANCH  24  26
ENDBRANCH  19  22
ENDBRANCH  15  16
ENDBRANCH  11  14
ENDBRANCH   7   8
ENDBRANCH   2   7
TORSDOF 9
ENDMDL
MODEL 4
REMARK VINA RESULT:      -6.0      2.219     12.386
REMARK  9 active torsions:
REMARK  status: ('A' for Active; 'I' for Inactive)
REMARK    1  A    between atoms: O_2  and  C_17 
REMARK    2  A    between atoms: N_5  and  C_10 
REMARK    3  A    between atoms: N_6  and  C_14 
REMARK       I    between atoms: N_6  and  C_23 
REMARK       I    between atoms: N_7  and  C_22 
REMARK    4  A    between atoms: C_10  and  C_13 
REMARK    5  A    between atoms: C_14  and  C_17 
REMARK    6  A    between atoms: C_14  and  C_22 
REMARK    7  A    between atoms: C_20  and  C_25 
REMARK    8  A    between atoms: C_23  and  C_24 
REMARK    9  A    between atoms: C_28  and  C_31 
ROOT
HETATM    1  O   UNL     1       3.183  14.963  94.066  1.00  0.00    -0.388 OA
HETATM    2  N   UNL     1       2.877  14.830  91.240  1.00  0.00     0.096 N 
HETATM    3  C   UNL     1       1.919  14.184  92.147  1.00  0.00     0.299 C 
HETATM    4  C   UNL     1       4.204  14.888  91.867  1.00  0.00     0.299 C 
HETATM    5  C   UNL     1       1.882  14.931  93.478  1.00  0.00     0.198 C 
HETATM    6  C   UNL     1       4.114  15.618  93.204  1.00  0.00     0.198 C 
ENDROOT
BRANCH   2   7
HETATM    7  C   UNL     1       2.936  14.124  89.961  1.00  0.00     0.311 C 
BRANCH   7   8
HETATM    8  C   UNL     1       3.925  13.007  89.975  1.00  0.00    -0.030 A 
HETATM    9  C   UNL     1       5.059  13.071  89.164  1.00  0.00     0.010 A 
HETATM   10  C   UNL     1       5.983  12.026  89.174  1.00  0.00     0.021 A 
HETATM   11  C   UNL     1       5.773  10.920  89.997  1.00  0.00     0.018 A 
HETATM   12  C   UNL     1       4.641  10.855  90.807  1.00  0.00     0.021 A 
HETATM   13  C   UNL     1       3.717  11.899  90.796  1.00  0.00     0.010 A 
BRANCH  11  14
HETATM   14  C   UNL     1       6.722   9.849  90.009  1.00  0.00    -0.061 C 
HETATM   15  C   UNL     1       7.519   8.949  90.019  1.00  0.00    -0.061 C 
BRANCH  15  16
HETATM   16  C   UNL     1       8.467   7.879  90.030  1.00  0.00     0.018 A 
HETATM   17  C   UNL     1       9.381   7.747  88.984  1.00  0.00     0.022 A 
HETATM   18  C   UNL     1      10.308   6.705  88.997  1.00  0.00     0.018 A 
HETATM   19  C   UNL     1      10.300   5.819  90.054  1.00  0.00     0.032 A 
HETATM   20  C   UNL     1       9.407   5.927  91.099  1.00  0.00     0.018 A 
HETATM   21  C   UNL     1       8.480   6.969  91.087  1.00  0.00     0.022 A 
BRANCH  19  22
HETATM   22  C   UNL     1      11.286   4.707  90.066  1.00  0.00     0.252 C 
HETATM   23  O   UNL     1      11.401   3.996  89.070  1.00  0.00    -0.268 OA
HETATM   24  N   UNL     1      12.037   4.573  91.225  1.00  0.00    -0.342 N 
HETATM   25  H   UNL     1      11.905   5.213  91.999  1.00  0.00     0.163 HD
BRANCH  24  26
HETATM   26  C   UNL     1      13.049   3.559  91.381  1.00  0.00     0.199 C 
BRANCH  26  27
HETATM   27  C   UNL     1      14.335   4.097  92.022  1.00  0.00     0.145 C 
HETATM   28  C   UNL     1      15.252   2.984  92.515  1.00  0.00     0.042 C 
BRANCH  27  29
HETATM   29  O   UNL     1      15.043   4.895  91.074  1.00  0.00    -0.393 OA
HETATM   30  H   UNL     1      15.623   5.505  91.561  1.00  0.00     0.210 HD
ENDBRANCH  27  29
ENDBRANCH  26  27
BRANCH  26  31
HETATM   31  C   UNL     1      12.451   2.425  92.206  1.00  0.00     0.220 C 
HETATM   32  O   UNL     1      12.475   1.250  91.846  1.00  0.00    -0.278 OA
HETATM   33  N   UNL     1      11.859   2.880  93.360  1.00  0.00    -0.271 NA
HETATM   34  H   UNL     1      11.743   3.846  93.643  1.00  0.00     0.127 HD
HETATM   35  H   UNL     1      10.491   2.956  93.667  1.00  0.00     0.127 HD
ENDBRANCH  26  31
ENDBRANCH  24  26
ENDBRANCH  19  22
ENDBRANCH  15  16
ENDBRANCH  11  14
ENDBRANCH   7   8
ENDBRANCH   2   7
TORSDOF 9
ENDMDL
MODEL 5
REMARK VINA RESULT:      -5.9      2.088      2.832
REMARK  9 active torsions:
REMARK  status: ('A' for Active; 'I' for Inactive)
REMARK    1  A    between atoms: O_2  and  C_17 
REMARK    2  A    between atoms: N_5  and  C_10 
REMARK    3  A    between atoms: N_6  and  C_14 
REMARK       I    between atoms: N_6  and  C_23 
REMARK       I    between atoms: N_7  and  C_22 
REMARK    4  A    between atoms: C_10  and  C_13 
REMARK    5  A    between atoms: C_14  and  C_17 
REMARK    6  A    between atoms: C_14  and  C_22 
REMARK    7  A    between atoms: C_20  and  C_25 
REMARK    8  A    between atoms: C_23  and  C_24 
REMARK    9  A    between atoms: C_28  and  C_31 
ROOT
HETATM    1  O   UNL     1      16.588   3.092  93.894  1.00  0.00    -0.388 OA
HETATM    2  N   UNL     1      13.955   3.181  92.816  1.00  0.00     0.096 N 
HETATM    3  C   UNL     1      14.679   1.912  92.969  1.00  0.00     0.299 C 
HETATM    4  C   UNL     1      14.906   4.282  92.613  1.00  0.00     0.299 C 
HETATM    5  C   UNL     1      15.672   2.019  94.124  1.00  0.00     0.198 C 
HETATM    6  C   UNL     1      15.894   4.334  93.774  1.00  0.00     0.198 C 
ENDROOT
BRANCH   2   7
HETATM    7  C   UNL     1      13.005   3.104  91.708  1.00  0.00     0.311 C 
BRANCH   7   8
HETATM    8  C   UNL     1      11.864   4.050  91.871  1.00  0.00    -0.030 A 
HETATM    9  C   UNL     1      11.260   4.614  90.746  1.00  0.00     0.010 A 
HETATM   10  C   UNL     1      10.194   5.500  90.898  1.00  0.00     0.021 A 
HETATM   11  C   UNL     1       9.731   5.821  92.174  1.00  0.00     0.018 A 
HETATM   12  C   UNL     1      10.333   5.258  93.297  1.00  0.00     0.021 A 
HETATM   13  C   UNL     1      11.399   4.372  93.146  1.00  0.00     0.010 A 
BRANCH  11  14
HETATM   14  C   UNL     1       8.636   6.728  92.329  1.00  0.00    -0.061 C 
HETATM   15  C   UNL     1       7.717   7.492  92.460  1.00  0.00    -0.061 C 
BRANCH  15  16
HETATM   16  C   UNL     1       6.623   8.400  92.614  1.00  0.00     0.018 A 
HETATM   17  C   UNL     1       6.856   9.775  92.623  1.00  0.00     0.022 A 
HETATM   18  C   UNL     1       5.788  10.661  92.771  1.00  0.00     0.018 A 
HETATM   19  C   UNL     1       4.514  10.152  92.906  1.00  0.00     0.032 A 
HETATM   20  C   UNL     1       4.258   8.797  92.901  1.00  0.00     0.018 A 
HETATM   21  C   UNL     1       5.324   7.910  92.753  1.00  0.00     0.022 A 
BRANCH  19  22
HETATM   22  C   UNL     1       3.377  11.096  93.066  1.00  0.00     0.252 C 
HETATM   23  O   UNL     1       2.428  10.777  93.778  1.00  0.00    -0.268 OA
HETATM   24  N   UNL     1       3.494  12.307  92.398  1.00  0.00    -0.342 N 
HETATM   25  H   UNL     1       4.320  12.511  91.847  1.00  0.00     0.163 HD
BRANCH  24  26
HETATM   26  C   UNL     1       2.487  13.334  92.474  1.00  0.00     0.199 C 
BRANCH  26  27
HETATM   27  C   UNL     1       2.714  14.303  93.642  1.00  0.00     0.145 C 
HETATM   28  C   UNL     1       4.160  14.307  94.124  1.00  0.00     0.042 C 
BRANCH  27  29
HETATM   29  O   UNL     1       2.355  15.625  93.242  1.00  0.00    -0.393 OA
HETATM   30  H   UNL     1       1.997  15.584  92.339  1.00  0.00     0.210 HD
ENDBRANCH  27  29
ENDBRANCH  26  27
BRANCH  26  31
HETATM   31  C   UNL     1       2.471  14.071  91.138  1.00  0.00     0.220 C 
HETATM   32  O   UNL     1       1.441  14.500  90.622  1.00  0.00    -0.278 OA
HETATM   33  N   UNL     1       3.723  14.157  90.578  1.00  0.00    -0.271 NA
HETATM   34  H   UNL     1       4.576  13.737  90.931  1.00  0.00     0.127 HD
HETATM   35  H   UNL     1       4.225  13.474  89.458  1.00  0.00     0.127 HD
ENDBRANCH  26  31
ENDBRANCH  24  26
ENDBRANCH  19  22
ENDBRANCH  15  16
ENDBRANCH  11  14
ENDBRANCH   7   8
ENDBRANCH   2   7
TORSDOF 9
ENDMDL
MODEL 6
REMARK VINA RESULT:      -5.3      1.920     12.384
REMARK  9 active torsions:
REMARK  status: ('A' for Active; 'I' for Inactive)
REMARK    1  A    between atoms: O_2  and  C_17 
REMARK    2  A    between atoms: N_5  and  C_10 
REMARK    3  A    between atoms: N_6  and  C_14 
REMARK       I    between atoms: N_6  and  C_23 
REMARK       I    between atoms: N_7  and  C_22 
REMARK    4  A    between atoms: C_10  and  C_13 
REMARK    5  A    between atoms: C_14  and  C_17 
REMARK    6  A    between atoms: C_14  and  C_22 
REMARK    7  A    between atoms: C_20  and  C_25 
REMARK    8  A    between atoms: C_23  and  C_24 
REMARK    9  A    between atoms: C_28  and  C_31 
ROOT
HETATM    1  O   UNL     1       5.670  14.817  89.248  1.00  0.00    -0.388 OA
HETATM    2  N   UNL     1       3.713  12.767  89.512  1.00  0.00     0.096 N 
HETATM    3  C   UNL     1       3.863  13.820  90.526  1.00  0.00     0.299 C 
HETATM    4  C   UNL     1       5.000  12.520  88.848  1.00  0.00     0.299 C 
HETATM    5  C   UNL     1       4.415  15.087  89.877  1.00  0.00     0.198 C 
HETATM    6  C   UNL     1       5.526  13.816  88.240  1.00  0.00     0.198 C 
ENDROOT
BRANCH   2   7
HETATM    7  C   UNL     1       3.194  11.540  90.114  1.00  0.00     0.311 C 
BRANCH   7   8
HETATM    8  C   UNL     1       4.281  10.609  90.532  1.00  0.00    -0.030 A 
HETATM    9  C   UNL     1       4.703   9.598  89.667  1.00  0.00     0.010 A 
HETATM   10  C   UNL     1       5.718   8.725  90.058  1.00  0.00     0.021 A 
HETATM   11  C   UNL     1       6.312   8.865  91.312  1.00  0.00     0.018 A 
HETATM   12  C   UNL     1       5.891   9.874  92.176  1.00  0.00     0.021 A 
HETATM   13  C   UNL     1       4.876  10.747  91.786  1.00  0.00     0.010 A 
BRANCH  11  14
HETATM   14  C   UNL     1       7.355   7.971  91.712  1.00  0.00    -0.061 C 
HETATM   15  C   UNL     1       8.231   7.219  92.048  1.00  0.00    -0.061 C 
BRANCH  15  16
HETATM   16  C   UNL     1       9.274   6.326  92.447  1.00  0.00     0.018 A 
HETATM   17  C   UNL     1       9.815   6.415  93.729  1.00  0.00     0.022 A 
HETATM   18  C   UNL     1      10.830   5.542  94.119  1.00  0.00     0.018 A 
HETATM   19  C   UNL     1      11.281   4.599  93.219  1.00  0.00     0.032 A 
HETATM   20  C   UNL     1      10.763   4.491  91.945  1.00  0.00     0.018 A 
HETATM   21  C   UNL     1       9.747   5.364  91.554  1.00  0.00     0.022 A 
BRANCH  19  22
HETATM   22  C   UNL     1      12.363   3.670  93.634  1.00  0.00     0.252 C 
HETATM   23  O   UNL     1      12.066   2.583  94.124  1.00  0.00    -0.268 OA
HETATM   24  N   UNL     1      13.661   4.108  93.406  1.00  0.00    -0.342 N 
HETATM   25  H   UNL     1      13.829   5.009  92.973  1.00  0.00     0.163 HD
BRANCH  24  26
HETATM   26  C   UNL     1      14.816   3.311  93.731  1.00  0.00     0.199 C 
BRANCH  26  27
HETATM   27  C   UNL     1      15.174   2.306  92.629  1.00  0.00     0.145 C 
HETATM   28  C   UNL     1      14.431   0.983  92.782  1.00  0.00     0.042 C 
BRANCH  27  29
HETATM   29  O   UNL     1      14.864   2.866  91.353  1.00  0.00    -0.393 OA
HETATM   30  H   UNL     1      14.900   2.155  90.691  1.00  0.00     0.210 HD
ENDBRANCH  27  29
ENDBRANCH  26  27
BRANCH  26  31
HETATM   31  C   UNL     1      15.975   4.263  94.010  1.00  0.00     0.220 C 
HETATM   32  O   UNL     1      15.832   5.480  94.111  1.00  0.00    -0.278 OA
HETATM   33  N   UNL     1      17.178   3.606  94.093  1.00  0.00    -0.271 NA
HETATM   34  H   UNL     1      17.344   2.620  93.927  1.00  0.00     0.127 HD
HETATM   35  H   UNL     1      18.242   3.615  93.176  1.00  0.00     0.127 HD
ENDBRANCH  26  31
ENDBRANCH  24  26
ENDBRANCH  19  22
ENDBRANCH  15  16
ENDBRANCH  11  14
ENDBRANCH   7   8
ENDBRANCH   2   7
TORSDOF 9
ENDMDL
MODEL 7
REMARK VINA RESULT:      -5.0      1.819     12.438
REMARK  9 active torsions:
REMARK  status: ('A' for Active; 'I' for Inactive)
REMARK    1  A    between atoms: O_2  and  C_17 
REMARK    2  A    between atoms: N_5  and  C_10 
REMARK    3  A    between atoms: N_6  and  C_14 
REMARK       I    between atoms: N_6  and  C_23 
REMARK       I    between atoms: N_7  and  C_22 
REMARK    4  A    between atoms: C_10  and  C_13 
REMARK    5  A    between atoms: C_14  and  C_17 
REMARK    6  A    between atoms: C_14  and  C_22 
REMARK    7  A    between atoms: C_20  and  C_25 
REMARK    8  A    between atoms: C_23  and  C_24 
REMARK    9  A    between atoms: C_28  and  C_31 
ROOT
HETATM    1  O   UNL     1       3.042  14.177  93.100  1.00  0.00    -0.388 OA
HETATM    2  N   UNL     1       3.344  13.192  90.447  1.00  0.00     0.096 N 
HETATM    3  C   UNL     1       2.149  12.891  91.246  1.00  0.00     0.299 C 
HETATM    4  C   UNL     1       4.502  13.393  91.329  1.00  0.00     0.299 C 
HETATM    5  C   UNL     1       1.904  14.012  92.253  1.00  0.00     0.198 C 
HETATM    6  C   UNL     1       4.202  14.501  92.334  1.00  0.00     0.198 C 
ENDROOT
BRANCH   2   7
HETATM    7  C   UNL     1       3.604  12.125  89.482  1.00  0.00     0.311 C 
BRANCH   7   8
HETATM    8  C   UNL     1       4.627  11.156  89.969  1.00  0.00    -0.030 A 
HETATM    9  C   UNL     1       4.254  10.121  90.826  1.00  0.00     0.010 A 
HETATM   10  C   UNL     1       5.210   9.215  91.284  1.00  0.00     0.021 A 
HETATM   11  C   UNL     1       6.539   9.344  90.882  1.00  0.00     0.018 A 
HETATM   12  C   UNL     1       6.914  10.377  90.025  1.00  0.00     0.021 A 
HETATM   13  C   UNL     1       5.957  11.284  89.568  1.00  0.00     0.010 A 
BRANCH  11  14
HETATM   14  C   UNL     1       7.520   8.413  91.350  1.00  0.00    -0.061 C 
HETATM   15  C   UNL     1       8.345   7.632  91.744  1.00  0.00    -0.061 C 
BRANCH  15  16
HETATM   16  C   UNL     1       9.325   6.702  92.212  1.00  0.00     0.018 A 
HETATM   17  C   UNL     1       9.721   6.723  93.550  1.00  0.00     0.022 A 
HETATM   18  C   UNL     1      10.675   5.814  94.007  1.00  0.00     0.018 A 
HETATM   19  C   UNL     1      11.210   4.905  93.118  1.00  0.00     0.032 A 
HETATM   20  C   UNL     1      10.836   4.865  91.791  1.00  0.00     0.018 A 
HETATM   21  C   UNL     1       9.882   5.773  91.333  1.00  0.00     0.022 A 
BRANCH  19  22
HETATM   22  C   UNL     1      12.228   3.938  93.605  1.00  0.00     0.252 C 
HETATM   23  O   UNL     1      11.858   2.888  94.124  1.00  0.00    -0.268 OA
HETATM   24  N   UNL     1      13.554   4.300  93.408  1.00  0.00    -0.342 N 
HETATM   25  H   UNL     1      13.784   5.173  92.949  1.00  0.00     0.163 HD
BRANCH  24  26
HETATM   26  C   UNL     1      14.654   3.458  93.803  1.00  0.00     0.199 C 
BRANCH  26  27
HETATM   27  C   UNL     1      14.872   2.278  92.848  1.00  0.00     0.145 C 
HETATM   28  C   UNL     1      14.538   0.937  93.491  1.00  0.00     0.042 C 
BRANCH  27  29
HETATM   29  O   UNL     1      14.061   2.449  91.686  1.00  0.00    -0.393 OA
HETATM   30  H   UNL     1      14.357   3.251  91.223  1.00  0.00     0.210 HD
ENDBRANCH  27  29
ENDBRANCH  26  27
BRANCH  26  31
HETATM   31  C   UNL     1      15.900   4.333  93.897  1.00  0.00     0.220 C 
HETATM   32  O   UNL     1      15.866   5.559  93.802  1.00  0.00    -0.278 OA
HETATM   33  N   UNL     1      17.045   3.591  94.057  1.00  0.00    -0.271 NA
HETATM   34  H   UNL     1      17.119   2.580  94.049  1.00  0.00     0.127 HD
HETATM   35  H   UNL     1      18.069   3.357  93.126  1.00  0.00     0.127 HD
ENDBRANCH  26  31
ENDBRANCH  24  26
ENDBRANCH  19  22
ENDBRANCH  15  16
ENDBRANCH  11  14
ENDBRANCH   7   8
ENDBRANCH   2   7
TORSDOF 9
ENDMDL
MODEL 8
REMARK VINA RESULT:      -4.8      1.665     12.378
REMARK  9 active torsions:
REMARK  status: ('A' for Active; 'I' for Inactive)
REMARK    1  A    between atoms: O_2  and  C_17 
REMARK    2  A    between atoms: N_5  and  C_10 
REMARK    3  A    between atoms: N_6  and  C_14 
REMARK       I    between atoms: N_6  and  C_23 
REMARK       I    between atoms: N_7  and  C_22 
REMARK    4  A    between atoms: C_10  and  C_13 
REMARK    5  A    between atoms: C_14  and  C_17 
REMARK    6  A    between atoms: C_14  and  C_22 
REMARK    7  A    between atoms: C_20  and  C_25 
REMARK    8  A    between atoms: C_23  and  C_24 
REMARK    9  A    between atoms: C_28  and  C_31 
ROOT
HETATM    1  O   UNL     1       5.219  15.580  90.690  1.00  0.00    -0.388 OA
HETATM    2  N   UNL     1       3.398  13.586  89.788  1.00  0.00     0.096 N 
HETATM    3  C   UNL     1       3.467  13.981  91.202  1.00  0.00     0.299 C 
HETATM    4  C   UNL     1       4.707  13.778  89.148  1.00  0.00     0.299 C 
HETATM    5  C   UNL     1       3.942  15.427  91.313  1.00  0.00     0.198 C 
HETATM    6  C   UNL     1       5.154  15.228  89.307  1.00  0.00     0.198 C 
ENDROOT
BRANCH   2   7
HETATM    7  C   UNL     1       2.954  12.200  89.659  1.00  0.00     0.311 C 
BRANCH   7   8
HETATM    8  C   UNL     1       4.059  11.226  89.887  1.00  0.00    -0.030 A 
HETATM    9  C   UNL     1       4.415  10.327  88.881  1.00  0.00     0.010 A 
HETATM   10  C   UNL     1       5.448   9.414  89.094  1.00  0.00     0.021 A 
HETATM   11  C   UNL     1       6.125   9.402  90.313  1.00  0.00     0.018 A 
HETATM   12  C   UNL     1       5.771  10.299  91.319  1.00  0.00     0.021 A 
HETATM   13  C   UNL     1       4.738  11.211  91.106  1.00  0.00     0.010 A 
BRANCH  11  14
HETATM   14  C   UNL     1       7.186   8.466  90.531  1.00  0.00    -0.061 C 
HETATM   15  C   UNL     1       8.077   7.681  90.715  1.00  0.00    -0.061 C 
BRANCH  15  16
HETATM   16  C   UNL     1       9.137   6.746  90.934  1.00  0.00     0.018 A 
HETATM   17  C   UNL     1       9.175   6.000  92.112  1.00  0.00     0.022 A 
HETATM   18  C   UNL     1      10.207   5.087  92.324  1.00  0.00     0.018 A 
HETATM   19  C   UNL     1      11.176   4.938  91.354  1.00  0.00     0.032 A 
HETATM   20  C   UNL     1      11.161   5.664  90.182  1.00  0.00     0.018 A 
HETATM   21  C   UNL     1      10.129   6.578  89.968  1.00  0.00     0.022 A 
BRANCH  19  22
HETATM   22  C   UNL     1      12.277   3.966  91.582  1.00  0.00     0.252 C 
HETATM   23  O   UNL     1      12.274   2.903  90.966  1.00  0.00    -0.268 OA
HETATM   24  N   UNL     1      13.260   4.360  92.479  1.00  0.00    -0.342 N 
HETATM   25  H   UNL     1      13.209   5.265  92.931  1.00  0.00     0.163 HD
BRANCH  24  26
HETATM   26  C   UNL     1      14.403   3.538  92.786  1.00  0.00     0.199 C 
BRANCH  26  27
HETATM   27  C   UNL     1      15.546   4.330  93.434  1.00  0.00     0.145 C 
HETATM   28  C   UNL     1      16.792   3.480  93.657  1.00  0.00     0.042 C 
BRANCH  27  29
HETATM   29  O   UNL     1      15.886   5.442  92.607  1.00  0.00    -0.393 OA
HETATM   30  H   UNL     1      16.307   6.119  93.164  1.00  0.00     0.210 HD
ENDBRANCH  27  29
ENDBRANCH  26  27
BRANCH  26  31
HETATM   31  C   UNL     1      13.932   2.404  93.690  1.00  0.00     0.220 C 
HETATM   32  O   UNL     1      14.685   1.530  94.117  1.00  0.00    -0.278 OA
HETATM   33  N   UNL     1      12.580   2.458  93.930  1.00  0.00    -0.271 NA
HETATM   34  H   UNL     1      11.918   3.109  93.523  1.00  0.00     0.127 HD
HETATM   35  H   UNL     1      11.573   1.615  93.435  1.00  0.00     0.127 HD
ENDBRANCH  26  31
ENDBRANCH  24  26
ENDBRANCH  19  22
ENDBRANCH  15  16
ENDBRANCH  11  14
ENDBRANCH   7   8
ENDBRANCH   2   7
TORSDOF 9
ENDMDL
MODEL 9
REMARK VINA RESULT:      -4.7      2.307      2.595
REMARK  9 active torsions:
REMARK  status: ('A' for Active; 'I' for Inactive)
REMARK    1  A    between atoms: O_2  and  C_17 
REMARK    2  A    between atoms: N_5  and  C_10 
REMARK    3  A    between atoms: N_6  and  C_14 
REMARK       I    between atoms: N_6  and  C_23 
REMARK       I    between atoms: N_7  and  C_22 
REMARK    4  A    between atoms: C_10  and  C_13 
REMARK    5  A    between atoms: C_14  and  C_17 
REMARK    6  A    between atoms: C_14  and  C_22 
REMARK    7  A    between atoms: C_20  and  C_25 
REMARK    8  A    between atoms: C_23  and  C_24 
REMARK    9  A    between atoms: C_28  and  C_31 
ROOT
HETATM    1  O   UNL     1      16.243   2.648  92.696  1.00  0.00    -0.388 OA
HETATM    2  N   UNL     1      13.441   3.057  92.988  1.00  0.00     0.096 N 
HETATM    3  C   UNL     1      14.184   2.160  93.885  1.00  0.00     0.299 C 
HETATM    4  C   UNL     1      14.092   3.104  91.672  1.00  0.00     0.299 C 
HETATM    5  C   UNL     1      15.636   2.620  93.989  1.00  0.00     0.198 C 
HETATM    6  C   UNL     1      15.545   3.541  91.828  1.00  0.00     0.198 C 
ENDROOT
BRANCH   2   7
HETATM    7  C   UNL     1      12.049   2.629  92.865  1.00  0.00     0.311 C 
BRANCH   7   8
HETATM    8  C   UNL     1      11.102   3.779  92.829  1.00  0.00    -0.030 A 
HETATM    9  C   UNL     1      11.171   4.769  93.810  1.00  0.00     0.010 A 
HETATM   10  C   UNL     1      10.284   5.845  93.778  1.00  0.00     0.021 A 
HETATM   11  C   UNL     1       9.330   5.932  92.764  1.00  0.00     0.018 A 
HETATM   12  C   UNL     1       9.261   4.944  91.783  1.00  0.00     0.021 A 
HETATM   13  C   UNL     1      10.147   3.867  91.815  1.00  0.00     0.010 A 
BRANCH  11  14
HETATM   14  C   UNL     1       8.422   7.036  92.730  1.00  0.00    -0.061 C 
HETATM   15  C   UNL     1       7.659   7.965  92.701  1.00  0.00    -0.061 C 
BRANCH  15  16
HETATM   16  C   UNL     1       6.752   9.070  92.666  1.00  0.00     0.018 A 
HETATM   17  C   UNL     1       5.608   9.007  91.869  1.00  0.00     0.022 A 
HETATM   18  C   UNL     1       4.722  10.083  91.838  1.00  0.00     0.018 A 
HETATM   19  C   UNL     1       4.998  11.197  92.603  1.00  0.00     0.032 A 
HETATM   20  C   UNL     1       6.121  11.284  93.399  1.00  0.00     0.018 A 
HETATM   21  C   UNL     1       7.008  10.208  93.431  1.00  0.00     0.022 A 
BRANCH  19  22
HETATM   22  C   UNL     1       4.054  12.344  92.568  1.00  0.00     0.252 C 
HETATM   23  O   UNL     1       2.960  12.238  93.116  1.00  0.00    -0.268 OA
HETATM   24  N   UNL     1       4.508  13.485  91.921  1.00  0.00    -0.342 N 
HETATM   25  H   UNL     1       5.435  13.509  91.513  1.00  0.00     0.163 HD
BRANCH  24  26
HETATM   26  C   UNL     1       3.720  14.687  91.823  1.00  0.00     0.199 C 
BRANCH  26  27
HETATM   27  C   UNL     1       2.483  14.515  90.933  1.00  0.00     0.145 C 
HETATM   28  C   UNL     1       2.789  13.750  89.650  1.00  0.00     0.042 C 
BRANCH  27  29
HETATM   29  O   UNL     1       1.467  13.821  91.655  1.00  0.00    -0.393 OA
HETATM   30  H   UNL     1       1.088  13.142  91.072  1.00  0.00     0.210 HD
ENDBRANCH  27  29
ENDBRANCH  26  27
BRANCH  26  31
HETATM   31  C   UNL     1       3.330  15.105  93.238  1.00  0.00     0.220 C 
HETATM   32  O   UNL     1       2.206  15.506  93.532  1.00  0.00    -0.278 OA
HETATM   33  N   UNL     1       4.385  15.015  94.114  1.00  0.00    -0.271 NA
HETATM   34  H   UNL     1       5.343  14.775  93.888  1.00  0.00     0.127 HD
HETATM   35  H   UNL     1       5.118  16.056  94.705  1.00  0.00     0.127 HD
ENDBRANCH  26  31
ENDBRANCH  24  26
ENDBRANCH  19  22
ENDBRANCH  15  16
ENDBRANCH  11  14
ENDBRANCH   7   8
ENDBRANCH   2   7
TORSDOF 9
ENDMDL
