MODEL 1
REMARK VINA RESULT:      -6.9      0.000      0.000
REMARK  10 active torsions:
REMARK  status: ('A' for Active; 'I' for Inactive)
REMARK    1  A    between atoms: O_2  and  C_16 
REMARK    2  A    between atoms: N_5  and  C_9 
REMARK    3  A    between atoms: N_6  and  C_13 
REMARK       I    between atoms: N_6  and  C_22 
REMARK    4  A    between atoms: C_9  and  C_12 
REMARK    5  A    between atoms: C_13  and  C_16 
REMARK    6  A    between atoms: C_13  and  C_21 
REMARK    7  A    between atoms: C_19  and  C_24 
REMARK    8  A    between atoms: C_22  and  C_23 
REMARK    9  A    between atoms: C_27  and  C_30 
REMARK   10  A    between atoms: N_33  and  S_34 
ROOT
HETATM    1  C   UNL     1       5.698  11.200  89.850  1.00  0.00     0.056 A 
HETATM    2  C   UNL     1       6.982  11.251  89.350  1.00  0.00     0.005 A 
HETATM    3  C   UNL     1       5.231  10.121  90.571  1.00  0.00     0.005 A 
HETATM    4  C   UNL     1       7.391   9.071  90.306  1.00  0.00     0.042 A 
HETATM    5  C   UNL     1       7.839  10.175  89.580  1.00  0.00     0.008 A 
HETATM    6  C   UNL     1       6.087   9.044  90.802  1.00  0.00     0.008 A 
ENDROOT
BRANCH   1   7
HETATM    7  C   UNL     1       4.786  12.348  89.607  1.00  0.00     0.254 C 
HETATM    8  O   UNL     1       4.633  12.759  88.459  1.00  0.00    -0.268 OA
HETATM    9  N   UNL     1       4.144  12.862  90.725  1.00  0.00    -0.337 N 
HETATM   10  HN  UNL     1       4.300  12.454  91.639  1.00  0.00     0.164 HD
BRANCH   9  11
HETATM   11  C   UNL     1       3.212  13.958  90.648  1.00  0.00     0.172 C 
BRANCH  11  12
HETATM   12  C   UNL     1       1.882  13.657  91.351  1.00  0.00     0.136 C 
HETATM   13  C   UNL     1       1.950  12.403  92.216  1.00  0.00     0.034 C 
BRANCH  12  14
HETATM   14  O   UNL     1       1.514  14.766  92.171  1.00  0.00    -0.383 OA
HETATM   15  H   UNL     1       2.295  15.039  92.683  1.00  0.00     0.210 HD
ENDBRANCH  12  14
ENDBRANCH  11  12
BRANCH  11  16
HETATM   16  C   UNL     1       3.889  15.188  91.245  1.00  0.00     0.398 A 
HETATM   17  O   UNL     1       5.011  15.563  90.910  1.00  0.00    -0.136 OA
HETATM   18  N   UNL     1       4.864  15.618  92.422  1.00  0.00     0.142 N 
HETATM   19  HN  UNL     1       5.778  15.969  92.354  1.00  0.00     0.338 HD
BRANCH  18  20
HETATM   20  S   UNL     1       4.134  15.108  93.490  1.00  0.00     0.076 SA
HETATM   21  H   UNL     1       3.807  15.883  94.328  1.00  0.00     0.136 HD
ENDBRANCH  18  20
ENDBRANCH  11  16
ENDBRANCH   9  11
ENDBRANCH   1   7
BRANCH   4  22
HETATM   22  C   UNL     1       8.268   7.967  90.540  1.00  0.00    -0.059 C 
HETATM   23  C   UNL     1       9.006   7.038  90.736  1.00  0.00    -0.059 C 
BRANCH  23  24
HETATM   24  C   UNL     1       9.884   5.933  90.970  1.00  0.00     0.042 A 
HETATM   25  C   UNL     1      10.057   5.444  92.264  1.00  0.00     0.008 A 
HETATM   26  C   UNL     1      10.915   4.368  92.493  1.00  0.00    -0.002 A 
HETATM   27  C   UNL     1      11.597   3.781  91.427  1.00  0.00     0.011 A 
HETATM   28  C   UNL     1      11.423   4.272  90.133  1.00  0.00    -0.002 A 
HETATM   29  C   UNL     1      10.566   5.348  89.905  1.00  0.00     0.008 A 
BRANCH  27  30
HETATM   30  C   UNL     1      12.512   2.630  91.672  1.00  0.00     0.277 C 
BRANCH  30  31
HETATM   31  N   UNL     1      13.502   2.916  92.710  1.00  0.00     0.147 N 
HETATM   32  C   UNL     1      14.277   1.711  93.036  1.00  0.00     0.283 C 
HETATM   33  C   UNL     1      15.310   2.036  94.112  1.00  0.00     0.178 C 
HETATM   34  O   UNL     1      16.177   3.083  93.669  1.00  0.00    -0.350 OA
HETATM   35  C   UNL     1      15.434   4.267  93.379  1.00  0.00     0.178 C 
HETATM   36  C   UNL     1      14.404   3.996  92.287  1.00  0.00     0.283 C 
ENDBRANCH  30  31
ENDBRANCH  27  30
ENDBRANCH  23  24
ENDBRANCH   4  22
TORSDOF 10
ENDMDL
MODEL 2
REMARK VINA RESULT:      -6.7      1.230      1.375
REMARK  10 active torsions:
REMARK  status: ('A' for Active; 'I' for Inactive)
REMARK    1  A    between atoms: O_2  and  C_16 
REMARK    2  A    between atoms: N_5  and  C_9 
REMARK    3  A    between atoms: N_6  and  C_13 
REMARK       I    between atoms: N_6  and  C_22 
REMARK    4  A    between atoms: C_9  and  C_12 
REMARK    5  A    between atoms: C_13  and  C_16 
REMARK    6  A    between atoms: C_13  and  C_21 
REMARK    7  A    between atoms: C_19  and  C_24 
REMARK    8  A    between atoms: C_22  and  C_23 
REMARK    9  A    between atoms: C_27  and  C_30 
REMARK   10  A    between atoms: N_33  and  S_34 
ROOT
HETATM    1  C   UNL     1       4.921  10.074  90.039  1.00  0.00     0.056 A 
HETATM    2  C   UNL     1       5.957  10.379  90.897  1.00  0.00     0.005 A 
HETATM    3  C   UNL     1       4.845   8.866  89.378  1.00  0.00     0.005 A 
HETATM    4  C   UNL     1       6.908   8.205  90.446  1.00  0.00     0.042 A 
HETATM    5  C   UNL     1       6.962   9.435  91.103  1.00  0.00     0.008 A 
HETATM    6  C   UNL     1       5.849   7.921  89.584  1.00  0.00     0.008 A 
ENDROOT
BRANCH   1   7
HETATM    7  C   UNL     1       3.849  11.080  89.822  1.00  0.00     0.254 C 
HETATM    8  O   UNL     1       3.057  10.922  88.896  1.00  0.00    -0.268 OA
HETATM    9  N   UNL     1       3.814  12.135  90.723  1.00  0.00    -0.337 N 
HETATM   10  HN  UNL     1       4.486  12.187  91.479  1.00  0.00     0.164 HD
BRANCH   9  11
HETATM   11  C   UNL     1       2.820  13.177  90.658  1.00  0.00     0.172 C 
BRANCH  11  12
HETATM   12  C   UNL     1       2.210  13.500  92.028  1.00  0.00     0.136 C 
HETATM   13  C   UNL     1       1.189  14.630  91.960  1.00  0.00     0.034 C 
BRANCH  12  14
HETATM   14  O   UNL     1       1.577  12.335  92.556  1.00  0.00    -0.383 OA
HETATM   15  H   UNL     1       1.662  12.354  93.524  1.00  0.00     0.210 HD
ENDBRANCH  12  14
ENDBRANCH  11  12
BRANCH  11  16
HETATM   16  C   UNL     1       3.474  14.407  90.038  1.00  0.00     0.398 A 
HETATM   17  O   UNL     1       4.196  14.352  89.045  1.00  0.00    -0.136 OA
HETATM   18  N   UNL     1       4.811  15.263  90.095  1.00  0.00     0.142 N 
HETATM   19  HN  UNL     1       5.492  15.369  89.397  1.00  0.00     0.338 HD
BRANCH  18  20
HETATM   20  S   UNL     1       4.810  15.554  91.454  1.00  0.00     0.076 SA
HETATM   21  H   UNL     1       5.765  16.122  91.876  1.00  0.00     0.136 HD
ENDBRANCH  18  20
ENDBRANCH  11  16
ENDBRANCH   9  11
ENDBRANCH   1   7
BRANCH   4  22
HETATM   22  C   UNL     1       7.940   7.238  90.655  1.00  0.00    -0.059 C 
HETATM   23  C   UNL     1       8.808   6.425  90.831  1.00  0.00    -0.059 C 
BRANCH  23  24
HETATM   24  C   UNL     1       9.841   5.457  91.041  1.00  0.00     0.042 A 
HETATM   25  C   UNL     1      10.078   4.960  92.322  1.00  0.00     0.008 A 
HETATM   26  C   UNL     1      11.086   4.018  92.527  1.00  0.00    -0.002 A 
HETATM   27  C   UNL     1      11.855   3.573  91.451  1.00  0.00     0.011 A 
HETATM   28  C   UNL     1      11.615   4.071  90.170  1.00  0.00    -0.002 A 
HETATM   29  C   UNL     1      10.607   5.014  89.965  1.00  0.00     0.008 A 
BRANCH  27  30
HETATM   30  C   UNL     1      12.930   2.564  91.671  1.00  0.00     0.277 C 
BRANCH  30  31
HETATM   31  N   UNL     1      13.842   2.948  92.747  1.00  0.00     0.147 N 
HETATM   32  C   UNL     1      14.820   1.883  93.005  1.00  0.00     0.283 C 
HETATM   33  C   UNL     1      15.768   2.311  94.124  1.00  0.00     0.178 C 
HETATM   34  O   UNL     1      16.433   3.525  93.774  1.00  0.00    -0.350 OA
HETATM   35  C   UNL     1      15.491   4.574  93.551  1.00  0.00     0.178 C 
HETATM   36  C   UNL     1      14.537   4.201  92.421  1.00  0.00     0.283 C 
ENDBRANCH  30  31
ENDBRANCH  27  30
ENDBRANCH  23  24
ENDBRANCH   4  22
TORSDOF 10
ENDMDL
MODEL 3
REMARK VINA RESULT:      -6.3      1.336      1.793
REMARK  10 active torsions:
REMARK  status: ('A' for Active; 'I' for Inactive)
REMARK    1  A    between atoms: O_2  and  C_16 
REMARK    2  A    between atoms: N_5  and  C_9 
REMARK    3  A    between atoms: N_6  and  C_13 
REMARK       I    between atoms: N_6  and  C_22 
REMARK    4  A    between atoms: C_9  and  C_12 
REMARK    5  A    between atoms: C_13  and  C_16 
REMARK    6  A    between atoms: C_13  and  C_21 
REMARK    7  A    between atoms: C_19  and  C_24 
REMARK    8  A    between atoms: C_22  and  C_23 
REMARK    9  A    between atoms: C_27  and  C_30 
REMARK   10  A    between atoms: N_33  and  S_34 
ROOT
HETATM    1  C   UNL     1       5.507  10.139  90.247  1.00  0.00     0.056 A 
HETATM    2  C   UNL     1       5.142   8.810  90.278  1.00  0.00     0.005 A 
HETATM    3  C   UNL     1       6.811  10.549  90.432  1.00  0.00     0.005 A 
HETATM    4  C   UNL     1       7.451   8.235  90.696  1.00  0.00     0.042 A 
HETATM    5  C   UNL     1       6.124   7.846  90.506  1.00  0.00     0.008 A 
HETATM    6  C   UNL     1       7.794   9.586  90.659  1.00  0.00     0.008 A 
ENDROOT
BRANCH   1   7
HETATM    7  C   UNL     1       4.461  11.165  90.002  1.00  0.00     0.254 C 
HETATM    8  O   UNL     1       3.880  11.184  88.919  1.00  0.00    -0.268 OA
HETATM    9  N   UNL     1       4.200  12.030  91.055  1.00  0.00    -0.337 N 
HETATM   10  HN  UNL     1       4.702  11.939  91.931  1.00  0.00     0.164 HD
BRANCH   9  11
HETATM   11  C   UNL     1       3.197  13.063  90.981  1.00  0.00     0.172 C 
BRANCH  11  12
HETATM   12  C   UNL     1       2.137  12.941  92.083  1.00  0.00     0.136 C 
HETATM   13  C   UNL     1       1.941  11.503  92.549  1.00  0.00     0.034 C 
BRANCH  12  14
HETATM   14  O   UNL     1       2.516  13.743  93.201  1.00  0.00    -0.383 OA
HETATM   15  H   UNL     1       3.011  14.512  92.871  1.00  0.00     0.210 HD
ENDBRANCH  12  14
ENDBRANCH  11  12
BRANCH  11  16
HETATM   16  C   UNL     1       3.909  14.410  91.043  1.00  0.00     0.398 A 
HETATM   17  O   UNL     1       3.316  15.475  91.201  1.00  0.00    -0.136 OA
HETATM   18  N   UNL     1       4.370  15.614  90.115  1.00  0.00     0.142 N 
HETATM   19  HN  UNL     1       4.040  16.537  90.113  1.00  0.00     0.338 HD
BRANCH  18  20
HETATM   20  S   UNL     1       5.135  14.891  89.206  1.00  0.00     0.076 SA
HETATM   21  H   UNL     1       6.209  15.329  88.949  1.00  0.00     0.136 HD
ENDBRANCH  18  20
ENDBRANCH  11  16
ENDBRANCH   9  11
ENDBRANCH   1   7
BRANCH   4  22
HETATM   22  C   UNL     1       8.457   7.248  90.933  1.00  0.00    -0.059 C 
HETATM   23  C   UNL     1       9.303   6.417  91.131  1.00  0.00    -0.059 C 
BRANCH  23  24
HETATM   24  C   UNL     1      10.311   5.428  91.366  1.00  0.00     0.042 A 
HETATM   25  C   UNL     1      10.955   4.820  90.289  1.00  0.00     0.008 A 
HETATM   26  C   UNL     1      11.935   3.855  90.519  1.00  0.00    -0.002 A 
HETATM   27  C   UNL     1      12.273   3.501  91.825  1.00  0.00     0.011 A 
HETATM   28  C   UNL     1      11.628   4.110  92.902  1.00  0.00    -0.002 A 
HETATM   29  C   UNL     1      10.647   5.075  92.672  1.00  0.00     0.008 A 
BRANCH  27  30
HETATM   30  C   UNL     1      13.323   2.471  92.069  1.00  0.00     0.277 C 
BRANCH  30  31
HETATM   31  N   UNL     1      14.306   2.902  93.061  1.00  0.00     0.147 N 
HETATM   32  C   UNL     1      15.455   1.986  93.087  1.00  0.00     0.283 C 
HETATM   33  C   UNL     1      16.473   2.463  94.120  1.00  0.00     0.178 C 
HETATM   34  O   UNL     1      16.902   3.792  93.819  1.00  0.00    -0.350 OA
HETATM   35  C   UNL     1      15.795   4.695  93.823  1.00  0.00     0.178 C 
HETATM   36  C   UNL     1      14.761   4.272  92.784  1.00  0.00     0.283 C 
ENDBRANCH  30  31
ENDBRANCH  27  30
ENDBRANCH  23  24
ENDBRANCH   4  22
TORSDOF 10
ENDMDL
MODEL 4
REMARK VINA RESULT:      -5.5      3.002      4.058
REMARK  10 active torsions:
REMARK  status: ('A' for Active; 'I' for Inactive)
REMARK    1  A    between atoms: O_2  and  C_16 
REMARK    2  A    between atoms: N_5  and  C_9 
REMARK    3  A    between atoms: N_6  and  C_13 
REMARK       I    between atoms: N_6  and  C_22 
REMARK    4  A    between atoms: C_9  and  C_12 
REMARK    5  A    between atoms: C_13  and  C_16 
REMARK    6  A    between atoms: C_13  and  C_21 
REMARK    7  A    between atoms: C_19  and  C_24 
REMARK    8  A    between atoms: C_22  and  C_23 
REMARK    9  A    between atoms: C_27  and  C_30 
REMARK   10  A    between atoms: N_33  and  S_34 
ROOT
HETATM    1  C   UNL     1       6.179   8.350  89.100  1.00  0.00     0.056 A 
HETATM    2  C   UNL     1       5.837   7.305  89.933  1.00  0.00     0.005 A 
HETATM    3  C   UNL     1       7.489   8.634  88.775  1.00  0.00     0.005 A 
HETATM    4  C   UNL     1       8.184   6.776  90.153  1.00  0.00     0.042 A 
HETATM    5  C   UNL     1       6.851   6.509  90.466  1.00  0.00     0.008 A 
HETATM    6  C   UNL     1       8.503   7.838  89.308  1.00  0.00     0.008 A 
ENDROOT
BRANCH   1   7
HETATM    7  C   UNL     1       5.100   9.197  88.530  1.00  0.00     0.254 C 
HETATM    8  O   UNL     1       4.934   9.219  87.313  1.00  0.00    -0.268 OA
HETATM    9  N   UNL     1       4.328   9.896  89.447  1.00  0.00    -0.337 N 
HETATM   10  HN  UNL     1       4.507   9.810  90.441  1.00  0.00     0.164 HD
BRANCH   9  11
HETATM   11  C   UNL     1       3.229  10.740  89.052  1.00  0.00     0.172 C 
BRANCH  11  12
HETATM   12  C   UNL     1       3.674  12.161  88.684  1.00  0.00     0.136 C 
HETATM   13  C   UNL     1       4.753  12.696  89.619  1.00  0.00     0.034 C 
BRANCH  12  14
HETATM   14  O   UNL     1       4.172  12.174  87.347  1.00  0.00    -0.383 OA
HETATM   15  H   UNL     1       3.435  11.976  86.745  1.00  0.00     0.210 HD
ENDBRANCH  12  14
ENDBRANCH  11  12
BRANCH  11  16
HETATM   16  C   UNL     1       2.517  10.063  87.886  1.00  0.00     0.398 A 
HETATM   17  O   UNL     1       1.504  10.522  87.362  1.00  0.00    -0.136 OA
HETATM   18  N   UNL     1       1.356   9.024  87.575  1.00  0.00     0.142 N 
HETATM   19  HN  UNL     1       0.493   9.192  87.139  1.00  0.00     0.338 HD
BRANCH  18  20
HETATM   20  S   UNL     1       1.834   7.953  88.322  1.00  0.00     0.076 SA
HETATM   21  H   UNL     1       1.074   7.061  88.518  1.00  0.00     0.136 HD
ENDBRANCH  18  20
ENDBRANCH  11  16
ENDBRANCH   9  11
ENDBRANCH   1   7
BRANCH   4  22
HETATM   22  C   UNL     1       9.223   5.961  90.703  1.00  0.00    -0.059 C 
HETATM   23  C   UNL     1      10.096   5.277  91.165  1.00  0.00    -0.059 C 
BRANCH  23  24
HETATM   24  C   UNL     1      11.135   4.461  91.715  1.00  0.00     0.042 A 
HETATM   25  C   UNL     1      12.141   3.964  90.888  1.00  0.00     0.008 A 
HETATM   26  C   UNL     1      13.153   3.167  91.424  1.00  0.00    -0.002 A 
HETATM   27  C   UNL     1      13.159   2.871  92.787  1.00  0.00     0.011 A 
HETATM   28  C   UNL     1      12.152   3.370  93.613  1.00  0.00    -0.002 A 
HETATM   29  C   UNL     1      11.140   4.166  93.077  1.00  0.00     0.008 A 
BRANCH  27  30
HETATM   30  C   UNL     1      14.242   2.021  93.359  1.00  0.00     0.277 C 
BRANCH  30  31
HETATM   31  N   UNL     1      15.419   2.801  93.740  1.00  0.00     0.147 N 
HETATM   32  C   UNL     1      16.544   2.520  92.838  1.00  0.00     0.283 C 
HETATM   33  C   UNL     1      17.756   3.352  93.248  1.00  0.00     0.178 C 
HETATM   34  O   UNL     1      17.434   4.744  93.226  1.00  0.00    -0.350 OA
HETATM   35  C   UNL     1      16.361   5.030  94.124  1.00  0.00     0.178 C 
HETATM   36  C   UNL     1      15.117   4.239  93.736  1.00  0.00     0.283 C 
ENDBRANCH  30  31
ENDBRANCH  27  30
ENDBRANCH  23  24
ENDBRANCH   4  22
TORSDOF 10
ENDMDL
MODEL 5
REMARK VINA RESULT:      -5.4      1.446      2.183
REMARK  10 active torsions:
REMARK  status: ('A' for Active; 'I' for Inactive)
REMARK    1  A    between atoms: O_2  and  C_16 
REMARK    2  A    between atoms: N_5  and  C_9 
REMARK    3  A    between atoms: N_6  and  C_13 
REMARK       I    between atoms: N_6  and  C_22 
REMARK    4  A    between atoms: C_9  and  C_12 
REMARK    5  A    between atoms: C_13  and  C_16 
REMARK    6  A    between atoms: C_13  and  C_21 
REMARK    7  A    between atoms: C_19  and  C_24 
REMARK    8  A    between atoms: C_22  and  C_23 
REMARK    9  A    between atoms: C_27  and  C_30 
REMARK   10  A    between atoms: N_33  and  S_34 
ROOT
HETATM    1  C   UNL     1       5.311  10.411  91.066  1.00  0.00     0.056 A 
HETATM    2  C   UNL     1       6.602  10.782  91.380  1.00  0.00     0.005 A 
HETATM    3  C   UNL     1       4.946   9.094  90.886  1.00  0.00     0.005 A 
HETATM    4  C   UNL     1       7.229   8.449  91.343  1.00  0.00     0.042 A 
HETATM    5  C   UNL     1       7.572   9.790  91.520  1.00  0.00     0.008 A 
HETATM    6  C   UNL     1       5.916   8.101  91.026  1.00  0.00     0.008 A 
ENDROOT
BRANCH   1   7
HETATM    7  C   UNL     1       4.277  11.468  90.919  1.00  0.00     0.254 C 
HETATM    8  O   UNL     1       3.229  11.205  90.335  1.00  0.00    -0.268 OA
HETATM    9  N   UNL     1       4.577  12.696  91.492  1.00  0.00    -0.337 N 
HETATM   10  HN  UNL     1       5.453  12.833  91.982  1.00  0.00     0.164 HD
BRANCH   9  11
HETATM   11  C   UNL     1       3.666  13.813  91.455  1.00  0.00     0.172 C 
BRANCH  11  12
HETATM   12  C   UNL     1       3.633  14.507  90.087  1.00  0.00     0.136 C 
HETATM   13  C   UNL     1       5.028  14.751  89.523  1.00  0.00     0.034 C 
BRANCH  12  14
HETATM   14  O   UNL     1       2.893  13.708  89.165  1.00  0.00    -0.383 OA
HETATM   15  H   UNL     1       3.521  13.157  88.667  1.00  0.00     0.210 HD
ENDBRANCH  12  14
ENDBRANCH  11  12
BRANCH  11  16
HETATM   16  C   UNL     1       2.285  13.300  91.851  1.00  0.00     0.398 A 
HETATM   17  O   UNL     1       1.263  13.975  91.738  1.00  0.00    -0.136 OA
HETATM   18  N   UNL     1       1.281  13.263  93.081  1.00  0.00     0.142 N 
HETATM   19  HN  UNL     1       0.411  13.707  93.166  1.00  0.00     0.338 HD
BRANCH  18  20
HETATM   20  S   UNL     1       2.121  12.665  94.013  1.00  0.00     0.076 SA
HETATM   21  H   UNL     1       1.685  11.725  94.595  1.00  0.00     0.136 HD
ENDBRANCH  18  20
ENDBRANCH  11  16
ENDBRANCH   9  11
ENDBRANCH   1   7
BRANCH   4  22
HETATM   22  C   UNL     1       8.224   7.433  91.483  1.00  0.00    -0.059 C 
HETATM   23  C   UNL     1       9.061   6.577  91.601  1.00  0.00    -0.059 C 
BRANCH  23  24
HETATM   24  C   UNL     1      10.057   5.560  91.740  1.00  0.00     0.042 A 
HETATM   25  C   UNL     1      10.640   4.996  90.606  1.00  0.00     0.008 A 
HETATM   26  C   UNL     1      11.610   4.003  90.742  1.00  0.00    -0.002 A 
HETATM   27  C   UNL     1      11.998   3.576  92.012  1.00  0.00     0.011 A 
HETATM   28  C   UNL     1      11.414   4.142  93.146  1.00  0.00    -0.002 A 
HETATM   29  C   UNL     1      10.444   5.135  93.009  1.00  0.00     0.008 A 
BRANCH  27  30
HETATM   30  C   UNL     1      13.036   2.516  92.156  1.00  0.00     0.277 C 
BRANCH  30  31
HETATM   31  N   UNL     1      14.082   2.887  93.108  1.00  0.00     0.147 N 
HETATM   32  C   UNL     1      15.146   1.873  93.132  1.00  0.00     0.283 C 
HETATM   33  C   UNL     1      16.231   2.287  94.124  1.00  0.00     0.178 C 
HETATM   34  O   UNL     1      16.766   3.564  93.772  1.00  0.00    -0.350 OA
HETATM   35  C   UNL     1      15.743   4.560  93.776  1.00  0.00     0.178 C 
HETATM   36  C   UNL     1      14.647   4.202  92.777  1.00  0.00     0.283 C 
ENDBRANCH  30  31
ENDBRANCH  27  30
ENDBRANCH  23  24
ENDBRANCH   4  22
TORSDOF 10
ENDMDL
MODEL 6
REMARK VINA RESULT:      -5.4      3.319     12.398
REMARK  10 active torsions:
REMARK  status: ('A' for Active; 'I' for Inactive)
REMARK    1  A    between atoms: O_2  and  C_16 
REMARK    2  A    between atoms: N_5  and  C_9 
REMARK    3  A    between atoms: N_6  and  C_13 
REMARK       I    between atoms: N_6  and  C_22 
REMARK    4  A    between atoms: C_9  and  C_12 
REMARK    5  A    between atoms: C_13  and  C_16 
REMARK    6  A    between atoms: C_13  and  C_21 
REMARK    7  A    between atoms: C_19  and  C_24 
REMARK    8  A    between atoms: C_22  and  C_23 
REMARK    9  A    between atoms: C_27  and  C_30 
REMARK   10  A    between atoms: N_33  and  S_34 
ROOT
HETATM    1  C   UNL     1      10.227   5.919  89.903  1.00  0.00     0.056 A 
HETATM    2  C   UNL     1       9.438   6.078  91.023  1.00  0.00     0.005 A 
HETATM    3  C   UNL     1      10.112   6.737  88.799  1.00  0.00     0.005 A 
HETATM    4  C   UNL     1       8.354   7.942  89.934  1.00  0.00     0.042 A 
HETATM    5  C   UNL     1       8.489   7.101  91.039  1.00  0.00     0.008 A 
HETATM    6  C   UNL     1       9.165   7.760  88.814  1.00  0.00     0.008 A 
ENDROOT
BRANCH   1   7
HETATM    7  C   UNL     1      11.238   4.830  89.887  1.00  0.00     0.254 C 
HETATM    8  O   UNL     1      11.298   4.081  88.915  1.00  0.00    -0.268 OA
HETATM    9  N   UNL     1      12.074   4.760  90.994  1.00  0.00    -0.337 N 
HETATM   10  HN  UNL     1      11.982   5.430  91.749  1.00  0.00     0.164 HD
BRANCH   9  11
HETATM   11  C   UNL     1      13.119   3.776  91.115  1.00  0.00     0.172 C 
BRANCH  11  12
HETATM   12  C   UNL     1      14.415   4.356  91.696  1.00  0.00     0.136 C 
HETATM   13  C   UNL     1      15.364   3.274  92.200  1.00  0.00     0.034 C 
BRANCH  12  14
HETATM   14  O   UNL     1      15.082   5.129  90.699  1.00  0.00    -0.383 OA
HETATM   15  H   UNL     1      15.107   6.054  90.996  1.00  0.00     0.210 HD
ENDBRANCH  12  14
ENDBRANCH  11  12
BRANCH  11  16
HETATM   16  C   UNL     1      12.587   2.635  91.975  1.00  0.00     0.398 A 
HETATM   17  O   UNL     1      11.585   1.986  91.682  1.00  0.00    -0.136 OA
HETATM   18  N   UNL     1      11.568   2.344  93.159  1.00  0.00     0.142 N 
HETATM   19  HN  UNL     1      10.737   1.825  93.128  1.00  0.00     0.338 HD
BRANCH  18  20
HETATM   20  S   UNL     1      12.082   3.235  94.095  1.00  0.00     0.076 SA
HETATM   21  H   UNL     1      12.394   4.308  93.691  1.00  0.00     0.136 HD
ENDBRANCH  18  20
ENDBRANCH  11  16
ENDBRANCH   9  11
ENDBRANCH   1   7
BRANCH   4  22
HETATM   22  C   UNL     1       7.380   8.989  89.949  1.00  0.00    -0.059 C 
HETATM   23  C   UNL     1       6.561   9.870  89.962  1.00  0.00    -0.059 C 
BRANCH  23  24
HETATM   24  C   UNL     1       5.587  10.918  89.977  1.00  0.00     0.042 A 
HETATM   25  C   UNL     1       5.832  12.105  89.287  1.00  0.00     0.008 A 
HETATM   26  C   UNL     1       4.884  13.127  89.303  1.00  0.00    -0.002 A 
HETATM   27  C   UNL     1       3.690  12.961  90.006  1.00  0.00     0.011 A 
HETATM   28  C   UNL     1       3.447  11.772  90.695  1.00  0.00    -0.002 A 
HETATM   29  C   UNL     1       4.396  10.750  90.679  1.00  0.00     0.008 A 
BRANCH  27  30
HETATM   30  C   UNL     1       2.676  14.054  90.021  1.00  0.00     0.277 C 
BRANCH  30  31
HETATM   31  N   UNL     1       2.637  14.761  91.300  1.00  0.00     0.147 N 
HETATM   32  C   UNL     1       1.721  14.094  92.235  1.00  0.00     0.283 C 
HETATM   33  C   UNL     1       1.706  14.843  93.565  1.00  0.00     0.178 C 
HETATM   34  O   UNL     1       3.023  14.906  94.116  1.00  0.00    -0.350 OA
HETATM   35  C   UNL     1       3.912  15.580  93.226  1.00  0.00     0.178 C 
HETATM   36  C   UNL     1       3.981  14.850  91.888  1.00  0.00     0.283 C 
ENDBRANCH  30  31
ENDBRANCH  27  30
ENDBRANCH  23  24
ENDBRANCH   4  22
TORSDOF 10
ENDMDL
MODEL 7
REMARK VINA RESULT:      -5.3      1.881      2.612
REMARK  10 active torsions:
REMARK  status: ('A' for Active; 'I' for Inactive)
REMARK    1  A    between atoms: O_2  and  C_16 
REMARK    2  A    between atoms: N_5  and  C_9 
REMARK    3  A    between atoms: N_6  and  C_13 
REMARK       I    between atoms: N_6  and  C_22 
REMARK    4  A    between atoms: C_9  and  C_12 
REMARK    5  A    between atoms: C_13  and  C_16 
REMARK    6  A    between atoms: C_13  and  C_21 
REMARK    7  A    between atoms: C_19  and  C_24 
REMARK    8  A    between atoms: C_22  and  C_23 
REMARK    9  A    between atoms: C_27  and  C_30 
REMARK   10  A    between atoms: N_33  and  S_34 
ROOT
HETATM    1  C   UNL     1       4.123   9.931  91.764  1.00  0.00     0.056 A 
HETATM    2  C   UNL     1       4.442   9.298  92.947  1.00  0.00     0.005 A 
HETATM    3  C   UNL     1       4.752   9.630  90.574  1.00  0.00     0.005 A 
HETATM    4  C   UNL     1       6.089   7.998  91.751  1.00  0.00     0.042 A 
HETATM    5  C   UNL     1       5.437   8.320  92.941  1.00  0.00     0.008 A 
HETATM    6  C   UNL     1       5.747   8.652  90.567  1.00  0.00     0.008 A 
ENDROOT
BRANCH   1   7
HETATM    7  C   UNL     1       3.061  10.971  91.770  1.00  0.00     0.254 C 
HETATM    8  O   UNL     1       1.904  10.648  91.514  1.00  0.00    -0.268 OA
HETATM    9  N   UNL     1       3.471  12.256  92.098  1.00  0.00    -0.337 N 
HETATM   10  HN  UNL     1       4.441  12.443  92.323  1.00  0.00     0.164 HD
BRANCH   9  11
HETATM   11  C   UNL     1       2.557  13.367  92.171  1.00  0.00     0.172 C 
BRANCH  11  12
HETATM   12  C   UNL     1       2.790  14.248  93.405  1.00  0.00     0.136 C 
HETATM   13  C   UNL     1       4.093  13.915  94.122  1.00  0.00     0.034 C 
BRANCH  12  14
HETATM   14  O   UNL     1       2.814  15.621  93.013  1.00  0.00    -0.383 OA
HETATM   15  H   UNL     1       2.260  16.124  93.633  1.00  0.00     0.210 HD
ENDBRANCH  12  14
ENDBRANCH  11  12
BRANCH  11  16
HETATM   16  C   UNL     1       2.695  14.170  90.882  1.00  0.00     0.398 A 
HETATM   17  O   UNL     1       2.218  13.803  89.810  1.00  0.00    -0.136 OA
HETATM   18  N   UNL     1       3.633  14.319  89.608  1.00  0.00     0.142 N 
HETATM   19  HN  UNL     1       3.422  14.110  88.673  1.00  0.00     0.338 HD
BRANCH  18  20
HETATM   20  S   UNL     1       4.834  14.562  90.265  1.00  0.00     0.076 SA
HETATM   21  H   UNL     1       4.978  14.036  91.320  1.00  0.00     0.136 HD
ENDBRANCH  18  20
ENDBRANCH  11  16
ENDBRANCH   9  11
ENDBRANCH   1   7
BRANCH   4  22
HETATM   22  C   UNL     1       7.111   6.998  91.745  1.00  0.00    -0.059 C 
HETATM   23  C   UNL     1       7.970   6.156  91.741  1.00  0.00    -0.059 C 
BRANCH  23  24
HETATM   24  C   UNL     1       8.992   5.155  91.735  1.00  0.00     0.042 A 
HETATM   25  C   UNL     1       9.188   4.367  90.601  1.00  0.00     0.008 A 
HETATM   26  C   UNL     1      10.182   3.389  90.596  1.00  0.00    -0.002 A 
HETATM   27  C   UNL     1      10.982   3.202  91.725  1.00  0.00     0.011 A 
HETATM   28  C   UNL     1      10.784   3.991  92.858  1.00  0.00    -0.002 A 
HETATM   29  C   UNL     1       9.789   4.968  92.862  1.00  0.00     0.008 A 
BRANCH  27  30
HETATM   30  C   UNL     1      12.046   2.158  91.717  1.00  0.00     0.277 C 
BRANCH  30  31
HETATM   31  N   UNL     1      13.378   2.719  91.936  1.00  0.00     0.147 N 
HETATM   32  C   UNL     1      13.555   3.956  91.162  1.00  0.00     0.283 C 
HETATM   33  C   UNL     1      14.947   4.529  91.414  1.00  0.00     0.178 C 
HETATM   34  O   UNL     1      15.136   4.780  92.808  1.00  0.00    -0.350 OA
HETATM   35  C   UNL     1      14.996   3.577  93.564  1.00  0.00     0.178 C 
HETATM   36  C   UNL     1      13.607   2.981  93.363  1.00  0.00     0.283 C 
ENDBRANCH  30  31
ENDBRANCH  27  30
ENDBRANCH  23  24
ENDBRANCH   4  22
TORSDOF 10
ENDMDL
MODEL 8
REMARK VINA RESULT:      -5.3      3.572     12.574
REMARK  10 active torsions:
REMARK  status: ('A' for Active; 'I' for Inactive)
REMARK    1  A    between atoms: O_2  and  C_16 
REMARK    2  A    between atoms: N_5  and  C_9 
REMARK    3  A    between atoms: N_6  and  C_13 
REMARK       I    between atoms: N_6  and  C_22 
REMARK    4  A    between atoms: C_9  and  C_12 
REMARK    5  A    between atoms: C_13  and  C_16 
REMARK    6  A    between atoms: C_13  and  C_21 
REMARK    7  A    between atoms: C_19  and  C_24 
REMARK    8  A    between atoms: C_22  and  C_23 
REMARK    9  A    between atoms: C_27  and  C_30 
REMARK   10  A    between atoms: N_33  and  S_34 
ROOT
HETATM    1  C   UNL     1      10.331   5.035  92.166  1.00  0.00     0.056 A 
HETATM    2  C   UNL     1      10.227   5.501  90.873  1.00  0.00     0.005 A 
HETATM    3  C   UNL     1       9.561   5.539  93.194  1.00  0.00     0.005 A 
HETATM    4  C   UNL     1       8.524   7.044  91.615  1.00  0.00     0.042 A 
HETATM    5  C   UNL     1       9.314   6.518  90.593  1.00  0.00     0.008 A 
HETATM    6  C   UNL     1       8.647   6.555  92.916  1.00  0.00     0.008 A 
ENDROOT
BRANCH   1   7
HETATM    7  C   UNL     1      11.302   3.951  92.463  1.00  0.00     0.254 C 
HETATM    8  O   UNL     1      10.897   2.796  92.576  1.00  0.00    -0.268 OA
HETATM    9  N   UNL     1      12.631   4.337  92.568  1.00  0.00    -0.337 N 
HETATM   10  HN  UNL     1      12.895   5.307  92.438  1.00  0.00     0.164 HD
BRANCH   9  11
HETATM   11  C   UNL     1      13.693   3.399  92.828  1.00  0.00     0.172 C 
BRANCH  11  12
HETATM   12  C   UNL     1      14.229   2.740  91.551  1.00  0.00     0.136 C 
HETATM   13  C   UNL     1      14.109   3.647  90.331  1.00  0.00     0.034 C 
BRANCH  12  14
HETATM   14  O   UNL     1      15.601   2.389  91.734  1.00  0.00    -0.383 OA
HETATM   15  H   UNL     1      16.149   3.117  91.395  1.00  0.00     0.210 HD
ENDBRANCH  12  14
ENDBRANCH  11  12
BRANCH  11  16
HETATM   16  C   UNL     1      14.797   4.140  93.575  1.00  0.00     0.398 A 
HETATM   17  O   UNL     1      15.373   5.124  93.114  1.00  0.00    -0.136 OA
HETATM   18  N   UNL     1      16.377   4.171  93.743  1.00  0.00     0.142 N 
HETATM   19  HN  UNL     1      17.001   4.877  93.470  1.00  0.00     0.338 HD
BRANCH  18  20
HETATM   20  S   UNL     1      16.568   2.848  94.124  1.00  0.00     0.076 SA
HETATM   21  H   UNL     1      16.788   2.071  93.252  1.00  0.00     0.136 HD
ENDBRANCH  18  20
ENDBRANCH  11  16
ENDBRANCH   9  11
ENDBRANCH   1   7
BRANCH   4  22
HETATM   22  C   UNL     1       7.590   8.088  91.330  1.00  0.00    -0.059 C 
HETATM   23  C   UNL     1       6.804   8.966  91.089  1.00  0.00    -0.059 C 
BRANCH  23  24
HETATM   24  C   UNL     1       5.868  10.010  90.803  1.00  0.00     0.042 A 
HETATM   25  C   UNL     1       4.604   9.991  91.390  1.00  0.00     0.008 A 
HETATM   26  C   UNL     1       3.691  11.008  91.110  1.00  0.00    -0.002 A 
HETATM   27  C   UNL     1       4.044  12.044  90.245  1.00  0.00     0.011 A 
HETATM   28  C   UNL     1       5.310  12.061  89.659  1.00  0.00    -0.002 A 
HETATM   29  C   UNL     1       6.222  11.044  89.938  1.00  0.00     0.008 A 
BRANCH  27  30
HETATM   30  C   UNL     1       3.068  13.131  89.948  1.00  0.00     0.277 C 
BRANCH  30  31
HETATM   31  N   UNL     1       3.008  14.131  91.013  1.00  0.00     0.147 N 
HETATM   32  C   UNL     1       1.918  13.826  91.951  1.00  0.00     0.283 C 
HETATM   33  C   UNL     1       1.881  14.876  93.059  1.00  0.00     0.178 C 
HETATM   34  O   UNL     1       3.134  14.919  93.745  1.00  0.00    -0.350 OA
HETATM   35  C   UNL     1       4.194  15.245  92.846  1.00  0.00     0.178 C 
HETATM   36  C   UNL     1       4.286  14.205  91.733  1.00  0.00     0.283 C 
ENDBRANCH  30  31
ENDBRANCH  27  30
ENDBRANCH  23  24
ENDBRANCH   4  22
TORSDOF 10
ENDMDL
MODEL 9
REMARK VINA RESULT:      -5.3      3.587     12.601
REMARK  10 active torsions:
REMARK  status: ('A' for Active; 'I' for Inactive)
REMARK    1  A    between atoms: O_2  and  C_16 
REMARK    2  A    between atoms: N_5  and  C_9 
REMARK    3  A    between atoms: N_6  and  C_13 
REMARK       I    between atoms: N_6  and  C_22 
REMARK    4  A    between atoms: C_9  and  C_12 
REMARK    5  A    between atoms: C_13  and  C_16 
REMARK    6  A    between atoms: C_13  and  C_21 
REMARK    7  A    between atoms: C_19  and  C_24 
REMARK    8  A    between atoms: C_22  and  C_23 
REMARK    9  A    between atoms: C_27  and  C_30 
REMARK   10  A    between atoms: N_33  and  S_34 
ROOT
HETATM    1  C   UNL     1       9.708   5.117  91.624  1.00  0.00     0.056 A 
HETATM    2  C   UNL     1       8.589   5.220  92.425  1.00  0.00     0.005 A 
HETATM    3  C   UNL     1       9.996   6.039  90.640  1.00  0.00     0.005 A 
HETATM    4  C   UNL     1       7.989   7.239  91.243  1.00  0.00     0.042 A 
HETATM    5  C   UNL     1       7.719   6.293  92.233  1.00  0.00     0.008 A 
HETATM    6  C   UNL     1       9.127   7.112  90.447  1.00  0.00     0.008 A 
ENDROOT
BRANCH   1   7
HETATM    7  C   UNL     1      10.635   3.975  91.831  1.00  0.00     0.254 C 
HETATM    8  O   UNL     1      10.177   2.838  91.915  1.00  0.00    -0.268 OA
HETATM    9  N   UNL     1      11.985   4.291  91.891  1.00  0.00    -0.337 N 
HETATM   10  HN  UNL     1      12.292   5.251  91.789  1.00  0.00     0.164 HD
BRANCH   9  11
HETATM   11  C   UNL     1      13.009   3.292  92.063  1.00  0.00     0.172 C 
BRANCH  11  12
HETATM   12  C   UNL     1      13.979   3.225  90.876  1.00  0.00     0.136 C 
HETATM   13  C   UNL     1      14.285   4.601  90.294  1.00  0.00     0.034 C 
BRANCH  12  14
HETATM   14  O   UNL     1      15.201   2.615  91.292  1.00  0.00    -0.383 OA
HETATM   15  H   UNL     1      15.727   2.416  90.499  1.00  0.00     0.210 HD
ENDBRANCH  12  14
ENDBRANCH  11  12
BRANCH  11  16
HETATM   16  C   UNL     1      13.745   3.598  93.364  1.00  0.00     0.398 A 
HETATM   17  O   UNL     1      14.530   4.537  93.484  1.00  0.00    -0.136 OA
HETATM   18  N   UNL     1      15.103   3.283  94.124  1.00  0.00     0.142 N 
HETATM   19  HN  UNL     1      15.833   3.902  94.341  1.00  0.00     0.338 HD
BRANCH  18  20
HETATM   20  S   UNL     1      15.022   1.895  94.124  1.00  0.00     0.076 SA
HETATM   21  H   UNL     1      14.830   1.374  93.073  1.00  0.00     0.136 HD
ENDBRANCH  18  20
ENDBRANCH  11  16
ENDBRANCH   9  11
ENDBRANCH   1   7
BRANCH   4  22
HETATM   22  C   UNL     1       7.095   8.337  91.044  1.00  0.00    -0.059 C 
HETATM   23  C   UNL     1       6.344   9.261  90.877  1.00  0.00    -0.059 C 
BRANCH  23  24
HETATM   24  C   UNL     1       5.450  10.361  90.678  1.00  0.00     0.042 A 
HETATM   25  C   UNL     1       5.854  11.457  89.916  1.00  0.00     0.008 A 
HETATM   26  C   UNL     1       4.984  12.530  89.724  1.00  0.00    -0.002 A 
HETATM   27  C   UNL     1       3.710  12.505  90.292  1.00  0.00     0.011 A 
HETATM   28  C   UNL     1       3.308  11.407  91.054  1.00  0.00    -0.002 A 
HETATM   29  C   UNL     1       4.178  10.335  91.246  1.00  0.00     0.008 A 
BRANCH  27  30
HETATM   30  C   UNL     1       2.780  13.651  90.084  1.00  0.00     0.277 C 
BRANCH  30  31
HETATM   31  N   UNL     1       2.699  14.522  91.255  1.00  0.00     0.147 N 
HETATM   32  C   UNL     1       1.703  14.018  92.211  1.00  0.00     0.283 C 
HETATM   33  C   UNL     1       1.644  14.937  93.429  1.00  0.00     0.178 C 
HETATM   34  O   UNL     1       2.929  15.025  94.048  1.00  0.00    -0.350 OA
HETATM   35  C   UNL     1       3.897  15.543  93.134  1.00  0.00     0.178 C 
HETATM   36  C   UNL     1       4.009  14.641  91.910  1.00  0.00     0.283 C 
ENDBRANCH  30  31
ENDBRANCH  27  30
ENDBRANCH  23  24
ENDBRANCH   4  22
TORSDOF 10
ENDMDL
