MODEL 1
REMARK VINA RESULT:      -6.9      0.000      0.000
REMARK  10 active torsions:
REMARK  status: ('A' for Active; 'I' for Inactive)
REMARK    1  A    between atoms: O_2  and  C_18 
REMARK    2  A    between atoms: O_5  and  N_8 
REMARK    3  A    between atoms: N_6  and  C_11 
REMARK    4  A    between atoms: N_7  and  C_15 
REMARK       I    between atoms: N_7  and  C_24 
REMARK       I    between atoms: N_8  and  C_23 
REMARK    5  A    between atoms: C_11  and  C_14 
REMARK    6  A    between atoms: C_15  and  C_18 
REMARK    7  A    between atoms: C_15  and  C_23 
REMARK    8  A    between atoms: C_21  and  C_26 
REMARK    9  A    between atoms: C_24  and  C_25 
REMARK   10  A    between atoms: C_29  and  C_32 
ROOT
HETATM    1  O   UNK     0      16.256   4.118  94.111  0.00  0.00    -0.388 OA
HETATM    2  N   UNK     0      14.545   2.468  92.546  0.00  0.00     0.096 N 
HETATM    3  C   UNK     0      14.423   3.932  92.531  0.00  0.00     0.299 C 
HETATM    4  C   UNK     0      15.069   2.019  93.843  0.00  0.00     0.299 C 
HETATM    5  C   UNK     0      15.777   4.566  92.842  0.00  0.00     0.198 C 
HETATM    6  C   UNK     0      16.406   2.698  94.124  0.00  0.00     0.198 C 
ENDROOT
BRANCH   2   7
HETATM    7  C   UNK     0      13.256   1.838  92.261  0.00  0.00     0.311 C 
BRANCH   7   8
HETATM    8  C   UNK     0      12.201   2.834  91.920  0.00  0.00    -0.030 A 
HETATM    9  C   UNK     0      11.953   3.156  90.585  0.00  0.00     0.010 A 
HETATM   10  C   UNK     0      10.968   4.090  90.264  0.00  0.00     0.021 A 
HETATM   11  C   UNK     0      10.229   4.699  91.278  0.00  0.00     0.018 A 
HETATM   12  C   UNK     0      10.476   4.378  92.611  0.00  0.00     0.021 A 
HETATM   13  C   UNK     0      11.462   3.445  92.933  0.00  0.00     0.010 A 
BRANCH  11  14
HETATM   14  C   UNK     0       9.217   5.655  90.949  0.00  0.00    -0.061 C 
HETATM   15  C   UNK     0       8.366   6.458  90.672  0.00  0.00    -0.061 C 
BRANCH  15  16
HETATM   16  C   UNK     0       7.356   7.413  90.343  0.00  0.00     0.018 A 
HETATM   17  C   UNK     0       6.031   7.002  90.191  0.00  0.00     0.022 A 
HETATM   18  C   UNK     0       5.044   7.935  89.872  0.00  0.00     0.018 A 
HETATM   19  C   UNK     0       5.403   9.257  89.713  0.00  0.00     0.032 A 
HETATM   20  C   UNK     0       6.705   9.689  89.856  0.00  0.00     0.018 A 
HETATM   21  C   UNK     0       7.692   8.756  90.175  0.00  0.00     0.022 A 
BRANCH  19  22
HETATM   22  C   UNK     0       4.352  10.250  89.371  0.00  0.00     0.252 C 
HETATM   23  O   UNK     0       3.509   9.964  88.523  0.00  0.00    -0.268 OA
HETATM   24  N   UNK     0       4.393  11.445  90.074  0.00  0.00    -0.341 N 
HETATM   25  H   UNK     0       5.104  11.602  90.779  0.00  0.00     0.163 HD
BRANCH  24  26
HETATM   26  C   UNK     0       3.428  12.497  89.874  0.00  0.00     0.207 C 
BRANCH  26  27
HETATM   27  C   UNK     0       3.038  13.202  91.179  0.00  0.00     0.146 C 
HETATM   28  C   UNK     0       2.286  12.283  92.136  0.00  0.00     0.042 C 
BRANCH  27  29
HETATM   29  O   UNK     0       4.213  13.686  91.829  0.00  0.00    -0.393 OA
HETATM   30  H   UNK     0       4.767  14.131  91.166  0.00  0.00     0.210 HD
ENDBRANCH  27  29
ENDBRANCH  26  27
BRANCH  26  31
HETATM   31  C   UNK     0       4.014  13.481  88.866  0.00  0.00     0.266 C 
HETATM   32  O   UNK     0       4.131  14.683  89.095  0.00  0.00    -0.269 OA
HETATM   33  N   UNK     0       4.352  12.872  87.682  0.00  0.00    -0.236 N 
HETATM   34  H   UNK     0       4.187  11.905  87.428  0.00  0.00     0.197 HD
BRANCH  33  35
HETATM   35  O   UNK     0       4.863  13.716  86.686  0.00  0.00    -0.287 OA
HETATM   36  H   UNK     0       5.707  13.270  86.496  0.00  0.00     0.244 HD
ENDBRANCH  33  35
ENDBRANCH  26  31
ENDBRANCH  24  26
ENDBRANCH  19  22
ENDBRANCH  15  16
ENDBRANCH  11  14
ENDBRANCH   7   8
ENDBRANCH   2   7
TORSDOF 10
ENDMDL
