MODEL 1
REMARK VINA RESULT:      -7.5      0.000      0.000
REMARK  9 active torsions:
REMARK  status: ('A' for Active; 'I' for Inactive)
REMARK    1  A    between atoms: N_3  and  C_6 
REMARK    2  A    between atoms: C_6  and  C_9 
REMARK    3  A    between atoms: C_14  and  C_17 
REMARK       I    between atoms: N_26  and  C_15 
REMARK    4  A    between atoms: C_15  and  C_16 
REMARK    5  A    between atoms: C_20  and  C_23 
REMARK    6  A    between atoms: OG1_24  and  CB_28 
REMARK    7  A    between atoms: N_26  and  CA_27 
REMARK    8  A    between atoms: CA_27  and  CB_28 
REMARK    9  A    between atoms: CA_27  and  C_30 
ROOT
HETATM    1  O   UNK A   0       1.933   8.196  87.825  1.00  0.00    -0.388 OA
HETATM    2  N   UNK A   0       4.710   7.596  87.646  1.00  0.00     0.096 N 
HETATM    3  C   UNK A   0       4.229   8.980  87.761  1.00  0.00     0.299 C 
HETATM    4  C   UNK A   0       3.699   6.766  86.976  1.00  0.00     0.299 C 
HETATM    5  C   UNK A   0       2.895   9.004  88.505  1.00  0.00     0.198 C 
HETATM    6  C   UNK A   0       2.379   6.842  87.736  1.00  0.00     0.198 C 
ENDROOT
BRANCH   2   7
HETATM    7  C   UNK A   0       5.982   7.549  86.928  1.00  0.00     0.311 C 
BRANCH   7   8
HETATM    8  C   UNK A   0       7.075   6.951  87.747  1.00  0.00    -0.030 A 
HETATM    9  C   UNK A   0       8.323   6.710  87.172  1.00  0.00     0.010 A 
HETATM   10  C   UNK A   0       9.346   6.149  87.936  1.00  0.00     0.021 A 
HETATM   11  C   UNK A   0       9.120   5.832  89.276  1.00  0.00     0.018 A 
HETATM   12  C   UNK A   0       7.874   6.073  89.851  1.00  0.00     0.021 A 
HETATM   13  C   UNK A   0       6.851   6.633  89.086  1.00  0.00     0.010 A 
BRANCH  11  14
HETATM   14  C   UNK A   0      10.170   5.258  90.060  1.00  0.00    -0.061 C 
HETATM   15  C   UNK A   0      11.052   4.776  90.720  1.00  0.00    -0.061 C 
BRANCH  15  16
HETATM   16  C   UNK A   0      12.101   4.202  91.504  1.00  0.00     0.018 A 
HETATM   17  C   UNK A   0      13.367   4.019  90.947  1.00  0.00     0.022 A 
HETATM   18  C   UNK A   0      14.390   3.462  91.713  1.00  0.00     0.018 A 
HETATM   19  C   UNK A   0      14.126   3.101  93.018  1.00  0.00     0.032 A 
HETATM   20  C   UNK A   0      12.884   3.271  93.591  1.00  0.00     0.018 A 
HETATM   21  C   UNK A   0      11.859   3.828  92.826  1.00  0.00     0.022 A 
BRANCH  19  22
HETATM   22  C   UNK A   0      15.217   2.505  93.832  1.00  0.00     0.252 C 
HETATM   23  O   UNK A   0      16.385   2.753  93.544  1.00  0.00    -0.268 OA
ENDBRANCH  19  22
ENDBRANCH  15  16
ENDBRANCH  11  14
ENDBRANCH   7   8
ENDBRANCH   2   7
TORSDOF 9
ENDMDL
