MODEL 1
REMARK VINA RESULT:      -7.0      0.000      0.000
REMARK  10 active torsions:
REMARK  status: ('A' for Active; 'I' for Inactive)
REMARK    1  A    between atoms: O_2  and  C_18 
REMARK    2  A    between atoms: O_5  and  N_8 
REMARK    3  A    between atoms: N_6  and  C_11 
REMARK    4  A    between atoms: N_7  and  C_15 
REMARK       I    between atoms: N_7  and  C_24 
REMARK       I    between atoms: N_8  and  C_23 
REMARK    5  A    between atoms: C_11  and  C_14 
REMARK    6  A    between atoms: C_15  and  C_18 
REMARK    7  A    between atoms: C_15  and  C_23 
REMARK    8  A    between atoms: C_21  and  C_26 
REMARK    9  A    between atoms: C_24  and  C_25 
REMARK   10  A    between atoms: C_29  and  C_32 
ROOT
HETATM    1  O   UNK     0      17.075   4.248  93.781  0.00  0.00    -0.388 OA
HETATM    2  N   UNK     0      14.643   2.787  93.550  0.00  0.00     0.096 N 
HETATM    3  C   UNK     0      15.946   2.156  93.295  0.00  0.00     0.299 C 
HETATM    4  C   UNK     0      14.710   4.221  93.240  0.00  0.00     0.299 C 
HETATM    5  C   UNK     0      17.029   2.858  94.110  0.00  0.00     0.198 C 
HETATM    6  C   UNK     0      15.822   4.876  94.055  0.00  0.00     0.198 C 
ENDROOT
BRANCH   2   7
HETATM    7  C   UNK     0      13.591   2.136  92.771  0.00  0.00     0.311 C 
BRANCH   7   8
HETATM    8  C   UNK     0      12.509   3.082  92.375  0.00  0.00    -0.030 A 
HETATM    9  C   UNK     0      12.226   3.291  91.025  0.00  0.00     0.010 A 
HETATM   10  C   UNK     0      11.215   4.178  90.654  0.00  0.00     0.021 A 
HETATM   11  C   UNK     0      10.488   4.853  91.633  0.00  0.00     0.018 A 
HETATM   12  C   UNK     0      10.770   4.646  92.981  0.00  0.00     0.021 A 
HETATM   13  C   UNK     0      11.781   3.760  93.353  0.00  0.00     0.010 A 
BRANCH  11  14
HETATM   14  C   UNK     0       9.450   5.761  91.252  0.00  0.00    -0.061 C 
HETATM   15  C   UNK     0       8.577   6.524  90.931  0.00  0.00    -0.061 C 
BRANCH  15  16
HETATM   16  C   UNK     0       7.542   7.432  90.550  0.00  0.00     0.018 A 
HETATM   17  C   UNK     0       7.225   8.513  91.374  0.00  0.00     0.022 A 
HETATM   18  C   UNK     0       6.215   9.400  91.001  0.00  0.00     0.018 A 
HETATM   19  C   UNK     0       5.546   9.188  89.814  0.00  0.00     0.032 A 
HETATM   20  C   UNK     0       5.839   8.128  88.983  0.00  0.00     0.018 A 
HETATM   21  C   UNK     0       6.848   7.240  89.355  0.00  0.00     0.022 A 
BRANCH  19  22
HETATM   22  C   UNK     0       4.469  10.133  89.419  0.00  0.00     0.252 C 
HETATM   23  O   UNK     0       3.699   9.820  88.514  0.00  0.00    -0.268 OA
HETATM   24  N   UNK     0       4.403  11.316  90.141  0.00  0.00    -0.341 N 
HETATM   25  H   UNK     0       5.058  11.495  90.893  0.00  0.00     0.163 HD
BRANCH  24  26
HETATM   26  C   UNK     0       3.401  12.321  89.893  0.00  0.00     0.207 C 
BRANCH  26  27
HETATM   27  C   UNK     0       2.934  13.023  91.174  0.00  0.00     0.146 C 
HETATM   28  C   UNK     0       2.134  12.100  92.087  0.00  0.00     0.042 C 
BRANCH  27  29
HETATM   29  O   UNK     0       4.067  13.514  91.889  0.00  0.00    -0.393 OA
HETATM   30  H   UNK     0       4.670  13.934  91.253  0.00  0.00     0.210 HD
ENDBRANCH  27  29
ENDBRANCH  26  27
BRANCH  26  31
HETATM   31  C   UNK     0       3.978  13.318  88.893  0.00  0.00     0.266 C 
HETATM   32  O   UNK     0       4.089  14.519  89.133  0.00  0.00    -0.269 OA
HETATM   33  N   UNK     0       4.314  12.723  87.701  0.00  0.00    -0.236 N 
HETATM   34  H   UNK     0       4.153  11.757  87.439  0.00  0.00     0.197 HD
BRANCH  33  35
HETATM   35  O   UNK     0       4.817  13.579  86.712  0.00  0.00    -0.287 OA
HETATM   36  H   UNK     0       5.405  12.969  86.235  0.00  0.00     0.244 HD
ENDBRANCH  33  35
ENDBRANCH  26  31
ENDBRANCH  24  26
ENDBRANCH  19  22
ENDBRANCH  15  16
ENDBRANCH  11  14
ENDBRANCH   7   8
ENDBRANCH   2   7
TORSDOF 10
ENDMDL
