MODEL 1
REMARK VINA RESULT:      -7.5      0.000      0.000
REMARK  9 active torsions:
REMARK  status: ('A' for Active; 'I' for Inactive)
REMARK    1  A    between atoms: N_3  and  C_6 
REMARK    2  A    between atoms: C_6  and  C_9 
REMARK    3  A    between atoms: C_14  and  C_17 
REMARK       I    between atoms: N_26  and  C_15 
REMARK    4  A    between atoms: C_15  and  C_16 
REMARK    5  A    between atoms: C_20  and  C_23 
REMARK    6  A    between atoms: OG1_24  and  CB_28 
REMARK    7  A    between atoms: N_26  and  CA_27 
REMARK    8  A    between atoms: CA_27  and  CB_28 
REMARK    9  A    between atoms: CA_27  and  C_30 
ROOT
HETATM    1  O   UNK A   0       1.924   8.065  87.824  1.00  0.00    -0.388 OA
HETATM    2  N   UNK A   0       4.721   7.558  87.683  1.00  0.00     0.096 N 
HETATM    3  C   UNK A   0       4.193   8.924  87.800  1.00  0.00     0.299 C 
HETATM    4  C   UNK A   0       3.748   6.700  86.992  1.00  0.00     0.299 C 
HETATM    5  C   UNK A   0       2.849   8.899  88.523  1.00  0.00     0.198 C 
HETATM    6  C   UNK A   0       2.415   6.727  87.733  1.00  0.00     0.198 C 
ENDROOT
BRANCH   2   7
HETATM    7  C   UNK A   0       6.004   7.557  86.984  1.00  0.00     0.311 C 
BRANCH   7   8
HETATM    8  C   UNK A   0       7.094   6.946  87.797  1.00  0.00    -0.030 A 
HETATM    9  C   UNK A   0       6.900   6.714  89.159  1.00  0.00     0.010 A 
HETATM   10  C   UNK A   0       7.920   6.145  89.922  1.00  0.00     0.021 A 
HETATM   11  C   UNK A   0       9.132   5.806  89.322  1.00  0.00     0.018 A 
HETATM   12  C   UNK A   0       9.327   6.037  87.961  1.00  0.00     0.021 A 
HETATM   13  C   UNK A   0       8.308   6.607  87.198  1.00  0.00     0.010 A 
BRANCH  11  14
HETATM   14  C   UNK A   0      10.177   5.220  90.104  1.00  0.00    -0.061 C 
HETATM   15  C   UNK A   0      11.056   4.729  90.761  1.00  0.00    -0.061 C 
BRANCH  15  16
HETATM   16  C   UNK A   0      12.100   4.144  91.543  1.00  0.00     0.018 A 
HETATM   17  C   UNK A   0      11.854   3.769  92.864  1.00  0.00     0.022 A 
HETATM   18  C   UNK A   0      12.872   3.196  93.626  1.00  0.00     0.018 A 
HETATM   19  C   UNK A   0      14.111   3.010  93.051  1.00  0.00     0.032 A 
HETATM   20  C   UNK A   0      14.380   3.372  91.747  1.00  0.00     0.018 A 
HETATM   21  C   UNK A   0      13.362   3.945  90.984  1.00  0.00     0.022 A 
BRANCH  19  22
HETATM   22  C   UNK A   0      15.196   2.401  93.864  1.00  0.00     0.252 C 
HETATM   23  O   UNK A   0      16.360   2.737  93.658  1.00  0.00    -0.268 OA
ENDBRANCH  19  22
ENDBRANCH  15  16
ENDBRANCH  11  14
ENDBRANCH   7   8
ENDBRANCH   2   7
TORSDOF 9
ENDMDL
MODEL 2
REMARK VINA RESULT:      -7.5      0.451      1.101
REMARK  9 active torsions:
REMARK  status: ('A' for Active; 'I' for Inactive)
REMARK    1  A    between atoms: N_3  and  C_6 
REMARK    2  A    between atoms: C_6  and  C_9 
REMARK    3  A    between atoms: C_14  and  C_17 
REMARK       I    between atoms: N_26  and  C_15 
REMARK    4  A    between atoms: C_15  and  C_16 
REMARK    5  A    between atoms: C_20  and  C_23 
REMARK    6  A    between atoms: OG1_24  and  CB_28 
REMARK    7  A    between atoms: N_26  and  CA_27 
REMARK    8  A    between atoms: CA_27  and  CB_28 
REMARK    9  A    between atoms: CA_27  and  C_30 
ROOT
HETATM    1  O   UNK A   0       1.843   8.813  88.281  1.00  0.00    -0.388 OA
HETATM    2  N   UNK A   0       4.485   7.840  87.864  1.00  0.00     0.096 N 
HETATM    3  C   UNK A   0       4.199   9.280  87.936  1.00  0.00     0.299 C 
HETATM    4  C   UNK A   0       3.310   7.119  87.354  1.00  0.00     0.299 C 
HETATM    5  C   UNK A   0       2.968   9.520  88.806  1.00  0.00     0.198 C 
HETATM    6  C   UNK A   0       2.101   7.410  88.237  1.00  0.00     0.198 C 
ENDROOT
BRANCH   2   7
HETATM    7  C   UNK A   0       5.655   7.585  87.026  1.00  0.00     0.311 C 
BRANCH   7   8
HETATM    8  C   UNK A   0       6.786   6.992  87.795  1.00  0.00    -0.030 A 
HETATM    9  C   UNK A   0       8.024   6.804  87.179  1.00  0.00     0.010 A 
HETATM   10  C   UNK A   0       9.082   6.247  87.897  1.00  0.00     0.021 A 
HETATM   11  C   UNK A   0       8.902   5.879  89.230  1.00  0.00     0.018 A 
HETATM   12  C   UNK A   0       7.667   6.066  89.846  1.00  0.00     0.021 A 
HETATM   13  C   UNK A   0       6.608   6.623  89.128  1.00  0.00     0.010 A 
BRANCH  11  14
HETATM   14  C   UNK A   0       9.989   5.310  89.967  1.00  0.00    -0.061 C 
HETATM   15  C   UNK A   0      10.902   4.831  90.586  1.00  0.00    -0.061 C 
BRANCH  15  16
HETATM   16  C   UNK A   0      11.987   4.262  91.323  1.00  0.00     0.018 A 
HETATM   17  C   UNK A   0      11.793   3.854  92.643  1.00  0.00     0.022 A 
HETATM   18  C   UNK A   0      12.851   3.296  93.361  1.00  0.00     0.018 A 
HETATM   19  C   UNK A   0      14.077   3.159  92.743  1.00  0.00     0.032 A 
HETATM   20  C   UNK A   0      14.293   3.555  91.440  1.00  0.00     0.018 A 
HETATM   21  C   UNK A   0      13.236   4.113  90.721  1.00  0.00     0.022 A 
BRANCH  19  22
HETATM   22  C   UNK A   0      15.204   2.567  93.509  1.00  0.00     0.252 C 
HETATM   23  O   UNK A   0      16.231   3.222  93.669  1.00  0.00    -0.268 OA
ENDBRANCH  19  22
ENDBRANCH  15  16
ENDBRANCH  11  14
ENDBRANCH   7   8
ENDBRANCH   2   7
TORSDOF 9
ENDMDL
MODEL 3
REMARK VINA RESULT:      -6.9      1.584      2.348
REMARK  9 active torsions:
REMARK  status: ('A' for Active; 'I' for Inactive)
REMARK    1  A    between atoms: N_3  and  C_6 
REMARK    2  A    between atoms: C_6  and  C_9 
REMARK    3  A    between atoms: C_14  and  C_17 
REMARK       I    between atoms: N_26  and  C_15 
REMARK    4  A    between atoms: C_15  and  C_16 
REMARK    5  A    between atoms: C_20  and  C_23 
REMARK    6  A    between atoms: OG1_24  and  CB_28 
REMARK    7  A    between atoms: N_26  and  CA_27 
REMARK    8  A    between atoms: CA_27  and  CB_28 
REMARK    9  A    between atoms: CA_27  and  C_30 
ROOT
HETATM    1  O   UNK A   0       2.722  11.252  89.764  1.00  0.00    -0.388 OA
HETATM    2  N   UNK A   0       4.569   9.293  88.841  1.00  0.00     0.096 N 
HETATM    3  C   UNK A   0       3.845  10.166  87.907  1.00  0.00     0.299 C 
HETATM    4  C   UNK A   0       3.770   9.084  90.057  1.00  0.00     0.299 C 
HETATM    5  C   UNK A   0       3.505  11.487  88.592  1.00  0.00     0.198 C 
HETATM    6  C   UNK A   0       3.431  10.429  90.691  1.00  0.00     0.198 C 
ENDROOT
BRANCH   2   7
HETATM    7  C   UNK A   0       4.896   8.016  88.209  1.00  0.00     0.311 C 
BRANCH   7   8
HETATM    8  C   UNK A   0       6.109   7.383  88.801  1.00  0.00    -0.030 A 
HETATM    9  C   UNK A   0       7.364   7.960  88.603  1.00  0.00     0.010 A 
HETATM   10  C   UNK A   0       8.499   7.367  89.155  1.00  0.00     0.021 A 
HETATM   11  C   UNK A   0       8.379   6.199  89.907  1.00  0.00     0.018 A 
HETATM   12  C   UNK A   0       7.126   5.622  90.106  1.00  0.00     0.021 A 
HETATM   13  C   UNK A   0       5.991   6.214  89.553  1.00  0.00     0.010 A 
BRANCH  11  14
HETATM   14  C   UNK A   0       9.543   5.592  90.475  1.00  0.00    -0.061 C 
HETATM   15  C   UNK A   0      10.522   5.082  90.952  1.00  0.00    -0.061 C 
BRANCH  15  16
HETATM   16  C   UNK A   0      11.685   4.475  91.519  1.00  0.00     0.018 A 
HETATM   17  C   UNK A   0      12.815   4.263  90.729  1.00  0.00     0.022 A 
HETATM   18  C   UNK A   0      13.952   3.673  91.283  1.00  0.00     0.018 A 
HETATM   19  C   UNK A   0      13.933   3.311  92.613  1.00  0.00     0.032 A 
HETATM   20  C   UNK A   0      12.829   3.510  93.415  1.00  0.00     0.018 A 
HETATM   21  C   UNK A   0      11.692   4.099  92.862  1.00  0.00     0.022 A 
BRANCH  19  22
HETATM   22  C   UNK A   0      15.143   2.681  93.202  1.00  0.00     0.252 C 
HETATM   23  O   UNK A   0      15.013   1.869  94.115  1.00  0.00    -0.268 OA
ENDBRANCH  19  22
ENDBRANCH  15  16
ENDBRANCH  11  14
ENDBRANCH   7   8
ENDBRANCH   2   7
TORSDOF 9
ENDMDL
MODEL 4
REMARK VINA RESULT:      -6.9      1.607      2.030
REMARK  9 active torsions:
REMARK  status: ('A' for Active; 'I' for Inactive)
REMARK    1  A    between atoms: N_3  and  C_6 
REMARK    2  A    between atoms: C_6  and  C_9 
REMARK    3  A    between atoms: C_14  and  C_17 
REMARK       I    between atoms: N_26  and  C_15 
REMARK    4  A    between atoms: C_15  and  C_16 
REMARK    5  A    between atoms: C_20  and  C_23 
REMARK    6  A    between atoms: OG1_24  and  CB_28 
REMARK    7  A    between atoms: N_26  and  CA_27 
REMARK    8  A    between atoms: CA_27  and  CB_28 
REMARK    9  A    between atoms: CA_27  and  C_30 
ROOT
HETATM    1  O   UNK A   0       2.855  11.368  89.898  1.00  0.00    -0.388 OA
HETATM    2  N   UNK A   0       4.623   9.386  88.874  1.00  0.00     0.096 N 
HETATM    3  C   UNK A   0       3.797  10.213  87.983  1.00  0.00     0.299 C 
HETATM    4  C   UNK A   0       3.953   9.223  90.172  1.00  0.00     0.299 C 
HETATM    5  C   UNK A   0       3.512  11.560  88.643  1.00  0.00     0.198 C 
HETATM    6  C   UNK A   0       3.664  10.591  90.781  1.00  0.00     0.198 C 
ENDROOT
BRANCH   2   7
HETATM    7  C   UNK A   0       4.899   8.086  88.265  1.00  0.00     0.311 C 
BRANCH   7   8
HETATM    8  C   UNK A   0       6.108   7.434  88.844  1.00  0.00    -0.030 A 
HETATM    9  C   UNK A   0       5.989   6.211  89.507  1.00  0.00     0.010 A 
HETATM   10  C   UNK A   0       7.119   5.601  90.051  1.00  0.00     0.021 A 
HETATM   11  C   UNK A   0       8.367   6.212  89.930  1.00  0.00     0.018 A 
HETATM   12  C   UNK A   0       8.487   7.432  89.268  1.00  0.00     0.021 A 
HETATM   13  C   UNK A   0       7.357   8.043  88.724  1.00  0.00     0.010 A 
BRANCH  11  14
HETATM   14  C   UNK A   0       9.526   5.584  90.486  1.00  0.00    -0.061 C 
HETATM   15  C   UNK A   0      10.500   5.056  90.953  1.00  0.00    -0.061 C 
BRANCH  15  16
HETATM   16  C   UNK A   0      11.659   4.429  91.508  1.00  0.00     0.018 A 
HETATM   17  C   UNK A   0      11.636   3.961  92.822  1.00  0.00     0.022 A 
HETATM   18  C   UNK A   0      12.765   3.347  93.362  1.00  0.00     0.018 A 
HETATM   19  C   UNK A   0      13.892   3.215  92.578  1.00  0.00     0.032 A 
HETATM   20  C   UNK A   0      13.941   3.670  91.277  1.00  0.00     0.018 A 
HETATM   21  C   UNK A   0      12.811   4.284  90.736  1.00  0.00     0.022 A 
BRANCH  19  22
HETATM   22  C   UNK A   0      15.096   2.562  93.155  1.00  0.00     0.252 C 
HETATM   23  O   UNK A   0      16.023   3.262  93.556  1.00  0.00    -0.268 OA
ENDBRANCH  19  22
ENDBRANCH  15  16
ENDBRANCH  11  14
ENDBRANCH   7   8
ENDBRANCH   2   7
TORSDOF 9
ENDMDL
MODEL 5
REMARK VINA RESULT:      -6.8      1.187      1.756
REMARK  9 active torsions:
REMARK  status: ('A' for Active; 'I' for Inactive)
REMARK    1  A    between atoms: N_3  and  C_6 
REMARK    2  A    between atoms: C_6  and  C_9 
REMARK    3  A    between atoms: C_14  and  C_17 
REMARK       I    between atoms: N_26  and  C_15 
REMARK    4  A    between atoms: C_15  and  C_16 
REMARK    5  A    between atoms: C_20  and  C_23 
REMARK    6  A    between atoms: OG1_24  and  CB_28 
REMARK    7  A    between atoms: N_26  and  CA_27 
REMARK    8  A    between atoms: CA_27  and  CB_28 
REMARK    9  A    between atoms: CA_27  and  C_30 
ROOT
HETATM    1  O   UNK A   0       3.985  10.789  88.982  1.00  0.00    -0.388 OA
HETATM    2  N   UNK A   0       5.025   8.169  88.585  1.00  0.00     0.096 N 
HETATM    3  C   UNK A   0       5.903   9.304  88.902  1.00  0.00     0.299 C 
HETATM    4  C   UNK A   0       3.833   8.641  87.866  1.00  0.00     0.299 C 
HETATM    5  C   UNK A   0       5.131  10.344  89.710  1.00  0.00     0.198 C 
HETATM    6  C   UNK A   0       3.111   9.696  88.697  1.00  0.00     0.198 C 
ENDROOT
BRANCH   2   7
HETATM    7  C   UNK A   0       5.741   7.164  87.801  1.00  0.00     0.311 C 
BRANCH   7   8
HETATM    8  C   UNK A   0       6.913   6.603  88.532  1.00  0.00    -0.030 A 
HETATM    9  C   UNK A   0       8.183   6.654  87.956  1.00  0.00     0.010 A 
HETATM   10  C   UNK A   0       9.279   6.127  88.638  1.00  0.00     0.021 A 
HETATM   11  C   UNK A   0       9.106   5.552  89.896  1.00  0.00     0.018 A 
HETATM   12  C   UNK A   0       7.838   5.501  90.473  1.00  0.00     0.021 A 
HETATM   13  C   UNK A   0       6.741   6.027  89.791  1.00  0.00     0.010 A 
BRANCH  11  14
HETATM   14  C   UNK A   0      10.231   5.014  90.597  1.00  0.00    -0.061 C 
HETATM   15  C   UNK A   0      11.177   4.561  91.185  1.00  0.00    -0.061 C 
BRANCH  15  16
HETATM   16  C   UNK A   0      12.303   4.023  91.884  1.00  0.00     0.018 A 
HETATM   17  C   UNK A   0      12.166   3.610  93.210  1.00  0.00     0.022 A 
HETATM   18  C   UNK A   0      13.264   3.083  93.890  1.00  0.00     0.018 A 
HETATM   19  C   UNK A   0      14.471   2.980  93.231  1.00  0.00     0.032 A 
HETATM   20  C   UNK A   0      14.631   3.381  91.922  1.00  0.00     0.018 A 
HETATM   21  C   UNK A   0      13.534   3.909  91.240  1.00  0.00     0.022 A 
BRANCH  19  22
HETATM   22  C   UNK A   0      15.640   2.420  93.958  1.00  0.00     0.252 C 
HETATM   23  O   UNK A   0      16.727   2.984  93.870  1.00  0.00    -0.268 OA
ENDBRANCH  19  22
ENDBRANCH  15  16
ENDBRANCH  11  14
ENDBRANCH   7   8
ENDBRANCH   2   7
TORSDOF 9
ENDMDL
MODEL 6
REMARK VINA RESULT:      -6.6      3.920     10.422
REMARK  9 active torsions:
REMARK  status: ('A' for Active; 'I' for Inactive)
REMARK    1  A    between atoms: N_3  and  C_6 
REMARK    2  A    between atoms: C_6  and  C_9 
REMARK    3  A    between atoms: C_14  and  C_17 
REMARK       I    between atoms: N_26  and  C_15 
REMARK    4  A    between atoms: C_15  and  C_16 
REMARK    5  A    between atoms: C_20  and  C_23 
REMARK    6  A    between atoms: OG1_24  and  CB_28 
REMARK    7  A    between atoms: N_26  and  CA_27 
REMARK    8  A    between atoms: CA_27  and  CB_28 
REMARK    9  A    between atoms: CA_27  and  C_30 
ROOT
HETATM    1  O   UNK A   0      14.637   3.385  92.188  1.00  0.00    -0.388 OA
HETATM    2  N   UNK A   0      11.904   4.176  92.272  1.00  0.00     0.096 N 
HETATM    3  C   UNK A   0      12.492   3.333  93.322  1.00  0.00     0.299 C 
HETATM    4  C   UNK A   0      12.601   3.953  90.998  1.00  0.00     0.299 C 
HETATM    5  C   UNK A   0      13.987   3.619  93.438  1.00  0.00     0.198 C 
HETATM    6  C   UNK A   0      14.092   4.224  91.169  1.00  0.00     0.198 C 
ENDROOT
BRANCH   2   7
HETATM    7  C   UNK A   0      10.473   3.911  92.136  1.00  0.00     0.311 C 
BRANCH   7   8
HETATM    8  C   UNK A   0       9.688   5.150  91.869  1.00  0.00    -0.030 A 
HETATM    9  C   UNK A   0       9.879   6.280  92.666  1.00  0.00     0.010 A 
HETATM   10  C   UNK A   0       9.144   7.439  92.419  1.00  0.00     0.021 A 
HETATM   11  C   UNK A   0       8.220   7.469  91.375  1.00  0.00     0.018 A 
HETATM   12  C   UNK A   0       8.029   6.341  90.579  1.00  0.00     0.021 A 
HETATM   13  C   UNK A   0       8.763   5.182  90.826  1.00  0.00     0.010 A 
BRANCH  11  14
HETATM   14  C   UNK A   0       7.468   8.659  91.120  1.00  0.00    -0.061 C 
HETATM   15  C   UNK A   0       6.836   9.659  90.907  1.00  0.00    -0.061 C 
BRANCH  15  16
HETATM   16  C   UNK A   0       6.085  10.849  90.652  1.00  0.00     0.018 A 
HETATM   17  C   UNK A   0       5.248  11.369  91.639  1.00  0.00     0.022 A 
HETATM   18  C   UNK A   0       4.517  12.531  91.391  1.00  0.00     0.018 A 
HETATM   19  C   UNK A   0       4.641  13.147  90.164  1.00  0.00     0.032 A 
HETATM   20  C   UNK A   0       5.461  12.653  89.171  1.00  0.00     0.018 A 
HETATM   21  C   UNK A   0       6.192  11.491  89.418  1.00  0.00     0.022 A 
BRANCH  19  22
HETATM   22  C   UNK A   0       3.860  14.383  89.899  1.00  0.00     0.252 C 
HETATM   23  O   UNK A   0       4.458  15.438  89.696  1.00  0.00    -0.268 OA
ENDBRANCH  19  22
ENDBRANCH  15  16
ENDBRANCH  11  14
ENDBRANCH   7   8
ENDBRANCH   2   7
TORSDOF 9
ENDMDL
MODEL 7
REMARK VINA RESULT:      -6.3      2.352      2.904
REMARK  9 active torsions:
REMARK  status: ('A' for Active; 'I' for Inactive)
REMARK    1  A    between atoms: N_3  and  C_6 
REMARK    2  A    between atoms: C_6  and  C_9 
REMARK    3  A    between atoms: C_14  and  C_17 
REMARK       I    between atoms: N_26  and  C_15 
REMARK    4  A    between atoms: C_15  and  C_16 
REMARK    5  A    between atoms: C_20  and  C_23 
REMARK    6  A    between atoms: OG1_24  and  CB_28 
REMARK    7  A    between atoms: N_26  and  CA_27 
REMARK    8  A    between atoms: CA_27  and  CB_28 
REMARK    9  A    between atoms: CA_27  and  C_30 
ROOT
HETATM    1  O   UNK A   0       2.321  10.421  87.882  1.00  0.00    -0.388 OA
HETATM    2  N   UNK A   0       4.156   9.656  89.919  1.00  0.00     0.096 N 
HETATM    3  C   UNK A   0       2.914   8.906  89.683  1.00  0.00     0.299 C 
HETATM    4  C   UNK A   0       3.975  11.063  89.536  1.00  0.00     0.299 C 
HETATM    5  C   UNK A   0       2.497   9.044  88.221  1.00  0.00     0.198 C 
HETATM    6  C   UNK A   0       3.533  11.151  88.079  1.00  0.00     0.198 C 
ENDROOT
BRANCH   2   7
HETATM    7  C   UNK A   0       4.568   9.546  91.317  1.00  0.00     0.311 C 
BRANCH   7   8
HETATM    8  C   UNK A   0       5.776   8.690  91.487  1.00  0.00    -0.030 A 
HETATM    9  C   UNK A   0       5.692   7.503  92.217  1.00  0.00     0.010 A 
HETATM   10  C   UNK A   0       6.822   6.702  92.379  1.00  0.00     0.021 A 
HETATM   11  C   UNK A   0       8.035   7.087  91.809  1.00  0.00     0.018 A 
HETATM   12  C   UNK A   0       8.121   8.271  91.080  1.00  0.00     0.021 A 
HETATM   13  C   UNK A   0       6.991   9.073  90.918  1.00  0.00     0.010 A 
BRANCH  11  14
HETATM   14  C   UNK A   0       9.194   6.263  91.973  1.00  0.00    -0.061 C 
HETATM   15  C   UNK A   0      10.167   5.571  92.111  1.00  0.00    -0.061 C 
BRANCH  15  16
HETATM   16  C   UNK A   0      11.325   4.748  92.274  1.00  0.00     0.018 A 
HETATM   17  C   UNK A   0      11.660   4.260  93.537  1.00  0.00     0.022 A 
HETATM   18  C   UNK A   0      12.788   3.455  93.695  1.00  0.00     0.018 A 
HETATM   19  C   UNK A   0      13.555   3.156  92.588  1.00  0.00     0.032 A 
HETATM   20  C   UNK A   0      13.245   3.627  91.330  1.00  0.00     0.018 A 
HETATM   21  C   UNK A   0      12.117   4.432  91.170  1.00  0.00     0.022 A 
BRANCH  19  22
HETATM   22  C   UNK A   0      14.758   2.300  92.758  1.00  0.00     0.252 C 
HETATM   23  O   UNK A   0      15.393   2.360  93.808  1.00  0.00    -0.268 OA
ENDBRANCH  19  22
ENDBRANCH  15  16
ENDBRANCH  11  14
ENDBRANCH   7   8
ENDBRANCH   2   7
TORSDOF 9
ENDMDL
MODEL 8
REMARK VINA RESULT:      -6.3      3.560      4.414
REMARK  9 active torsions:
REMARK  status: ('A' for Active; 'I' for Inactive)
REMARK    1  A    between atoms: N_3  and  C_6 
REMARK    2  A    between atoms: C_6  and  C_9 
REMARK    3  A    between atoms: C_14  and  C_17 
REMARK       I    between atoms: N_26  and  C_15 
REMARK    4  A    between atoms: C_15  and  C_16 
REMARK    5  A    between atoms: C_20  and  C_23 
REMARK    6  A    between atoms: OG1_24  and  CB_28 
REMARK    7  A    between atoms: N_26  and  CA_27 
REMARK    8  A    between atoms: CA_27  and  CB_28 
REMARK    9  A    between atoms: CA_27  and  C_30 
ROOT
HETATM    1  O   UNK A   0       4.183  15.173  90.632  1.00  0.00    -0.388 OA
HETATM    2  N   UNK A   0       5.012  12.605  89.727  1.00  0.00     0.096 N 
HETATM    3  C   UNK A   0       4.885  13.741  88.803  1.00  0.00     0.299 C 
HETATM    4  C   UNK A   0       4.074  12.760  90.847  1.00  0.00     0.299 C 
HETATM    5  C   UNK A   0       5.115  15.049  89.556  1.00  0.00     0.198 C 
HETATM    6  C   UNK A   0       4.322  14.089  91.551  1.00  0.00     0.198 C 
ENDROOT
BRANCH   2   7
HETATM    7  C   UNK A   0       4.785  11.342  89.028  1.00  0.00     0.311 C 
BRANCH   7   8
HETATM    8  C   UNK A   0       5.778  10.296  89.407  1.00  0.00    -0.030 A 
HETATM    9  C   UNK A   0       5.428   8.947  89.344  1.00  0.00     0.010 A 
HETATM   10  C   UNK A   0       6.355   7.969  89.700  1.00  0.00     0.021 A 
HETATM   11  C   UNK A   0       7.633   8.339  90.118  1.00  0.00     0.018 A 
HETATM   12  C   UNK A   0       7.984   9.686  90.181  1.00  0.00     0.021 A 
HETATM   13  C   UNK A   0       7.057  10.665  89.825  1.00  0.00     0.010 A 
BRANCH  11  14
HETATM   14  C   UNK A   0       8.585   7.335  90.481  1.00  0.00    -0.061 C 
HETATM   15  C   UNK A   0       9.386   6.492  90.787  1.00  0.00    -0.061 C 
BRANCH  15  16
HETATM   16  C   UNK A   0      10.337   5.489  91.151  1.00  0.00     0.018 A 
HETATM   17  C   UNK A   0      10.562   5.198  92.497  1.00  0.00     0.022 A 
HETATM   18  C   UNK A   0      11.488   4.217  92.852  1.00  0.00     0.018 A 
HETATM   19  C   UNK A   0      12.167   3.549  91.855  1.00  0.00     0.032 A 
HETATM   20  C   UNK A   0      11.963   3.818  90.518  1.00  0.00     0.018 A 
HETATM   21  C   UNK A   0      11.037   4.799  90.161  1.00  0.00     0.022 A 
BRANCH  19  22
HETATM   22  C   UNK A   0      13.155   2.506  92.234  1.00  0.00     0.252 C 
HETATM   23  O   UNK A   0      13.729   2.588  93.317  1.00  0.00    -0.268 OA
ENDBRANCH  19  22
ENDBRANCH  15  16
ENDBRANCH  11  14
ENDBRANCH   7   8
ENDBRANCH   2   7
TORSDOF 9
ENDMDL
MODEL 9
REMARK VINA RESULT:      -6.2      4.834     10.238
REMARK  9 active torsions:
REMARK  status: ('A' for Active; 'I' for Inactive)
REMARK    1  A    between atoms: N_3  and  C_6 
REMARK    2  A    between atoms: C_6  and  C_9 
REMARK    3  A    between atoms: C_14  and  C_17 
REMARK       I    between atoms: N_26  and  C_15 
REMARK    4  A    between atoms: C_15  and  C_16 
REMARK    5  A    between atoms: C_20  and  C_23 
REMARK    6  A    between atoms: OG1_24  and  CB_28 
REMARK    7  A    between atoms: N_26  and  CA_27 
REMARK    8  A    between atoms: CA_27  and  CB_28 
REMARK    9  A    between atoms: CA_27  and  C_30 
ROOT
HETATM    1  O   UNK A   0      11.017   3.631  88.837  1.00  0.00    -0.388 OA
HETATM    2  N   UNK A   0       9.499   5.781  87.754  1.00  0.00     0.096 N 
HETATM    3  C   UNK A   0      10.188   4.815  86.887  1.00  0.00     0.299 C 
HETATM    4  C   UNK A   0      10.215   5.912  89.031  1.00  0.00     0.299 C 
HETATM    5  C   UNK A   0      10.311   3.473  87.605  1.00  0.00     0.198 C 
HETATM    6  C   UNK A   0      10.337   4.545  89.697  1.00  0.00     0.198 C 
ENDROOT
BRANCH   2   7
HETATM    7  C   UNK A   0       9.380   7.078  87.090  1.00  0.00     0.311 C 
BRANCH   7   8
HETATM    8  C   UNK A   0       8.560   8.045  87.875  1.00  0.00    -0.030 A 
HETATM    9  C   UNK A   0       7.253   7.716  88.236  1.00  0.00     0.010 A 
HETATM   10  C   UNK A   0       6.484   8.621  88.968  1.00  0.00     0.021 A 
HETATM   11  C   UNK A   0       7.023   9.851  89.341  1.00  0.00     0.018 A 
HETATM   12  C   UNK A   0       8.328  10.180  88.981  1.00  0.00     0.021 A 
HETATM   13  C   UNK A   0       9.097   9.277  88.248  1.00  0.00     0.010 A 
BRANCH  11  14
HETATM   14  C   UNK A   0       6.234  10.778  90.094  1.00  0.00    -0.061 C 
HETATM   15  C   UNK A   0       5.572  11.557  90.727  1.00  0.00    -0.061 C 
BRANCH  15  16
HETATM   16  C   UNK A   0       4.785  12.483  91.480  1.00  0.00     0.018 A 
HETATM   17  C   UNK A   0       4.431  13.711  90.920  1.00  0.00     0.022 A 
HETATM   18  C   UNK A   0       3.661  14.614  91.654  1.00  0.00     0.018 A 
HETATM   19  C   UNK A   0       3.262  14.268  92.928  1.00  0.00     0.032 A 
HETATM   20  C   UNK A   0       3.599  13.061  93.503  1.00  0.00     0.018 A 
HETATM   21  C   UNK A   0       4.370  12.158  92.771  1.00  0.00     0.022 A 
BRANCH  19  22
HETATM   22  C   UNK A   0       2.443  15.231  93.710  1.00  0.00     0.252 C 
HETATM   23  O   UNK A   0       1.301  15.487  93.337  1.00  0.00    -0.268 OA
ENDBRANCH  19  22
ENDBRANCH  15  16
ENDBRANCH  11  14
ENDBRANCH   7   8
ENDBRANCH   2   7
TORSDOF 9
ENDMDL
