MODEL 1
REMARK VINA RESULT:      -6.2      0.000      0.000
REMARK  12 active torsions:
REMARK  status: ('A' for Active; 'I' for Inactive)
REMARK    1  A    between atoms: O_2  and  C_16 
REMARK    2  A    between atoms: N_5  and  C_9 
REMARK    3  A    between atoms: N_6  and  C_13 
REMARK       I    between atoms: N_6  and  C_22 
REMARK    4  A    between atoms: C_9  and  C_12 
REMARK    5  A    between atoms: C_13  and  C_16 
REMARK    6  A    between atoms: C_13  and  C_21 
REMARK    7  A    between atoms: C_19  and  C_24 
REMARK    8  A    between atoms: C_21  and  C_33 
REMARK    9  A    between atoms: C_22  and  C_23 
REMARK   10  A    between atoms: C_27  and  C_30 
REMARK   11  A    between atoms: C_33  and  C_34 
REMARK   12  A    between atoms: C_34  and  C_35 
ROOT
HETATM    1  O   UNL     1      16.697   3.494  93.982  1.00  0.00    -0.350 OA
HETATM    2  N   UNL     1      14.217   3.223  92.611  1.00  0.00     0.147 N 
HETATM    3  C   UNL     1      15.084   2.064  92.866  1.00  0.00     0.283 C 
HETATM    4  C   UNL     1      15.028   4.443  92.499  1.00  0.00     0.283 C 
HETATM    5  C   UNL     1      15.914   2.307  94.124  1.00  0.00     0.178 C 
HETATM    6  C   UNL     1      15.860   4.630  93.764  1.00  0.00     0.178 C 
ENDROOT
BRANCH   2   7
HETATM    7  C   UNL     1      13.419   3.017  91.403  1.00  0.00     0.277 C 
BRANCH   7   8
HETATM    8  C   UNL     1      12.210   3.888  91.365  1.00  0.00     0.011 A 
HETATM    9  C   UNL     1      11.702   4.321  90.140  1.00  0.00    -0.002 A 
HETATM   10  C   UNL     1      10.572   5.138  90.104  1.00  0.00     0.008 A 
HETATM   11  C   UNL     1       9.950   5.519  91.292  1.00  0.00     0.042 A 
HETATM   12  C   UNL     1      10.456   5.087  92.516  1.00  0.00     0.008 A 
HETATM   13  C   UNL     1      11.587   4.271  92.553  1.00  0.00    -0.002 A 
BRANCH  11  14
HETATM   14  C   UNL     1       8.789   6.355  91.255  1.00  0.00    -0.059 C 
HETATM   15  C   UNL     1       7.814   7.057  91.223  1.00  0.00    -0.059 C 
BRANCH  15  16
HETATM   16  C   UNL     1       6.654   7.893  91.187  1.00  0.00     0.042 A 
HETATM   17  C   UNL     1       6.492   8.901  92.137  1.00  0.00     0.008 A 
HETATM   18  C   UNL     1       5.362   9.718  92.099  1.00  0.00     0.005 A 
HETATM   19  C   UNL     1       4.420   9.508  91.113  1.00  0.00     0.056 A 
HETATM   20  C   UNL     1       4.557   8.518  90.163  1.00  0.00     0.005 A 
HETATM   21  C   UNL     1       5.687   7.701  90.200  1.00  0.00     0.008 A 
BRANCH  19  22
HETATM   22  C   UNL     1       3.216  10.377  91.075  1.00  0.00     0.254 C 
HETATM   23  O   UNL     1       2.196   9.966  90.526  1.00  0.00    -0.268 OA
HETATM   24  N   UNL     1       3.335  11.610  91.701  1.00  0.00    -0.335 N 
HETATM   25  HN  UNL     1       4.201  11.872  92.156  1.00  0.00     0.164 HD
BRANCH  24  26
HETATM   26  C   UNL     1       2.248  12.553  91.770  1.00  0.00     0.166 C 
BRANCH  26  27
HETATM   27  C   UNL     1       1.637  12.654  93.173  1.00  0.00     0.138 C 
HETATM   28  C   UNL     1       1.261  11.291  93.745  1.00  0.00     0.034 C 
BRANCH  27  29
HETATM   29  O   UNL     1       2.565  13.286  94.054  1.00  0.00    -0.383 OA
HETATM   30  H   UNL     1       2.248  14.187  94.235  1.00  0.00     0.210 HD
ENDBRANCH  27  29
ENDBRANCH  26  27
BRANCH  26  31
HETATM   31  C   UNL     1       2.773  13.905  91.296  1.00  0.00     0.181 C 
HETATM   32  O   UNL     1       2.406  14.973  91.781  1.00  0.00    -0.294 OA
BRANCH  31  33
HETATM   33  C   UNL     1       4.394  13.949  91.280  1.00  0.00     0.138 C 
BRANCH  33  34
HETATM   34  C   UNL     1       4.640  14.504  90.005  1.00  0.00     0.208 C 
HETATM   35  O   UNL     1       5.242  15.552  89.987  1.00  0.00    -0.289 OA
BRANCH  34  36
HETATM   36  C   UNL     1       4.573  13.935  88.762  1.00  0.00     0.194 C 
HETATM   37  O   UNL     1       5.438  13.032  88.134  1.00  0.00    -0.185 OA
ENDBRANCH  34  36
ENDBRANCH  33  34
ENDBRANCH  31  33
ENDBRANCH  26  31
ENDBRANCH  24  26
ENDBRANCH  19  22
ENDBRANCH  15  16
ENDBRANCH  11  14
ENDBRANCH   7   8
ENDBRANCH   2   7
TORSDOF 12
ENDMDL
