MODEL 1
REMARK VINA RESULT:      -6.5      0.000      0.000
REMARK  11 active torsions:
REMARK  status: ('A' for Active; 'I' for Inactive)
REMARK    1  A    between atoms: O_2  and  C_18 
REMARK    2  A    between atoms: O_5  and  P_8 
REMARK    3  A    between atoms: N_6  and  C_11 
REMARK    4  A    between atoms: N_7  and  C_15 
REMARK       I    between atoms: N_7  and  C_24 
REMARK    5  A    between atoms: P_8  and  C_23 
REMARK    6  A    between atoms: C_11  and  C_14 
REMARK    7  A    between atoms: C_15  and  C_18 
REMARK    8  A    between atoms: C_15  and  C_23 
REMARK    9  A    between atoms: C_21  and  C_26 
REMARK   10  A    between atoms: C_24  and  C_25 
REMARK   11  A    between atoms: C_29  and  C_32 
ROOT
HETATM    1  O   UNL     1      16.678   3.579  93.737  1.00  0.00     0.000 OA
HETATM    2  N   UNL     1      14.029   2.908  92.940  1.00  0.00     0.000 N 
HETATM    3  C   UNL     1      15.070   1.881  93.088  1.00  0.00     0.000 C 
HETATM    4  C   UNL     1      14.639   4.194  92.576  1.00  0.00     0.000 C 
HETATM    5  C   UNL     1      16.098   2.332  94.123  1.00  0.00     0.000 C 
HETATM    6  C   UNL     1      15.676   4.590  93.622  1.00  0.00     0.000 C 
ENDROOT
BRANCH   2   7
HETATM    7  C   UNL     1      13.039   2.501  91.945  1.00  0.00     0.000 C 
BRANCH   7   8
HETATM    8  C   UNL     1      12.068   3.589  91.633  1.00  0.00     0.000 A 
HETATM    9  C   UNL     1      11.397   4.242  92.667  1.00  0.00     0.000 A 
HETATM   10  C   UNL     1      10.487   5.258  92.377  1.00  0.00     0.000 A 
HETATM   11  C   UNL     1      10.250   5.622  91.051  1.00  0.00     0.000 A 
HETATM   12  C   UNL     1      10.920   4.971  90.017  1.00  0.00     0.000 A 
HETATM   13  C   UNL     1      11.829   3.954  90.308  1.00  0.00     0.000 A 
BRANCH  11  14
HETATM   14  C   UNL     1       9.318   6.665  90.753  1.00  0.00     0.000 C 
HETATM   15  C   UNL     1       8.534   7.542  90.503  1.00  0.00     0.000 C 
BRANCH  15  16
HETATM   16  C   UNL     1       7.603   8.585  90.206  1.00  0.00     0.000 A 
HETATM   17  C   UNL     1       6.359   8.273  89.657  1.00  0.00     0.000 A 
HETATM   18  C   UNL     1       5.449   9.291  89.370  1.00  0.00     0.000 A 
HETATM   19  C   UNL     1       5.803  10.596  89.639  1.00  0.00     0.000 A 
HETATM   20  C   UNL     1       7.026  10.931  90.181  1.00  0.00     0.000 A 
HETATM   21  C   UNL     1       7.937   9.914  90.468  1.00  0.00     0.000 A 
BRANCH  19  22
HETATM   22  C   UNL     1       4.834  11.680  89.331  1.00  0.00     0.000 C 
HETATM   23  O   UNL     1       4.352  11.751  88.203  1.00  0.00     0.000 OA
HETATM   24  N   UNL     1       4.525  12.535  90.379  1.00  0.00     0.000 N 
HETATM   25  HN  UNL     1       4.944  12.400  91.292  1.00  0.00     0.000 HD
BRANCH  24  26
HETATM   26  C   UNL     1       3.585  13.619  90.245  1.00  0.00     0.000 C 
BRANCH  26  27
HETATM   27  C   UNL     1       2.281  13.372  91.013  1.00  0.00     0.000 C 
HETATM   28  C   UNL     1       2.497  12.563  92.287  1.00  0.00     0.000 C 
BRANCH  27  29
HETATM   29  O   UNL     1       1.684  14.623  91.354  1.00  0.00     0.000 OA
HETATM   30  H   UNL     1       2.277  15.335  91.059  1.00  0.00     0.000 HD
ENDBRANCH  27  29
ENDBRANCH  26  27
BRANCH  26  31
HETATM   31  C   UNL     1       4.275  14.895  90.718  1.00  0.00     0.000 C 
HETATM   32  O   UNL     1       4.269  15.263  91.891  1.00  0.00     0.000 OA
BRANCH  31  33
HETATM   33  P   UNL     1       4.857  15.585  89.683  1.00  0.00     0.000 P 
HETATM   34  H   UNL     1       3.992  16.592  89.306  1.00  0.00     0.000 HD
BRANCH  33  35
HETATM   35  O   UNL     1       5.161  14.830  88.541  1.00  0.00     0.000 OA
HETATM   36  H   UNL     1       4.879  13.947  88.835  1.00  0.00     0.000 HD
ENDBRANCH  33  35
ENDBRANCH  31  33
ENDBRANCH  26  31
ENDBRANCH  24  26
ENDBRANCH  19  22
ENDBRANCH  15  16
ENDBRANCH  11  14
ENDBRANCH   7   8
ENDBRANCH   2   7
TORSDOF 11
ENDMDL
