MODEL 1
REMARK VINA RESULT:      -6.3      0.000      0.000
REMARK  12 active torsions:
REMARK  status: ('A' for Active; 'I' for Inactive)
REMARK    1  A    between atoms: O_2  and  C_16 
REMARK    2  A    between atoms: N_5  and  C_9 
REMARK    3  A    between atoms: N_6  and  C_13 
REMARK       I    between atoms: N_6  and  C_22 
REMARK    4  A    between atoms: C_9  and  C_12 
REMARK    5  A    between atoms: C_13  and  C_16 
REMARK    6  A    between atoms: C_13  and  C_21 
REMARK    7  A    between atoms: C_19  and  C_24 
REMARK    8  A    between atoms: C_21  and  C_33 
REMARK    9  A    between atoms: C_22  and  C_23 
REMARK   10  A    between atoms: C_27  and  C_30 
REMARK   11  A    between atoms: C_33  and  C_34 
REMARK   12  A    between atoms: C_34  and  C_35 
ROOT
HETATM    1  O   UNL     1      16.506   3.247  93.728  1.00  0.00    -0.350 OA
HETATM    2  N   UNL     1      13.876   2.791  92.739  1.00  0.00     0.147 N 
HETATM    3  C   UNL     1      14.792   1.678  93.027  1.00  0.00     0.283 C 
HETATM    4  C   UNL     1      14.641   3.989  92.365  1.00  0.00     0.283 C 
HETATM    5  C   UNL     1      15.772   2.087  94.124  1.00  0.00     0.178 C 
HETATM    6  C   UNL     1      15.624   4.342  93.476  1.00  0.00     0.178 C 
ENDROOT
BRANCH   2   7
HETATM    7  C   UNL     1      12.934   2.426  91.682  1.00  0.00     0.277 C 
BRANCH   7   8
HETATM    8  C   UNL     1      11.771   3.355  91.612  1.00  0.00     0.011 A 
HETATM    9  C   UNL     1      11.176   3.635  90.381  1.00  0.00    -0.002 A 
HETATM   10  C   UNL     1      10.089   4.507  90.314  1.00  0.00     0.008 A 
HETATM   11  C   UNL     1       9.596   5.095  91.478  1.00  0.00     0.042 A 
HETATM   12  C   UNL     1      10.188   4.816  92.707  1.00  0.00     0.008 A 
HETATM   13  C   UNL     1      11.276   3.945  92.775  1.00  0.00    -0.002 A 
BRANCH  11  14
HETATM   14  C   UNL     1       8.479   5.988  91.409  1.00  0.00    -0.059 C 
HETATM   15  C   UNL     1       7.541   6.737  91.350  1.00  0.00    -0.059 C 
BRANCH  15  16
HETATM   16  C   UNL     1       6.426   7.629  91.281  1.00  0.00     0.042 A 
HETATM   17  C   UNL     1       5.237   7.210  90.682  1.00  0.00     0.008 A 
HETATM   18  C   UNL     1       4.147   8.079  90.617  1.00  0.00     0.005 A 
HETATM   19  C   UNL     1       4.270   9.344  91.151  1.00  0.00     0.056 A 
HETATM   20  C   UNL     1       5.435   9.781  91.748  1.00  0.00     0.005 A 
HETATM   21  C   UNL     1       6.525   8.914  91.813  1.00  0.00     0.008 A 
BRANCH  19  22
HETATM   22  C   UNL     1       3.110  10.270  91.080  1.00  0.00     0.254 C 
HETATM   23  O   UNL     1       2.011   9.829  90.751  1.00  0.00    -0.268 OA
HETATM   24  N   UNL     1       3.364  11.590  91.423  1.00  0.00    -0.335 N 
HETATM   25  HN  UNL     1       4.293  11.877  91.709  1.00  0.00     0.164 HD
BRANCH  24  26
HETATM   26  C   UNL     1       2.337  12.602  91.427  1.00  0.00     0.166 C 
BRANCH  26  27
HETATM   27  C   UNL     1       2.100  13.202  92.818  1.00  0.00     0.138 C 
HETATM   28  C   UNL     1       3.371  13.246  93.660  1.00  0.00     0.034 C 
BRANCH  27  29
HETATM   29  O   UNL     1       1.586  14.527  92.685  1.00  0.00    -0.383 OA
HETATM   30  H   UNL     1       2.291  15.152  92.924  1.00  0.00     0.210 HD
ENDBRANCH  27  29
ENDBRANCH  26  27
BRANCH  26  31
HETATM   31  C   UNL     1       2.738  13.675  90.420  1.00  0.00     0.181 C 
HETATM   32  O   UNL     1       2.067  14.685  90.216  1.00  0.00    -0.294 OA
BRANCH  31  33
HETATM   33  C   UNL     1       4.259  14.184  90.656  1.00  0.00     0.138 C 
BRANCH  33  34
HETATM   34  C   UNL     1       4.655  14.483  89.334  1.00  0.00     0.208 C 
HETATM   35  O   UNL     1       5.065  15.605  89.141  1.00  0.00    -0.289 OA
BRANCH  34  36
HETATM   36  C   UNL     1       4.931  13.654  88.281  1.00  0.00     0.194 C 
HETATM   37  O   UNL     1       4.551  12.327  88.052  1.00  0.00    -0.185 OA
ENDBRANCH  34  36
ENDBRANCH  33  34
ENDBRANCH  31  33
ENDBRANCH  26  31
ENDBRANCH  24  26
ENDBRANCH  19  22
ENDBRANCH  15  16
ENDBRANCH  11  14
ENDBRANCH   7   8
ENDBRANCH   2   7
TORSDOF 12
ENDMDL
MODEL 2
REMARK VINA RESULT:      -6.0      1.566      1.885
REMARK  12 active torsions:
REMARK  status: ('A' for Active; 'I' for Inactive)
REMARK    1  A    between atoms: O_2  and  C_16 
REMARK    2  A    between atoms: N_5  and  C_9 
REMARK    3  A    between atoms: N_6  and  C_13 
REMARK       I    between atoms: N_6  and  C_22 
REMARK    4  A    between atoms: C_9  and  C_12 
REMARK    5  A    between atoms: C_13  and  C_16 
REMARK    6  A    between atoms: C_13  and  C_21 
REMARK    7  A    between atoms: C_19  and  C_24 
REMARK    8  A    between atoms: C_21  and  C_33 
REMARK    9  A    between atoms: C_22  and  C_23 
REMARK   10  A    between atoms: C_27  and  C_30 
REMARK   11  A    between atoms: C_33  and  C_34 
REMARK   12  A    between atoms: C_34  and  C_35 
ROOT
HETATM    1  O   UNL     1      16.528   4.293  94.119  1.00  0.00    -0.350 OA
HETATM    2  N   UNL     1      14.640   2.734  92.668  1.00  0.00     0.147 N 
HETATM    3  C   UNL     1      14.576   4.202  92.680  1.00  0.00     0.283 C 
HETATM    4  C   UNL     1      15.242   2.246  93.917  1.00  0.00     0.283 C 
HETATM    5  C   UNL     1      15.973   4.778  92.895  1.00  0.00     0.178 C 
HETATM    6  C   UNL     1      16.622   2.869  94.103  1.00  0.00     0.178 C 
ENDROOT
BRANCH   2   7
HETATM    7  C   UNL     1      13.310   2.159  92.474  1.00  0.00     0.277 C 
BRANCH   7   8
HETATM    8  C   UNL     1      12.233   3.189  92.521  1.00  0.00     0.011 A 
HETATM    9  C   UNL     1      11.455   3.435  91.389  1.00  0.00    -0.002 A 
HETATM   10  C   UNL     1      10.449   4.400  91.432  1.00  0.00     0.008 A 
HETATM   11  C   UNL     1      10.221   5.117  92.606  1.00  0.00     0.042 A 
HETATM   12  C   UNL     1      10.997   4.872  93.736  1.00  0.00     0.008 A 
HETATM   13  C   UNL     1      12.004   3.908  93.694  1.00  0.00    -0.002 A 
BRANCH  11  14
HETATM   14  C   UNL     1       9.187   6.106  92.649  1.00  0.00    -0.059 C 
HETATM   15  C   UNL     1       8.319   6.937  92.686  1.00  0.00    -0.059 C 
BRANCH  15  16
HETATM   16  C   UNL     1       7.287   7.925  92.729  1.00  0.00     0.042 A 
HETATM   17  C   UNL     1       6.032   7.598  93.243  1.00  0.00     0.008 A 
HETATM   18  C   UNL     1       5.025   8.563  93.287  1.00  0.00     0.005 A 
HETATM   19  C   UNL     1       5.296   9.831  92.817  1.00  0.00     0.056 A 
HETATM   20  C   UNL     1       6.528  10.179  92.304  1.00  0.00     0.005 A 
HETATM   21  C   UNL     1       7.535   9.215  92.259  1.00  0.00     0.008 A 
BRANCH  19  22
HETATM   22  C   UNL     1       4.223  10.858  92.863  1.00  0.00     0.254 C 
HETATM   23  O   UNL     1       3.406  10.831  93.780  1.00  0.00    -0.268 OA
HETATM   24  N   UNL     1       4.245  11.806  91.850  1.00  0.00    -0.335 N 
HETATM   25  HN  UNL     1       4.967  11.780  91.139  1.00  0.00     0.164 HD
BRANCH  24  26
HETATM   26  C   UNL     1       3.287  12.879  91.770  1.00  0.00     0.166 C 
BRANCH  26  27
HETATM   27  C   UNL     1       3.656  14.072  92.662  1.00  0.00     0.138 C 
HETATM   28  C   UNL     1       2.445  14.924  93.027  1.00  0.00     0.034 C 
BRANCH  27  29
HETATM   29  O   UNL     1       4.269  13.599  93.861  1.00  0.00    -0.383 OA
HETATM   30  H   UNL     1       3.596  13.584  94.562  1.00  0.00     0.210 HD
ENDBRANCH  27  29
ENDBRANCH  26  27
BRANCH  26  31
HETATM   31  C   UNL     1       3.173  13.295  90.307  1.00  0.00     0.181 C 
HETATM   32  O   UNL     1       2.471  14.231  89.930  1.00  0.00    -0.294 OA
BRANCH  31  33
HETATM   33  C   UNL     1       4.629  13.520  89.630  1.00  0.00     0.138 C 
BRANCH  33  34
HETATM   34  C   UNL     1       4.457  12.867  88.390  1.00  0.00     0.208 C 
HETATM   35  O   UNL     1       5.152  13.260  87.481  1.00  0.00    -0.289 OA
BRANCH  34  36
HETATM   36  C   UNL     1       3.853  11.677  88.090  1.00  0.00     0.194 C 
HETATM   37  O   UNL     1       4.411  10.426  87.803  1.00  0.00    -0.185 OA
ENDBRANCH  34  36
ENDBRANCH  33  34
ENDBRANCH  31  33
ENDBRANCH  26  31
ENDBRANCH  24  26
ENDBRANCH  19  22
ENDBRANCH  15  16
ENDBRANCH  11  14
ENDBRANCH   7   8
ENDBRANCH   2   7
TORSDOF 12
ENDMDL
MODEL 3
REMARK VINA RESULT:      -4.5      2.525     12.938
REMARK  12 active torsions:
REMARK  status: ('A' for Active; 'I' for Inactive)
REMARK    1  A    between atoms: O_2  and  C_16 
REMARK    2  A    between atoms: N_5  and  C_9 
REMARK    3  A    between atoms: N_6  and  C_13 
REMARK       I    between atoms: N_6  and  C_22 
REMARK    4  A    between atoms: C_9  and  C_12 
REMARK    5  A    between atoms: C_13  and  C_16 
REMARK    6  A    between atoms: C_13  and  C_21 
REMARK    7  A    between atoms: C_19  and  C_24 
REMARK    8  A    between atoms: C_21  and  C_33 
REMARK    9  A    between atoms: C_22  and  C_23 
REMARK   10  A    between atoms: C_27  and  C_30 
REMARK   11  A    between atoms: C_33  and  C_34 
REMARK   12  A    between atoms: C_34  and  C_35 
ROOT
HETATM    1  O   UNL     1       3.359  15.052  94.108  1.00  0.00    -0.350 OA
HETATM    2  N   UNL     1       2.796  14.715  91.338  1.00  0.00     0.147 N 
HETATM    3  C   UNL     1       1.864  14.248  92.374  1.00  0.00     0.283 C 
HETATM    4  C   UNL     1       4.173  14.688  91.852  1.00  0.00     0.283 C 
HETATM    5  C   UNL     1       2.014  15.104  93.629  1.00  0.00     0.178 C 
HETATM    6  C   UNL     1       4.269  15.533  93.118  1.00  0.00     0.178 C 
ENDROOT
BRANCH   2   7
HETATM    7  C   UNL     1       2.677  13.901  90.130  1.00  0.00     0.277 C 
BRANCH   7   8
HETATM    8  C   UNL     1       3.675  12.794  90.089  1.00  0.00     0.011 A 
HETATM    9  C   UNL     1       4.827  12.923  89.313  1.00  0.00    -0.002 A 
HETATM   10  C   UNL     1       5.760  11.888  89.272  1.00  0.00     0.008 A 
HETATM   11  C   UNL     1       5.542  10.724  90.010  1.00  0.00     0.042 A 
HETATM   12  C   UNL     1       4.392  10.594  90.785  1.00  0.00     0.008 A 
HETATM   13  C   UNL     1       3.458  11.630  90.826  1.00  0.00    -0.002 A 
BRANCH  11  14
HETATM   14  C   UNL     1       6.500   9.663  89.970  1.00  0.00    -0.059 C 
HETATM   15  C   UNL     1       7.306   8.771  89.936  1.00  0.00    -0.059 C 
BRANCH  15  16
HETATM   16  C   UNL     1       8.264   7.711  89.898  1.00  0.00     0.042 A 
HETATM   17  C   UNL     1       8.924   7.412  88.705  1.00  0.00     0.008 A 
HETATM   18  C   UNL     1       9.861   6.379  88.668  1.00  0.00     0.005 A 
HETATM   19  C   UNL     1      10.116   5.669  89.823  1.00  0.00     0.056 A 
HETATM   20  C   UNL     1       9.477   5.945  91.013  1.00  0.00     0.005 A 
HETATM   21  C   UNL     1       8.540   6.978  91.052  1.00  0.00     0.008 A 
BRANCH  19  22
HETATM   22  C   UNL     1      11.113   4.567  89.782  1.00  0.00     0.254 C 
HETATM   23  O   UNL     1      11.239   3.911  88.751  1.00  0.00    -0.268 OA
HETATM   24  N   UNL     1      11.859   4.379  90.937  1.00  0.00    -0.335 N 
HETATM   25  HN  UNL     1      11.716   4.977  91.743  1.00  0.00     0.164 HD
BRANCH  24  26
HETATM   26  C   UNL     1      12.879   3.368  91.045  1.00  0.00     0.166 C 
BRANCH  26  27
HETATM   27  C   UNL     1      14.296   3.935  90.883  1.00  0.00     0.138 C 
HETATM   28  C   UNL     1      15.116   3.170  89.850  1.00  0.00     0.034 C 
BRANCH  27  29
HETATM   29  O   UNL     1      14.219   5.305  90.491  1.00  0.00    -0.383 OA
HETATM   30  H   UNL     1      14.938   5.483  89.861  1.00  0.00     0.210 HD
ENDBRANCH  27  29
ENDBRANCH  26  27
BRANCH  26  31
HETATM   31  C   UNL     1      12.710   2.677  92.394  1.00  0.00     0.181 C 
HETATM   32  O   UNL     1      13.112   1.537  92.618  1.00  0.00    -0.294 OA
BRANCH  31  33
HETATM   33  C   UNL     1      13.255   3.596  93.614  1.00  0.00     0.138 C 
BRANCH  33  34
HETATM   34  C   UNL     1      14.502   2.987  93.879  1.00  0.00     0.208 C 
HETATM   35  O   UNL     1      14.475   1.803  94.123  1.00  0.00    -0.289 OA
BRANCH  34  36
HETATM   36  C   UNL     1      15.773   3.427  93.634  1.00  0.00     0.194 C 
HETATM   37  O   UNL     1      17.007   2.826  93.910  1.00  0.00    -0.185 OA
ENDBRANCH  34  36
ENDBRANCH  33  34
ENDBRANCH  31  33
ENDBRANCH  26  31
ENDBRANCH  24  26
ENDBRANCH  19  22
ENDBRANCH  15  16
ENDBRANCH  11  14
ENDBRANCH   7   8
ENDBRANCH   2   7
TORSDOF 12
ENDMDL
MODEL 4
REMARK VINA RESULT:      -4.2      1.787      2.091
REMARK  12 active torsions:
REMARK  status: ('A' for Active; 'I' for Inactive)
REMARK    1  A    between atoms: O_2  and  C_16 
REMARK    2  A    between atoms: N_5  and  C_9 
REMARK    3  A    between atoms: N_6  and  C_13 
REMARK       I    between atoms: N_6  and  C_22 
REMARK    4  A    between atoms: C_9  and  C_12 
REMARK    5  A    between atoms: C_13  and  C_16 
REMARK    6  A    between atoms: C_13  and  C_21 
REMARK    7  A    between atoms: C_19  and  C_24 
REMARK    8  A    between atoms: C_21  and  C_33 
REMARK    9  A    between atoms: C_22  and  C_23 
REMARK   10  A    between atoms: C_27  and  C_30 
REMARK   11  A    between atoms: C_33  and  C_34 
REMARK   12  A    between atoms: C_34  and  C_35 
ROOT
HETATM    1  O   UNL     1      16.269   2.716  92.328  1.00  0.00    -0.350 OA
HETATM    2  N   UNL     1      13.514   2.979  92.992  1.00  0.00     0.147 N 
HETATM    3  C   UNL     1      14.398   2.069  93.733  1.00  0.00     0.283 C 
HETATM    4  C   UNL     1      13.990   3.129  91.609  1.00  0.00     0.283 C 
HETATM    5  C   UNL     1      15.833   2.589  93.683  1.00  0.00     0.178 C 
HETATM    6  C   UNL     1      15.433   3.623  91.609  1.00  0.00     0.178 C 
ENDROOT
BRANCH   2   7
HETATM    7  C   UNL     1      12.135   2.495  93.017  1.00  0.00     0.277 C 
BRANCH   7   8
HETATM    8  C   UNL     1      11.142   3.608  93.013  1.00  0.00     0.011 A 
HETATM    9  C   UNL     1      10.208   3.704  91.980  1.00  0.00    -0.002 A 
HETATM   10  C   UNL     1       9.280   4.745  91.974  1.00  0.00     0.008 A 
HETATM   11  C   UNL     1       9.286   5.689  93.001  1.00  0.00     0.042 A 
HETATM   12  C   UNL     1      10.218   5.594  94.032  1.00  0.00     0.008 A 
HETATM   13  C   UNL     1      11.147   4.553  94.038  1.00  0.00    -0.002 A 
BRANCH  11  14
HETATM   14  C   UNL     1       8.333   6.756  92.995  1.00  0.00    -0.059 C 
HETATM   15  C   UNL     1       7.532   7.653  92.989  1.00  0.00    -0.059 C 
BRANCH  15  16
HETATM   16  C   UNL     1       6.579   8.718  92.983  1.00  0.00     0.042 A 
HETATM   17  C   UNL     1       5.322   8.532  93.560  1.00  0.00     0.008 A 
HETATM   18  C   UNL     1       4.394   9.573  93.556  1.00  0.00     0.005 A 
HETATM   19  C   UNL     1       4.742  10.775  92.978  1.00  0.00     0.056 A 
HETATM   20  C   UNL     1       5.977  10.984  92.402  1.00  0.00     0.005 A 
HETATM   21  C   UNL     1       6.907   9.944  92.404  1.00  0.00     0.008 A 
BRANCH  19  22
HETATM   22  C   UNL     1       3.752  11.883  92.973  1.00  0.00     0.254 C 
HETATM   23  O   UNL     1       2.781  11.823  93.724  1.00  0.00    -0.268 OA
HETATM   24  N   UNL     1       4.024  12.938  92.113  1.00  0.00    -0.335 N 
HETATM   25  HN  UNL     1       4.860  12.930  91.540  1.00  0.00     0.164 HD
BRANCH  24  26
HETATM   26  C   UNL     1       3.172  14.096  92.012  1.00  0.00     0.166 C 
BRANCH  26  27
HETATM   27  C   UNL     1       3.326  15.052  93.201  1.00  0.00     0.138 C 
HETATM   28  C   UNL     1       2.109  15.041  94.120  1.00  0.00     0.034 C 
BRANCH  27  29
HETATM   29  O   UNL     1       4.481  14.690  93.958  1.00  0.00    -0.383 OA
HETATM   30  H   UNL     1       4.211  14.055  94.642  1.00  0.00     0.210 HD
ENDBRANCH  27  29
ENDBRANCH  26  27
BRANCH  26  31
HETATM   31  C   UNL     1       3.490  14.795  90.694  1.00  0.00     0.181 C 
HETATM   32  O   UNL     1       4.634  15.091  90.352  1.00  0.00    -0.294 OA
BRANCH  31  33
HETATM   33  C   UNL     1       2.825  14.029  89.430  1.00  0.00     0.138 C 
BRANCH  33  34
HETATM   34  C   UNL     1       3.666  12.899  89.320  1.00  0.00     0.208 C 
HETATM   35  O   UNL     1       3.152  11.829  89.550  1.00  0.00    -0.289 OA
BRANCH  34  36
HETATM   36  C   UNL     1       4.889  12.758  88.725  1.00  0.00     0.194 C 
HETATM   37  O   UNL     1       5.507  13.531  87.735  1.00  0.00    -0.185 OA
ENDBRANCH  34  36
ENDBRANCH  33  34
ENDBRANCH  31  33
ENDBRANCH  26  31
ENDBRANCH  24  26
ENDBRANCH  19  22
ENDBRANCH  15  16
ENDBRANCH  11  14
ENDBRANCH   7   8
ENDBRANCH   2   7
TORSDOF 12
ENDMDL
MODEL 5
REMARK VINA RESULT:      -4.1      1.583      3.078
REMARK  12 active torsions:
REMARK  status: ('A' for Active; 'I' for Inactive)
REMARK    1  A    between atoms: O_2  and  C_16 
REMARK    2  A    between atoms: N_5  and  C_9 
REMARK    3  A    between atoms: N_6  and  C_13 
REMARK       I    between atoms: N_6  and  C_22 
REMARK    4  A    between atoms: C_9  and  C_12 
REMARK    5  A    between atoms: C_13  and  C_16 
REMARK    6  A    between atoms: C_13  and  C_21 
REMARK    7  A    between atoms: C_19  and  C_24 
REMARK    8  A    between atoms: C_21  and  C_33 
REMARK    9  A    between atoms: C_22  and  C_23 
REMARK   10  A    between atoms: C_27  and  C_30 
REMARK   11  A    between atoms: C_33  and  C_34 
REMARK   12  A    between atoms: C_34  and  C_35 
ROOT
HETATM    1  O   UNL     1      16.255   3.444  94.124  1.00  0.00    -0.350 OA
HETATM    2  N   UNL     1      14.079   2.696  92.448  1.00  0.00     0.147 N 
HETATM    3  C   UNL     1      14.222   4.068  92.954  1.00  0.00     0.283 C 
HETATM    4  C   UNL     1      14.685   1.746  93.391  1.00  0.00     0.283 C 
HETATM    5  C   UNL     1      15.697   4.379  93.198  1.00  0.00     0.178 C 
HETATM    6  C   UNL     1      16.148   2.111  93.625  1.00  0.00     0.178 C 
ENDROOT
BRANCH   2   7
HETATM    7  C   UNL     1      12.672   2.374  92.218  1.00  0.00     0.277 C 
BRANCH   7   8
HETATM    8  C   UNL     1      11.855   3.582  91.911  1.00  0.00     0.011 A 
HETATM    9  C   UNL     1      11.247   4.293  92.946  1.00  0.00    -0.002 A 
HETATM   10  C   UNL     1      10.481   5.423  92.660  1.00  0.00     0.008 A 
HETATM   11  C   UNL     1      10.324   5.842  91.339  1.00  0.00     0.042 A 
HETATM   12  C   UNL     1      10.931   5.133  90.304  1.00  0.00     0.008 A 
HETATM   13  C   UNL     1      11.697   4.002  90.590  1.00  0.00    -0.002 A 
BRANCH  11  14
HETATM   14  C   UNL     1       9.540   7.002  91.046  1.00  0.00    -0.059 C 
HETATM   15  C   UNL     1       8.880   7.977  90.800  1.00  0.00    -0.059 C 
BRANCH  15  16
HETATM   16  C   UNL     1       8.096   9.136  90.507  1.00  0.00     0.042 A 
HETATM   17  C   UNL     1       8.406   9.925  89.400  1.00  0.00     0.008 A 
HETATM   18  C   UNL     1       7.640  11.055  89.113  1.00  0.00     0.005 A 
HETATM   19  C   UNL     1       6.581  11.369  89.940  1.00  0.00     0.056 A 
HETATM   20  C   UNL     1       6.254  10.605  91.040  1.00  0.00     0.005 A 
HETATM   21  C   UNL     1       7.020   9.475  91.328  1.00  0.00     0.008 A 
BRANCH  19  22
HETATM   22  C   UNL     1       5.766  12.573  89.635  1.00  0.00     0.254 C 
HETATM   23  O   UNL     1       5.845  13.085  88.521  1.00  0.00    -0.268 OA
HETATM   24  N   UNL     1       4.939  13.022  90.656  1.00  0.00    -0.335 N 
HETATM   25  HN  UNL     1       4.908  12.533  91.543  1.00  0.00     0.164 HD
BRANCH  24  26
HETATM   26  C   UNL     1       4.071  14.162  90.506  1.00  0.00     0.166 C 
BRANCH  26  27
HETATM   27  C   UNL     1       2.686  13.786  89.964  1.00  0.00     0.138 C 
HETATM   28  C   UNL     1       2.708  12.501  89.144  1.00  0.00     0.034 C 
BRANCH  27  29
HETATM   29  O   UNL     1       1.775  13.626  91.052  1.00  0.00    -0.383 OA
HETATM   30  H   UNL     1       1.276  12.803  90.913  1.00  0.00     0.210 HD
ENDBRANCH  27  29
ENDBRANCH  26  27
BRANCH  26  31
HETATM   31  C   UNL     1       3.967  14.850  91.863  1.00  0.00     0.181 C 
HETATM   32  O   UNL     1       2.915  15.309  92.303  1.00  0.00    -0.294 OA
BRANCH  31  33
HETATM   33  C   UNL     1       4.594  13.940  93.049  1.00  0.00     0.138 C 
BRANCH  33  34
HETATM   34  C   UNL     1       3.433  13.318  93.560  1.00  0.00     0.208 C 
HETATM   35  O   UNL     1       2.561  14.060  93.951  1.00  0.00    -0.289 OA
BRANCH  34  36
HETATM   36  C   UNL     1       2.987  12.031  93.434  1.00  0.00     0.194 C 
HETATM   37  O   UNL     1       2.974  11.183  92.321  1.00  0.00    -0.185 OA
ENDBRANCH  34  36
ENDBRANCH  33  34
ENDBRANCH  31  33
ENDBRANCH  26  31
ENDBRANCH  24  26
ENDBRANCH  19  22
ENDBRANCH  15  16
ENDBRANCH  11  14
ENDBRANCH   7   8
ENDBRANCH   2   7
TORSDOF 12
ENDMDL
