MODEL 1
REMARK VINA RESULT:      -6.8      0.000      0.000
REMARK  10 active torsions:
REMARK  status: ('A' for Active; 'I' for Inactive)
REMARK    1  A    between atoms: O_2  and  C_18 
REMARK    2  A    between atoms: O_5  and  N_8 
REMARK    3  A    between atoms: N_6  and  C_11 
REMARK    4  A    between atoms: N_7  and  C_15 
REMARK       I    between atoms: N_7  and  C_24 
REMARK       I    between atoms: N_8  and  C_23 
REMARK    5  A    between atoms: C_11  and  C_14 
REMARK    6  A    between atoms: C_15  and  C_18 
REMARK    7  A    between atoms: C_15  and  C_23 
REMARK    8  A    between atoms: C_21  and  C_26 
REMARK    9  A    between atoms: C_24  and  C_25 
REMARK   10  A    between atoms: C_29  and  C_32 
ROOT
HETATM    1  O   UNK     0      16.316   4.387  93.915  0.00  0.00    -0.388 OA
HETATM    2  N   UNK     0      14.657   2.540  92.522  0.00  0.00     0.096 N 
HETATM    3  C   UNK     0      14.543   3.989  92.306  0.00  0.00     0.299 C 
HETATM    4  C   UNK     0      15.130   2.270  93.886  0.00  0.00     0.299 C 
HETATM    5  C   UNK     0      15.887   4.660  92.580  0.00  0.00     0.198 C 
HETATM    6  C   UNK     0      16.459   2.981  94.124  0.00  0.00     0.198 C 
ENDROOT
BRANCH   2   7
HETATM    7  C   UNK     0      13.378   1.878  92.275  0.00  0.00     0.311 C 
BRANCH   7   8
HETATM    8  C   UNK     0      12.278   2.848  92.007  0.00  0.00    -0.030 A 
HETATM    9  C   UNK     0      11.819   3.039  90.703  0.00  0.00     0.010 A 
HETATM   10  C   UNK     0      10.792   3.948  90.451  0.00  0.00     0.021 A 
HETATM   11  C   UNK     0      10.223   4.665  91.504  0.00  0.00     0.018 A 
HETATM   12  C   UNK     0      10.680   4.475  92.806  0.00  0.00     0.021 A 
HETATM   13  C   UNK     0      11.708   3.567  93.058  0.00  0.00     0.010 A 
BRANCH  11  14
HETATM   14  C   UNK     0       9.168   5.596  91.246  0.00  0.00    -0.061 C 
HETATM   15  C   UNK     0       8.281   6.379  91.028  0.00  0.00    -0.061 C 
BRANCH  15  16
HETATM   16  C   UNK     0       7.228   7.309  90.772  0.00  0.00     0.018 A 
HETATM   17  C   UNK     0       7.377   8.273  89.774  0.00  0.00     0.022 A 
HETATM   18  C   UNK     0       6.348   9.180  89.521  0.00  0.00     0.018 A 
HETATM   19  C   UNK     0       5.193   9.103  90.271  0.00  0.00     0.032 A 
HETATM   20  C   UNK     0       5.021   8.161  91.263  0.00  0.00     0.018 A 
HETATM   21  C   UNK     0       6.050   7.254  91.517  0.00  0.00     0.022 A 
BRANCH  19  22
HETATM   22  C   UNK     0       4.098  10.071  90.004  0.00  0.00     0.252 C 
HETATM   23  O   UNK     0       2.981   9.648  89.714  0.00  0.00    -0.268 OA
HETATM   24  N   UNK     0       4.428  11.413  90.130  0.00  0.00    -0.341 N 
HETATM   25  H   UNK     0       5.366  11.688  90.397  0.00  0.00     0.163 HD
BRANCH  24  26
HETATM   26  C   UNK     0       3.470  12.470  89.926  0.00  0.00     0.207 C 
BRANCH  26  27
HETATM   27  C   UNK     0       3.088  13.184  91.229  0.00  0.00     0.146 C 
HETATM   28  C   UNK     0       2.119  12.369  92.079  0.00  0.00     0.042 C 
BRANCH  27  29
HETATM   29  O   UNK     0       4.265  13.447  91.992  0.00  0.00    -0.393 OA
HETATM   30  H   UNK     0       4.222  14.364  92.312  0.00  0.00     0.210 HD
ENDBRANCH  27  29
ENDBRANCH  26  27
BRANCH  26  31
HETATM   31  C   UNK     0       4.060  13.445  88.912  0.00  0.00     0.266 C 
HETATM   32  O   UNK     0       4.252  14.634  89.160  0.00  0.00    -0.269 OA
HETATM   33  N   UNK     0       4.309  12.847  87.701  0.00  0.00    -0.236 N 
HETATM   34  H   UNK     0       4.082  11.896  87.436  0.00  0.00     0.197 HD
BRANCH  33  35
HETATM   35  O   UNK     0       4.818  13.686  86.699  0.00  0.00    -0.287 OA
HETATM   36  H   UNK     0       5.435  13.076  86.258  0.00  0.00     0.244 HD
ENDBRANCH  33  35
ENDBRANCH  26  31
ENDBRANCH  24  26
ENDBRANCH  19  22
ENDBRANCH  15  16
ENDBRANCH  11  14
ENDBRANCH   7   8
ENDBRANCH   2   7
TORSDOF 10
ENDMDL
