MODEL 1
REMARK VINA RESULT:      -6.1      0.000      0.000
REMARK  10 active torsions:
REMARK  status: ('A' for Active; 'I' for Inactive)
REMARK    1  A    between atoms: O_2  and  C_18 
REMARK    2  A    between atoms: O_5  and  N_8 
REMARK    3  A    between atoms: N_6  and  C_11 
REMARK    4  A    between atoms: N_7  and  C_15 
REMARK       I    between atoms: N_7  and  C_24 
REMARK       I    between atoms: N_8  and  C_23 
REMARK    5  A    between atoms: C_11  and  C_14 
REMARK    6  A    between atoms: C_15  and  C_18 
REMARK    7  A    between atoms: C_15  and  C_23 
REMARK    8  A    between atoms: C_21  and  C_26 
REMARK    9  A    between atoms: C_24  and  C_25 
REMARK   10  A    between atoms: C_29  and  C_32 
ROOT
HETATM    1  O   UNK     0      16.544   3.291  93.779  0.00  0.00    -0.388 OA
HETATM    2  N   UNK     0      13.914   2.857  92.780  0.00  0.00     0.096 N 
HETATM    3  C   UNK     0      14.841   1.741  93.012  0.00  0.00     0.299 C 
HETATM    4  C   UNK     0      14.666   4.078  92.460  0.00  0.00     0.299 C 
HETATM    5  C   UNK     0      15.823   2.107  94.123  0.00  0.00     0.198 C 
HETATM    6  C   UNK     0      15.652   4.389  93.582  0.00  0.00     0.198 C 
ENDROOT
BRANCH   2   7
HETATM    7  C   UNK     0      12.971   2.533  91.712  0.00  0.00     0.311 C 
BRANCH   7   8
HETATM    8  C   UNK     0      11.864   3.527  91.610  0.00  0.00    -0.030 A 
HETATM    9  C   UNK     0      11.369   3.892  90.357  0.00  0.00     0.010 A 
HETATM   10  C   UNK     0      10.336   4.824  90.260  0.00  0.00     0.021 A 
HETATM   11  C   UNK     0       9.797   5.388  91.416  0.00  0.00     0.018 A 
HETATM   12  C   UNK     0      10.290   5.024  92.667  0.00  0.00     0.021 A 
HETATM   13  C   UNK     0      11.324   4.093  92.765  0.00  0.00     0.010 A 
BRANCH  11  14
HETATM   14  C   UNK     0       8.735   6.342  91.316  0.00  0.00    -0.061 C 
HETATM   15  C   UNK     0       7.843   7.144  91.233  0.00  0.00    -0.061 C 
BRANCH  15  16
HETATM   16  C   UNK     0       6.782   8.096  91.134  0.00  0.00     0.018 A 
HETATM   17  C   UNK     0       6.860   9.302  91.832  0.00  0.00     0.022 A 
HETATM   18  C   UNK     0       5.826  10.232  91.734  0.00  0.00     0.018 A 
HETATM   19  C   UNK     0       4.737   9.937  90.940  0.00  0.00     0.032 A 
HETATM   20  C   UNK     0       4.636   8.753  90.240  0.00  0.00     0.018 A 
HETATM   21  C   UNK     0       5.670   7.822  90.339  0.00  0.00     0.022 A 
BRANCH  19  22
HETATM   22  C   UNK     0       3.634  10.928  90.837  0.00  0.00     0.252 C 
HETATM   23  O   UNK     0       2.692  10.700  90.082  0.00  0.00    -0.268 OA
HETATM   24  N   UNK     0       3.749  12.051  91.644  0.00  0.00    -0.341 N 
HETATM   25  H   UNK     0       4.545  12.160  92.262  0.00  0.00     0.163 HD
BRANCH  24  26
HETATM   26  C   UNK     0       2.750  13.089  91.675  0.00  0.00     0.207 C 
BRANCH  26  27
HETATM   27  C   UNK     0       2.686  13.811  93.027  0.00  0.00     0.146 C 
HETATM   28  C   UNK     0       3.887  13.500  93.912  0.00  0.00     0.042 C 
BRANCH  27  29
HETATM   29  O   UNK     0       2.620  15.220  92.813  0.00  0.00    -0.393 OA
HETATM   30  H   UNK     0       2.597  15.660  93.680  0.00  0.00     0.210 HD
ENDBRANCH  27  29
ENDBRANCH  26  27
BRANCH  26  31
HETATM   31  C   UNK     0       3.055  14.063  90.541  0.00  0.00     0.266 C 
HETATM   32  O   UNK     0       2.178  14.595  89.862  0.00  0.00    -0.269 OA
HETATM   33  N   UNK     0       4.405  14.235  90.352  0.00  0.00    -0.236 N 
HETATM   34  H   UNK     0       5.151  13.745  90.832  0.00  0.00     0.197 HD
BRANCH  33  35
HETATM   35  O   UNK     0       4.770  15.087  89.301  0.00  0.00    -0.287 OA
HETATM   36  H   UNK     0       3.969  15.634  89.234  0.00  0.00     0.244 HD
ENDBRANCH  33  35
ENDBRANCH  26  31
ENDBRANCH  24  26
ENDBRANCH  19  22
ENDBRANCH  15  16
ENDBRANCH  11  14
ENDBRANCH   7   8
ENDBRANCH   2   7
TORSDOF 10
ENDMDL
MODEL 2
REMARK VINA RESULT:      -4.3      1.285      2.005
REMARK  10 active torsions:
REMARK  status: ('A' for Active; 'I' for Inactive)
REMARK    1  A    between atoms: O_2  and  C_18 
REMARK    2  A    between atoms: O_5  and  N_8 
REMARK    3  A    between atoms: N_6  and  C_11 
REMARK    4  A    between atoms: N_7  and  C_15 
REMARK       I    between atoms: N_7  and  C_24 
REMARK       I    between atoms: N_8  and  C_23 
REMARK    5  A    between atoms: C_11  and  C_14 
REMARK    6  A    between atoms: C_15  and  C_18 
REMARK    7  A    between atoms: C_15  and  C_23 
REMARK    8  A    between atoms: C_21  and  C_26 
REMARK    9  A    between atoms: C_24  and  C_25 
REMARK   10  A    between atoms: C_29  and  C_32 
ROOT
HETATM    1  O   UNK     0      16.383   4.261  94.124  0.00  0.00    -0.388 OA
HETATM    2  N   UNK     0      14.626   2.569  92.657  0.00  0.00     0.096 N 
HETATM    3  C   UNK     0      14.433   4.026  92.699  0.00  0.00     0.299 C 
HETATM    4  C   UNK     0      15.280   2.113  93.891  0.00  0.00     0.299 C 
HETATM    5  C   UNK     0      15.776   4.719  92.914  0.00  0.00     0.198 C 
HETATM    6  C   UNK     0      16.603   2.851  94.079  0.00  0.00     0.198 C 
ENDROOT
BRANCH   2   7
HETATM    7  C   UNK     0      13.350   1.883  92.462  0.00  0.00     0.311 C 
BRANCH   7   8
HETATM    8  C   UNK     0      12.230   2.832  92.201  0.00  0.00    -0.030 A 
HETATM    9  C   UNK     0      11.604   3.480  93.267  0.00  0.00     0.010 A 
HETATM   10  C   UNK     0      10.554   4.366  93.024  0.00  0.00     0.021 A 
HETATM   11  C   UNK     0      10.132   4.604  91.716  0.00  0.00     0.018 A 
HETATM   12  C   UNK     0      10.757   3.957  90.652  0.00  0.00     0.021 A 
HETATM   13  C   UNK     0      11.806   3.071  90.894  0.00  0.00     0.010 A 
BRANCH  11  14
HETATM   14  C   UNK     0       9.057   5.514  91.467  0.00  0.00    -0.061 C 
HETATM   15  C   UNK     0       8.153   6.279  91.257  0.00  0.00    -0.061 C 
BRANCH  15  16
HETATM   16  C   UNK     0       7.080   7.189  91.009  0.00  0.00     0.018 A 
HETATM   17  C   UNK     0       5.780   6.855  91.394  0.00  0.00     0.022 A 
HETATM   18  C   UNK     0       4.733   7.744  91.153  0.00  0.00     0.018 A 
HETATM   19  C   UNK     0       5.007   8.946  90.535  0.00  0.00     0.032 A 
HETATM   20  C   UNK     0       6.282   9.300  90.145  0.00  0.00     0.018 A 
HETATM   21  C   UNK     0       7.330   8.411  90.384  0.00  0.00     0.022 A 
BRANCH  19  22
HETATM   22  C   UNK     0       3.890   9.892  90.278  0.00  0.00     0.252 C 
HETATM   23  O   UNK     0       2.737   9.469  90.263  0.00  0.00    -0.268 OA
HETATM   24  N   UNK     0       4.248  11.220  90.094  0.00  0.00    -0.341 N 
HETATM   25  H   UNK     0       5.221  11.501  90.145  0.00  0.00     0.163 HD
BRANCH  24  26
HETATM   26  C   UNK     0       3.278  12.260  89.859  0.00  0.00     0.207 C 
BRANCH  26  27
HETATM   27  C   UNK     0       2.791  12.921  91.155  0.00  0.00     0.146 C 
HETATM   28  C   UNK     0       3.913  13.111  92.170  0.00  0.00     0.042 C 
BRANCH  27  29
HETATM   29  O   UNK     0       2.216  14.192  90.855  0.00  0.00    -0.393 OA
HETATM   30  H   UNK     0       1.258  14.075  90.744  0.00  0.00     0.210 HD
ENDBRANCH  27  29
ENDBRANCH  26  27
BRANCH  26  31
HETATM   31  C   UNK     0       3.909  13.282  88.919  0.00  0.00     0.266 C 
HETATM   32  O   UNK     0       4.030  14.471  89.206  0.00  0.00    -0.269 OA
HETATM   33  N   UNK     0       4.280  12.723  87.720  0.00  0.00    -0.236 N 
HETATM   34  H   UNK     0       4.115  11.771  87.417  0.00  0.00     0.197 HD
BRANCH  33  35
HETATM   35  O   UNK     0       4.835  13.606  86.782  0.00  0.00    -0.287 OA
HETATM   36  H   UNK     0       4.532  13.194  85.955  0.00  0.00     0.244 HD
ENDBRANCH  33  35
ENDBRANCH  26  31
ENDBRANCH  24  26
ENDBRANCH  19  22
ENDBRANCH  15  16
ENDBRANCH  11  14
ENDBRANCH   7   8
ENDBRANCH   2   7
TORSDOF 10
ENDMDL
MODEL 3
REMARK VINA RESULT:      -4.3      1.793     12.727
REMARK  10 active torsions:
REMARK  status: ('A' for Active; 'I' for Inactive)
REMARK    1  A    between atoms: O_2  and  C_18 
REMARK    2  A    between atoms: O_5  and  N_8 
REMARK    3  A    between atoms: N_6  and  C_11 
REMARK    4  A    between atoms: N_7  and  C_15 
REMARK       I    between atoms: N_7  and  C_24 
REMARK       I    between atoms: N_8  and  C_23 
REMARK    5  A    between atoms: C_11  and  C_14 
REMARK    6  A    between atoms: C_15  and  C_18 
REMARK    7  A    between atoms: C_15  and  C_23 
REMARK    8  A    between atoms: C_21  and  C_26 
REMARK    9  A    between atoms: C_24  and  C_25 
REMARK   10  A    between atoms: C_29  and  C_32 
ROOT
HETATM    1  O   UNK     0       2.750  13.597  92.147  0.00  0.00    -0.388 OA
HETATM    2  N   UNK     0       3.152  12.525  89.540  0.00  0.00     0.096 N 
HETATM    3  C   UNK     0       3.129  11.663  90.730  0.00  0.00     0.299 C 
HETATM    4  C   UNK     0       3.627  13.867  89.901  0.00  0.00     0.299 C 
HETATM    5  C   UNK     0       2.259  12.298  91.812  0.00  0.00     0.198 C 
HETATM    6  C   UNK     0       2.747  14.451  91.002  0.00  0.00     0.198 C 
ENDROOT
BRANCH   2   7
HETATM    7  C   UNK     0       3.989  11.942  88.494  0.00  0.00     0.311 C 
BRANCH   7   8
HETATM    8  C   UNK     0       4.955  10.941  89.031  0.00  0.00    -0.030 A 
HETATM    9  C   UNK     0       6.165  11.367  89.580  0.00  0.00     0.010 A 
HETATM   10  C   UNK     0       7.071  10.432  90.081  0.00  0.00     0.021 A 
HETATM   11  C   UNK     0       6.765   9.072  90.035  0.00  0.00     0.018 A 
HETATM   12  C   UNK     0       5.556   8.646  89.487  0.00  0.00     0.021 A 
HETATM   13  C   UNK     0       4.651   9.581  88.985  0.00  0.00     0.010 A 
BRANCH  11  14
HETATM   14  C   UNK     0       7.693   8.113  90.551  0.00  0.00    -0.061 C 
HETATM   15  C   UNK     0       8.472   7.307  90.984  0.00  0.00    -0.061 C 
BRANCH  15  16
HETATM   16  C   UNK     0       9.399   6.350  91.501  0.00  0.00     0.018 A 
HETATM   17  C   UNK     0      10.132   5.548  90.626  0.00  0.00     0.022 A 
HETATM   18  C   UNK     0      11.038   4.614  91.130  0.00  0.00     0.018 A 
HETATM   19  C   UNK     0      11.191   4.504  92.496  0.00  0.00     0.032 A 
HETATM   20  C   UNK     0      10.478   5.284  93.382  0.00  0.00     0.018 A 
HETATM   21  C   UNK     0       9.572   6.217  92.878  0.00  0.00     0.022 A 
BRANCH  19  22
HETATM   22  C   UNK     0      12.155   3.508  93.032  0.00  0.00     0.252 C 
HETATM   23  O   UNK     0      11.807   2.335  93.141  0.00  0.00    -0.268 OA
HETATM   24  N   UNK     0      13.415   3.994  93.353  0.00  0.00    -0.341 N 
HETATM   25  H   UNK     0      13.639   4.972  93.212  0.00  0.00     0.163 HD
BRANCH  24  26
HETATM   26  C   UNK     0      14.466   3.148  93.860  0.00  0.00     0.207 C 
BRANCH  26  27
HETATM   27  C   UNK     0      14.567   1.813  93.111  0.00  0.00     0.146 C 
HETATM   28  C   UNK     0      15.518   1.882  91.922  0.00  0.00     0.042 C 
BRANCH  27  29
HETATM   29  O   UNK     0      15.018   0.797  94.006  0.00  0.00    -0.393 OA
HETATM   30  H   UNK     0      15.829   1.111  94.441  0.00  0.00     0.210 HD
ENDBRANCH  27  29
ENDBRANCH  26  27
BRANCH  26  31
HETATM   31  C   UNK     0      15.773   3.930  93.780  0.00  0.00     0.266 C 
HETATM   32  O   UNK     0      15.830   5.103  93.415  0.00  0.00    -0.269 OA
HETATM   33  N   UNK     0      16.859   3.161  94.121  0.00  0.00    -0.236 N 
HETATM   34  H   UNK     0      16.858   2.172  94.339  0.00  0.00     0.197 HD
BRANCH  33  35
HETATM   35  O   UNK     0      18.106   3.796  94.036  0.00  0.00    -0.287 OA
HETATM   36  H   UNK     0      18.649   3.186  94.564  0.00  0.00     0.244 HD
ENDBRANCH  33  35
ENDBRANCH  26  31
ENDBRANCH  24  26
ENDBRANCH  19  22
ENDBRANCH  15  16
ENDBRANCH  11  14
ENDBRANCH   7   8
ENDBRANCH   2   7
TORSDOF 10
ENDMDL
MODEL 4
REMARK VINA RESULT:      -4.3      2.432     12.480
REMARK  10 active torsions:
REMARK  status: ('A' for Active; 'I' for Inactive)
REMARK    1  A    between atoms: O_2  and  C_18 
REMARK    2  A    between atoms: O_5  and  N_8 
REMARK    3  A    between atoms: N_6  and  C_11 
REMARK    4  A    between atoms: N_7  and  C_15 
REMARK       I    between atoms: N_7  and  C_24 
REMARK       I    between atoms: N_8  and  C_23 
REMARK    5  A    between atoms: C_11  and  C_14 
REMARK    6  A    between atoms: C_15  and  C_18 
REMARK    7  A    between atoms: C_15  and  C_23 
REMARK    8  A    between atoms: C_21  and  C_26 
REMARK    9  A    between atoms: C_24  and  C_25 
REMARK   10  A    between atoms: C_29  and  C_32 
ROOT
HETATM    1  O   UNK     0       3.357  14.796  93.368  0.00  0.00    -0.388 OA
HETATM    2  N   UNK     0       2.934  14.440  90.575  0.00  0.00     0.096 N 
HETATM    3  C   UNK     0       2.234  13.614  91.570  0.00  0.00     0.299 C 
HETATM    4  C   UNK     0       4.233  14.874  91.106  0.00  0.00     0.299 C 
HETATM    5  C   UNK     0       2.078  14.395  92.872  0.00  0.00     0.198 C 
HETATM    6  C   UNK     0       4.031  15.625  92.420  0.00  0.00     0.198 C 
ENDROOT
BRANCH   2   7
HETATM    7  C   UNK     0       3.104  13.707  89.322  0.00  0.00     0.311 C 
BRANCH   7   8
HETATM    8  C   UNK     0       4.118  12.620  89.432  0.00  0.00    -0.030 A 
HETATM    9  C   UNK     0       5.465  12.897  89.196  0.00  0.00     0.010 A 
HETATM   10  C   UNK     0       6.414  11.880  89.297  0.00  0.00     0.021 A 
HETATM   11  C   UNK     0       6.016  10.587  89.637  0.00  0.00     0.018 A 
HETATM   12  C   UNK     0       4.671  10.310  89.873  0.00  0.00     0.021 A 
HETATM   13  C   UNK     0       3.722  11.326  89.771  0.00  0.00     0.010 A 
BRANCH  11  14
HETATM   14  C   UNK     0       6.990   9.545  89.742  0.00  0.00    -0.061 C 
HETATM   15  C   UNK     0       7.808   8.668  89.831  0.00  0.00    -0.061 C 
BRANCH  15  16
HETATM   16  C   UNK     0       8.780   7.626  89.938  0.00  0.00     0.018 A 
HETATM   17  C   UNK     0       9.354   7.088  88.785  0.00  0.00     0.022 A 
HETATM   18  C   UNK     0      10.305   6.073  88.889  0.00  0.00     0.018 A 
HETATM   19  C   UNK     0      10.661   5.618  90.141  0.00  0.00     0.032 A 
HETATM   20  C   UNK     0      10.109   6.133  91.296  0.00  0.00     0.018 A 
HETATM   21  C   UNK     0       9.157   7.148  91.192  0.00  0.00     0.022 A 
BRANCH  19  22
HETATM   22  C   UNK     0      11.672   4.535  90.251  0.00  0.00     0.252 C 
HETATM   23  O   UNK     0      11.832   3.766  89.307  0.00  0.00    -0.268 OA
HETATM   24  N   UNK     0      12.392   4.493  91.437  0.00  0.00    -0.341 N 
HETATM   25  H   UNK     0      12.222   5.178  92.165  0.00  0.00     0.163 HD
BRANCH  24  26
HETATM   26  C   UNK     0      13.423   3.518  91.685  0.00  0.00     0.207 C 
BRANCH  26  27
HETATM   27  C   UNK     0      14.468   4.003  92.697  0.00  0.00     0.146 C 
HETATM   28  C   UNK     0      15.404   2.887  93.150  0.00  0.00     0.042 C 
BRANCH  27  29
HETATM   29  O   UNK     0      15.244   5.052  92.118  0.00  0.00    -0.393 OA
HETATM   30  H   UNK     0      15.743   4.684  91.369  0.00  0.00     0.210 HD
ENDBRANCH  27  29
ENDBRANCH  26  27
BRANCH  26  31
HETATM   31  C   UNK     0      12.747   2.235  92.157  0.00  0.00     0.266 C 
HETATM   32  O   UNK     0      13.344   1.166  92.272  0.00  0.00    -0.269 OA
HETATM   33  N   UNK     0      11.406   2.413  92.395  0.00  0.00    -0.236 N 
HETATM   34  H   UNK     0      10.865   3.253  92.226  0.00  0.00     0.197 HD
BRANCH  33  35
HETATM   35  O   UNK     0      10.701   1.269  92.797  0.00  0.00    -0.287 OA
HETATM   36  H   UNK     0       9.853   1.669  93.057  0.00  0.00     0.244 HD
ENDBRANCH  33  35
ENDBRANCH  26  31
ENDBRANCH  24  26
ENDBRANCH  19  22
ENDBRANCH  15  16
ENDBRANCH  11  14
ENDBRANCH   7   8
ENDBRANCH   2   7
TORSDOF 10
ENDMDL
MODEL 5
REMARK VINA RESULT:      -3.8      1.483      2.564
REMARK  10 active torsions:
REMARK  status: ('A' for Active; 'I' for Inactive)
REMARK    1  A    between atoms: O_2  and  C_18 
REMARK    2  A    between atoms: O_5  and  N_8 
REMARK    3  A    between atoms: N_6  and  C_11 
REMARK    4  A    between atoms: N_7  and  C_15 
REMARK       I    between atoms: N_7  and  C_24 
REMARK       I    between atoms: N_8  and  C_23 
REMARK    5  A    between atoms: C_11  and  C_14 
REMARK    6  A    between atoms: C_15  and  C_18 
REMARK    7  A    between atoms: C_15  and  C_23 
REMARK    8  A    between atoms: C_21  and  C_26 
REMARK    9  A    between atoms: C_24  and  C_25 
REMARK   10  A    between atoms: C_29  and  C_32 
ROOT
HETATM    1  O   UNK     0      15.680   3.979  92.537  0.00  0.00    -0.388 OA
HETATM    2  N   UNK     0      13.327   2.437  92.103  0.00  0.00     0.096 N 
HETATM    3  C   UNK     0      13.462   3.799  91.568  0.00  0.00     0.299 C 
HETATM    4  C   UNK     0      14.122   2.297  93.330  0.00  0.00     0.299 C 
HETATM    5  C   UNK     0      14.935   4.116  91.325  0.00  0.00     0.198 C 
HETATM    6  C   UNK     0      15.579   2.649  93.047  0.00  0.00     0.198 C 
ENDROOT
BRANCH   2   7
HETATM    7  C   UNK     0      11.924   2.115  92.353  0.00  0.00     0.311 C 
BRANCH   7   8
HETATM    8  C   UNK     0      11.047   3.320  92.300  0.00  0.00    -0.030 A 
HETATM    9  C   UNK     0      11.202   4.336  93.244  0.00  0.00     0.010 A 
HETATM   10  C   UNK     0      10.381   5.462  93.197  0.00  0.00     0.021 A 
HETATM   11  C   UNK     0       9.407   5.573  92.206  0.00  0.00     0.018 A 
HETATM   12  C   UNK     0       9.251   4.559  91.263  0.00  0.00     0.021 A 
HETATM   13  C   UNK     0      10.072   3.432  91.310  0.00  0.00     0.010 A 
BRANCH  11  14
HETATM   14  C   UNK     0       8.566   6.730  92.156  0.00  0.00    -0.061 C 
HETATM   15  C   UNK     0       7.859   7.701  92.115  0.00  0.00    -0.061 C 
BRANCH  15  16
HETATM   16  C   UNK     0       7.021   8.857  92.064  0.00  0.00     0.018 A 
HETATM   17  C   UNK     0       6.806   9.613  93.218  0.00  0.00     0.022 A 
HETATM   18  C   UNK     0       5.988  10.742  93.168  0.00  0.00     0.018 A 
HETATM   19  C   UNK     0       5.405  11.091  91.968  0.00  0.00     0.032 A 
HETATM   20  C   UNK     0       5.601  10.361  90.815  0.00  0.00     0.018 A 
HETATM   21  C   UNK     0       6.417   9.231  90.864  0.00  0.00     0.022 A 
BRANCH  19  22
HETATM   22  C   UNK     0       4.533  12.293  91.917  0.00  0.00     0.252 C 
HETATM   23  O   UNK     0       3.318  12.158  92.041  0.00  0.00    -0.268 OA
HETATM   24  N   UNK     0       5.182  13.509  91.752  0.00  0.00    -0.341 N 
HETATM   25  H   UNK     0       6.192  13.545  91.682  0.00  0.00     0.163 HD
BRANCH  24  26
HETATM   26  C   UNK     0       4.477  14.765  91.708  0.00  0.00     0.207 C 
BRANCH  26  27
HETATM   27  C   UNK     0       3.788  15.011  90.360  0.00  0.00     0.146 C 
HETATM   28  C   UNK     0       4.760  15.482  89.284  0.00  0.00     0.042 C 
BRANCH  27  29
HETATM   29  O   UNK     0       3.157  13.809  89.920  0.00  0.00    -0.393 OA
HETATM   30  H   UNK     0       3.551  13.551  89.070  0.00  0.00     0.210 HD
ENDBRANCH  27  29
ENDBRANCH  26  27
BRANCH  26  31
HETATM   31  C   UNK     0       3.472  14.776  92.855  0.00  0.00     0.266 C 
HETATM   32  O   UNK     0       3.806  14.833  94.037  0.00  0.00    -0.269 OA
HETATM   33  N   UNK     0       2.176  14.675  92.410  0.00  0.00    -0.236 N 
HETATM   34  H   UNK     0       1.872  14.536  91.454  0.00  0.00     0.197 HD
BRANCH  33  35
HETATM   35  O   UNK     0       1.190  14.639  93.407  0.00  0.00    -0.287 OA
HETATM   36  H   UNK     0       1.031  15.591  93.528  0.00  0.00     0.244 HD
ENDBRANCH  33  35
ENDBRANCH  26  31
ENDBRANCH  24  26
ENDBRANCH  19  22
ENDBRANCH  15  16
ENDBRANCH  11  14
ENDBRANCH   7   8
ENDBRANCH   2   7
TORSDOF 10
ENDMDL
MODEL 6
REMARK VINA RESULT:      -3.8      1.928     12.616
REMARK  10 active torsions:
REMARK  status: ('A' for Active; 'I' for Inactive)
REMARK    1  A    between atoms: O_2  and  C_18 
REMARK    2  A    between atoms: O_5  and  N_8 
REMARK    3  A    between atoms: N_6  and  C_11 
REMARK    4  A    between atoms: N_7  and  C_15 
REMARK       I    between atoms: N_7  and  C_24 
REMARK       I    between atoms: N_8  and  C_23 
REMARK    5  A    between atoms: C_11  and  C_14 
REMARK    6  A    between atoms: C_15  and  C_18 
REMARK    7  A    between atoms: C_15  and  C_23 
REMARK    8  A    between atoms: C_21  and  C_26 
REMARK    9  A    between atoms: C_24  and  C_25 
REMARK   10  A    between atoms: C_29  and  C_32 
ROOT
HETATM    1  O   UNK     0       2.922  14.260  89.748  0.00  0.00    -0.388 OA
HETATM    2  N   UNK     0       2.989  13.697  92.537  0.00  0.00     0.096 N 
HETATM    3  C   UNK     0       4.151  13.442  91.674  0.00  0.00     0.299 C 
HETATM    4  C   UNK     0       1.749  13.579  91.759  0.00  0.00     0.299 C 
HETATM    5  C   UNK     0       4.135  14.404  90.489  0.00  0.00     0.198 C 
HETATM    6  C   UNK     0       1.789  14.537  90.572  0.00  0.00     0.198 C 
ENDROOT
BRANCH   2   7
HETATM    7  C   UNK     0       2.978  12.779  93.674  0.00  0.00     0.311 C 
BRANCH   7   8
HETATM    8  C   UNK     0       3.988  11.690  93.535  0.00  0.00    -0.030 A 
HETATM    9  C   UNK     0       5.263  11.849  94.079  0.00  0.00     0.010 A 
HETATM   10  C   UNK     0       6.208  10.832  93.948  0.00  0.00     0.021 A 
HETATM   11  C   UNK     0       5.878   9.657  93.275  0.00  0.00     0.018 A 
HETATM   12  C   UNK     0       4.605   9.497  92.731  0.00  0.00     0.021 A 
HETATM   13  C   UNK     0       3.659  10.514  92.862  0.00  0.00     0.010 A 
BRANCH  11  14
HETATM   14  C   UNK     0       6.847   8.613  93.142  0.00  0.00    -0.061 C 
HETATM   15  C   UNK     0       7.662   7.736  93.030  0.00  0.00    -0.061 C 
BRANCH  15  16
HETATM   16  C   UNK     0       8.630   6.693  92.896  0.00  0.00     0.018 A 
HETATM   17  C   UNK     0       9.863   6.800  93.541  0.00  0.00     0.022 A 
HETATM   18  C   UNK     0      10.807   5.782  93.412  0.00  0.00     0.018 A 
HETATM   19  C   UNK     0      10.498   4.679  92.643  0.00  0.00     0.032 A 
HETATM   20  C   UNK     0       9.287   4.549  91.996  0.00  0.00     0.018 A 
HETATM   21  C   UNK     0       8.343   5.568  92.124  0.00  0.00     0.022 A 
BRANCH  19  22
HETATM   22  C   UNK     0      11.505   3.595  92.505  0.00  0.00     0.252 C 
HETATM   23  O   UNK     0      11.126   2.454  92.252  0.00  0.00    -0.268 OA
HETATM   24  N   UNK     0      12.831   3.975  92.654  0.00  0.00    -0.341 N 
HETATM   25  H   UNK     0      13.070   4.942  92.838  0.00  0.00     0.163 HD
BRANCH  24  26
HETATM   26  C   UNK     0      13.924   3.044  92.524  0.00  0.00     0.207 C 
BRANCH  26  27
HETATM   27  C   UNK     0      14.334   2.810  91.065  0.00  0.00     0.146 C 
HETATM   28  C   UNK     0      13.775   3.871  90.124  0.00  0.00     0.042 C 
BRANCH  27  29
HETATM   29  O   UNK     0      15.758   2.805  90.965  0.00  0.00    -0.393 OA
HETATM   30  H   UNK     0      16.085   1.962  91.321  0.00  0.00     0.210 HD
ENDBRANCH  27  29
ENDBRANCH  26  27
BRANCH  26  31
HETATM   31  C   UNK     0      15.090   3.577  93.350  0.00  0.00     0.266 C 
HETATM   32  O   UNK     0      15.739   2.875  94.124  0.00  0.00    -0.269 OA
HETATM   33  N   UNK     0      15.295   4.921  93.152  0.00  0.00    -0.236 N 
HETATM   34  H   UNK     0      14.725   5.546  92.592  0.00  0.00     0.197 HD
BRANCH  33  35
HETATM   35  O   UNK     0      16.327   5.499  93.905  0.00  0.00    -0.287 OA
HETATM   36  H   UNK     0      16.329   6.399  93.537  0.00  0.00     0.244 HD
ENDBRANCH  33  35
ENDBRANCH  26  31
ENDBRANCH  24  26
ENDBRANCH  19  22
ENDBRANCH  15  16
ENDBRANCH  11  14
ENDBRANCH   7   8
ENDBRANCH   2   7
TORSDOF 10
ENDMDL
MODEL 7
REMARK VINA RESULT:      -3.5      2.042     12.535
REMARK  10 active torsions:
REMARK  status: ('A' for Active; 'I' for Inactive)
REMARK    1  A    between atoms: O_2  and  C_18 
REMARK    2  A    between atoms: O_5  and  N_8 
REMARK    3  A    between atoms: N_6  and  C_11 
REMARK    4  A    between atoms: N_7  and  C_15 
REMARK       I    between atoms: N_7  and  C_24 
REMARK       I    between atoms: N_8  and  C_23 
REMARK    5  A    between atoms: C_11  and  C_14 
REMARK    6  A    between atoms: C_15  and  C_18 
REMARK    7  A    between atoms: C_15  and  C_23 
REMARK    8  A    between atoms: C_21  and  C_26 
REMARK    9  A    between atoms: C_24  and  C_25 
REMARK   10  A    between atoms: C_29  and  C_32 
ROOT
HETATM    1  O   UNK     0       5.705  14.880  89.140  0.00  0.00    -0.388 OA
HETATM    2  N   UNK     0       3.692  12.870  89.229  0.00  0.00     0.096 N 
HETATM    3  C   UNK     0       3.927  13.772  90.364  0.00  0.00     0.299 C 
HETATM    4  C   UNK     0       4.936  12.677  88.473  0.00  0.00     0.299 C 
HETATM    5  C   UNK     0       4.493  15.098  89.863  0.00  0.00     0.198 C 
HETATM    6  C   UNK     0       5.479  14.028  88.016  0.00  0.00     0.198 C 
ENDROOT
BRANCH   2   7
HETATM    7  C   UNK     0       3.159  11.588  89.687  0.00  0.00     0.311 C 
BRANCH   7   8
HETATM    8  C   UNK     0       4.231  10.658  90.142  0.00  0.00    -0.030 A 
HETATM    9  C   UNK     0       4.664  10.690  91.468  0.00  0.00     0.010 A 
HETATM   10  C   UNK     0       5.669   9.821  91.895  0.00  0.00     0.021 A 
HETATM   11  C   UNK     0       6.238   8.920  90.996  0.00  0.00     0.018 A 
HETATM   12  C   UNK     0       5.805   8.887  89.671  0.00  0.00     0.021 A 
HETATM   13  C   UNK     0       4.802   9.756  89.244  0.00  0.00     0.010 A 
BRANCH  11  14
HETATM   14  C   UNK     0       7.267   8.027  91.434  0.00  0.00    -0.061 C 
HETATM   15  C   UNK     0       8.131   7.278  91.802  0.00  0.00    -0.061 C 
BRANCH  15  16
HETATM   16  C   UNK     0       9.160   6.387  92.239  0.00  0.00     0.018 A 
HETATM   17  C   UNK     0       9.564   6.391  93.574  0.00  0.00     0.022 A 
HETATM   18  C   UNK     0      10.567   5.520  94.001  0.00  0.00     0.018 A 
HETATM   19  C   UNK     0      11.142   4.664  93.085  0.00  0.00     0.032 A 
HETATM   20  C   UNK     0      10.760   4.641  91.760  0.00  0.00     0.018 A 
HETATM   21  C   UNK     0       9.758   5.512  91.332  0.00  0.00     0.022 A 
BRANCH  19  22
HETATM   22  C   UNK     0      12.211   3.738  93.540  0.00  0.00     0.252 C 
HETATM   23  O   UNK     0      11.899   2.703  94.124  0.00  0.00    -0.268 OA
HETATM   24  N   UNK     0      13.512   4.116  93.238  0.00  0.00    -0.341 N 
HETATM   25  H   UNK     0      13.692   4.975  92.730  0.00  0.00     0.163 HD
BRANCH  24  26
HETATM   26  C   UNK     0      14.654   3.313  93.591  0.00  0.00     0.207 C 
BRANCH  26  27
HETATM   27  C   UNK     0      14.906   2.171  92.598  0.00  0.00     0.146 C 
HETATM   28  C   UNK     0      14.301   0.850  93.062  0.00  0.00     0.042 C 
BRANCH  27  29
HETATM   29  O   UNK     0      14.354   2.513  91.327  0.00  0.00    -0.393 OA
HETATM   30  H   UNK     0      13.406   2.692  91.445  0.00  0.00     0.210 HD
ENDBRANCH  27  29
ENDBRANCH  26  27
BRANCH  26  31
HETATM   31  C   UNK     0      15.863   4.239  93.689  0.00  0.00     0.266 C 
HETATM   32  O   UNK     0      15.769   5.465  93.678  0.00  0.00    -0.269 OA
HETATM   33  N   UNK     0      17.046   3.543  93.750  0.00  0.00    -0.236 N 
HETATM   34  H   UNK     0      17.165   2.540  93.671  0.00  0.00     0.197 HD
BRANCH  33  35
HETATM   35  O   UNK     0      18.210   4.323  93.803  0.00  0.00    -0.287 OA
HETATM   36  H   UNK     0      17.895   5.136  93.374  0.00  0.00     0.244 HD
ENDBRANCH  33  35
ENDBRANCH  26  31
ENDBRANCH  24  26
ENDBRANCH  19  22
ENDBRANCH  15  16
ENDBRANCH  11  14
ENDBRANCH   7   8
ENDBRANCH   2   7
TORSDOF 10
ENDMDL
MODEL 8
REMARK VINA RESULT:      -3.4      1.888     12.843
REMARK  10 active torsions:
REMARK  status: ('A' for Active; 'I' for Inactive)
REMARK    1  A    between atoms: O_2  and  C_18 
REMARK    2  A    between atoms: O_5  and  N_8 
REMARK    3  A    between atoms: N_6  and  C_11 
REMARK    4  A    between atoms: N_7  and  C_15 
REMARK       I    between atoms: N_7  and  C_24 
REMARK       I    between atoms: N_8  and  C_23 
REMARK    5  A    between atoms: C_11  and  C_14 
REMARK    6  A    between atoms: C_15  and  C_18 
REMARK    7  A    between atoms: C_15  and  C_23 
REMARK    8  A    between atoms: C_21  and  C_26 
REMARK    9  A    between atoms: C_24  and  C_25 
REMARK   10  A    between atoms: C_29  and  C_32 
ROOT
HETATM    1  O   UNK     0       2.401  15.323  93.041  0.00  0.00    -0.388 OA
HETATM    2  N   UNK     0       2.445  12.563  92.349  0.00  0.00     0.096 N 
HETATM    3  C   UNK     0       3.564  13.455  92.017  0.00  0.00     0.299 C 
HETATM    4  C   UNK     0       1.189  13.324  92.391  0.00  0.00     0.299 C 
HETATM    5  C   UNK     0       3.631  14.597  93.028  0.00  0.00     0.198 C 
HETATM    6  C   UNK     0       1.312  14.469  93.392  0.00  0.00     0.198 C 
ENDROOT
BRANCH   2   7
HETATM    7  C   UNK     0       2.355  11.466  91.386  0.00  0.00     0.311 C 
BRANCH   7   8
HETATM    8  C   UNK     0       3.575  10.610  91.385  0.00  0.00    -0.030 A 
HETATM    9  C   UNK     0       3.979   9.971  92.558  0.00  0.00     0.010 A 
HETATM   10  C   UNK     0       5.122   9.171  92.558  0.00  0.00     0.021 A 
HETATM   11  C   UNK     0       5.859   9.010  91.386  0.00  0.00     0.018 A 
HETATM   12  C   UNK     0       5.457   9.647  90.214  0.00  0.00     0.021 A 
HETATM   13  C   UNK     0       4.314  10.447  90.213  0.00  0.00     0.010 A 
BRANCH  11  14
HETATM   14  C   UNK     0       7.030   8.188  91.386  0.00  0.00    -0.061 C 
HETATM   15  C   UNK     0       8.014   7.497  91.387  0.00  0.00    -0.061 C 
BRANCH  15  16
HETATM   16  C   UNK     0       9.184   6.676  91.388  0.00  0.00     0.018 A 
HETATM   17  C   UNK     0       9.765   6.290  90.179  0.00  0.00     0.022 A 
HETATM   18  C   UNK     0      10.909   5.491  90.180  0.00  0.00     0.018 A 
HETATM   19  C   UNK     0      11.446   5.097  91.388  0.00  0.00     0.032 A 
HETATM   20  C   UNK     0      10.890   5.464  92.596  0.00  0.00     0.018 A 
HETATM   21  C   UNK     0       9.746   6.263  92.595  0.00  0.00     0.022 A 
BRANCH  19  22
HETATM   22  C   UNK     0      12.663   4.244  91.388  0.00  0.00     0.252 C 
HETATM   23  O   UNK     0      12.912   3.555  90.402  0.00  0.00    -0.268 OA
HETATM   24  N   UNK     0      13.454   4.315  92.526  0.00  0.00    -0.341 N 
HETATM   25  H   UNK     0      13.198   4.926  93.292  0.00  0.00     0.163 HD
BRANCH  24  26
HETATM   26  C   UNK     0      14.678   3.567  92.667  0.00  0.00     0.207 C 
BRANCH  26  27
HETATM   27  C   UNK     0      15.638   4.187  93.690  0.00  0.00     0.146 C 
HETATM   28  C   UNK     0      16.936   3.399  93.826  0.00  0.00     0.042 C 
BRANCH  27  29
HETATM   29  O   UNK     0      15.947   5.526  93.304  0.00  0.00    -0.393 OA
HETATM   30  H   UNK     0      16.894   5.679  93.466  0.00  0.00     0.210 HD
ENDBRANCH  27  29
ENDBRANCH  26  27
BRANCH  26  31
HETATM   31  C   UNK     0      14.309   2.138  93.049  0.00  0.00     0.266 C 
HETATM   32  O   UNK     0      13.205   1.647  92.818  0.00  0.00    -0.269 OA
HETATM   33  N   UNK     0      15.331   1.495  93.704  0.00  0.00    -0.236 N 
HETATM   34  H   UNK     0      16.217   1.897  93.988  0.00  0.00     0.197 HD
BRANCH  33  35
HETATM   35  O   UNK     0      15.058   0.185  94.124  0.00  0.00    -0.287 OA
HETATM   36  H   UNK     0      15.931  -0.224  93.995  0.00  0.00     0.244 HD
ENDBRANCH  33  35
ENDBRANCH  26  31
ENDBRANCH  24  26
ENDBRANCH  19  22
ENDBRANCH  15  16
ENDBRANCH  11  14
ENDBRANCH   7   8
ENDBRANCH   2   7
TORSDOF 10
ENDMDL
MODEL 9
REMARK VINA RESULT:      -3.2      2.007     12.544
REMARK  10 active torsions:
REMARK  status: ('A' for Active; 'I' for Inactive)
REMARK    1  A    between atoms: O_2  and  C_18 
REMARK    2  A    between atoms: O_5  and  N_8 
REMARK    3  A    between atoms: N_6  and  C_11 
REMARK    4  A    between atoms: N_7  and  C_15 
REMARK       I    between atoms: N_7  and  C_24 
REMARK       I    between atoms: N_8  and  C_23 
REMARK    5  A    between atoms: C_11  and  C_14 
REMARK    6  A    between atoms: C_15  and  C_18 
REMARK    7  A    between atoms: C_15  and  C_23 
REMARK    8  A    between atoms: C_21  and  C_26 
REMARK    9  A    between atoms: C_24  and  C_25 
REMARK   10  A    between atoms: C_29  and  C_32 
ROOT
HETATM    1  O   UNK     0       5.548  15.103  88.888  0.00  0.00    -0.388 OA
HETATM    2  N   UNK     0       3.473  13.298  89.623  0.00  0.00     0.096 N 
HETATM    3  C   UNK     0       4.048  14.243  90.591  0.00  0.00     0.299 C 
HETATM    4  C   UNK     0       4.475  12.945  88.609  0.00  0.00     0.299 C 
HETATM    5  C   UNK     0       4.570  15.477  89.861  0.00  0.00     0.198 C 
HETATM    6  C   UNK     0       4.988  14.209  87.926  0.00  0.00     0.198 C 
ENDROOT
BRANCH   2   7
HETATM    7  C   UNK     0       2.975  12.102  90.300  0.00  0.00     0.311 C 
BRANCH   7   8
HETATM    8  C   UNK     0       4.069  11.152  90.652  0.00  0.00    -0.030 A 
HETATM    9  C   UNK     0       4.877  11.399  91.762  0.00  0.00     0.010 A 
HETATM   10  C   UNK     0       5.902  10.512  92.090  0.00  0.00     0.021 A 
HETATM   11  C   UNK     0       6.116   9.377  91.310  0.00  0.00     0.018 A 
HETATM   12  C   UNK     0       5.310   9.128  90.201  0.00  0.00     0.021 A 
HETATM   13  C   UNK     0       4.285  10.016  89.872  0.00  0.00     0.010 A 
BRANCH  11  14
HETATM   14  C   UNK     0       7.166   8.465  91.648  0.00  0.00    -0.061 C 
HETATM   15  C   UNK     0       8.049   7.700  91.932  0.00  0.00    -0.061 C 
BRANCH  15  16
HETATM   16  C   UNK     0       9.098   6.790  92.269  0.00  0.00     0.018 A 
HETATM   17  C   UNK     0       9.862   7.002  93.418  0.00  0.00     0.022 A 
HETATM   18  C   UNK     0      10.885   6.113  93.748  0.00  0.00     0.018 A 
HETATM   19  C   UNK     0      11.121   5.033  92.924  0.00  0.00     0.032 A 
HETATM   20  C   UNK     0      10.381   4.801  91.783  0.00  0.00     0.018 A 
HETATM   21  C   UNK     0       9.358   5.690  91.452  0.00  0.00     0.022 A 
BRANCH  19  22
HETATM   22  C   UNK     0      12.212   4.087  93.275  0.00  0.00     0.252 C 
HETATM   23  O   UNK     0      12.003   3.215  94.114  0.00  0.00    -0.268 OA
HETATM   24  N   UNK     0      13.407   4.256  92.589  0.00  0.00    -0.341 N 
HETATM   25  H   UNK     0      13.498   4.983  91.890  0.00  0.00     0.163 HD
BRANCH  24  26
HETATM   26  C   UNK     0      14.549   3.403  92.800  0.00  0.00     0.207 C 
BRANCH  26  27
HETATM   27  C   UNK     0      15.382   3.819  94.019  0.00  0.00     0.146 C 
HETATM   28  C   UNK     0      16.767   3.180  94.025  0.00  0.00     0.042 C 
BRANCH  27  29
HETATM   29  O   UNK     0      15.527   5.239  94.037  0.00  0.00    -0.393 OA
HETATM   30  H   UNK     0      15.654   5.520  94.958  0.00  0.00     0.210 HD
ENDBRANCH  27  29
ENDBRANCH  26  27
BRANCH  26  31
HETATM   31  C   UNK     0      14.043   1.971  92.937  0.00  0.00     0.266 C 
HETATM   32  O   UNK     0      14.335   1.245  93.885  0.00  0.00    -0.269 OA
HETATM   33  N   UNK     0      13.268   1.590  91.868  0.00  0.00    -0.236 N 
HETATM   34  H   UNK     0      13.081   2.130  91.031  0.00  0.00     0.197 HD
BRANCH  33  35
HETATM   35  O   UNK     0      12.793   0.272  91.898  0.00  0.00    -0.287 OA
HETATM   36  H   UNK     0      13.470  -0.170  91.357  0.00  0.00     0.244 HD
ENDBRANCH  33  35
ENDBRANCH  26  31
ENDBRANCH  24  26
ENDBRANCH  19  22
ENDBRANCH  15  16
ENDBRANCH  11  14
ENDBRANCH   7   8
ENDBRANCH   2   7
TORSDOF 10
ENDMDL
