MODEL 1
REMARK VINA RESULT:      -6.9      0.000      0.000
REMARK  10 active torsions:
REMARK  status: ('A' for Active; 'I' for Inactive)
REMARK    1  A    between atoms: O_2  and  C_18 
REMARK    2  A    between atoms: O_5  and  N_8 
REMARK    3  A    between atoms: N_6  and  C_11 
REMARK    4  A    between atoms: N_7  and  C_15 
REMARK       I    between atoms: N_7  and  C_24 
REMARK       I    between atoms: N_8  and  C_23 
REMARK    5  A    between atoms: C_11  and  C_14 
REMARK    6  A    between atoms: C_15  and  C_18 
REMARK    7  A    between atoms: C_15  and  C_23 
REMARK    8  A    between atoms: C_21  and  C_26 
REMARK    9  A    between atoms: C_24  and  C_25 
REMARK   10  A    between atoms: C_29  and  C_32 
ROOT
HETATM    1  O   UNK     0      16.620   4.434  94.120  0.00  0.00    -0.388 OA
HETATM    2  N   UNK     0      14.849   2.756  92.653  0.00  0.00     0.096 N 
HETATM    3  C   UNK     0      14.705   4.219  92.646  0.00  0.00     0.299 C 
HETATM    4  C   UNK     0      15.452   2.317  93.919  0.00  0.00     0.299 C 
HETATM    5  C   UNK     0      16.063   4.874  92.880  0.00  0.00     0.198 C 
HETATM    6  C   UNK     0      16.793   3.017  94.124  0.00  0.00     0.198 C 
ENDROOT
BRANCH   2   7
HETATM    7  C   UNK     0      13.557   2.107  92.441  0.00  0.00     0.311 C 
BRANCH   7   8
HETATM    8  C   UNK     0      12.477   3.083  92.121  0.00  0.00    -0.030 A 
HETATM    9  C   UNK     0      12.072   3.265  90.798  0.00  0.00     0.010 A 
HETATM   10  C   UNK     0      11.063   4.179  90.497  0.00  0.00     0.021 A 
HETATM   11  C   UNK     0      10.458   4.910  91.519  0.00  0.00     0.018 A 
HETATM   12  C   UNK     0      10.861   4.730  92.840  0.00  0.00     0.021 A 
HETATM   13  C   UNK     0      11.871   3.816  93.142  0.00  0.00     0.010 A 
BRANCH  11  14
HETATM   14  C   UNK     0       9.421   5.847  91.210  0.00  0.00    -0.061 C 
HETATM   15  C   UNK     0       8.550   6.634  90.950  0.00  0.00    -0.061 C 
BRANCH  15  16
HETATM   16  C   UNK     0       7.516   7.570  90.642  0.00  0.00     0.018 A 
HETATM   17  C   UNK     0       6.360   7.614  91.423  0.00  0.00     0.022 A 
HETATM   18  C   UNK     0       5.351   8.529  91.124  0.00  0.00     0.018 A 
HETATM   19  C   UNK     0       5.520   9.381  90.052  0.00  0.00     0.032 A 
HETATM   20  C   UNK     0       6.652   9.358  89.265  0.00  0.00     0.018 A 
HETATM   21  C   UNK     0       7.661   8.442  89.563  0.00  0.00     0.022 A 
BRANCH  19  22
HETATM   22  C   UNK     0       4.444  10.354  89.733  0.00  0.00     0.252 C 
HETATM   23  O   UNK     0       3.496   9.994  89.039  0.00  0.00    -0.268 OA
HETATM   24  N   UNK     0       4.589  11.622  90.280  0.00  0.00    -0.341 N 
HETATM   25  H   UNK     0       5.387  11.840  90.864  0.00  0.00     0.163 HD
BRANCH  24  26
HETATM   26  C   UNK     0       3.617  12.667  90.081  0.00  0.00     0.207 C 
BRANCH  26  27
HETATM   27  C   UNK     0       3.345  13.474  91.357  0.00  0.00     0.146 C 
HETATM   28  C   UNK     0       1.856  13.701  91.597  0.00  0.00     0.042 C 
BRANCH  27  29
HETATM   29  O   UNK     0       3.896  12.789  92.482  0.00  0.00    -0.393 OA
HETATM   30  H   UNK     0       4.860  12.919  92.475  0.00  0.00     0.210 HD
ENDBRANCH  27  29
ENDBRANCH  26  27
BRANCH  26  31
HETATM   31  C   UNK     0       4.122  13.564  88.956  0.00  0.00     0.266 C 
HETATM   32  O   UNK     0       4.208  14.786  89.061  0.00  0.00    -0.269 OA
HETATM   33  N   UNK     0       4.424  12.852  87.820  0.00  0.00    -0.236 N 
HETATM   34  H   UNK     0       4.281  11.860  87.670  0.00  0.00     0.197 HD
BRANCH  33  35
HETATM   35  O   UNK     0       4.860  13.609  86.724  0.00  0.00    -0.287 OA
HETATM   36  H   UNK     0       4.026  14.035  86.463  0.00  0.00     0.244 HD
ENDBRANCH  33  35
ENDBRANCH  26  31
ENDBRANCH  24  26
ENDBRANCH  19  22
ENDBRANCH  15  16
ENDBRANCH  11  14
ENDBRANCH   7   8
ENDBRANCH   2   7
TORSDOF 10
ENDMDL
MODEL 2
REMARK VINA RESULT:      -6.6      1.505      2.165
REMARK  10 active torsions:
REMARK  status: ('A' for Active; 'I' for Inactive)
REMARK    1  A    between atoms: O_2  and  C_18 
REMARK    2  A    between atoms: O_5  and  N_8 
REMARK    3  A    between atoms: N_6  and  C_11 
REMARK    4  A    between atoms: N_7  and  C_15 
REMARK       I    between atoms: N_7  and  C_24 
REMARK       I    between atoms: N_8  and  C_23 
REMARK    5  A    between atoms: C_11  and  C_14 
REMARK    6  A    between atoms: C_15  and  C_18 
REMARK    7  A    between atoms: C_15  and  C_23 
REMARK    8  A    between atoms: C_21  and  C_26 
REMARK    9  A    between atoms: C_24  and  C_25 
REMARK   10  A    between atoms: C_29  and  C_32 
ROOT
HETATM    1  O   UNK     0      16.646   3.224  93.644  0.00  0.00    -0.388 OA
HETATM    2  N   UNK     0      13.953   2.876  92.789  0.00  0.00     0.096 N 
HETATM    3  C   UNK     0      14.821   1.726  93.079  0.00  0.00     0.299 C 
HETATM    4  C   UNK     0      14.762   4.016  92.336  0.00  0.00     0.299 C 
HETATM    5  C   UNK     0      15.871   2.120  94.115  0.00  0.00     0.198 C 
HETATM    6  C   UNK     0      15.813   4.355  93.389  0.00  0.00     0.198 C 
ENDROOT
BRANCH   2   7
HETATM    7  C   UNK     0      12.945   2.524  91.790  0.00  0.00     0.311 C 
BRANCH   7   8
HETATM    8  C   UNK     0      11.841   3.523  91.722  0.00  0.00    -0.030 A 
HETATM    9  C   UNK     0      11.375   4.128  92.891  0.00  0.00     0.010 A 
HETATM   10  C   UNK     0      10.340   5.061  92.829  0.00  0.00     0.021 A 
HETATM   11  C   UNK     0       9.773   5.390  91.598  0.00  0.00     0.018 A 
HETATM   12  C   UNK     0      10.237   4.787  90.431  0.00  0.00     0.021 A 
HETATM   13  C   UNK     0      11.271   3.853  90.492  0.00  0.00     0.010 A 
BRANCH  11  14
HETATM   14  C   UNK     0       8.712   6.348  91.534  0.00  0.00    -0.061 C 
HETATM   15  C   UNK     0       7.821   7.153  91.481  0.00  0.00    -0.061 C 
BRANCH  15  16
HETATM   16  C   UNK     0       6.763   8.111  91.416  0.00  0.00     0.018 A 
HETATM   17  C   UNK     0       5.751   7.968  90.465  0.00  0.00     0.022 A 
HETATM   18  C   UNK     0       4.716   8.901  90.403  0.00  0.00     0.018 A 
HETATM   19  C   UNK     0       4.716   9.956  91.291  0.00  0.00     0.032 A 
HETATM   20  C   UNK     0       5.704  10.121  92.239  0.00  0.00     0.018 A 
HETATM   21  C   UNK     0       6.739   9.188  92.302  0.00  0.00     0.022 A 
BRANCH  19  22
HETATM   22  C   UNK     0       3.614  10.951  91.223  0.00  0.00     0.252 C 
HETATM   23  O   UNK     0       2.528  10.613  90.760  0.00  0.00    -0.268 OA
HETATM   24  N   UNK     0       3.903  12.213  91.725  0.00  0.00    -0.341 N 
HETATM   25  H   UNK     0       4.817  12.413  92.115  0.00  0.00     0.163 HD
BRANCH  24  26
HETATM   26  C   UNK     0       2.933  13.278  91.751  0.00  0.00     0.207 C 
BRANCH  26  27
HETATM   27  C   UNK     0       2.954  14.068  93.065  0.00  0.00     0.146 C 
HETATM   28  C   UNK     0       3.955  13.506  94.069  0.00  0.00     0.042 C 
BRANCH  27  29
HETATM   29  O   UNK     0       3.283  15.431  92.798  0.00  0.00    -0.393 OA
HETATM   30  H   UNK     0       3.135  15.600  91.852  0.00  0.00     0.210 HD
ENDBRANCH  27  29
ENDBRANCH  26  27
BRANCH  26  31
HETATM   31  C   UNK     0       3.203  14.184  90.555  0.00  0.00     0.266 C 
HETATM   32  O   UNK     0       2.412  14.317  89.623  0.00  0.00    -0.269 OA
HETATM   33  N   UNK     0       4.434  14.789  90.630  0.00  0.00    -0.236 N 
HETATM   34  H   UNK     0       5.145  14.633  91.335  0.00  0.00     0.197 HD
BRANCH  33  35
HETATM   35  O   UNK     0       4.777  15.611  89.547  0.00  0.00    -0.287 OA
HETATM   36  H   UNK     0       5.654  15.253  89.326  0.00  0.00     0.244 HD
ENDBRANCH  33  35
ENDBRANCH  26  31
ENDBRANCH  24  26
ENDBRANCH  19  22
ENDBRANCH  15  16
ENDBRANCH  11  14
ENDBRANCH   7   8
ENDBRANCH   2   7
TORSDOF 10
ENDMDL
MODEL 3
REMARK VINA RESULT:      -6.2      1.505      2.635
REMARK  10 active torsions:
REMARK  status: ('A' for Active; 'I' for Inactive)
REMARK    1  A    between atoms: O_2  and  C_18 
REMARK    2  A    between atoms: O_5  and  N_8 
REMARK    3  A    between atoms: N_6  and  C_11 
REMARK    4  A    between atoms: N_7  and  C_15 
REMARK       I    between atoms: N_7  and  C_24 
REMARK       I    between atoms: N_8  and  C_23 
REMARK    5  A    between atoms: C_11  and  C_14 
REMARK    6  A    between atoms: C_15  and  C_18 
REMARK    7  A    between atoms: C_15  and  C_23 
REMARK    8  A    between atoms: C_21  and  C_26 
REMARK    9  A    between atoms: C_24  and  C_25 
REMARK   10  A    between atoms: C_29  and  C_32 
ROOT
HETATM    1  O   UNK     0      15.676   4.167  93.813  0.00  0.00    -0.388 OA
HETATM    2  N   UNK     0      13.875   2.606  92.257  0.00  0.00     0.096 N 
HETATM    3  C   UNK     0      14.005   4.056  92.056  0.00  0.00     0.299 C 
HETATM    4  C   UNK     0      14.183   2.261  93.651  0.00  0.00     0.299 C 
HETATM    5  C   UNK     0      15.408   4.509  92.452  0.00  0.00     0.198 C 
HETATM    6  C   UNK     0      15.582   2.756  94.010  0.00  0.00     0.198 C 
ENDROOT
BRANCH   2   7
HETATM    7  C   UNK     0      12.534   2.152  91.894  0.00  0.00     0.311 C 
BRANCH   7   8
HETATM    8  C   UNK     0      11.562   3.277  91.787  0.00  0.00    -0.030 A 
HETATM    9  C   UNK     0      11.152   3.955  92.936  0.00  0.00     0.010 A 
HETATM   10  C   UNK     0      10.242   5.007  92.837  0.00  0.00     0.021 A 
HETATM   11  C   UNK     0       9.743   5.382  91.590  0.00  0.00     0.018 A 
HETATM   12  C   UNK     0      10.152   4.705  90.442  0.00  0.00     0.021 A 
HETATM   13  C   UNK     0      11.062   3.653  90.540  0.00  0.00     0.010 A 
BRANCH  11  14
HETATM   14  C   UNK     0       8.811   6.462  91.489  0.00  0.00    -0.061 C 
HETATM   15  C   UNK     0       8.027   7.370  91.404  0.00  0.00    -0.061 C 
BRANCH  15  16
HETATM   16  C   UNK     0       7.095   8.448  91.304  0.00  0.00     0.018 A 
HETATM   17  C   UNK     0       6.650   9.094  92.458  0.00  0.00     0.022 A 
HETATM   18  C   UNK     0       5.742  10.148  92.361  0.00  0.00     0.018 A 
HETATM   19  C   UNK     0       5.299  10.534  91.113  0.00  0.00     0.032 A 
HETATM   20  C   UNK     0       5.723   9.912  89.957  0.00  0.00     0.018 A 
HETATM   21  C   UNK     0       6.631   8.857  90.054  0.00  0.00     0.022 A 
BRANCH  19  22
HETATM   22  C   UNK     0       4.330  11.655  91.009  0.00  0.00     0.252 C 
HETATM   23  O   UNK     0       3.177  11.421  90.655  0.00  0.00    -0.268 OA
HETATM   24  N   UNK     0       4.813  12.910  91.355  0.00  0.00    -0.341 N 
HETATM   25  H   UNK     0       5.772  13.023  91.663  0.00  0.00     0.163 HD
BRANCH  24  26
HETATM   26  C   UNK     0       3.990  14.092  91.330  0.00  0.00     0.207 C 
BRANCH  26  27
HETATM   27  C   UNK     0       3.741  14.612  89.908  0.00  0.00     0.146 C 
HETATM   28  C   UNK     0       5.032  14.787  89.116  0.00  0.00     0.042 C 
BRANCH  27  29
HETATM   29  O   UNK     0       2.889  13.705  89.210  0.00  0.00    -0.393 OA
HETATM   30  H   UNK     0       1.981  13.827  89.537  0.00  0.00     0.210 HD
ENDBRANCH  27  29
ENDBRANCH  26  27
BRANCH  26  31
HETATM   31  C   UNK     0       2.679  13.762  92.036  0.00  0.00     0.266 C 
HETATM   32  O   UNK     0       1.576  14.015  91.555  0.00  0.00    -0.269 OA
HETATM   33  N   UNK     0       2.883  13.192  93.270  0.00  0.00    -0.236 N 
HETATM   34  H   UNK     0       3.774  13.052  93.733  0.00  0.00     0.197 HD
BRANCH  33  35
HETATM   35  O   UNK     0       1.726  12.893  94.002  0.00  0.00    -0.287 OA
HETATM   36  H   UNK     0       2.079  12.927  94.908  0.00  0.00     0.244 HD
ENDBRANCH  33  35
ENDBRANCH  26  31
ENDBRANCH  24  26
ENDBRANCH  19  22
ENDBRANCH  15  16
ENDBRANCH  11  14
ENDBRANCH   7   8
ENDBRANCH   2   7
TORSDOF 10
ENDMDL
MODEL 4
REMARK VINA RESULT:      -5.9      2.830     12.317
REMARK  10 active torsions:
REMARK  status: ('A' for Active; 'I' for Inactive)
REMARK    1  A    between atoms: O_2  and  C_18 
REMARK    2  A    between atoms: O_5  and  N_8 
REMARK    3  A    between atoms: N_6  and  C_11 
REMARK    4  A    between atoms: N_7  and  C_15 
REMARK       I    between atoms: N_7  and  C_24 
REMARK       I    between atoms: N_8  and  C_23 
REMARK    5  A    between atoms: C_11  and  C_14 
REMARK    6  A    between atoms: C_15  and  C_18 
REMARK    7  A    between atoms: C_15  and  C_23 
REMARK    8  A    between atoms: C_21  and  C_26 
REMARK    9  A    between atoms: C_24  and  C_25 
REMARK   10  A    between atoms: C_29  and  C_32 
ROOT
HETATM    1  O   UNK     0       3.165  14.901  94.122  0.00  0.00    -0.388 OA
HETATM    2  N   UNK     0       2.836  14.790  91.296  0.00  0.00     0.096 N 
HETATM    3  C   UNK     0       1.894  14.124  92.206  0.00  0.00     0.299 C 
HETATM    4  C   UNK     0       4.168  14.858  91.913  0.00  0.00     0.299 C 
HETATM    5  C   UNK     0       1.859  14.859  93.543  0.00  0.00     0.198 C 
HETATM    6  C   UNK     0       4.080  15.575  93.257  0.00  0.00     0.198 C 
ENDROOT
BRANCH   2   7
HETATM    7  C   UNK     0       2.894  14.095  90.011  0.00  0.00     0.311 C 
BRANCH   7   8
HETATM    8  C   UNK     0       3.891  12.987  90.009  0.00  0.00    -0.030 A 
HETATM    9  C   UNK     0       3.663  11.843  90.774  0.00  0.00     0.010 A 
HETATM   10  C   UNK     0       4.596  10.806  90.774  0.00  0.00     0.021 A 
HETATM   11  C   UNK     0       5.756  10.914  90.007  0.00  0.00     0.018 A 
HETATM   12  C   UNK     0       5.985  12.056  89.243  0.00  0.00     0.021 A 
HETATM   13  C   UNK     0       5.052  13.093  89.243  0.00  0.00     0.010 A 
BRANCH  11  14
HETATM   14  C   UNK     0       6.712   9.849  90.006  0.00  0.00    -0.061 C 
HETATM   15  C   UNK     0       7.516   8.955  90.005  0.00  0.00    -0.061 C 
BRANCH  15  16
HETATM   16  C   UNK     0       8.472   7.893  90.003  0.00  0.00     0.018 A 
HETATM   17  C   UNK     0       9.200   7.614  88.845  0.00  0.00     0.022 A 
HETATM   18  C   UNK     0      10.135   6.578  88.843  0.00  0.00     0.018 A 
HETATM   19  C   UNK     0      10.321   5.846  89.997  0.00  0.00     0.032 A 
HETATM   20  C   UNK     0       9.614   6.101  91.153  0.00  0.00     0.018 A 
HETATM   21  C   UNK     0       8.679   7.136  91.156  0.00  0.00     0.022 A 
BRANCH  19  22
HETATM   22  C   UNK     0      11.315   4.742  89.993  0.00  0.00     0.252 C 
HETATM   23  O   UNK     0      11.486   4.092  88.965  0.00  0.00    -0.268 OA
HETATM   24  N   UNK     0      12.008   4.544  91.179  0.00  0.00    -0.341 N 
HETATM   25  H   UNK     0      11.831   5.137  91.982  0.00  0.00     0.163 HD
BRANCH  24  26
HETATM   26  C   UNK     0      13.020   3.529  91.326  0.00  0.00     0.207 C 
BRANCH  26  27
HETATM   27  C   UNK     0      14.204   3.992  92.184  0.00  0.00     0.146 C 
HETATM   28  C   UNK     0      13.833   4.150  93.655  0.00  0.00     0.042 C 
BRANCH  27  29
HETATM   29  O   UNK     0      15.270   3.049  92.075  0.00  0.00    -0.393 OA
HETATM   30  H   UNK     0      16.095   3.488  92.344  0.00  0.00     0.210 HD
ENDBRANCH  27  29
ENDBRANCH  26  27
BRANCH  26  31
HETATM   31  C   UNK     0      12.356   2.290  91.918  0.00  0.00     0.266 C 
HETATM   32  O   UNK     0      12.918   1.199  91.991  0.00  0.00    -0.269 OA
HETATM   33  N   UNK     0      11.064   2.534  92.316  0.00  0.00    -0.236 N 
HETATM   34  H   UNK     0      10.542   3.394  92.190  0.00  0.00     0.197 HD
BRANCH  33  35
HETATM   35  O   UNK     0      10.369   1.434  92.838  0.00  0.00    -0.287 OA
HETATM   36  H   UNK     0      10.804   0.709  92.358  0.00  0.00     0.244 HD
ENDBRANCH  33  35
ENDBRANCH  26  31
ENDBRANCH  24  26
ENDBRANCH  19  22
ENDBRANCH  15  16
ENDBRANCH  11  14
ENDBRANCH   7   8
ENDBRANCH   2   7
TORSDOF 10
ENDMDL
MODEL 5
REMARK VINA RESULT:      -5.5      2.659     12.741
REMARK  10 active torsions:
REMARK  status: ('A' for Active; 'I' for Inactive)
REMARK    1  A    between atoms: O_2  and  C_18 
REMARK    2  A    between atoms: O_5  and  N_8 
REMARK    3  A    between atoms: N_6  and  C_11 
REMARK    4  A    between atoms: N_7  and  C_15 
REMARK       I    between atoms: N_7  and  C_24 
REMARK       I    between atoms: N_8  and  C_23 
REMARK    5  A    between atoms: C_11  and  C_14 
REMARK    6  A    between atoms: C_15  and  C_18 
REMARK    7  A    between atoms: C_15  and  C_23 
REMARK    8  A    between atoms: C_21  and  C_26 
REMARK    9  A    between atoms: C_24  and  C_25 
REMARK   10  A    between atoms: C_29  and  C_32 
ROOT
HETATM    1  O   UNK     0       1.420  15.138  93.269  0.00  0.00    -0.388 OA
HETATM    2  N   UNK     0       3.400  13.587  91.937  0.00  0.00     0.096 N 
HETATM    3  C   UNK     0       3.527  15.045  92.068  0.00  0.00     0.299 C 
HETATM    4  C   UNK     0       1.982  13.205  91.915  0.00  0.00     0.299 C 
HETATM    5  C   UNK     0       2.797  15.516  93.323  0.00  0.00     0.198 C 
HETATM    6  C   UNK     0       1.287  13.719  93.172  0.00  0.00     0.198 C 
ENDROOT
BRANCH   2   7
HETATM    7  C   UNK     0       4.084  13.114  90.734  0.00  0.00     0.311 C 
BRANCH   7   8
HETATM    8  C   UNK     0       5.008  11.978  91.016  0.00  0.00    -0.030 A 
HETATM    9  C   UNK     0       5.911  11.557  90.039  0.00  0.00     0.010 A 
HETATM   10  C   UNK     0       6.774  10.493  90.300  0.00  0.00     0.021 A 
HETATM   11  C   UNK     0       6.736   9.853  91.539  0.00  0.00     0.018 A 
HETATM   12  C   UNK     0       5.834  10.273  92.515  0.00  0.00     0.021 A 
HETATM   13  C   UNK     0       4.970  11.336  92.254  0.00  0.00     0.010 A 
BRANCH  11  14
HETATM   14  C   UNK     0       7.623   8.763  91.807  0.00  0.00    -0.061 C 
HETATM   15  C   UNK     0       8.368   7.847  92.033  0.00  0.00    -0.061 C 
BRANCH  15  16
HETATM   16  C   UNK     0       9.254   6.759  92.303  0.00  0.00     0.018 A 
HETATM   17  C   UNK     0       9.584   5.861  91.287  0.00  0.00     0.022 A 
HETATM   18  C   UNK     0      10.450   4.800  91.549  0.00  0.00     0.018 A 
HETATM   19  C   UNK     0      10.968   4.660  92.820  0.00  0.00     0.032 A 
HETATM   20  C   UNK     0      10.658   5.533  93.841  0.00  0.00     0.018 A 
HETATM   21  C   UNK     0       9.791   6.594  93.580  0.00  0.00     0.022 A 
BRANCH  19  22
HETATM   22  C   UNK     0      11.890   3.529  93.099  0.00  0.00     0.252 C 
HETATM   23  O   UNK     0      11.463   2.378  93.037  0.00  0.00    -0.268 OA
HETATM   24  N   UNK     0      13.202   3.871  93.393  0.00  0.00    -0.341 N 
HETATM   25  H   UNK     0      13.489   4.843  93.402  0.00  0.00     0.163 HD
BRANCH  24  26
HETATM   26  C   UNK     0      14.219   2.887  93.663  0.00  0.00     0.207 C 
BRANCH  26  27
HETATM   27  C   UNK     0      14.346   1.843  92.546  0.00  0.00     0.146 C 
HETATM   28  C   UNK     0      14.844   2.446  91.237  0.00  0.00     0.042 C 
BRANCH  27  29
HETATM   29  O   UNK     0      15.246   0.814  92.954  0.00  0.00    -0.393 OA
HETATM   30  H   UNK     0      16.126   1.019  92.595  0.00  0.00     0.210 HD
ENDBRANCH  27  29
ENDBRANCH  26  27
BRANCH  26  31
HETATM   31  C   UNK     0      15.535   3.625  93.883  0.00  0.00     0.266 C 
HETATM   32  O   UNK     0      16.605   3.047  94.067  0.00  0.00    -0.269 OA
HETATM   33  N   UNK     0      15.371   4.989  93.889  0.00  0.00    -0.236 N 
HETATM   34  H   UNK     0      14.495   5.495  93.829  0.00  0.00     0.197 HD
BRANCH  33  35
HETATM   35  O   UNK     0      16.530   5.743  94.124  0.00  0.00    -0.287 OA
HETATM   36  H   UNK     0      17.103   5.063  94.517  0.00  0.00     0.244 HD
ENDBRANCH  33  35
ENDBRANCH  26  31
ENDBRANCH  24  26
ENDBRANCH  19  22
ENDBRANCH  15  16
ENDBRANCH  11  14
ENDBRANCH   7   8
ENDBRANCH   2   7
TORSDOF 10
ENDMDL
MODEL 6
REMARK VINA RESULT:      -5.3      2.664     12.416
REMARK  10 active torsions:
REMARK  status: ('A' for Active; 'I' for Inactive)
REMARK    1  A    between atoms: O_2  and  C_18 
REMARK    2  A    between atoms: O_5  and  N_8 
REMARK    3  A    between atoms: N_6  and  C_11 
REMARK    4  A    between atoms: N_7  and  C_15 
REMARK       I    between atoms: N_7  and  C_24 
REMARK       I    between atoms: N_8  and  C_23 
REMARK    5  A    between atoms: C_11  and  C_14 
REMARK    6  A    between atoms: C_15  and  C_18 
REMARK    7  A    between atoms: C_15  and  C_23 
REMARK    8  A    between atoms: C_21  and  C_26 
REMARK    9  A    between atoms: C_24  and  C_25 
REMARK   10  A    between atoms: C_29  and  C_32 
ROOT
HETATM    1  O   UNK     0       2.752  14.905  94.010  0.00  0.00    -0.388 OA
HETATM    2  N   UNK     0       2.621  14.502  91.195  0.00  0.00     0.096 N 
HETATM    3  C   UNK     0       1.610  13.938  92.100  0.00  0.00     0.299 C 
HETATM    4  C   UNK     0       3.907  14.628  91.894  0.00  0.00     0.299 C 
HETATM    5  C   UNK     0       1.490  14.809  93.348  0.00  0.00     0.198 C 
HETATM    6  C   UNK     0       3.734  15.482  93.148  0.00  0.00     0.198 C 
ENDROOT
BRANCH   2   7
HETATM    7  C   UNK     0       2.761  13.678  89.996  0.00  0.00     0.311 C 
BRANCH   7   8
HETATM    8  C   UNK     0       3.789  12.611  90.157  0.00  0.00    -0.030 A 
HETATM    9  C   UNK     0       3.545  11.531  91.006  0.00  0.00     0.010 A 
HETATM   10  C   UNK     0       4.508  10.533  91.159  0.00  0.00     0.021 A 
HETATM   11  C   UNK     0       5.712  10.614  90.461  0.00  0.00     0.018 A 
HETATM   12  C   UNK     0       5.957  11.692  89.613  0.00  0.00     0.021 A 
HETATM   13  C   UNK     0       4.995  12.691  89.460  0.00  0.00     0.010 A 
BRANCH  11  14
HETATM   14  C   UNK     0       6.698   9.589  90.617  0.00  0.00    -0.061 C 
HETATM   15  C   UNK     0       7.527   8.728  90.748  0.00  0.00    -0.061 C 
BRANCH  15  16
HETATM   16  C   UNK     0       8.513   7.706  90.903  0.00  0.00     0.018 A 
HETATM   17  C   UNK     0       8.884   7.284  92.180  0.00  0.00     0.022 A 
HETATM   18  C   UNK     0       9.845   6.285  92.332  0.00  0.00     0.018 A 
HETATM   19  C   UNK     0      10.412   5.728  91.205  0.00  0.00     0.032 A 
HETATM   20  C   UNK     0      10.063   6.127  89.932  0.00  0.00     0.018 A 
HETATM   21  C   UNK     0       9.103   7.127  89.779  0.00  0.00     0.022 A 
BRANCH  19  22
HETATM   22  C   UNK     0      11.437   4.665  91.367  0.00  0.00     0.252 C 
HETATM   23  O   UNK     0      11.778   4.005  90.388  0.00  0.00    -0.268 OA
HETATM   24  N   UNK     0      11.960   4.514  92.644  0.00  0.00    -0.341 N 
HETATM   25  H   UNK     0      11.649   5.113  93.400  0.00  0.00     0.163 HD
BRANCH  24  26
HETATM   26  C   UNK     0      12.978   3.543  92.956  0.00  0.00     0.207 C 
BRANCH  26  27
HETATM   27  C   UNK     0      12.867   2.272  92.105  0.00  0.00     0.146 C 
HETATM   28  C   UNK     0      13.881   1.208  92.509  0.00  0.00     0.042 C 
BRANCH  27  29
HETATM   29  O   UNK     0      11.552   1.730  92.227  0.00  0.00    -0.393 OA
HETATM   30  H   UNK     0      10.991   2.389  92.669  0.00  0.00     0.210 HD
ENDBRANCH  27  29
ENDBRANCH  26  27
BRANCH  26  31
HETATM   31  C   UNK     0      14.335   4.216  92.772  0.00  0.00     0.266 C 
HETATM   32  O   UNK     0      14.721   4.662  91.694  0.00  0.00    -0.269 OA
HETATM   33  N   UNK     0      15.071   4.225  93.932  0.00  0.00    -0.236 N 
HETATM   34  H   UNK     0      14.822   3.788  94.813  0.00  0.00     0.197 HD
BRANCH  33  35
HETATM   35  O   UNK     0      16.350   4.792  93.840  0.00  0.00    -0.287 OA
HETATM   36  H   UNK     0      16.337   5.378  94.616  0.00  0.00     0.244 HD
ENDBRANCH  33  35
ENDBRANCH  26  31
ENDBRANCH  24  26
ENDBRANCH  19  22
ENDBRANCH  15  16
ENDBRANCH  11  14
ENDBRANCH   7   8
ENDBRANCH   2   7
TORSDOF 10
ENDMDL
MODEL 7
REMARK VINA RESULT:      -4.8      2.182     12.535
REMARK  10 active torsions:
REMARK  status: ('A' for Active; 'I' for Inactive)
REMARK    1  A    between atoms: O_2  and  C_18 
REMARK    2  A    between atoms: O_5  and  N_8 
REMARK    3  A    between atoms: N_6  and  C_11 
REMARK    4  A    between atoms: N_7  and  C_15 
REMARK       I    between atoms: N_7  and  C_24 
REMARK       I    between atoms: N_8  and  C_23 
REMARK    5  A    between atoms: C_11  and  C_14 
REMARK    6  A    between atoms: C_15  and  C_18 
REMARK    7  A    between atoms: C_15  and  C_23 
REMARK    8  A    between atoms: C_21  and  C_26 
REMARK    9  A    between atoms: C_24  and  C_25 
REMARK   10  A    between atoms: C_29  and  C_32 
ROOT
HETATM    1  O   UNK     0       5.022  15.001  89.616  0.00  0.00    -0.388 OA
HETATM    2  N   UNK     0       3.387  13.834  91.632  0.00  0.00     0.096 N 
HETATM    3  C   UNK     0       4.648  14.513  91.963  0.00  0.00     0.299 C 
HETATM    4  C   UNK     0       3.462  13.266  90.280  0.00  0.00     0.299 C 
HETATM    5  C   UNK     0       4.948  15.584  90.918  0.00  0.00     0.198 C 
HETATM    6  C   UNK     0       3.790  14.366  89.274  0.00  0.00     0.198 C 
ENDROOT
BRANCH   2   7
HETATM    7  C   UNK     0       3.085  12.795  92.616  0.00  0.00     0.311 C 
BRANCH   7   8
HETATM    8  C   UNK     0       4.113  11.715  92.635  0.00  0.00    -0.030 A 
HETATM    9  C   UNK     0       5.058  11.672  93.660  0.00  0.00     0.010 A 
HETATM   10  C   UNK     0       6.021  10.663  93.678  0.00  0.00     0.021 A 
HETATM   11  C   UNK     0       6.037   9.698  92.672  0.00  0.00     0.018 A 
HETATM   12  C   UNK     0       5.093   9.740  91.648  0.00  0.00     0.021 A 
HETATM   13  C   UNK     0       4.130  10.749  91.629  0.00  0.00     0.010 A 
BRANCH  11  14
HETATM   14  C   UNK     0       7.024   8.662  92.692  0.00  0.00    -0.061 C 
HETATM   15  C   UNK     0       7.853   7.791  92.708  0.00  0.00    -0.061 C 
BRANCH  15  16
HETATM   16  C   UNK     0       8.838   6.756  92.727  0.00  0.00     0.018 A 
HETATM   17  C   UNK     0       9.086   6.010  91.574  0.00  0.00     0.022 A 
HETATM   18  C   UNK     0      10.049   5.001  91.591  0.00  0.00     0.018 A 
HETATM   19  C   UNK     0      10.743   4.761  92.759  0.00  0.00     0.032 A 
HETATM   20  C   UNK     0      10.516   5.484  93.911  0.00  0.00     0.018 A 
HETATM   21  C   UNK     0       9.553   6.493  93.895  0.00  0.00     0.022 A 
BRANCH  19  22
HETATM   22  C   UNK     0      11.767   3.685  92.777  0.00  0.00     0.252 C 
HETATM   23  O   UNK     0      11.606   2.692  92.071  0.00  0.00    -0.268 OA
HETATM   24  N   UNK     0      12.866   3.905  93.595  0.00  0.00    -0.341 N 
HETATM   25  H   UNK     0      12.943   4.762  94.130  0.00  0.00     0.163 HD
BRANCH  24  26
HETATM   26  C   UNK     0      13.954   2.967  93.701  0.00  0.00     0.207 C 
BRANCH  26  27
HETATM   27  C   UNK     0      14.041   2.019  92.498  0.00  0.00     0.146 C 
HETATM   28  C   UNK     0      14.814   2.625  91.332  0.00  0.00     0.042 C 
BRANCH  27  29
HETATM   29  O   UNK     0      14.675   0.803  92.893  0.00  0.00    -0.393 OA
HETATM   30  H   UNK     0      14.158   0.060  92.539  0.00  0.00     0.210 HD
ENDBRANCH  27  29
ENDBRANCH  26  27
BRANCH  26  31
HETATM   31  C   UNK     0      15.243   3.765  93.872  0.00  0.00     0.266 C 
HETATM   32  O   UNK     0      15.266   4.993  93.938  0.00  0.00    -0.269 OA
HETATM   33  N   UNK     0      16.354   2.957  93.901  0.00  0.00    -0.236 N 
HETATM   34  H   UNK     0      16.378   1.954  93.760  0.00  0.00     0.197 HD
BRANCH  33  35
HETATM   35  O   UNK     0      17.585   3.617  94.018  0.00  0.00    -0.287 OA
HETATM   36  H   UNK     0      17.286   4.493  94.317  0.00  0.00     0.244 HD
ENDBRANCH  33  35
ENDBRANCH  26  31
ENDBRANCH  24  26
ENDBRANCH  19  22
ENDBRANCH  15  16
ENDBRANCH  11  14
ENDBRANCH   7   8
ENDBRANCH   2   7
TORSDOF 10
ENDMDL
MODEL 8
REMARK VINA RESULT:      -4.1      1.746     12.313
REMARK  10 active torsions:
REMARK  status: ('A' for Active; 'I' for Inactive)
REMARK    1  A    between atoms: O_2  and  C_18 
REMARK    2  A    between atoms: O_5  and  N_8 
REMARK    3  A    between atoms: N_6  and  C_11 
REMARK    4  A    between atoms: N_7  and  C_15 
REMARK       I    between atoms: N_7  and  C_24 
REMARK       I    between atoms: N_8  and  C_23 
REMARK    5  A    between atoms: C_11  and  C_14 
REMARK    6  A    between atoms: C_15  and  C_18 
REMARK    7  A    between atoms: C_15  and  C_23 
REMARK    8  A    between atoms: C_21  and  C_26 
REMARK    9  A    between atoms: C_24  and  C_25 
REMARK   10  A    between atoms: C_29  and  C_32 
ROOT
HETATM    1  O   UNK     0       5.145  14.257  89.097  0.00  0.00    -0.388 OA
HETATM    2  N   UNK     0       3.330  12.071  89.273  0.00  0.00     0.096 N 
HETATM    3  C   UNK     0       3.351  13.135  90.286  0.00  0.00     0.299 C 
HETATM    4  C   UNK     0       4.664  11.916  88.679  0.00  0.00     0.299 C 
HETATM    5  C   UNK     0       3.843  14.437  89.658  0.00  0.00     0.198 C 
HETATM    6  C   UNK     0       5.127  13.245  88.089  0.00  0.00     0.198 C 
ENDROOT
BRANCH   2   7
HETATM    7  C   UNK     0       2.871  10.811  89.855  0.00  0.00     0.311 C 
BRANCH   7   8
HETATM    8  C   UNK     0       3.996   9.877  90.147  0.00  0.00    -0.030 A 
HETATM    9  C   UNK     0       4.702   9.288  89.097  0.00  0.00     0.010 A 
HETATM   10  C   UNK     0       5.753   8.412  89.369  0.00  0.00     0.021 A 
HETATM   11  C   UNK     0       6.099   8.128  90.690  0.00  0.00     0.018 A 
HETATM   12  C   UNK     0       5.395   8.717  91.738  0.00  0.00     0.021 A 
HETATM   13  C   UNK     0       4.343   9.592  91.467  0.00  0.00     0.010 A 
BRANCH  11  14
HETATM   14  C   UNK     0       7.179   7.232  90.969  0.00  0.00    -0.061 C 
HETATM   15  C   UNK     0       8.086   6.478  91.203  0.00  0.00    -0.061 C 
BRANCH  15  16
HETATM   16  C   UNK     0       9.164   5.583  91.482  0.00  0.00     0.018 A 
HETATM   17  C   UNK     0      10.018   5.834  92.557  0.00  0.00     0.022 A 
HETATM   18  C   UNK     0      11.069   4.959  92.831  0.00  0.00     0.018 A 
HETATM   19  C   UNK     0      11.242   3.853  92.027  0.00  0.00     0.032 A 
HETATM   20  C   UNK     0      10.413   3.582  90.959  0.00  0.00     0.018 A 
HETATM   21  C   UNK     0       9.362   4.457  90.683  0.00  0.00     0.022 A 
BRANCH  19  22
HETATM   22  C   UNK     0      12.363   2.922  92.318  0.00  0.00     0.252 C 
HETATM   23  O   UNK     0      12.142   1.714  92.368  0.00  0.00    -0.268 OA
HETATM   24  N   UNK     0      13.610   3.507  92.492  0.00  0.00    -0.341 N 
HETATM   25  H   UNK     0      13.721   4.511  92.412  0.00  0.00     0.163 HD
BRANCH  24  26
HETATM   26  C   UNK     0      14.798   2.736  92.757  0.00  0.00     0.207 C 
BRANCH  26  27
HETATM   27  C   UNK     0      15.424   2.154  91.483  0.00  0.00     0.146 C 
HETATM   28  C   UNK     0      15.053   2.948  90.235  0.00  0.00     0.042 C 
BRANCH  27  29
HETATM   29  O   UNK     0      16.845   2.135  91.615  0.00  0.00    -0.393 OA
HETATM   30  H   UNK     0      17.091   2.732  92.342  0.00  0.00     0.210 HD
ENDBRANCH  27  29
ENDBRANCH  26  27
BRANCH  26  31
HETATM   31  C   UNK     0      15.782   3.636  93.497  0.00  0.00     0.266 C 
HETATM   32  O   UNK     0      16.746   3.201  94.124  0.00  0.00    -0.269 OA
HETATM   33  N   UNK     0      15.439   4.964  93.408  0.00  0.00    -0.236 N 
HETATM   34  H   UNK     0      14.606   5.348  92.977  0.00  0.00     0.197 HD
BRANCH  33  35
HETATM   35  O   UNK     0      16.273   5.857  94.095  0.00  0.00    -0.287 OA
HETATM   36  H   UNK     0      16.826   5.231  94.594  0.00  0.00     0.244 HD
ENDBRANCH  33  35
ENDBRANCH  26  31
ENDBRANCH  24  26
ENDBRANCH  19  22
ENDBRANCH  15  16
ENDBRANCH  11  14
ENDBRANCH   7   8
ENDBRANCH   2   7
TORSDOF 10
ENDMDL
