MODEL 1
REMARK VINA RESULT:      -7.5      0.000      0.000
REMARK  9 active torsions:
REMARK  status: ('A' for Active; 'I' for Inactive)
REMARK    1  A    between atoms: N_3  and  C_6 
REMARK    2  A    between atoms: C_6  and  C_9 
REMARK    3  A    between atoms: C_14  and  C_17 
REMARK       I    between atoms: N_26  and  C_15 
REMARK    4  A    between atoms: C_15  and  C_16 
REMARK    5  A    between atoms: C_20  and  C_23 
REMARK    6  A    between atoms: OG1_24  and  CB_28 
REMARK    7  A    between atoms: N_26  and  CA_27 
REMARK    8  A    between atoms: CA_27  and  CB_28 
REMARK    9  A    between atoms: CA_27  and  C_30 
ROOT
HETATM    1  O   UNK A   0       1.914   8.084  87.810  1.00  0.00    -0.388 OA
HETATM    2  N   UNK A   0       4.704   7.541  87.657  1.00  0.00     0.096 N 
HETATM    3  C   UNK A   0       4.193   8.915  87.761  1.00  0.00     0.299 C 
HETATM    4  C   UNK A   0       3.716   6.687  86.983  1.00  0.00     0.299 C 
HETATM    5  C   UNK A   0       2.854   8.915  88.493  1.00  0.00     0.198 C 
HETATM    6  C   UNK A   0       2.388   6.740  87.732  1.00  0.00     0.198 C 
ENDROOT
BRANCH   2   7
HETATM    7  C   UNK A   0       5.982   7.516  86.950  1.00  0.00     0.311 C 
BRANCH   7   8
HETATM    8  C   UNK A   0       7.074   6.918  87.770  1.00  0.00    -0.030 A 
HETATM    9  C   UNK A   0       8.315   6.651  87.190  1.00  0.00     0.010 A 
HETATM   10  C   UNK A   0       9.336   6.089  87.956  1.00  0.00     0.021 A 
HETATM   11  C   UNK A   0       9.117   5.798  89.302  1.00  0.00     0.018 A 
HETATM   12  C   UNK A   0       7.879   6.064  89.882  1.00  0.00     0.021 A 
HETATM   13  C   UNK A   0       6.857   6.625  89.117  1.00  0.00     0.010 A 
BRANCH  11  14
HETATM   14  C   UNK A   0      10.165   5.224  90.088  1.00  0.00    -0.061 C 
HETATM   15  C   UNK A   0      11.047   4.741  90.749  1.00  0.00    -0.061 C 
BRANCH  15  16
HETATM   16  C   UNK A   0      12.095   4.169  91.534  1.00  0.00     0.018 A 
HETATM   17  C   UNK A   0      11.852   3.798  92.857  1.00  0.00     0.022 A 
HETATM   18  C   UNK A   0      12.874   3.237  93.622  1.00  0.00     0.018 A 
HETATM   19  C   UNK A   0      14.115   3.058  93.048  1.00  0.00     0.032 A 
HETATM   20  C   UNK A   0      14.381   3.416  91.743  1.00  0.00     0.018 A 
HETATM   21  C   UNK A   0      13.360   3.978  90.977  1.00  0.00     0.022 A 
BRANCH  19  22
HETATM   22  C   UNK A   0      15.204   2.462  93.865  1.00  0.00     0.252 C 
HETATM   23  O   UNK A   0      16.366   2.800  93.653  1.00  0.00    -0.268 OA
ENDBRANCH  19  22
ENDBRANCH  15  16
ENDBRANCH  11  14
ENDBRANCH   7   8
ENDBRANCH   2   7
TORSDOF 9
ENDMDL
MODEL 2
REMARK VINA RESULT:      -7.5      0.177      1.434
REMARK  9 active torsions:
REMARK  status: ('A' for Active; 'I' for Inactive)
REMARK    1  A    between atoms: N_3  and  C_6 
REMARK    2  A    between atoms: C_6  and  C_9 
REMARK    3  A    between atoms: C_14  and  C_17 
REMARK       I    between atoms: N_26  and  C_15 
REMARK    4  A    between atoms: C_15  and  C_16 
REMARK    5  A    between atoms: C_20  and  C_23 
REMARK    6  A    between atoms: OG1_24  and  CB_28 
REMARK    7  A    between atoms: N_26  and  CA_27 
REMARK    8  A    between atoms: CA_27  and  CB_28 
REMARK    9  A    between atoms: CA_27  and  C_30 
ROOT
HETATM    1  O   UNK A   0       1.884   8.345  87.898  1.00  0.00    -0.388 OA
HETATM    2  N   UNK A   0       4.647   7.701  87.672  1.00  0.00     0.096 N 
HETATM    3  C   UNK A   0       4.188   9.095  87.749  1.00  0.00     0.299 C 
HETATM    4  C   UNK A   0       3.609   6.862  87.057  1.00  0.00     0.299 C 
HETATM    5  C   UNK A   0       2.874   9.163  88.524  1.00  0.00     0.198 C 
HETATM    6  C   UNK A   0       2.310   6.983  87.847  1.00  0.00     0.198 C 
ENDROOT
BRANCH   2   7
HETATM    7  C   UNK A   0       5.900   7.610  86.923  1.00  0.00     0.311 C 
BRANCH   7   8
HETATM    8  C   UNK A   0       6.998   6.999  87.726  1.00  0.00    -0.030 A 
HETATM    9  C   UNK A   0       6.829   6.797  89.096  1.00  0.00     0.010 A 
HETATM   10  C   UNK A   0       7.857   6.228  89.848  1.00  0.00     0.021 A 
HETATM   11  C   UNK A   0       9.051   5.859  89.229  1.00  0.00     0.018 A 
HETATM   12  C   UNK A   0       9.220   6.060  87.861  1.00  0.00     0.021 A 
HETATM   13  C   UNK A   0       8.193   6.630  87.108  1.00  0.00     0.010 A 
BRANCH  11  14
HETATM   14  C   UNK A   0      10.104   5.273  90.001  1.00  0.00    -0.061 C 
HETATM   15  C   UNK A   0      10.988   4.780  90.649  1.00  0.00    -0.061 C 
BRANCH  15  16
HETATM   16  C   UNK A   0      12.040   4.194  91.419  1.00  0.00     0.018 A 
HETATM   17  C   UNK A   0      13.298   3.999  90.847  1.00  0.00     0.022 A 
HETATM   18  C   UNK A   0      14.324   3.430  91.599  1.00  0.00     0.018 A 
HETATM   19  C   UNK A   0      14.072   3.068  92.906  1.00  0.00     0.032 A 
HETATM   20  C   UNK A   0      12.838   3.250  93.495  1.00  0.00     0.018 A 
HETATM   21  C   UNK A   0      11.810   3.819  92.743  1.00  0.00     0.022 A 
BRANCH  19  22
HETATM   22  C   UNK A   0      15.166   2.460  93.707  1.00  0.00     0.252 C 
HETATM   23  O   UNK A   0      16.260   3.017  93.749  1.00  0.00    -0.268 OA
ENDBRANCH  19  22
ENDBRANCH  15  16
ENDBRANCH  11  14
ENDBRANCH   7   8
ENDBRANCH   2   7
TORSDOF 9
ENDMDL
MODEL 3
REMARK VINA RESULT:      -6.9      1.571      2.132
REMARK  9 active torsions:
REMARK  status: ('A' for Active; 'I' for Inactive)
REMARK    1  A    between atoms: N_3  and  C_6 
REMARK    2  A    between atoms: C_6  and  C_9 
REMARK    3  A    between atoms: C_14  and  C_17 
REMARK       I    between atoms: N_26  and  C_15 
REMARK    4  A    between atoms: C_15  and  C_16 
REMARK    5  A    between atoms: C_20  and  C_23 
REMARK    6  A    between atoms: OG1_24  and  CB_28 
REMARK    7  A    between atoms: N_26  and  CA_27 
REMARK    8  A    between atoms: CA_27  and  CB_28 
REMARK    9  A    between atoms: CA_27  and  C_30 
ROOT
HETATM    1  O   UNK A   0       2.733  11.275  89.829  1.00  0.00    -0.388 OA
HETATM    2  N   UNK A   0       4.552   9.301  88.884  1.00  0.00     0.096 N 
HETATM    3  C   UNK A   0       3.815  10.172  87.958  1.00  0.00     0.299 C 
HETATM    4  C   UNK A   0       3.775   9.104  90.116  1.00  0.00     0.299 C 
HETATM    5  C   UNK A   0       3.495  11.499  88.641  1.00  0.00     0.198 C 
HETATM    6  C   UNK A   0       3.455  10.455  90.748  1.00  0.00     0.198 C 
ENDROOT
BRANCH   2   7
HETATM    7  C   UNK A   0       4.861   8.019  88.254  1.00  0.00     0.311 C 
BRANCH   7   8
HETATM    8  C   UNK A   0       6.082   7.383  88.827  1.00  0.00    -0.030 A 
HETATM    9  C   UNK A   0       5.975   6.191  89.545  1.00  0.00     0.010 A 
HETATM   10  C   UNK A   0       7.116   5.597  90.083  1.00  0.00     0.021 A 
HETATM   11  C   UNK A   0       8.363   6.194  89.901  1.00  0.00     0.018 A 
HETATM   12  C   UNK A   0       8.471   7.383  89.184  1.00  0.00     0.021 A 
HETATM   13  C   UNK A   0       7.330   7.978  88.646  1.00  0.00     0.010 A 
BRANCH  11  14
HETATM   14  C   UNK A   0       9.534   5.583  90.452  1.00  0.00    -0.061 C 
HETATM   15  C   UNK A   0      10.518   5.070  90.915  1.00  0.00    -0.061 C 
BRANCH  15  16
HETATM   16  C   UNK A   0      11.687   4.459  91.466  1.00  0.00     0.018 A 
HETATM   17  C   UNK A   0      11.700   4.058  92.802  1.00  0.00     0.022 A 
HETATM   18  C   UNK A   0      12.840   3.460  93.338  1.00  0.00     0.018 A 
HETATM   19  C   UNK A   0      13.940   3.275  92.528  1.00  0.00     0.032 A 
HETATM   20  C   UNK A   0      13.953   3.663  91.204  1.00  0.00     0.018 A 
HETATM   21  C   UNK A   0      12.813   4.261  90.666  1.00  0.00     0.022 A 
BRANCH  19  22
HETATM   22  C   UNK A   0      15.155   2.639  93.100  1.00  0.00     0.252 C 
HETATM   23  O   UNK A   0      15.861   3.282  93.874  1.00  0.00    -0.268 OA
ENDBRANCH  19  22
ENDBRANCH  15  16
ENDBRANCH  11  14
ENDBRANCH   7   8
ENDBRANCH   2   7
TORSDOF 9
ENDMDL
MODEL 4
REMARK VINA RESULT:      -6.6      3.418     10.356
REMARK  9 active torsions:
REMARK  status: ('A' for Active; 'I' for Inactive)
REMARK    1  A    between atoms: N_3  and  C_6 
REMARK    2  A    between atoms: C_6  and  C_9 
REMARK    3  A    between atoms: C_14  and  C_17 
REMARK       I    between atoms: N_26  and  C_15 
REMARK    4  A    between atoms: C_15  and  C_16 
REMARK    5  A    between atoms: C_20  and  C_23 
REMARK    6  A    between atoms: OG1_24  and  CB_28 
REMARK    7  A    between atoms: N_26  and  CA_27 
REMARK    8  A    between atoms: CA_27  and  CB_28 
REMARK    9  A    between atoms: CA_27  and  C_30 
ROOT
HETATM    1  O   UNK A   0      16.172   3.162  93.626  1.00  0.00    -0.388 OA
HETATM    2  N   UNK A   0      13.481   2.922  92.729  1.00  0.00     0.096 N 
HETATM    3  C   UNK A   0      14.282   1.741  93.078  1.00  0.00     0.299 C 
HETATM    4  C   UNK A   0      14.357   4.002  92.253  1.00  0.00     0.299 C 
HETATM    5  C   UNK A   0      15.332   2.117  94.121  1.00  0.00     0.198 C 
HETATM    6  C   UNK A   0      15.404   4.325  93.314  1.00  0.00     0.198 C 
ENDROOT
BRANCH   2   7
HETATM    7  C   UNK A   0      12.475   2.587  91.723  1.00  0.00     0.311 C 
BRANCH   7   8
HETATM    8  C   UNK A   0      11.593   3.743  91.394  1.00  0.00    -0.030 A 
HETATM    9  C   UNK A   0      10.943   4.436  92.415  1.00  0.00     0.010 A 
HETATM   10  C   UNK A   0      10.116   5.516  92.109  1.00  0.00     0.021 A 
HETATM   11  C   UNK A   0       9.942   5.904  90.781  1.00  0.00     0.018 A 
HETATM   12  C   UNK A   0      10.591   5.213  89.760  1.00  0.00     0.021 A 
HETATM   13  C   UNK A   0      11.417   4.132  90.066  1.00  0.00     0.010 A 
BRANCH  11  14
HETATM   14  C   UNK A   0       9.095   7.014  90.466  1.00  0.00    -0.061 C 
HETATM   15  C   UNK A   0       8.384   7.947  90.203  1.00  0.00    -0.061 C 
BRANCH  15  16
HETATM   16  C   UNK A   0       7.538   9.056  89.888  1.00  0.00     0.018 A 
HETATM   17  C   UNK A   0       6.152   8.905  89.919  1.00  0.00     0.022 A 
HETATM   18  C   UNK A   0       5.327   9.989  89.615  1.00  0.00     0.018 A 
HETATM   19  C   UNK A   0       5.907  11.196  89.288  1.00  0.00     0.032 A 
HETATM   20  C   UNK A   0       7.274  11.370  89.249  1.00  0.00     0.018 A 
HETATM   21  C   UNK A   0       8.100  10.288  89.553  1.00  0.00     0.022 A 
BRANCH  19  22
HETATM   22  C   UNK A   0       5.028  12.349  88.962  1.00  0.00     0.252 C 
HETATM   23  O   UNK A   0       4.808  12.622  87.784  1.00  0.00    -0.268 OA
ENDBRANCH  19  22
ENDBRANCH  15  16
ENDBRANCH  11  14
ENDBRANCH   7   8
ENDBRANCH   2   7
TORSDOF 9
ENDMDL
MODEL 5
REMARK VINA RESULT:      -6.6      3.928     10.467
REMARK  9 active torsions:
REMARK  status: ('A' for Active; 'I' for Inactive)
REMARK    1  A    between atoms: N_3  and  C_6 
REMARK    2  A    between atoms: C_6  and  C_9 
REMARK    3  A    between atoms: C_14  and  C_17 
REMARK       I    between atoms: N_26  and  C_15 
REMARK    4  A    between atoms: C_15  and  C_16 
REMARK    5  A    between atoms: C_20  and  C_23 
REMARK    6  A    between atoms: OG1_24  and  CB_28 
REMARK    7  A    between atoms: N_26  and  CA_27 
REMARK    8  A    between atoms: CA_27  and  CB_28 
REMARK    9  A    between atoms: CA_27  and  C_30 
ROOT
HETATM    1  O   UNK A   0      14.631   3.372  92.107  1.00  0.00    -0.388 OA
HETATM    2  N   UNK A   0      11.906   4.185  92.215  1.00  0.00     0.096 N 
HETATM    3  C   UNK A   0      12.483   3.296  93.233  1.00  0.00     0.299 C 
HETATM    4  C   UNK A   0      12.604   4.004  90.934  1.00  0.00     0.299 C 
HETATM    5  C   UNK A   0      13.980   3.564  93.364  1.00  0.00     0.198 C 
HETATM    6  C   UNK A   0      14.097   4.254  91.119  1.00  0.00     0.198 C 
ENDROOT
BRANCH   2   7
HETATM    7  C   UNK A   0      10.472   3.938  92.065  1.00  0.00     0.311 C 
BRANCH   7   8
HETATM    8  C   UNK A   0       9.709   5.185  91.775  1.00  0.00    -0.030 A 
HETATM    9  C   UNK A   0       9.836   6.291  92.616  1.00  0.00     0.010 A 
HETATM   10  C   UNK A   0       9.120   7.457  92.347  1.00  0.00     0.021 A 
HETATM   11  C   UNK A   0       8.279   7.518  91.237  1.00  0.00     0.018 A 
HETATM   12  C   UNK A   0       8.152   6.414  90.396  1.00  0.00     0.021 A 
HETATM   13  C   UNK A   0       8.867   5.247  90.665  1.00  0.00     0.010 A 
BRANCH  11  14
HETATM   14  C   UNK A   0       7.547   8.715  90.960  1.00  0.00    -0.061 C 
HETATM   15  C   UNK A   0       6.931   9.722  90.726  1.00  0.00    -0.061 C 
BRANCH  15  16
HETATM   16  C   UNK A   0       6.199  10.918  90.449  1.00  0.00     0.018 A 
HETATM   17  C   UNK A   0       6.403  11.597  89.248  1.00  0.00     0.022 A 
HETATM   18  C   UNK A   0       5.686  12.762  88.976  1.00  0.00     0.018 A 
HETATM   19  C   UNK A   0       4.782  13.221  89.910  1.00  0.00     0.032 A 
HETATM   20  C   UNK A   0       4.562  12.569  91.105  1.00  0.00     0.018 A 
HETATM   21  C   UNK A   0       5.278  11.403  91.378  1.00  0.00     0.022 A 
BRANCH  19  22
HETATM   22  C   UNK A   0       4.020  14.464  89.621  1.00  0.00     0.252 C 
HETATM   23  O   UNK A   0       4.629  15.522  89.480  1.00  0.00    -0.268 OA
ENDBRANCH  19  22
ENDBRANCH  15  16
ENDBRANCH  11  14
ENDBRANCH   7   8
ENDBRANCH   2   7
TORSDOF 9
ENDMDL
MODEL 6
REMARK VINA RESULT:      -6.6      1.776      2.448
REMARK  9 active torsions:
REMARK  status: ('A' for Active; 'I' for Inactive)
REMARK    1  A    between atoms: N_3  and  C_6 
REMARK    2  A    between atoms: C_6  and  C_9 
REMARK    3  A    between atoms: C_14  and  C_17 
REMARK       I    between atoms: N_26  and  C_15 
REMARK    4  A    between atoms: C_15  and  C_16 
REMARK    5  A    between atoms: C_20  and  C_23 
REMARK    6  A    between atoms: OG1_24  and  CB_28 
REMARK    7  A    between atoms: N_26  and  CA_27 
REMARK    8  A    between atoms: CA_27  and  CB_28 
REMARK    9  A    between atoms: CA_27  and  C_30 
ROOT
HETATM    1  O   UNK A   0       2.984  10.685  88.523  1.00  0.00    -0.388 OA
HETATM    2  N   UNK A   0       4.218   8.478  89.831  1.00  0.00     0.096 N 
HETATM    3  C   UNK A   0       3.674   8.358  88.471  1.00  0.00     0.299 C 
HETATM    4  C   UNK A   0       3.475   9.500  90.582  1.00  0.00     0.299 C 
HETATM    5  C   UNK A   0       3.721   9.716  87.774  1.00  0.00     0.198 C 
HETATM    6  C   UNK A   0       3.526  10.829  89.836  1.00  0.00     0.198 C 
ENDROOT
BRANCH   2   7
HETATM    7  C   UNK A   0       4.173   7.190  90.522  1.00  0.00     0.311 C 
BRANCH   7   8
HETATM    8  C   UNK A   0       5.533   6.657  90.818  1.00  0.00    -0.030 A 
HETATM    9  C   UNK A   0       6.232   5.949  89.839  1.00  0.00     0.010 A 
HETATM   10  C   UNK A   0       7.503   5.447  90.115  1.00  0.00     0.021 A 
HETATM   11  C   UNK A   0       8.077   5.656  91.369  1.00  0.00     0.018 A 
HETATM   12  C   UNK A   0       7.380   6.363  92.347  1.00  0.00     0.021 A 
HETATM   13  C   UNK A   0       6.108   6.864  92.071  1.00  0.00     0.010 A 
BRANCH  11  14
HETATM   14  C   UNK A   0       9.382   5.143  91.652  1.00  0.00    -0.061 C 
HETATM   15  C   UNK A   0      10.479   4.712  91.889  1.00  0.00    -0.061 C 
BRANCH  15  16
HETATM   16  C   UNK A   0      11.784   4.200  92.170  1.00  0.00     0.018 A 
HETATM   17  C   UNK A   0      12.064   3.658  93.425  1.00  0.00     0.022 A 
HETATM   18  C   UNK A   0      13.336   3.156  93.699  1.00  0.00     0.018 A 
HETATM   19  C   UNK A   0      14.299   3.206  92.712  1.00  0.00     0.032 A 
HETATM   20  C   UNK A   0      14.047   3.737  91.465  1.00  0.00     0.018 A 
HETATM   21  C   UNK A   0      12.775   4.239  91.190  1.00  0.00     0.022 A 
BRANCH  19  22
HETATM   22  C   UNK A   0      15.654   2.673  93.005  1.00  0.00     0.252 C 
HETATM   23  O   UNK A   0      16.335   3.209  93.876  1.00  0.00    -0.268 OA
ENDBRANCH  19  22
ENDBRANCH  15  16
ENDBRANCH  11  14
ENDBRANCH   7   8
ENDBRANCH   2   7
TORSDOF 9
ENDMDL
MODEL 7
REMARK VINA RESULT:      -6.4      3.656     10.332
REMARK  9 active torsions:
REMARK  status: ('A' for Active; 'I' for Inactive)
REMARK    1  A    between atoms: N_3  and  C_6 
REMARK    2  A    between atoms: C_6  and  C_9 
REMARK    3  A    between atoms: C_14  and  C_17 
REMARK       I    between atoms: N_26  and  C_15 
REMARK    4  A    between atoms: C_15  and  C_16 
REMARK    5  A    between atoms: C_20  and  C_23 
REMARK    6  A    between atoms: OG1_24  and  CB_28 
REMARK    7  A    between atoms: N_26  and  CA_27 
REMARK    8  A    between atoms: CA_27  and  CB_28 
REMARK    9  A    between atoms: CA_27  and  C_30 
ROOT
HETATM    1  O   UNK A   0      14.193   2.848  92.761  1.00  0.00    -0.388 OA
HETATM    2  N   UNK A   0      12.131   4.095  91.245  1.00  0.00     0.096 N 
HETATM    3  C   UNK A   0      11.865   2.913  92.076  1.00  0.00     0.299 C 
HETATM    4  C   UNK A   0      13.526   4.081  90.782  1.00  0.00     0.299 C 
HETATM    5  C   UNK A   0      12.848   2.870  93.244  1.00  0.00     0.198 C 
HETATM    6  C   UNK A   0      14.469   4.010  91.978  1.00  0.00     0.198 C 
ENDROOT
BRANCH   2   7
HETATM    7  C   UNK A   0      11.208   4.151  90.114  1.00  0.00     0.311 C 
BRANCH   7   8
HETATM    8  C   UNK A   0      10.310   5.340  90.171  1.00  0.00    -0.030 A 
HETATM    9  C   UNK A   0       9.859   5.929  88.990  1.00  0.00     0.010 A 
HETATM   10  C   UNK A   0       9.021   7.043  89.042  1.00  0.00     0.021 A 
HETATM   11  C   UNK A   0       8.633   7.565  90.276  1.00  0.00     0.018 A 
HETATM   12  C   UNK A   0       9.082   6.977  91.456  1.00  0.00     0.021 A 
HETATM   13  C   UNK A   0       9.921   5.863  91.404  1.00  0.00     0.010 A 
BRANCH  11  14
HETATM   14  C   UNK A   0       7.771   8.706  90.330  1.00  0.00    -0.061 C 
HETATM   15  C   UNK A   0       7.047   9.664  90.374  1.00  0.00    -0.061 C 
BRANCH  15  16
HETATM   16  C   UNK A   0       6.185  10.804  90.428  1.00  0.00     0.018 A 
HETATM   17  C   UNK A   0       6.057  11.633  89.314  1.00  0.00     0.022 A 
HETATM   18  C   UNK A   0       5.214  12.744  89.366  1.00  0.00     0.018 A 
HETATM   19  C   UNK A   0       4.519  12.999  90.529  1.00  0.00     0.032 A 
HETATM   20  C   UNK A   0       4.629  12.195  91.644  1.00  0.00     0.018 A 
HETATM   21  C   UNK A   0       5.472  11.084  91.593  1.00  0.00     0.022 A 
BRANCH  19  22
HETATM   22  C   UNK A   0       3.623  14.183  90.585  1.00  0.00     0.252 C 
HETATM   23  O   UNK A   0       2.554  14.156  89.979  1.00  0.00    -0.268 OA
ENDBRANCH  19  22
ENDBRANCH  15  16
ENDBRANCH  11  14
ENDBRANCH   7   8
ENDBRANCH   2   7
TORSDOF 9
ENDMDL
MODEL 8
REMARK VINA RESULT:      -6.3      3.526      4.418
REMARK  9 active torsions:
REMARK  status: ('A' for Active; 'I' for Inactive)
REMARK    1  A    between atoms: N_3  and  C_6 
REMARK    2  A    between atoms: C_6  and  C_9 
REMARK    3  A    between atoms: C_14  and  C_17 
REMARK       I    between atoms: N_26  and  C_15 
REMARK    4  A    between atoms: C_15  and  C_16 
REMARK    5  A    between atoms: C_20  and  C_23 
REMARK    6  A    between atoms: OG1_24  and  CB_28 
REMARK    7  A    between atoms: N_26  and  CA_27 
REMARK    8  A    between atoms: CA_27  and  CB_28 
REMARK    9  A    between atoms: CA_27  and  C_30 
ROOT
HETATM    1  O   UNK A   0       4.129  15.210  90.452  1.00  0.00    -0.388 OA
HETATM    2  N   UNK A   0       4.888  12.589  89.641  1.00  0.00     0.096 N 
HETATM    3  C   UNK A   0       4.759  13.686  88.671  1.00  0.00     0.299 C 
HETATM    4  C   UNK A   0       3.981  12.810  90.775  1.00  0.00     0.299 C 
HETATM    5  C   UNK A   0       5.032  15.020  89.361  1.00  0.00     0.198 C 
HETATM    6  C   UNK A   0       4.271  14.164  91.414  1.00  0.00     0.198 C 
ENDROOT
BRANCH   2   7
HETATM    7  C   UNK A   0       4.620  11.301  89.003  1.00  0.00     0.311 C 
BRANCH   7   8
HETATM    8  C   UNK A   0       5.627  10.265  89.371  1.00  0.00    -0.030 A 
HETATM    9  C   UNK A   0       6.910  10.650  89.765  1.00  0.00     0.010 A 
HETATM   10  C   UNK A   0       7.854   9.681  90.106  1.00  0.00     0.021 A 
HETATM   11  C   UNK A   0       7.514   8.330  90.056  1.00  0.00     0.018 A 
HETATM   12  C   UNK A   0       6.234   7.945  89.663  1.00  0.00     0.021 A 
HETATM   13  C   UNK A   0       5.290   8.913  89.321  1.00  0.00     0.010 A 
BRANCH  11  14
HETATM   14  C   UNK A   0       8.482   7.337  90.409  1.00  0.00    -0.061 C 
HETATM   15  C   UNK A   0       9.295   6.502  90.706  1.00  0.00    -0.061 C 
BRANCH  15  16
HETATM   16  C   UNK A   0      10.262   5.510  91.059  1.00  0.00     0.018 A 
HETATM   17  C   UNK A   0      10.529   5.245  92.403  1.00  0.00     0.022 A 
HETATM   18  C   UNK A   0      11.470   4.275  92.747  1.00  0.00     0.018 A 
HETATM   19  C   UNK A   0      12.121   3.591  91.742  1.00  0.00     0.032 A 
HETATM   20  C   UNK A   0      11.875   3.835  90.407  1.00  0.00     0.018 A 
HETATM   21  C   UNK A   0      10.934   4.805  90.061  1.00  0.00     0.022 A 
BRANCH  19  22
HETATM   22  C   UNK A   0      13.125   2.559  92.110  1.00  0.00     0.252 C 
HETATM   23  O   UNK A   0      14.236   2.914  92.495  1.00  0.00    -0.268 OA
ENDBRANCH  19  22
ENDBRANCH  15  16
ENDBRANCH  11  14
ENDBRANCH   7   8
ENDBRANCH   2   7
TORSDOF 9
ENDMDL
MODEL 9
REMARK VINA RESULT:      -6.3      1.607      2.003
REMARK  9 active torsions:
REMARK  status: ('A' for Active; 'I' for Inactive)
REMARK    1  A    between atoms: N_3  and  C_6 
REMARK    2  A    between atoms: C_6  and  C_9 
REMARK    3  A    between atoms: C_14  and  C_17 
REMARK       I    between atoms: N_26  and  C_15 
REMARK    4  A    between atoms: C_15  and  C_16 
REMARK    5  A    between atoms: C_20  and  C_23 
REMARK    6  A    between atoms: OG1_24  and  CB_28 
REMARK    7  A    between atoms: N_26  and  CA_27 
REMARK    8  A    between atoms: CA_27  and  CB_28 
REMARK    9  A    between atoms: CA_27  and  C_30 
ROOT
HETATM    1  O   UNK A   0       3.841   6.780  86.834  1.00  0.00    -0.388 OA
HETATM    2  N   UNK A   0       4.543   8.694  88.820  1.00  0.00     0.096 N 
HETATM    3  C   UNK A   0       5.560   8.067  87.965  1.00  0.00     0.299 C 
HETATM    4  C   UNK A   0       3.404   7.783  88.999  1.00  0.00     0.299 C 
HETATM    5  C   UNK A   0       4.939   7.672  86.628  1.00  0.00     0.198 C 
HETATM    6  C   UNK A   0       2.834   7.394  87.638  1.00  0.00     0.198 C 
ENDROOT
BRANCH   2   7
HETATM    7  C   UNK A   0       5.114   9.072  90.112  1.00  0.00     0.311 C 
BRANCH   7   8
HETATM    8  C   UNK A   0       6.308   8.253  90.466  1.00  0.00    -0.030 A 
HETATM    9  C   UNK A   0       7.587   8.713  90.151  1.00  0.00     0.010 A 
HETATM   10  C   UNK A   0       8.705   7.947  90.480  1.00  0.00     0.021 A 
HETATM   11  C   UNK A   0       8.543   6.722  91.126  1.00  0.00     0.018 A 
HETATM   12  C   UNK A   0       7.266   6.261  91.442  1.00  0.00     0.021 A 
HETATM   13  C   UNK A   0       6.148   7.027  91.112  1.00  0.00     0.010 A 
BRANCH  11  14
HETATM   14  C   UNK A   0       9.690   5.937  91.466  1.00  0.00    -0.061 C 
HETATM   15  C   UNK A   0      10.654   5.278  91.751  1.00  0.00    -0.061 C 
BRANCH  15  16
HETATM   16  C   UNK A   0      11.800   4.494  92.091  1.00  0.00     0.018 A 
HETATM   17  C   UNK A   0      11.929   3.969  93.378  1.00  0.00     0.022 A 
HETATM   18  C   UNK A   0      13.046   3.202  93.708  1.00  0.00     0.018 A 
HETATM   19  C   UNK A   0      14.008   2.976  92.747  1.00  0.00     0.032 A 
HETATM   20  C   UNK A   0      13.904   3.484  91.468  1.00  0.00     0.018 A 
HETATM   21  C   UNK A   0      12.788   4.251  91.137  1.00  0.00     0.022 A 
BRANCH  19  22
HETATM   22  C   UNK A   0      15.198   2.161  93.100  1.00  0.00     0.252 C 
HETATM   23  O   UNK A   0      16.047   2.633  93.852  1.00  0.00    -0.268 OA
ENDBRANCH  19  22
ENDBRANCH  15  16
ENDBRANCH  11  14
ENDBRANCH   7   8
ENDBRANCH   2   7
TORSDOF 9
ENDMDL
