MODEL 1
REMARK VINA RESULT:      -6.2      0.000      0.000
REMARK  12 active torsions:
REMARK  status: ('A' for Active; 'I' for Inactive)
REMARK    1  A    between atoms: O_2  and  C_16 
REMARK    2  A    between atoms: N_5  and  C_9 
REMARK    3  A    between atoms: N_6  and  C_13 
REMARK       I    between atoms: N_6  and  C_22 
REMARK    4  A    between atoms: C_9  and  C_12 
REMARK    5  A    between atoms: C_13  and  C_16 
REMARK    6  A    between atoms: C_13  and  C_21 
REMARK    7  A    between atoms: C_19  and  C_24 
REMARK    8  A    between atoms: C_21  and  C_33 
REMARK    9  A    between atoms: C_22  and  C_23 
REMARK   10  A    between atoms: C_27  and  C_30 
REMARK   11  A    between atoms: C_33  and  C_34 
REMARK   12  A    between atoms: C_34  and  C_35 
ROOT
HETATM    1  O   UNL     1      16.351   4.371  94.115  1.00  0.00    -0.350 OA
HETATM    2  N   UNL     1      14.562   2.748  92.610  1.00  0.00     0.147 N 
HETATM    3  C   UNL     1      14.431   4.211  92.639  1.00  0.00     0.283 C 
HETATM    4  C   UNL     1      15.164   2.270  93.862  1.00  0.00     0.283 C 
HETATM    5  C   UNL     1      15.797   4.847  92.887  1.00  0.00     0.178 C 
HETATM    6  C   UNL     1      16.510   2.952  94.082  1.00  0.00     0.178 C 
ENDROOT
BRANCH   2   7
HETATM    7  C   UNL     1      13.263   2.116  92.384  1.00  0.00     0.277 C 
BRANCH   7   8
HETATM    8  C   UNL     1      12.148   3.106  92.351  1.00  0.00     0.011 A 
HETATM    9  C   UNL     1      11.917   3.931  93.453  1.00  0.00    -0.002 A 
HETATM   10  C   UNL     1      10.873   4.855  93.425  1.00  0.00     0.008 A 
HETATM   11  C   UNL     1      10.063   4.956  92.294  1.00  0.00     0.042 A 
HETATM   12  C   UNL     1      10.293   4.134  91.194  1.00  0.00     0.008 A 
HETATM   13  C   UNL     1      11.336   3.208  91.222  1.00  0.00    -0.002 A 
BRANCH  11  14
HETATM   14  C   UNL     1       8.994   5.907  92.265  1.00  0.00    -0.059 C 
HETATM   15  C   UNL     1       8.095   6.705  92.241  1.00  0.00    -0.059 C 
BRANCH  15  16
HETATM   16  C   UNL     1       7.027   7.655  92.212  1.00  0.00     0.042 A 
HETATM   17  C   UNL     1       5.705   7.215  92.144  1.00  0.00     0.008 A 
HETATM   18  C   UNL     1       4.663   8.142  92.119  1.00  0.00     0.005 A 
HETATM   19  C   UNL     1       4.966   9.487  92.162  1.00  0.00     0.056 A 
HETATM   20  C   UNL     1       6.265   9.947  92.228  1.00  0.00     0.005 A 
HETATM   21  C   UNL     1       7.307   9.021  92.253  1.00  0.00     0.008 A 
BRANCH  19  22
HETATM   22  C   UNL     1       3.856  10.474  92.132  1.00  0.00     0.254 C 
HETATM   23  O   UNL     1       2.734  10.125  92.490  1.00  0.00    -0.268 OA
HETATM   24  N   UNL     1       4.192  11.754  91.714  1.00  0.00    -0.335 N 
HETATM   25  HN  UNL     1       5.147  11.976  91.458  1.00  0.00     0.164 HD
BRANCH  24  26
HETATM   26  C   UNL     1       3.232  12.828  91.655  1.00  0.00     0.166 C 
BRANCH  26  27
HETATM   27  C   UNL     1       3.193  13.661  92.942  1.00  0.00     0.138 C 
HETATM   28  C   UNL     1       2.312  13.034  94.017  1.00  0.00     0.034 C 
BRANCH  27  29
HETATM   29  O   UNL     1       4.517  13.808  93.456  1.00  0.00    -0.383 OA
HETATM   30  H   UNL     1       4.871  14.659  93.148  1.00  0.00     0.210 HD
ENDBRANCH  27  29
ENDBRANCH  26  27
BRANCH  26  31
HETATM   31  C   UNL     1       3.574  13.692  90.446  1.00  0.00     0.181 C 
HETATM   32  O   UNL     1       3.653  14.917  90.499  1.00  0.00    -0.294 OA
BRANCH  31  33
HETATM   33  C   UNL     1       4.922  13.183  89.704  1.00  0.00     0.138 C 
BRANCH  33  34
HETATM   34  C   UNL     1       4.403  12.736  88.468  1.00  0.00     0.208 C 
HETATM   35  O   UNL     1       4.849  13.271  87.479  1.00  0.00    -0.289 OA
BRANCH  34  36
HETATM   36  C   UNL     1       3.692  11.609  88.161  1.00  0.00     0.194 C 
HETATM   37  O   UNL     1       2.888  10.798  88.969  1.00  0.00    -0.185 OA
ENDBRANCH  34  36
ENDBRANCH  33  34
ENDBRANCH  31  33
ENDBRANCH  26  31
ENDBRANCH  24  26
ENDBRANCH  19  22
ENDBRANCH  15  16
ENDBRANCH  11  14
ENDBRANCH   7   8
ENDBRANCH   2   7
TORSDOF 12
ENDMDL
MODEL 2
REMARK VINA RESULT:      -4.9      2.610     12.680
REMARK  12 active torsions:
REMARK  status: ('A' for Active; 'I' for Inactive)
REMARK    1  A    between atoms: O_2  and  C_16 
REMARK    2  A    between atoms: N_5  and  C_9 
REMARK    3  A    between atoms: N_6  and  C_13 
REMARK       I    between atoms: N_6  and  C_22 
REMARK    4  A    between atoms: C_9  and  C_12 
REMARK    5  A    between atoms: C_13  and  C_16 
REMARK    6  A    between atoms: C_13  and  C_21 
REMARK    7  A    between atoms: C_19  and  C_24 
REMARK    8  A    between atoms: C_21  and  C_33 
REMARK    9  A    between atoms: C_22  and  C_23 
REMARK   10  A    between atoms: C_27  and  C_30 
REMARK   11  A    between atoms: C_33  and  C_34 
REMARK   12  A    between atoms: C_34  and  C_35 
ROOT
HETATM    1  O   UNL     1       2.769  14.594  93.873  1.00  0.00    -0.350 OA
HETATM    2  N   UNL     1       2.777  14.614  91.026  1.00  0.00     0.147 N 
HETATM    3  C   UNL     1       1.650  14.057  91.787  1.00  0.00     0.283 C 
HETATM    4  C   UNL     1       4.020  14.480  91.797  1.00  0.00     0.283 C 
HETATM    5  C   UNL     1       1.550  14.749  93.144  1.00  0.00     0.178 C 
HETATM    6  C   UNL     1       3.865  15.160  93.154  1.00  0.00     0.178 C 
ENDROOT
BRANCH   2   7
HETATM    7  C   UNL     1       2.898  13.958  89.726  1.00  0.00     0.277 C 
BRANCH   7   8
HETATM    8  C   UNL     1       3.829  12.794  89.761  1.00  0.00     0.011 A 
HETATM    9  C   UNL     1       5.110  12.910  89.219  1.00  0.00    -0.002 A 
HETATM   10  C   UNL     1       5.981  11.822  89.249  1.00  0.00     0.008 A 
HETATM   11  C   UNL     1       5.572  10.619  89.824  1.00  0.00     0.042 A 
HETATM   12  C   UNL     1       4.294  10.502  90.367  1.00  0.00     0.008 A 
HETATM   13  C   UNL     1       3.422  11.590  90.335  1.00  0.00    -0.002 A 
BRANCH  11  14
HETATM   14  C   UNL     1       6.467   9.503  89.858  1.00  0.00    -0.059 C 
HETATM   15  C   UNL     1       7.219   8.565  89.885  1.00  0.00    -0.059 C 
BRANCH  15  16
HETATM   16  C   UNL     1       8.113   7.449  89.918  1.00  0.00     0.042 A 
HETATM   17  C   UNL     1       8.233   6.621  88.802  1.00  0.00     0.008 A 
HETATM   18  C   UNL     1       9.107   5.535  88.833  1.00  0.00     0.005 A 
HETATM   19  C   UNL     1       9.841   5.302  89.977  1.00  0.00     0.056 A 
HETATM   20  C   UNL     1       9.740   6.105  91.093  1.00  0.00     0.005 A 
HETATM   21  C   UNL     1       8.865   7.192  91.063  1.00  0.00     0.008 A 
BRANCH  19  22
HETATM   22  C   UNL     1      10.771   4.143  90.010  1.00  0.00     0.254 C 
HETATM   23  O   UNL     1      10.522   3.155  89.324  1.00  0.00    -0.268 OA
HETATM   24  N   UNL     1      11.890   4.284  90.819  1.00  0.00    -0.335 N 
HETATM   25  HN  UNL     1      12.042   5.141  91.338  1.00  0.00     0.164 HD
BRANCH  24  26
HETATM   26  C   UNL     1      12.896   3.259  90.937  1.00  0.00     0.166 C 
BRANCH  26  27
HETATM   27  C   UNL     1      14.318   3.828  91.006  1.00  0.00     0.138 C 
HETATM   28  C   UNL     1      15.325   2.978  90.238  1.00  0.00     0.034 C 
BRANCH  27  29
HETATM   29  O   UNL     1      14.329   5.153  90.473  1.00  0.00    -0.383 OA
HETATM   30  H   UNL     1      14.768   5.129  89.606  1.00  0.00     0.210 HD
ENDBRANCH  27  29
ENDBRANCH  26  27
BRANCH  26  31
HETATM   31  C   UNL     1      12.571   2.429  92.175  1.00  0.00     0.181 C 
HETATM   32  O   UNL     1      13.114   1.354  92.421  1.00  0.00    -0.294 OA
BRANCH  31  33
HETATM   33  C   UNL     1      12.670   3.308  93.533  1.00  0.00     0.138 C 
BRANCH  33  34
HETATM   34  C   UNL     1      14.070   3.422  93.683  1.00  0.00     0.208 C 
HETATM   35  O   UNL     1      14.511   4.547  93.724  1.00  0.00    -0.289 OA
BRANCH  34  36
HETATM   36  C   UNL     1      14.998   2.498  94.077  1.00  0.00     0.194 C 
HETATM   37  O   UNL     1      16.395   2.581  94.124  1.00  0.00    -0.185 OA
ENDBRANCH  34  36
ENDBRANCH  33  34
ENDBRANCH  31  33
ENDBRANCH  26  31
ENDBRANCH  24  26
ENDBRANCH  19  22
ENDBRANCH  15  16
ENDBRANCH  11  14
ENDBRANCH   7   8
ENDBRANCH   2   7
TORSDOF 12
ENDMDL
MODEL 3
REMARK VINA RESULT:      -4.4      2.571     12.649
REMARK  12 active torsions:
REMARK  status: ('A' for Active; 'I' for Inactive)
REMARK    1  A    between atoms: O_2  and  C_16 
REMARK    2  A    between atoms: N_5  and  C_9 
REMARK    3  A    between atoms: N_6  and  C_13 
REMARK       I    between atoms: N_6  and  C_22 
REMARK    4  A    between atoms: C_9  and  C_12 
REMARK    5  A    between atoms: C_13  and  C_16 
REMARK    6  A    between atoms: C_13  and  C_21 
REMARK    7  A    between atoms: C_19  and  C_24 
REMARK    8  A    between atoms: C_21  and  C_33 
REMARK    9  A    between atoms: C_22  and  C_23 
REMARK   10  A    between atoms: C_27  and  C_30 
REMARK   11  A    between atoms: C_33  and  C_34 
REMARK   12  A    between atoms: C_34  and  C_35 
ROOT
HETATM    1  O   UNL     1       2.652  14.841  94.079  1.00  0.00    -0.350 OA
HETATM    2  N   UNL     1       2.581  14.719  91.236  1.00  0.00     0.147 N 
HETATM    3  C   UNL     1       1.607  13.989  92.060  1.00  0.00     0.283 C 
HETATM    4  C   UNL     1       3.846  14.871  91.968  1.00  0.00     0.283 C 
HETATM    5  C   UNL     1       1.407  14.716  93.388  1.00  0.00     0.178 C 
HETATM    6  C   UNL     1       3.594  15.575  93.297  1.00  0.00     0.178 C 
ENDROOT
BRANCH   2   7
HETATM    7  C   UNL     1       2.797  14.034  89.963  1.00  0.00     0.277 C 
BRANCH   7   8
HETATM    8  C   UNL     1       3.804  12.940  90.069  1.00  0.00     0.011 A 
HETATM    9  C   UNL     1       3.584  11.874  90.942  1.00  0.00    -0.002 A 
HETATM   10  C   UNL     1       4.526  10.851  91.044  1.00  0.00     0.008 A 
HETATM   11  C   UNL     1       5.686  10.893  90.271  1.00  0.00     0.042 A 
HETATM   12  C   UNL     1       5.907  11.957  89.399  1.00  0.00     0.008 A 
HETATM   13  C   UNL     1       4.965  12.981  89.297  1.00  0.00    -0.002 A 
BRANCH  11  14
HETATM   14  C   UNL     1       6.652   9.842  90.374  1.00  0.00    -0.059 C 
HETATM   15  C   UNL     1       7.463   8.959  90.460  1.00  0.00    -0.059 C 
BRANCH  15  16
HETATM   16  C   UNL     1       8.428   7.909  90.562  1.00  0.00     0.042 A 
HETATM   17  C   UNL     1       8.621   7.256  91.780  1.00  0.00     0.008 A 
HETATM   18  C   UNL     1       9.561   6.230  91.879  1.00  0.00     0.005 A 
HETATM   19  C   UNL     1      10.285   5.880  90.759  1.00  0.00     0.056 A 
HETATM   20  C   UNL     1      10.113   6.509  89.544  1.00  0.00     0.005 A 
HETATM   21  C   UNL     1       9.174   7.536  89.444  1.00  0.00     0.008 A 
BRANCH  19  22
HETATM   22  C   UNL     1      11.287   4.788  90.865  1.00  0.00     0.254 C 
HETATM   23  O   UNL     1      11.690   4.242  89.841  1.00  0.00    -0.268 OA
HETATM   24  N   UNL     1      11.717   4.480  92.148  1.00  0.00    -0.335 N 
HETATM   25  HN  UNL     1      11.358   4.991  92.946  1.00  0.00     0.164 HD
BRANCH  24  26
HETATM   26  C   UNL     1      12.703   3.463  92.413  1.00  0.00     0.166 C 
BRANCH  26  27
HETATM   27  C   UNL     1      12.160   2.043  92.209  1.00  0.00     0.138 C 
HETATM   28  C   UNL     1      10.926   1.762  93.058  1.00  0.00     0.034 C 
BRANCH  27  29
HETATM   29  O   UNL     1      11.831   1.851  90.833  1.00  0.00    -0.383 OA
HETATM   30  H   UNL     1      11.009   1.334  90.786  1.00  0.00     0.210 HD
ENDBRANCH  27  29
ENDBRANCH  26  27
BRANCH  26  31
HETATM   31  C   UNL     1      13.904   3.732  91.511  1.00  0.00     0.181 C 
HETATM   32  O   UNL     1      14.351   4.860  91.312  1.00  0.00    -0.294 OA
BRANCH  31  33
HETATM   33  C   UNL     1      15.174   2.805  91.907  1.00  0.00     0.138 C 
BRANCH  33  34
HETATM   34  C   UNL     1      15.313   3.103  93.280  1.00  0.00     0.208 C 
HETATM   35  O   UNL     1      14.844   2.296  94.050  1.00  0.00    -0.289 OA
BRANCH  34  36
HETATM   36  C   UNL     1      16.130   3.997  93.916  1.00  0.00     0.194 C 
HETATM   37  O   UNL     1      16.198   5.391  93.816  1.00  0.00    -0.185 OA
ENDBRANCH  34  36
ENDBRANCH  33  34
ENDBRANCH  31  33
ENDBRANCH  26  31
ENDBRANCH  24  26
ENDBRANCH  19  22
ENDBRANCH  15  16
ENDBRANCH  11  14
ENDBRANCH   7   8
ENDBRANCH   2   7
TORSDOF 12
ENDMDL
MODEL 4
REMARK VINA RESULT:      -4.3      2.188     12.651
REMARK  12 active torsions:
REMARK  status: ('A' for Active; 'I' for Inactive)
REMARK    1  A    between atoms: O_2  and  C_16 
REMARK    2  A    between atoms: N_5  and  C_9 
REMARK    3  A    between atoms: N_6  and  C_13 
REMARK       I    between atoms: N_6  and  C_22 
REMARK    4  A    between atoms: C_9  and  C_12 
REMARK    5  A    between atoms: C_13  and  C_16 
REMARK    6  A    between atoms: C_13  and  C_21 
REMARK    7  A    between atoms: C_19  and  C_24 
REMARK    8  A    between atoms: C_21  and  C_33 
REMARK    9  A    between atoms: C_22  and  C_23 
REMARK   10  A    between atoms: C_27  and  C_30 
REMARK   11  A    between atoms: C_33  and  C_34 
REMARK   12  A    between atoms: C_34  and  C_35 
ROOT
HETATM    1  O   UNL     1       3.989  15.225  90.853  1.00  0.00    -0.350 OA
HETATM    2  N   UNL     1       2.537  13.825  92.861  1.00  0.00     0.147 N 
HETATM    3  C   UNL     1       3.894  14.331  93.107  1.00  0.00     0.283 C 
HETATM    4  C   UNL     1       2.365  13.520  91.433  1.00  0.00     0.283 C 
HETATM    5  C   UNL     1       4.156  15.555  92.233  1.00  0.00     0.178 C 
HETATM    6  C   UNL     1       2.663  14.762  90.599  1.00  0.00     0.178 C 
ENDROOT
BRANCH   2   7
HETATM    7  C   UNL     1       2.268  12.645  93.680  1.00  0.00     0.277 C 
BRANCH   7   8
HETATM    8  C   UNL     1       3.306  11.588  93.513  1.00  0.00     0.011 A 
HETATM    9  C   UNL     1       4.603  11.807  93.977  1.00  0.00    -0.002 A 
HETATM   10  C   UNL     1       5.576  10.820  93.819  1.00  0.00     0.008 A 
HETATM   11  C   UNL     1       5.250   9.614  93.199  1.00  0.00     0.042 A 
HETATM   12  C   UNL     1       3.955   9.395  92.735  1.00  0.00     0.008 A 
HETATM   13  C   UNL     1       2.982  10.382  92.892  1.00  0.00    -0.002 A 
BRANCH  11  14
HETATM   14  C   UNL     1       6.248   8.601  93.039  1.00  0.00    -0.059 C 
HETATM   15  C   UNL     1       7.085   7.749  92.904  1.00  0.00    -0.059 C 
BRANCH  15  16
HETATM   16  C   UNL     1       8.082   6.736  92.744  1.00  0.00     0.042 A 
HETATM   17  C   UNL     1       7.878   5.697  91.835  1.00  0.00     0.008 A 
HETATM   18  C   UNL     1       8.851   4.711  91.676  1.00  0.00     0.005 A 
HETATM   19  C   UNL     1      10.005   4.785  92.429  1.00  0.00     0.056 A 
HETATM   20  C   UNL     1      10.229   5.801  93.334  1.00  0.00     0.005 A 
HETATM   21  C   UNL     1       9.257   6.788  93.493  1.00  0.00     0.008 A 
BRANCH  19  22
HETATM   22  C   UNL     1      11.040   3.732  92.261  1.00  0.00     0.254 C 
HETATM   23  O   UNL     1      10.706   2.551  92.297  1.00  0.00    -0.268 OA
HETATM   24  N   UNL     1      12.336   4.183  92.046  1.00  0.00    -0.335 N 
HETATM   25  HN  UNL     1      12.533   5.176  92.004  1.00  0.00     0.164 HD
BRANCH  24  26
HETATM   26  C   UNL     1      13.445   3.286  91.842  1.00  0.00     0.166 C 
BRANCH  26  27
HETATM   27  C   UNL     1      14.533   3.883  90.941  1.00  0.00     0.138 C 
HETATM   28  C   UNL     1      15.065   2.879  89.924  1.00  0.00     0.034 C 
BRANCH  27  29
HETATM   29  O   UNL     1      14.008   5.013  90.244  1.00  0.00    -0.383 OA
HETATM   30  H   UNL     1      13.043   5.018  90.354  1.00  0.00     0.210 HD
ENDBRANCH  27  29
ENDBRANCH  26  27
BRANCH  26  31
HETATM   31  C   UNL     1      14.002   2.914  93.212  1.00  0.00     0.181 C 
HETATM   32  O   UNL     1      13.396   2.202  94.011  1.00  0.00    -0.294 OA
BRANCH  31  33
HETATM   33  C   UNL     1      15.499   2.302  93.107  1.00  0.00     0.138 C 
BRANCH  33  34
HETATM   34  C   UNL     1      16.244   3.283  93.799  1.00  0.00     0.208 C 
HETATM   35  O   UNL     1      17.419   3.044  93.959  1.00  0.00    -0.289 OA
BRANCH  34  36
HETATM   36  C   UNL     1      15.948   4.589  94.078  1.00  0.00     0.194 C 
HETATM   37  O   UNL     1      16.448   5.769  93.516  1.00  0.00    -0.185 OA
ENDBRANCH  34  36
ENDBRANCH  33  34
ENDBRANCH  31  33
ENDBRANCH  26  31
ENDBRANCH  24  26
ENDBRANCH  19  22
ENDBRANCH  15  16
ENDBRANCH  11  14
ENDBRANCH   7   8
ENDBRANCH   2   7
TORSDOF 12
ENDMDL
