MODEL 1
REMARK VINA RESULT:      -6.8      0.000      0.000
REMARK  10 active torsions:
REMARK  status: ('A' for Active; 'I' for Inactive)
REMARK    1  A    between atoms: O_2  and  C_18 
REMARK    2  A    between atoms: O_5  and  N_8 
REMARK    3  A    between atoms: N_6  and  C_11 
REMARK    4  A    between atoms: N_7  and  C_15 
REMARK       I    between atoms: N_7  and  C_24 
REMARK       I    between atoms: N_8  and  C_23 
REMARK    5  A    between atoms: C_11  and  C_14 
REMARK    6  A    between atoms: C_15  and  C_18 
REMARK    7  A    between atoms: C_15  and  C_23 
REMARK    8  A    between atoms: C_21  and  C_26 
REMARK    9  A    between atoms: C_24  and  C_25 
REMARK   10  A    between atoms: C_29  and  C_32 
ROOT
HETATM    1  O   UNK     0      16.336   4.242  93.938  0.00  0.00    -0.388 OA
HETATM    2  N   UNK     0      14.520   2.458  92.664  0.00  0.00     0.096 N 
HETATM    3  C   UNK     0      14.425   3.913  92.478  0.00  0.00     0.299 C 
HETATM    4  C   UNK     0      15.097   2.156  93.981  0.00  0.00     0.299 C 
HETATM    5  C   UNK     0      15.804   4.546  92.647  0.00  0.00     0.198 C 
HETATM    6  C   UNK     0      16.460   2.830  94.115  0.00  0.00     0.198 C 
ENDROOT
BRANCH   2   7
HETATM    7  C   UNK     0      13.207   1.831  92.517  0.00  0.00     0.311 C 
BRANCH   7   8
HETATM    8  C   UNK     0      12.142   2.817  92.175  0.00  0.00    -0.030 A 
HETATM    9  C   UNK     0      11.590   3.621  93.173  0.00  0.00     0.010 A 
HETATM   10  C   UNK     0      10.593   4.542  92.854  0.00  0.00     0.021 A 
HETATM   11  C   UNK     0      10.149   4.660  91.537  0.00  0.00     0.018 A 
HETATM   12  C   UNK     0      10.699   3.857  90.540  0.00  0.00     0.021 A 
HETATM   13  C   UNK     0      11.697   2.936  90.858  0.00  0.00     0.010 A 
BRANCH  11  14
HETATM   14  C   UNK     0       9.127   5.606  91.210  0.00  0.00    -0.061 C 
HETATM   15  C   UNK     0       8.268   6.401  90.935  0.00  0.00    -0.061 C 
BRANCH  15  16
HETATM   16  C   UNK     0       7.248   7.347  90.608  0.00  0.00     0.018 A 
HETATM   17  C   UNK     0       6.049   7.353  91.322  0.00  0.00     0.022 A 
HETATM   18  C   UNK     0       5.054   8.277  91.004  0.00  0.00     0.018 A 
HETATM   19  C   UNK     0       5.280   9.175  89.982  0.00  0.00     0.032 A 
HETATM   20  C   UNK     0       6.455   9.190  89.262  0.00  0.00     0.018 A 
HETATM   21  C   UNK     0       7.450   8.265  89.578  0.00  0.00     0.022 A 
BRANCH  19  22
HETATM   22  C   UNK     0       4.218  10.159  89.644  0.00  0.00     0.252 C 
HETATM   23  O   UNK     0       3.287   9.811  88.922  0.00  0.00    -0.268 OA
HETATM   24  N   UNK     0       4.357  11.421  90.205  0.00  0.00    -0.341 N 
HETATM   25  H   UNK     0       5.141  11.628  90.813  0.00  0.00     0.163 HD
BRANCH  24  26
HETATM   26  C   UNK     0       3.398  12.474  89.991  0.00  0.00     0.207 C 
BRANCH  26  27
HETATM   27  C   UNK     0       3.033  13.216  91.283  0.00  0.00     0.146 C 
HETATM   28  C   UNK     0       2.112  12.401  92.184  0.00  0.00     0.042 C 
BRANCH  27  29
HETATM   29  O   UNK     0       4.223  13.534  92.004  0.00  0.00    -0.393 OA
HETATM   30  H   UNK     0       4.256  14.498  92.128  0.00  0.00     0.210 HD
ENDBRANCH  27  29
ENDBRANCH  26  27
BRANCH  26  31
HETATM   31  C   UNK     0       3.977  13.426  88.950  0.00  0.00     0.266 C 
HETATM   32  O   UNK     0       4.069  14.640  89.129  0.00  0.00    -0.269 OA
HETATM   33  N   UNK     0       4.339  12.775  87.795  0.00  0.00    -0.236 N 
HETATM   34  H   UNK     0       4.195  11.795  87.581  0.00  0.00     0.197 HD
BRANCH  33  35
HETATM   35  O   UNK     0       4.846  13.587  86.771  0.00  0.00    -0.287 OA
HETATM   36  H   UNK     0       5.762  13.703  87.077  0.00  0.00     0.244 HD
ENDBRANCH  33  35
ENDBRANCH  26  31
ENDBRANCH  24  26
ENDBRANCH  19  22
ENDBRANCH  15  16
ENDBRANCH  11  14
ENDBRANCH   7   8
ENDBRANCH   2   7
TORSDOF 10
ENDMDL
