MODEL 1
REMARK VINA RESULT:      -7.5      0.000      0.000
REMARK  9 active torsions:
REMARK  status: ('A' for Active; 'I' for Inactive)
REMARK    1  A    between atoms: N_3  and  C_6 
REMARK    2  A    between atoms: C_6  and  C_9 
REMARK    3  A    between atoms: C_14  and  C_17 
REMARK       I    between atoms: N_26  and  C_15 
REMARK    4  A    between atoms: C_15  and  C_16 
REMARK    5  A    between atoms: C_20  and  C_23 
REMARK    6  A    between atoms: OG1_24  and  CB_28 
REMARK    7  A    between atoms: N_26  and  CA_27 
REMARK    8  A    between atoms: CA_27  and  CB_28 
REMARK    9  A    between atoms: CA_27  and  C_30 
ROOT
HETATM    1  O   UNK A   0       1.895   8.141  87.835  1.00  0.00    -0.388 OA
HETATM    2  N   UNK A   0       4.683   7.588  87.675  1.00  0.00     0.096 N 
HETATM    3  C   UNK A   0       4.177   8.964  87.771  1.00  0.00     0.299 C 
HETATM    4  C   UNK A   0       3.689   6.732  87.011  1.00  0.00     0.299 C 
HETATM    5  C   UNK A   0       2.841   8.974  88.509  1.00  0.00     0.198 C 
HETATM    6  C   UNK A   0       2.365   6.795  87.765  1.00  0.00     0.198 C 
ENDROOT
BRANCH   2   7
HETATM    7  C   UNK A   0       5.958   7.553  86.961  1.00  0.00     0.311 C 
BRANCH   7   8
HETATM    8  C   UNK A   0       7.050   6.951  87.779  1.00  0.00    -0.030 A 
HETATM    9  C   UNK A   0       8.297   6.706  87.203  1.00  0.00     0.010 A 
HETATM   10  C   UNK A   0       9.318   6.140  87.966  1.00  0.00     0.021 A 
HETATM   11  C   UNK A   0       9.093   5.823  89.305  1.00  0.00     0.018 A 
HETATM   12  C   UNK A   0       7.848   6.067  89.881  1.00  0.00     0.021 A 
HETATM   13  C   UNK A   0       6.826   6.632  89.118  1.00  0.00     0.010 A 
BRANCH  11  14
HETATM   14  C   UNK A   0      10.141   5.245  90.088  1.00  0.00    -0.061 C 
HETATM   15  C   UNK A   0      11.023   4.760  90.746  1.00  0.00    -0.061 C 
BRANCH  15  16
HETATM   16  C   UNK A   0      12.071   4.183  91.529  1.00  0.00     0.018 A 
HETATM   17  C   UNK A   0      11.827   3.808  92.851  1.00  0.00     0.022 A 
HETATM   18  C   UNK A   0      12.848   3.243  93.614  1.00  0.00     0.018 A 
HETATM   19  C   UNK A   0      14.089   3.064  93.039  1.00  0.00     0.032 A 
HETATM   20  C   UNK A   0      14.355   3.426  91.735  1.00  0.00     0.018 A 
HETATM   21  C   UNK A   0      13.335   3.992  90.971  1.00  0.00     0.022 A 
BRANCH  19  22
HETATM   22  C   UNK A   0      15.178   2.464  93.853  1.00  0.00     0.252 C 
HETATM   23  O   UNK A   0      16.334   2.842  93.682  1.00  0.00    -0.268 OA
ENDBRANCH  19  22
ENDBRANCH  15  16
ENDBRANCH  11  14
ENDBRANCH   7   8
ENDBRANCH   2   7
TORSDOF 9
ENDMDL
MODEL 2
REMARK VINA RESULT:      -7.5      0.060      1.425
REMARK  9 active torsions:
REMARK  status: ('A' for Active; 'I' for Inactive)
REMARK    1  A    between atoms: N_3  and  C_6 
REMARK    2  A    between atoms: C_6  and  C_9 
REMARK    3  A    between atoms: C_14  and  C_17 
REMARK       I    between atoms: N_26  and  C_15 
REMARK    4  A    between atoms: C_15  and  C_16 
REMARK    5  A    between atoms: C_20  and  C_23 
REMARK    6  A    between atoms: OG1_24  and  CB_28 
REMARK    7  A    between atoms: N_26  and  CA_27 
REMARK    8  A    between atoms: CA_27  and  CB_28 
REMARK    9  A    between atoms: CA_27  and  C_30 
ROOT
HETATM    1  O   UNK A   0       1.895   8.110  87.836  1.00  0.00    -0.388 OA
HETATM    2  N   UNK A   0       4.687   7.580  87.676  1.00  0.00     0.096 N 
HETATM    3  C   UNK A   0       4.171   8.950  87.807  1.00  0.00     0.299 C 
HETATM    4  C   UNK A   0       3.703   6.736  86.983  1.00  0.00     0.299 C 
HETATM    5  C   UNK A   0       2.831   8.930  88.537  1.00  0.00     0.198 C 
HETATM    6  C   UNK A   0       2.374   6.769  87.731  1.00  0.00     0.198 C 
ENDROOT
BRANCH   2   7
HETATM    7  C   UNK A   0       5.966   7.574  86.969  1.00  0.00     0.311 C 
BRANCH   7   8
HETATM    8  C   UNK A   0       7.059   6.961  87.778  1.00  0.00    -0.030 A 
HETATM    9  C   UNK A   0       6.872   6.734  89.142  1.00  0.00     0.010 A 
HETATM   10  C   UNK A   0       7.894   6.164  89.900  1.00  0.00     0.021 A 
HETATM   11  C   UNK A   0       9.101   5.818  89.293  1.00  0.00     0.018 A 
HETATM   12  C   UNK A   0       9.289   6.044  87.931  1.00  0.00     0.021 A 
HETATM   13  C   UNK A   0       8.267   6.615  87.173  1.00  0.00     0.010 A 
BRANCH  11  14
HETATM   14  C   UNK A   0      10.149   5.231  90.071  1.00  0.00    -0.061 C 
HETATM   15  C   UNK A   0      11.029   4.736  90.724  1.00  0.00    -0.061 C 
BRANCH  15  16
HETATM   16  C   UNK A   0      12.076   4.148  91.500  1.00  0.00     0.018 A 
HETATM   17  C   UNK A   0      13.332   3.939  90.931  1.00  0.00     0.022 A 
HETATM   18  C   UNK A   0      14.354   3.368  91.689  1.00  0.00     0.018 A 
HETATM   19  C   UNK A   0      14.097   3.020  92.999  1.00  0.00     0.032 A 
HETATM   20  C   UNK A   0      12.864   3.216  93.585  1.00  0.00     0.018 A 
HETATM   21  C   UNK A   0      11.842   3.787  92.827  1.00  0.00     0.022 A 
BRANCH  19  22
HETATM   22  C   UNK A   0      15.186   2.410  93.806  1.00  0.00     0.252 C 
HETATM   23  O   UNK A   0      16.335   2.822  93.671  1.00  0.00    -0.268 OA
ENDBRANCH  19  22
ENDBRANCH  15  16
ENDBRANCH  11  14
ENDBRANCH   7   8
ENDBRANCH   2   7
TORSDOF 9
ENDMDL
MODEL 3
REMARK VINA RESULT:      -7.0      0.994      1.794
REMARK  9 active torsions:
REMARK  status: ('A' for Active; 'I' for Inactive)
REMARK    1  A    between atoms: N_3  and  C_6 
REMARK    2  A    between atoms: C_6  and  C_9 
REMARK    3  A    between atoms: C_14  and  C_17 
REMARK       I    between atoms: N_26  and  C_15 
REMARK    4  A    between atoms: C_15  and  C_16 
REMARK    5  A    between atoms: C_20  and  C_23 
REMARK    6  A    between atoms: OG1_24  and  CB_28 
REMARK    7  A    between atoms: N_26  and  CA_27 
REMARK    8  A    between atoms: CA_27  and  CB_28 
REMARK    9  A    between atoms: CA_27  and  C_30 
ROOT
HETATM    1  O   UNK A   0       2.274   9.712  89.401  1.00  0.00    -0.388 OA
HETATM    2  N   UNK A   0       4.553   8.110  88.819  1.00  0.00     0.096 N 
HETATM    3  C   UNK A   0       4.442   9.493  88.333  1.00  0.00     0.299 C 
HETATM    4  C   UNK A   0       3.216   7.520  88.966  1.00  0.00     0.299 C 
HETATM    5  C   UNK A   0       3.568  10.306  89.285  1.00  0.00     0.198 C 
HETATM    6  C   UNK A   0       2.371   8.378  89.902  1.00  0.00     0.198 C 
ENDROOT
BRANCH   2   7
HETATM    7  C   UNK A   0       5.379   7.310  87.916  1.00  0.00     0.311 C 
BRANCH   7   8
HETATM    8  C   UNK A   0       6.582   6.749  88.594  1.00  0.00    -0.030 A 
HETATM    9  C   UNK A   0       6.443   6.042  89.789  1.00  0.00     0.010 A 
HETATM   10  C   UNK A   0       7.568   5.519  90.425  1.00  0.00     0.021 A 
HETATM   11  C   UNK A   0       8.832   5.701  89.865  1.00  0.00     0.018 A 
HETATM   12  C   UNK A   0       8.973   6.407  88.672  1.00  0.00     0.021 A 
HETATM   13  C   UNK A   0       7.848   6.931  88.036  1.00  0.00     0.010 A 
BRANCH  11  14
HETATM   14  C   UNK A   0       9.987   5.163  90.516  1.00  0.00    -0.061 C 
HETATM   15  C   UNK A   0      10.957   4.711  91.064  1.00  0.00    -0.061 C 
BRANCH  15  16
HETATM   16  C   UNK A   0      12.111   4.174  91.715  1.00  0.00     0.018 A 
HETATM   17  C   UNK A   0      13.344   4.177  91.063  1.00  0.00     0.022 A 
HETATM   18  C   UNK A   0      14.470   3.655  91.700  1.00  0.00     0.018 A 
HETATM   19  C   UNK A   0      14.338   3.143  92.974  1.00  0.00     0.032 A 
HETATM   20  C   UNK A   0      13.130   3.127  93.639  1.00  0.00     0.018 A 
HETATM   21  C   UNK A   0      12.003   3.649  93.003  1.00  0.00     0.022 A 
BRANCH  19  22
HETATM   22  C   UNK A   0      15.537   2.585  93.651  1.00  0.00     0.252 C 
HETATM   23  O   UNK A   0      16.496   3.320  93.874  1.00  0.00    -0.268 OA
ENDBRANCH  19  22
ENDBRANCH  15  16
ENDBRANCH  11  14
ENDBRANCH   7   8
ENDBRANCH   2   7
TORSDOF 9
ENDMDL
MODEL 4
REMARK VINA RESULT:      -6.8      1.443      2.068
REMARK  9 active torsions:
REMARK  status: ('A' for Active; 'I' for Inactive)
REMARK    1  A    between atoms: N_3  and  C_6 
REMARK    2  A    between atoms: C_6  and  C_9 
REMARK    3  A    between atoms: C_14  and  C_17 
REMARK       I    between atoms: N_26  and  C_15 
REMARK    4  A    between atoms: C_15  and  C_16 
REMARK    5  A    between atoms: C_20  and  C_23 
REMARK    6  A    between atoms: OG1_24  and  CB_28 
REMARK    7  A    between atoms: N_26  and  CA_27 
REMARK    8  A    between atoms: CA_27  and  CB_28 
REMARK    9  A    between atoms: CA_27  and  C_30 
ROOT
HETATM    1  O   UNK A   0       2.916  11.039  89.747  1.00  0.00    -0.388 OA
HETATM    2  N   UNK A   0       4.779   9.185  88.654  1.00  0.00     0.096 N 
HETATM    3  C   UNK A   0       3.823   9.906  87.802  1.00  0.00     0.299 C 
HETATM    4  C   UNK A   0       4.219   9.009  90.001  1.00  0.00     0.299 C 
HETATM    5  C   UNK A   0       3.465  11.244  88.444  1.00  0.00     0.198 C 
HETATM    6  C   UNK A   0       3.851  10.367  90.591  1.00  0.00     0.198 C 
ENDROOT
BRANCH   2   7
HETATM    7  C   UNK A   0       5.128   7.894  88.063  1.00  0.00     0.311 C 
BRANCH   7   8
HETATM    8  C   UNK A   0       6.311   7.270  88.722  1.00  0.00    -0.030 A 
HETATM    9  C   UNK A   0       7.574   7.844  88.574  1.00  0.00     0.010 A 
HETATM   10  C   UNK A   0       8.682   7.259  89.188  1.00  0.00     0.021 A 
HETATM   11  C   UNK A   0       8.525   6.102  89.951  1.00  0.00     0.018 A 
HETATM   12  C   UNK A   0       7.264   5.529  90.099  1.00  0.00     0.021 A 
HETATM   13  C   UNK A   0       6.156   6.113  89.485  1.00  0.00     0.010 A 
BRANCH  11  14
HETATM   14  C   UNK A   0       9.661   5.504  90.582  1.00  0.00    -0.061 C 
HETATM   15  C   UNK A   0      10.616   5.001  91.112  1.00  0.00    -0.061 C 
BRANCH  15  16
HETATM   16  C   UNK A   0      11.751   4.403  91.743  1.00  0.00     0.018 A 
HETATM   17  C   UNK A   0      12.945   4.260  91.035  1.00  0.00     0.022 A 
HETATM   18  C   UNK A   0      14.054   3.679  91.652  1.00  0.00     0.018 A 
HETATM   19  C   UNK A   0      13.944   3.257  92.960  1.00  0.00     0.032 A 
HETATM   20  C   UNK A   0      12.775   3.387  93.680  1.00  0.00     0.018 A 
HETATM   21  C   UNK A   0      11.666   3.967  93.065  1.00  0.00     0.022 A 
BRANCH  19  22
HETATM   22  C   UNK A   0      15.125   2.637  93.615  1.00  0.00     0.252 C 
HETATM   23  O   UNK A   0      16.202   3.227  93.593  1.00  0.00    -0.268 OA
ENDBRANCH  19  22
ENDBRANCH  15  16
ENDBRANCH  11  14
ENDBRANCH   7   8
ENDBRANCH   2   7
TORSDOF 9
ENDMDL
MODEL 5
REMARK VINA RESULT:      -6.6      3.927     10.457
REMARK  9 active torsions:
REMARK  status: ('A' for Active; 'I' for Inactive)
REMARK    1  A    between atoms: N_3  and  C_6 
REMARK    2  A    between atoms: C_6  and  C_9 
REMARK    3  A    between atoms: C_14  and  C_17 
REMARK       I    between atoms: N_26  and  C_15 
REMARK    4  A    between atoms: C_15  and  C_16 
REMARK    5  A    between atoms: C_20  and  C_23 
REMARK    6  A    between atoms: OG1_24  and  CB_28 
REMARK    7  A    between atoms: N_26  and  CA_27 
REMARK    8  A    between atoms: CA_27  and  CB_28 
REMARK    9  A    between atoms: CA_27  and  C_30 
ROOT
HETATM    1  O   UNK A   0      14.570   3.341  92.123  1.00  0.00    -0.388 OA
HETATM    2  N   UNK A   0      11.852   4.168  92.289  1.00  0.00     0.096 N 
HETATM    3  C   UNK A   0      12.459   3.313  93.319  1.00  0.00     0.299 C 
HETATM    4  C   UNK A   0      12.508   3.940  90.995  1.00  0.00     0.299 C 
HETATM    5  C   UNK A   0      13.960   3.579  93.393  1.00  0.00     0.198 C 
HETATM    6  C   UNK A   0      14.007   4.191  91.123  1.00  0.00     0.198 C 
ENDROOT
BRANCH   2   7
HETATM    7  C   UNK A   0      10.414   3.922  92.194  1.00  0.00     0.311 C 
BRANCH   7   8
HETATM    8  C   UNK A   0       9.642   5.166  91.912  1.00  0.00    -0.030 A 
HETATM    9  C   UNK A   0       8.714   5.188  90.870  1.00  0.00     0.010 A 
HETATM   10  C   UNK A   0       7.993   6.352  90.605  1.00  0.00     0.021 A 
HETATM   11  C   UNK A   0       8.199   7.492  91.382  1.00  0.00     0.018 A 
HETATM   12  C   UNK A   0       9.125   7.470  92.422  1.00  0.00     0.021 A 
HETATM   13  C   UNK A   0       9.847   6.306  92.688  1.00  0.00     0.010 A 
BRANCH  11  14
HETATM   14  C   UNK A   0       7.457   8.685  91.110  1.00  0.00    -0.061 C 
HETATM   15  C   UNK A   0       6.834   9.687  90.883  1.00  0.00    -0.061 C 
BRANCH  15  16
HETATM   16  C   UNK A   0       6.093  10.880  90.612  1.00  0.00     0.018 A 
HETATM   17  C   UNK A   0       6.232  11.523  89.382  1.00  0.00     0.022 A 
HETATM   18  C   UNK A   0       5.507  12.684  89.118  1.00  0.00     0.018 A 
HETATM   19  C   UNK A   0       4.659  13.177  90.088  1.00  0.00     0.032 A 
HETATM   20  C   UNK A   0       4.505  12.560  91.312  1.00  0.00     0.018 A 
HETATM   21  C   UNK A   0       5.229  11.398  91.577  1.00  0.00     0.022 A 
BRANCH  19  22
HETATM   22  C   UNK A   0       3.889  14.416  89.806  1.00  0.00     0.252 C 
HETATM   23  O   UNK A   0       4.477  15.494  89.775  1.00  0.00    -0.268 OA
ENDBRANCH  19  22
ENDBRANCH  15  16
ENDBRANCH  11  14
ENDBRANCH   7   8
ENDBRANCH   2   7
TORSDOF 9
ENDMDL
MODEL 6
REMARK VINA RESULT:      -6.6      3.870     10.386
REMARK  9 active torsions:
REMARK  status: ('A' for Active; 'I' for Inactive)
REMARK    1  A    between atoms: N_3  and  C_6 
REMARK    2  A    between atoms: C_6  and  C_9 
REMARK    3  A    between atoms: C_14  and  C_17 
REMARK       I    between atoms: N_26  and  C_15 
REMARK    4  A    between atoms: C_15  and  C_16 
REMARK    5  A    between atoms: C_20  and  C_23 
REMARK    6  A    between atoms: OG1_24  and  CB_28 
REMARK    7  A    between atoms: N_26  and  CA_27 
REMARK    8  A    between atoms: CA_27  and  CB_28 
REMARK    9  A    between atoms: CA_27  and  C_30 
ROOT
HETATM    1  O   UNK A   0      14.696   3.272  92.368  1.00  0.00    -0.388 OA
HETATM    2  N   UNK A   0      11.970   4.080  92.229  1.00  0.00     0.096 N 
HETATM    3  C   UNK A   0      12.480   3.290  93.358  1.00  0.00     0.299 C 
HETATM    4  C   UNK A   0      12.748   3.787  91.017  1.00  0.00     0.299 C 
HETATM    5  C   UNK A   0      13.966   3.574  93.559  1.00  0.00     0.198 C 
HETATM    6  C   UNK A   0      14.227   4.059  91.273  1.00  0.00     0.198 C 
ENDROOT
BRANCH   2   7
HETATM    7  C   UNK A   0      10.549   3.815  92.012  1.00  0.00     0.311 C 
BRANCH   7   8
HETATM    8  C   UNK A   0       9.773   5.060  91.747  1.00  0.00    -0.030 A 
HETATM    9  C   UNK A   0       8.812   5.080  90.735  1.00  0.00     0.010 A 
HETATM   10  C   UNK A   0       8.087   6.245  90.486  1.00  0.00     0.021 A 
HETATM   11  C   UNK A   0       8.321   7.388  91.249  1.00  0.00     0.018 A 
HETATM   12  C   UNK A   0       9.280   7.369  92.260  1.00  0.00     0.021 A 
HETATM   13  C   UNK A   0      10.006   6.205  92.509  1.00  0.00     0.010 A 
BRANCH  11  14
HETATM   14  C   UNK A   0       7.575   8.582  90.994  1.00  0.00    -0.061 C 
HETATM   15  C   UNK A   0       6.948   9.585  90.779  1.00  0.00    -0.061 C 
BRANCH  15  16
HETATM   16  C   UNK A   0       6.202  10.778  90.525  1.00  0.00     0.018 A 
HETATM   17  C   UNK A   0       5.297  11.249  91.476  1.00  0.00     0.022 A 
HETATM   18  C   UNK A   0       4.571  12.415  91.228  1.00  0.00     0.018 A 
HETATM   19  C   UNK A   0       4.768  13.082  90.038  1.00  0.00     0.032 A 
HETATM   20  C   UNK A   0       5.657  12.637  89.082  1.00  0.00     0.018 A 
HETATM   21  C   UNK A   0       6.383  11.472  89.328  1.00  0.00     0.022 A 
BRANCH  19  22
HETATM   22  C   UNK A   0       3.993  14.323  89.774  1.00  0.00     0.252 C 
HETATM   23  O   UNK A   0       4.581  15.401  89.739  1.00  0.00    -0.268 OA
ENDBRANCH  19  22
ENDBRANCH  15  16
ENDBRANCH  11  14
ENDBRANCH   7   8
ENDBRANCH   2   7
TORSDOF 9
ENDMDL
MODEL 7
REMARK VINA RESULT:      -6.5      1.934      2.691
REMARK  9 active torsions:
REMARK  status: ('A' for Active; 'I' for Inactive)
REMARK    1  A    between atoms: N_3  and  C_6 
REMARK    2  A    between atoms: C_6  and  C_9 
REMARK    3  A    between atoms: C_14  and  C_17 
REMARK       I    between atoms: N_26  and  C_15 
REMARK    4  A    between atoms: C_15  and  C_16 
REMARK    5  A    between atoms: C_20  and  C_23 
REMARK    6  A    between atoms: OG1_24  and  CB_28 
REMARK    7  A    between atoms: N_26  and  CA_27 
REMARK    8  A    between atoms: CA_27  and  CB_28 
REMARK    9  A    between atoms: CA_27  and  C_30 
ROOT
HETATM    1  O   UNK A   0       2.936  11.078  89.593  1.00  0.00    -0.388 OA
HETATM    2  N   UNK A   0       4.214   8.606  90.192  1.00  0.00     0.096 N 
HETATM    3  C   UNK A   0       3.929   9.008  88.807  1.00  0.00     0.299 C 
HETATM    4  C   UNK A   0       3.225   9.201  91.102  1.00  0.00     0.299 C 
HETATM    5  C   UNK A   0       3.911  10.531  88.704  1.00  0.00     0.198 C 
HETATM    6  C   UNK A   0       3.223  10.718  90.945  1.00  0.00     0.198 C 
ENDROOT
BRANCH   2   7
HETATM    7  C   UNK A   0       4.225   7.150  90.317  1.00  0.00     0.311 C 
BRANCH   7   8
HETATM    8  C   UNK A   0       5.577   6.619  90.652  1.00  0.00    -0.030 A 
HETATM    9  C   UNK A   0       6.269   5.839  89.724  1.00  0.00     0.010 A 
HETATM   10  C   UNK A   0       7.533   5.340  90.037  1.00  0.00     0.021 A 
HETATM   11  C   UNK A   0       8.106   5.623  91.276  1.00  0.00     0.018 A 
HETATM   12  C   UNK A   0       7.416   6.402  92.203  1.00  0.00     0.021 A 
HETATM   13  C   UNK A   0       6.152   6.900  91.891  1.00  0.00     0.010 A 
BRANCH  11  14
HETATM   14  C   UNK A   0       9.404   5.113  91.596  1.00  0.00    -0.061 C 
HETATM   15  C   UNK A   0      10.494   4.684  91.866  1.00  0.00    -0.061 C 
BRANCH  15  16
HETATM   16  C   UNK A   0      11.791   4.173  92.186  1.00  0.00     0.018 A 
HETATM   17  C   UNK A   0      12.828   4.275  91.258  1.00  0.00     0.022 A 
HETATM   18  C   UNK A   0      14.093   3.779  91.571  1.00  0.00     0.018 A 
HETATM   19  C   UNK A   0      14.294   3.194  92.804  1.00  0.00     0.032 A 
HETATM   20  C   UNK A   0      13.285   3.082  93.738  1.00  0.00     0.018 A 
HETATM   21  C   UNK A   0      12.019   3.577  93.426  1.00  0.00     0.022 A 
BRANCH  19  22
HETATM   22  C   UNK A   0      15.641   2.664  93.137  1.00  0.00     0.252 C 
HETATM   23  O   UNK A   0      16.418   3.363  93.784  1.00  0.00    -0.268 OA
ENDBRANCH  19  22
ENDBRANCH  15  16
ENDBRANCH  11  14
ENDBRANCH   7   8
ENDBRANCH   2   7
TORSDOF 9
ENDMDL
MODEL 8
REMARK VINA RESULT:      -6.4      1.745      2.319
REMARK  9 active torsions:
REMARK  status: ('A' for Active; 'I' for Inactive)
REMARK    1  A    between atoms: N_3  and  C_6 
REMARK    2  A    between atoms: C_6  and  C_9 
REMARK    3  A    between atoms: C_14  and  C_17 
REMARK       I    between atoms: N_26  and  C_15 
REMARK    4  A    between atoms: C_15  and  C_16 
REMARK    5  A    between atoms: C_20  and  C_23 
REMARK    6  A    between atoms: OG1_24  and  CB_28 
REMARK    7  A    between atoms: N_26  and  CA_27 
REMARK    8  A    between atoms: CA_27  and  CB_28 
REMARK    9  A    between atoms: CA_27  and  C_30 
ROOT
HETATM    1  O   UNK A   0       4.460  12.211  89.332  1.00  0.00    -0.388 OA
HETATM    2  N   UNK A   0       4.767   9.424  88.844  1.00  0.00     0.096 N 
HETATM    3  C   UNK A   0       5.882  10.244  89.336  1.00  0.00     0.299 C 
HETATM    4  C   UNK A   0       3.850  10.248  88.045  1.00  0.00     0.299 C 
HETATM    5  C   UNK A   0       5.341  11.425  90.138  1.00  0.00     0.198 C 
HETATM    6  C   UNK A   0       3.357  11.428  88.875  1.00  0.00     0.198 C 
ENDROOT
BRANCH   2   7
HETATM    7  C   UNK A   0       5.263   8.291  88.064  1.00  0.00     0.311 C 
BRANCH   7   8
HETATM    8  C   UNK A   0       6.410   7.605  88.724  1.00  0.00    -0.030 A 
HETATM    9  C   UNK A   0       6.174   6.646  89.710  1.00  0.00     0.010 A 
HETATM   10  C   UNK A   0       7.247   6.005  90.329  1.00  0.00     0.021 A 
HETATM   11  C   UNK A   0       8.554   6.322  89.961  1.00  0.00     0.018 A 
HETATM   12  C   UNK A   0       8.790   7.279  88.976  1.00  0.00     0.021 A 
HETATM   13  C   UNK A   0       7.718   7.921  88.357  1.00  0.00     0.010 A 
BRANCH  11  14
HETATM   14  C   UNK A   0       9.654   5.663  90.595  1.00  0.00    -0.061 C 
HETATM   15  C   UNK A   0      10.579   5.108  91.128  1.00  0.00    -0.061 C 
BRANCH  15  16
HETATM   16  C   UNK A   0      11.679   4.450  91.761  1.00  0.00     0.018 A 
HETATM   17  C   UNK A   0      11.538   3.946  93.054  1.00  0.00     0.022 A 
HETATM   18  C   UNK A   0      12.610   3.301  93.671  1.00  0.00     0.018 A 
HETATM   19  C   UNK A   0      13.798   3.175  92.981  1.00  0.00     0.032 A 
HETATM   20  C   UNK A   0      13.962   3.665  91.702  1.00  0.00     0.018 A 
HETATM   21  C   UNK A   0      12.891   4.310  91.085  1.00  0.00     0.022 A 
BRANCH  19  22
HETATM   22  C   UNK A   0      14.940   2.490  93.639  1.00  0.00     0.252 C 
HETATM   23  O   UNK A   0      16.073   2.649  93.191  1.00  0.00    -0.268 OA
ENDBRANCH  19  22
ENDBRANCH  15  16
ENDBRANCH  11  14
ENDBRANCH   7   8
ENDBRANCH   2   7
TORSDOF 9
ENDMDL
MODEL 9
REMARK VINA RESULT:      -6.4      2.293      3.098
REMARK  9 active torsions:
REMARK  status: ('A' for Active; 'I' for Inactive)
REMARK    1  A    between atoms: N_3  and  C_6 
REMARK    2  A    between atoms: C_6  and  C_9 
REMARK    3  A    between atoms: C_14  and  C_17 
REMARK       I    between atoms: N_26  and  C_15 
REMARK    4  A    between atoms: C_15  and  C_16 
REMARK    5  A    between atoms: C_20  and  C_23 
REMARK    6  A    between atoms: OG1_24  and  CB_28 
REMARK    7  A    between atoms: N_26  and  CA_27 
REMARK    8  A    between atoms: CA_27  and  CB_28 
REMARK    9  A    between atoms: CA_27  and  C_30 
ROOT
HETATM    1  O   UNK A   0       4.266  12.473  88.683  1.00  0.00    -0.388 OA
HETATM    2  N   UNK A   0       4.789   9.878  89.731  1.00  0.00     0.096 N 
HETATM    3  C   UNK A   0       3.511  10.201  89.081  1.00  0.00     0.299 C 
HETATM    4  C   UNK A   0       5.360  11.085  90.345  1.00  0.00     0.299 C 
HETATM    5  C   UNK A   0       3.719  11.312  88.055  1.00  0.00     0.198 C 
HETATM    6  C   UNK A   0       5.524  12.175  89.291  1.00  0.00     0.198 C 
ENDROOT
BRANCH   2   7
HETATM    7  C   UNK A   0       4.611   8.822  90.726  1.00  0.00     0.311 C 
BRANCH   7   8
HETATM    8  C   UNK A   0       5.870   8.065  90.981  1.00  0.00    -0.030 A 
HETATM    9  C   UNK A   0       6.598   8.299  92.149  1.00  0.00     0.010 A 
HETATM   10  C   UNK A   0       7.777   7.593  92.388  1.00  0.00     0.021 A 
HETATM   11  C   UNK A   0       8.225   6.652  91.461  1.00  0.00     0.018 A 
HETATM   12  C   UNK A   0       7.499   6.418  90.295  1.00  0.00     0.021 A 
HETATM   13  C   UNK A   0       6.320   7.125  90.055  1.00  0.00     0.010 A 
BRANCH  11  14
HETATM   14  C   UNK A   0       9.433   5.926  91.708  1.00  0.00    -0.061 C 
HETATM   15  C   UNK A   0      10.449   5.316  91.914  1.00  0.00    -0.061 C 
BRANCH  15  16
HETATM   16  C   UNK A   0      11.656   4.592  92.160  1.00  0.00     0.018 A 
HETATM   17  C   UNK A   0      11.890   4.033  93.417  1.00  0.00     0.022 A 
HETATM   18  C   UNK A   0      13.067   3.324  93.656  1.00  0.00     0.018 A 
HETATM   19  C   UNK A   0      13.983   3.188  92.634  1.00  0.00     0.032 A 
HETATM   20  C   UNK A   0      13.776   3.731  91.383  1.00  0.00     0.018 A 
HETATM   21  C   UNK A   0      12.599   4.441  91.143  1.00  0.00     0.022 A 
BRANCH  19  22
HETATM   22  C   UNK A   0      15.237   2.435  92.889  1.00  0.00     0.252 C 
HETATM   23  O   UNK A   0      15.791   2.543  93.981  1.00  0.00    -0.268 OA
ENDBRANCH  19  22
ENDBRANCH  15  16
ENDBRANCH  11  14
ENDBRANCH   7   8
ENDBRANCH   2   7
TORSDOF 9
ENDMDL
