MODEL 1
REMARK VINA RESULT:      -6.9      0.000      0.000
REMARK  11 active torsions:
REMARK  status: ('A' for Active; 'I' for Inactive)
REMARK    1  A    between atoms: O_2  and  C_18 
REMARK    2  A    between atoms: O_5  and  P_8 
REMARK    3  A    between atoms: N_6  and  C_11 
REMARK    4  A    between atoms: N_7  and  C_15 
REMARK       I    between atoms: N_7  and  C_24 
REMARK    5  A    between atoms: P_8  and  C_23 
REMARK    6  A    between atoms: C_11  and  C_14 
REMARK    7  A    between atoms: C_15  and  C_18 
REMARK    8  A    between atoms: C_15  and  C_23 
REMARK    9  A    between atoms: C_21  and  C_26 
REMARK   10  A    between atoms: C_24  and  C_25 
REMARK   11  A    between atoms: C_29  and  C_32 
ROOT
HETATM    1  O   UNL     1      16.430   4.279  94.124  1.00  0.00     0.000 OA
HETATM    2  N   UNL     1      14.642   2.729  92.542  1.00  0.00     0.000 N 
HETATM    3  C   UNL     1      14.548   4.195  92.593  1.00  0.00     0.000 C 
HETATM    4  C   UNL     1      15.195   2.216  93.803  1.00  0.00     0.000 C 
HETATM    5  C   UNL     1      15.923   4.790  92.890  1.00  0.00     0.000 C 
HETATM    6  C   UNL     1      16.553   2.858  94.072  1.00  0.00     0.000 C 
ENDROOT
BRANCH   2   7
HETATM    7  C   UNL     1      13.333   2.137  92.270  1.00  0.00     0.000 C 
BRANCH   7   8
HETATM    8  C   UNL     1      12.292   3.165  91.985  1.00  0.00     0.000 A 
HETATM    9  C   UNL     1      12.130   3.651  90.687  1.00  0.00     0.000 A 
HETATM   10  C   UNL     1      11.157   4.615  90.420  1.00  0.00     0.000 A 
HETATM   11  C   UNL     1      10.347   5.090  91.451  1.00  0.00     0.000 A 
HETATM   12  C   UNL     1      10.508   4.606  92.747  1.00  0.00     0.000 A 
HETATM   13  C   UNL     1      11.481   3.643  93.015  1.00  0.00     0.000 A 
BRANCH  11  14
HETATM   14  C   UNL     1       9.348   6.078  91.176  1.00  0.00     0.000 C 
HETATM   15  C   UNL     1       8.509   6.907  90.945  1.00  0.00     0.000 C 
BRANCH  15  16
HETATM   16  C   UNL     1       7.510   7.892  90.670  1.00  0.00     0.000 A 
HETATM   17  C   UNL     1       7.833   9.248  90.735  1.00  0.00     0.000 A 
HETATM   18  C   UNL     1       6.859  10.209  90.465  1.00  0.00     0.000 A 
HETATM   19  C   UNL     1       5.586   9.794  90.136  1.00  0.00     0.000 A 
HETATM   20  C   UNL     1       5.242   8.461  90.066  1.00  0.00     0.000 A 
HETATM   21  C   UNL     1       6.215   7.498  90.336  1.00  0.00     0.000 A 
BRANCH  19  22
HETATM   22  C   UNL     1       4.549  10.819  89.850  1.00  0.00     0.000 C 
HETATM   23  O   UNL     1       3.524  10.486  89.258  1.00  0.00     0.000 OA
HETATM   24  N   UNL     1       4.817  12.101  90.309  1.00  0.00     0.000 N 
HETATM   25  HN  UNL     1       5.675  12.296  90.813  1.00  0.00     0.000 HD
BRANCH  24  26
HETATM   26  C   UNL     1       3.899  13.197  90.131  1.00  0.00     0.000 C 
BRANCH  26  27
HETATM   27  C   UNL     1       3.412  13.786  91.461  1.00  0.00     0.000 C 
HETATM   28  C   UNL     1       1.932  14.148  91.432  1.00  0.00     0.000 C 
BRANCH  27  29
HETATM   29  O   UNL     1       3.639  12.845  92.510  1.00  0.00     0.000 OA
HETATM   30  H   UNL     1       2.776  12.562  92.858  1.00  0.00     0.000 HD
ENDBRANCH  27  29
ENDBRANCH  26  27
BRANCH  26  31
HETATM   31  C   UNL     1       4.594  14.253  89.278  1.00  0.00     0.000 C 
HETATM   32  O   UNL     1       4.535  15.457  89.522  1.00  0.00     0.000 OA
BRANCH  31  33
HETATM   33  P   UNL     1       5.249  13.703  88.202  1.00  0.00     0.000 P 
HETATM   34  H   UNL     1       5.713  14.738  87.416  1.00  0.00     0.000 HD
BRANCH  33  35
HETATM   35  O   UNL     1       4.482  12.857  87.389  1.00  0.00     0.000 OA
HETATM   36  H   UNL     1       4.965  12.021  87.503  1.00  0.00     0.000 HD
ENDBRANCH  33  35
ENDBRANCH  31  33
ENDBRANCH  26  31
ENDBRANCH  24  26
ENDBRANCH  19  22
ENDBRANCH  15  16
ENDBRANCH  11  14
ENDBRANCH   7   8
ENDBRANCH   2   7
TORSDOF 11
ENDMDL
MODEL 2
REMARK VINA RESULT:      -6.8      1.852      2.805
REMARK  11 active torsions:
REMARK  status: ('A' for Active; 'I' for Inactive)
REMARK    1  A    between atoms: O_2  and  C_18 
REMARK    2  A    between atoms: O_5  and  P_8 
REMARK    3  A    between atoms: N_6  and  C_11 
REMARK    4  A    between atoms: N_7  and  C_15 
REMARK       I    between atoms: N_7  and  C_24 
REMARK    5  A    between atoms: P_8  and  C_23 
REMARK    6  A    between atoms: C_11  and  C_14 
REMARK    7  A    between atoms: C_15  and  C_18 
REMARK    8  A    between atoms: C_15  and  C_23 
REMARK    9  A    between atoms: C_21  and  C_26 
REMARK   10  A    between atoms: C_24  and  C_25 
REMARK   11  A    between atoms: C_29  and  C_32 
ROOT
HETATM    1  O   UNL     1      16.119   3.923  94.123  1.00  0.00     0.000 OA
HETATM    2  N   UNL     1      14.227   2.649  92.420  1.00  0.00     0.000 N 
HETATM    3  C   UNL     1      14.399   4.109  92.421  1.00  0.00     0.000 C 
HETATM    4  C   UNL     1      14.562   2.102  93.742  1.00  0.00     0.000 C 
HETATM    5  C   UNL     1      15.826   4.461  92.832  1.00  0.00     0.000 C 
HETATM    6  C   UNL     1      15.984   2.502  94.123  1.00  0.00     0.000 C 
ENDROOT
BRANCH   2   7
HETATM    7  C   UNL     1      12.862   2.289  92.040  1.00  0.00     0.000 C 
BRANCH   7   8
HETATM    8  C   UNL     1      11.924   3.444  92.130  1.00  0.00     0.000 A 
HETATM    9  C   UNL     1      11.348   3.966  90.971  1.00  0.00     0.000 A 
HETATM   10  C   UNL     1      10.472   5.048  91.055  1.00  0.00     0.000 A 
HETATM   11  C   UNL     1      10.170   5.605  92.297  1.00  0.00     0.000 A 
HETATM   12  C   UNL     1      10.743   5.084  93.455  1.00  0.00     0.000 A 
HETATM   13  C   UNL     1      11.620   4.003  93.372  1.00  0.00     0.000 A 
BRANCH  11  14
HETATM   14  C   UNL     1       9.269   6.714  92.382  1.00  0.00     0.000 C 
HETATM   15  C   UNL     1       8.513   7.646  92.454  1.00  0.00     0.000 C 
BRANCH  15  16
HETATM   16  C   UNL     1       7.613   8.753  92.539  1.00  0.00     0.000 A 
HETATM   17  C   UNL     1       6.638   8.936  91.557  1.00  0.00     0.000 A 
HETATM   18  C   UNL     1       5.759  10.015  91.641  1.00  0.00     0.000 A 
HETATM   19  C   UNL     1       5.873  10.886  92.704  1.00  0.00     0.000 A 
HETATM   20  C   UNL     1       6.828  10.728  93.687  1.00  0.00     0.000 A 
HETATM   21  C   UNL     1       7.708   9.649  93.604  1.00  0.00     0.000 A 
BRANCH  19  22
HETATM   22  C   UNL     1       4.937  12.037  92.792  1.00  0.00     0.000 C 
HETATM   23  O   UNL     1       4.640  12.485  93.897  1.00  0.00     0.000 OA
HETATM   24  N   UNL     1       4.479  12.543  91.584  1.00  0.00     0.000 N 
HETATM   25  HN  UNL     1       4.788  12.137  90.708  1.00  0.00     0.000 HD
BRANCH  24  26
HETATM   26  C   UNL     1       3.587  13.671  91.503  1.00  0.00     0.000 C 
BRANCH  26  27
HETATM   27  C   UNL     1       3.560  14.308  90.108  1.00  0.00     0.000 C 
HETATM   28  C   UNL     1       4.892  14.946  89.731  1.00  0.00     0.000 C 
BRANCH  27  29
HETATM   29  O   UNL     1       3.230  13.316  89.136  1.00  0.00     0.000 OA
HETATM   30  H   UNL     1       3.782  12.533  89.301  1.00  0.00     0.000 HD
ENDBRANCH  27  29
ENDBRANCH  26  27
BRANCH  26  31
HETATM   31  C   UNL     1       2.199  13.198  91.924  1.00  0.00     0.000 C 
HETATM   32  O   UNL     1       1.699  12.149  91.523  1.00  0.00     0.000 OA
BRANCH  31  33
HETATM   33  P   UNL     1       1.576  14.095  92.758  1.00  0.00     0.000 P 
HETATM   34  H   UNL     1       0.954  15.042  91.972  1.00  0.00     0.000 HD
BRANCH  33  35
HETATM   35  O   UNL     1       2.410  14.767  93.663  1.00  0.00     0.000 OA
HETATM   36  H   UNL     1       3.225  14.244  93.572  1.00  0.00     0.000 HD
ENDBRANCH  33  35
ENDBRANCH  31  33
ENDBRANCH  26  31
ENDBRANCH  24  26
ENDBRANCH  19  22
ENDBRANCH  15  16
ENDBRANCH  11  14
ENDBRANCH   7   8
ENDBRANCH   2   7
TORSDOF 11
ENDMDL
MODEL 3
REMARK VINA RESULT:      -6.0      2.074      2.780
REMARK  11 active torsions:
REMARK  status: ('A' for Active; 'I' for Inactive)
REMARK    1  A    between atoms: O_2  and  C_18 
REMARK    2  A    between atoms: O_5  and  P_8 
REMARK    3  A    between atoms: N_6  and  C_11 
REMARK    4  A    between atoms: N_7  and  C_15 
REMARK       I    between atoms: N_7  and  C_24 
REMARK    5  A    between atoms: P_8  and  C_23 
REMARK    6  A    between atoms: C_11  and  C_14 
REMARK    7  A    between atoms: C_15  and  C_18 
REMARK    8  A    between atoms: C_15  and  C_23 
REMARK    9  A    between atoms: C_21  and  C_26 
REMARK   10  A    between atoms: C_24  and  C_25 
REMARK   11  A    between atoms: C_29  and  C_32 
ROOT
HETATM    1  O   UNL     1      16.371   2.878  93.896  1.00  0.00     0.000 OA
HETATM    2  N   UNL     1      13.777   3.142  92.754  1.00  0.00     0.000 N 
HETATM    3  C   UNL     1      14.400   1.826  92.948  1.00  0.00     0.000 C 
HETATM    4  C   UNL     1      14.813   4.165  92.553  1.00  0.00     0.000 C 
HETATM    5  C   UNL     1      15.372   1.882  94.124  1.00  0.00     0.000 C 
HETATM    6  C   UNL     1      15.775   4.166  93.737  1.00  0.00     0.000 C 
ENDROOT
BRANCH   2   7
HETATM    7  C   UNL     1      12.849   3.114  91.625  1.00  0.00     0.000 C 
BRANCH   7   8
HETATM    8  C   UNL     1      11.710   4.060  91.802  1.00  0.00     0.000 A 
HETATM    9  C   UNL     1      11.336   4.468  93.083  1.00  0.00     0.000 A 
HETATM   10  C   UNL     1      10.270   5.351  93.249  1.00  0.00     0.000 A 
HETATM   11  C   UNL     1       9.579   5.827  92.135  1.00  0.00     0.000 A 
HETATM   12  C   UNL     1       9.952   5.421  90.856  1.00  0.00     0.000 A 
HETATM   13  C   UNL     1      11.018   4.537  90.688  1.00  0.00     0.000 A 
BRANCH  11  14
HETATM   14  C   UNL     1       8.487   6.735  92.307  1.00  0.00     0.000 C 
HETATM   15  C   UNL     1       7.568   7.498  92.450  1.00  0.00     0.000 C 
BRANCH  15  16
HETATM   16  C   UNL     1       6.476   8.404  92.620  1.00  0.00     0.000 A 
HETATM   17  C   UNL     1       5.180   8.003  92.294  1.00  0.00     0.000 A 
HETATM   18  C   UNL     1       4.115   8.886  92.463  1.00  0.00     0.000 A 
HETATM   19  C   UNL     1       4.368  10.150  92.954  1.00  0.00     0.000 A 
HETATM   20  C   UNL     1       5.639  10.571  93.284  1.00  0.00     0.000 A 
HETATM   21  C   UNL     1       6.706   9.688  93.115  1.00  0.00     0.000 A 
BRANCH  19  22
HETATM   22  C   UNL     1       3.232  11.092  93.132  1.00  0.00     0.000 C 
HETATM   23  O   UNL     1       2.270  10.749  93.815  1.00  0.00     0.000 OA
HETATM   24  N   UNL     1       3.364  12.327  92.515  1.00  0.00     0.000 N 
HETATM   25  HN  UNL     1       4.200  12.550  91.986  1.00  0.00     0.000 HD
BRANCH  24  26
HETATM   26  C   UNL     1       2.360  13.356  92.614  1.00  0.00     0.000 C 
BRANCH  26  27
HETATM   27  C   UNL     1       2.650  14.362  93.735  1.00  0.00     0.000 C 
HETATM   28  C   UNL     1       4.143  14.548  93.981  1.00  0.00     0.000 C 
BRANCH  27  29
HETATM   29  O   UNL     1       2.074  15.625  93.404  1.00  0.00     0.000 OA
HETATM   30  H   UNL     1       1.110  15.557  93.508  1.00  0.00     0.000 HD
ENDBRANCH  27  29
ENDBRANCH  26  27
BRANCH  26  31
HETATM   31  C   UNL     1       2.266  14.048  91.259  1.00  0.00     0.000 C 
HETATM   32  O   UNL     1       1.332  14.785  90.946  1.00  0.00     0.000 OA
BRANCH  31  33
HETATM   33  P   UNL     1       3.314  13.719  90.434  1.00  0.00     0.000 P 
HETATM   34  H   UNL     1       3.928  14.892  90.043  1.00  0.00     0.000 HD
BRANCH  33  35
HETATM   35  O   UNL     1       2.979  13.003  89.277  1.00  0.00     0.000 OA
HETATM   36  H   UNL     1       3.832  13.017  88.809  1.00  0.00     0.000 HD
ENDBRANCH  33  35
ENDBRANCH  31  33
ENDBRANCH  26  31
ENDBRANCH  24  26
ENDBRANCH  19  22
ENDBRANCH  15  16
ENDBRANCH  11  14
ENDBRANCH   7   8
ENDBRANCH   2   7
TORSDOF 11
ENDMDL
MODEL 4
REMARK VINA RESULT:      -4.7      1.575      2.266
REMARK  11 active torsions:
REMARK  status: ('A' for Active; 'I' for Inactive)
REMARK    1  A    between atoms: O_2  and  C_18 
REMARK    2  A    between atoms: O_5  and  P_8 
REMARK    3  A    between atoms: N_6  and  C_11 
REMARK    4  A    between atoms: N_7  and  C_15 
REMARK       I    between atoms: N_7  and  C_24 
REMARK    5  A    between atoms: P_8  and  C_23 
REMARK    6  A    between atoms: C_11  and  C_14 
REMARK    7  A    between atoms: C_15  and  C_18 
REMARK    8  A    between atoms: C_15  and  C_23 
REMARK    9  A    between atoms: C_21  and  C_26 
REMARK   10  A    between atoms: C_24  and  C_25 
REMARK   11  A    between atoms: C_29  and  C_32 
ROOT
HETATM    1  O   UNL     1      16.119   3.525  93.447  1.00  0.00     0.000 OA
HETATM    2  N   UNL     1      14.054   1.877  92.387  1.00  0.00     0.000 N 
HETATM    3  C   UNL     1      14.491   3.099  91.698  1.00  0.00     0.000 C 
HETATM    4  C   UNL     1      14.261   2.014  93.836  1.00  0.00     0.000 C 
HETATM    5  C   UNL     1      15.952   3.388  92.035  1.00  0.00     0.000 C 
HETATM    6  C   UNL     1      15.725   2.329  94.122  1.00  0.00     0.000 C 
ENDROOT
BRANCH   2   7
HETATM    7  C   UNL     1      12.653   1.587  92.087  1.00  0.00     0.000 C 
BRANCH   7   8
HETATM    8  C   UNL     1      11.864   2.821  91.809  1.00  0.00     0.000 A 
HETATM    9  C   UNL     1      11.496   3.664  92.858  1.00  0.00     0.000 A 
HETATM   10  C   UNL     1      10.756   4.817  92.599  1.00  0.00     0.000 A 
HETATM   11  C   UNL     1      10.387   5.128  91.291  1.00  0.00     0.000 A 
HETATM   12  C   UNL     1      10.754   4.287  90.242  1.00  0.00     0.000 A 
HETATM   13  C   UNL     1      11.493   3.133  90.501  1.00  0.00     0.000 A 
BRANCH  11  14
HETATM   14  C   UNL     1       9.629   6.313  91.025  1.00  0.00     0.000 C 
HETATM   15  C   UNL     1       8.994   7.308  90.801  1.00  0.00     0.000 C 
BRANCH  15  16
HETATM   16  C   UNL     1       8.237   8.492  90.534  1.00  0.00     0.000 A 
HETATM   17  C   UNL     1       8.018   8.896  89.217  1.00  0.00     0.000 A 
HETATM   18  C   UNL     1       7.278  10.050  88.957  1.00  0.00     0.000 A 
HETATM   19  C   UNL     1       6.773  10.771  90.019  1.00  0.00     0.000 A 
HETATM   20  C   UNL     1       6.976  10.392  91.329  1.00  0.00     0.000 A 
HETATM   21  C   UNL     1       7.716   9.239  91.590  1.00  0.00     0.000 A 
BRANCH  19  22
HETATM   22  C   UNL     1       5.986  12.001  89.741  1.00  0.00     0.000 C 
HETATM   23  O   UNL     1       6.161  12.598  88.682  1.00  0.00     0.000 OA
HETATM   24  N   UNL     1       5.073  12.371  90.718  1.00  0.00     0.000 N 
HETATM   25  HN  UNL     1       4.965  11.814  91.558  1.00  0.00     0.000 HD
BRANCH  24  26
HETATM   26  C   UNL     1       4.220  13.525  90.585  1.00  0.00     0.000 C 
BRANCH  26  27
HETATM   27  C   UNL     1       2.764  13.154  90.276  1.00  0.00     0.000 C 
HETATM   28  C   UNL     1       1.929  14.360  89.863  1.00  0.00     0.000 C 
BRANCH  27  29
HETATM   29  O   UNL     1       2.730  12.186  89.227  1.00  0.00     0.000 OA
HETATM   30  H   UNL     1       3.639  11.882  89.064  1.00  0.00     0.000 HD
ENDBRANCH  27  29
ENDBRANCH  26  27
BRANCH  26  31
HETATM   31  C   UNL     1       4.324  14.333  91.874  1.00  0.00     0.000 C 
HETATM   32  O   UNL     1       4.762  15.482  91.911  1.00  0.00     0.000 OA
BRANCH  31  33
HETATM   33  P   UNL     1       3.912  13.616  92.971  1.00  0.00     0.000 P 
HETATM   34  H   UNL     1       4.421  12.338  92.857  1.00  0.00     0.000 HD
BRANCH  33  35
HETATM   35  O   UNL     1       2.525  13.512  93.147  1.00  0.00     0.000 OA
HETATM   36  H   UNL     1       2.253  13.272  92.245  1.00  0.00     0.000 HD
ENDBRANCH  33  35
ENDBRANCH  31  33
ENDBRANCH  26  31
ENDBRANCH  24  26
ENDBRANCH  19  22
ENDBRANCH  15  16
ENDBRANCH  11  14
ENDBRANCH   7   8
ENDBRANCH   2   7
TORSDOF 11
ENDMDL
MODEL 5
REMARK VINA RESULT:      -4.6      1.355      2.143
REMARK  11 active torsions:
REMARK  status: ('A' for Active; 'I' for Inactive)
REMARK    1  A    between atoms: O_2  and  C_18 
REMARK    2  A    between atoms: O_5  and  P_8 
REMARK    3  A    between atoms: N_6  and  C_11 
REMARK    4  A    between atoms: N_7  and  C_15 
REMARK       I    between atoms: N_7  and  C_24 
REMARK    5  A    between atoms: P_8  and  C_23 
REMARK    6  A    between atoms: C_11  and  C_14 
REMARK    7  A    between atoms: C_15  and  C_18 
REMARK    8  A    between atoms: C_15  and  C_23 
REMARK    9  A    between atoms: C_21  and  C_26 
REMARK   10  A    between atoms: C_24  and  C_25 
REMARK   11  A    between atoms: C_29  and  C_32 
ROOT
HETATM    1  O   UNL     1      16.309   2.839  93.574  1.00  0.00     0.000 OA
HETATM    2  N   UNL     1      13.647   2.866  92.566  1.00  0.00     0.000 N 
HETATM    3  C   UNL     1      14.264   1.632  93.070  1.00  0.00     0.000 C 
HETATM    4  C   UNL     1      14.680   3.765  92.033  1.00  0.00     0.000 C 
HETATM    5  C   UNL     1      15.315   1.972  94.124  1.00  0.00     0.000 C 
HETATM    6  C   UNL     1      15.720   4.055  93.110  1.00  0.00     0.000 C 
ENDROOT
BRANCH   2   7
HETATM    7  C   UNL     1      12.644   2.564  91.546  1.00  0.00     0.000 C 
BRANCH   7   8
HETATM    8  C   UNL     1      11.664   3.674  91.368  1.00  0.00     0.000 A 
HETATM    9  C   UNL     1      11.013   4.213  92.478  1.00  0.00     0.000 A 
HETATM   10  C   UNL     1      10.094   5.250  92.312  1.00  0.00     0.000 A 
HETATM   11  C   UNL     1       9.828   5.747  91.037  1.00  0.00     0.000 A 
HETATM   12  C   UNL     1      10.478   5.209  89.927  1.00  0.00     0.000 A 
HETATM   13  C   UNL     1      11.396   4.172  90.093  1.00  0.00     0.000 A 
BRANCH  11  14
HETATM   14  C   UNL     1       8.887   6.811  90.867  1.00  0.00     0.000 C 
HETATM   15  C   UNL     1       8.097   7.706  90.724  1.00  0.00     0.000 C 
BRANCH  15  16
HETATM   16  C   UNL     1       7.158   8.770  90.554  1.00  0.00     0.000 A 
HETATM   17  C   UNL     1       6.354   8.814  89.415  1.00  0.00     0.000 A 
HETATM   18  C   UNL     1       5.435   9.851  89.250  1.00  0.00     0.000 A 
HETATM   19  C   UNL     1       5.341  10.819  90.228  1.00  0.00     0.000 A 
HETATM   20  C   UNL     1       6.124  10.798  91.363  1.00  0.00     0.000 A 
HETATM   21  C   UNL     1       7.043   9.762  91.528  1.00  0.00     0.000 A 
BRANCH  19  22
HETATM   22  C   UNL     1       4.363  11.924  90.051  1.00  0.00     0.000 C 
HETATM   23  O   UNL     1       3.910  12.150  88.932  1.00  0.00     0.000 OA
HETATM   24  N   UNL     1       4.014  12.616  91.202  1.00  0.00     0.000 N 
HETATM   25  HN  UNL     1       4.411  12.357  92.097  1.00  0.00     0.000 HD
BRANCH  24  26
HETATM   26  C   UNL     1       3.061  13.697  91.198  1.00  0.00     0.000 C 
BRANCH  26  27
HETATM   27  C   UNL     1       1.857  13.431  92.110  1.00  0.00     0.000 C 
HETATM   28  C   UNL     1       2.199  12.505  93.273  1.00  0.00     0.000 C 
BRANCH  27  29
HETATM   29  O   UNL     1       1.370  14.668  92.630  1.00  0.00     0.000 OA
HETATM   30  H   UNL     1       0.686  14.471  93.292  1.00  0.00     0.000 HD
ENDBRANCH  27  29
ENDBRANCH  26  27
BRANCH  26  31
HETATM   31  C   UNL     1       3.797  14.969  91.608  1.00  0.00     0.000 C 
HETATM   32  O   UNL     1       3.852  15.365  92.770  1.00  0.00     0.000 OA
BRANCH  31  33
HETATM   33  P   UNL     1       4.345  15.621  90.530  1.00  0.00     0.000 P 
HETATM   34  H   UNL     1       3.673  16.816  90.373  1.00  0.00     0.000 HD
BRANCH  33  35
HETATM   35  O   UNL     1       4.293  14.934  89.309  1.00  0.00     0.000 OA
HETATM   36  H   UNL     1       3.532  15.375  88.894  1.00  0.00     0.000 HD
ENDBRANCH  33  35
ENDBRANCH  31  33
ENDBRANCH  26  31
ENDBRANCH  24  26
ENDBRANCH  19  22
ENDBRANCH  15  16
ENDBRANCH  11  14
ENDBRANCH   7   8
ENDBRANCH   2   7
TORSDOF 11
ENDMDL
MODEL 6
REMARK VINA RESULT:      -4.5      3.466     12.683
REMARK  11 active torsions:
REMARK  status: ('A' for Active; 'I' for Inactive)
REMARK    1  A    between atoms: O_2  and  C_18 
REMARK    2  A    between atoms: O_5  and  P_8 
REMARK    3  A    between atoms: N_6  and  C_11 
REMARK    4  A    between atoms: N_7  and  C_15 
REMARK       I    between atoms: N_7  and  C_24 
REMARK    5  A    between atoms: P_8  and  C_23 
REMARK    6  A    between atoms: C_11  and  C_14 
REMARK    7  A    between atoms: C_15  and  C_18 
REMARK    8  A    between atoms: C_15  and  C_23 
REMARK    9  A    between atoms: C_21  and  C_26 
REMARK   10  A    between atoms: C_24  and  C_25 
REMARK   11  A    between atoms: C_29  and  C_32 
ROOT
HETATM    1  O   UNL     1       3.002  14.960  90.102  1.00  0.00     0.000 OA
HETATM    2  N   UNL     1       4.178  13.248  92.049  1.00  0.00     0.000 N 
HETATM    3  C   UNL     1       3.372  12.713  90.943  1.00  0.00     0.000 C 
HETATM    4  C   UNL     1       3.728  14.605  92.390  1.00  0.00     0.000 C 
HETATM    5  C   UNL     1       3.454  13.653  89.743  1.00  0.00     0.000 C 
HETATM    6  C   UNL     1       3.801  15.499  91.156  1.00  0.00     0.000 C 
ENDROOT
BRANCH   2   7
HETATM    7  C   UNL     1       4.106  12.369  93.215  1.00  0.00     0.000 C 
BRANCH   7   8
HETATM    8  C   UNL     1       5.124  11.281  93.169  1.00  0.00     0.000 A 
HETATM    9  C   UNL     1       5.025  10.274  92.208  1.00  0.00     0.000 A 
HETATM   10  C   UNL     1       5.975   9.254  92.166  1.00  0.00     0.000 A 
HETATM   11  C   UNL     1       7.025   9.243  93.084  1.00  0.00     0.000 A 
HETATM   12  C   UNL     1       7.125  10.248  94.044  1.00  0.00     0.000 A 
HETATM   13  C   UNL     1       6.174  11.267  94.087  1.00  0.00     0.000 A 
BRANCH  11  14
HETATM   14  C   UNL     1       8.002   8.198  93.039  1.00  0.00     0.000 C 
HETATM   15  C   UNL     1       8.823   7.320  93.001  1.00  0.00     0.000 C 
BRANCH  15  16
HETATM   16  C   UNL     1       9.799   6.277  92.957  1.00  0.00     0.000 A 
HETATM   17  C   UNL     1      10.459   5.891  94.123  1.00  0.00     0.000 A 
HETATM   18  C   UNL     1      11.410   4.871  94.080  1.00  0.00     0.000 A 
HETATM   19  C   UNL     1      11.678   4.260  92.873  1.00  0.00     0.000 A 
HETATM   20  C   UNL     1      11.039   4.624  91.706  1.00  0.00     0.000 A 
HETATM   21  C   UNL     1      10.089   5.644  91.748  1.00  0.00     0.000 A 
BRANCH  19  22
HETATM   22  C   UNL     1      12.692   3.175  92.828  1.00  0.00     0.000 C 
HETATM   23  O   UNL     1      12.352   2.051  92.466  1.00  0.00     0.000 OA
HETATM   24  N   UNL     1      13.984   3.535  93.185  1.00  0.00     0.000 N 
HETATM   25  HN  UNL     1      14.196   4.489  93.449  1.00  0.00     0.000 HD
BRANCH  24  26
HETATM   26  C   UNL     1      15.082   2.601  93.167  1.00  0.00     0.000 C 
BRANCH  26  27
HETATM   27  C   UNL     1      15.408   2.095  91.757  1.00  0.00     0.000 C 
HETATM   28  C   UNL     1      14.930   3.050  90.669  1.00  0.00     0.000 C 
BRANCH  27  29
HETATM   29  O   UNL     1      16.819   1.916  91.629  1.00  0.00     0.000 OA
HETATM   30  H   UNL     1      17.005   0.962  91.623  1.00  0.00     0.000 HD
ENDBRANCH  27  29
ENDBRANCH  26  27
BRANCH  26  31
HETATM   31  C   UNL     1      16.286   3.287  93.803  1.00  0.00     0.000 C 
HETATM   32  O   UNL     1      17.344   2.704  94.035  1.00  0.00     0.000 OA
BRANCH  31  33
HETATM   33  P   UNL     1      16.031   4.601  94.114  1.00  0.00     0.000 P 
HETATM   34  H   UNL     1      14.670   4.805  94.007  1.00  0.00     0.000 HD
BRANCH  33  35
HETATM   35  O   UNL     1      16.673   5.554  93.310  1.00  0.00     0.000 OA
HETATM   36  H   UNL     1      16.605   5.123  92.441  1.00  0.00     0.000 HD
ENDBRANCH  33  35
ENDBRANCH  31  33
ENDBRANCH  26  31
ENDBRANCH  24  26
ENDBRANCH  19  22
ENDBRANCH  15  16
ENDBRANCH  11  14
ENDBRANCH   7   8
ENDBRANCH   2   7
TORSDOF 11
ENDMDL
MODEL 7
REMARK VINA RESULT:      -4.3      3.524     12.509
REMARK  11 active torsions:
REMARK  status: ('A' for Active; 'I' for Inactive)
REMARK    1  A    between atoms: O_2  and  C_18 
REMARK    2  A    between atoms: O_5  and  P_8 
REMARK    3  A    between atoms: N_6  and  C_11 
REMARK    4  A    between atoms: N_7  and  C_15 
REMARK       I    between atoms: N_7  and  C_24 
REMARK    5  A    between atoms: P_8  and  C_23 
REMARK    6  A    between atoms: C_11  and  C_14 
REMARK    7  A    between atoms: C_15  and  C_18 
REMARK    8  A    between atoms: C_15  and  C_23 
REMARK    9  A    between atoms: C_21  and  C_26 
REMARK   10  A    between atoms: C_24  and  C_25 
REMARK   11  A    between atoms: C_29  and  C_32 
ROOT
HETATM    1  O   UNL     1       2.647  13.953  93.005  1.00  0.00     0.000 OA
HETATM    2  N   UNL     1       2.715  12.799  90.404  1.00  0.00     0.000 N 
HETATM    3  C   UNL     1       2.673  11.965  91.613  1.00  0.00     0.000 C 
HETATM    4  C   UNL     1       3.381  14.076  90.696  1.00  0.00     0.000 C 
HETATM    5  C   UNL     1       1.973  12.721  92.739  1.00  0.00     0.000 C 
HETATM    6  C   UNL     1       2.665  14.782  91.843  1.00  0.00     0.000 C 
ENDROOT
BRANCH   2   7
HETATM    7  C   UNL     1       3.392  12.098  89.314  1.00  0.00     0.000 C 
BRANCH   7   8
HETATM    8  C   UNL     1       4.421  11.139  89.808  1.00  0.00     0.000 A 
HETATM    9  C   UNL     1       4.336   9.789  89.468  1.00  0.00     0.000 A 
HETATM   10  C   UNL     1       5.297   8.891  89.932  1.00  0.00     0.000 A 
HETATM   11  C   UNL     1       6.344   9.344  90.733  1.00  0.00     0.000 A 
HETATM   12  C   UNL     1       6.431  10.693  91.073  1.00  0.00     0.000 A 
HETATM   13  C   UNL     1       5.469  11.591  90.611  1.00  0.00     0.000 A 
BRANCH  11  14
HETATM   14  C   UNL     1       7.332   8.424  91.207  1.00  0.00     0.000 C 
HETATM   15  C   UNL     1       8.162   7.650  91.605  1.00  0.00     0.000 C 
BRANCH  15  16
HETATM   16  C   UNL     1       9.149   6.730  92.078  1.00  0.00     0.000 A 
HETATM   17  C   UNL     1       9.629   6.836  93.384  1.00  0.00     0.000 A 
HETATM   18  C   UNL     1      10.590   5.937  93.846  1.00  0.00     0.000 A 
HETATM   19  C   UNL     1      11.049   4.954  92.994  1.00  0.00     0.000 A 
HETATM   20  C   UNL     1      10.590   4.829  91.699  1.00  0.00     0.000 A 
HETATM   21  C   UNL     1       9.629   5.728  91.236  1.00  0.00     0.000 A 
BRANCH  19  22
HETATM   22  C   UNL     1      12.074   3.998  93.487  1.00  0.00     0.000 C 
HETATM   23  O   UNL     1      11.716   3.009  94.123  1.00  0.00     0.000 OA
HETATM   24  N   UNL     1      13.390   4.295  93.158  1.00  0.00     0.000 N 
HETATM   25  HN  UNL     1      13.608   5.117  92.608  1.00  0.00     0.000 HD
BRANCH  24  26
HETATM   26  C   UNL     1      14.494   3.452  93.542  1.00  0.00     0.000 C 
BRANCH  26  27
HETATM   27  C   UNL     1      14.527   2.128  92.769  1.00  0.00     0.000 C 
HETATM   28  C   UNL     1      14.580   0.915  93.691  1.00  0.00     0.000 C 
BRANCH  27  29
HETATM   29  O   UNL     1      13.368   2.030  91.941  1.00  0.00     0.000 OA
HETATM   30  H   UNL     1      13.656   1.797  91.042  1.00  0.00     0.000 HD
ENDBRANCH  27  29
ENDBRANCH  26  27
BRANCH  26  31
HETATM   31  C   UNL     1      15.779   4.246  93.336  1.00  0.00     0.000 C 
HETATM   32  O   UNL     1      15.874   5.170  92.530  1.00  0.00     0.000 OA
BRANCH  31  33
HETATM   33  P   UNL     1      16.807   3.783  94.121  1.00  0.00     0.000 P 
HETATM   34  H   UNL     1      17.465   4.876  94.646  1.00  0.00     0.000 HD
BRANCH  33  35
HETATM   35  O   UNL     1      17.756   2.981  93.472  1.00  0.00     0.000 OA
HETATM   36  H   UNL     1      18.007   3.567  92.737  1.00  0.00     0.000 HD
ENDBRANCH  33  35
ENDBRANCH  31  33
ENDBRANCH  26  31
ENDBRANCH  24  26
ENDBRANCH  19  22
ENDBRANCH  15  16
ENDBRANCH  11  14
ENDBRANCH   7   8
ENDBRANCH   2   7
TORSDOF 11
ENDMDL
