MODEL 1
REMARK VINA RESULT:      -6.3      0.000      0.000
REMARK  12 active torsions:
REMARK  status: ('A' for Active; 'I' for Inactive)
REMARK    1  A    between atoms: O_2  and  C_16 
REMARK    2  A    between atoms: N_5  and  C_9 
REMARK    3  A    between atoms: N_6  and  C_13 
REMARK       I    between atoms: N_6  and  C_22 
REMARK    4  A    between atoms: C_9  and  C_12 
REMARK    5  A    between atoms: C_13  and  C_16 
REMARK    6  A    between atoms: C_13  and  C_21 
REMARK    7  A    between atoms: C_19  and  C_24 
REMARK    8  A    between atoms: C_21  and  C_33 
REMARK    9  A    between atoms: C_22  and  C_23 
REMARK   10  A    between atoms: C_27  and  C_30 
REMARK   11  A    between atoms: C_33  and  C_34 
REMARK   12  A    between atoms: C_34  and  C_35 
ROOT
HETATM    1  O   UNL     1      16.565   4.546  93.984  1.00  0.00    -0.350 OA
HETATM    2  N   UNL     1      14.751   2.767  92.700  1.00  0.00     0.147 N 
HETATM    3  C   UNL     1      14.632   4.225  92.553  1.00  0.00     0.283 C 
HETATM    4  C   UNL     1      15.360   2.441  93.998  1.00  0.00     0.283 C 
HETATM    5  C   UNL     1      16.004   4.874  92.711  1.00  0.00     0.178 C 
HETATM    6  C   UNL     1      16.713   3.133  94.123  1.00  0.00     0.178 C 
ENDROOT
BRANCH   2   7
HETATM    7  C   UNL     1      13.445   2.125  92.562  1.00  0.00     0.277 C 
BRANCH   7   8
HETATM    8  C   UNL     1      12.332   3.113  92.481  1.00  0.00     0.011 A 
HETATM    9  C   UNL     1      11.660   3.307  91.273  1.00  0.00    -0.002 A 
HETATM   10  C   UNL     1      10.620   4.232  91.195  1.00  0.00     0.008 A 
HETATM   11  C   UNL     1      10.250   4.961  92.324  1.00  0.00     0.042 A 
HETATM   12  C   UNL     1      10.920   4.768  93.531  1.00  0.00     0.008 A 
HETATM   13  C   UNL     1      11.961   3.843  93.609  1.00  0.00    -0.002 A 
BRANCH  11  14
HETATM   14  C   UNL     1       9.181   5.909  92.244  1.00  0.00    -0.059 C 
HETATM   15  C   UNL     1       8.282   6.705  92.177  1.00  0.00    -0.059 C 
BRANCH  15  16
HETATM   16  C   UNL     1       7.214   7.652  92.098  1.00  0.00     0.042 A 
HETATM   17  C   UNL     1       7.463   9.004  92.338  1.00  0.00     0.008 A 
HETATM   18  C   UNL     1       6.421   9.928  92.258  1.00  0.00     0.005 A 
HETATM   19  C   UNL     1       5.156   9.480  91.940  1.00  0.00     0.056 A 
HETATM   20  C   UNL     1       4.885   8.150  91.699  1.00  0.00     0.005 A 
HETATM   21  C   UNL     1       5.926   7.225  91.779  1.00  0.00     0.008 A 
BRANCH  19  22
HETATM   22  C   UNL     1       4.046  10.465  91.857  1.00  0.00     0.254 C 
HETATM   23  O   UNL     1       2.889  10.059  91.776  1.00  0.00    -0.268 OA
HETATM   24  N   UNL     1       4.415  11.802  91.903  1.00  0.00    -0.335 N 
HETATM   25  HN  UNL     1       5.390  12.062  91.996  1.00  0.00     0.164 HD
BRANCH  24  26
HETATM   26  C   UNL     1       3.453  12.874  91.858  1.00  0.00     0.166 C 
BRANCH  26  27
HETATM   27  C   UNL     1       3.872  14.084  92.702  1.00  0.00     0.138 C 
HETATM   28  C   UNL     1       2.677  14.847  93.262  1.00  0.00     0.034 C 
BRANCH  27  29
HETATM   29  O   UNL     1       4.692  13.648  93.786  1.00  0.00    -0.383 OA
HETATM   30  H   UNL     1       4.171  13.705  94.605  1.00  0.00     0.210 HD
ENDBRANCH  27  29
ENDBRANCH  26  27
BRANCH  26  31
HETATM   31  C   UNL     1       3.254  13.260  90.396  1.00  0.00     0.181 C 
HETATM   32  O   UNL     1       2.504  14.166  90.038  1.00  0.00    -0.294 OA
BRANCH  31  33
HETATM   33  C   UNL     1       4.667  13.520  89.644  1.00  0.00     0.138 C 
BRANCH  33  34
HETATM   34  C   UNL     1       4.484  12.782  88.454  1.00  0.00     0.208 C 
HETATM   35  O   UNL     1       5.010  13.231  87.462  1.00  0.00    -0.289 OA
BRANCH  34  36
HETATM   36  C   UNL     1       4.057  11.496  88.265  1.00  0.00     0.194 C 
HETATM   37  O   UNL     1       4.790  10.312  88.123  1.00  0.00    -0.185 OA
ENDBRANCH  34  36
ENDBRANCH  33  34
ENDBRANCH  31  33
ENDBRANCH  26  31
ENDBRANCH  24  26
ENDBRANCH  19  22
ENDBRANCH  15  16
ENDBRANCH  11  14
ENDBRANCH   7   8
ENDBRANCH   2   7
TORSDOF 12
ENDMDL
MODEL 2
REMARK VINA RESULT:      -5.9      2.667     12.683
REMARK  12 active torsions:
REMARK  status: ('A' for Active; 'I' for Inactive)
REMARK    1  A    between atoms: O_2  and  C_16 
REMARK    2  A    between atoms: N_5  and  C_9 
REMARK    3  A    between atoms: N_6  and  C_13 
REMARK       I    between atoms: N_6  and  C_22 
REMARK    4  A    between atoms: C_9  and  C_12 
REMARK    5  A    between atoms: C_13  and  C_16 
REMARK    6  A    between atoms: C_13  and  C_21 
REMARK    7  A    between atoms: C_19  and  C_24 
REMARK    8  A    between atoms: C_21  and  C_33 
REMARK    9  A    between atoms: C_22  and  C_23 
REMARK   10  A    between atoms: C_27  and  C_30 
REMARK   11  A    between atoms: C_33  and  C_34 
REMARK   12  A    between atoms: C_34  and  C_35 
ROOT
HETATM    1  O   UNL     1       2.828  14.865  94.004  1.00  0.00    -0.350 OA
HETATM    2  N   UNL     1       2.624  14.565  91.181  1.00  0.00     0.147 N 
HETATM    3  C   UNL     1       1.574  14.071  92.084  1.00  0.00     0.283 C 
HETATM    4  C   UNL     1       3.925  14.546  91.864  1.00  0.00     0.283 C 
HETATM    5  C   UNL     1       1.554  14.910  93.359  1.00  0.00     0.178 C 
HETATM    6  C   UNL     1       3.849  15.372  93.144  1.00  0.00     0.178 C 
ENDROOT
BRANCH   2   7
HETATM    7  C   UNL     1       2.668  13.769  89.955  1.00  0.00     0.277 C 
BRANCH   7   8
HETATM    8  C   UNL     1       3.655  12.655  90.038  1.00  0.00     0.011 A 
HETATM    9  C   UNL     1       4.958  12.842  89.575  1.00  0.00    -0.002 A 
HETATM   10  C   UNL     1       5.881  11.800  89.649  1.00  0.00     0.008 A 
HETATM   11  C   UNL     1       5.502  10.571  90.188  1.00  0.00     0.042 A 
HETATM   12  C   UNL     1       4.201  10.382  90.651  1.00  0.00     0.008 A 
HETATM   13  C   UNL     1       3.277  11.425  90.576  1.00  0.00    -0.002 A 
BRANCH  11  14
HETATM   14  C   UNL     1       6.450   9.502  90.266  1.00  0.00    -0.059 C 
HETATM   15  C   UNL     1       7.246   8.603  90.333  1.00  0.00    -0.059 C 
BRANCH  15  16
HETATM   16  C   UNL     1       8.193   7.535  90.411  1.00  0.00     0.042 A 
HETATM   17  C   UNL     1       9.242   7.466  89.494  1.00  0.00     0.008 A 
HETATM   18  C   UNL     1      10.167   6.425  89.573  1.00  0.00     0.005 A 
HETATM   19  C   UNL     1      10.022   5.477  90.564  1.00  0.00     0.056 A 
HETATM   20  C   UNL     1       8.993   5.523  91.481  1.00  0.00     0.005 A 
HETATM   21  C   UNL     1       8.068   6.564  91.404  1.00  0.00     0.008 A 
BRANCH  19  22
HETATM   22  C   UNL     1      11.007   4.367  90.646  1.00  0.00     0.254 C 
HETATM   23  O   UNL     1      10.909   3.421  89.868  1.00  0.00    -0.268 OA
HETATM   24  N   UNL     1      12.000   4.505  91.606  1.00  0.00    -0.335 N 
HETATM   25  HN  UNL     1      12.032   5.327  92.197  1.00  0.00     0.164 HD
BRANCH  24  26
HETATM   26  C   UNL     1      13.040   3.525  91.791  1.00  0.00     0.166 C 
BRANCH  26  27
HETATM   27  C   UNL     1      14.318   3.862  91.012  1.00  0.00     0.138 C 
HETATM   28  C   UNL     1      14.416   3.101  89.694  1.00  0.00     0.034 C 
BRANCH  27  29
HETATM   29  O   UNL     1      14.357   5.263  90.742  1.00  0.00    -0.383 OA
HETATM   30  H   UNL     1      13.454   5.560  90.539  1.00  0.00     0.210 HD
ENDBRANCH  27  29
ENDBRANCH  26  27
BRANCH  26  31
HETATM   31  C   UNL     1      13.315   3.415  93.287  1.00  0.00     0.181 C 
HETATM   32  O   UNL     1      12.427   3.247  94.121  1.00  0.00    -0.294 OA
BRANCH  31  33
HETATM   33  C   UNL     1      14.454   2.308  93.610  1.00  0.00     0.138 C 
BRANCH  33  34
HETATM   34  C   UNL     1      15.536   3.131  93.992  1.00  0.00     0.208 C 
HETATM   35  O   UNL     1      16.632   2.620  93.959  1.00  0.00    -0.289 OA
BRANCH  34  36
HETATM   36  C   UNL     1      15.613   4.491  94.124  1.00  0.00     0.194 C 
HETATM   37  O   UNL     1      16.229   5.445  93.307  1.00  0.00    -0.185 OA
ENDBRANCH  34  36
ENDBRANCH  33  34
ENDBRANCH  31  33
ENDBRANCH  26  31
ENDBRANCH  24  26
ENDBRANCH  19  22
ENDBRANCH  15  16
ENDBRANCH  11  14
ENDBRANCH   7   8
ENDBRANCH   2   7
TORSDOF 12
ENDMDL
MODEL 3
REMARK VINA RESULT:      -5.6      1.330      2.058
REMARK  12 active torsions:
REMARK  status: ('A' for Active; 'I' for Inactive)
REMARK    1  A    between atoms: O_2  and  C_16 
REMARK    2  A    between atoms: N_5  and  C_9 
REMARK    3  A    between atoms: N_6  and  C_13 
REMARK       I    between atoms: N_6  and  C_22 
REMARK    4  A    between atoms: C_9  and  C_12 
REMARK    5  A    between atoms: C_13  and  C_16 
REMARK    6  A    between atoms: C_13  and  C_21 
REMARK    7  A    between atoms: C_19  and  C_24 
REMARK    8  A    between atoms: C_21  and  C_33 
REMARK    9  A    between atoms: C_22  and  C_23 
REMARK   10  A    between atoms: C_27  and  C_30 
REMARK   11  A    between atoms: C_33  and  C_34 
REMARK   12  A    between atoms: C_34  and  C_35 
ROOT
HETATM    1  O   UNL     1      15.834   4.280  93.974  1.00  0.00    -0.350 OA
HETATM    2  N   UNL     1      14.202   2.637  92.319  1.00  0.00     0.147 N 
HETATM    3  C   UNL     1      14.224   4.099  92.168  1.00  0.00     0.283 C 
HETATM    4  C   UNL     1      14.501   2.271  93.711  1.00  0.00     0.283 C 
HETATM    5  C   UNL     1      15.576   4.645  92.617  1.00  0.00     0.178 C 
HETATM    6  C   UNL     1      15.846   2.860  94.124  1.00  0.00     0.178 C 
ENDROOT
BRANCH   2   7
HETATM    7  C   UNL     1      12.911   2.093  91.905  1.00  0.00     0.277 C 
BRANCH   7   8
HETATM    8  C   UNL     1      11.878   3.153  91.725  1.00  0.00     0.011 A 
HETATM    9  C   UNL     1      11.313   3.770  92.841  1.00  0.00    -0.002 A 
HETATM   10  C   UNL     1      10.345   4.761  92.675  1.00  0.00     0.008 A 
HETATM   11  C   UNL     1       9.946   5.135  91.392  1.00  0.00     0.042 A 
HETATM   12  C   UNL     1      10.510   4.520  90.277  1.00  0.00     0.008 A 
HETATM   13  C   UNL     1      11.477   3.528  90.443  1.00  0.00    -0.002 A 
BRANCH  11  14
HETATM   14  C   UNL     1       8.955   6.153  91.222  1.00  0.00    -0.059 C 
HETATM   15  C   UNL     1       8.122   7.008  91.077  1.00  0.00    -0.059 C 
BRANCH  15  16
HETATM   16  C   UNL     1       7.131   8.025  90.906  1.00  0.00     0.042 A 
HETATM   17  C   UNL     1       7.270   8.969  89.888  1.00  0.00     0.008 A 
HETATM   18  C   UNL     1       6.302   9.958  89.720  1.00  0.00     0.005 A 
HETATM   19  C   UNL     1       5.217   9.982  90.572  1.00  0.00     0.056 A 
HETATM   20  C   UNL     1       5.057   9.060  91.585  1.00  0.00     0.005 A 
HETATM   21  C   UNL     1       6.025   8.070  91.755  1.00  0.00     0.008 A 
BRANCH  19  22
HETATM   22  C   UNL     1       4.187  11.038  90.393  1.00  0.00     0.254 C 
HETATM   23  O   UNL     1       3.466  11.010  89.399  1.00  0.00    -0.268 OA
HETATM   24  N   UNL     1       4.105  11.984  91.405  1.00  0.00    -0.335 N 
HETATM   25  HN  UNL     1       4.718  11.929  92.210  1.00  0.00     0.164 HD
BRANCH  24  26
HETATM   26  C   UNL     1       3.141  13.055  91.389  1.00  0.00     0.166 C 
BRANCH  26  27
HETATM   27  C   UNL     1       1.814  12.670  92.054  1.00  0.00     0.138 C 
HETATM   28  C   UNL     1       1.969  11.522  93.045  1.00  0.00     0.034 C 
BRANCH  27  29
HETATM   29  O   UNL     1       1.277  13.802  92.738  1.00  0.00    -0.383 OA
HETATM   30  H   UNL     1       0.316  13.682  92.819  1.00  0.00     0.210 HD
ENDBRANCH  27  29
ENDBRANCH  26  27
BRANCH  26  31
HETATM   31  C   UNL     1       3.775  14.262  92.073  1.00  0.00     0.181 C 
HETATM   32  O   UNL     1       4.387  14.184  93.136  1.00  0.00    -0.294 OA
BRANCH  31  33
HETATM   33  C   UNL     1       4.730  15.095  91.061  1.00  0.00     0.138 C 
BRANCH  33  34
HETATM   34  C   UNL     1       4.339  14.560  89.814  1.00  0.00     0.208 C 
HETATM   35  O   UNL     1       3.149  14.506  89.607  1.00  0.00    -0.289 OA
BRANCH  34  36
HETATM   36  C   UNL     1       5.063  14.351  88.672  1.00  0.00     0.194 C 
HETATM   37  O   UNL     1       5.571  13.166  88.127  1.00  0.00    -0.185 OA
ENDBRANCH  34  36
ENDBRANCH  33  34
ENDBRANCH  31  33
ENDBRANCH  26  31
ENDBRANCH  24  26
ENDBRANCH  19  22
ENDBRANCH  15  16
ENDBRANCH  11  14
ENDBRANCH   7   8
ENDBRANCH   2   7
TORSDOF 12
ENDMDL
MODEL 4
REMARK VINA RESULT:      -5.1      3.029     12.253
REMARK  12 active torsions:
REMARK  status: ('A' for Active; 'I' for Inactive)
REMARK    1  A    between atoms: O_2  and  C_16 
REMARK    2  A    between atoms: N_5  and  C_9 
REMARK    3  A    between atoms: N_6  and  C_13 
REMARK       I    between atoms: N_6  and  C_22 
REMARK    4  A    between atoms: C_9  and  C_12 
REMARK    5  A    between atoms: C_13  and  C_16 
REMARK    6  A    between atoms: C_13  and  C_21 
REMARK    7  A    between atoms: C_19  and  C_24 
REMARK    8  A    between atoms: C_21  and  C_33 
REMARK    9  A    between atoms: C_22  and  C_23 
REMARK   10  A    between atoms: C_27  and  C_30 
REMARK   11  A    between atoms: C_33  and  C_34 
REMARK   12  A    between atoms: C_34  and  C_35 
ROOT
HETATM    1  O   UNL     1       3.082  14.895  94.107  1.00  0.00    -0.350 OA
HETATM    2  N   UNL     1       2.692  14.849  91.288  1.00  0.00     0.147 N 
HETATM    3  C   UNL     1       1.766  14.168  92.202  1.00  0.00     0.283 C 
HETATM    4  C   UNL     1       4.038  14.896  91.877  1.00  0.00     0.283 C 
HETATM    5  C   UNL     1       1.764  14.873  93.556  1.00  0.00     0.178 C 
HETATM    6  C   UNL     1       3.983  15.582  93.238  1.00  0.00     0.178 C 
ENDROOT
BRANCH   2   7
HETATM    7  C   UNL     1       2.718  14.183  89.986  1.00  0.00     0.277 C 
BRANCH   7   8
HETATM    8  C   UNL     1       3.704  13.067  89.939  1.00  0.00     0.011 A 
HETATM    9  C   UNL     1       3.408  11.849  90.553  1.00  0.00    -0.002 A 
HETATM   10  C   UNL     1       4.332  10.804  90.510  1.00  0.00     0.008 A 
HETATM   11  C   UNL     1       5.549  10.977  89.853  1.00  0.00     0.042 A 
HETATM   12  C   UNL     1       5.845  12.192  89.239  1.00  0.00     0.008 A 
HETATM   13  C   UNL     1       4.923  13.238  89.281  1.00  0.00    -0.002 A 
BRANCH  11  14
HETATM   14  C   UNL     1       6.495   9.905  89.808  1.00  0.00    -0.059 C 
HETATM   15  C   UNL     1       7.290   9.003  89.769  1.00  0.00    -0.059 C 
BRANCH  15  16
HETATM   16  C   UNL     1       8.235   7.932  89.723  1.00  0.00     0.042 A 
HETATM   17  C   UNL     1       7.943   6.718  90.345  1.00  0.00     0.008 A 
HETATM   18  C   UNL     1       8.864   5.672  90.298  1.00  0.00     0.005 A 
HETATM   19  C   UNL     1      10.056   5.863  89.631  1.00  0.00     0.056 A 
HETATM   20  C   UNL     1      10.369   7.053  89.008  1.00  0.00     0.005 A 
HETATM   21  C   UNL     1       9.448   8.100  89.055  1.00  0.00     0.008 A 
BRANCH  19  22
HETATM   22  C   UNL     1      11.038   4.749  89.583  1.00  0.00     0.254 C 
HETATM   23  O   UNL     1      11.178   4.117  88.538  1.00  0.00    -0.268 OA
HETATM   24  N   UNL     1      11.757   4.521  90.748  1.00  0.00    -0.335 N 
HETATM   25  HN  UNL     1      11.605   5.100  91.566  1.00  0.00     0.164 HD
BRANCH  24  26
HETATM   26  C   UNL     1      12.762   3.494  90.851  1.00  0.00     0.166 C 
BRANCH  26  27
HETATM   27  C   UNL     1      14.161   4.058  91.128  1.00  0.00     0.138 C 
HETATM   28  C   UNL     1      15.269   3.072  90.773  1.00  0.00     0.034 C 
BRANCH  27  29
HETATM   29  O   UNL     1      14.350   5.256  90.376  1.00  0.00    -0.383 OA
HETATM   30  H   UNL     1      14.514   5.984  90.999  1.00  0.00     0.210 HD
ENDBRANCH  27  29
ENDBRANCH  26  27
BRANCH  26  31
HETATM   31  C   UNL     1      12.328   2.526  91.947  1.00  0.00     0.181 C 
HETATM   32  O   UNL     1      12.817   1.406  92.084  1.00  0.00    -0.294 OA
BRANCH  31  33
HETATM   33  C   UNL     1      12.367   3.218  93.412  1.00  0.00     0.138 C 
BRANCH  33  34
HETATM   34  C   UNL     1      11.205   4.020  93.367  1.00  0.00     0.208 C 
HETATM   35  O   UNL     1      10.227   3.512  92.868  1.00  0.00    -0.289 OA
BRANCH  34  36
HETATM   36  C   UNL     1      10.892   5.168  94.041  1.00  0.00     0.194 C 
HETATM   37  O   UNL     1       9.771   6.000  93.940  1.00  0.00    -0.185 OA
ENDBRANCH  34  36
ENDBRANCH  33  34
ENDBRANCH  31  33
ENDBRANCH  26  31
ENDBRANCH  24  26
ENDBRANCH  19  22
ENDBRANCH  15  16
ENDBRANCH  11  14
ENDBRANCH   7   8
ENDBRANCH   2   7
TORSDOF 12
ENDMDL
