MODEL 1
REMARK VINA RESULT:      -7.0      0.000      0.000
REMARK  10 active torsions:
REMARK  status: ('A' for Active; 'I' for Inactive)
REMARK    1  A    between atoms: O_2  and  C_16 
REMARK    2  A    between atoms: N_5  and  C_9 
REMARK    3  A    between atoms: N_6  and  C_13 
REMARK       I    between atoms: N_6  and  C_22 
REMARK    4  A    between atoms: C_9  and  C_12 
REMARK    5  A    between atoms: C_13  and  C_16 
REMARK    6  A    between atoms: C_13  and  C_21 
REMARK    7  A    between atoms: C_19  and  C_24 
REMARK    8  A    between atoms: C_22  and  C_23 
REMARK    9  A    between atoms: C_27  and  C_30 
REMARK   10  A    between atoms: N_33  and  S_34 
ROOT
HETATM    1  C   UNL     1       5.668  10.874  89.597  1.00  0.00     0.056 A 
HETATM    2  C   UNL     1       5.146   9.662  89.998  1.00  0.00     0.005 A 
HETATM    3  C   UNL     1       7.024  11.081  89.458  1.00  0.00     0.005 A 
HETATM    4  C   UNL     1       7.395   8.794  90.143  1.00  0.00     0.042 A 
HETATM    5  C   UNL     1       6.018   8.610  90.275  1.00  0.00     0.008 A 
HETATM    6  C   UNL     1       7.898  10.030  89.735  1.00  0.00     0.008 A 
ENDROOT
BRANCH   1   7
HETATM    7  C   UNL     1       4.738  11.994  89.300  1.00  0.00     0.254 C 
HETATM    8  O   UNL     1       4.548  12.322  88.131  1.00  0.00    -0.268 OA
HETATM    9  N   UNL     1       4.122  12.579  90.397  1.00  0.00    -0.337 N 
HETATM   10  HN  UNL     1       4.308  12.238  91.333  1.00  0.00     0.164 HD
BRANCH   9  11
HETATM   11  C   UNL     1       3.176  13.659  90.271  1.00  0.00     0.172 C 
BRANCH  11  12
HETATM   12  C   UNL     1       1.933  13.466  91.149  1.00  0.00     0.136 C 
HETATM   13  C   UNL     1       2.131  12.391  92.212  1.00  0.00     0.034 C 
BRANCH  12  14
HETATM   14  O   UNL     1       1.606  14.698  91.791  1.00  0.00    -0.383 OA
HETATM   15  H   UNL     1       2.253  14.854  92.500  1.00  0.00     0.210 HD
ENDBRANCH  12  14
ENDBRANCH  11  12
BRANCH  11  16
HETATM   16  C   UNL     1       3.901  14.956  90.614  1.00  0.00     0.398 A 
HETATM   17  O   UNL     1       5.014  15.238  90.173  1.00  0.00    -0.136 OA
HETATM   18  N   UNL     1       4.937  15.560  91.657  1.00  0.00     0.142 N 
HETATM   19  HN  UNL     1       5.853  15.869  91.490  1.00  0.00     0.338 HD
BRANCH  18  20
HETATM   20  S   UNL     1       4.248  15.262  92.827  1.00  0.00     0.076 SA
HETATM   21  H   UNL     1       4.890  14.821  93.724  1.00  0.00     0.136 HD
ENDBRANCH  18  20
ENDBRANCH  11  16
ENDBRANCH   9  11
ENDBRANCH   1   7
BRANCH   4  22
HETATM   22  C   UNL     1       8.290   7.717  90.430  1.00  0.00    -0.059 C 
HETATM   23  C   UNL     1       9.043   6.811  90.671  1.00  0.00    -0.059 C 
BRANCH  23  24
HETATM   24  C   UNL     1       9.938   5.732  90.958  1.00  0.00     0.042 A 
HETATM   25  C   UNL     1      10.619   5.098  89.920  1.00  0.00     0.008 A 
HETATM   26  C   UNL     1      11.490   4.045  90.199  1.00  0.00    -0.002 A 
HETATM   27  C   UNL     1      11.680   3.628  91.517  1.00  0.00     0.011 A 
HETATM   28  C   UNL     1      10.998   4.264  92.555  1.00  0.00    -0.002 A 
HETATM   29  C   UNL     1      10.127   5.317  92.275  1.00  0.00     0.008 A 
BRANCH  27  30
HETATM   30  C   UNL     1      12.613   2.504  91.815  1.00  0.00     0.277 C 
BRANCH  30  31
HETATM   31  N   UNL     1      13.608   2.859  92.826  1.00  0.00     0.147 N 
HETATM   32  C   UNL     1      14.531   1.740  93.062  1.00  0.00     0.283 C 
HETATM   33  C   UNL     1      15.566   2.137  94.112  1.00  0.00     0.178 C 
HETATM   34  O   UNL     1      16.286   3.296  93.687  1.00  0.00    -0.350 OA
HETATM   35  C   UNL     1      15.400   4.397  93.484  1.00  0.00     0.178 C 
HETATM   36  C   UNL     1      14.361   4.055  92.421  1.00  0.00     0.283 C 
ENDBRANCH  30  31
ENDBRANCH  27  30
ENDBRANCH  23  24
ENDBRANCH   4  22
TORSDOF 10
ENDMDL
