MODEL 1
REMARK VINA RESULT:      -5.7      0.000      0.000
REMARK  12 active torsions:
REMARK  status: ('A' for Active; 'I' for Inactive)
REMARK    1  A    between atoms: O_2  and  C_16 
REMARK    2  A    between atoms: N_5  and  C_9 
REMARK    3  A    between atoms: N_6  and  C_13 
REMARK       I    between atoms: N_6  and  C_22 
REMARK    4  A    between atoms: C_9  and  C_12 
REMARK    5  A    between atoms: C_13  and  C_16 
REMARK    6  A    between atoms: C_13  and  C_21 
REMARK    7  A    between atoms: C_19  and  C_24 
REMARK    8  A    between atoms: C_21  and  C_33 
REMARK    9  A    between atoms: C_22  and  C_23 
REMARK   10  A    between atoms: C_27  and  C_30 
REMARK   11  A    between atoms: C_33  and  C_34 
REMARK   12  A    between atoms: C_34  and  C_35 
ROOT
HETATM    1  O   UNL     1      17.269   4.851  93.301  1.00  0.00    -0.350 OA
HETATM    2  N   UNL     1      15.393   2.803  93.924  1.00  0.00     0.147 N 
HETATM    3  C   UNL     1      16.579   2.533  93.099  1.00  0.00     0.283 C 
HETATM    4  C   UNL     1      14.978   4.203  93.766  1.00  0.00     0.283 C 
HETATM    5  C   UNL     1      17.700   3.499  93.473  1.00  0.00     0.178 C 
HETATM    6  C   UNL     1      16.136   5.130  94.124  1.00  0.00     0.178 C 
ENDROOT
BRANCH   2   7
HETATM    7  C   UNL     1      14.302   1.894  93.575  1.00  0.00     0.277 C 
BRANCH   7   8
HETATM    8  C   UNL     1      13.207   2.581  92.833  1.00  0.00     0.011 A 
HETATM    9  C   UNL     1      13.376   2.908  91.487  1.00  0.00    -0.002 A 
HETATM   10  C   UNL     1      12.353   3.552  90.792  1.00  0.00     0.008 A 
HETATM   11  C   UNL     1      11.161   3.868  91.443  1.00  0.00     0.042 A 
HETATM   12  C   UNL     1      10.991   3.543  92.787  1.00  0.00     0.008 A 
HETATM   13  C   UNL     1      12.014   2.899  93.483  1.00  0.00    -0.002 A 
BRANCH  11  14
HETATM   14  C   UNL     1      10.111   4.528  90.729  1.00  0.00    -0.059 C 
HETATM   15  C   UNL     1       9.229   5.082  90.129  1.00  0.00    -0.059 C 
BRANCH  15  16
HETATM   16  C   UNL     1       8.179   5.741  89.415  1.00  0.00     0.042 A 
HETATM   17  C   UNL     1       8.444   6.339  88.183  1.00  0.00     0.008 A 
HETATM   18  C   UNL     1       7.420   6.979  87.486  1.00  0.00     0.005 A 
HETATM   19  C   UNL     1       6.155   7.006  88.034  1.00  0.00     0.056 A 
HETATM   20  C   UNL     1       5.868   6.422  89.250  1.00  0.00     0.005 A 
HETATM   21  C   UNL     1       6.891   5.782  89.949  1.00  0.00     0.008 A 
BRANCH  19  22
HETATM   22  C   UNL     1       5.065   7.689  87.292  1.00  0.00     0.254 C 
HETATM   23  O   UNL     1       5.080   7.684  86.063  1.00  0.00    -0.268 OA
HETATM   24  N   UNL     1       4.075   8.275  88.068  1.00  0.00    -0.335 N 
HETATM   25  HN  UNL     1       4.115   8.218  89.079  1.00  0.00     0.164 HD
BRANCH  24  26
HETATM   26  C   UNL     1       2.940   8.954  87.496  1.00  0.00     0.166 C 
BRANCH  26  27
HETATM   27  C   UNL     1       1.602   8.330  87.914  1.00  0.00     0.138 C 
HETATM   28  C   UNL     1       1.283   7.058  87.138  1.00  0.00     0.034 C 
BRANCH  27  29
HETATM   29  O   UNL     1       1.632   8.027  89.308  1.00  0.00    -0.383 OA
HETATM   30  H   UNL     1       1.165   8.734  89.784  1.00  0.00     0.210 HD
ENDBRANCH  27  29
ENDBRANCH  26  27
BRANCH  26  31
HETATM   31  C   UNL     1       3.019  10.421  87.904  1.00  0.00     0.181 C 
HETATM   32  O   UNL     1       2.064  11.191  87.823  1.00  0.00    -0.294 OA
BRANCH  31  33
HETATM   33  C   UNL     1       3.619  10.598  89.400  1.00  0.00     0.138 C 
BRANCH  33  34
HETATM   34  C   UNL     1       4.835  11.263  89.130  1.00  0.00     0.208 C 
HETATM   35  O   UNL     1       5.713  10.589  88.641  1.00  0.00    -0.289 OA
BRANCH  34  36
HETATM   36  C   UNL     1       5.119  12.599  89.055  1.00  0.00     0.194 C 
HETATM   37  O   UNL     1       6.069  13.280  88.285  1.00  0.00    -0.185 OA
ENDBRANCH  34  36
ENDBRANCH  33  34
ENDBRANCH  31  33
ENDBRANCH  26  31
ENDBRANCH  24  26
ENDBRANCH  19  22
ENDBRANCH  15  16
ENDBRANCH  11  14
ENDBRANCH   7   8
ENDBRANCH   2   7
TORSDOF 12
ENDMDL
