MODEL 1
REMARK VINA RESULT:      -6.4      0.000      0.000
REMARK  14 active torsions:
REMARK  status: ('A' for Active; 'I' for Inactive)
REMARK    1  A    between atoms: O_2  and  C_18 
REMARK    2  A    between atoms: C_5  and  C_8 
REMARK    3  A    between atoms: C_5  and  O_35 
REMARK    4  A    between atoms: C_5  and  C_36 
REMARK    5  A    between atoms: N_6  and  C_11 
REMARK    6  A    between atoms: N_7  and  C_15 
REMARK       I    between atoms: N_7  and  C_24 
REMARK    7  A    between atoms: C_8  and  C_23 
REMARK    8  A    between atoms: C_11  and  C_14 
REMARK    9  A    between atoms: C_15  and  C_18 
REMARK   10  A    between atoms: C_15  and  C_23 
REMARK   11  A    between atoms: C_21  and  C_26 
REMARK   12  A    between atoms: C_24  and  C_25 
REMARK   13  A    between atoms: C_29  and  C_32 
REMARK   14  A    between atoms: C_36  and  O_39 
ROOT
HETATM    1  O   UNL     1      16.824   4.025  93.954  1.00  0.00    -0.350 OA
HETATM    2  N   UNL     1      14.393   2.758  93.185  1.00  0.00     0.147 N 
HETATM    3  C   UNL     1      15.688   2.075  93.060  1.00  0.00     0.283 C 
HETATM    4  C   UNL     1      14.576   4.211  93.060  1.00  0.00     0.283 C 
HETATM    5  C   UNL     1      16.660   2.614  94.107  1.00  0.00     0.178 C 
HETATM    6  C   UNL     1      15.574   4.699  94.105  1.00  0.00     0.178 C 
ENDROOT
BRANCH   2   7
HETATM    7  C   UNL     1      13.449   2.265  92.183  1.00  0.00     0.277 C 
BRANCH   7   8
HETATM    8  C   UNL     1      12.331   3.220  91.938  1.00  0.00     0.011 A 
HETATM    9  C   UNL     1      11.373   3.441  92.928  1.00  0.00    -0.002 A 
HETATM   10  C   UNL     1      10.326   4.332  92.699  1.00  0.00     0.008 A 
HETATM   11  C   UNL     1      10.238   5.005  91.480  1.00  0.00     0.042 A 
HETATM   12  C   UNL     1      11.194   4.786  90.491  1.00  0.00     0.008 A 
HETATM   13  C   UNL     1      12.242   3.894  90.719  1.00  0.00    -0.002 A 
BRANCH  11  14
HETATM   14  C   UNL     1       9.165   5.921  91.246  1.00  0.00    -0.059 C 
HETATM   15  C   UNL     1       8.263   6.691  91.048  1.00  0.00    -0.059 C 
BRANCH  15  16
HETATM   16  C   UNL     1       7.189   7.606  90.813  1.00  0.00     0.042 A 
HETATM   17  C   UNL     1       6.894   8.014  89.512  1.00  0.00     0.008 A 
HETATM   18  C   UNL     1       5.845   8.905  89.283  1.00  0.00     0.005 A 
HETATM   19  C   UNL     1       5.116   9.367  90.359  1.00  0.00     0.056 A 
HETATM   20  C   UNL     1       5.389   8.979  91.654  1.00  0.00     0.005 A 
HETATM   21  C   UNL     1       6.437   8.089  91.884  1.00  0.00     0.008 A 
BRANCH  19  22
HETATM   22  C   UNL     1       4.000  10.317  90.115  1.00  0.00     0.254 C 
HETATM   23  O   UNL     1       3.229  10.110  89.180  1.00  0.00    -0.268 OA
HETATM   24  N   UNL     1       3.901  11.380  91.002  1.00  0.00    -0.335 N 
HETATM   25  HN  UNL     1       4.560  11.473  91.766  1.00  0.00     0.164 HD
BRANCH  24  26
HETATM   26  C   UNL     1       2.859  12.371  90.912  1.00  0.00     0.169 C 
BRANCH  26  27
HETATM   27  C   UNL     1       1.896  12.330  92.105  1.00  0.00     0.138 C 
HETATM   28  C   UNL     1       2.474  11.575  93.296  1.00  0.00     0.034 C 
BRANCH  27  29
HETATM   29  O   UNL     1       1.579  13.662  92.509  1.00  0.00    -0.383 OA
HETATM   30  H   UNL     1       2.369  14.050  92.923  1.00  0.00     0.210 HD
ENDBRANCH  27  29
ENDBRANCH  26  27
BRANCH  26  31
HETATM   31  C   UNL     1       3.526  13.737  90.784  1.00  0.00     0.194 C 
HETATM   32  O   UNL     1       4.075  14.305  91.727  1.00  0.00    -0.289 OA
BRANCH  31  33
HETATM   33  C   UNL     1       3.403  14.258  89.519  1.00  0.00     0.053 C 
BRANCH  33  34
HETATM   34  C   UNL     1       4.577  14.285  88.754  1.00  0.00     0.220 C 
BRANCH  34  35
HETATM   35  O   UNL     1       5.518  14.592  89.511  1.00  0.00    -0.371 OA
HETATM   36  H   UNL     1       5.018  15.066  90.158  1.00  0.00     0.211 HD
ENDBRANCH  34  35
BRANCH  34  37
HETATM   37  C   UNL     1       4.820  13.089  88.058  1.00  0.00     0.185 C 
HETATM   38  O   UNL     1       6.041  13.239  88.549  1.00  0.00    -0.647 OA
BRANCH  37  39
HETATM   39  O   UNL     1       4.208  12.353  87.344  1.00  0.00    -0.774 OA
HETATM   40  H   UNL     1       4.651  12.320  86.299  1.00  0.00     0.167 HD
ENDBRANCH  37  39
ENDBRANCH  34  37
ENDBRANCH  33  34
ENDBRANCH  31  33
ENDBRANCH  26  31
ENDBRANCH  24  26
ENDBRANCH  19  22
ENDBRANCH  15  16
ENDBRANCH  11  14
ENDBRANCH   7   8
ENDBRANCH   2   7
TORSDOF 14
ENDMDL
