MODEL 1
REMARK VINA RESULT:      -7.5      0.000      0.000
REMARK  9 active torsions:
REMARK  status: ('A' for Active; 'I' for Inactive)
REMARK    1  A    between atoms: N_3  and  C_6 
REMARK    2  A    between atoms: C_6  and  C_9 
REMARK    3  A    between atoms: C_14  and  C_17 
REMARK       I    between atoms: N_26  and  C_15 
REMARK    4  A    between atoms: C_15  and  C_16 
REMARK    5  A    between atoms: C_20  and  C_23 
REMARK    6  A    between atoms: OG1_24  and  CB_28 
REMARK    7  A    between atoms: N_26  and  CA_27 
REMARK    8  A    between atoms: CA_27  and  CB_28 
REMARK    9  A    between atoms: CA_27  and  C_30 
ROOT
HETATM    1  O   UNK A   0       1.938   8.089  87.809  1.00  0.00    -0.388 OA
HETATM    2  N   UNK A   0       4.735   7.580  87.670  1.00  0.00     0.096 N 
HETATM    3  C   UNK A   0       4.207   8.948  87.772  1.00  0.00     0.299 C 
HETATM    4  C   UNK A   0       3.761   6.715  86.991  1.00  0.00     0.299 C 
HETATM    5  C   UNK A   0       2.864   8.931  88.498  1.00  0.00     0.198 C 
HETATM    6  C   UNK A   0       2.429   6.751  87.733  1.00  0.00     0.198 C 
ENDROOT
BRANCH   2   7
HETATM    7  C   UNK A   0       6.017   7.571  86.968  1.00  0.00     0.311 C 
BRANCH   7   8
HETATM    8  C   UNK A   0       7.107   6.964  87.785  1.00  0.00    -0.030 A 
HETATM    9  C   UNK A   0       6.869   6.613  89.114  1.00  0.00     0.010 A 
HETATM   10  C   UNK A   0       7.888   6.046  89.879  1.00  0.00     0.021 A 
HETATM   11  C   UNK A   0       9.144   5.829  89.314  1.00  0.00     0.018 A 
HETATM   12  C   UNK A   0       9.383   6.179  87.986  1.00  0.00     0.021 A 
HETATM   13  C   UNK A   0       8.364   6.746  87.221  1.00  0.00     0.010 A 
BRANCH  11  14
HETATM   14  C   UNK A   0      10.189   5.246  90.098  1.00  0.00    -0.061 C 
HETATM   15  C   UNK A   0      11.067   4.756  90.758  1.00  0.00    -0.061 C 
BRANCH  15  16
HETATM   16  C   UNK A   0      12.110   4.173  91.542  1.00  0.00     0.018 A 
HETATM   17  C   UNK A   0      11.894   3.895  92.892  1.00  0.00     0.022 A 
HETATM   18  C   UNK A   0      12.911   3.324  93.657  1.00  0.00     0.018 A 
HETATM   19  C   UNK A   0      14.120   3.043  93.055  1.00  0.00     0.032 A 
HETATM   20  C   UNK A   0      14.358   3.308  91.723  1.00  0.00     0.018 A 
HETATM   21  C   UNK A   0      13.342   3.880  90.957  1.00  0.00     0.022 A 
BRANCH  19  22
HETATM   22  C   UNK A   0      15.204   2.436  93.870  1.00  0.00     0.252 C 
HETATM   23  O   UNK A   0      16.340   2.897  93.796  1.00  0.00    -0.268 OA
ENDBRANCH  19  22
ENDBRANCH  15  16
ENDBRANCH  11  14
ENDBRANCH   7   8
ENDBRANCH   2   7
TORSDOF 9
ENDMDL
MODEL 2
REMARK VINA RESULT:      -7.5      0.199      1.026
REMARK  9 active torsions:
REMARK  status: ('A' for Active; 'I' for Inactive)
REMARK    1  A    between atoms: N_3  and  C_6 
REMARK    2  A    between atoms: C_6  and  C_9 
REMARK    3  A    between atoms: C_14  and  C_17 
REMARK       I    between atoms: N_26  and  C_15 
REMARK    4  A    between atoms: C_15  and  C_16 
REMARK    5  A    between atoms: C_20  and  C_23 
REMARK    6  A    between atoms: OG1_24  and  CB_28 
REMARK    7  A    between atoms: N_26  and  CA_27 
REMARK    8  A    between atoms: CA_27  and  CB_28 
REMARK    9  A    between atoms: CA_27  and  C_30 
ROOT
HETATM    1  O   UNK A   0       1.727   7.921  87.797  1.00  0.00    -0.388 OA
HETATM    2  N   UNK A   0       4.546   7.546  87.677  1.00  0.00     0.096 N 
HETATM    3  C   UNK A   0       3.953   8.888  87.756  1.00  0.00     0.299 C 
HETATM    4  C   UNK A   0       3.619   6.624  87.006  1.00  0.00     0.299 C 
HETATM    5  C   UNK A   0       2.609   8.817  88.477  1.00  0.00     0.198 C 
HETATM    6  C   UNK A   0       2.284   6.607  87.743  1.00  0.00     0.198 C 
ENDROOT
BRANCH   2   7
HETATM    7  C   UNK A   0       5.831   7.588  86.980  1.00  0.00     0.311 C 
BRANCH   7   8
HETATM    8  C   UNK A   0       6.931   6.979  87.781  1.00  0.00    -0.030 A 
HETATM    9  C   UNK A   0       8.163   6.711  87.181  1.00  0.00     0.010 A 
HETATM   10  C   UNK A   0       9.192   6.139  87.928  1.00  0.00     0.021 A 
HETATM   11  C   UNK A   0       8.990   5.837  89.275  1.00  0.00     0.018 A 
HETATM   12  C   UNK A   0       7.761   6.105  89.875  1.00  0.00     0.021 A 
HETATM   13  C   UNK A   0       6.731   6.676  89.128  1.00  0.00     0.010 A 
BRANCH  11  14
HETATM   14  C   UNK A   0      10.047   5.252  90.042  1.00  0.00    -0.061 C 
HETATM   15  C   UNK A   0      10.936   4.762  90.686  1.00  0.00    -0.061 C 
BRANCH  15  16
HETATM   16  C   UNK A   0      11.992   4.178  91.453  1.00  0.00     0.018 A 
HETATM   17  C   UNK A   0      11.757   3.773  92.767  1.00  0.00     0.022 A 
HETATM   18  C   UNK A   0      12.786   3.201  93.514  1.00  0.00     0.018 A 
HETATM   19  C   UNK A   0      14.027   3.046  92.931  1.00  0.00     0.032 A 
HETATM   20  C   UNK A   0      14.284   3.439  91.634  1.00  0.00     0.018 A 
HETATM   21  C   UNK A   0      13.255   4.011  90.886  1.00  0.00     0.022 A 
BRANCH  19  22
HETATM   22  C   UNK A   0      15.124   2.439  93.728  1.00  0.00     0.252 C 
HETATM   23  O   UNK A   0      16.282   2.794  93.523  1.00  0.00    -0.268 OA
ENDBRANCH  19  22
ENDBRANCH  15  16
ENDBRANCH  11  14
ENDBRANCH   7   8
ENDBRANCH   2   7
TORSDOF 9
ENDMDL
MODEL 3
REMARK VINA RESULT:      -7.0      1.435      1.762
REMARK  9 active torsions:
REMARK  status: ('A' for Active; 'I' for Inactive)
REMARK    1  A    between atoms: N_3  and  C_6 
REMARK    2  A    between atoms: C_6  and  C_9 
REMARK    3  A    between atoms: C_14  and  C_17 
REMARK       I    between atoms: N_26  and  C_15 
REMARK    4  A    between atoms: C_15  and  C_16 
REMARK    5  A    between atoms: C_20  and  C_23 
REMARK    6  A    between atoms: OG1_24  and  CB_28 
REMARK    7  A    between atoms: N_26  and  CA_27 
REMARK    8  A    between atoms: CA_27  and  CB_28 
REMARK    9  A    between atoms: CA_27  and  C_30 
ROOT
HETATM    1  O   UNK A   0       4.882  11.132  88.692  1.00  0.00    -0.388 OA
HETATM    2  N   UNK A   0       5.296   8.315  88.680  1.00  0.00     0.096 N 
HETATM    3  C   UNK A   0       6.404   9.253  88.905  1.00  0.00     0.299 C 
HETATM    4  C   UNK A   0       4.267   8.945  87.841  1.00  0.00     0.299 C 
HETATM    5  C   UNK A   0       5.873  10.540  89.533  1.00  0.00     0.198 C 
HETATM    6  C   UNK A   0       3.787  10.238  88.492  1.00  0.00     0.198 C 
ENDROOT
BRANCH   2   7
HETATM    7  C   UNK A   0       5.780   7.079  88.068  1.00  0.00     0.311 C 
BRANCH   7   8
HETATM    8  C   UNK A   0       6.970   6.524  88.775  1.00  0.00    -0.030 A 
HETATM    9  C   UNK A   0       6.831   5.987  90.055  1.00  0.00     0.010 A 
HETATM   10  C   UNK A   0       7.944   5.469  90.718  1.00  0.00     0.021 A 
HETATM   11  C   UNK A   0       9.194   5.488  90.100  1.00  0.00     0.018 A 
HETATM   12  C   UNK A   0       9.333   6.024  88.822  1.00  0.00     0.021 A 
HETATM   13  C   UNK A   0       8.221   6.542  88.158  1.00  0.00     0.010 A 
BRANCH  11  14
HETATM   14  C   UNK A   0      10.335   4.955  90.779  1.00  0.00    -0.061 C 
HETATM   15  C   UNK A   0      11.294   4.507  91.350  1.00  0.00    -0.061 C 
BRANCH  15  16
HETATM   16  C   UNK A   0      12.434   3.975  92.029  1.00  0.00     0.018 A 
HETATM   17  C   UNK A   0      12.359   3.680  93.390  1.00  0.00     0.022 A 
HETATM   18  C   UNK A   0      13.471   3.159  94.052  1.00  0.00     0.018 A 
HETATM   19  C   UNK A   0      14.631   2.944  93.338  1.00  0.00     0.032 A 
HETATM   20  C   UNK A   0      14.731   3.229  91.992  1.00  0.00     0.018 A 
HETATM   21  C   UNK A   0      13.620   3.750  91.329  1.00  0.00     0.022 A 
BRANCH  19  22
HETATM   22  C   UNK A   0      15.816   2.391  94.043  1.00  0.00     0.252 C 
HETATM   23  O   UNK A   0      16.932   2.832  93.780  1.00  0.00    -0.268 OA
ENDBRANCH  19  22
ENDBRANCH  15  16
ENDBRANCH  11  14
ENDBRANCH   7   8
ENDBRANCH   2   7
TORSDOF 9
ENDMDL
MODEL 4
REMARK VINA RESULT:      -6.8      1.571      2.255
REMARK  9 active torsions:
REMARK  status: ('A' for Active; 'I' for Inactive)
REMARK    1  A    between atoms: N_3  and  C_6 
REMARK    2  A    between atoms: C_6  and  C_9 
REMARK    3  A    between atoms: C_14  and  C_17 
REMARK       I    between atoms: N_26  and  C_15 
REMARK    4  A    between atoms: C_15  and  C_16 
REMARK    5  A    between atoms: C_20  and  C_23 
REMARK    6  A    between atoms: OG1_24  and  CB_28 
REMARK    7  A    between atoms: N_26  and  CA_27 
REMARK    8  A    between atoms: CA_27  and  CB_28 
REMARK    9  A    between atoms: CA_27  and  C_30 
ROOT
HETATM    1  O   UNK A   0       3.330  11.568  89.594  1.00  0.00    -0.388 OA
HETATM    2  N   UNK A   0       4.797   9.324  88.635  1.00  0.00     0.096 N 
HETATM    3  C   UNK A   0       3.778   9.986  87.808  1.00  0.00     0.299 C 
HETATM    4  C   UNK A   0       4.465   9.475  90.059  1.00  0.00     0.299 C 
HETATM    5  C   UNK A   0       3.661  11.455  88.208  1.00  0.00     0.198 C 
HETATM    6  C   UNK A   0       4.331  10.954  90.406  1.00  0.00     0.198 C 
ENDROOT
BRANCH   2   7
HETATM    7  C   UNK A   0       4.918   7.913  88.276  1.00  0.00     0.311 C 
BRANCH   7   8
HETATM    8  C   UNK A   0       6.145   7.285  88.845  1.00  0.00    -0.030 A 
HETATM    9  C   UNK A   0       6.039   6.143  89.639  1.00  0.00     0.010 A 
HETATM   10  C   UNK A   0       7.185   5.556  90.174  1.00  0.00     0.021 A 
HETATM   11  C   UNK A   0       8.438   6.111  89.912  1.00  0.00     0.018 A 
HETATM   12  C   UNK A   0       8.545   7.252  89.119  1.00  0.00     0.021 A 
HETATM   13  C   UNK A   0       7.398   7.839  88.585  1.00  0.00     0.010 A 
BRANCH  11  14
HETATM   14  C   UNK A   0       9.614   5.508  90.459  1.00  0.00    -0.061 C 
HETATM   15  C   UNK A   0      10.603   5.000  90.919  1.00  0.00    -0.061 C 
BRANCH  15  16
HETATM   16  C   UNK A   0      11.778   4.397  91.465  1.00  0.00     0.018 A 
HETATM   17  C   UNK A   0      12.919   4.253  90.674  1.00  0.00     0.022 A 
HETATM   18  C   UNK A   0      14.066   3.667  91.208  1.00  0.00     0.018 A 
HETATM   19  C   UNK A   0      14.048   3.238  92.519  1.00  0.00     0.032 A 
HETATM   20  C   UNK A   0      12.933   3.369  93.320  1.00  0.00     0.018 A 
HETATM   21  C   UNK A   0      11.785   3.955  92.787  1.00  0.00     0.022 A 
BRANCH  19  22
HETATM   22  C   UNK A   0      15.270   2.612  93.086  1.00  0.00     0.252 C 
HETATM   23  O   UNK A   0      16.099   3.320  93.652  1.00  0.00    -0.268 OA
ENDBRANCH  19  22
ENDBRANCH  15  16
ENDBRANCH  11  14
ENDBRANCH   7   8
ENDBRANCH   2   7
TORSDOF 9
ENDMDL
MODEL 5
REMARK VINA RESULT:      -6.6      3.538     10.293
REMARK  9 active torsions:
REMARK  status: ('A' for Active; 'I' for Inactive)
REMARK    1  A    between atoms: N_3  and  C_6 
REMARK    2  A    between atoms: C_6  and  C_9 
REMARK    3  A    between atoms: C_14  and  C_17 
REMARK       I    between atoms: N_26  and  C_15 
REMARK    4  A    between atoms: C_15  and  C_16 
REMARK    5  A    between atoms: C_20  and  C_23 
REMARK    6  A    between atoms: OG1_24  and  CB_28 
REMARK    7  A    between atoms: N_26  and  CA_27 
REMARK    8  A    between atoms: CA_27  and  CB_28 
REMARK    9  A    between atoms: CA_27  and  C_30 
ROOT
HETATM    1  O   UNK A   0      16.000   3.055  93.660  1.00  0.00    -0.388 OA
HETATM    2  N   UNK A   0      13.335   2.984  92.662  1.00  0.00     0.096 N 
HETATM    3  C   UNK A   0      14.045   1.755  93.043  1.00  0.00     0.299 C 
HETATM    4  C   UNK A   0      14.295   4.003  92.217  1.00  0.00     0.299 C 
HETATM    5  C   UNK A   0      15.076   2.068  94.124  1.00  0.00     0.198 C 
HETATM    6  C   UNK A   0      15.320   4.263  93.317  1.00  0.00     0.198 C 
ENDROOT
BRANCH   2   7
HETATM    7  C   UNK A   0      12.348   2.709  91.619  1.00  0.00     0.311 C 
BRANCH   7   8
HETATM    8  C   UNK A   0      11.501   3.896  91.311  1.00  0.00    -0.030 A 
HETATM    9  C   UNK A   0      10.840   4.566  92.342  1.00  0.00     0.010 A 
HETATM   10  C   UNK A   0      10.045   5.676  92.055  1.00  0.00     0.021 A 
HETATM   11  C   UNK A   0       9.913   6.116  90.739  1.00  0.00     0.018 A 
HETATM   12  C   UNK A   0      10.573   5.449  89.709  1.00  0.00     0.021 A 
HETATM   13  C   UNK A   0      11.367   4.339  89.995  1.00  0.00     0.010 A 
BRANCH  11  14
HETATM   14  C   UNK A   0       9.100   7.256  90.445  1.00  0.00    -0.061 C 
HETATM   15  C   UNK A   0       8.417   8.214  90.199  1.00  0.00    -0.061 C 
BRANCH  15  16
HETATM   16  C   UNK A   0       7.604   9.354  89.905  1.00  0.00     0.018 A 
HETATM   17  C   UNK A   0       6.250   9.349  90.243  1.00  0.00     0.022 A 
HETATM   18  C   UNK A   0       5.459  10.462  89.959  1.00  0.00     0.018 A 
HETATM   19  C   UNK A   0       6.038  11.553  89.345  1.00  0.00     0.032 A 
HETATM   20  C   UNK A   0       7.373  11.581  89.001  1.00  0.00     0.018 A 
HETATM   21  C   UNK A   0       8.166  10.469  89.284  1.00  0.00     0.022 A 
BRANCH  19  22
HETATM   22  C   UNK A   0       5.194  12.737  89.040  1.00  0.00     0.252 C 
HETATM   23  O   UNK A   0       4.924  12.997  87.870  1.00  0.00    -0.268 OA
ENDBRANCH  19  22
ENDBRANCH  15  16
ENDBRANCH  11  14
ENDBRANCH   7   8
ENDBRANCH   2   7
TORSDOF 9
ENDMDL
MODEL 6
REMARK VINA RESULT:      -6.6      3.933     10.467
REMARK  9 active torsions:
REMARK  status: ('A' for Active; 'I' for Inactive)
REMARK    1  A    between atoms: N_3  and  C_6 
REMARK    2  A    between atoms: C_6  and  C_9 
REMARK    3  A    between atoms: C_14  and  C_17 
REMARK       I    between atoms: N_26  and  C_15 
REMARK    4  A    between atoms: C_15  and  C_16 
REMARK    5  A    between atoms: C_20  and  C_23 
REMARK    6  A    between atoms: OG1_24  and  CB_28 
REMARK    7  A    between atoms: N_26  and  CA_27 
REMARK    8  A    between atoms: CA_27  and  CB_28 
REMARK    9  A    between atoms: CA_27  and  C_30 
ROOT
HETATM    1  O   UNK A   0      14.589   3.313  92.234  1.00  0.00    -0.388 OA
HETATM    2  N   UNK A   0      11.871   4.157  92.298  1.00  0.00     0.096 N 
HETATM    3  C   UNK A   0      12.448   3.342  93.377  1.00  0.00     0.299 C 
HETATM    4  C   UNK A   0      12.558   3.873  91.031  1.00  0.00     0.299 C 
HETATM    5  C   UNK A   0      13.948   3.605  93.477  1.00  0.00     0.198 C 
HETATM    6  C   UNK A   0      14.055   4.123  91.186  1.00  0.00     0.198 C 
ENDROOT
BRANCH   2   7
HETATM    7  C   UNK A   0      10.435   3.913  92.177  1.00  0.00     0.311 C 
BRANCH   7   8
HETATM    8  C   UNK A   0       9.669   5.159  91.889  1.00  0.00    -0.030 A 
HETATM    9  C   UNK A   0       8.727   5.175  90.860  1.00  0.00     0.010 A 
HETATM   10  C   UNK A   0       8.011   6.341  90.588  1.00  0.00     0.021 A 
HETATM   11  C   UNK A   0       8.237   7.489  91.347  1.00  0.00     0.018 A 
HETATM   12  C   UNK A   0       9.178   7.474  92.375  1.00  0.00     0.021 A 
HETATM   13  C   UNK A   0       9.894   6.308  92.646  1.00  0.00     0.010 A 
BRANCH  11  14
HETATM   14  C   UNK A   0       7.502   8.685  91.069  1.00  0.00    -0.061 C 
HETATM   15  C   UNK A   0       6.883   9.689  90.836  1.00  0.00    -0.061 C 
BRANCH  15  16
HETATM   16  C   UNK A   0       6.147  10.883  90.559  1.00  0.00     0.018 A 
HETATM   17  C   UNK A   0       6.273  11.506  89.317  1.00  0.00     0.022 A 
HETATM   18  C   UNK A   0       5.553  12.670  89.046  1.00  0.00     0.018 A 
HETATM   19  C   UNK A   0       4.724  13.183  90.021  1.00  0.00     0.032 A 
HETATM   20  C   UNK A   0       4.583  12.586  91.257  1.00  0.00     0.018 A 
HETATM   21  C   UNK A   0       5.303  11.423  91.529  1.00  0.00     0.022 A 
BRANCH  19  22
HETATM   22  C   UNK A   0       3.959  14.424  89.733  1.00  0.00     0.252 C 
HETATM   23  O   UNK A   0       4.555  15.497  89.676  1.00  0.00    -0.268 OA
ENDBRANCH  19  22
ENDBRANCH  15  16
ENDBRANCH  11  14
ENDBRANCH   7   8
ENDBRANCH   2   7
TORSDOF 9
ENDMDL
MODEL 7
REMARK VINA RESULT:      -6.6      3.949     10.413
REMARK  9 active torsions:
REMARK  status: ('A' for Active; 'I' for Inactive)
REMARK    1  A    between atoms: N_3  and  C_6 
REMARK    2  A    between atoms: C_6  and  C_9 
REMARK    3  A    between atoms: C_14  and  C_17 
REMARK       I    between atoms: N_26  and  C_15 
REMARK    4  A    between atoms: C_15  and  C_16 
REMARK    5  A    between atoms: C_20  and  C_23 
REMARK    6  A    between atoms: OG1_24  and  CB_28 
REMARK    7  A    between atoms: N_26  and  CA_27 
REMARK    8  A    between atoms: CA_27  and  CB_28 
REMARK    9  A    between atoms: CA_27  and  C_30 
ROOT
HETATM    1  O   UNK A   0      14.570   3.370  92.100  1.00  0.00    -0.388 OA
HETATM    2  N   UNK A   0      11.854   4.200  92.295  1.00  0.00     0.096 N 
HETATM    3  C   UNK A   0      12.469   3.339  93.315  1.00  0.00     0.299 C 
HETATM    4  C   UNK A   0      12.499   3.977  90.993  1.00  0.00     0.299 C 
HETATM    5  C   UNK A   0      13.971   3.603  93.377  1.00  0.00     0.198 C 
HETATM    6  C   UNK A   0      13.999   4.225  91.109  1.00  0.00     0.198 C 
ENDROOT
BRANCH   2   7
HETATM    7  C   UNK A   0      10.415   3.957  92.211  1.00  0.00     0.311 C 
BRANCH   7   8
HETATM    8  C   UNK A   0       9.645   5.199  91.918  1.00  0.00    -0.030 A 
HETATM    9  C   UNK A   0       9.856   6.346  92.685  1.00  0.00     0.010 A 
HETATM   10  C   UNK A   0       9.134   7.508  92.413  1.00  0.00     0.021 A 
HETATM   11  C   UNK A   0       8.204   7.524  91.375  1.00  0.00     0.018 A 
HETATM   12  C   UNK A   0       7.993   6.379  90.609  1.00  0.00     0.021 A 
HETATM   13  C   UNK A   0       8.714   5.216  90.880  1.00  0.00     0.010 A 
BRANCH  11  14
HETATM   14  C   UNK A   0       7.466   8.717  91.095  1.00  0.00    -0.061 C 
HETATM   15  C   UNK A   0       6.844   9.719  90.860  1.00  0.00    -0.061 C 
BRANCH  15  16
HETATM   16  C   UNK A   0       6.106  10.912  90.582  1.00  0.00     0.018 A 
HETATM   17  C   UNK A   0       5.238  11.433  91.541  1.00  0.00     0.022 A 
HETATM   18  C   UNK A   0       4.520  12.598  91.270  1.00  0.00     0.018 A 
HETATM   19  C   UNK A   0       4.687  13.215  90.047  1.00  0.00     0.032 A 
HETATM   20  C   UNK A   0       5.539  12.719  89.083  1.00  0.00     0.018 A 
HETATM   21  C   UNK A   0       6.257  11.554  89.353  1.00  0.00     0.022 A 
BRANCH  19  22
HETATM   22  C   UNK A   0       3.921  14.455  89.758  1.00  0.00     0.252 C 
HETATM   23  O   UNK A   0       4.513  15.530  89.719  1.00  0.00    -0.268 OA
ENDBRANCH  19  22
ENDBRANCH  15  16
ENDBRANCH  11  14
ENDBRANCH   7   8
ENDBRANCH   2   7
TORSDOF 9
ENDMDL
MODEL 8
REMARK VINA RESULT:      -6.2      1.219      1.909
REMARK  9 active torsions:
REMARK  status: ('A' for Active; 'I' for Inactive)
REMARK    1  A    between atoms: N_3  and  C_6 
REMARK    2  A    between atoms: C_6  and  C_9 
REMARK    3  A    between atoms: C_14  and  C_17 
REMARK       I    between atoms: N_26  and  C_15 
REMARK    4  A    between atoms: C_15  and  C_16 
REMARK    5  A    between atoms: C_20  and  C_23 
REMARK    6  A    between atoms: OG1_24  and  CB_28 
REMARK    7  A    between atoms: N_26  and  CA_27 
REMARK    8  A    between atoms: CA_27  and  CB_28 
REMARK    9  A    between atoms: CA_27  and  C_30 
ROOT
HETATM    1  O   UNK A   0       2.320   6.556  87.801  1.00  0.00    -0.388 OA
HETATM    2  N   UNK A   0       4.386   8.494  88.081  1.00  0.00     0.096 N 
HETATM    3  C   UNK A   0       4.664   7.055  88.185  1.00  0.00     0.299 C 
HETATM    4  C   UNK A   0       3.007   8.772  88.508  1.00  0.00     0.299 C 
HETATM    5  C   UNK A   0       3.648   6.271  87.357  1.00  0.00     0.198 C 
HETATM    6  C   UNK A   0       2.031   7.948  87.674  1.00  0.00     0.198 C 
ENDROOT
BRANCH   2   7
HETATM    7  C   UNK A   0       5.341   9.265  88.875  1.00  0.00     0.311 C 
BRANCH   7   8
HETATM    8  C   UNK A   0       6.458   8.424  89.393  1.00  0.00    -0.030 A 
HETATM    9  C   UNK A   0       6.369   7.852  90.663  1.00  0.00     0.010 A 
HETATM   10  C   UNK A   0       7.415   7.067  91.149  1.00  0.00     0.021 A 
HETATM   11  C   UNK A   0       8.547   6.853  90.364  1.00  0.00     0.018 A 
HETATM   12  C   UNK A   0       8.637   7.423  89.096  1.00  0.00     0.021 A 
HETATM   13  C   UNK A   0       7.592   8.208  88.609  1.00  0.00     0.010 A 
BRANCH  11  14
HETATM   14  C   UNK A   0       9.619   6.045  90.862  1.00  0.00    -0.061 C 
HETATM   15  C   UNK A   0      10.519   5.367  91.280  1.00  0.00    -0.061 C 
BRANCH  15  16
HETATM   16  C   UNK A   0      11.589   4.560  91.776  1.00  0.00     0.018 A 
HETATM   17  C   UNK A   0      12.608   4.148  90.916  1.00  0.00     0.022 A 
HETATM   18  C   UNK A   0      13.654   3.363  91.401  1.00  0.00     0.018 A 
HETATM   19  C   UNK A   0      13.659   3.009  92.734  1.00  0.00     0.032 A 
HETATM   20  C   UNK A   0      12.664   3.403  93.604  1.00  0.00     0.018 A 
HETATM   21  C   UNK A   0      11.617   4.188  93.120  1.00  0.00     0.022 A 
BRANCH  19  22
HETATM   22  C   UNK A   0      14.772   2.171  93.250  1.00  0.00     0.252 C 
HETATM   23  O   UNK A   0      15.609   2.678  93.993  1.00  0.00    -0.268 OA
ENDBRANCH  19  22
ENDBRANCH  15  16
ENDBRANCH  11  14
ENDBRANCH   7   8
ENDBRANCH   2   7
TORSDOF 9
ENDMDL
MODEL 9
REMARK VINA RESULT:      -6.2      4.873     10.205
REMARK  9 active torsions:
REMARK  status: ('A' for Active; 'I' for Inactive)
REMARK    1  A    between atoms: N_3  and  C_6 
REMARK    2  A    between atoms: C_6  and  C_9 
REMARK    3  A    between atoms: C_14  and  C_17 
REMARK       I    between atoms: N_26  and  C_15 
REMARK    4  A    between atoms: C_15  and  C_16 
REMARK    5  A    between atoms: C_20  and  C_23 
REMARK    6  A    between atoms: OG1_24  and  CB_28 
REMARK    7  A    between atoms: N_26  and  CA_27 
REMARK    8  A    between atoms: CA_27  and  CB_28 
REMARK    9  A    between atoms: CA_27  and  C_30 
ROOT
HETATM    1  O   UNK A   0      10.907   3.665  88.726  1.00  0.00    -0.388 OA
HETATM    2  N   UNK A   0       9.424   5.868  87.702  1.00  0.00     0.096 N 
HETATM    3  C   UNK A   0      10.095   4.913  86.810  1.00  0.00     0.299 C 
HETATM    4  C   UNK A   0      10.142   5.953  88.981  1.00  0.00     0.299 C 
HETATM    5  C   UNK A   0      10.196   3.551  87.492  1.00  0.00     0.198 C 
HETATM    6  C   UNK A   0      10.243   4.568  89.611  1.00  0.00     0.198 C 
ENDROOT
BRANCH   2   7
HETATM    7  C   UNK A   0       9.325   7.183  87.072  1.00  0.00     0.311 C 
BRANCH   7   8
HETATM    8  C   UNK A   0       8.501   8.135  87.871  1.00  0.00    -0.030 A 
HETATM    9  C   UNK A   0       7.160   7.848  88.128  1.00  0.00     0.010 A 
HETATM   10  C   UNK A   0       6.387   8.738  88.873  1.00  0.00     0.021 A 
HETATM   11  C   UNK A   0       6.956   9.914  89.362  1.00  0.00     0.018 A 
HETATM   12  C   UNK A   0       8.295  10.201  89.106  1.00  0.00     0.021 A 
HETATM   13  C   UNK A   0       9.068   9.311  88.360  1.00  0.00     0.010 A 
BRANCH  11  14
HETATM   14  C   UNK A   0       6.164  10.826  90.128  1.00  0.00    -0.061 C 
HETATM   15  C   UNK A   0       5.497  11.593  90.772  1.00  0.00    -0.061 C 
BRANCH  15  16
HETATM   16  C   UNK A   0       4.706  12.504  91.538  1.00  0.00     0.018 A 
HETATM   17  C   UNK A   0       4.555  12.311  92.912  1.00  0.00     0.022 A 
HETATM   18  C   UNK A   0       3.785  13.201  93.659  1.00  0.00     0.018 A 
HETATM   19  C   UNK A   0       3.184  14.264  93.018  1.00  0.00     0.032 A 
HETATM   20  C   UNK A   0       3.317  14.476  91.662  1.00  0.00     0.018 A 
HETATM   21  C   UNK A   0       4.087  13.586  90.913  1.00  0.00     0.022 A 
BRANCH  19  22
HETATM   22  C   UNK A   0       2.361  15.211  93.815  1.00  0.00     0.252 C 
HETATM   23  O   UNK A   0       1.303  15.625  93.349  1.00  0.00    -0.268 OA
ENDBRANCH  19  22
ENDBRANCH  15  16
ENDBRANCH  11  14
ENDBRANCH   7   8
ENDBRANCH   2   7
TORSDOF 9
ENDMDL
