MODEL 1
REMARK VINA RESULT:      -6.8      0.000      0.000
REMARK  14 active torsions:
REMARK  status: ('A' for Active; 'I' for Inactive)
REMARK    1  A    between atoms: O_2  and  C_18 
REMARK    2  A    between atoms: C_5  and  C_8 
REMARK    3  A    between atoms: C_5  and  O_35 
REMARK    4  A    between atoms: C_5  and  C_36 
REMARK    5  A    between atoms: N_6  and  C_11 
REMARK    6  A    between atoms: N_7  and  C_15 
REMARK       I    between atoms: N_7  and  C_24 
REMARK    7  A    between atoms: C_8  and  C_23 
REMARK    8  A    between atoms: C_11  and  C_14 
REMARK    9  A    between atoms: C_15  and  C_18 
REMARK   10  A    between atoms: C_15  and  C_23 
REMARK   11  A    between atoms: C_21  and  C_26 
REMARK   12  A    between atoms: C_24  and  C_25 
REMARK   13  A    between atoms: C_29  and  C_32 
REMARK   14  A    between atoms: C_36  and  O_39 
ROOT
HETATM    1  O   UNL     1      16.768   3.662  93.814  1.00  0.00    -0.350 OA
HETATM    2  N   UNL     1      14.124   3.059  92.947  1.00  0.00     0.147 N 
HETATM    3  C   UNL     1      15.154   2.017  93.052  1.00  0.00     0.283 C 
HETATM    4  C   UNL     1      14.750   4.358  92.662  1.00  0.00     0.283 C 
HETATM    5  C   UNL     1      16.171   2.400  94.124  1.00  0.00     0.178 C 
HETATM    6  C   UNL     1      15.776   4.687  93.741  1.00  0.00     0.178 C 
ENDROOT
BRANCH   2   7
HETATM    7  C   UNL     1      13.144   2.717  91.917  1.00  0.00     0.277 C 
BRANCH   7   8
HETATM    8  C   UNL     1      12.045   3.720  91.825  1.00  0.00     0.011 A 
HETATM    9  C   UNL     1      11.405   4.161  92.984  1.00  0.00    -0.002 A 
HETATM   10  C   UNL     1      10.374   5.097  92.898  1.00  0.00     0.008 A 
HETATM   11  C   UNL     1       9.986   5.593  91.654  1.00  0.00     0.042 A 
HETATM   12  C   UNL     1      10.625   5.153  90.496  1.00  0.00     0.008 A 
HETATM   13  C   UNL     1      11.655   4.217  90.581  1.00  0.00    -0.002 A 
BRANCH  11  14
HETATM   14  C   UNL     1       8.930   6.555  91.566  1.00  0.00    -0.059 C 
HETATM   15  C   UNL     1       8.043   7.362  91.492  1.00  0.00    -0.059 C 
BRANCH  15  16
HETATM   16  C   UNL     1       6.988   8.323  91.406  1.00  0.00     0.042 A 
HETATM   17  C   UNL     1       7.195   9.527  90.731  1.00  0.00     0.008 A 
HETATM   18  C   UNL     1       6.165  10.463  90.645  1.00  0.00     0.005 A 
HETATM   19  C   UNL     1       4.951  10.174  91.232  1.00  0.00     0.056 A 
HETATM   20  C   UNL     1       4.721   8.992  91.904  1.00  0.00     0.005 A 
HETATM   21  C   UNL     1       5.751   8.055  91.992  1.00  0.00     0.008 A 
BRANCH  19  22
HETATM   22  C   UNL     1       3.854  11.173  91.141  1.00  0.00     0.254 C 
HETATM   23  O   UNL     1       2.799  10.856  90.597  1.00  0.00    -0.268 OA
HETATM   24  N   UNL     1       4.109  12.410  91.716  1.00  0.00    -0.335 N 
HETATM   25  HN  UNL     1       4.996  12.592  92.170  1.00  0.00     0.164 HD
BRANCH  24  26
HETATM   26  C   UNL     1       3.137  13.474  91.730  1.00  0.00     0.169 C 
BRANCH  26  27
HETATM   27  C   UNL     1       2.884  14.028  93.137  1.00  0.00     0.138 C 
HETATM   28  C   UNL     1       4.175  14.398  93.860  1.00  0.00     0.034 C 
BRANCH  27  29
HETATM   29  O   UNL     1       2.053  15.185  93.053  1.00  0.00    -0.383 OA
HETATM   30  H   UNL     1       1.143  14.924  93.274  1.00  0.00     0.210 HD
ENDBRANCH  27  29
ENDBRANCH  26  27
BRANCH  26  31
HETATM   31  C   UNL     1       3.626  14.565  90.783  1.00  0.00     0.194 C 
HETATM   32  O   UNL     1       4.110  15.625  91.177  1.00  0.00    -0.289 OA
BRANCH  31  33
HETATM   33  C   UNL     1       3.427  14.236  89.465  1.00  0.00     0.053 C 
BRANCH  33  34
HETATM   34  C   UNL     1       4.585  13.977  88.718  1.00  0.00     0.220 C 
BRANCH  34  35
HETATM   35  O   UNL     1       5.564  14.114  89.476  1.00  0.00    -0.371 OA
HETATM   36  H   UNL     1       5.868  13.219  89.463  1.00  0.00     0.211 HD
ENDBRANCH  34  35
BRANCH  34  37
HETATM   37  C   UNL     1       4.573  12.723  88.083  1.00  0.00     0.185 C 
HETATM   38  O   UNL     1       5.889  12.864  88.132  1.00  0.00    -0.647 OA
BRANCH  37  39
HETATM   39  O   UNL     1       3.752  11.960  87.671  1.00  0.00    -0.774 OA
HETATM   40  H   UNL     1       3.200  12.383  86.774  1.00  0.00     0.167 HD
ENDBRANCH  37  39
ENDBRANCH  34  37
ENDBRANCH  33  34
ENDBRANCH  31  33
ENDBRANCH  26  31
ENDBRANCH  24  26
ENDBRANCH  19  22
ENDBRANCH  15  16
ENDBRANCH  11  14
ENDBRANCH   7   8
ENDBRANCH   2   7
TORSDOF 14
ENDMDL
MODEL 2
REMARK VINA RESULT:      -6.5      1.133      1.468
REMARK  14 active torsions:
REMARK  status: ('A' for Active; 'I' for Inactive)
REMARK    1  A    between atoms: O_2  and  C_18 
REMARK    2  A    between atoms: C_5  and  C_8 
REMARK    3  A    between atoms: C_5  and  O_35 
REMARK    4  A    between atoms: C_5  and  C_36 
REMARK    5  A    between atoms: N_6  and  C_11 
REMARK    6  A    between atoms: N_7  and  C_15 
REMARK       I    between atoms: N_7  and  C_24 
REMARK    7  A    between atoms: C_8  and  C_23 
REMARK    8  A    between atoms: C_11  and  C_14 
REMARK    9  A    between atoms: C_15  and  C_18 
REMARK   10  A    between atoms: C_15  and  C_23 
REMARK   11  A    between atoms: C_21  and  C_26 
REMARK   12  A    between atoms: C_24  and  C_25 
REMARK   13  A    between atoms: C_29  and  C_32 
REMARK   14  A    between atoms: C_36  and  O_39 
ROOT
HETATM    1  O   UNL     1      16.468   4.291  94.094  1.00  0.00    -0.350 OA
HETATM    2  N   UNL     1      14.541   2.769  92.655  1.00  0.00     0.147 N 
HETATM    3  C   UNL     1      14.538   4.238  92.624  1.00  0.00     0.283 C 
HETATM    4  C   UNL     1      15.102   2.293  93.927  1.00  0.00     0.283 C 
HETATM    5  C   UNL     1      15.954   4.763  92.847  1.00  0.00     0.178 C 
HETATM    6  C   UNL     1      16.503   2.864  94.120  1.00  0.00     0.178 C 
ENDROOT
BRANCH   2   7
HETATM    7  C   UNL     1      13.192   2.244  92.453  1.00  0.00     0.277 C 
BRANCH   7   8
HETATM    8  C   UNL     1      12.163   3.322  92.414  1.00  0.00     0.011 A 
HETATM    9  C   UNL     1      11.758   3.942  93.597  1.00  0.00    -0.002 A 
HETATM   10  C   UNL     1      10.794   4.950  93.561  1.00  0.00     0.008 A 
HETATM   11  C   UNL     1      10.237   5.338  92.343  1.00  0.00     0.042 A 
HETATM   12  C   UNL     1      10.641   4.720  91.162  1.00  0.00     0.008 A 
HETATM   13  C   UNL     1      11.604   3.712  91.196  1.00  0.00    -0.002 A 
BRANCH  11  14
HETATM   14  C   UNL     1       9.250   6.373  92.307  1.00  0.00    -0.059 C 
HETATM   15  C   UNL     1       8.420   7.242  92.277  1.00  0.00    -0.059 C 
BRANCH  15  16
HETATM   16  C   UNL     1       7.433   8.277  92.242  1.00  0.00     0.042 A 
HETATM   17  C   UNL     1       6.332   8.160  91.394  1.00  0.00     0.008 A 
HETATM   18  C   UNL     1       5.368   9.168  91.362  1.00  0.00     0.005 A 
HETATM   19  C   UNL     1       5.527  10.268  92.178  1.00  0.00     0.056 A 
HETATM   20  C   UNL     1       6.607  10.407  93.024  1.00  0.00     0.005 A 
HETATM   21  C   UNL     1       7.571   9.400  93.057  1.00  0.00     0.008 A 
BRANCH  19  22
HETATM   22  C   UNL     1       4.501  11.343  92.142  1.00  0.00     0.254 C 
HETATM   23  O   UNL     1       3.364  11.100  92.538  1.00  0.00    -0.268 OA
HETATM   24  N   UNL     1       4.930  12.577  91.672  1.00  0.00    -0.335 N 
HETATM   25  HN  UNL     1       5.892  12.710  91.385  1.00  0.00     0.164 HD
BRANCH  24  26
HETATM   26  C   UNL     1       4.060  13.723  91.600  1.00  0.00     0.169 C 
BRANCH  26  27
HETATM   27  C   UNL     1       4.039  14.535  92.901  1.00  0.00     0.138 C 
HETATM   28  C   UNL     1       2.653  15.082  93.225  1.00  0.00     0.034 C 
BRANCH  27  29
HETATM   29  O   UNL     1       4.479  13.715  93.983  1.00  0.00    -0.383 OA
HETATM   30  H   UNL     1       5.366  13.380  93.770  1.00  0.00     0.210 HD
ENDBRANCH  27  29
ENDBRANCH  26  27
BRANCH  26  31
HETATM   31  C   UNL     1       4.512  14.577  90.420  1.00  0.00     0.194 C 
HETATM   32  O   UNL     1       5.254  15.551  90.543  1.00  0.00    -0.289 OA
BRANCH  31  33
HETATM   33  C   UNL     1       3.967  14.153  89.233  1.00  0.00     0.053 C 
BRANCH  33  34
HETATM   34  C   UNL     1       4.841  13.484  88.364  1.00  0.00     0.220 C 
BRANCH  34  35
HETATM   35  O   UNL     1       5.990  13.575  88.836  1.00  0.00    -0.371 OA
HETATM   36  H   UNL     1       6.023  12.734  89.267  1.00  0.00     0.211 HD
ENDBRANCH  34  35
BRANCH  34  37
HETATM   37  C   UNL     1       4.470  12.152  88.113  1.00  0.00     0.185 C 
HETATM   38  O   UNL     1       5.585  11.885  88.776  1.00  0.00    -0.647 OA
BRANCH  37  39
HETATM   39  O   UNL     1       3.593  11.582  87.536  1.00  0.00    -0.774 OA
HETATM   40  H   UNL     1       4.000  10.786  86.838  1.00  0.00     0.167 HD
ENDBRANCH  37  39
ENDBRANCH  34  37
ENDBRANCH  33  34
ENDBRANCH  31  33
ENDBRANCH  26  31
ENDBRANCH  24  26
ENDBRANCH  19  22
ENDBRANCH  15  16
ENDBRANCH  11  14
ENDBRANCH   7   8
ENDBRANCH   2   7
TORSDOF 14
ENDMDL
MODEL 3
REMARK VINA RESULT:      -5.0      2.703      4.141
REMARK  14 active torsions:
REMARK  status: ('A' for Active; 'I' for Inactive)
REMARK    1  A    between atoms: O_2  and  C_18 
REMARK    2  A    between atoms: C_5  and  C_8 
REMARK    3  A    between atoms: C_5  and  O_35 
REMARK    4  A    between atoms: C_5  and  C_36 
REMARK    5  A    between atoms: N_6  and  C_11 
REMARK    6  A    between atoms: N_7  and  C_15 
REMARK       I    between atoms: N_7  and  C_24 
REMARK    7  A    between atoms: C_8  and  C_23 
REMARK    8  A    between atoms: C_11  and  C_14 
REMARK    9  A    between atoms: C_15  and  C_18 
REMARK   10  A    between atoms: C_15  and  C_23 
REMARK   11  A    between atoms: C_21  and  C_26 
REMARK   12  A    between atoms: C_24  and  C_25 
REMARK   13  A    between atoms: C_29  and  C_32 
REMARK   14  A    between atoms: C_36  and  O_39 
ROOT
HETATM    1  O   UNL     1      17.369   4.388  93.488  1.00  0.00    -0.350 OA
HETATM    2  N   UNL     1      15.130   2.699  93.973  1.00  0.00     0.147 N 
HETATM    3  C   UNL     1      16.355   2.188  93.342  1.00  0.00     0.283 C 
HETATM    4  C   UNL     1      14.964   4.127  93.669  1.00  0.00     0.283 C 
HETATM    5  C   UNL     1      17.556   3.008  93.806  1.00  0.00     0.178 C 
HETATM    6  C   UNL     1      16.197   4.900  94.124  1.00  0.00     0.178 C 
ENDROOT
BRANCH   2   7
HETATM    7  C   UNL     1      13.964   1.935  93.535  1.00  0.00     0.277 C 
BRANCH   7   8
HETATM    8  C   UNL     1      12.887   2.807  92.986  1.00  0.00     0.011 A 
HETATM    9  C   UNL     1      12.633   2.820  91.614  1.00  0.00    -0.002 A 
HETATM   10  C   UNL     1      11.627   3.638  91.098  1.00  0.00     0.008 A 
HETATM   11  C   UNL     1      10.874   4.440  91.956  1.00  0.00     0.042 A 
HETATM   12  C   UNL     1      11.127   4.427  93.326  1.00  0.00     0.008 A 
HETATM   13  C   UNL     1      12.133   3.611  93.841  1.00  0.00    -0.002 A 
BRANCH  11  14
HETATM   14  C   UNL     1       9.841   5.277  91.428  1.00  0.00    -0.059 C 
HETATM   15  C   UNL     1       8.973   5.981  90.983  1.00  0.00    -0.059 C 
BRANCH  15  16
HETATM   16  C   UNL     1       7.941   6.817  90.455  1.00  0.00     0.042 A 
HETATM   17  C   UNL     1       7.502   6.636  89.143  1.00  0.00     0.008 A 
HETATM   18  C   UNL     1       6.493   7.450  88.628  1.00  0.00     0.005 A 
HETATM   19  C   UNL     1       5.946   8.425  89.436  1.00  0.00     0.056 A 
HETATM   20  C   UNL     1       6.364   8.624  90.735  1.00  0.00     0.005 A 
HETATM   21  C   UNL     1       7.373   7.811  91.251  1.00  0.00     0.008 A 
BRANCH  19  22
HETATM   22  C   UNL     1       4.873   9.294  88.886  1.00  0.00     0.254 C 
HETATM   23  O   UNL     1       4.851   9.529  87.681  1.00  0.00    -0.268 OA
HETATM   24  N   UNL     1       3.942   9.763  89.802  1.00  0.00    -0.335 N 
HETATM   25  HN  UNL     1       4.010   9.506  90.780  1.00  0.00     0.164 HD
BRANCH  24  26
HETATM   26  C   UNL     1       2.829  10.595  89.420  1.00  0.00     0.169 C 
BRANCH  26  27
HETATM   27  C   UNL     1       3.267  11.974  88.912  1.00  0.00     0.138 C 
HETATM   28  C   UNL     1       4.321  12.619  89.806  1.00  0.00     0.034 C 
BRANCH  27  29
HETATM   29  O   UNL     1       3.792  11.851  87.590  1.00  0.00    -0.383 OA
HETATM   30  H   UNL     1       3.480  11.011  87.215  1.00  0.00     0.210 HD
ENDBRANCH  27  29
ENDBRANCH  26  27
BRANCH  26  31
HETATM   31  C   UNL     1       2.027   9.843  88.363  1.00  0.00     0.194 C 
HETATM   32  O   UNL     1       1.539  10.392  87.377  1.00  0.00    -0.289 OA
BRANCH  31  33
HETATM   33  C   UNL     1       1.888   8.511  88.668  1.00  0.00     0.053 C 
BRANCH  33  34
HETATM   34  C   UNL     1       1.740   7.647  87.573  1.00  0.00     0.220 C 
BRANCH  34  35
HETATM   35  O   UNL     1       2.762   7.749  86.868  1.00  0.00    -0.371 OA
HETATM   36  H   UNL     1       2.809   6.852  86.572  1.00  0.00     0.211 HD
ENDBRANCH  34  35
BRANCH  34  37
HETATM   37  C   UNL     1       1.476   6.317  87.941  1.00  0.00     0.185 C 
HETATM   38  O   UNL     1       1.345   6.150  86.634  1.00  0.00    -0.647 OA
BRANCH  37  39
HETATM   39  O   UNL     1       1.377   5.694  88.955  1.00  0.00    -0.774 OA
HETATM   40  H   UNL     1       2.016   4.756  88.934  1.00  0.00     0.167 HD
ENDBRANCH  37  39
ENDBRANCH  34  37
ENDBRANCH  33  34
ENDBRANCH  31  33
ENDBRANCH  26  31
ENDBRANCH  24  26
ENDBRANCH  19  22
ENDBRANCH  15  16
ENDBRANCH  11  14
ENDBRANCH   7   8
ENDBRANCH   2   7
TORSDOF 14
ENDMDL
MODEL 4
REMARK VINA RESULT:      -4.9      1.332      1.855
REMARK  14 active torsions:
REMARK  status: ('A' for Active; 'I' for Inactive)
REMARK    1  A    between atoms: O_2  and  C_18 
REMARK    2  A    between atoms: C_5  and  C_8 
REMARK    3  A    between atoms: C_5  and  O_35 
REMARK    4  A    between atoms: C_5  and  C_36 
REMARK    5  A    between atoms: N_6  and  C_11 
REMARK    6  A    between atoms: N_7  and  C_15 
REMARK       I    between atoms: N_7  and  C_24 
REMARK    7  A    between atoms: C_8  and  C_23 
REMARK    8  A    between atoms: C_11  and  C_14 
REMARK    9  A    between atoms: C_15  and  C_18 
REMARK   10  A    between atoms: C_15  and  C_23 
REMARK   11  A    between atoms: C_21  and  C_26 
REMARK   12  A    between atoms: C_24  and  C_25 
REMARK   13  A    between atoms: C_29  and  C_32 
REMARK   14  A    between atoms: C_36  and  O_39 
ROOT
HETATM    1  O   UNL     1      17.185   3.189  93.693  1.00  0.00    -0.350 OA
HETATM    2  N   UNL     1      14.524   2.936  92.713  1.00  0.00     0.147 N 
HETATM    3  C   UNL     1      14.799   3.408  94.077  1.00  0.00     0.283 C 
HETATM    4  C   UNL     1      15.597   2.037  92.266  1.00  0.00     0.283 C 
HETATM    5  C   UNL     1      16.163   4.090  94.124  1.00  0.00     0.178 C 
HETATM    6  C   UNL     1      16.942   2.750  92.356  1.00  0.00     0.178 C 
ENDROOT
BRANCH   2   7
HETATM    7  C   UNL     1      13.225   2.269  92.647  1.00  0.00     0.277 C 
BRANCH   7   8
HETATM    8  C   UNL     1      12.091   3.237  92.608  1.00  0.00     0.011 A 
HETATM    9  C   UNL     1      11.124   3.136  91.607  1.00  0.00    -0.002 A 
HETATM   10  C   UNL     1      10.064   4.041  91.568  1.00  0.00     0.008 A 
HETATM   11  C   UNL     1       9.971   5.046  92.530  1.00  0.00     0.042 A 
HETATM   12  C   UNL     1      10.936   5.148  93.530  1.00  0.00     0.008 A 
HETATM   13  C   UNL     1      11.997   4.243  93.569  1.00  0.00    -0.002 A 
BRANCH  11  14
HETATM   14  C   UNL     1       8.882   5.974  92.491  1.00  0.00    -0.059 C 
HETATM   15  C   UNL     1       7.968   6.754  92.457  1.00  0.00    -0.059 C 
BRANCH  15  16
HETATM   16  C   UNL     1       6.880   7.680  92.417  1.00  0.00     0.042 A 
HETATM   17  C   UNL     1       6.199   8.006  93.591  1.00  0.00     0.008 A 
HETATM   18  C   UNL     1       5.140   8.912  93.552  1.00  0.00     0.005 A 
HETATM   19  C   UNL     1       4.785   9.472  92.342  1.00  0.00     0.056 A 
HETATM   20  C   UNL     1       5.441   9.166  91.169  1.00  0.00     0.005 A 
HETATM   21  C   UNL     1       6.501   8.260  91.206  1.00  0.00     0.008 A 
BRANCH  19  22
HETATM   22  C   UNL     1       3.654  10.436  92.301  1.00  0.00     0.254 C 
HETATM   23  O   UNL     1       2.603  10.151  92.869  1.00  0.00    -0.268 OA
HETATM   24  N   UNL     1       3.893  11.624  91.626  1.00  0.00    -0.335 N 
HETATM   25  HN  UNL     1       4.796  11.801  91.202  1.00  0.00     0.164 HD
BRANCH  24  26
HETATM   26  C   UNL     1       2.905  12.668  91.519  1.00  0.00     0.169 C 
BRANCH  26  27
HETATM   27  C   UNL     1       2.998  13.691  92.658  1.00  0.00     0.138 C 
HETATM   28  C   UNL     1       4.189  14.631  92.502  1.00  0.00     0.034 C 
BRANCH  27  29
HETATM   29  O   UNL     1       1.800  14.465  92.703  1.00  0.00    -0.383 OA
HETATM   30  H   UNL     1       1.943  15.279  92.191  1.00  0.00     0.210 HD
ENDBRANCH  27  29
ENDBRANCH  26  27
BRANCH  26  31
HETATM   31  C   UNL     1       3.077  13.335  90.159  1.00  0.00     0.194 C 
HETATM   32  O   UNL     1       2.298  14.182  89.726  1.00  0.00    -0.289 OA
BRANCH  31  33
HETATM   33  C   UNL     1       4.166  12.849  89.476  1.00  0.00     0.053 C 
BRANCH  33  34
HETATM   34  C   UNL     1       3.898  12.291  88.218  1.00  0.00     0.220 C 
BRANCH  34  35
HETATM   35  O   UNL     1       4.564  12.919  87.374  1.00  0.00    -0.371 OA
HETATM   36  H   UNL     1       3.910  12.959  86.692  1.00  0.00     0.211 HD
ENDBRANCH  34  35
BRANCH  34  37
HETATM   37  C   UNL     1       4.132  10.906  88.159  1.00  0.00     0.185 C 
HETATM   38  O   UNL     1       5.272  11.235  88.747  1.00  0.00    -0.647 OA
BRANCH  37  39
HETATM   39  O   UNL     1       3.571   9.942  87.732  1.00  0.00    -0.774 OA
HETATM   40  H   UNL     1       4.094   9.525  86.816  1.00  0.00     0.167 HD
ENDBRANCH  37  39
ENDBRANCH  34  37
ENDBRANCH  33  34
ENDBRANCH  31  33
ENDBRANCH  26  31
ENDBRANCH  24  26
ENDBRANCH  19  22
ENDBRANCH  15  16
ENDBRANCH  11  14
ENDBRANCH   7   8
ENDBRANCH   2   7
TORSDOF 14
ENDMDL
MODEL 5
REMARK VINA RESULT:      -4.4      1.757      3.258
REMARK  14 active torsions:
REMARK  status: ('A' for Active; 'I' for Inactive)
REMARK    1  A    between atoms: O_2  and  C_18 
REMARK    2  A    between atoms: C_5  and  C_8 
REMARK    3  A    between atoms: C_5  and  O_35 
REMARK    4  A    between atoms: C_5  and  C_36 
REMARK    5  A    between atoms: N_6  and  C_11 
REMARK    6  A    between atoms: N_7  and  C_15 
REMARK       I    between atoms: N_7  and  C_24 
REMARK    7  A    between atoms: C_8  and  C_23 
REMARK    8  A    between atoms: C_11  and  C_14 
REMARK    9  A    between atoms: C_15  and  C_18 
REMARK   10  A    between atoms: C_15  and  C_23 
REMARK   11  A    between atoms: C_21  and  C_26 
REMARK   12  A    between atoms: C_24  and  C_25 
REMARK   13  A    between atoms: C_29  and  C_32 
REMARK   14  A    between atoms: C_36  and  O_39 
ROOT
HETATM    1  O   UNL     1      17.215   4.289  93.440  1.00  0.00    -0.350 OA
HETATM    2  N   UNL     1      14.839   2.727  93.580  1.00  0.00     0.147 N 
HETATM    3  C   UNL     1      16.045   2.232  92.901  1.00  0.00     0.283 C 
HETATM    4  C   UNL     1      14.792   4.195  93.515  1.00  0.00     0.283 C 
HETATM    5  C   UNL     1      17.286   2.864  93.526  1.00  0.00     0.178 C 
HETATM    6  C   UNL     1      16.062   4.781  94.124  1.00  0.00     0.178 C 
ENDROOT
BRANCH   2   7
HETATM    7  C   UNL     1      13.636   2.142  92.990  1.00  0.00     0.277 C 
BRANCH   7   8
HETATM    8  C   UNL     1      12.652   3.177  92.563  1.00  0.00     0.011 A 
HETATM    9  C   UNL     1      12.513   3.489  91.210  1.00  0.00    -0.002 A 
HETATM   10  C   UNL     1      11.594   4.459  90.808  1.00  0.00     0.008 A 
HETATM   11  C   UNL     1      10.814   5.114  91.760  1.00  0.00     0.042 A 
HETATM   12  C   UNL     1      10.952   4.804  93.111  1.00  0.00     0.008 A 
HETATM   13  C   UNL     1      11.871   3.835  93.513  1.00  0.00    -0.002 A 
BRANCH  11  14
HETATM   14  C   UNL     1       9.870   6.108  91.348  1.00  0.00    -0.059 C 
HETATM   15  C   UNL     1       9.077   6.943  91.002  1.00  0.00    -0.059 C 
BRANCH  15  16
HETATM   16  C   UNL     1       8.134   7.935  90.590  1.00  0.00     0.042 A 
HETATM   17  C   UNL     1       6.846   7.557  90.209  1.00  0.00     0.008 A 
HETATM   18  C   UNL     1       5.926   8.526  89.810  1.00  0.00     0.005 A 
HETATM   19  C   UNL     1       6.313   9.849  89.800  1.00  0.00     0.056 A 
HETATM   20  C   UNL     1       7.580  10.249  90.171  1.00  0.00     0.005 A 
HETATM   21  C   UNL     1       8.501   9.281  90.570  1.00  0.00     0.008 A 
BRANCH  19  22
HETATM   22  C   UNL     1       5.333  10.881  89.372  1.00  0.00     0.254 C 
HETATM   23  O   UNL     1       4.524  10.609  88.488  1.00  0.00    -0.268 OA
HETATM   24  N   UNL     1       5.396  12.095  90.042  1.00  0.00    -0.335 N 
HETATM   25  HN  UNL     1       6.075  12.238  90.780  1.00  0.00     0.164 HD
BRANCH  24  26
HETATM   26  C   UNL     1       4.497  13.185  89.758  1.00  0.00     0.169 C 
BRANCH  26  27
HETATM   27  C   UNL     1       4.598  13.675  88.308  1.00  0.00     0.138 C 
HETATM   28  C   UNL     1       6.010  14.114  87.937  1.00  0.00     0.034 C 
BRANCH  27  29
HETATM   29  O   UNL     1       4.189  12.633  87.423  1.00  0.00    -0.383 OA
HETATM   30  H   UNL     1       3.546  12.072  87.888  1.00  0.00     0.210 HD
ENDBRANCH  27  29
ENDBRANCH  26  27
BRANCH  26  31
HETATM   31  C   UNL     1       3.083  12.721  90.090  1.00  0.00     0.194 C 
HETATM   32  O   UNL     1       2.166  12.730  89.271  1.00  0.00    -0.289 OA
BRANCH  31  33
HETATM   33  C   UNL     1       2.957  12.336  91.403  1.00  0.00     0.053 C 
BRANCH  33  34
HETATM   34  C   UNL     1       2.342  11.094  91.618  1.00  0.00     0.220 C 
BRANCH  34  35
HETATM   35  O   UNL     1       2.552  10.387  90.615  1.00  0.00    -0.371 OA
HETATM   36  H   UNL     1       1.919   9.708  90.796  1.00  0.00     0.211 HD
ENDBRANCH  34  35
BRANCH  34  37
HETATM   37  C   UNL     1       2.748  10.468  92.809  1.00  0.00     0.185 C 
HETATM   38  O   UNL     1       3.837  11.201  92.635  1.00  0.00    -0.647 OA
BRANCH  37  39
HETATM   39  O   UNL     1       2.313   9.643  93.555  1.00  0.00    -0.774 OA
HETATM   40  H   UNL     1       3.137   9.147  94.157  1.00  0.00     0.167 HD
ENDBRANCH  37  39
ENDBRANCH  34  37
ENDBRANCH  33  34
ENDBRANCH  31  33
ENDBRANCH  26  31
ENDBRANCH  24  26
ENDBRANCH  19  22
ENDBRANCH  15  16
ENDBRANCH  11  14
ENDBRANCH   7   8
ENDBRANCH   2   7
TORSDOF 14
ENDMDL
