MODEL 1
REMARK VINA RESULT:      -7.6      0.000      0.000
REMARK  9 active torsions:
REMARK  status: ('A' for Active; 'I' for Inactive)
REMARK    1  A    between atoms: N_3  and  C_6 
REMARK    2  A    between atoms: C_6  and  C_9 
REMARK    3  A    between atoms: C_14  and  C_17 
REMARK       I    between atoms: N_26  and  C_15 
REMARK    4  A    between atoms: C_15  and  C_16 
REMARK    5  A    between atoms: C_20  and  C_23 
REMARK    6  A    between atoms: OG1_24  and  CB_28 
REMARK    7  A    between atoms: N_26  and  CA_27 
REMARK    8  A    between atoms: CA_27  and  CB_28 
REMARK    9  A    between atoms: CA_27  and  C_30 
ROOT
HETATM    1  O   UNK A   0       1.874   8.218  87.920  1.00  0.00    -0.388 OA
HETATM    2  N   UNK A   0       4.644   7.597  87.704  1.00  0.00     0.096 N 
HETATM    3  C   UNK A   0       4.172   8.987  87.777  1.00  0.00     0.299 C 
HETATM    4  C   UNK A   0       3.615   6.747  87.088  1.00  0.00     0.299 C 
HETATM    5  C   UNK A   0       2.855   9.046  88.547  1.00  0.00     0.198 C 
HETATM    6  C   UNK A   0       2.312   6.859  87.873  1.00  0.00     0.198 C 
ENDROOT
BRANCH   2   7
HETATM    7  C   UNK A   0       5.900   7.515  86.960  1.00  0.00     0.311 C 
BRANCH   7   8
HETATM    8  C   UNK A   0       6.999   6.913  87.767  1.00  0.00    -0.030 A 
HETATM    9  C   UNK A   0       8.233   6.647  87.173  1.00  0.00     0.010 A 
HETATM   10  C   UNK A   0       9.262   6.082  87.926  1.00  0.00     0.021 A 
HETATM   11  C   UNK A   0       9.058   5.786  89.273  1.00  0.00     0.018 A 
HETATM   12  C   UNK A   0       7.826   6.052  89.868  1.00  0.00     0.021 A 
HETATM   13  C   UNK A   0       6.796   6.616  89.115  1.00  0.00     0.010 A 
BRANCH  11  14
HETATM   14  C   UNK A   0      10.114   5.209  90.046  1.00  0.00    -0.061 C 
HETATM   15  C   UNK A   0      11.001   4.723  90.696  1.00  0.00    -0.061 C 
BRANCH  15  16
HETATM   16  C   UNK A   0      12.057   4.145  91.468  1.00  0.00     0.018 A 
HETATM   17  C   UNK A   0      13.319   3.968  90.900  1.00  0.00     0.022 A 
HETATM   18  C   UNK A   0      14.349   3.407  91.654  1.00  0.00     0.018 A 
HETATM   19  C   UNK A   0      14.095   3.037  92.958  1.00  0.00     0.032 A 
HETATM   20  C   UNK A   0      12.857   3.201  93.543  1.00  0.00     0.018 A 
HETATM   21  C   UNK A   0      11.826   3.762  92.789  1.00  0.00     0.022 A 
BRANCH  19  22
HETATM   22  C   UNK A   0      15.193   2.437  93.761  1.00  0.00     0.252 C 
HETATM   23  O   UNK A   0      16.347   2.816  93.576  1.00  0.00    -0.268 OA
ENDBRANCH  19  22
ENDBRANCH  15  16
ENDBRANCH  11  14
ENDBRANCH   7   8
ENDBRANCH   2   7
TORSDOF 9
ENDMDL
MODEL 2
REMARK VINA RESULT:      -7.5      0.095      1.428
REMARK  9 active torsions:
REMARK  status: ('A' for Active; 'I' for Inactive)
REMARK    1  A    between atoms: N_3  and  C_6 
REMARK    2  A    between atoms: C_6  and  C_9 
REMARK    3  A    between atoms: C_14  and  C_17 
REMARK       I    between atoms: N_26  and  C_15 
REMARK    4  A    between atoms: C_15  and  C_16 
REMARK    5  A    between atoms: C_20  and  C_23 
REMARK    6  A    between atoms: OG1_24  and  CB_28 
REMARK    7  A    between atoms: N_26  and  CA_27 
REMARK    8  A    between atoms: CA_27  and  CB_28 
REMARK    9  A    between atoms: CA_27  and  C_30 
ROOT
HETATM    1  O   UNK A   0       1.837   8.105  87.905  1.00  0.00    -0.388 OA
HETATM    2  N   UNK A   0       4.624   7.559  87.726  1.00  0.00     0.096 N 
HETATM    3  C   UNK A   0       4.118   8.932  87.852  1.00  0.00     0.299 C 
HETATM    4  C   UNK A   0       3.631   6.716  87.047  1.00  0.00     0.299 C 
HETATM    5  C   UNK A   0       2.783   8.925  88.593  1.00  0.00     0.198 C 
HETATM    6  C   UNK A   0       2.308   6.761  87.806  1.00  0.00     0.198 C 
ENDROOT
BRANCH   2   7
HETATM    7  C   UNK A   0       5.898   7.541  87.009  1.00  0.00     0.311 C 
BRANCH   7   8
HETATM    8  C   UNK A   0       6.996   6.935  87.816  1.00  0.00    -0.030 A 
HETATM    9  C   UNK A   0       6.783   6.628  89.160  1.00  0.00     0.010 A 
HETATM   10  C   UNK A   0       7.810   6.063  89.917  1.00  0.00     0.021 A 
HETATM   11  C   UNK A   0       9.048   5.805  89.328  1.00  0.00     0.018 A 
HETATM   12  C   UNK A   0       9.261   6.111  87.986  1.00  0.00     0.021 A 
HETATM   13  C   UNK A   0       8.234   6.676  87.229  1.00  0.00     0.010 A 
BRANCH  11  14
HETATM   14  C   UNK A   0      10.100   5.224  90.104  1.00  0.00    -0.061 C 
HETATM   15  C   UNK A   0      10.984   4.736  90.757  1.00  0.00    -0.061 C 
BRANCH  15  16
HETATM   16  C   UNK A   0      12.036   4.155  91.533  1.00  0.00     0.018 A 
HETATM   17  C   UNK A   0      11.809   3.812  92.866  1.00  0.00     0.022 A 
HETATM   18  C   UNK A   0      12.834   3.243  93.622  1.00  0.00     0.018 A 
HETATM   19  C   UNK A   0      14.060   3.029  93.028  1.00  0.00     0.032 A 
HETATM   20  C   UNK A   0      14.309   3.360  91.713  1.00  0.00     0.018 A 
HETATM   21  C   UNK A   0      13.285   3.929  90.956  1.00  0.00     0.022 A 
BRANCH  19  22
HETATM   22  C   UNK A   0      15.152   2.425  93.835  1.00  0.00     0.252 C 
HETATM   23  O   UNK A   0      16.277   2.918  93.787  1.00  0.00    -0.268 OA
ENDBRANCH  19  22
ENDBRANCH  15  16
ENDBRANCH  11  14
ENDBRANCH   7   8
ENDBRANCH   2   7
TORSDOF 9
ENDMDL
MODEL 3
REMARK VINA RESULT:      -6.9      1.559      2.300
REMARK  9 active torsions:
REMARK  status: ('A' for Active; 'I' for Inactive)
REMARK    1  A    between atoms: N_3  and  C_6 
REMARK    2  A    between atoms: C_6  and  C_9 
REMARK    3  A    between atoms: C_14  and  C_17 
REMARK       I    between atoms: N_26  and  C_15 
REMARK    4  A    between atoms: C_15  and  C_16 
REMARK    5  A    between atoms: C_20  and  C_23 
REMARK    6  A    between atoms: OG1_24  and  CB_28 
REMARK    7  A    between atoms: N_26  and  CA_27 
REMARK    8  A    between atoms: CA_27  and  CB_28 
REMARK    9  A    between atoms: CA_27  and  C_30 
ROOT
HETATM    1  O   UNK A   0       2.805  11.275  89.909  1.00  0.00    -0.388 OA
HETATM    2  N   UNK A   0       4.626   9.332  88.901  1.00  0.00     0.096 N 
HETATM    3  C   UNK A   0       3.836  10.184  88.001  1.00  0.00     0.299 C 
HETATM    4  C   UNK A   0       3.902   9.126  90.163  1.00  0.00     0.299 C 
HETATM    5  C   UNK A   0       3.516  11.508  88.691  1.00  0.00     0.198 C 
HETATM    6  C   UNK A   0       3.579  10.473  90.801  1.00  0.00     0.198 C 
ENDROOT
BRANCH   2   7
HETATM    7  C   UNK A   0       4.935   8.054  88.264  1.00  0.00     0.311 C 
BRANCH   7   8
HETATM    8  C   UNK A   0       6.147   7.408  88.844  1.00  0.00    -0.030 A 
HETATM    9  C   UNK A   0       6.044   6.162  89.464  1.00  0.00     0.010 A 
HETATM   10  C   UNK A   0       7.176   5.559  90.009  1.00  0.00     0.021 A 
HETATM   11  C   UNK A   0       8.412   6.200  89.933  1.00  0.00     0.018 A 
HETATM   12  C   UNK A   0       8.517   7.444  89.314  1.00  0.00     0.021 A 
HETATM   13  C   UNK A   0       7.384   8.049  88.769  1.00  0.00     0.010 A 
BRANCH  11  14
HETATM   14  C   UNK A   0       9.575   5.580  90.491  1.00  0.00    -0.061 C 
HETATM   15  C   UNK A   0      10.552   5.058  90.959  1.00  0.00    -0.061 C 
BRANCH  15  16
HETATM   16  C   UNK A   0      11.714   4.438  91.515  1.00  0.00     0.018 A 
HETATM   17  C   UNK A   0      11.698   3.987  92.835  1.00  0.00     0.022 A 
HETATM   18  C   UNK A   0      12.831   3.380  93.377  1.00  0.00     0.018 A 
HETATM   19  C   UNK A   0      13.952   3.238  92.588  1.00  0.00     0.032 A 
HETATM   20  C   UNK A   0      13.993   3.675  91.281  1.00  0.00     0.018 A 
HETATM   21  C   UNK A   0      12.861   4.282  90.738  1.00  0.00     0.022 A 
BRANCH  19  22
HETATM   22  C   UNK A   0      15.160   2.593  93.166  1.00  0.00     0.252 C 
HETATM   23  O   UNK A   0      16.020   3.294  93.693  1.00  0.00    -0.268 OA
ENDBRANCH  19  22
ENDBRANCH  15  16
ENDBRANCH  11  14
ENDBRANCH   7   8
ENDBRANCH   2   7
TORSDOF 9
ENDMDL
MODEL 4
REMARK VINA RESULT:      -6.9      1.494      1.869
REMARK  9 active torsions:
REMARK  status: ('A' for Active; 'I' for Inactive)
REMARK    1  A    between atoms: N_3  and  C_6 
REMARK    2  A    between atoms: C_6  and  C_9 
REMARK    3  A    between atoms: C_14  and  C_17 
REMARK       I    between atoms: N_26  and  C_15 
REMARK    4  A    between atoms: C_15  and  C_16 
REMARK    5  A    between atoms: C_20  and  C_23 
REMARK    6  A    between atoms: OG1_24  and  CB_28 
REMARK    7  A    between atoms: N_26  and  CA_27 
REMARK    8  A    between atoms: CA_27  and  CB_28 
REMARK    9  A    between atoms: CA_27  and  C_30 
ROOT
HETATM    1  O   UNK A   0       2.741  11.264  89.723  1.00  0.00    -0.388 OA
HETATM    2  N   UNK A   0       4.547   9.268  88.797  1.00  0.00     0.096 N 
HETATM    3  C   UNK A   0       3.806  10.126  87.862  1.00  0.00     0.299 C 
HETATM    4  C   UNK A   0       3.780   9.094  90.038  1.00  0.00     0.299 C 
HETATM    5  C   UNK A   0       3.494  11.465  88.525  1.00  0.00     0.198 C 
HETATM    6  C   UNK A   0       3.468  10.456  90.649  1.00  0.00     0.198 C 
ENDROOT
BRANCH   2   7
HETATM    7  C   UNK A   0       4.848   7.974  88.186  1.00  0.00     0.311 C 
BRANCH   7   8
HETATM    8  C   UNK A   0       6.068   7.342  88.765  1.00  0.00    -0.030 A 
HETATM    9  C   UNK A   0       7.322   7.908  88.533  1.00  0.00     0.010 A 
HETATM   10  C   UNK A   0       8.464   7.317  89.072  1.00  0.00     0.021 A 
HETATM   11  C   UNK A   0       8.351   6.161  89.844  1.00  0.00     0.018 A 
HETATM   12  C   UNK A   0       7.100   5.595  90.076  1.00  0.00     0.021 A 
HETATM   13  C   UNK A   0       5.957   6.186  89.537  1.00  0.00     0.010 A 
BRANCH  11  14
HETATM   14  C   UNK A   0       9.523   5.556  90.398  1.00  0.00    -0.061 C 
HETATM   15  C   UNK A   0      10.508   5.047  90.865  1.00  0.00    -0.061 C 
BRANCH  15  16
HETATM   16  C   UNK A   0      11.678   4.442  91.420  1.00  0.00     0.018 A 
HETATM   17  C   UNK A   0      12.816   4.274  90.631  1.00  0.00     0.022 A 
HETATM   18  C   UNK A   0      13.959   3.686  91.173  1.00  0.00     0.018 A 
HETATM   19  C   UNK A   0      13.938   3.280  92.491  1.00  0.00     0.032 A 
HETATM   20  C   UNK A   0      12.826   3.434  93.291  1.00  0.00     0.018 A 
HETATM   21  C   UNK A   0      11.682   4.022  92.750  1.00  0.00     0.022 A 
BRANCH  19  22
HETATM   22  C   UNK A   0      15.155   2.652  93.068  1.00  0.00     0.252 C 
HETATM   23  O   UNK A   0      15.840   3.290  93.863  1.00  0.00    -0.268 OA
ENDBRANCH  19  22
ENDBRANCH  15  16
ENDBRANCH  11  14
ENDBRANCH   7   8
ENDBRANCH   2   7
TORSDOF 9
ENDMDL
MODEL 5
REMARK VINA RESULT:      -6.6      3.501     10.329
REMARK  9 active torsions:
REMARK  status: ('A' for Active; 'I' for Inactive)
REMARK    1  A    between atoms: N_3  and  C_6 
REMARK    2  A    between atoms: C_6  and  C_9 
REMARK    3  A    between atoms: C_14  and  C_17 
REMARK       I    between atoms: N_26  and  C_15 
REMARK    4  A    between atoms: C_15  and  C_16 
REMARK    5  A    between atoms: C_20  and  C_23 
REMARK    6  A    between atoms: OG1_24  and  CB_28 
REMARK    7  A    between atoms: N_26  and  CA_27 
REMARK    8  A    between atoms: CA_27  and  CB_28 
REMARK    9  A    between atoms: CA_27  and  C_30 
ROOT
HETATM    1  O   UNK A   0      16.219   3.160  93.593  1.00  0.00    -0.388 OA
HETATM    2  N   UNK A   0      13.485   2.909  92.841  1.00  0.00     0.096 N 
HETATM    3  C   UNK A   0      14.311   1.730  93.136  1.00  0.00     0.299 C 
HETATM    4  C   UNK A   0      14.327   3.998  92.327  1.00  0.00     0.299 C 
HETATM    5  C   UNK A   0      15.413   2.106  94.124  1.00  0.00     0.198 C 
HETATM    6  C   UNK A   0      15.428   4.320  93.332  1.00  0.00     0.198 C 
ENDROOT
BRANCH   2   7
HETATM    7  C   UNK A   0      12.428   2.575  91.888  1.00  0.00     0.311 C 
BRANCH   7   8
HETATM    8  C   UNK A   0      11.582   3.752  91.542  1.00  0.00    -0.030 A 
HETATM    9  C   UNK A   0      11.431   4.134  90.208  1.00  0.00     0.010 A 
HETATM   10  C   UNK A   0      10.641   5.237  89.884  1.00  0.00     0.021 A 
HETATM   11  C   UNK A   0      10.000   5.955  90.893  1.00  0.00     0.018 A 
HETATM   12  C   UNK A   0      10.150   5.574  92.225  1.00  0.00     0.021 A 
HETATM   13  C   UNK A   0      10.940   4.472  92.550  1.00  0.00     0.010 A 
BRANCH  11  14
HETATM   14  C   UNK A   0       9.188   7.085  90.560  1.00  0.00    -0.061 C 
HETATM   15  C   UNK A   0       8.505   8.034  90.281  1.00  0.00    -0.061 C 
BRANCH  15  16
HETATM   16  C   UNK A   0       7.693   9.164  89.949  1.00  0.00     0.018 A 
HETATM   17  C   UNK A   0       8.292  10.358  89.548  1.00  0.00     0.022 A 
HETATM   18  C   UNK A   0       7.500  11.459  89.221  1.00  0.00     0.018 A 
HETATM   19  C   UNK A   0       6.128  11.340  89.303  1.00  0.00     0.032 A 
HETATM   20  C   UNK A   0       5.512  10.171  89.697  1.00  0.00     0.018 A 
HETATM   21  C   UNK A   0       6.304   9.070  90.024  1.00  0.00     0.022 A 
BRANCH  19  22
HETATM   22  C   UNK A   0       5.285  12.514  88.957  1.00  0.00     0.252 C 
HETATM   23  O   UNK A   0       4.868  12.635  87.808  1.00  0.00    -0.268 OA
ENDBRANCH  19  22
ENDBRANCH  15  16
ENDBRANCH  11  14
ENDBRANCH   7   8
ENDBRANCH   2   7
TORSDOF 9
ENDMDL
MODEL 6
REMARK VINA RESULT:      -6.6      3.905     10.485
REMARK  9 active torsions:
REMARK  status: ('A' for Active; 'I' for Inactive)
REMARK    1  A    between atoms: N_3  and  C_6 
REMARK    2  A    between atoms: C_6  and  C_9 
REMARK    3  A    between atoms: C_14  and  C_17 
REMARK       I    between atoms: N_26  and  C_15 
REMARK    4  A    between atoms: C_15  and  C_16 
REMARK    5  A    between atoms: C_20  and  C_23 
REMARK    6  A    between atoms: OG1_24  and  CB_28 
REMARK    7  A    between atoms: N_26  and  CA_27 
REMARK    8  A    between atoms: CA_27  and  CB_28 
REMARK    9  A    between atoms: CA_27  and  C_30 
ROOT
HETATM    1  O   UNK A   0      14.572   3.342  92.090  1.00  0.00    -0.388 OA
HETATM    2  N   UNK A   0      11.859   4.179  92.290  1.00  0.00     0.096 N 
HETATM    3  C   UNK A   0      12.485   3.347  93.327  1.00  0.00     0.299 C 
HETATM    4  C   UNK A   0      12.489   3.919  90.988  1.00  0.00     0.299 C 
HETATM    5  C   UNK A   0      13.988   3.611  93.365  1.00  0.00     0.198 C 
HETATM    6  C   UNK A   0      13.991   4.169  91.081  1.00  0.00     0.198 C 
ENDROOT
BRANCH   2   7
HETATM    7  C   UNK A   0      10.419   3.934  92.229  1.00  0.00     0.311 C 
BRANCH   7   8
HETATM    8  C   UNK A   0       9.644   5.174  91.939  1.00  0.00    -0.030 A 
HETATM    9  C   UNK A   0       9.951   6.359  92.607  1.00  0.00     0.010 A 
HETATM   10  C   UNK A   0       9.225   7.519  92.338  1.00  0.00     0.021 A 
HETATM   11  C   UNK A   0       8.194   7.494  91.399  1.00  0.00     0.018 A 
HETATM   12  C   UNK A   0       7.887   6.310  90.731  1.00  0.00     0.021 A 
HETATM   13  C   UNK A   0       8.612   5.150  91.000  1.00  0.00     0.010 A 
BRANCH  11  14
HETATM   14  C   UNK A   0       7.451   8.684  91.122  1.00  0.00    -0.061 C 
HETATM   15  C   UNK A   0       6.826   9.685  90.888  1.00  0.00    -0.061 C 
BRANCH  15  16
HETATM   16  C   UNK A   0       6.083  10.874  90.610  1.00  0.00     0.018 A 
HETATM   17  C   UNK A   0       5.239  11.411  91.583  1.00  0.00     0.022 A 
HETATM   18  C   UNK A   0       4.516  12.573  91.312  1.00  0.00     0.018 A 
HETATM   19  C   UNK A   0       4.653  13.171  90.077  1.00  0.00     0.032 A 
HETATM   20  C   UNK A   0       5.480  12.660  89.099  1.00  0.00     0.018 A 
HETATM   21  C   UNK A   0       6.204  11.498  89.368  1.00  0.00     0.022 A 
BRANCH  19  22
HETATM   22  C   UNK A   0       3.881  14.408  89.789  1.00  0.00     0.252 C 
HETATM   23  O   UNK A   0       4.453  15.494  89.827  1.00  0.00    -0.268 OA
ENDBRANCH  19  22
ENDBRANCH  15  16
ENDBRANCH  11  14
ENDBRANCH   7   8
ENDBRANCH   2   7
TORSDOF 9
ENDMDL
MODEL 7
REMARK VINA RESULT:      -6.6      3.901     10.445
REMARK  9 active torsions:
REMARK  status: ('A' for Active; 'I' for Inactive)
REMARK    1  A    between atoms: N_3  and  C_6 
REMARK    2  A    between atoms: C_6  and  C_9 
REMARK    3  A    between atoms: C_14  and  C_17 
REMARK       I    between atoms: N_26  and  C_15 
REMARK    4  A    between atoms: C_15  and  C_16 
REMARK    5  A    between atoms: C_20  and  C_23 
REMARK    6  A    between atoms: OG1_24  and  CB_28 
REMARK    7  A    between atoms: N_26  and  CA_27 
REMARK    8  A    between atoms: CA_27  and  CB_28 
REMARK    9  A    between atoms: CA_27  and  C_30 
ROOT
HETATM    1  O   UNK A   0      14.624   3.365  92.221  1.00  0.00    -0.388 OA
HETATM    2  N   UNK A   0      11.896   4.171  92.319  1.00  0.00     0.096 N 
HETATM    3  C   UNK A   0      12.485   3.329  93.368  1.00  0.00     0.299 C 
HETATM    4  C   UNK A   0      12.584   3.939  91.041  1.00  0.00     0.299 C 
HETATM    5  C   UNK A   0      13.983   3.607  93.475  1.00  0.00     0.198 C 
HETATM    6  C   UNK A   0      14.078   4.202  91.202  1.00  0.00     0.198 C 
ENDROOT
BRANCH   2   7
HETATM    7  C   UNK A   0      10.463   3.913  92.191  1.00  0.00     0.311 C 
BRANCH   7   8
HETATM    8  C   UNK A   0       9.685   5.154  91.910  1.00  0.00    -0.030 A 
HETATM    9  C   UNK A   0       9.875   6.289  92.699  1.00  0.00     0.010 A 
HETATM   10  C   UNK A   0       9.146   7.449  92.438  1.00  0.00     0.021 A 
HETATM   11  C   UNK A   0       8.230   7.474  91.387  1.00  0.00     0.018 A 
HETATM   12  C   UNK A   0       8.040   6.341  90.598  1.00  0.00     0.021 A 
HETATM   13  C   UNK A   0       8.768   5.180  90.859  1.00  0.00     0.010 A 
BRANCH  11  14
HETATM   14  C   UNK A   0       7.484   8.665  91.118  1.00  0.00    -0.061 C 
HETATM   15  C   UNK A   0       6.857   9.666  90.893  1.00  0.00    -0.061 C 
BRANCH  15  16
HETATM   16  C   UNK A   0       6.112  10.856  90.625  1.00  0.00     0.018 A 
HETATM   17  C   UNK A   0       6.196  11.463  89.371  1.00  0.00     0.022 A 
HETATM   18  C   UNK A   0       5.466  12.623  89.109  1.00  0.00     0.018 A 
HETATM   19  C   UNK A   0       4.670  13.149  90.105  1.00  0.00     0.032 A 
HETATM   20  C   UNK A   0       4.571  12.569  91.352  1.00  0.00     0.018 A 
HETATM   21  C   UNK A   0       5.300  11.409  91.615  1.00  0.00     0.022 A 
BRANCH  19  22
HETATM   22  C   UNK A   0       3.896  14.386  89.826  1.00  0.00     0.252 C 
HETATM   23  O   UNK A   0       4.495  15.447  89.671  1.00  0.00    -0.268 OA
ENDBRANCH  19  22
ENDBRANCH  15  16
ENDBRANCH  11  14
ENDBRANCH   7   8
ENDBRANCH   2   7
TORSDOF 9
ENDMDL
MODEL 8
REMARK VINA RESULT:      -6.3      1.985      2.872
REMARK  9 active torsions:
REMARK  status: ('A' for Active; 'I' for Inactive)
REMARK    1  A    between atoms: N_3  and  C_6 
REMARK    2  A    between atoms: C_6  and  C_9 
REMARK    3  A    between atoms: C_14  and  C_17 
REMARK       I    between atoms: N_26  and  C_15 
REMARK    4  A    between atoms: C_15  and  C_16 
REMARK    5  A    between atoms: C_20  and  C_23 
REMARK    6  A    between atoms: OG1_24  and  CB_28 
REMARK    7  A    between atoms: N_26  and  CA_27 
REMARK    8  A    between atoms: CA_27  and  CB_28 
REMARK    9  A    between atoms: CA_27  and  C_30 
ROOT
HETATM    1  O   UNK A   0       2.105   9.926  87.856  1.00  0.00    -0.388 OA
HETATM    2  N   UNK A   0       3.849   9.011  89.911  1.00  0.00     0.096 N 
HETATM    3  C   UNK A   0       2.605   8.299  89.586  1.00  0.00     0.299 C 
HETATM    4  C   UNK A   0       3.706  10.441  89.604  1.00  0.00     0.299 C 
HETATM    5  C   UNK A   0       2.246   8.529  88.121  1.00  0.00     0.198 C 
HETATM    6  C   UNK A   0       3.320  10.620  88.140  1.00  0.00     0.198 C 
ENDROOT
BRANCH   2   7
HETATM    7  C   UNK A   0       4.207   8.814  91.315  1.00  0.00     0.311 C 
BRANCH   7   8
HETATM    8  C   UNK A   0       5.488   8.067  91.474  1.00  0.00    -0.030 A 
HETATM    9  C   UNK A   0       5.764   7.407  92.673  1.00  0.00     0.010 A 
HETATM   10  C   UNK A   0       6.963   6.710  92.824  1.00  0.00     0.021 A 
HETATM   11  C   UNK A   0       7.883   6.671  91.777  1.00  0.00     0.018 A 
HETATM   12  C   UNK A   0       7.608   7.329  90.580  1.00  0.00     0.021 A 
HETATM   13  C   UNK A   0       6.410   8.027  90.428  1.00  0.00     0.010 A 
BRANCH  11  14
HETATM   14  C   UNK A   0       9.111   5.954  91.932  1.00  0.00    -0.061 C 
HETATM   15  C   UNK A   0      10.143   5.351  92.062  1.00  0.00    -0.061 C 
BRANCH  15  16
HETATM   16  C   UNK A   0      11.370   4.634  92.216  1.00  0.00     0.018 A 
HETATM   17  C   UNK A   0      12.195   4.420  91.112  1.00  0.00     0.022 A 
HETATM   18  C   UNK A   0      13.394   3.723  91.263  1.00  0.00     0.018 A 
HETATM   19  C   UNK A   0      13.740   3.256  92.514  1.00  0.00     0.032 A 
HETATM   20  C   UNK A   0      12.942   3.454  93.621  1.00  0.00     0.018 A 
HETATM   21  C   UNK A   0      11.743   4.151  93.471  1.00  0.00     0.022 A 
BRANCH  19  22
HETATM   22  C   UNK A   0      15.016   2.511  92.674  1.00  0.00     0.252 C 
HETATM   23  O   UNK A   0      15.576   2.509  93.768  1.00  0.00    -0.268 OA
ENDBRANCH  19  22
ENDBRANCH  15  16
ENDBRANCH  11  14
ENDBRANCH   7   8
ENDBRANCH   2   7
TORSDOF 9
ENDMDL
MODEL 9
REMARK VINA RESULT:      -6.2      4.731     10.274
REMARK  9 active torsions:
REMARK  status: ('A' for Active; 'I' for Inactive)
REMARK    1  A    between atoms: N_3  and  C_6 
REMARK    2  A    between atoms: C_6  and  C_9 
REMARK    3  A    between atoms: C_14  and  C_17 
REMARK       I    between atoms: N_26  and  C_15 
REMARK    4  A    between atoms: C_15  and  C_16 
REMARK    5  A    between atoms: C_20  and  C_23 
REMARK    6  A    between atoms: OG1_24  and  CB_28 
REMARK    7  A    between atoms: N_26  and  CA_27 
REMARK    8  A    between atoms: CA_27  and  CB_28 
REMARK    9  A    between atoms: CA_27  and  C_30 
ROOT
HETATM    1  O   UNK A   0      11.057   3.662  88.931  1.00  0.00    -0.388 OA
HETATM    2  N   UNK A   0       9.515   5.760  87.784  1.00  0.00     0.096 N 
HETATM    3  C   UNK A   0      10.221   4.780  86.947  1.00  0.00     0.299 C 
HETATM    4  C   UNK A   0      10.223   5.936  89.059  1.00  0.00     0.299 C 
HETATM    5  C   UNK A   0      10.359   3.460  87.702  1.00  0.00     0.198 C 
HETATM    6  C   UNK A   0      10.361   4.590  89.764  1.00  0.00     0.198 C 
ENDROOT
BRANCH   2   7
HETATM    7  C   UNK A   0       9.380   7.037  87.084  1.00  0.00     0.311 C 
BRANCH   7   8
HETATM    8  C   UNK A   0       8.552   8.017  87.844  1.00  0.00    -0.030 A 
HETATM    9  C   UNK A   0       9.117   9.217  88.278  1.00  0.00     0.010 A 
HETATM   10  C   UNK A   0       8.344  10.133  88.991  1.00  0.00     0.021 A 
HETATM   11  C   UNK A   0       7.006   9.850  89.267  1.00  0.00     0.018 A 
HETATM   12  C   UNK A   0       6.442   8.652  88.833  1.00  0.00     0.021 A 
HETATM   13  C   UNK A   0       7.215   7.735  88.121  1.00  0.00     0.010 A 
BRANCH  11  14
HETATM   14  C   UNK A   0       6.213  10.791  89.996  1.00  0.00    -0.061 C 
HETATM   15  C   UNK A   0       5.545  11.581  90.609  1.00  0.00    -0.061 C 
BRANCH  15  16
HETATM   16  C   UNK A   0       4.753  12.521  91.339  1.00  0.00     0.018 A 
HETATM   17  C   UNK A   0       4.207  12.163  92.572  1.00  0.00     0.022 A 
HETATM   18  C   UNK A   0       3.436  13.081  93.284  1.00  0.00     0.018 A 
HETATM   19  C   UNK A   0       3.229  14.335  92.750  1.00  0.00     0.032 A 
HETATM   20  C   UNK A   0       3.757  14.713  91.533  1.00  0.00     0.018 A 
HETATM   21  C   UNK A   0       4.528  13.796  90.819  1.00  0.00     0.022 A 
BRANCH  19  22
HETATM   22  C   UNK A   0       2.406  15.312  93.508  1.00  0.00     0.252 C 
HETATM   23  O   UNK A   0       1.189  15.334  93.336  1.00  0.00    -0.268 OA
ENDBRANCH  19  22
ENDBRANCH  15  16
ENDBRANCH  11  14
ENDBRANCH   7   8
ENDBRANCH   2   7
TORSDOF 9
ENDMDL
