MODEL 1
REMARK VINA RESULT:      -7.4      0.000      0.000
REMARK  9 active torsions:
REMARK  status: ('A' for Active; 'I' for Inactive)
REMARK    1  A    between atoms: O_2  and  C_17 
REMARK    2  A    between atoms: N_5  and  C_10 
REMARK    3  A    between atoms: N_6  and  C_14 
REMARK       I    between atoms: N_6  and  C_23 
REMARK       I    between atoms: N_7  and  C_22 
REMARK    4  A    between atoms: C_10  and  C_13 
REMARK    5  A    between atoms: C_14  and  C_17 
REMARK    6  A    between atoms: C_14  and  C_22 
REMARK    7  A    between atoms: C_20  and  C_25 
REMARK    8  A    between atoms: C_23  and  C_24 
REMARK    9  A    between atoms: C_28  and  C_31 
ROOT
HETATM    1  O   UNL     1      16.527   4.271  94.081  1.00  0.00    -0.388 OA
HETATM    2  N   UNL     1      14.701   2.656  92.611  1.00  0.00     0.096 N 
HETATM    3  C   UNL     1      14.637   4.124  92.566  1.00  0.00     0.299 C 
HETATM    4  C   UNL     1      15.250   2.216  93.900  1.00  0.00     0.299 C 
HETATM    5  C   UNL     1      16.024   4.710  92.818  1.00  0.00     0.198 C 
HETATM    6  C   UNL     1      16.621   2.846  94.122  1.00  0.00     0.198 C 
ENDROOT
BRANCH   2   7
HETATM    7  C   UNL     1      13.380   2.073  92.382  1.00  0.00     0.311 C 
BRANCH   7   8
HETATM    8  C   UNL     1      12.373   3.093  91.969  1.00  0.00    -0.030 A 
HETATM    9  C   UNL     1      12.256   3.451  90.626  1.00  0.00     0.010 A 
HETATM   10  C   UNL     1      11.316   4.406  90.239  1.00  0.00     0.021 A 
HETATM   11  C   UNL     1      10.492   5.000  91.195  1.00  0.00     0.018 A 
HETATM   12  C   UNL     1      10.609   4.642  92.537  1.00  0.00     0.021 A 
HETATM   13  C   UNL     1      11.550   3.688  92.924  1.00  0.00     0.010 A 
BRANCH  11  14
HETATM   14  C   UNL     1       9.527   5.978  90.798  1.00  0.00    -0.061 C 
HETATM   15  C   UNL     1       8.715   6.800  90.464  1.00  0.00    -0.061 C 
BRANCH  15  16
HETATM   16  C   UNL     1       7.751   7.778  90.067  1.00  0.00     0.018 A 
HETATM   17  C   UNL     1       7.041   7.613  88.877  1.00  0.00     0.022 A 
HETATM   18  C   UNL     1       6.099   8.566  88.492  1.00  0.00     0.018 A 
HETATM   19  C   UNL     1       5.886   9.661  89.303  1.00  0.00     0.032 A 
HETATM   20  C   UNL     1       6.574   9.846  90.484  1.00  0.00     0.018 A 
HETATM   21  C   UNL     1       7.518   8.894  90.871  1.00  0.00     0.022 A 
BRANCH  19  22
HETATM   22  C   UNL     1       4.883  10.676  88.891  1.00  0.00     0.252 C 
HETATM   23  O   UNL     1       4.098  10.410  87.983  1.00  0.00    -0.268 OA
HETATM   24  N   UNL     1       4.897  11.869  89.601  1.00  0.00    -0.342 N 
HETATM   25  H   UNL     1       5.559  12.008  90.356  1.00  0.00     0.163 HD
BRANCH  24  26
HETATM   26  C   UNL     1       3.972  12.941  89.336  1.00  0.00     0.199 C 
BRANCH  26  27
HETATM   27  C   UNL     1       3.433  13.590  90.617  1.00  0.00     0.145 C 
HETATM   28  C   UNL     1       2.705  12.595  91.514  1.00  0.00     0.042 C 
BRANCH  27  29
HETATM   29  O   UNL     1       4.512  14.170  91.349  1.00  0.00    -0.393 OA
HETATM   30  H   UNL     1       5.109  13.455  91.630  1.00  0.00     0.210 HD
ENDBRANCH  27  29
ENDBRANCH  26  27
BRANCH  26  31
HETATM   31  C   UNL     1       4.682  13.962  88.453  1.00  0.00     0.220 C 
HETATM   32  O   UNL     1       4.984  15.088  88.842  1.00  0.00    -0.278 OA
HETATM   33  N   UNL     1       4.902  13.486  87.183  1.00  0.00    -0.271 NA
HETATM   34  H   UNL     1       4.588  12.600  86.804  1.00  0.00     0.127 HD
HETATM   35  H   UNL     1       4.265  13.862  85.990  1.00  0.00     0.127 HD
ENDBRANCH  26  31
ENDBRANCH  24  26
ENDBRANCH  19  22
ENDBRANCH  15  16
ENDBRANCH  11  14
ENDBRANCH   7   8
ENDBRANCH   2   7
TORSDOF 9
ENDMDL
MODEL 2
REMARK VINA RESULT:      -6.8      1.892      2.817
REMARK  9 active torsions:
REMARK  status: ('A' for Active; 'I' for Inactive)
REMARK    1  A    between atoms: O_2  and  C_17 
REMARK    2  A    between atoms: N_5  and  C_10 
REMARK    3  A    between atoms: N_6  and  C_14 
REMARK       I    between atoms: N_6  and  C_23 
REMARK       I    between atoms: N_7  and  C_22 
REMARK    4  A    between atoms: C_10  and  C_13 
REMARK    5  A    between atoms: C_14  and  C_17 
REMARK    6  A    between atoms: C_14  and  C_22 
REMARK    7  A    between atoms: C_20  and  C_25 
REMARK    8  A    between atoms: C_23  and  C_24 
REMARK    9  A    between atoms: C_28  and  C_31 
ROOT
HETATM    1  O   UNL     1      16.172   3.959  94.124  1.00  0.00    -0.388 OA
HETATM    2  N   UNL     1      14.260   2.676  92.450  1.00  0.00     0.096 N 
HETATM    3  C   UNL     1      14.424   4.137  92.449  1.00  0.00     0.299 C 
HETATM    4  C   UNL     1      14.619   2.130  93.766  1.00  0.00     0.299 C 
HETATM    5  C   UNL     1      15.856   4.496  92.838  1.00  0.00     0.198 C 
HETATM    6  C   UNL     1      16.045   2.537  94.124  1.00  0.00     0.198 C 
ENDROOT
BRANCH   2   7
HETATM    7  C   UNL     1      12.892   2.309  92.090  1.00  0.00     0.311 C 
BRANCH   7   8
HETATM    8  C   UNL     1      11.955   3.467  92.163  1.00  0.00    -0.030 A 
HETATM    9  C   UNL     1      11.380   3.973  90.997  1.00  0.00     0.010 A 
HETATM   10  C   UNL     1      10.505   5.057  91.064  1.00  0.00     0.021 A 
HETATM   11  C   UNL     1      10.204   5.633  92.298  1.00  0.00     0.018 A 
HETATM   12  C   UNL     1      10.777   5.128  93.463  1.00  0.00     0.021 A 
HETATM   13  C   UNL     1      11.653   4.045  93.397  1.00  0.00     0.010 A 
BRANCH  11  14
HETATM   14  C   UNL     1       9.305   6.744  92.367  1.00  0.00    -0.061 C 
HETATM   15  C   UNL     1       8.549   7.677  92.424  1.00  0.00    -0.061 C 
BRANCH  15  16
HETATM   16  C   UNL     1       7.650   8.786  92.493  1.00  0.00     0.018 A 
HETATM   17  C   UNL     1       6.876   9.126  91.383  1.00  0.00     0.022 A 
HETATM   18  C   UNL     1       5.997  10.206  91.451  1.00  0.00     0.018 A 
HETATM   19  C   UNL     1       5.911  10.922  92.627  1.00  0.00     0.032 A 
HETATM   20  C   UNL     1       6.665  10.607  93.737  1.00  0.00     0.018 A 
HETATM   21  C   UNL     1       7.545   9.527  93.670  1.00  0.00     0.022 A 
BRANCH  19  22
HETATM   22  C   UNL     1       4.976  12.075  92.698  1.00  0.00     0.252 C 
HETATM   23  O   UNL     1       4.705  12.561  93.794  1.00  0.00    -0.268 OA
HETATM   24  N   UNL     1       4.488  12.538  91.484  1.00  0.00    -0.342 N 
HETATM   25  H   UNL     1       4.775  12.102  90.616  1.00  0.00     0.163 HD
BRANCH  24  26
HETATM   26  C   UNL     1       3.592  13.662  91.387  1.00  0.00     0.199 C 
BRANCH  26  27
HETATM   27  C   UNL     1       3.586  14.297  89.990  1.00  0.00     0.145 C 
HETATM   28  C   UNL     1       4.903  14.989  89.658  1.00  0.00     0.042 C 
BRANCH  27  29
HETATM   29  O   UNL     1       3.330  13.292  89.010  1.00  0.00    -0.393 OA
HETATM   30  H   UNL     1       2.788  13.685  88.305  1.00  0.00     0.210 HD
ENDBRANCH  27  29
ENDBRANCH  26  27
BRANCH  26  31
HETATM   31  C   UNL     1       2.199  13.184  91.784  1.00  0.00     0.220 C 
HETATM   32  O   UNL     1       1.779  12.057  91.527  1.00  0.00    -0.278 OA
HETATM   33  N   UNL     1       1.475  14.164  92.418  1.00  0.00    -0.271 NA
HETATM   34  H   UNL     1       1.756  15.126  92.566  1.00  0.00     0.127 HD
HETATM   35  H   UNL     1       0.378  14.891  91.929  1.00  0.00     0.127 HD
ENDBRANCH  26  31
ENDBRANCH  24  26
ENDBRANCH  19  22
ENDBRANCH  15  16
ENDBRANCH  11  14
ENDBRANCH   7   8
ENDBRANCH   2   7
TORSDOF 9
ENDMDL
MODEL 3
REMARK VINA RESULT:      -5.5      2.585     12.182
REMARK  9 active torsions:
REMARK  status: ('A' for Active; 'I' for Inactive)
REMARK    1  A    between atoms: O_2  and  C_17 
REMARK    2  A    between atoms: N_5  and  C_10 
REMARK    3  A    between atoms: N_6  and  C_14 
REMARK       I    between atoms: N_6  and  C_23 
REMARK       I    between atoms: N_7  and  C_22 
REMARK    4  A    between atoms: C_10  and  C_13 
REMARK    5  A    between atoms: C_14  and  C_17 
REMARK    6  A    between atoms: C_14  and  C_22 
REMARK    7  A    between atoms: C_20  and  C_25 
REMARK    8  A    between atoms: C_23  and  C_24 
REMARK    9  A    between atoms: C_28  and  C_31 
ROOT
HETATM    1  O   UNL     1       3.094  14.924  93.949  1.00  0.00    -0.388 OA
HETATM    2  N   UNL     1       2.595  14.692  91.157  1.00  0.00     0.096 N 
HETATM    3  C   UNL     1       1.708  14.071  92.149  1.00  0.00     0.299 C 
HETATM    4  C   UNL     1       3.962  14.780  91.689  1.00  0.00     0.299 C 
HETATM    5  C   UNL     1       1.756  14.864  93.453  1.00  0.00     0.198 C 
HETATM    6  C   UNL     1       3.958  15.554  93.003  1.00  0.00     0.198 C 
ENDROOT
BRANCH   2   7
HETATM    7  C   UNL     1       2.573  13.943  89.902  1.00  0.00     0.311 C 
BRANCH   7   8
HETATM    8  C   UNL     1       3.588  12.851  89.874  1.00  0.00    -0.030 A 
HETATM    9  C   UNL     1       4.857  13.093  89.345  1.00  0.00     0.010 A 
HETATM   10  C   UNL     1       5.806  12.072  89.317  1.00  0.00     0.021 A 
HETATM   11  C   UNL     1       5.487  10.810  89.819  1.00  0.00     0.018 A 
HETATM   12  C   UNL     1       4.221  10.568  90.348  1.00  0.00     0.021 A 
HETATM   13  C   UNL     1       3.271  11.589  90.376  1.00  0.00     0.010 A 
BRANCH  11  14
HETATM   14  C   UNL     1       6.462   9.764  89.792  1.00  0.00    -0.061 C 
HETATM   15  C   UNL     1       7.281   8.884  89.770  1.00  0.00    -0.061 C 
BRANCH  15  16
HETATM   16  C   UNL     1       8.255   7.837  89.743  1.00  0.00     0.018 A 
HETATM   17  C   UNL     1       9.293   7.876  88.811  1.00  0.00     0.022 A 
HETATM   18  C   UNL     1      10.244   6.856  88.787  1.00  0.00     0.018 A 
HETATM   19  C   UNL     1      10.137   5.822  89.693  1.00  0.00     0.032 A 
HETATM   20  C   UNL     1       9.120   5.761  90.623  1.00  0.00     0.018 A 
HETATM   21  C   UNL     1       8.168   6.780  90.648  1.00  0.00     0.022 A 
BRANCH  19  22
HETATM   22  C   UNL     1      11.149   4.734  89.665  1.00  0.00     0.252 C 
HETATM   23  O   UNL     1      11.426   4.200  88.594  1.00  0.00    -0.268 OA
HETATM   24  N   UNL     1      11.735   4.418  90.883  1.00  0.00    -0.342 N 
HETATM   25  H   UNL     1      11.474   4.919  91.724  1.00  0.00     0.163 HD
BRANCH  24  26
HETATM   26  C   UNL     1      12.750   3.404  91.015  1.00  0.00     0.199 C 
BRANCH  26  27
HETATM   27  C   UNL     1      14.092   3.966  91.501  1.00  0.00     0.145 C 
HETATM   28  C   UNL     1      14.433   3.521  92.919  1.00  0.00     0.042 C 
BRANCH  27  29
HETATM   29  O   UNL     1      15.133   3.546  90.620  1.00  0.00    -0.393 OA
HETATM   30  H   UNL     1      15.411   2.652  90.881  1.00  0.00     0.210 HD
ENDBRANCH  27  29
ENDBRANCH  26  27
BRANCH  26  31
HETATM   31  C   UNL     1      12.220   2.335  91.965  1.00  0.00     0.220 C 
HETATM   32  O   UNL     1      12.594   1.164  91.931  1.00  0.00    -0.278 OA
HETATM   33  N   UNL     1      11.264   2.828  92.820  1.00  0.00    -0.271 NA
HETATM   34  H   UNL     1      10.870   3.761  92.816  1.00  0.00     0.127 HD
HETATM   35  H   UNL     1       9.882   2.586  92.814  1.00  0.00     0.127 HD
ENDBRANCH  26  31
ENDBRANCH  24  26
ENDBRANCH  19  22
ENDBRANCH  15  16
ENDBRANCH  11  14
ENDBRANCH   7   8
ENDBRANCH   2   7
TORSDOF 9
ENDMDL
MODEL 4
REMARK VINA RESULT:      -5.4      1.783     12.241
REMARK  9 active torsions:
REMARK  status: ('A' for Active; 'I' for Inactive)
REMARK    1  A    between atoms: O_2  and  C_17 
REMARK    2  A    between atoms: N_5  and  C_10 
REMARK    3  A    between atoms: N_6  and  C_14 
REMARK       I    between atoms: N_6  and  C_23 
REMARK       I    between atoms: N_7  and  C_22 
REMARK    4  A    between atoms: C_10  and  C_13 
REMARK    5  A    between atoms: C_14  and  C_17 
REMARK    6  A    between atoms: C_14  and  C_22 
REMARK    7  A    between atoms: C_20  and  C_25 
REMARK    8  A    between atoms: C_23  and  C_24 
REMARK    9  A    between atoms: C_28  and  C_31 
ROOT
HETATM    1  O   UNL     1       4.392  14.906  91.788  1.00  0.00    -0.388 OA
HETATM    2  N   UNL     1       3.841  13.377  89.451  1.00  0.00     0.096 N 
HETATM    3  C   UNL     1       3.411  12.926  90.782  1.00  0.00     0.299 C 
HETATM    4  C   UNL     1       5.055  14.198  89.565  1.00  0.00     0.299 C 
HETATM    5  C   UNL     1       3.193  14.133  91.691  1.00  0.00     0.198 C 
HETATM    6  C   UNL     1       4.799  15.373  90.502  1.00  0.00     0.198 C 
ENDROOT
BRANCH   2   7
HETATM    7  C   UNL     1       4.066  12.236  88.566  1.00  0.00     0.311 C 
BRANCH   7   8
HETATM    8  C   UNL     1       5.041  11.260  89.133  1.00  0.00    -0.030 A 
HETATM    9  C   UNL     1       4.593  10.030  89.618  1.00  0.00     0.010 A 
HETATM   10  C   UNL     1       5.504   9.118  90.151  1.00  0.00     0.021 A 
HETATM   11  C   UNL     1       6.861   9.436  90.197  1.00  0.00     0.018 A 
HETATM   12  C   UNL     1       7.309  10.663  89.714  1.00  0.00     0.021 A 
HETATM   13  C   UNL     1       6.398  11.576  89.181  1.00  0.00     0.010 A 
BRANCH  11  14
HETATM   14  C   UNL     1       7.795   8.499  90.742  1.00  0.00    -0.061 C 
HETATM   15  C   UNL     1       8.580   7.712  91.201  1.00  0.00    -0.061 C 
BRANCH  15  16
HETATM   16  C   UNL     1       9.513   6.775  91.746  1.00  0.00     0.018 A 
HETATM   17  C   UNL     1       9.784   6.779  93.115  1.00  0.00     0.022 A 
HETATM   18  C   UNL     1      10.692   5.863  93.646  1.00  0.00     0.018 A 
HETATM   19  C   UNL     1      11.307   4.966  92.799  1.00  0.00     0.032 A 
HETATM   20  C   UNL     1      11.057   4.943  91.443  1.00  0.00     0.018 A 
HETATM   21  C   UNL     1      10.149   5.858  90.910  1.00  0.00     0.022 A 
BRANCH  19  22
HETATM   22  C   UNL     1      12.276   3.992  93.366  1.00  0.00     0.252 C 
HETATM   23  O   UNL     1      11.856   2.954  93.873  1.00  0.00    -0.268 OA
HETATM   24  N   UNL     1      13.617   4.332  93.252  1.00  0.00    -0.342 N 
HETATM   25  H   UNL     1      13.890   5.195  92.798  1.00  0.00     0.163 HD
BRANCH  24  26
HETATM   26  C   UNL     1      14.676   3.480  93.731  1.00  0.00     0.199 C 
BRANCH  26  27
HETATM   27  C   UNL     1      14.927   2.274  92.818  1.00  0.00     0.145 C 
HETATM   28  C   UNL     1      14.510   0.957  93.463  1.00  0.00     0.042 C 
BRANCH  27  29
HETATM   29  O   UNL     1      14.205   2.441  91.598  1.00  0.00    -0.393 OA
HETATM   30  H   UNL     1      14.619   1.880  90.920  1.00  0.00     0.210 HD
ENDBRANCH  27  29
ENDBRANCH  26  27
BRANCH  26  31
HETATM   31  C   UNL     1      15.931   4.335  93.878  1.00  0.00     0.220 C 
HETATM   32  O   UNL     1      15.913   5.564  93.833  1.00  0.00    -0.278 OA
HETATM   33  N   UNL     1      17.064   3.573  94.023  1.00  0.00    -0.271 NA
HETATM   34  H   UNL     1      17.126   2.563  93.975  1.00  0.00     0.127 HD
HETATM   35  H   UNL     1      18.099   3.365  93.098  1.00  0.00     0.127 HD
ENDBRANCH  26  31
ENDBRANCH  24  26
ENDBRANCH  19  22
ENDBRANCH  15  16
ENDBRANCH  11  14
ENDBRANCH   7   8
ENDBRANCH   2   7
TORSDOF 9
ENDMDL
MODEL 5
REMARK VINA RESULT:      -5.3      1.969     12.218
REMARK  9 active torsions:
REMARK  status: ('A' for Active; 'I' for Inactive)
REMARK    1  A    between atoms: O_2  and  C_17 
REMARK    2  A    between atoms: N_5  and  C_10 
REMARK    3  A    between atoms: N_6  and  C_14 
REMARK       I    between atoms: N_6  and  C_23 
REMARK       I    between atoms: N_7  and  C_22 
REMARK    4  A    between atoms: C_10  and  C_13 
REMARK    5  A    between atoms: C_14  and  C_17 
REMARK    6  A    between atoms: C_14  and  C_22 
REMARK    7  A    between atoms: C_20  and  C_25 
REMARK    8  A    between atoms: C_23  and  C_24 
REMARK    9  A    between atoms: C_28  and  C_31 
ROOT
HETATM    1  O   UNL     1       5.629  14.741  88.793  1.00  0.00    -0.388 OA
HETATM    2  N   UNL     1       3.699  13.146  90.145  1.00  0.00     0.096 N 
HETATM    3  C   UNL     1       4.269  14.350  90.764  1.00  0.00     0.299 C 
HETATM    4  C   UNL     1       4.666  12.554  89.210  1.00  0.00     0.299 C 
HETATM    5  C   UNL     1       4.684  15.342  89.680  1.00  0.00     0.198 C 
HETATM    6  C   UNL     1       5.072  13.587  88.163  1.00  0.00     0.198 C 
ENDROOT
BRANCH   2   7
HETATM    7  C   UNL     1       3.304  12.177  91.166  1.00  0.00     0.311 C 
BRANCH   7   8
HETATM    8  C   UNL     1       4.364  11.161  91.425  1.00  0.00    -0.030 A 
HETATM    9  C   UNL     1       5.371  11.428  92.353  1.00  0.00     0.010 A 
HETATM   10  C   UNL     1       6.365  10.479  92.595  1.00  0.00     0.021 A 
HETATM   11  C   UNL     1       6.349   9.264  91.911  1.00  0.00     0.018 A 
HETATM   12  C   UNL     1       5.343   8.997  90.985  1.00  0.00     0.021 A 
HETATM   13  C   UNL     1       4.350   9.945  90.742  1.00  0.00     0.010 A 
BRANCH  11  14
HETATM   14  C   UNL     1       7.367   8.290  92.161  1.00  0.00    -0.061 C 
HETATM   15  C   UNL     1       8.223   7.472  92.372  1.00  0.00    -0.061 C 
BRANCH  15  16
HETATM   16  C   UNL     1       9.240   6.499  92.623  1.00  0.00     0.018 A 
HETATM   17  C   UNL     1       9.516   5.519  91.669  1.00  0.00     0.022 A 
HETATM   18  C   UNL     1      10.510   4.571  91.913  1.00  0.00     0.018 A 
HETATM   19  C   UNL     1      11.206   4.626  93.103  1.00  0.00     0.032 A 
HETATM   20  C   UNL     1      10.951   5.585  94.061  1.00  0.00     0.018 A 
HETATM   21  C   UNL     1       9.957   6.533  93.818  1.00  0.00     0.022 A 
BRANCH  19  22
HETATM   22  C   UNL     1      12.263   3.615  93.363  1.00  0.00     0.252 C 
HETATM   23  O   UNL     1      11.952   2.430  93.452  1.00  0.00    -0.268 OA
HETATM   24  N   UNL     1      13.559   4.103  93.463  1.00  0.00    -0.342 N 
HETATM   25  H   UNL     1      13.744   5.093  93.353  1.00  0.00     0.163 HD
BRANCH  24  26
HETATM   26  C   UNL     1      14.695   3.246  93.689  1.00  0.00     0.199 C 
BRANCH  26  27
HETATM   27  C   UNL     1      14.964   2.295  92.515  1.00  0.00     0.145 C 
HETATM   28  C   UNL     1      14.527   0.864  92.812  1.00  0.00     0.042 C 
BRANCH  27  29
HETATM   29  O   UNL     1      14.273   2.760  91.356  1.00  0.00    -0.393 OA
HETATM   30  H   UNL     1      14.147   3.720  91.441  1.00  0.00     0.210 HD
ENDBRANCH  27  29
ENDBRANCH  26  27
BRANCH  26  31
HETATM   31  C   UNL     1      15.902   4.136  93.968  1.00  0.00     0.220 C 
HETATM   32  O   UNL     1      15.833   5.363  94.011  1.00  0.00    -0.278 OA
HETATM   33  N   UNL     1      17.057   3.409  94.124  1.00  0.00    -0.271 NA
HETATM   34  H   UNL     1      17.165   2.409  94.007  1.00  0.00     0.127 HD
HETATM   35  H   UNL     1      18.150   3.311  93.247  1.00  0.00     0.127 HD
ENDBRANCH  26  31
ENDBRANCH  24  26
ENDBRANCH  19  22
ENDBRANCH  15  16
ENDBRANCH  11  14
ENDBRANCH   7   8
ENDBRANCH   2   7
TORSDOF 9
ENDMDL
MODEL 6
REMARK VINA RESULT:      -4.5      1.691     12.285
REMARK  9 active torsions:
REMARK  status: ('A' for Active; 'I' for Inactive)
REMARK    1  A    between atoms: O_2  and  C_17 
REMARK    2  A    between atoms: N_5  and  C_10 
REMARK    3  A    between atoms: N_6  and  C_14 
REMARK       I    between atoms: N_6  and  C_23 
REMARK       I    between atoms: N_7  and  C_22 
REMARK    4  A    between atoms: C_10  and  C_13 
REMARK    5  A    between atoms: C_14  and  C_17 
REMARK    6  A    between atoms: C_14  and  C_22 
REMARK    7  A    between atoms: C_20  and  C_25 
REMARK    8  A    between atoms: C_23  and  C_24 
REMARK    9  A    between atoms: C_28  and  C_31 
ROOT
HETATM    1  O   UNL     1       4.322  14.017  89.467  1.00  0.00    -0.388 OA
HETATM    2  N   UNL     1       3.274  11.691  88.206  1.00  0.00     0.096 N 
HETATM    3  C   UNL     1       2.698  12.214  89.452  1.00  0.00     0.299 C 
HETATM    4  C   UNL     1       4.702  12.028  88.131  1.00  0.00     0.299 C 
HETATM    5  C   UNL     1       2.926  13.721  89.534  1.00  0.00     0.198 C 
HETATM    6  C   UNL     1       4.883  13.538  88.244  1.00  0.00     0.198 C 
ENDROOT
BRANCH   2   7
HETATM    7  C   UNL     1       3.076  10.245  88.111  1.00  0.00     0.311 C 
BRANCH   7   8
HETATM    8  C   UNL     1       4.216   9.477  88.688  1.00  0.00    -0.030 A 
HETATM    9  C   UNL     1       4.324   9.323  90.070  1.00  0.00     0.010 A 
HETATM   10  C   UNL     1       5.392   8.607  90.611  1.00  0.00     0.021 A 
HETATM   11  C   UNL     1       6.349   8.042  89.768  1.00  0.00     0.018 A 
HETATM   12  C   UNL     1       6.241   8.194  88.387  1.00  0.00     0.021 A 
HETATM   13  C   UNL     1       5.174   8.912  87.846  1.00  0.00     0.010 A 
BRANCH  11  14
HETATM   14  C   UNL     1       7.443   7.305  90.322  1.00  0.00    -0.061 C 
HETATM   15  C   UNL     1       8.362   6.686  90.788  1.00  0.00    -0.061 C 
BRANCH  15  16
HETATM   16  C   UNL     1       9.456   5.950  91.342  1.00  0.00     0.018 A 
HETATM   17  C   UNL     1      10.483   5.499  90.513  1.00  0.00     0.022 A 
HETATM   18  C   UNL     1      11.551   4.783  91.054  1.00  0.00     0.018 A 
HETATM   19  C   UNL     1      11.568   4.536  92.411  1.00  0.00     0.032 A 
HETATM   20  C   UNL     1      10.565   4.970  93.251  1.00  0.00     0.018 A 
HETATM   21  C   UNL     1       9.496   5.686  92.711  1.00  0.00     0.022 A 
BRANCH  19  22
HETATM   22  C   UNL     1      12.705   3.772  92.987  1.00  0.00     0.252 C 
HETATM   23  O   UNL     1      12.591   3.280  94.107  1.00  0.00    -0.268 OA
HETATM   24  N   UNL     1      13.828   3.652  92.180  1.00  0.00    -0.342 N 
HETATM   25  H   UNL     1      13.841   4.064  91.255  1.00  0.00     0.163 HD
BRANCH  24  26
HETATM   26  C   UNL     1      15.001   2.921  92.587  1.00  0.00     0.199 C 
BRANCH  26  27
HETATM   27  C   UNL     1      15.741   3.589  93.753  1.00  0.00     0.145 C 
HETATM   28  C   UNL     1      17.196   3.145  93.852  1.00  0.00     0.042 C 
BRANCH  27  29
HETATM   29  O   UNL     1      15.698   5.007  93.597  1.00  0.00    -0.393 OA
HETATM   30  H   UNL     1      15.968   5.221  92.688  1.00  0.00     0.210 HD
ENDBRANCH  27  29
ENDBRANCH  26  27
BRANCH  26  31
HETATM   31  C   UNL     1      14.566   1.504  92.945  1.00  0.00     0.220 C 
HETATM   32  O   UNL     1      13.778   0.852  92.262  1.00  0.00    -0.278 OA
HETATM   33  N   UNL     1      15.125   1.071  94.123  1.00  0.00    -0.271 NA
HETATM   34  H   UNL     1      15.705   1.612  94.754  1.00  0.00     0.127 HD
HETATM   35  H   UNL     1      14.500   0.882  95.366  1.00  0.00     0.127 HD
ENDBRANCH  26  31
ENDBRANCH  24  26
ENDBRANCH  19  22
ENDBRANCH  15  16
ENDBRANCH  11  14
ENDBRANCH   7   8
ENDBRANCH   2   7
TORSDOF 9
ENDMDL
MODEL 7
REMARK VINA RESULT:      -4.5      2.562     12.421
REMARK  9 active torsions:
REMARK  status: ('A' for Active; 'I' for Inactive)
REMARK    1  A    between atoms: O_2  and  C_17 
REMARK    2  A    between atoms: N_5  and  C_10 
REMARK    3  A    between atoms: N_6  and  C_14 
REMARK       I    between atoms: N_6  and  C_23 
REMARK       I    between atoms: N_7  and  C_22 
REMARK    4  A    between atoms: C_10  and  C_13 
REMARK    5  A    between atoms: C_14  and  C_17 
REMARK    6  A    between atoms: C_14  and  C_22 
REMARK    7  A    between atoms: C_20  and  C_25 
REMARK    8  A    between atoms: C_23  and  C_24 
REMARK    9  A    between atoms: C_28  and  C_31 
ROOT
HETATM    1  O   UNL     1       1.707  13.052  93.934  1.00  0.00    -0.388 OA
HETATM    2  N   UNL     1       2.189  12.494  91.184  1.00  0.00     0.096 N 
HETATM    3  C   UNL     1       2.269  11.442  92.207  1.00  0.00     0.299 C 
HETATM    4  C   UNL     1       2.525  13.797  91.775  1.00  0.00     0.299 C 
HETATM    5  C   UNL     1       1.350  11.786  93.376  1.00  0.00     0.198 C 
HETATM    6  C   UNL     1       1.601  14.085  92.954  1.00  0.00     0.198 C 
ENDROOT
BRANCH   2   7
HETATM    7  C   UNL     1       3.070  12.191  90.059  1.00  0.00     0.311 C 
BRANCH   7   8
HETATM    8  C   UNL     1       4.154  11.236  90.428  1.00  0.00    -0.030 A 
HETATM    9  C   UNL     1       5.348  11.714  90.970  1.00  0.00     0.010 A 
HETATM   10  C   UNL     1       6.364  10.822  91.314  1.00  0.00     0.021 A 
HETATM   11  C   UNL     1       6.184   9.453  91.117  1.00  0.00     0.018 A 
HETATM   12  C   UNL     1       4.993   8.975  90.576  1.00  0.00     0.021 A 
HETATM   13  C   UNL     1       3.977   9.867  90.231  1.00  0.00     0.010 A 
BRANCH  11  14
HETATM   14  C   UNL     1       7.226   8.538  91.471  1.00  0.00    -0.061 C 
HETATM   15  C   UNL     1       8.100   7.768  91.769  1.00  0.00    -0.061 C 
BRANCH  15  16
HETATM   16  C   UNL     1       9.141   6.854  92.122  1.00  0.00     0.018 A 
HETATM   17  C   UNL     1       9.504   6.696  93.460  1.00  0.00     0.022 A 
HETATM   18  C   UNL     1      10.518   5.801  93.805  1.00  0.00     0.018 A 
HETATM   19  C   UNL     1      11.144   5.086  92.806  1.00  0.00     0.032 A 
HETATM   20  C   UNL     1      10.803   5.225  91.476  1.00  0.00     0.018 A 
HETATM   21  C   UNL     1       9.790   6.119  91.130  1.00  0.00     0.022 A 
BRANCH  19  22
HETATM   22  C   UNL     1      12.225   4.135  93.173  1.00  0.00     0.252 C 
HETATM   23  O   UNL     1      12.055   3.371  94.121  1.00  0.00    -0.268 OA
HETATM   24  N   UNL     1      13.362   4.170  92.378  1.00  0.00    -0.342 N 
HETATM   25  H   UNL     1      13.421   4.811  91.596  1.00  0.00     0.163 HD
BRANCH  24  26
HETATM   26  C   UNL     1      14.485   3.293  92.593  1.00  0.00     0.199 C 
BRANCH  26  27
HETATM   27  C   UNL     1      15.317   3.684  93.820  1.00  0.00     0.145 C 
HETATM   28  C   UNL     1      16.664   2.971  93.864  1.00  0.00     0.042 C 
BRANCH  27  29
HETATM   29  O   UNL     1      15.540   5.094  93.817  1.00  0.00    -0.393 OA
HETATM   30  H   UNL     1      16.462   5.257  93.556  1.00  0.00     0.210 HD
ENDBRANCH  27  29
ENDBRANCH  26  27
BRANCH  26  31
HETATM   31  C   UNL     1      13.949   1.871  92.716  1.00  0.00     0.220 C 
HETATM   32  O   UNL     1      14.478   1.015  93.423  1.00  0.00    -0.278 OA
HETATM   33  N   UNL     1      12.847   1.661  91.923  1.00  0.00    -0.271 NA
HETATM   34  H   UNL     1      12.441   2.314  91.264  1.00  0.00     0.127 HD
HETATM   35  H   UNL     1      12.752   0.902  90.746  1.00  0.00     0.127 HD
ENDBRANCH  26  31
ENDBRANCH  24  26
ENDBRANCH  19  22
ENDBRANCH  15  16
ENDBRANCH  11  14
ENDBRANCH   7   8
ENDBRANCH   2   7
TORSDOF 9
ENDMDL
MODEL 8
REMARK VINA RESULT:      -4.4      2.359     12.445
REMARK  9 active torsions:
REMARK  status: ('A' for Active; 'I' for Inactive)
REMARK    1  A    between atoms: O_2  and  C_17 
REMARK    2  A    between atoms: N_5  and  C_10 
REMARK    3  A    between atoms: N_6  and  C_14 
REMARK       I    between atoms: N_6  and  C_23 
REMARK       I    between atoms: N_7  and  C_22 
REMARK    4  A    between atoms: C_10  and  C_13 
REMARK    5  A    between atoms: C_14  and  C_17 
REMARK    6  A    between atoms: C_14  and  C_22 
REMARK    7  A    between atoms: C_20  and  C_25 
REMARK    8  A    between atoms: C_23  and  C_24 
REMARK    9  A    between atoms: C_28  and  C_31 
ROOT
HETATM    1  O   UNL     1       1.509  12.914  93.349  1.00  0.00    -0.388 OA
HETATM    2  N   UNL     1       2.789  13.076  90.812  1.00  0.00     0.096 N 
HETATM    3  C   UNL     1       2.549  11.784  91.469  1.00  0.00     0.299 C 
HETATM    4  C   UNL     1       2.945  14.133  91.820  1.00  0.00     0.299 C 
HETATM    5  C   UNL     1       1.324  11.885  92.375  1.00  0.00     0.198 C 
HETATM    6  C   UNL     1       1.713  14.179  92.717  1.00  0.00     0.198 C 
ENDROOT
BRANCH   2   7
HETATM    7  C   UNL     1       3.966  13.005  89.947  1.00  0.00     0.311 C 
BRANCH   7   8
HETATM    8  C   UNL     1       4.911  11.929  90.361  1.00  0.00    -0.030 A 
HETATM    9  C   UNL     1       5.214  10.891  89.479  1.00  0.00     0.010 A 
HETATM   10  C   UNL     1       6.096   9.882  89.866  1.00  0.00     0.021 A 
HETATM   11  C   UNL     1       6.677   9.914  91.133  1.00  0.00     0.018 A 
HETATM   12  C   UNL     1       6.376  10.951  92.014  1.00  0.00     0.021 A 
HETATM   13  C   UNL     1       5.493  11.959  91.628  1.00  0.00     0.010 A 
BRANCH  11  14
HETATM   14  C   UNL     1       7.584   8.881  91.529  1.00  0.00    -0.061 C 
HETATM   15  C   UNL     1       8.347   8.013  91.863  1.00  0.00    -0.061 C 
BRANCH  15  16
HETATM   16  C   UNL     1       9.253   6.980  92.259  1.00  0.00     0.018 A 
HETATM   17  C   UNL     1       9.759   6.095  91.307  1.00  0.00     0.022 A 
HETATM   18  C   UNL     1      10.645   5.089  91.694  1.00  0.00     0.018 A 
HETATM   19  C   UNL     1      11.005   4.992  93.022  1.00  0.00     0.032 A 
HETATM   20  C   UNL     1      10.518   5.855  93.981  1.00  0.00     0.018 A 
HETATM   21  C   UNL     1       9.632   6.861  93.596  1.00  0.00     0.022 A 
BRANCH  19  22
HETATM   22  C   UNL     1      11.947   3.919  93.433  1.00  0.00     0.252 C 
HETATM   23  O   UNL     1      11.499   2.843  93.820  1.00  0.00    -0.268 OA
HETATM   24  N   UNL     1      13.297   4.220  93.321  1.00  0.00    -0.342 N 
HETATM   25  H   UNL     1      13.594   5.123  92.969  1.00  0.00     0.163 HD
BRANCH  24  26
HETATM   26  C   UNL     1      14.333   3.277  93.658  1.00  0.00     0.199 C 
BRANCH  26  27
HETATM   27  C   UNL     1      14.383   2.082  92.697  1.00  0.00     0.145 C 
HETATM   28  C   UNL     1      15.138   2.398  91.411  1.00  0.00     0.042 C 
BRANCH  27  29
HETATM   29  O   UNL     1      15.011   0.975  93.343  1.00  0.00    -0.393 OA
HETATM   30  H   UNL     1      14.389   0.228  93.341  1.00  0.00     0.210 HD
ENDBRANCH  27  29
ENDBRANCH  26  27
BRANCH  26  31
HETATM   31  C   UNL     1      15.660   4.028  93.677  1.00  0.00     0.220 C 
HETATM   32  O   UNL     1      15.776   5.192  93.299  1.00  0.00    -0.278 OA
HETATM   33  N   UNL     1      16.695   3.243  94.124  1.00  0.00    -0.271 NA
HETATM   34  H   UNL     1      16.652   2.258  94.357  1.00  0.00     0.127 HD
HETATM   35  H   UNL     1      17.757   2.697  93.386  1.00  0.00     0.127 HD
ENDBRANCH  26  31
ENDBRANCH  24  26
ENDBRANCH  19  22
ENDBRANCH  15  16
ENDBRANCH  11  14
ENDBRANCH   7   8
ENDBRANCH   2   7
TORSDOF 9
ENDMDL
