MODEL 1
REMARK VINA RESULT:      -7.1      0.000      0.000
REMARK  9 active torsions:
REMARK  status: ('A' for Active; 'I' for Inactive)
REMARK    1  A    between atoms: O_2  and  C_17 
REMARK    2  A    between atoms: N_5  and  C_10 
REMARK    3  A    between atoms: N_6  and  C_14 
REMARK       I    between atoms: N_6  and  C_23 
REMARK       I    between atoms: N_7  and  C_22 
REMARK    4  A    between atoms: C_10  and  C_13 
REMARK    5  A    between atoms: C_14  and  C_17 
REMARK    6  A    between atoms: C_14  and  C_22 
REMARK    7  A    between atoms: C_20  and  C_25 
REMARK    8  A    between atoms: C_23  and  C_24 
REMARK    9  A    between atoms: C_28  and  C_31 
ROOT
HETATM    1  O   UNL     1      16.006   3.926  94.124  1.00  0.00    -0.388 OA
HETATM    2  N   UNL     1      14.194   2.598  92.376  1.00  0.00     0.096 N 
HETATM    3  C   UNL     1      14.259   4.064  92.445  1.00  0.00     0.299 C 
HETATM    4  C   UNL     1      14.583   2.016  93.668  1.00  0.00     0.299 C 
HETATM    5  C   UNL     1      15.662   4.501  92.862  1.00  0.00     0.198 C 
HETATM    6  C   UNL     1      15.976   2.500  94.057  1.00  0.00     0.198 C 
ENDROOT
BRANCH   2   7
HETATM    7  C   UNL     1      12.856   2.157  91.988  1.00  0.00     0.311 C 
BRANCH   7   8
HETATM    8  C   UNL     1      11.955   3.298  91.660  1.00  0.00    -0.030 A 
HETATM    9  C   UNL     1      10.996   3.716  92.584  1.00  0.00     0.010 A 
HETATM   10  C   UNL     1      10.151   4.783  92.277  1.00  0.00     0.021 A 
HETATM   11  C   UNL     1      10.266   5.431  91.048  1.00  0.00     0.018 A 
HETATM   12  C   UNL     1      11.223   5.015  90.125  1.00  0.00     0.021 A 
HETATM   13  C   UNL     1      12.068   3.948  90.431  1.00  0.00     0.010 A 
BRANCH  11  14
HETATM   14  C   UNL     1       9.400   6.527  90.735  1.00  0.00    -0.061 C 
HETATM   15  C   UNL     1       8.673   7.447  90.472  1.00  0.00    -0.061 C 
BRANCH  15  16
HETATM   16  C   UNL     1       7.809   8.542  90.158  1.00  0.00     0.018 A 
HETATM   17  C   UNL     1       6.445   8.320  89.964  1.00  0.00     0.022 A 
HETATM   18  C   UNL     1       5.602   9.389  89.661  1.00  0.00     0.018 A 
HETATM   19  C   UNL     1       6.140  10.654  89.560  1.00  0.00     0.032 A 
HETATM   20  C   UNL     1       7.484  10.900  89.747  1.00  0.00     0.018 A 
HETATM   21  C   UNL     1       8.328   9.832  90.050  1.00  0.00     0.022 A 
BRANCH  19  22
HETATM   22  C   UNL     1       5.241  11.792  89.235  1.00  0.00     0.252 C 
HETATM   23  O   UNL     1       4.967  12.023  88.060  1.00  0.00    -0.268 OA
HETATM   24  N   UNL     1       4.751  12.508  90.319  1.00  0.00    -0.342 N 
HETATM   25  H   UNL     1       5.002  12.244  91.264  1.00  0.00     0.163 HD
BRANCH  24  26
HETATM   26  C   UNL     1       3.850  13.623  90.168  1.00  0.00     0.199 C 
BRANCH  26  27
HETATM   27  C   UNL     1       2.555  13.452  90.971  1.00  0.00     0.145 C 
HETATM   28  C   UNL     1       2.690  12.417  92.083  1.00  0.00     0.042 C 
BRANCH  27  29
HETATM   29  O   UNL     1       2.180  14.703  91.546  1.00  0.00    -0.393 OA
HETATM   30  H   UNL     1       1.210  14.736  91.600  1.00  0.00     0.210 HD
ENDBRANCH  27  29
ENDBRANCH  26  27
BRANCH  26  31
HETATM   31  C   UNL     1       4.598  14.885  90.584  1.00  0.00     0.220 C 
HETATM   32  O   UNL     1       4.749  15.218  91.758  1.00  0.00    -0.278 OA
HETATM   33  N   UNL     1       5.037  15.609  89.502  1.00  0.00    -0.271 NA
HETATM   34  H   UNL     1       4.853  15.412  88.525  1.00  0.00     0.127 HD
HETATM   35  H   UNL     1       4.553  16.835  89.018  1.00  0.00     0.127 HD
ENDBRANCH  26  31
ENDBRANCH  24  26
ENDBRANCH  19  22
ENDBRANCH  15  16
ENDBRANCH  11  14
ENDBRANCH   7   8
ENDBRANCH   2   7
TORSDOF 9
ENDMDL
