MODEL 1
REMARK VINA RESULT:      -6.0      0.000      0.000
REMARK  11 active torsions:
REMARK  status: ('A' for Active; 'I' for Inactive)
REMARK    1  A    between atoms: O_2  and  C_18 
REMARK    2  A    between atoms: O_5  and  P_8 
REMARK    3  A    between atoms: N_6  and  C_11 
REMARK    4  A    between atoms: N_7  and  C_15 
REMARK       I    between atoms: N_7  and  C_24 
REMARK    5  A    between atoms: P_8  and  C_23 
REMARK    6  A    between atoms: C_11  and  C_14 
REMARK    7  A    between atoms: C_15  and  C_18 
REMARK    8  A    between atoms: C_15  and  C_23 
REMARK    9  A    between atoms: C_21  and  C_26 
REMARK   10  A    between atoms: C_24  and  C_25 
REMARK   11  A    between atoms: C_29  and  C_32 
ROOT
HETATM    1  O   UNL     1      16.592   2.868  93.233  1.00  0.00     0.000 OA
HETATM    2  N   UNL     1      13.768   2.750  92.895  1.00  0.00     0.000 N 
HETATM    3  C   UNL     1      14.528   1.603  93.410  1.00  0.00     0.000 C 
HETATM    4  C   UNL     1      14.615   3.558  92.007  1.00  0.00     0.000 C 
HETATM    5  C   UNL     1      15.786   2.095  94.123  1.00  0.00     0.000 C 
HETATM    6  C   UNL     1      15.870   4.002  92.751  1.00  0.00     0.000 C 
ENDROOT
BRANCH   2   7
HETATM    7  C   UNL     1      12.563   2.302  92.198  1.00  0.00     0.000 C 
BRANCH   7   8
HETATM    8  C   UNL     1      11.621   3.422  91.915  1.00  0.00     0.000 A 
HETATM    9  C   UNL     1      11.057   3.554  90.645  1.00  0.00     0.000 A 
HETATM   10  C   UNL     1      10.178   4.602  90.378  1.00  0.00     0.000 A 
HETATM   11  C   UNL     1       9.860   5.517  91.382  1.00  0.00     0.000 A 
HETATM   12  C   UNL     1      10.422   5.387  92.650  1.00  0.00     0.000 A 
HETATM   13  C   UNL     1      11.303   4.339  92.917  1.00  0.00     0.000 A 
BRANCH  11  14
HETATM   14  C   UNL     1       8.956   6.592  91.108  1.00  0.00     0.000 C 
HETATM   15  C   UNL     1       8.196   7.495  90.879  1.00  0.00     0.000 C 
BRANCH  15  16
HETATM   16  C   UNL     1       7.293   8.569  90.606  1.00  0.00     0.000 A 
HETATM   17  C   UNL     1       7.473   9.806  91.227  1.00  0.00     0.000 A 
HETATM   18  C   UNL     1       6.594  10.854  90.958  1.00  0.00     0.000 A 
HETATM   19  C   UNL     1       5.556  10.644  90.074  1.00  0.00     0.000 A 
HETATM   20  C   UNL     1       5.356   9.431  89.448  1.00  0.00     0.000 A 
HETATM   21  C   UNL     1       6.235   8.382  89.717  1.00  0.00     0.000 A 
BRANCH  19  22
HETATM   22  C   UNL     1       4.618  11.761  89.790  1.00  0.00     0.000 C 
HETATM   23  O   UNL     1       4.084  11.829  88.685  1.00  0.00     0.000 OA
HETATM   24  N   UNL     1       4.397  12.650  90.832  1.00  0.00     0.000 N 
HETATM   25  HN  UNL     1       4.855  12.516  91.726  1.00  0.00     0.000 HD
BRANCH  24  26
HETATM   26  C   UNL     1       3.497  13.769  90.719  1.00  0.00     0.000 C 
BRANCH  26  27
HETATM   27  C   UNL     1       2.243  13.613  91.589  1.00  0.00     0.000 C 
HETATM   28  C   UNL     1       2.526  12.880  92.896  1.00  0.00     0.000 C 
BRANCH  27  29
HETATM   29  O   UNL     1       1.705  14.901  91.888  1.00  0.00     0.000 OA
HETATM   30  H   UNL     1       0.818  14.781  92.266  1.00  0.00     0.000 HD
ENDBRANCH  27  29
ENDBRANCH  26  27
BRANCH  26  31
HETATM   31  C   UNL     1       4.273  15.030  91.087  1.00  0.00     0.000 C 
HETATM   32  O   UNL     1       4.316  15.480  92.230  1.00  0.00     0.000 OA
BRANCH  31  33
HETATM   33  P   UNL     1       4.872  15.607  89.994  1.00  0.00     0.000 P 
HETATM   34  H   UNL     1       4.126  16.713  89.637  1.00  0.00     0.000 HD
BRANCH  33  35
HETATM   35  O   UNL     1       4.995  14.789  88.862  1.00  0.00     0.000 OA
HETATM   36  H   UNL     1       5.234  13.945  89.282  1.00  0.00     0.000 HD
ENDBRANCH  33  35
ENDBRANCH  31  33
ENDBRANCH  26  31
ENDBRANCH  24  26
ENDBRANCH  19  22
ENDBRANCH  15  16
ENDBRANCH  11  14
ENDBRANCH   7   8
ENDBRANCH   2   7
TORSDOF 11
ENDMDL
MODEL 2
REMARK VINA RESULT:      -5.9      1.692      2.736
REMARK  11 active torsions:
REMARK  status: ('A' for Active; 'I' for Inactive)
REMARK    1  A    between atoms: O_2  and  C_18 
REMARK    2  A    between atoms: O_5  and  P_8 
REMARK    3  A    between atoms: N_6  and  C_11 
REMARK    4  A    between atoms: N_7  and  C_15 
REMARK       I    between atoms: N_7  and  C_24 
REMARK    5  A    between atoms: P_8  and  C_23 
REMARK    6  A    between atoms: C_11  and  C_14 
REMARK    7  A    between atoms: C_15  and  C_18 
REMARK    8  A    between atoms: C_15  and  C_23 
REMARK    9  A    between atoms: C_21  and  C_26 
REMARK   10  A    between atoms: C_24  and  C_25 
REMARK   11  A    between atoms: C_29  and  C_32 
ROOT
HETATM    1  O   UNL     1      16.090   3.996  94.040  1.00  0.00     0.000 OA
HETATM    2  N   UNL     1      14.170   2.653  92.424  1.00  0.00     0.000 N 
HETATM    3  C   UNL     1      14.361   4.107  92.340  1.00  0.00     0.000 C 
HETATM    4  C   UNL     1      14.506   2.178  93.773  1.00  0.00     0.000 C 
HETATM    5  C   UNL     1      15.796   4.463  92.721  1.00  0.00     0.000 C 
HETATM    6  C   UNL     1      15.936   2.579  94.122  1.00  0.00     0.000 C 
ENDROOT
BRANCH   2   7
HETATM    7  C   UNL     1      12.798   2.290  92.072  1.00  0.00     0.000 C 
BRANCH   7   8
HETATM    8  C   UNL     1      11.864   3.448  92.160  1.00  0.00     0.000 A 
HETATM    9  C   UNL     1      11.244   3.931  91.007  1.00  0.00     0.000 A 
HETATM   10  C   UNL     1      10.371   5.017  91.087  1.00  0.00     0.000 A 
HETATM   11  C   UNL     1      10.118   5.616  92.320  1.00  0.00     0.000 A 
HETATM   12  C   UNL     1      10.736   5.134  93.472  1.00  0.00     0.000 A 
HETATM   13  C   UNL     1      11.609   4.050  93.392  1.00  0.00     0.000 A 
BRANCH  11  14
HETATM   14  C   UNL     1       9.221   6.728  92.403  1.00  0.00     0.000 C 
HETATM   15  C   UNL     1       8.467   7.662  92.472  1.00  0.00     0.000 C 
BRANCH  15  16
HETATM   16  C   UNL     1       7.570   8.773  92.555  1.00  0.00     0.000 A 
HETATM   17  C   UNL     1       6.884   9.200  91.417  1.00  0.00     0.000 A 
HETATM   18  C   UNL     1       6.008  10.282  91.499  1.00  0.00     0.000 A 
HETATM   19  C   UNL     1       5.836  10.911  92.715  1.00  0.00     0.000 A 
HETATM   20  C   UNL     1       6.502  10.507  93.853  1.00  0.00     0.000 A 
HETATM   21  C   UNL     1       7.379   9.425  93.772  1.00  0.00     0.000 A 
BRANCH  19  22
HETATM   22  C   UNL     1       4.903  12.064  92.801  1.00  0.00     0.000 C 
HETATM   23  O   UNL     1       4.747  12.630  93.880  1.00  0.00     0.000 OA
HETATM   24  N   UNL     1       4.284  12.435  91.615  1.00  0.00     0.000 N 
HETATM   25  HN  UNL     1       4.481  11.936  90.756  1.00  0.00     0.000 HD
BRANCH  24  26
HETATM   26  C   UNL     1       3.372  13.548  91.532  1.00  0.00     0.000 C 
BRANCH  26  27
HETATM   27  C   UNL     1       3.258  14.116  90.112  1.00  0.00     0.000 C 
HETATM   28  C   UNL     1       4.513  14.867  89.680  1.00  0.00     0.000 C 
BRANCH  27  29
HETATM   29  O   UNL     1       3.014  13.054  89.190  1.00  0.00     0.000 OA
HETATM   30  H   UNL     1       2.156  12.652  89.408  1.00  0.00     0.000 HD
ENDBRANCH  27  29
ENDBRANCH  26  27
BRANCH  26  31
HETATM   31  C   UNL     1       2.017  13.080  92.052  1.00  0.00     0.000 C 
HETATM   32  O   UNL     1       1.465  12.055  91.656  1.00  0.00     0.000 OA
BRANCH  31  33
HETATM   33  P   UNL     1       1.486  13.952  92.972  1.00  0.00     0.000 P 
HETATM   34  H   UNL     1       0.131  14.051  92.726  1.00  0.00     0.000 HD
BRANCH  33  35
HETATM   35  O   UNL     1       2.020  15.248  92.964  1.00  0.00     0.000 OA
HETATM   36  H   UNL     1       2.968  15.045  92.880  1.00  0.00     0.000 HD
ENDBRANCH  33  35
ENDBRANCH  31  33
ENDBRANCH  26  31
ENDBRANCH  24  26
ENDBRANCH  19  22
ENDBRANCH  15  16
ENDBRANCH  11  14
ENDBRANCH   7   8
ENDBRANCH   2   7
TORSDOF 11
ENDMDL
MODEL 3
REMARK VINA RESULT:      -5.3      1.429      1.824
REMARK  11 active torsions:
REMARK  status: ('A' for Active; 'I' for Inactive)
REMARK    1  A    between atoms: O_2  and  C_18 
REMARK    2  A    between atoms: O_5  and  P_8 
REMARK    3  A    between atoms: N_6  and  C_11 
REMARK    4  A    between atoms: N_7  and  C_15 
REMARK       I    between atoms: N_7  and  C_24 
REMARK    5  A    between atoms: P_8  and  C_23 
REMARK    6  A    between atoms: C_11  and  C_14 
REMARK    7  A    between atoms: C_15  and  C_18 
REMARK    8  A    between atoms: C_15  and  C_23 
REMARK    9  A    between atoms: C_21  and  C_26 
REMARK   10  A    between atoms: C_24  and  C_25 
REMARK   11  A    between atoms: C_29  and  C_32 
ROOT
HETATM    1  O   UNL     1      16.651   3.196  93.960  1.00  0.00     0.000 OA
HETATM    2  N   UNL     1      14.149   3.057  92.611  1.00  0.00     0.000 N 
HETATM    3  C   UNL     1      14.947   1.851  92.875  1.00  0.00     0.000 C 
HETATM    4  C   UNL     1      15.030   4.225  92.477  1.00  0.00     0.000 C 
HETATM    5  C   UNL     1      15.800   2.060  94.124  1.00  0.00     0.000 C 
HETATM    6  C   UNL     1      15.882   4.377  93.733  1.00  0.00     0.000 C 
ENDROOT
BRANCH   2   7
HETATM    7  C   UNL     1      13.331   2.883  91.412  1.00  0.00     0.000 C 
BRANCH   7   8
HETATM    8  C   UNL     1      12.135   3.773  91.406  1.00  0.00     0.000 A 
HETATM    9  C   UNL     1      11.494   4.086  92.606  1.00  0.00     0.000 A 
HETATM   10  C   UNL     1      10.374   4.916  92.602  1.00  0.00     0.000 A 
HETATM   11  C   UNL     1       9.896   5.435  91.399  1.00  0.00     0.000 A 
HETATM   12  C   UNL     1      10.535   5.123  90.201  1.00  0.00     0.000 A 
HETATM   13  C   UNL     1      11.655   4.292  90.204  1.00  0.00     0.000 A 
BRANCH  11  14
HETATM   14  C   UNL     1       8.748   6.289  91.395  1.00  0.00     0.000 C 
HETATM   15  C   UNL     1       7.783   7.006  91.393  1.00  0.00     0.000 C 
BRANCH  15  16
HETATM   16  C   UNL     1       6.636   7.859  91.390  1.00  0.00     0.000 A 
HETATM   17  C   UNL     1       6.388   8.696  92.478  1.00  0.00     0.000 A 
HETATM   18  C   UNL     1       5.270   9.531  92.474  1.00  0.00     0.000 A 
HETATM   19  C   UNL     1       4.427   9.510  91.383  1.00  0.00     0.000 A 
HETATM   20  C   UNL     1       4.650   8.692  90.296  1.00  0.00     0.000 A 
HETATM   21  C   UNL     1       5.767   7.857  90.299  1.00  0.00     0.000 A 
BRANCH  19  22
HETATM   22  C   UNL     1       3.235  10.398  91.380  1.00  0.00     0.000 C 
HETATM   23  O   UNL     1       2.113   9.896  91.397  1.00  0.00     0.000 OA
HETATM   24  N   UNL     1       3.493  11.762  91.383  1.00  0.00     0.000 N 
HETATM   25  HN  UNL     1       4.447  12.103  91.394  1.00  0.00     0.000 HD
BRANCH  24  26
HETATM   26  C   UNL     1       2.444  12.749  91.404  1.00  0.00     0.000 C 
BRANCH  26  27
HETATM   27  C   UNL     1       2.317  13.450  92.763  1.00  0.00     0.000 C 
HETATM   28  C   UNL     1       3.644  14.019  93.252  1.00  0.00     0.000 C 
BRANCH  27  29
HETATM   29  O   UNL     1       1.366  14.510  92.666  1.00  0.00     0.000 OA
HETATM   30  H   UNL     1       0.564  14.246  93.148  1.00  0.00     0.000 HD
ENDBRANCH  27  29
ENDBRANCH  26  27
BRANCH  26  31
HETATM   31  C   UNL     1       2.723  13.750  90.288  1.00  0.00     0.000 C 
HETATM   32  O   UNL     1       1.961  14.674  90.011  1.00  0.00     0.000 OA
BRANCH  31  33
HETATM   33  P   UNL     1       3.889  13.469  89.619  1.00  0.00     0.000 P 
HETATM   34  H   UNL     1       4.368  14.650  89.089  1.00  0.00     0.000 HD
BRANCH  33  35
HETATM   35  O   UNL     1       3.785  12.540  88.573  1.00  0.00     0.000 OA
HETATM   36  H   UNL     1       4.153  13.062  87.840  1.00  0.00     0.000 HD
ENDBRANCH  33  35
ENDBRANCH  31  33
ENDBRANCH  26  31
ENDBRANCH  24  26
ENDBRANCH  19  22
ENDBRANCH  15  16
ENDBRANCH  11  14
ENDBRANCH   7   8
ENDBRANCH   2   7
TORSDOF 11
ENDMDL
MODEL 4
REMARK VINA RESULT:      -4.8      3.606     12.575
REMARK  11 active torsions:
REMARK  status: ('A' for Active; 'I' for Inactive)
REMARK    1  A    between atoms: O_2  and  C_18 
REMARK    2  A    between atoms: O_5  and  P_8 
REMARK    3  A    between atoms: N_6  and  C_11 
REMARK    4  A    between atoms: N_7  and  C_15 
REMARK       I    between atoms: N_7  and  C_24 
REMARK    5  A    between atoms: P_8  and  C_23 
REMARK    6  A    between atoms: C_11  and  C_14 
REMARK    7  A    between atoms: C_15  and  C_18 
REMARK    8  A    between atoms: C_15  and  C_23 
REMARK    9  A    between atoms: C_21  and  C_26 
REMARK   10  A    between atoms: C_24  and  C_25 
REMARK   11  A    between atoms: C_29  and  C_32 
ROOT
HETATM    1  O   UNL     1       2.694  14.544  94.106  1.00  0.00     0.000 OA
HETATM    2  N   UNL     1       2.542  14.499  91.264  1.00  0.00     0.000 N 
HETATM    3  C   UNL     1       1.645  13.683  92.094  1.00  0.00     0.000 C 
HETATM    4  C   UNL     1       3.817  14.715  91.963  1.00  0.00     0.000 C 
HETATM    5  C   UNL     1       1.439  14.356  93.449  1.00  0.00     0.000 C 
HETATM    6  C   UNL     1       3.561  15.362  93.320  1.00  0.00     0.000 C 
ENDROOT
BRANCH   2   7
HETATM    7  C   UNL     1       2.763  13.867  89.965  1.00  0.00     0.000 C 
BRANCH   7   8
HETATM    8  C   UNL     1       3.777  12.776  90.028  1.00  0.00     0.000 A 
HETATM    9  C   UNL     1       3.527  11.637  90.794  1.00  0.00     0.000 A 
HETATM   10  C   UNL     1       4.476  10.616  90.856  1.00  0.00     0.000 A 
HETATM   11  C   UNL     1       5.673  10.735  90.150  1.00  0.00     0.000 A 
HETATM   12  C   UNL     1       5.923  11.872  89.385  1.00  0.00     0.000 A 
HETATM   13  C   UNL     1       4.975  12.893  89.323  1.00  0.00     0.000 A 
BRANCH  11  14
HETATM   14  C   UNL     1       6.645   9.687  90.212  1.00  0.00     0.000 C 
HETATM   15  C   UNL     1       7.462   8.807  90.263  1.00  0.00     0.000 C 
BRANCH  15  16
HETATM   16  C   UNL     1       8.435   7.760  90.325  1.00  0.00     0.000 A 
HETATM   17  C   UNL     1       9.099   7.358  89.166  1.00  0.00     0.000 A 
HETATM   18  C   UNL     1      10.050   6.339  89.227  1.00  0.00     0.000 A 
HETATM   19  C   UNL     1      10.314   5.746  90.444  1.00  0.00     0.000 A 
HETATM   20  C   UNL     1       9.671   6.126  91.603  1.00  0.00     0.000 A 
HETATM   21  C   UNL     1       8.720   7.145  91.543  1.00  0.00     0.000 A 
BRANCH  19  22
HETATM   22  C   UNL     1      11.326   4.659  90.508  1.00  0.00     0.000 C 
HETATM   23  O   UNL     1      11.482   3.928  89.534  1.00  0.00     0.000 OA
HETATM   24  N   UNL     1      12.049   4.571  91.689  1.00  0.00     0.000 N 
HETATM   25  HN  UNL     1      11.882   5.227  92.444  1.00  0.00     0.000 HD
BRANCH  24  26
HETATM   26  C   UNL     1      13.081   3.586  91.895  1.00  0.00     0.000 C 
BRANCH  26  27
HETATM   27  C   UNL     1      14.443   4.031  91.350  1.00  0.00     0.000 C 
HETATM   28  C   UNL     1      15.147   2.929  90.567  1.00  0.00     0.000 C 
BRANCH  27  29
HETATM   29  O   UNL     1      14.270   5.165  90.500  1.00  0.00     0.000 OA
HETATM   30  H   UNL     1      15.123   5.362  90.077  1.00  0.00     0.000 HD
ENDBRANCH  27  29
ENDBRANCH  26  27
BRANCH  26  31
HETATM   31  C   UNL     1      13.151   3.291  93.390  1.00  0.00     0.000 C 
HETATM   32  O   UNL     1      12.164   3.303  94.122  1.00  0.00     0.000 OA
BRANCH  31  33
HETATM   33  P   UNL     1      14.437   3.053  93.812  1.00  0.00     0.000 P 
HETATM   34  H   UNL     1      15.296   3.591  92.875  1.00  0.00     0.000 HD
BRANCH  33  35
HETATM   35  O   UNL     1      14.782   1.706  93.987  1.00  0.00     0.000 OA
HETATM   36  H   UNL     1      15.711   1.797  94.258  1.00  0.00     0.000 HD
ENDBRANCH  33  35
ENDBRANCH  31  33
ENDBRANCH  26  31
ENDBRANCH  24  26
ENDBRANCH  19  22
ENDBRANCH  15  16
ENDBRANCH  11  14
ENDBRANCH   7   8
ENDBRANCH   2   7
TORSDOF 11
ENDMDL
MODEL 5
REMARK VINA RESULT:      -4.5      3.441     12.513
REMARK  11 active torsions:
REMARK  status: ('A' for Active; 'I' for Inactive)
REMARK    1  A    between atoms: O_2  and  C_18 
REMARK    2  A    between atoms: O_5  and  P_8 
REMARK    3  A    between atoms: N_6  and  C_11 
REMARK    4  A    between atoms: N_7  and  C_15 
REMARK       I    between atoms: N_7  and  C_24 
REMARK    5  A    between atoms: P_8  and  C_23 
REMARK    6  A    between atoms: C_11  and  C_14 
REMARK    7  A    between atoms: C_15  and  C_18 
REMARK    8  A    between atoms: C_15  and  C_23 
REMARK    9  A    between atoms: C_21  and  C_26 
REMARK   10  A    between atoms: C_24  and  C_25 
REMARK   11  A    between atoms: C_29  and  C_32 
ROOT
HETATM    1  O   UNL     1       3.058  14.998  93.746  1.00  0.00     0.000 OA
HETATM    2  N   UNL     1       2.808  14.448  90.964  1.00  0.00     0.000 N 
HETATM    3  C   UNL     1       1.845  13.920  91.941  1.00  0.00     0.000 C 
HETATM    4  C   UNL     1       4.122  14.625  91.598  1.00  0.00     0.000 C 
HETATM    5  C   UNL     1       1.769  14.853  93.147  1.00  0.00     0.000 C 
HETATM    6  C   UNL     1       3.993  15.539  92.811  1.00  0.00     0.000 C 
ENDROOT
BRANCH   2   7
HETATM    7  C   UNL     1       2.905  13.564  89.804  1.00  0.00     0.000 C 
BRANCH   7   8
HETATM    8  C   UNL     1       3.931  12.497  89.986  1.00  0.00     0.000 A 
HETATM    9  C   UNL     1       3.685  11.436  90.858  1.00  0.00     0.000 A 
HETATM   10  C   UNL     1       4.644  10.439  91.031  1.00  0.00     0.000 A 
HETATM   11  C   UNL     1       5.849  10.503  90.331  1.00  0.00     0.000 A 
HETATM   12  C   UNL     1       6.096  11.562  89.461  1.00  0.00     0.000 A 
HETATM   13  C   UNL     1       5.137  12.560  89.288  1.00  0.00     0.000 A 
BRANCH  11  14
HETATM   14  C   UNL     1       6.832   9.479  90.508  1.00  0.00     0.000 C 
HETATM   15  C   UNL     1       7.659   8.619  90.656  1.00  0.00     0.000 C 
BRANCH  15  16
HETATM   16  C   UNL     1       8.643   7.596  90.833  1.00  0.00     0.000 A 
HETATM   17  C   UNL     1       9.171   7.350  92.100  1.00  0.00     0.000 A 
HETATM   18  C   UNL     1      10.128   6.350  92.273  1.00  0.00     0.000 A 
HETATM   19  C   UNL     1      10.534   5.619  91.176  1.00  0.00     0.000 A 
HETATM   20  C   UNL     1      10.028   5.843  89.913  1.00  0.00     0.000 A 
HETATM   21  C   UNL     1       9.070   6.843  89.739  1.00  0.00     0.000 A 
BRANCH  19  22
HETATM   22  C   UNL     1      11.556   4.555  91.360  1.00  0.00     0.000 C 
HETATM   23  O   UNL     1      11.787   3.780  90.436  1.00  0.00     0.000 OA
HETATM   24  N   UNL     1      12.201   4.539  92.589  1.00  0.00     0.000 N 
HETATM   25  HN  UNL     1      11.975   5.228  93.297  1.00  0.00     0.000 HD
BRANCH  24  26
HETATM   26  C   UNL     1      13.232   3.584  92.911  1.00  0.00     0.000 C 
BRANCH  26  27
HETATM   27  C   UNL     1      13.029   2.234  92.212  1.00  0.00     0.000 C 
HETATM   28  C   UNL     1      14.042   1.186  92.661  1.00  0.00     0.000 C 
BRANCH  27  29
HETATM   29  O   UNL     1      11.713   1.751  92.479  1.00  0.00     0.000 OA
HETATM   30  H   UNL     1      11.764   0.791  92.625  1.00  0.00     0.000 HD
ENDBRANCH  27  29
ENDBRANCH  26  27
BRANCH  26  31
HETATM   31  C   UNL     1      14.574   4.205  92.539  1.00  0.00     0.000 C 
HETATM   32  O   UNL     1      14.840   4.595  91.403  1.00  0.00     0.000 OA
BRANCH  31  33
HETATM   33  P   UNL     1      15.444   4.237  93.602  1.00  0.00     0.000 P 
HETATM   34  H   UNL     1      14.706   4.070  94.757  1.00  0.00     0.000 HD
BRANCH  33  35
HETATM   35  O   UNL     1      16.197   5.412  93.739  1.00  0.00     0.000 OA
HETATM   36  H   UNL     1      16.403   5.597  92.807  1.00  0.00     0.000 HD
ENDBRANCH  33  35
ENDBRANCH  31  33
ENDBRANCH  26  31
ENDBRANCH  24  26
ENDBRANCH  19  22
ENDBRANCH  15  16
ENDBRANCH  11  14
ENDBRANCH   7   8
ENDBRANCH   2   7
TORSDOF 11
ENDMDL
MODEL 6
REMARK VINA RESULT:      -3.8      3.532     12.590
REMARK  11 active torsions:
REMARK  status: ('A' for Active; 'I' for Inactive)
REMARK    1  A    between atoms: O_2  and  C_18 
REMARK    2  A    between atoms: O_5  and  P_8 
REMARK    3  A    between atoms: N_6  and  C_11 
REMARK    4  A    between atoms: N_7  and  C_15 
REMARK       I    between atoms: N_7  and  C_24 
REMARK    5  A    between atoms: P_8  and  C_23 
REMARK    6  A    between atoms: C_11  and  C_14 
REMARK    7  A    between atoms: C_15  and  C_18 
REMARK    8  A    between atoms: C_15  and  C_23 
REMARK    9  A    between atoms: C_21  and  C_26 
REMARK   10  A    between atoms: C_24  and  C_25 
REMARK   11  A    between atoms: C_29  and  C_32 
ROOT
HETATM    1  O   UNL     1       4.065  14.353  90.516  1.00  0.00     0.000 OA
HETATM    2  N   UNL     1       3.010  13.330  92.953  1.00  0.00     0.000 N 
HETATM    3  C   UNL     1       4.227  14.152  92.929  1.00  0.00     0.000 C 
HETATM    4  C   UNL     1       2.874  12.595  91.688  1.00  0.00     0.000 C 
HETATM    5  C   UNL     1       4.190  15.096  91.730  1.00  0.00     0.000 C 
HETATM    6  C   UNL     1       2.869  13.574  90.519  1.00  0.00     0.000 C 
ENDROOT
BRANCH   2   7
HETATM    7  C   UNL     1       3.030  12.410  94.089  1.00  0.00     0.000 C 
BRANCH   7   8
HETATM    8  C   UNL     1       4.052  11.336  93.933  1.00  0.00     0.000 A 
HETATM    9  C   UNL     1       3.656  10.041  93.595  1.00  0.00     0.000 A 
HETATM   10  C   UNL     1       4.611   9.035  93.451  1.00  0.00     0.000 A 
HETATM   11  C   UNL     1       5.962   9.325  93.642  1.00  0.00     0.000 A 
HETATM   12  C   UNL     1       6.358  10.618  93.979  1.00  0.00     0.000 A 
HETATM   13  C   UNL     1       5.403  11.624  94.124  1.00  0.00     0.000 A 
BRANCH  11  14
HETATM   14  C   UNL     1       6.942   8.294  93.492  1.00  0.00     0.000 C 
HETATM   15  C   UNL     1       7.765   7.427  93.365  1.00  0.00     0.000 C 
BRANCH  15  16
HETATM   16  C   UNL     1       8.744   6.396  93.214  1.00  0.00     0.000 A 
HETATM   17  C   UNL     1       9.858   6.364  94.054  1.00  0.00     0.000 A 
HETATM   18  C   UNL     1      10.811   5.357  93.909  1.00  0.00     0.000 A 
HETATM   19  C   UNL     1      10.631   4.405  92.928  1.00  0.00     0.000 A 
HETATM   20  C   UNL     1       9.539   4.414  92.085  1.00  0.00     0.000 A 
HETATM   21  C   UNL     1       8.585   5.421  92.229  1.00  0.00     0.000 A 
BRANCH  19  22
HETATM   22  C   UNL     1      11.648   3.333  92.771  1.00  0.00     0.000 C 
HETATM   23  O   UNL     1      11.277   2.175  92.593  1.00  0.00     0.000 OA
HETATM   24  N   UNL     1      12.974   3.742  92.817  1.00  0.00     0.000 N 
HETATM   25  HN  UNL     1      13.204   4.720  92.943  1.00  0.00     0.000 HD
BRANCH  24  26
HETATM   26  C   UNL     1      14.074   2.825  92.658  1.00  0.00     0.000 C 
BRANCH  26  27
HETATM   27  C   UNL     1      14.635   2.815  91.230  1.00  0.00     0.000 C 
HETATM   28  C   UNL     1      14.137   3.991  90.398  1.00  0.00     0.000 C 
BRANCH  27  29
HETATM   29  O   UNL     1      16.061   2.852  91.278  1.00  0.00     0.000 OA
HETATM   30  H   UNL     1      16.331   3.699  91.672  1.00  0.00     0.000 HD
ENDBRANCH  27  29
ENDBRANCH  26  27
BRANCH  26  31
HETATM   31  C   UNL     1      15.147   3.204  93.673  1.00  0.00     0.000 C 
HETATM   32  O   UNL     1      16.012   2.419  94.057  1.00  0.00     0.000 OA
BRANCH  31  33
HETATM   33  P   UNL     1      15.003   4.494  94.123  1.00  0.00     0.000 P 
HETATM   34  H   UNL     1      13.803   4.978  93.644  1.00  0.00     0.000 HD
BRANCH  33  35
HETATM   35  O   UNL     1      16.012   5.390  93.741  1.00  0.00     0.000 OA
HETATM   36  H   UNL     1      16.174   5.091  92.830  1.00  0.00     0.000 HD
ENDBRANCH  33  35
ENDBRANCH  31  33
ENDBRANCH  26  31
ENDBRANCH  24  26
ENDBRANCH  19  22
ENDBRANCH  15  16
ENDBRANCH  11  14
ENDBRANCH   7   8
ENDBRANCH   2   7
TORSDOF 11
ENDMDL
MODEL 7
REMARK VINA RESULT:      -3.7      3.275     12.640
REMARK  11 active torsions:
REMARK  status: ('A' for Active; 'I' for Inactive)
REMARK    1  A    between atoms: O_2  and  C_18 
REMARK    2  A    between atoms: O_5  and  P_8 
REMARK    3  A    between atoms: N_6  and  C_11 
REMARK    4  A    between atoms: N_7  and  C_15 
REMARK       I    between atoms: N_7  and  C_24 
REMARK    5  A    between atoms: P_8  and  C_23 
REMARK    6  A    between atoms: C_11  and  C_14 
REMARK    7  A    between atoms: C_15  and  C_18 
REMARK    8  A    between atoms: C_15  and  C_23 
REMARK    9  A    between atoms: C_21  and  C_26 
REMARK   10  A    between atoms: C_24  and  C_25 
REMARK   11  A    between atoms: C_29  and  C_32 
ROOT
HETATM    1  O   UNL     1       5.549  14.376  88.434  1.00  0.00     0.000 OA
HETATM    2  N   UNL     1       3.738  13.082  90.209  1.00  0.00     0.000 N 
HETATM    3  C   UNL     1       4.537  14.239  90.636  1.00  0.00     0.000 C 
HETATM    4  C   UNL     1       4.450  12.339  89.160  1.00  0.00     0.000 C 
HETATM    5  C   UNL     1       4.851  15.124  89.432  1.00  0.00     0.000 C 
HETATM    6  C   UNL     1       4.766  13.267  87.991  1.00  0.00     0.000 C 
ENDROOT
BRANCH   2   7
HETATM    7  C   UNL     1       3.434  12.215  91.346  1.00  0.00     0.000 C 
BRANCH   7   8
HETATM    8  C   UNL     1       4.462  11.153  91.540  1.00  0.00     0.000 A 
HETATM    9  C   UNL     1       5.623  11.430  92.262  1.00  0.00     0.000 A 
HETATM   10  C   UNL     1       6.586  10.438  92.442  1.00  0.00     0.000 A 
HETATM   11  C   UNL     1       6.386   9.167  91.903  1.00  0.00     0.000 A 
HETATM   12  C   UNL     1       5.226   8.889  91.183  1.00  0.00     0.000 A 
HETATM   13  C   UNL     1       4.263   9.881  91.001  1.00  0.00     0.000 A 
BRANCH  11  14
HETATM   14  C   UNL     1       7.373   8.148  92.090  1.00  0.00     0.000 C 
HETATM   15  C   UNL     1       8.202   7.292  92.247  1.00  0.00     0.000 C 
BRANCH  15  16
HETATM   16  C   UNL     1       9.188   6.274  92.433  1.00  0.00     0.000 A 
HETATM   17  C   UNL     1       9.642   5.536  91.340  1.00  0.00     0.000 A 
HETATM   18  C   UNL     1      10.607   4.545  91.522  1.00  0.00     0.000 A 
HETATM   19  C   UNL     1      11.095   4.314  92.791  1.00  0.00     0.000 A 
HETATM   20  C   UNL     1      10.662   5.030  93.887  1.00  0.00     0.000 A 
HETATM   21  C   UNL     1       9.698   6.021  93.707  1.00  0.00     0.000 A 
BRANCH  19  22
HETATM   22  C   UNL     1      12.121   3.257  92.984  1.00  0.00     0.000 C 
HETATM   23  O   UNL     1      11.925   2.138  92.516  1.00  0.00     0.000 OA
HETATM   24  N   UNL     1      13.263   3.637  93.676  1.00  0.00     0.000 N 
HETATM   25  HN  UNL     1      13.367   4.587  94.012  1.00  0.00     0.000 HD
BRANCH  24  26
HETATM   26  C   UNL     1      14.357   2.732  93.923  1.00  0.00     0.000 C 
BRANCH  26  27
HETATM   27  C   UNL     1      14.457   1.621  92.870  1.00  0.00     0.000 C 
HETATM   28  C   UNL     1      15.328   2.017  91.683  1.00  0.00     0.000 C 
BRANCH  27  29
HETATM   29  O   UNL     1      14.998   0.443  93.469  1.00  0.00     0.000 OA
HETATM   30  H   UNL     1      14.492  -0.322  93.149  1.00  0.00     0.000 HD
ENDBRANCH  27  29
ENDBRANCH  26  27
BRANCH  26  31
HETATM   31  C   UNL     1      15.639   3.557  93.981  1.00  0.00     0.000 C 
HETATM   32  O   UNL     1      16.752   3.055  94.124  1.00  0.00     0.000 OA
BRANCH  31  33
HETATM   33  P   UNL     1      15.393   4.906  93.897  1.00  0.00     0.000 P 
HETATM   34  H   UNL     1      14.560   5.117  92.817  1.00  0.00     0.000 HD
BRANCH  33  35
HETATM   35  O   UNL     1      16.520   5.723  93.736  1.00  0.00     0.000 OA
HETATM   36  H   UNL     1      16.211   6.535  94.172  1.00  0.00     0.000 HD
ENDBRANCH  33  35
ENDBRANCH  31  33
ENDBRANCH  26  31
ENDBRANCH  24  26
ENDBRANCH  19  22
ENDBRANCH  15  16
ENDBRANCH  11  14
ENDBRANCH   7   8
ENDBRANCH   2   7
TORSDOF 11
ENDMDL
MODEL 8
REMARK VINA RESULT:      -3.2      3.722     12.510
REMARK  11 active torsions:
REMARK  status: ('A' for Active; 'I' for Inactive)
REMARK    1  A    between atoms: O_2  and  C_18 
REMARK    2  A    between atoms: O_5  and  P_8 
REMARK    3  A    between atoms: N_6  and  C_11 
REMARK    4  A    between atoms: N_7  and  C_15 
REMARK       I    between atoms: N_7  and  C_24 
REMARK    5  A    between atoms: P_8  and  C_23 
REMARK    6  A    between atoms: C_11  and  C_14 
REMARK    7  A    between atoms: C_15  and  C_18 
REMARK    8  A    between atoms: C_15  and  C_23 
REMARK    9  A    between atoms: C_21  and  C_26 
REMARK   10  A    between atoms: C_24  and  C_25 
REMARK   11  A    between atoms: C_29  and  C_32 
ROOT
HETATM    1  O   UNL     1       3.029  15.165  92.305  1.00  0.00     0.000 OA
HETATM    2  N   UNL     1       1.419  12.921  92.994  1.00  0.00     0.000 N 
HETATM    3  C   UNL     1       1.983  13.806  94.023  1.00  0.00     0.000 C 
HETATM    4  C   UNL     1       2.287  12.910  91.808  1.00  0.00     0.000 C 
HETATM    5  C   UNL     1       2.175  15.208  93.450  1.00  0.00     0.000 C 
HETATM    6  C   UNL     1       2.472  14.331  91.288  1.00  0.00     0.000 C 
ENDROOT
BRANCH   2   7
HETATM    7  C   UNL     1       1.237  11.568  93.518  1.00  0.00     0.000 C 
BRANCH   7   8
HETATM    8  C   UNL     1       2.377  10.669  93.178  1.00  0.00     0.000 A 
HETATM    9  C   UNL     1       3.440  10.525  94.070  1.00  0.00     0.000 A 
HETATM   10  C   UNL     1       4.508   9.686  93.752  1.00  0.00     0.000 A 
HETATM   11  C   UNL     1       4.511   8.990  92.543  1.00  0.00     0.000 A 
HETATM   12  C   UNL     1       3.450   9.134  91.652  1.00  0.00     0.000 A 
HETATM   13  C   UNL     1       2.382   9.973  91.969  1.00  0.00     0.000 A 
BRANCH  11  14
HETATM   14  C   UNL     1       5.605   8.128  92.218  1.00  0.00     0.000 C 
HETATM   15  C   UNL     1       6.525   7.403  91.946  1.00  0.00     0.000 C 
BRANCH  15  16
HETATM   16  C   UNL     1       7.618   6.541  91.621  1.00  0.00     0.000 A 
HETATM   17  C   UNL     1       7.445   5.519  90.687  1.00  0.00     0.000 A 
HETATM   18  C   UNL     1       8.512   4.679  90.368  1.00  0.00     0.000 A 
HETATM   19  C   UNL     1       9.727   4.881  90.988  1.00  0.00     0.000 A 
HETATM   20  C   UNL     1       9.924   5.883  91.915  1.00  0.00     0.000 A 
HETATM   21  C   UNL     1       8.857   6.723  92.235  1.00  0.00     0.000 A 
BRANCH  19  22
HETATM   22  C   UNL     1      10.864   3.985  90.650  1.00  0.00     0.000 C 
HETATM   23  O   UNL     1      10.848   3.373  89.584  1.00  0.00     0.000 OA
HETATM   24  N   UNL     1      11.892   3.929  91.580  1.00  0.00     0.000 N 
HETATM   25  HN  UNL     1      11.848   4.483  92.427  1.00  0.00     0.000 HD
BRANCH  24  26
HETATM   26  C   UNL     1      13.072   3.126  91.384  1.00  0.00     0.000 C 
BRANCH  26  27
HETATM   27  C   UNL     1      14.245   3.925  90.802  1.00  0.00     0.000 C 
HETATM   28  C   UNL     1      14.989   3.161  89.713  1.00  0.00     0.000 C 
BRANCH  27  29
HETATM   29  O   UNL     1      13.762   5.153  90.258  1.00  0.00     0.000 OA
HETATM   30  H   UNL     1      13.655   5.041  89.299  1.00  0.00     0.000 HD
ENDBRANCH  27  29
ENDBRANCH  26  27
BRANCH  26  31
HETATM   31  C   UNL     1      13.439   2.502  92.726  1.00  0.00     0.000 C 
HETATM   32  O   UNL     1      14.211   1.551  92.834  1.00  0.00     0.000 OA
BRANCH  31  33
HETATM   33  P   UNL     1      12.780   3.099  93.774  1.00  0.00     0.000 P 
HETATM   34  H   UNL     1      11.445   3.194  93.435  1.00  0.00     0.000 HD
BRANCH  33  35
HETATM   35  O   UNL     1      13.227   4.381  94.124  1.00  0.00     0.000 OA
HETATM   36  H   UNL     1      13.953   4.492  93.487  1.00  0.00     0.000 HD
ENDBRANCH  33  35
ENDBRANCH  31  33
ENDBRANCH  26  31
ENDBRANCH  24  26
ENDBRANCH  19  22
ENDBRANCH  15  16
ENDBRANCH  11  14
ENDBRANCH   7   8
ENDBRANCH   2   7
TORSDOF 11
ENDMDL
MODEL 9
REMARK VINA RESULT:      -3.1      1.697      2.198
REMARK  11 active torsions:
REMARK  status: ('A' for Active; 'I' for Inactive)
REMARK    1  A    between atoms: O_2  and  C_18 
REMARK    2  A    between atoms: O_5  and  P_8 
REMARK    3  A    between atoms: N_6  and  C_11 
REMARK    4  A    between atoms: N_7  and  C_15 
REMARK       I    between atoms: N_7  and  C_24 
REMARK    5  A    between atoms: P_8  and  C_23 
REMARK    6  A    between atoms: C_11  and  C_14 
REMARK    7  A    between atoms: C_15  and  C_18 
REMARK    8  A    between atoms: C_15  and  C_23 
REMARK    9  A    between atoms: C_21  and  C_26 
REMARK   10  A    between atoms: C_24  and  C_25 
REMARK   11  A    between atoms: C_29  and  C_32 
ROOT
HETATM    1  O   UNL     1      15.595   3.526  91.087  1.00  0.00     0.000 OA
HETATM    2  N   UNL     1      13.297   2.587  92.479  1.00  0.00     0.000 N 
HETATM    3  C   UNL     1      13.252   3.805  91.658  1.00  0.00     0.000 C 
HETATM    4  C   UNL     1      14.652   2.386  93.010  1.00  0.00     0.000 C 
HETATM    5  C   UNL     1      14.288   3.712  90.540  1.00  0.00     0.000 C 
HETATM    6  C   UNL     1      15.654   2.328  91.861  1.00  0.00     0.000 C 
ENDROOT
BRANCH   2   7
HETATM    7  C   UNL     1      12.319   2.658  93.564  1.00  0.00     0.000 C 
BRANCH   7   8
HETATM    8  C   UNL     1      11.273   3.692  93.319  1.00  0.00     0.000 A 
HETATM    9  C   UNL     1      10.351   3.519  92.286  1.00  0.00     0.000 A 
HETATM   10  C   UNL     1       9.374   4.487  92.055  1.00  0.00     0.000 A 
HETATM   11  C   UNL     1       9.318   5.626  92.858  1.00  0.00     0.000 A 
HETATM   12  C   UNL     1      10.238   5.799  93.890  1.00  0.00     0.000 A 
HETATM   13  C   UNL     1      11.216   4.832  94.121  1.00  0.00     0.000 A 
BRANCH  11  14
HETATM   14  C   UNL     1       8.314   6.617  92.622  1.00  0.00     0.000 C 
HETATM   15  C   UNL     1       7.470   7.450  92.424  1.00  0.00     0.000 C 
BRANCH  15  16
HETATM   16  C   UNL     1       6.466   8.441  92.189  1.00  0.00     0.000 A 
HETATM   17  C   UNL     1       6.062   8.727  90.885  1.00  0.00     0.000 A 
HETATM   18  C   UNL     1       5.081   9.692  90.657  1.00  0.00     0.000 A 
HETATM   19  C   UNL     1       4.527  10.348  91.736  1.00  0.00     0.000 A 
HETATM   20  C   UNL     1       4.910  10.084  93.034  1.00  0.00     0.000 A 
HETATM   21  C   UNL     1       5.891   9.120  93.264  1.00  0.00     0.000 A 
BRANCH  19  22
HETATM   22  C   UNL     1       3.483  11.378  91.492  1.00  0.00     0.000 C 
HETATM   23  O   UNL     1       2.417  11.042  90.982  1.00  0.00     0.000 OA
HETATM   24  N   UNL     1       3.797  12.669  91.893  1.00  0.00     0.000 N 
HETATM   25  HN  UNL     1       4.689  12.867  92.330  1.00  0.00     0.000 HD
BRANCH  24  26
HETATM   26  C   UNL     1       2.881  13.771  91.745  1.00  0.00     0.000 C 
BRANCH  26  27
HETATM   27  C   UNL     1       3.036  14.824  92.850  1.00  0.00     0.000 C 
HETATM   28  C   UNL     1       1.740  15.061  93.617  1.00  0.00     0.000 C 
BRANCH  27  29
HETATM   29  O   UNL     1       4.047  14.407  93.768  1.00  0.00     0.000 OA
HETATM   30  H   UNL     1       3.634  14.272  94.637  1.00  0.00     0.000 HD
ENDBRANCH  27  29
ENDBRANCH  26  27
BRANCH  26  31
HETATM   31  C   UNL     1       3.103  14.380  90.365  1.00  0.00     0.000 C 
HETATM   32  O   UNL     1       2.214  14.462  89.519  1.00  0.00     0.000 OA
BRANCH  31  33
HETATM   33  P   UNL     1       4.403  14.780  90.176  1.00  0.00     0.000 P 
HETATM   34  H   UNL     1       4.384  16.090  89.743  1.00  0.00     0.000 HD
BRANCH  33  35
HETATM   35  O   UNL     1       5.144  14.032  89.250  1.00  0.00     0.000 OA
HETATM   36  H   UNL     1       6.034  14.388  89.411  1.00  0.00     0.000 HD
ENDBRANCH  33  35
ENDBRANCH  31  33
ENDBRANCH  26  31
ENDBRANCH  24  26
ENDBRANCH  19  22
ENDBRANCH  15  16
ENDBRANCH  11  14
ENDBRANCH   7   8
ENDBRANCH   2   7
TORSDOF 11
ENDMDL
