MODEL 1
REMARK VINA RESULT:      -6.9      0.000      0.000
REMARK  11 active torsions:
REMARK  status: ('A' for Active; 'I' for Inactive)
REMARK    1  A    between atoms: O_2  and  C_18 
REMARK    2  A    between atoms: O_5  and  P_8 
REMARK    3  A    between atoms: N_6  and  C_11 
REMARK    4  A    between atoms: N_7  and  C_15 
REMARK       I    between atoms: N_7  and  C_24 
REMARK    5  A    between atoms: P_8  and  C_23 
REMARK    6  A    between atoms: C_11  and  C_14 
REMARK    7  A    between atoms: C_15  and  C_18 
REMARK    8  A    between atoms: C_15  and  C_23 
REMARK    9  A    between atoms: C_21  and  C_26 
REMARK   10  A    between atoms: C_24  and  C_25 
REMARK   11  A    between atoms: C_29  and  C_32 
ROOT
HETATM    1  O   UNL     1      16.095   4.024  94.015  1.00  0.00     0.000 OA
HETATM    2  N   UNL     1      14.254   2.586  92.387  1.00  0.00     0.000 N 
HETATM    3  C   UNL     1      14.393   4.045  92.284  1.00  0.00     0.000 C 
HETATM    4  C   UNL     1      14.584   2.144  93.749  1.00  0.00     0.000 C 
HETATM    5  C   UNL     1      15.807   4.460  92.685  1.00  0.00     0.000 C 
HETATM    6  C   UNL     1      15.992   2.603  94.116  1.00  0.00     0.000 C 
ENDROOT
BRANCH   2   7
HETATM    7  C   UNL     1      12.903   2.167  92.018  1.00  0.00     0.000 C 
BRANCH   7   8
HETATM    8  C   UNL     1      12.011   3.324  91.720  1.00  0.00     0.000 A 
HETATM    9  C   UNL     1      11.833   3.745  90.402  1.00  0.00     0.000 A 
HETATM   10  C   UNL     1      11.001   4.828  90.122  1.00  0.00     0.000 A 
HETATM   11  C   UNL     1      10.346   5.489  91.160  1.00  0.00     0.000 A 
HETATM   12  C   UNL     1      10.523   5.070  92.477  1.00  0.00     0.000 A 
HETATM   13  C   UNL     1      11.356   3.987  92.758  1.00  0.00     0.000 A 
BRANCH  11  14
HETATM   14  C   UNL     1       9.490   6.600  90.873  1.00  0.00     0.000 C 
HETATM   15  C   UNL     1       8.772   7.533  90.631  1.00  0.00     0.000 C 
BRANCH  15  16
HETATM   16  C   UNL     1       7.917   8.642  90.343  1.00  0.00     0.000 A 
HETATM   17  C   UNL     1       6.543   8.445  90.207  1.00  0.00     0.000 A 
HETATM   18  C   UNL     1       5.709   9.528  89.929  1.00  0.00     0.000 A 
HETATM   19  C   UNL     1       6.267  10.782  89.793  1.00  0.00     0.000 A 
HETATM   20  C   UNL     1       7.622  11.002  89.922  1.00  0.00     0.000 A 
HETATM   21  C   UNL     1       8.457   9.920  90.200  1.00  0.00     0.000 A 
BRANCH  19  22
HETATM   22  C   UNL     1       5.378  11.935  89.495  1.00  0.00     0.000 C 
HETATM   23  O   UNL     1       5.290  12.341  88.339  1.00  0.00     0.000 OA
HETATM   24  N   UNL     1       4.680  12.460  90.573  1.00  0.00     0.000 N 
HETATM   25  HN  UNL     1       4.784  12.056  91.497  1.00  0.00     0.000 HD
BRANCH  24  26
HETATM   26  C   UNL     1       3.761  13.562  90.441  1.00  0.00     0.000 C 
BRANCH  26  27
HETATM   27  C   UNL     1       2.423  13.307  91.145  1.00  0.00     0.000 C 
HETATM   28  C   UNL     1       2.470  12.094  92.068  1.00  0.00     0.000 C 
BRANCH  27  29
HETATM   29  O   UNL     1       2.060  14.457  91.910  1.00  0.00     0.000 OA
HETATM   30  H   UNL     1       1.148  14.701  91.679  1.00  0.00     0.000 HD
ENDBRANCH  27  29
ENDBRANCH  26  27
BRANCH  26  31
HETATM   31  C   UNL     1       4.448  14.809  90.988  1.00  0.00     0.000 C 
HETATM   32  O   UNL     1       4.531  15.055  92.190  1.00  0.00     0.000 OA
BRANCH  31  33
HETATM   33  P   UNL     1       4.917  15.625  89.987  1.00  0.00     0.000 P 
HETATM   34  H   UNL     1       4.174  16.788  90.007  1.00  0.00     0.000 HD
BRANCH  33  35
HETATM   35  O   UNL     1       4.854  15.097  88.690  1.00  0.00     0.000 OA
HETATM   36  H   UNL     1       5.801  15.062  88.470  1.00  0.00     0.000 HD
ENDBRANCH  33  35
ENDBRANCH  31  33
ENDBRANCH  26  31
ENDBRANCH  24  26
ENDBRANCH  19  22
ENDBRANCH  15  16
ENDBRANCH  11  14
ENDBRANCH   7   8
ENDBRANCH   2   7
TORSDOF 11
ENDMDL
MODEL 2
REMARK VINA RESULT:      -6.8      0.728      1.585
REMARK  11 active torsions:
REMARK  status: ('A' for Active; 'I' for Inactive)
REMARK    1  A    between atoms: O_2  and  C_18 
REMARK    2  A    between atoms: O_5  and  P_8 
REMARK    3  A    between atoms: N_6  and  C_11 
REMARK    4  A    between atoms: N_7  and  C_15 
REMARK       I    between atoms: N_7  and  C_24 
REMARK    5  A    between atoms: P_8  and  C_23 
REMARK    6  A    between atoms: C_11  and  C_14 
REMARK    7  A    between atoms: C_15  and  C_18 
REMARK    8  A    between atoms: C_15  and  C_23 
REMARK    9  A    between atoms: C_21  and  C_26 
REMARK   10  A    between atoms: C_24  and  C_25 
REMARK   11  A    between atoms: C_29  and  C_32 
ROOT
HETATM    1  O   UNL     1      16.440   3.147  93.706  1.00  0.00     0.000 OA
HETATM    2  N   UNL     1      13.768   2.779  92.796  1.00  0.00     0.000 N 
HETATM    3  C   UNL     1      14.658   1.637  93.047  1.00  0.00     0.000 C 
HETATM    4  C   UNL     1      14.558   3.956  92.408  1.00  0.00     0.000 C 
HETATM    5  C   UNL     1      15.684   2.006  94.116  1.00  0.00     0.000 C 
HETATM    6  C   UNL     1      15.586   4.270  93.490  1.00  0.00     0.000 C 
ENDROOT
BRANCH   2   7
HETATM    7  C   UNL     1      12.783   2.451  91.767  1.00  0.00     0.000 C 
BRANCH   7   8
HETATM    8  C   UNL     1      11.807   3.556  91.542  1.00  0.00     0.000 A 
HETATM    9  C   UNL     1      11.147   4.133  92.628  1.00  0.00     0.000 A 
HETATM   10  C   UNL     1      10.232   5.165  92.419  1.00  0.00     0.000 A 
HETATM   11  C   UNL     1       9.980   5.620  91.125  1.00  0.00     0.000 A 
HETATM   12  C   UNL     1      10.639   5.045  90.041  1.00  0.00     0.000 A 
HETATM   13  C   UNL     1      11.553   4.012  90.249  1.00  0.00     0.000 A 
BRANCH  11  14
HETATM   14  C   UNL     1       9.043   6.680  90.911  1.00  0.00     0.000 C 
HETATM   15  C   UNL     1       8.256   7.571  90.732  1.00  0.00     0.000 C 
BRANCH  15  16
HETATM   16  C   UNL     1       7.320   8.631  90.519  1.00  0.00     0.000 A 
HETATM   17  C   UNL     1       7.550   9.887  91.082  1.00  0.00     0.000 A 
HETATM   18  C   UNL     1       6.638  10.921  90.871  1.00  0.00     0.000 A 
HETATM   19  C   UNL     1       5.519  10.678  90.103  1.00  0.00     0.000 A 
HETATM   20  C   UNL     1       5.269   9.445  89.536  1.00  0.00     0.000 A 
HETATM   21  C   UNL     1       6.180   8.410  89.746  1.00  0.00     0.000 A 
BRANCH  19  22
HETATM   22  C   UNL     1       4.548  11.780  89.880  1.00  0.00     0.000 C 
HETATM   23  O   UNL     1       3.987  11.874  88.791  1.00  0.00     0.000 OA
HETATM   24  N   UNL     1       4.327  12.623  90.960  1.00  0.00     0.000 N 
HETATM   25  HN  UNL     1       4.809  12.469  91.838  1.00  0.00     0.000 HD
BRANCH  24  26
HETATM   26  C   UNL     1       3.397  13.722  90.909  1.00  0.00     0.000 C 
BRANCH  26  27
HETATM   27  C   UNL     1       2.164  13.498  91.793  1.00  0.00     0.000 C 
HETATM   28  C   UNL     1       2.485  12.700  93.051  1.00  0.00     0.000 C 
BRANCH  27  29
HETATM   29  O   UNL     1       1.613  14.759  92.172  1.00  0.00     0.000 OA
HETATM   30  H   UNL     1       1.781  15.393  91.455  1.00  0.00     0.000 HD
ENDBRANCH  27  29
ENDBRANCH  26  27
BRANCH  26  31
HETATM   31  C   UNL     1       4.147  14.987  91.313  1.00  0.00     0.000 C 
HETATM   32  O   UNL     1       4.116  15.449  92.453  1.00  0.00     0.000 OA
BRANCH  31  33
HETATM   33  P   UNL     1       4.817  15.554  90.256  1.00  0.00     0.000 P 
HETATM   34  H   UNL     1       4.189  16.743  89.946  1.00  0.00     0.000 HD
BRANCH  33  35
HETATM   35  O   UNL     1       4.878  14.782  89.088  1.00  0.00     0.000 OA
HETATM   36  H   UNL     1       5.176  15.453  88.451  1.00  0.00     0.000 HD
ENDBRANCH  33  35
ENDBRANCH  31  33
ENDBRANCH  26  31
ENDBRANCH  24  26
ENDBRANCH  19  22
ENDBRANCH  15  16
ENDBRANCH  11  14
ENDBRANCH   7   8
ENDBRANCH   2   7
TORSDOF 11
ENDMDL
MODEL 3
REMARK VINA RESULT:      -4.5      3.574     12.741
REMARK  11 active torsions:
REMARK  status: ('A' for Active; 'I' for Inactive)
REMARK    1  A    between atoms: O_2  and  C_18 
REMARK    2  A    between atoms: O_5  and  P_8 
REMARK    3  A    between atoms: N_6  and  C_11 
REMARK    4  A    between atoms: N_7  and  C_15 
REMARK       I    between atoms: N_7  and  C_24 
REMARK    5  A    between atoms: P_8  and  C_23 
REMARK    6  A    between atoms: C_11  and  C_14 
REMARK    7  A    between atoms: C_15  and  C_18 
REMARK    8  A    between atoms: C_15  and  C_23 
REMARK    9  A    between atoms: C_21  and  C_26 
REMARK   10  A    between atoms: C_24  and  C_25 
REMARK   11  A    between atoms: C_29  and  C_32 
ROOT
HETATM    1  O   UNL     1       3.140  15.260  91.274  1.00  0.00     0.000 OA
HETATM    2  N   UNL     1       3.691  12.661  92.298  1.00  0.00     0.000 N 
HETATM    3  C   UNL     1       2.441  12.956  91.583  1.00  0.00     0.000 C 
HETATM    4  C   UNL     1       4.185  13.872  92.968  1.00  0.00     0.000 C 
HETATM    5  C   UNL     1       2.669  14.096  90.593  1.00  0.00     0.000 C 
HETATM    6  C   UNL     1       4.371  14.990  91.946  1.00  0.00     0.000 C 
ENDROOT
BRANCH   2   7
HETATM    7  C   UNL     1       3.494  11.579  93.260  1.00  0.00     0.000 C 
BRANCH   7   8
HETATM    8  C   UNL     1       4.579  10.559  93.198  1.00  0.00     0.000 A 
HETATM    9  C   UNL     1       4.322   9.244  93.588  1.00  0.00     0.000 A 
HETATM   10  C   UNL     1       5.338   8.289  93.532  1.00  0.00     0.000 A 
HETATM   11  C   UNL     1       6.608   8.650  93.084  1.00  0.00     0.000 A 
HETATM   12  C   UNL     1       6.866   9.962  92.694  1.00  0.00     0.000 A 
HETATM   13  C   UNL     1       5.851  10.917  92.751  1.00  0.00     0.000 A 
BRANCH  11  14
HETATM   14  C   UNL     1       7.649   7.670  93.025  1.00  0.00     0.000 C 
HETATM   15  C   UNL     1       8.525   6.847  92.976  1.00  0.00     0.000 C 
BRANCH  15  16
HETATM   16  C   UNL     1       9.565   5.868  92.918  1.00  0.00     0.000 A 
HETATM   17  C   UNL     1       9.671   5.030  91.808  1.00  0.00     0.000 A 
HETATM   18  C   UNL     1      10.688   4.076  91.750  1.00  0.00     0.000 A 
HETATM   19  C   UNL     1      11.575   3.983  92.802  1.00  0.00     0.000 A 
HETATM   20  C   UNL     1      11.490   4.799  93.910  1.00  0.00     0.000 A 
HETATM   21  C   UNL     1      10.474   5.753  93.969  1.00  0.00     0.000 A 
BRANCH  19  22
HETATM   22  C   UNL     1      12.656   2.966  92.741  1.00  0.00     0.000 C 
HETATM   23  O   UNL     1      12.382   1.819  92.397  1.00  0.00     0.000 OA
HETATM   24  N   UNL     1      13.930   3.413  93.063  1.00  0.00     0.000 N 
HETATM   25  HN  UNL     1      14.085   4.382  93.314  1.00  0.00     0.000 HD
BRANCH  24  26
HETATM   26  C   UNL     1      15.086   2.553  93.027  1.00  0.00     0.000 C 
BRANCH  26  27
HETATM   27  C   UNL     1      15.520   2.201  91.599  1.00  0.00     0.000 C 
HETATM   28  C   UNL     1      15.047   3.228  90.575  1.00  0.00     0.000 C 
BRANCH  27  29
HETATM   29  O   UNL     1      16.943   2.110  91.541  1.00  0.00     0.000 OA
HETATM   30  H   UNL     1      17.302   2.400  92.396  1.00  0.00     0.000 HD
ENDBRANCH  27  29
ENDBRANCH  26  27
BRANCH  26  31
HETATM   31  C   UNL     1      16.207   3.248  93.792  1.00  0.00     0.000 C 
HETATM   32  O   UNL     1      17.245   2.678  94.123  1.00  0.00     0.000 OA
BRANCH  31  33
HETATM   33  P   UNL     1      15.900   4.554  94.091  1.00  0.00     0.000 P 
HETATM   34  H   UNL     1      14.528   4.652  94.194  1.00  0.00     0.000 HD
BRANCH  33  35
HETATM   35  O   UNL     1      16.331   5.510  93.161  1.00  0.00     0.000 OA
HETATM   36  H   UNL     1      17.260   5.610  93.430  1.00  0.00     0.000 HD
ENDBRANCH  33  35
ENDBRANCH  31  33
ENDBRANCH  26  31
ENDBRANCH  24  26
ENDBRANCH  19  22
ENDBRANCH  15  16
ENDBRANCH  11  14
ENDBRANCH   7   8
ENDBRANCH   2   7
TORSDOF 11
ENDMDL
MODEL 4
REMARK VINA RESULT:      -4.1      3.651     12.465
REMARK  11 active torsions:
REMARK  status: ('A' for Active; 'I' for Inactive)
REMARK    1  A    between atoms: O_2  and  C_18 
REMARK    2  A    between atoms: O_5  and  P_8 
REMARK    3  A    between atoms: N_6  and  C_11 
REMARK    4  A    between atoms: N_7  and  C_15 
REMARK       I    between atoms: N_7  and  C_24 
REMARK    5  A    between atoms: P_8  and  C_23 
REMARK    6  A    between atoms: C_11  and  C_14 
REMARK    7  A    between atoms: C_15  and  C_18 
REMARK    8  A    between atoms: C_15  and  C_23 
REMARK    9  A    between atoms: C_21  and  C_26 
REMARK   10  A    between atoms: C_24  and  C_25 
REMARK   11  A    between atoms: C_29  and  C_32 
ROOT
HETATM    1  O   UNL     1       5.426  15.015  89.713  1.00  0.00     0.000 OA
HETATM    2  N   UNL     1       3.345  13.350  90.714  1.00  0.00     0.000 N 
HETATM    3  C   UNL     1       4.124  14.223  91.602  1.00  0.00     0.000 C 
HETATM    4  C   UNL     1       4.161  12.950  89.559  1.00  0.00     0.000 C 
HETATM    5  C   UNL     1       4.630  15.435  90.823  1.00  0.00     0.000 C 
HETATM    6  C   UNL     1       4.667  14.190  88.828  1.00  0.00     0.000 C 
ENDROOT
BRANCH   2   7
HETATM    7  C   UNL     1       2.859  12.176  91.437  1.00  0.00     0.000 C 
BRANCH   7   8
HETATM    8  C   UNL     1       3.933  11.170  91.675  1.00  0.00     0.000 A 
HETATM    9  C   UNL     1       4.124  10.128  90.767  1.00  0.00     0.000 A 
HETATM   10  C   UNL     1       5.127   9.184  90.989  1.00  0.00     0.000 A 
HETATM   11  C   UNL     1       5.940   9.285  92.118  1.00  0.00     0.000 A 
HETATM   12  C   UNL     1       5.751  10.326  93.024  1.00  0.00     0.000 A 
HETATM   13  C   UNL     1       4.747  11.269  92.803  1.00  0.00     0.000 A 
BRANCH  11  14
HETATM   14  C   UNL     1       6.971   8.319  92.344  1.00  0.00     0.000 C 
HETATM   15  C   UNL     1       7.837   7.507  92.535  1.00  0.00     0.000 C 
BRANCH  15  16
HETATM   16  C   UNL     1       8.866   6.541  92.763  1.00  0.00     0.000 A 
HETATM   17  C   UNL     1       9.074   5.515  91.841  1.00  0.00     0.000 A 
HETATM   18  C   UNL     1      10.080   4.575  92.061  1.00  0.00     0.000 A 
HETATM   19  C   UNL     1      10.855   4.681  93.197  1.00  0.00     0.000 A 
HETATM   20  C   UNL     1      10.669   5.686  94.123  1.00  0.00     0.000 A 
HETATM   21  C   UNL     1       9.664   6.627  93.904  1.00  0.00     0.000 A 
BRANCH  19  22
HETATM   22  C   UNL     1      11.926   3.678  93.432  1.00  0.00     0.000 C 
HETATM   23  O   UNL     1      11.614   2.526  93.724  1.00  0.00     0.000 OA
HETATM   24  N   UNL     1      13.229   4.131  93.276  1.00  0.00     0.000 N 
HETATM   25  HN  UNL     1      13.409   5.091  93.009  1.00  0.00     0.000 HD
BRANCH  24  26
HETATM   26  C   UNL     1      14.373   3.272  93.446  1.00  0.00     0.000 C 
BRANCH  26  27
HETATM   27  C   UNL     1      14.560   2.293  92.280  1.00  0.00     0.000 C 
HETATM   28  C   UNL     1      14.674   0.846  92.746  1.00  0.00     0.000 C 
BRANCH  27  29
HETATM   29  O   UNL     1      13.456   2.405  91.382  1.00  0.00     0.000 OA
HETATM   30  H   UNL     1      13.805   2.551  90.487  1.00  0.00     0.000 HD
ENDBRANCH  27  29
ENDBRANCH  26  27
BRANCH  26  31
HETATM   31  C   UNL     1      15.600   4.161  93.625  1.00  0.00     0.000 C 
HETATM   32  O   UNL     1      15.605   5.359  93.346  1.00  0.00     0.000 OA
BRANCH  31  33
HETATM   33  P   UNL     1      16.686   3.460  94.090  1.00  0.00     0.000 P 
HETATM   34  H   UNL     1      17.072   4.024  95.289  1.00  0.00     0.000 HD
BRANCH  33  35
HETATM   35  O   UNL     1      17.805   3.438  93.245  1.00  0.00     0.000 OA
HETATM   36  H   UNL     1      17.549   4.118  92.599  1.00  0.00     0.000 HD
ENDBRANCH  33  35
ENDBRANCH  31  33
ENDBRANCH  26  31
ENDBRANCH  24  26
ENDBRANCH  19  22
ENDBRANCH  15  16
ENDBRANCH  11  14
ENDBRANCH   7   8
ENDBRANCH   2   7
TORSDOF 11
ENDMDL
