MODEL 1
REMARK VINA RESULT:      -6.6      0.000      0.000
REMARK  9 active torsions:
REMARK  status: ('A' for Active; 'I' for Inactive)
REMARK    1  A    between atoms: O_2  and  C_17 
REMARK    2  A    between atoms: N_5  and  C_10 
REMARK    3  A    between atoms: N_6  and  C_14 
REMARK       I    between atoms: N_6  and  C_23 
REMARK       I    between atoms: N_7  and  C_22 
REMARK    4  A    between atoms: C_10  and  C_13 
REMARK    5  A    between atoms: C_14  and  C_17 
REMARK    6  A    between atoms: C_14  and  C_22 
REMARK    7  A    between atoms: C_20  and  C_25 
REMARK    8  A    between atoms: C_23  and  C_24 
REMARK    9  A    between atoms: C_28  and  C_31 
ROOT
HETATM    1  O   UNL     1      16.539   3.210  93.733  1.00  0.00    -0.388 OA
HETATM    2  N   UNL     1      13.866   2.810  92.842  1.00  0.00     0.096 N 
HETATM    3  C   UNL     1      14.781   1.680  93.057  1.00  0.00     0.299 C 
HETATM    4  C   UNL     1      14.627   4.011  92.474  1.00  0.00     0.299 C 
HETATM    5  C   UNL     1      15.811   2.045  94.123  1.00  0.00     0.198 C 
HETATM    6  C   UNL     1      15.660   4.321  93.553  1.00  0.00     0.198 C 
ENDROOT
BRANCH   2   7
HETATM    7  C   UNL     1      12.877   2.486  91.816  1.00  0.00     0.311 C 
BRANCH   7   8
HETATM    8  C   UNL     1      11.842   3.549  91.669  1.00  0.00    -0.030 A 
HETATM    9  C   UNL     1      11.407   4.257  92.790  1.00  0.00     0.010 A 
HETATM   10  C   UNL     1      10.437   5.251  92.654  1.00  0.00     0.021 A 
HETATM   11  C   UNL     1       9.906   5.537  91.397  1.00  0.00     0.018 A 
HETATM   12  C   UNL     1      10.340   4.831  90.277  1.00  0.00     0.021 A 
HETATM   13  C   UNL     1      11.309   3.837  90.412  1.00  0.00     0.010 A 
BRANCH  11  14
HETATM   14  C   UNL     1       8.913   6.558  91.257  1.00  0.00    -0.061 C 
HETATM   15  C   UNL     1       8.079   7.416  91.139  1.00  0.00    -0.061 C 
BRANCH  15  16
HETATM   16  C   UNL     1       7.087   8.436  90.999  1.00  0.00     0.018 A 
HETATM   17  C   UNL     1       7.376   9.746  91.380  1.00  0.00     0.022 A 
HETATM   18  C   UNL     1       6.409  10.741  91.240  1.00  0.00     0.018 A 
HETATM   19  C   UNL     1       5.175  10.404  90.723  1.00  0.00     0.032 A 
HETATM   20  C   UNL     1       4.865   9.117  90.340  1.00  0.00     0.018 A 
HETATM   21  C   UNL     1       5.831   8.120  90.479  1.00  0.00     0.022 A 
BRANCH  19  22
HETATM   22  C   UNL     1       4.145  11.465  90.577  1.00  0.00     0.252 C 
HETATM   23  O   UNL     1       3.120  11.222  89.943  1.00  0.00    -0.268 OA
HETATM   24  N   UNL     1       4.419  12.671  91.206  1.00  0.00    -0.342 N 
HETATM   25  H   UNL     1       5.276  12.791  91.733  1.00  0.00     0.163 HD
BRANCH  24  26
HETATM   26  C   UNL     1       3.508  13.787  91.176  1.00  0.00     0.199 C 
BRANCH  26  27
HETATM   27  C   UNL     1       2.640  13.878  92.437  1.00  0.00     0.145 C 
HETATM   28  C   UNL     1       1.295  13.179  92.272  1.00  0.00     0.042 C 
BRANCH  27  29
HETATM   29  O   UNL     1       3.334  13.292  93.538  1.00  0.00    -0.393 OA
HETATM   30  H   UNL     1       3.502  12.357  93.330  1.00  0.00     0.210 HD
ENDBRANCH  27  29
ENDBRANCH  26  27
BRANCH  26  31
HETATM   31  C   UNL     1       4.331  15.055  90.976  1.00  0.00     0.220 C 
HETATM   32  O   UNL     1       4.643  15.483  89.866  1.00  0.00    -0.278 OA
HETATM   33  N   UNL     1       4.704  15.625  92.169  1.00  0.00    -0.271 NA
HETATM   34  H   UNL     1       4.541  15.252  93.097  1.00  0.00     0.127 HD
HETATM   35  H   UNL     1       5.980  15.666  92.754  1.00  0.00     0.127 HD
ENDBRANCH  26  31
ENDBRANCH  24  26
ENDBRANCH  19  22
ENDBRANCH  15  16
ENDBRANCH  11  14
ENDBRANCH   7   8
ENDBRANCH   2   7
TORSDOF 9
ENDMDL
