MODEL 1
REMARK VINA RESULT:      -6.7      0.000      0.000
REMARK  14 active torsions:
REMARK  status: ('A' for Active; 'I' for Inactive)
REMARK    1  A    between atoms: O_2  and  C_18 
REMARK    2  A    between atoms: C_5  and  C_8 
REMARK    3  A    between atoms: C_5  and  O_35 
REMARK    4  A    between atoms: C_5  and  C_36 
REMARK    5  A    between atoms: N_6  and  C_11 
REMARK    6  A    between atoms: N_7  and  C_15 
REMARK       I    between atoms: N_7  and  C_24 
REMARK    7  A    between atoms: C_8  and  C_23 
REMARK    8  A    between atoms: C_11  and  C_14 
REMARK    9  A    between atoms: C_15  and  C_18 
REMARK   10  A    between atoms: C_15  and  C_23 
REMARK   11  A    between atoms: C_21  and  C_26 
REMARK   12  A    between atoms: C_24  and  C_25 
REMARK   13  A    between atoms: C_29  and  C_32 
REMARK   14  A    between atoms: C_36  and  O_39 
ROOT
HETATM    1  O   UNL     1      15.646   4.569  93.749  1.00  0.00    -0.350 OA
HETATM    2  N   UNL     1      14.093   2.681  92.292  1.00  0.00     0.147 N 
HETATM    3  C   UNL     1      14.133   4.099  91.911  1.00  0.00     0.283 C 
HETATM    4  C   UNL     1      14.315   2.541  93.738  1.00  0.00     0.283 C 
HETATM    5  C   UNL     1      15.463   4.713  92.339  1.00  0.00     0.178 C 
HETATM    6  C   UNL     1      15.640   3.191  94.124  1.00  0.00     0.178 C 
ENDROOT
BRANCH   2   7
HETATM    7  C   UNL     1      12.821   2.075  91.901  1.00  0.00     0.277 C 
BRANCH   7   8
HETATM    8  C   UNL     1      11.720   3.076  91.808  1.00  0.00     0.011 A 
HETATM    9  C   UNL     1      11.320   3.778  92.946  1.00  0.00    -0.002 A 
HETATM   10  C   UNL     1      10.289   4.713  92.861  1.00  0.00     0.008 A 
HETATM   11  C   UNL     1       9.659   4.946  91.639  1.00  0.00     0.042 A 
HETATM   12  C   UNL     1      10.058   4.245  90.502  1.00  0.00     0.008 A 
HETATM   13  C   UNL     1      11.089   3.310  90.587  1.00  0.00    -0.002 A 
BRANCH  11  14
HETATM   14  C   UNL     1       8.602   5.907  91.551  1.00  0.00    -0.059 C 
HETATM   15  C   UNL     1       7.714   6.714  91.477  1.00  0.00    -0.059 C 
BRANCH  15  16
HETATM   16  C   UNL     1       6.658   7.673  91.390  1.00  0.00     0.042 A 
HETATM   17  C   UNL     1       5.587   7.453  90.523  1.00  0.00     0.008 A 
HETATM   18  C   UNL     1       4.555   8.387  90.439  1.00  0.00     0.005 A 
HETATM   19  C   UNL     1       4.616   9.520  91.224  1.00  0.00     0.056 A 
HETATM   20  C   UNL     1       5.664   9.761  92.088  1.00  0.00     0.005 A 
HETATM   21  C   UNL     1       6.697   8.827  92.172  1.00  0.00     0.008 A 
BRANCH  19  22
HETATM   22  C   UNL     1       3.518  10.516  91.133  1.00  0.00     0.254 C 
HETATM   23  O   UNL     1       2.528  10.257  90.454  1.00  0.00    -0.268 OA
HETATM   24  N   UNL     1       3.693  11.683  91.865  1.00  0.00    -0.335 N 
HETATM   25  HN  UNL     1       4.527  11.817  92.424  1.00  0.00     0.164 HD
BRANCH  24  26
HETATM   26  C   UNL     1       2.707  12.733  91.898  1.00  0.00     0.169 C 
BRANCH  26  27
HETATM   27  C   UNL     1       2.705  13.503  93.225  1.00  0.00     0.138 C 
HETATM   28  C   UNL     1       4.070  13.501  93.903  1.00  0.00     0.034 C 
BRANCH  27  29
HETATM   29  O   UNL     1       2.306  14.854  92.992  1.00  0.00    -0.383 OA
HETATM   30  H   UNL     1       2.056  15.249  93.844  1.00  0.00     0.210 HD
ENDBRANCH  27  29
ENDBRANCH  26  27
BRANCH  26  31
HETATM   31  C   UNL     1       2.975  13.661  90.718  1.00  0.00     0.194 C 
HETATM   32  O   UNL     1       2.092  14.319  90.170  1.00  0.00    -0.289 OA
BRANCH  31  33
HETATM   33  C   UNL     1       4.292  13.639  90.329  1.00  0.00     0.053 C 
BRANCH  33  34
HETATM   34  C   UNL     1       4.546  14.045  89.011  1.00  0.00     0.220 C 
BRANCH  34  35
HETATM   35  O   UNL     1       5.511  14.832  89.035  1.00  0.00    -0.371 OA
HETATM   36  H   UNL     1       5.821  14.688  88.154  1.00  0.00     0.211 HD
ENDBRANCH  34  35
BRANCH  34  37
HETATM   37  C   UNL     1       4.752  12.974  88.125  1.00  0.00     0.185 C 
HETATM   38  O   UNL     1       6.023  13.323  88.252  1.00  0.00    -0.647 OA
BRANCH  37  39
HETATM   39  O   UNL     1       4.076  12.189  87.531  1.00  0.00    -0.774 OA
HETATM   40  H   UNL     1       3.508  11.507  88.237  1.00  0.00     0.167 HD
ENDBRANCH  37  39
ENDBRANCH  34  37
ENDBRANCH  33  34
ENDBRANCH  31  33
ENDBRANCH  26  31
ENDBRANCH  24  26
ENDBRANCH  19  22
ENDBRANCH  15  16
ENDBRANCH  11  14
ENDBRANCH   7   8
ENDBRANCH   2   7
TORSDOF 14
ENDMDL
