MODEL 1
REMARK VINA RESULT:      -7.1      0.000      0.000
REMARK  10 active torsions:
REMARK  status: ('A' for Active; 'I' for Inactive)
REMARK    1  A    between atoms: O_2  and  C_18 
REMARK    2  A    between atoms: O_5  and  N_8 
REMARK    3  A    between atoms: N_6  and  C_11 
REMARK    4  A    between atoms: N_7  and  C_15 
REMARK       I    between atoms: N_7  and  C_24 
REMARK       I    between atoms: N_8  and  C_23 
REMARK    5  A    between atoms: C_11  and  C_14 
REMARK    6  A    between atoms: C_15  and  C_18 
REMARK    7  A    between atoms: C_15  and  C_23 
REMARK    8  A    between atoms: C_21  and  C_26 
REMARK    9  A    between atoms: C_24  and  C_25 
REMARK   10  A    between atoms: C_29  and  C_32 
ROOT
HETATM    1  O   UNK     0      16.585   4.334  94.124  0.00  0.00    -0.388 OA
HETATM    2  N   UNK     0      14.741   2.620  92.795  0.00  0.00     0.096 N 
HETATM    3  C   UNK     0      14.564   4.079  92.805  0.00  0.00     0.299 C 
HETATM    4  C   UNK     0      15.452   2.192  94.007  0.00  0.00     0.299 C 
HETATM    5  C   UNK     0      15.922   4.764  92.933  0.00  0.00     0.198 C 
HETATM    6  C   UNK     0      16.789   2.921  94.108  0.00  0.00     0.198 C 
ENDROOT
BRANCH   2   7
HETATM    7  C   UNK     0      13.451   1.943  92.683  0.00  0.00     0.311 C 
BRANCH   7   8
HETATM    8  C   UNK     0      12.339   2.886  92.370  0.00  0.00    -0.030 A 
HETATM    9  C   UNK     0      11.922   3.813  93.326  0.00  0.00     0.010 A 
HETATM   10  C   UNK     0      10.881   4.694  93.034  0.00  0.00     0.021 A 
HETATM   11  C   UNK     0      10.260   4.650  91.787  0.00  0.00     0.018 A 
HETATM   12  C   UNK     0      10.676   3.725  90.831  0.00  0.00     0.021 A 
HETATM   13  C   UNK     0      11.716   2.842  91.123  0.00  0.00     0.010 A 
BRANCH  11  14
HETATM   14  C   UNK     0       9.193   5.555  91.487  0.00  0.00    -0.061 C 
HETATM   15  C   UNK     0       8.297   6.316  91.236  0.00  0.00    -0.061 C 
BRANCH  15  16
HETATM   16  C   UNK     0       7.231   7.220  90.937  0.00  0.00     0.018 A 
HETATM   17  C   UNK     0       5.988   6.724  90.541  0.00  0.00     0.022 A 
HETATM   18  C   UNK     0       4.947   7.606  90.251  0.00  0.00     0.018 A 
HETATM   19  C   UNK     0       5.170   8.962  90.364  0.00  0.00     0.032 A 
HETATM   20  C   UNK     0       6.389   9.477  90.752  0.00  0.00     0.018 A 
HETATM   21  C   UNK     0       7.431   8.596  91.042  0.00  0.00     0.022 A 
BRANCH  19  22
HETATM   22  C   UNK     0       4.061   9.900  90.053  0.00  0.00     0.252 C 
HETATM   23  O   UNK     0       2.961   9.448  89.747  0.00  0.00    -0.268 OA
HETATM   24  N   UNK     0       4.360  11.252  90.160  0.00  0.00    -0.341 N 
HETATM   25  H   UNK     0       5.286  11.551  90.443  0.00  0.00     0.163 HD
BRANCH  24  26
HETATM   26  C   UNK     0       3.385  12.283  89.914  0.00  0.00     0.207 C 
BRANCH  26  27
HETATM   27  C   UNK     0       2.921  12.979  91.200  0.00  0.00     0.146 C 
HETATM   28  C   UNK     0       2.086  12.065  92.090  0.00  0.00     0.042 C 
BRANCH  27  29
HETATM   29  O   UNK     0       4.058  13.430  91.936  0.00  0.00    -0.393 OA
HETATM   30  H   UNK     0       3.911  14.358  92.186  0.00  0.00     0.210 HD
ENDBRANCH  27  29
ENDBRANCH  26  27
BRANCH  26  31
HETATM   31  C   UNK     0       3.997  13.279  88.935  0.00  0.00     0.266 C 
HETATM   32  O   UNK     0       4.150  14.470  89.199  0.00  0.00    -0.269 OA
HETATM   33  N   UNK     0       4.311  12.697  87.731  0.00  0.00    -0.236 N 
HETATM   34  H   UNK     0       4.117  11.743  87.449  0.00  0.00     0.197 HD
BRANCH  33  35
HETATM   35  O   UNK     0       4.845  13.554  86.759  0.00  0.00    -0.287 OA
HETATM   36  H   UNK     0       4.074  13.657  86.175  0.00  0.00     0.244 HD
ENDBRANCH  33  35
ENDBRANCH  26  31
ENDBRANCH  24  26
ENDBRANCH  19  22
ENDBRANCH  15  16
ENDBRANCH  11  14
ENDBRANCH   7   8
ENDBRANCH   2   7
TORSDOF 10
ENDMDL
