MODEL 1
REMARK VINA RESULT:      -7.6      0.000      0.000
REMARK  9 active torsions:
REMARK  status: ('A' for Active; 'I' for Inactive)
REMARK    1  A    between atoms: N_3  and  C_6 
REMARK    2  A    between atoms: C_6  and  C_9 
REMARK    3  A    between atoms: C_14  and  C_17 
REMARK       I    between atoms: N_26  and  C_15 
REMARK    4  A    between atoms: C_15  and  C_16 
REMARK    5  A    between atoms: C_20  and  C_23 
REMARK    6  A    between atoms: OG1_24  and  CB_28 
REMARK    7  A    between atoms: N_26  and  CA_27 
REMARK    8  A    between atoms: CA_27  and  CB_28 
REMARK    9  A    between atoms: CA_27  and  C_30 
ROOT
HETATM    1  O   UNK A   0       1.911   8.078  87.827  1.00  0.00    -0.388 OA
HETATM    2  N   UNK A   0       4.703   7.545  87.673  1.00  0.00     0.096 N 
HETATM    3  C   UNK A   0       4.187   8.918  87.763  1.00  0.00     0.299 C 
HETATM    4  C   UNK A   0       3.718   6.680  87.010  1.00  0.00     0.299 C 
HETATM    5  C   UNK A   0       2.849   8.920  88.499  1.00  0.00     0.198 C 
HETATM    6  C   UNK A   0       2.392   6.734  87.762  1.00  0.00     0.198 C 
ENDROOT
BRANCH   2   7
HETATM    7  C   UNK A   0       5.980   7.518  86.962  1.00  0.00     0.311 C 
BRANCH   7   8
HETATM    8  C   UNK A   0       7.074   6.921  87.781  1.00  0.00    -0.030 A 
HETATM    9  C   UNK A   0       8.311   6.646  87.197  1.00  0.00     0.010 A 
HETATM   10  C   UNK A   0       9.334   6.085  87.961  1.00  0.00     0.021 A 
HETATM   11  C   UNK A   0       9.120   5.803  89.310  1.00  0.00     0.018 A 
HETATM   12  C   UNK A   0       7.885   6.078  89.895  1.00  0.00     0.021 A 
HETATM   13  C   UNK A   0       6.862   6.638  89.130  1.00  0.00     0.010 A 
BRANCH  11  14
HETATM   14  C   UNK A   0      10.170   5.230  90.095  1.00  0.00    -0.061 C 
HETATM   15  C   UNK A   0      11.053   4.747  90.754  1.00  0.00    -0.061 C 
BRANCH  15  16
HETATM   16  C   UNK A   0      12.103   4.175  91.537  1.00  0.00     0.018 A 
HETATM   17  C   UNK A   0      13.371   4.003  90.982  1.00  0.00     0.022 A 
HETATM   18  C   UNK A   0      14.396   3.446  91.748  1.00  0.00     0.018 A 
HETATM   19  C   UNK A   0      14.130   3.076  93.049  1.00  0.00     0.032 A 
HETATM   20  C   UNK A   0      12.885   3.236  93.621  1.00  0.00     0.018 A 
HETATM   21  C   UNK A   0      11.859   3.792  92.856  1.00  0.00     0.022 A 
BRANCH  19  22
HETATM   22  C   UNK A   0      15.222   2.482  93.864  1.00  0.00     0.252 C 
HETATM   23  O   UNK A   0      16.386   2.795  93.626  1.00  0.00    -0.268 OA
ENDBRANCH  19  22
ENDBRANCH  15  16
ENDBRANCH  11  14
ENDBRANCH   7   8
ENDBRANCH   2   7
TORSDOF 9
ENDMDL
MODEL 2
REMARK VINA RESULT:      -7.5      0.108      1.428
REMARK  9 active torsions:
REMARK  status: ('A' for Active; 'I' for Inactive)
REMARK    1  A    between atoms: N_3  and  C_6 
REMARK    2  A    between atoms: C_6  and  C_9 
REMARK    3  A    between atoms: C_14  and  C_17 
REMARK       I    between atoms: N_26  and  C_15 
REMARK    4  A    between atoms: C_15  and  C_16 
REMARK    5  A    between atoms: C_20  and  C_23 
REMARK    6  A    between atoms: OG1_24  and  CB_28 
REMARK    7  A    between atoms: N_26  and  CA_27 
REMARK    8  A    between atoms: CA_27  and  CB_28 
REMARK    9  A    between atoms: CA_27  and  C_30 
ROOT
HETATM    1  O   UNK A   0       1.937   8.289  87.855  1.00  0.00    -0.388 OA
HETATM    2  N   UNK A   0       4.705   7.653  87.670  1.00  0.00     0.096 N 
HETATM    3  C   UNK A   0       4.242   9.044  87.772  1.00  0.00     0.299 C 
HETATM    4  C   UNK A   0       3.681   6.829  87.014  1.00  0.00     0.299 C 
HETATM    5  C   UNK A   0       2.913   9.093  88.521  1.00  0.00     0.198 C 
HETATM    6  C   UNK A   0       2.366   6.929  87.779  1.00  0.00     0.198 C 
ENDROOT
BRANCH   2   7
HETATM    7  C   UNK A   0       5.973   7.581  86.946  1.00  0.00     0.311 C 
BRANCH   7   8
HETATM    8  C   UNK A   0       7.062   6.976  87.766  1.00  0.00    -0.030 A 
HETATM    9  C   UNK A   0       6.863   6.747  89.128  1.00  0.00     0.010 A 
HETATM   10  C   UNK A   0       7.881   6.182  89.896  1.00  0.00     0.021 A 
HETATM   11  C   UNK A   0       9.097   5.846  89.301  1.00  0.00     0.018 A 
HETATM   12  C   UNK A   0       9.296   6.074  87.941  1.00  0.00     0.021 A 
HETATM   13  C   UNK A   0       8.278   6.639  87.173  1.00  0.00     0.010 A 
BRANCH  11  14
HETATM   14  C   UNK A   0      10.140   5.265  90.089  1.00  0.00    -0.061 C 
HETATM   15  C   UNK A   0      11.017   4.777  90.751  1.00  0.00    -0.061 C 
BRANCH  15  16
HETATM   16  C   UNK A   0      12.060   4.196  91.539  1.00  0.00     0.018 A 
HETATM   17  C   UNK A   0      11.811   3.829  92.861  1.00  0.00     0.022 A 
HETATM   18  C   UNK A   0      12.827   3.259  93.628  1.00  0.00     0.018 A 
HETATM   19  C   UNK A   0      14.068   3.070  93.056  1.00  0.00     0.032 A 
HETATM   20  C   UNK A   0      14.339   3.425  91.752  1.00  0.00     0.018 A 
HETATM   21  C   UNK A   0      13.323   3.994  90.983  1.00  0.00     0.022 A 
BRANCH  19  22
HETATM   22  C   UNK A   0      15.150   2.465  93.875  1.00  0.00     0.252 C 
HETATM   23  O   UNK A   0      16.300   2.879  93.748  1.00  0.00    -0.268 OA
ENDBRANCH  19  22
ENDBRANCH  15  16
ENDBRANCH  11  14
ENDBRANCH   7   8
ENDBRANCH   2   7
TORSDOF 9
ENDMDL
MODEL 3
REMARK VINA RESULT:      -7.5      0.215      1.029
REMARK  9 active torsions:
REMARK  status: ('A' for Active; 'I' for Inactive)
REMARK    1  A    between atoms: N_3  and  C_6 
REMARK    2  A    between atoms: C_6  and  C_9 
REMARK    3  A    between atoms: C_14  and  C_17 
REMARK       I    between atoms: N_26  and  C_15 
REMARK    4  A    between atoms: C_15  and  C_16 
REMARK    5  A    between atoms: C_20  and  C_23 
REMARK    6  A    between atoms: OG1_24  and  CB_28 
REMARK    7  A    between atoms: N_26  and  CA_27 
REMARK    8  A    between atoms: CA_27  and  CB_28 
REMARK    9  A    between atoms: CA_27  and  C_30 
ROOT
HETATM    1  O   UNK A   0       1.722   7.942  88.015  1.00  0.00    -0.388 OA
HETATM    2  N   UNK A   0       4.520   7.473  87.789  1.00  0.00     0.096 N 
HETATM    3  C   UNK A   0       3.978   8.832  87.920  1.00  0.00     0.299 C 
HETATM    4  C   UNK A   0       3.538   6.601  87.129  1.00  0.00     0.299 C 
HETATM    5  C   UNK A   0       2.657   8.790  88.685  1.00  0.00     0.198 C 
HETATM    6  C   UNK A   0       2.229   6.611  87.910  1.00  0.00     0.198 C 
ENDROOT
BRANCH   2   7
HETATM    7  C   UNK A   0       5.781   7.488  87.050  1.00  0.00     0.311 C 
BRANCH   7   8
HETATM    8  C   UNK A   0       6.908   6.909  87.836  1.00  0.00    -0.030 A 
HETATM    9  C   UNK A   0       6.710   6.541  89.168  1.00  0.00     0.010 A 
HETATM   10  C   UNK A   0       7.764   6.001  89.905  1.00  0.00     0.021 A 
HETATM   11  C   UNK A   0       9.013   5.829  89.311  1.00  0.00     0.018 A 
HETATM   12  C   UNK A   0       9.212   6.197  87.982  1.00  0.00     0.021 A 
HETATM   13  C   UNK A   0       8.158   6.737  87.244  1.00  0.00     0.010 A 
BRANCH  11  14
HETATM   14  C   UNK A   0      10.094   5.274  90.067  1.00  0.00    -0.061 C 
HETATM   15  C   UNK A   0      11.002   4.806  90.702  1.00  0.00    -0.061 C 
BRANCH  15  16
HETATM   16  C   UNK A   0      12.082   4.252  91.457  1.00  0.00     0.018 A 
HETATM   17  C   UNK A   0      13.311   4.015  90.842  1.00  0.00     0.022 A 
HETATM   18  C   UNK A   0      14.366   3.476  91.580  1.00  0.00     0.018 A 
HETATM   19  C   UNK A   0      14.167   3.188  92.914  1.00  0.00     0.032 A 
HETATM   20  C   UNK A   0      12.961   3.412  93.544  1.00  0.00     0.018 A 
HETATM   21  C   UNK A   0      11.906   3.951  92.808  1.00  0.00     0.022 A 
BRANCH  19  22
HETATM   22  C   UNK A   0      15.290   2.612  93.698  1.00  0.00     0.252 C 
HETATM   23  O   UNK A   0      16.357   3.219  93.753  1.00  0.00    -0.268 OA
ENDBRANCH  19  22
ENDBRANCH  15  16
ENDBRANCH  11  14
ENDBRANCH   7   8
ENDBRANCH   2   7
TORSDOF 9
ENDMDL
MODEL 4
REMARK VINA RESULT:      -6.9      1.360      1.672
REMARK  9 active torsions:
REMARK  status: ('A' for Active; 'I' for Inactive)
REMARK    1  A    between atoms: N_3  and  C_6 
REMARK    2  A    between atoms: C_6  and  C_9 
REMARK    3  A    between atoms: C_14  and  C_17 
REMARK       I    between atoms: N_26  and  C_15 
REMARK    4  A    between atoms: C_15  and  C_16 
REMARK    5  A    between atoms: C_20  and  C_23 
REMARK    6  A    between atoms: OG1_24  and  CB_28 
REMARK    7  A    between atoms: N_26  and  CA_27 
REMARK    8  A    between atoms: CA_27  and  CB_28 
REMARK    9  A    between atoms: CA_27  and  C_30 
ROOT
HETATM    1  O   UNK A   0       4.670  11.052  88.646  1.00  0.00    -0.388 OA
HETATM    2  N   UNK A   0       5.207   8.258  88.590  1.00  0.00     0.096 N 
HETATM    3  C   UNK A   0       6.276   9.241  88.816  1.00  0.00     0.299 C 
HETATM    4  C   UNK A   0       4.141   8.852  87.772  1.00  0.00     0.299 C 
HETATM    5  C   UNK A   0       5.696  10.493  89.468  1.00  0.00     0.198 C 
HETATM    6  C   UNK A   0       3.612  10.114  88.447  1.00  0.00     0.198 C 
ENDROOT
BRANCH   2   7
HETATM    7  C   UNK A   0       5.738   7.052  87.955  1.00  0.00     0.311 C 
BRANCH   7   8
HETATM    8  C   UNK A   0       6.923   6.506  88.676  1.00  0.00    -0.030 A 
HETATM    9  C   UNK A   0       8.187   6.573  88.090  1.00  0.00     0.010 A 
HETATM   10  C   UNK A   0       9.296   6.061  88.763  1.00  0.00     0.021 A 
HETATM   11  C   UNK A   0       9.140   5.482  90.022  1.00  0.00     0.018 A 
HETATM   12  C   UNK A   0       7.878   5.415  90.609  1.00  0.00     0.021 A 
HETATM   13  C   UNK A   0       6.769   5.927  89.936  1.00  0.00     0.010 A 
BRANCH  11  14
HETATM   14  C   UNK A   0      10.278   4.958  90.713  1.00  0.00    -0.061 C 
HETATM   15  C   UNK A   0      11.234   4.517  91.293  1.00  0.00    -0.061 C 
BRANCH  15  16
HETATM   16  C   UNK A   0      12.372   3.993  91.983  1.00  0.00     0.018 A 
HETATM   17  C   UNK A   0      13.572   3.799  91.299  1.00  0.00     0.022 A 
HETATM   18  C   UNK A   0      14.683   3.290  91.972  1.00  0.00     0.018 A 
HETATM   19  C   UNK A   0      14.569   2.988  93.313  1.00  0.00     0.032 A 
HETATM   20  C   UNK A   0      13.393   3.171  94.011  1.00  0.00     0.018 A 
HETATM   21  C   UNK A   0      12.282   3.679  93.339  1.00  0.00     0.022 A 
BRANCH  19  22
HETATM   22  C   UNK A   0      15.751   2.444  94.030  1.00  0.00     0.252 C 
HETATM   23  O   UNK A   0      16.876   2.794  93.682  1.00  0.00    -0.268 OA
ENDBRANCH  19  22
ENDBRANCH  15  16
ENDBRANCH  11  14
ENDBRANCH   7   8
ENDBRANCH   2   7
TORSDOF 9
ENDMDL
MODEL 5
REMARK VINA RESULT:      -6.9      1.549      1.903
REMARK  9 active torsions:
REMARK  status: ('A' for Active; 'I' for Inactive)
REMARK    1  A    between atoms: N_3  and  C_6 
REMARK    2  A    between atoms: C_6  and  C_9 
REMARK    3  A    between atoms: C_14  and  C_17 
REMARK       I    between atoms: N_26  and  C_15 
REMARK    4  A    between atoms: C_15  and  C_16 
REMARK    5  A    between atoms: C_20  and  C_23 
REMARK    6  A    between atoms: OG1_24  and  CB_28 
REMARK    7  A    between atoms: N_26  and  CA_27 
REMARK    8  A    between atoms: CA_27  and  CB_28 
REMARK    9  A    between atoms: CA_27  and  C_30 
ROOT
HETATM    1  O   UNK A   0       2.700  11.147  89.684  1.00  0.00    -0.388 OA
HETATM    2  N   UNK A   0       4.597   9.258  88.713  1.00  0.00     0.096 N 
HETATM    3  C   UNK A   0       3.816  10.102  87.798  1.00  0.00     0.299 C 
HETATM    4  C   UNK A   0       3.838   9.021  89.949  1.00  0.00     0.299 C 
HETATM    5  C   UNK A   0       3.443  11.410  88.492  1.00  0.00     0.198 C 
HETATM    6  C   UNK A   0       3.464  10.352  90.592  1.00  0.00     0.198 C 
ENDROOT
BRANCH   2   7
HETATM    7  C   UNK A   0       4.956   7.995  88.073  1.00  0.00     0.311 C 
BRANCH   7   8
HETATM    8  C   UNK A   0       6.159   7.367  88.690  1.00  0.00    -0.030 A 
HETATM    9  C   UNK A   0       7.410   7.967  88.544  1.00  0.00     0.010 A 
HETATM   10  C   UNK A   0       8.537   7.379  89.119  1.00  0.00     0.021 A 
HETATM   11  C   UNK A   0       8.411   6.193  89.842  1.00  0.00     0.018 A 
HETATM   12  C   UNK A   0       7.162   5.593  89.989  1.00  0.00     0.021 A 
HETATM   13  C   UNK A   0       6.035   6.180  89.413  1.00  0.00     0.010 A 
BRANCH  11  14
HETATM   14  C   UNK A   0       9.566   5.591  90.434  1.00  0.00    -0.061 C 
HETATM   15  C   UNK A   0      10.537   5.086  90.931  1.00  0.00    -0.061 C 
BRANCH  15  16
HETATM   16  C   UNK A   0      11.692   4.486  91.522  1.00  0.00     0.018 A 
HETATM   17  C   UNK A   0      12.838   4.276  90.755  1.00  0.00     0.022 A 
HETATM   18  C   UNK A   0      13.966   3.692  91.333  1.00  0.00     0.018 A 
HETATM   19  C   UNK A   0      13.923   3.334  92.664  1.00  0.00     0.032 A 
HETATM   20  C   UNK A   0      12.802   3.530  93.443  1.00  0.00     0.018 A 
HETATM   21  C   UNK A   0      11.674   4.113  92.866  1.00  0.00     0.022 A 
BRANCH  19  22
HETATM   22  C   UNK A   0      15.124   2.710  93.278  1.00  0.00     0.252 C 
HETATM   23  O   UNK A   0      14.977   1.825  94.118  1.00  0.00    -0.268 OA
ENDBRANCH  19  22
ENDBRANCH  15  16
ENDBRANCH  11  14
ENDBRANCH   7   8
ENDBRANCH   2   7
TORSDOF 9
ENDMDL
MODEL 6
REMARK VINA RESULT:      -6.6      3.938     10.427
REMARK  9 active torsions:
REMARK  status: ('A' for Active; 'I' for Inactive)
REMARK    1  A    between atoms: N_3  and  C_6 
REMARK    2  A    between atoms: C_6  and  C_9 
REMARK    3  A    between atoms: C_14  and  C_17 
REMARK       I    between atoms: N_26  and  C_15 
REMARK    4  A    between atoms: C_15  and  C_16 
REMARK    5  A    between atoms: C_20  and  C_23 
REMARK    6  A    between atoms: OG1_24  and  CB_28 
REMARK    7  A    between atoms: N_26  and  CA_27 
REMARK    8  A    between atoms: CA_27  and  CB_28 
REMARK    9  A    between atoms: CA_27  and  C_30 
ROOT
HETATM    1  O   UNK A   0      14.568   3.334  92.098  1.00  0.00    -0.388 OA
HETATM    2  N   UNK A   0      11.853   4.170  92.278  1.00  0.00     0.096 N 
HETATM    3  C   UNK A   0      12.470   3.334  93.318  1.00  0.00     0.299 C 
HETATM    4  C   UNK A   0      12.494   3.915  90.981  1.00  0.00     0.299 C 
HETATM    5  C   UNK A   0      13.972   3.598  93.370  1.00  0.00     0.198 C 
HETATM    6  C   UNK A   0      13.995   4.165  91.088  1.00  0.00     0.198 C 
ENDROOT
BRANCH   2   7
HETATM    7  C   UNK A   0      10.414   3.925  92.204  1.00  0.00     0.311 C 
BRANCH   7   8
HETATM    8  C   UNK A   0       9.640   5.166  91.917  1.00  0.00    -0.030 A 
HETATM    9  C   UNK A   0       9.830   6.303  92.705  1.00  0.00     0.010 A 
HETATM   10  C   UNK A   0       9.106   7.464  92.439  1.00  0.00     0.021 A 
HETATM   11  C   UNK A   0       8.193   7.490  91.385  1.00  0.00     0.018 A 
HETATM   12  C   UNK A   0       8.002   6.356  90.598  1.00  0.00     0.021 A 
HETATM   13  C   UNK A   0       8.726   5.194  90.864  1.00  0.00     0.010 A 
BRANCH  11  14
HETATM   14  C   UNK A   0       7.451   8.682  91.112  1.00  0.00    -0.061 C 
HETATM   15  C   UNK A   0       6.827   9.684  90.882  1.00  0.00    -0.061 C 
BRANCH  15  16
HETATM   16  C   UNK A   0       6.086  10.876  90.610  1.00  0.00     0.018 A 
HETATM   17  C   UNK A   0       6.210  11.505  89.371  1.00  0.00     0.022 A 
HETATM   18  C   UNK A   0       5.484  12.666  89.105  1.00  0.00     0.018 A 
HETATM   19  C   UNK A   0       4.652  13.172  90.081  1.00  0.00     0.032 A 
HETATM   20  C   UNK A   0       4.513  12.568  91.314  1.00  0.00     0.018 A 
HETATM   21  C   UNK A   0       5.238  11.407  91.582  1.00  0.00     0.022 A 
BRANCH  19  22
HETATM   22  C   UNK A   0       3.881  14.410  89.798  1.00  0.00     0.252 C 
HETATM   23  O   UNK A   0       4.471  15.486  89.750  1.00  0.00    -0.268 OA
ENDBRANCH  19  22
ENDBRANCH  15  16
ENDBRANCH  11  14
ENDBRANCH   7   8
ENDBRANCH   2   7
TORSDOF 9
ENDMDL
MODEL 7
REMARK VINA RESULT:      -6.6      1.129      1.772
REMARK  9 active torsions:
REMARK  status: ('A' for Active; 'I' for Inactive)
REMARK    1  A    between atoms: N_3  and  C_6 
REMARK    2  A    between atoms: C_6  and  C_9 
REMARK    3  A    between atoms: C_14  and  C_17 
REMARK       I    between atoms: N_26  and  C_15 
REMARK    4  A    between atoms: C_15  and  C_16 
REMARK    5  A    between atoms: C_20  and  C_23 
REMARK    6  A    between atoms: OG1_24  and  CB_28 
REMARK    7  A    between atoms: N_26  and  CA_27 
REMARK    8  A    between atoms: CA_27  and  CB_28 
REMARK    9  A    between atoms: CA_27  and  C_30 
ROOT
HETATM    1  O   UNK A   0       1.400   8.071  88.614  1.00  0.00    -0.388 OA
HETATM    2  N   UNK A   0       4.236   8.175  88.832  1.00  0.00     0.096 N 
HETATM    3  C   UNK A   0       3.369   8.982  89.702  1.00  0.00     0.299 C 
HETATM    4  C   UNK A   0       3.572   7.935  87.543  1.00  0.00     0.299 C 
HETATM    5  C   UNK A   0       2.024   8.282  89.882  1.00  0.00     0.198 C 
HETATM    6  C   UNK A   0       2.223   7.262  87.773  1.00  0.00     0.198 C 
ENDROOT
BRANCH   2   7
HETATM    7  C   UNK A   0       5.528   8.832  88.636  1.00  0.00     0.311 C 
BRANCH   7   8
HETATM    8  C   UNK A   0       6.655   8.052  89.220  1.00  0.00    -0.030 A 
HETATM    9  C   UNK A   0       7.596   8.687  90.032  1.00  0.00     0.010 A 
HETATM   10  C   UNK A   0       8.653   7.959  90.577  1.00  0.00     0.021 A 
HETATM   11  C   UNK A   0       8.767   6.594  90.312  1.00  0.00     0.018 A 
HETATM   12  C   UNK A   0       7.829   5.958  89.503  1.00  0.00     0.021 A 
HETATM   13  C   UNK A   0       6.772   6.687  88.956  1.00  0.00     0.010 A 
BRANCH  11  14
HETATM   14  C   UNK A   0       9.850   5.847  90.873  1.00  0.00    -0.061 C 
HETATM   15  C   UNK A   0      10.760   5.218  91.346  1.00  0.00    -0.061 C 
BRANCH  15  16
HETATM   16  C   UNK A   0      11.842   4.470  91.907  1.00  0.00     0.018 A 
HETATM   17  C   UNK A   0      11.742   3.967  93.204  1.00  0.00     0.022 A 
HETATM   18  C   UNK A   0      12.796   3.235  93.750  1.00  0.00     0.018 A 
HETATM   19  C   UNK A   0      13.925   3.022  92.987  1.00  0.00     0.032 A 
HETATM   20  C   UNK A   0      14.049   3.509  91.703  1.00  0.00     0.018 A 
HETATM   21  C   UNK A   0      12.995   4.242  91.156  1.00  0.00     0.022 A 
BRANCH  19  22
HETATM   22  C   UNK A   0      15.049   2.244  93.570  1.00  0.00     0.252 C 
HETATM   23  O   UNK A   0      16.192   2.687  93.488  1.00  0.00    -0.268 OA
ENDBRANCH  19  22
ENDBRANCH  15  16
ENDBRANCH  11  14
ENDBRANCH   7   8
ENDBRANCH   2   7
TORSDOF 9
ENDMDL
MODEL 8
REMARK VINA RESULT:      -6.4      4.896     10.308
REMARK  9 active torsions:
REMARK  status: ('A' for Active; 'I' for Inactive)
REMARK    1  A    between atoms: N_3  and  C_6 
REMARK    2  A    between atoms: C_6  and  C_9 
REMARK    3  A    between atoms: C_14  and  C_17 
REMARK       I    between atoms: N_26  and  C_15 
REMARK    4  A    between atoms: C_15  and  C_16 
REMARK    5  A    between atoms: C_20  and  C_23 
REMARK    6  A    between atoms: OG1_24  and  CB_28 
REMARK    7  A    between atoms: N_26  and  CA_27 
REMARK    8  A    between atoms: CA_27  and  CB_28 
REMARK    9  A    between atoms: CA_27  and  C_30 
ROOT
HETATM    1  O   UNK A   0      11.159   3.913  88.841  1.00  0.00    -0.388 OA
HETATM    2  N   UNK A   0       9.443   5.918  87.774  1.00  0.00     0.096 N 
HETATM    3  C   UNK A   0      10.121   4.946  86.905  1.00  0.00     0.299 C 
HETATM    4  C   UNK A   0      10.242   6.155  88.984  1.00  0.00     0.299 C 
HETATM    5  C   UNK A   0      10.374   3.653  87.676  1.00  0.00     0.198 C 
HETATM    6  C   UNK A   0      10.493   4.834  89.705  1.00  0.00     0.198 C 
ENDROOT
BRANCH   2   7
HETATM    7  C   UNK A   0       9.201   7.170  87.059  1.00  0.00     0.311 C 
BRANCH   7   8
HETATM    8  C   UNK A   0       8.396   8.136  87.861  1.00  0.00    -0.030 A 
HETATM    9  C   UNK A   0       7.056   7.865  88.138  1.00  0.00     0.010 A 
HETATM   10  C   UNK A   0       6.302   8.768  88.886  1.00  0.00     0.021 A 
HETATM   11  C   UNK A   0       6.889   9.941  89.359  1.00  0.00     0.018 A 
HETATM   12  C   UNK A   0       8.228  10.213  89.083  1.00  0.00     0.021 A 
HETATM   13  C   UNK A   0       8.982   9.310  88.334  1.00  0.00     0.010 A 
BRANCH  11  14
HETATM   14  C   UNK A   0       6.117  10.867  90.129  1.00  0.00    -0.061 C 
HETATM   15  C   UNK A   0       5.468  11.646  90.776  1.00  0.00    -0.061 C 
BRANCH  15  16
HETATM   16  C   UNK A   0       4.696  12.571  91.545  1.00  0.00     0.018 A 
HETATM   17  C   UNK A   0       4.299  12.240  92.841  1.00  0.00     0.022 A 
HETATM   18  C   UNK A   0       3.549  13.145  93.592  1.00  0.00     0.018 A 
HETATM   19  C   UNK A   0       3.212  14.359  93.031  1.00  0.00     0.032 A 
HETATM   20  C   UNK A   0       3.592  14.710  91.752  1.00  0.00     0.018 A 
HETATM   21  C   UNK A   0       4.342  13.806  91.000  1.00  0.00     0.022 A 
BRANCH  19  22
HETATM   22  C   UNK A   0       2.411  15.322  93.831  1.00  0.00     0.252 C 
HETATM   23  O   UNK A   0       1.280  15.619  93.454  1.00  0.00    -0.268 OA
ENDBRANCH  19  22
ENDBRANCH  15  16
ENDBRANCH  11  14
ENDBRANCH   7   8
ENDBRANCH   2   7
TORSDOF 9
ENDMDL
MODEL 9
REMARK VINA RESULT:      -6.4      1.816      2.549
REMARK  9 active torsions:
REMARK  status: ('A' for Active; 'I' for Inactive)
REMARK    1  A    between atoms: N_3  and  C_6 
REMARK    2  A    between atoms: C_6  and  C_9 
REMARK    3  A    between atoms: C_14  and  C_17 
REMARK       I    between atoms: N_26  and  C_15 
REMARK    4  A    between atoms: C_15  and  C_16 
REMARK    5  A    between atoms: C_20  and  C_23 
REMARK    6  A    between atoms: OG1_24  and  CB_28 
REMARK    7  A    between atoms: N_26  and  CA_27 
REMARK    8  A    between atoms: CA_27  and  CB_28 
REMARK    9  A    between atoms: CA_27  and  C_30 
ROOT
HETATM    1  O   UNK A   0       2.096   9.014  87.866  1.00  0.00    -0.388 OA
HETATM    2  N   UNK A   0       3.732   7.881  89.900  1.00  0.00     0.096 N 
HETATM    3  C   UNK A   0       2.541   7.184  89.397  1.00  0.00     0.299 C 
HETATM    4  C   UNK A   0       3.555   9.335  89.777  1.00  0.00     0.299 C 
HETATM    5  C   UNK A   0       2.271   7.599  87.952  1.00  0.00     0.198 C 
HETATM    6  C   UNK A   0       3.262   9.699  88.325  1.00  0.00     0.198 C 
ENDROOT
BRANCH   2   7
HETATM    7  C   UNK A   0       4.003   7.507  91.287  1.00  0.00     0.311 C 
BRANCH   7   8
HETATM    8  C   UNK A   0       5.367   6.931  91.464  1.00  0.00    -0.030 A 
HETATM    9  C   UNK A   0       6.061   6.432  90.361  1.00  0.00     0.010 A 
HETATM   10  C   UNK A   0       7.336   5.892  90.526  1.00  0.00     0.021 A 
HETATM   11  C   UNK A   0       7.917   5.852  91.793  1.00  0.00     0.018 A 
HETATM   12  C   UNK A   0       7.225   6.350  92.895  1.00  0.00     0.021 A 
HETATM   13  C   UNK A   0       5.950   6.890  92.731  1.00  0.00     0.010 A 
BRANCH  11  14
HETATM   14  C   UNK A   0       9.226   5.299  91.962  1.00  0.00    -0.061 C 
HETATM   15  C   UNK A   0      10.326   4.834  92.103  1.00  0.00    -0.061 C 
BRANCH  15  16
HETATM   16  C   UNK A   0      11.633   4.282  92.271  1.00  0.00     0.018 A 
HETATM   17  C   UNK A   0      12.520   4.252  91.194  1.00  0.00     0.022 A 
HETATM   18  C   UNK A   0      13.797   3.715  91.358  1.00  0.00     0.018 A 
HETATM   19  C   UNK A   0      14.159   3.222  92.594  1.00  0.00     0.032 A 
HETATM   20  C   UNK A   0      13.300   3.239  93.674  1.00  0.00     0.018 A 
HETATM   21  C   UNK A   0      12.023   3.775  93.510  1.00  0.00     0.022 A 
BRANCH  19  22
HETATM   22  C   UNK A   0      15.518   2.648  92.768  1.00  0.00     0.252 C 
HETATM   23  O   UNK A   0      16.023   2.631  93.888  1.00  0.00    -0.268 OA
ENDBRANCH  19  22
ENDBRANCH  15  16
ENDBRANCH  11  14
ENDBRANCH   7   8
ENDBRANCH   2   7
TORSDOF 9
ENDMDL
