MODEL 1
REMARK VINA RESULT:      -6.9      0.000      0.000
REMARK  10 active torsions:
REMARK  status: ('A' for Active; 'I' for Inactive)
REMARK    1  A    between atoms: O_2  and  C_16 
REMARK    2  A    between atoms: N_5  and  C_9 
REMARK    3  A    between atoms: N_6  and  C_13 
REMARK       I    between atoms: N_6  and  C_22 
REMARK    4  A    between atoms: C_9  and  C_12 
REMARK    5  A    between atoms: C_13  and  C_16 
REMARK    6  A    between atoms: C_13  and  C_21 
REMARK    7  A    between atoms: C_19  and  C_24 
REMARK    8  A    between atoms: C_22  and  C_23 
REMARK    9  A    between atoms: C_27  and  C_30 
REMARK   10  A    between atoms: N_33  and  S_34 
ROOT
HETATM    1  C   UNL     1       5.692  11.058  89.478  1.00  0.00     0.056 A 
HETATM    2  C   UNL     1       7.051  11.234  89.319  1.00  0.00     0.005 A 
HETATM    3  C   UNL     1       5.150   9.865  89.909  1.00  0.00     0.005 A 
HETATM    4  C   UNL     1       7.383   8.952  90.040  1.00  0.00     0.042 A 
HETATM    5  C   UNL     1       7.907  10.169  89.603  1.00  0.00     0.008 A 
HETATM    6  C   UNL     1       6.005   8.800  90.193  1.00  0.00     0.008 A 
ENDROOT
BRANCH   1   7
HETATM    7  C   UNL     1       4.782  12.192  89.178  1.00  0.00     0.254 C 
HETATM    8  O   UNL     1       4.717  12.622  88.028  1.00  0.00    -0.268 OA
HETATM    9  N   UNL     1       4.038  12.674  90.246  1.00  0.00    -0.337 N 
HETATM   10  HN  UNL     1       4.125  12.253  91.163  1.00  0.00     0.164 HD
BRANCH   9  11
HETATM   11  C   UNL     1       3.093  13.754  90.109  1.00  0.00     0.172 C 
BRANCH  11  12
HETATM   12  C   UNL     1       1.841  13.561  90.974  1.00  0.00     0.136 C 
HETATM   13  C   UNL     1       2.037  12.506  92.057  1.00  0.00     0.034 C 
BRANCH  12  14
HETATM   14  O   UNL     1       1.492  14.799  91.591  1.00  0.00    -0.383 OA
HETATM   15  H   UNL     1       2.257  15.396  91.531  1.00  0.00     0.210 HD
ENDBRANCH  12  14
ENDBRANCH  11  12
BRANCH  11  16
HETATM   16  C   UNL     1       3.815  15.051  90.460  1.00  0.00     0.398 A 
HETATM   17  O   UNL     1       4.871  15.394  89.931  1.00  0.00    -0.136 OA
HETATM   18  N   UNL     1       4.932  15.625  91.432  1.00  0.00     0.142 N 
HETATM   19  HN  UNL     1       5.819  15.973  91.197  1.00  0.00     0.338 HD
BRANCH  18  20
HETATM   20  S   UNL     1       4.370  15.237  92.643  1.00  0.00     0.076 SA
HETATM   21  H   UNL     1       3.328  14.668  92.586  1.00  0.00     0.136 HD
ENDBRANCH  18  20
ENDBRANCH  11  16
ENDBRANCH   9  11
ENDBRANCH   1   7
BRANCH   4  22
HETATM   22  C   UNL     1       8.260   7.860  90.328  1.00  0.00    -0.059 C 
HETATM   23  C   UNL     1       8.997   6.942  90.570  1.00  0.00    -0.059 C 
BRANCH  23  24
HETATM   24  C   UNL     1       9.875   5.850  90.859  1.00  0.00     0.042 A 
HETATM   25  C   UNL     1       9.973   5.362  92.162  1.00  0.00     0.008 A 
HETATM   26  C   UNL     1      10.830   4.298  92.445  1.00  0.00    -0.002 A 
HETATM   27  C   UNL     1      11.586   3.722  91.423  1.00  0.00     0.011 A 
HETATM   28  C   UNL     1      11.486   4.211  90.121  1.00  0.00    -0.002 A 
HETATM   29  C   UNL     1      10.630   5.275  89.839  1.00  0.00     0.008 A 
BRANCH  27  30
HETATM   30  C   UNL     1      12.500   2.584  91.726  1.00  0.00     0.277 C 
BRANCH  30  31
HETATM   31  N   UNL     1      13.498   2.925  92.739  1.00  0.00     0.147 N 
HETATM   32  C   UNL     1      14.320   1.753  93.074  1.00  0.00     0.283 C 
HETATM   33  C   UNL     1      15.360   2.136  94.124  1.00  0.00     0.178 C 
HETATM   34  O   UNL     1      16.183   3.201  93.644  1.00  0.00    -0.350 OA
HETATM   35  C   UNL     1      15.395   4.354  93.344  1.00  0.00     0.178 C 
HETATM   36  C   UNL     1      14.355   4.025  92.278  1.00  0.00     0.283 C 
ENDBRANCH  30  31
ENDBRANCH  27  30
ENDBRANCH  23  24
ENDBRANCH   4  22
TORSDOF 10
ENDMDL
MODEL 2
REMARK VINA RESULT:      -6.7      1.482      1.835
REMARK  10 active torsions:
REMARK  status: ('A' for Active; 'I' for Inactive)
REMARK    1  A    between atoms: O_2  and  C_16 
REMARK    2  A    between atoms: N_5  and  C_9 
REMARK    3  A    between atoms: N_6  and  C_13 
REMARK       I    between atoms: N_6  and  C_22 
REMARK    4  A    between atoms: C_9  and  C_12 
REMARK    5  A    between atoms: C_13  and  C_16 
REMARK    6  A    between atoms: C_13  and  C_21 
REMARK    7  A    between atoms: C_19  and  C_24 
REMARK    8  A    between atoms: C_22  and  C_23 
REMARK    9  A    between atoms: C_27  and  C_30 
REMARK   10  A    between atoms: N_33  and  S_34 
ROOT
HETATM    1  C   UNL     1       4.772   9.674  90.603  1.00  0.00     0.056 A 
HETATM    2  C   UNL     1       5.646   9.856  91.654  1.00  0.00     0.005 A 
HETATM    3  C   UNL     1       4.887   8.619  89.723  1.00  0.00     0.005 A 
HETATM    4  C   UNL     1       6.822   7.864  90.956  1.00  0.00     0.042 A 
HETATM    5  C   UNL     1       6.684   8.941  91.833  1.00  0.00     0.008 A 
HETATM    6  C   UNL     1       5.924   7.703  89.901  1.00  0.00     0.008 A 
ENDROOT
BRANCH   1   7
HETATM    7  C   UNL     1       3.665  10.648  90.414  1.00  0.00     0.254 C 
HETATM    8  O   UNL     1       2.538  10.233  90.157  1.00  0.00    -0.268 OA
HETATM    9  N   UNL     1       4.000  11.986  90.570  1.00  0.00    -0.337 N 
HETATM   10  HN  UNL     1       4.948  12.254  90.807  1.00  0.00     0.164 HD
BRANCH   9  11
HETATM   11  C   UNL     1       3.033  13.047  90.442  1.00  0.00     0.172 C 
BRANCH  11  12
HETATM   12  C   UNL     1       2.645  13.663  91.793  1.00  0.00     0.136 C 
HETATM   13  C   UNL     1       1.258  13.231  92.254  1.00  0.00     0.034 C 
BRANCH  12  14
HETATM   14  O   UNL     1       3.601  13.283  92.782  1.00  0.00    -0.383 OA
HETATM   15  H   UNL     1       3.136  13.174  93.629  1.00  0.00     0.210 HD
ENDBRANCH  12  14
ENDBRANCH  11  12
BRANCH  11  16
HETATM   16  C   UNL     1       3.616  14.097  89.502  1.00  0.00     0.398 A 
HETATM   17  O   UNL     1       4.306  13.812  88.525  1.00  0.00    -0.136 OA
HETATM   18  N   UNL     1       4.918  14.980  89.281  1.00  0.00     0.142 N 
HETATM   19  HN  UNL     1       5.571  14.924  88.551  1.00  0.00     0.338 HD
BRANCH  18  20
HETATM   20  S   UNL     1       4.950  15.610  90.520  1.00  0.00     0.076 SA
HETATM   21  H   UNL     1       4.736  14.928  91.469  1.00  0.00     0.136 HD
ENDBRANCH  18  20
ENDBRANCH  11  16
ENDBRANCH   9  11
ENDBRANCH   1   7
BRANCH   4  22
HETATM   22  C   UNL     1       7.887   6.928  91.138  1.00  0.00    -0.059 C 
HETATM   23  C   UNL     1       8.783   6.141  91.290  1.00  0.00    -0.059 C 
BRANCH  23  24
HETATM   24  C   UNL     1       9.849   5.205  91.472  1.00  0.00     0.042 A 
HETATM   25  C   UNL     1      10.481   4.645  90.362  1.00  0.00     0.008 A 
HETATM   26  C   UNL     1      11.520   3.731  90.539  1.00  0.00    -0.002 A 
HETATM   27  C   UNL     1      11.926   3.378  91.827  1.00  0.00     0.011 A 
HETATM   28  C   UNL     1      11.293   3.939  92.936  1.00  0.00    -0.002 A 
HETATM   29  C   UNL     1      10.255   4.853  92.758  1.00  0.00     0.008 A 
BRANCH  27  30
HETATM   30  C   UNL     1      13.038   2.402  92.015  1.00  0.00     0.277 C 
BRANCH  30  31
HETATM   31  N   UNL     1      14.020   2.859  92.997  1.00  0.00     0.147 N 
HETATM   32  C   UNL     1      15.134   1.907  93.100  1.00  0.00     0.283 C 
HETATM   33  C   UNL     1      16.151   2.410  94.122  1.00  0.00     0.178 C 
HETATM   34  O   UNL     1      16.632   3.702  93.749  1.00  0.00    -0.350 OA
HETATM   35  C   UNL     1      15.559   4.641  93.677  1.00  0.00     0.178 C 
HETATM   36  C   UNL     1      14.528   4.192  92.646  1.00  0.00     0.283 C 
ENDBRANCH  30  31
ENDBRANCH  27  30
ENDBRANCH  23  24
ENDBRANCH   4  22
TORSDOF 10
ENDMDL
MODEL 3
REMARK VINA RESULT:      -6.7      0.531      1.251
REMARK  10 active torsions:
REMARK  status: ('A' for Active; 'I' for Inactive)
REMARK    1  A    between atoms: O_2  and  C_16 
REMARK    2  A    between atoms: N_5  and  C_9 
REMARK    3  A    between atoms: N_6  and  C_13 
REMARK       I    between atoms: N_6  and  C_22 
REMARK    4  A    between atoms: C_9  and  C_12 
REMARK    5  A    between atoms: C_13  and  C_16 
REMARK    6  A    between atoms: C_13  and  C_21 
REMARK    7  A    between atoms: C_19  and  C_24 
REMARK    8  A    between atoms: C_22  and  C_23 
REMARK    9  A    between atoms: C_27  and  C_30 
REMARK   10  A    between atoms: N_33  and  S_34 
ROOT
HETATM    1  C   UNL     1       5.402  10.554  89.458  1.00  0.00     0.056 A 
HETATM    2  C   UNL     1       5.096   9.260  89.090  1.00  0.00     0.005 A 
HETATM    3  C   UNL     1       6.574  10.876  90.110  1.00  0.00     0.005 A 
HETATM    4  C   UNL     1       7.195   8.542  90.047  1.00  0.00     0.042 A 
HETATM    5  C   UNL     1       6.002   8.242  89.388  1.00  0.00     0.008 A 
HETATM    6  C   UNL     1       7.481   9.859  90.408  1.00  0.00     0.008 A 
ENDROOT
BRANCH   1   7
HETATM    7  C   UNL     1       4.438  11.638  89.139  1.00  0.00     0.254 C 
HETATM    8  O   UNL     1       4.078  11.797  87.975  1.00  0.00    -0.268 OA
HETATM    9  N   UNL     1       3.991  12.391  90.216  1.00  0.00    -0.337 N 
HETATM   10  HN  UNL     1       4.313  12.185  91.155  1.00  0.00     0.164 HD
BRANCH   9  11
HETATM   11  C   UNL     1       3.036  13.460  90.072  1.00  0.00     0.172 C 
BRANCH  11  12
HETATM   12  C   UNL     1       1.961  13.448  91.166  1.00  0.00     0.136 C 
HETATM   13  C   UNL     1       2.152  12.308  92.160  1.00  0.00     0.034 C 
BRANCH  12  14
HETATM   14  O   UNL     1       1.985  14.688  91.872  1.00  0.00    -0.383 OA
HETATM   15  H   UNL     1       1.995  14.496  92.825  1.00  0.00     0.210 HD
ENDBRANCH  12  14
ENDBRANCH  11  12
BRANCH  11  16
HETATM   16  C   UNL     1       3.808  14.776  90.068  1.00  0.00     0.398 A 
HETATM   17  O   UNL     1       4.823  14.955  89.396  1.00  0.00    -0.136 OA
HETATM   18  N   UNL     1       5.013  15.509  90.799  1.00  0.00     0.142 N 
HETATM   19  HN  UNL     1       5.883  15.764  90.424  1.00  0.00     0.338 HD
BRANCH  18  20
HETATM   20  S   UNL     1       4.546  15.419  92.105  1.00  0.00     0.076 SA
HETATM   21  H   UNL     1       3.384  15.605  92.268  1.00  0.00     0.136 HD
ENDBRANCH  18  20
ENDBRANCH  11  16
ENDBRANCH   9  11
ENDBRANCH   1   7
BRANCH   4  22
HETATM   22  C   UNL     1       8.122   7.499  90.355  1.00  0.00    -0.059 C 
HETATM   23  C   UNL     1       8.903   6.621  90.614  1.00  0.00    -0.059 C 
BRANCH  23  24
HETATM   24  C   UNL     1       9.831   5.577  90.923  1.00  0.00     0.042 A 
HETATM   25  C   UNL     1      10.616   5.023  89.913  1.00  0.00     0.008 A 
HETATM   26  C   UNL     1      11.519   4.004  90.213  1.00  0.00    -0.002 A 
HETATM   27  C   UNL     1      11.638   3.541  91.524  1.00  0.00     0.011 A 
HETATM   28  C   UNL     1      10.852   4.098  92.533  1.00  0.00    -0.002 A 
HETATM   29  C   UNL     1       9.949   5.116  92.232  1.00  0.00     0.008 A 
BRANCH  27  30
HETATM   30  C   UNL     1      12.606   2.453  91.845  1.00  0.00     0.277 C 
BRANCH  30  31
HETATM   31  N   UNL     1      13.594   2.862  92.841  1.00  0.00     0.147 N 
HETATM   32  C   UNL     1      14.560   1.783  93.089  1.00  0.00     0.283 C 
HETATM   33  C   UNL     1      15.588   2.237  94.124  1.00  0.00     0.178 C 
HETATM   34  O   UNL     1      16.259   3.415  93.674  1.00  0.00    -0.350 OA
HETATM   35  C   UNL     1      15.330   4.478  93.460  1.00  0.00     0.178 C 
HETATM   36  C   UNL     1      14.297   4.079  92.411  1.00  0.00     0.283 C 
ENDBRANCH  30  31
ENDBRANCH  27  30
ENDBRANCH  23  24
ENDBRANCH   4  22
TORSDOF 10
ENDMDL
MODEL 4
REMARK VINA RESULT:      -6.2      1.762      2.234
REMARK  10 active torsions:
REMARK  status: ('A' for Active; 'I' for Inactive)
REMARK    1  A    between atoms: O_2  and  C_16 
REMARK    2  A    between atoms: N_5  and  C_9 
REMARK    3  A    between atoms: N_6  and  C_13 
REMARK       I    between atoms: N_6  and  C_22 
REMARK    4  A    between atoms: C_9  and  C_12 
REMARK    5  A    between atoms: C_13  and  C_16 
REMARK    6  A    between atoms: C_13  and  C_21 
REMARK    7  A    between atoms: C_19  and  C_24 
REMARK    8  A    between atoms: C_22  and  C_23 
REMARK    9  A    between atoms: C_27  and  C_30 
REMARK   10  A    between atoms: N_33  and  S_34 
ROOT
HETATM    1  C   UNL     1       4.705  10.091  91.461  1.00  0.00     0.056 A 
HETATM    2  C   UNL     1       4.788   9.135  90.471  1.00  0.00     0.005 A 
HETATM    3  C   UNL     1       5.609  10.153  92.501  1.00  0.00     0.005 A 
HETATM    4  C   UNL     1       6.747   8.240  91.564  1.00  0.00     0.042 A 
HETATM    5  C   UNL     1       5.820   8.198  90.522  1.00  0.00     0.008 A 
HETATM    6  C   UNL     1       6.642   9.217  92.554  1.00  0.00     0.008 A 
ENDROOT
BRANCH   1   7
HETATM    7  C   UNL     1       3.607  11.090  91.405  1.00  0.00     0.254 C 
HETATM    8  O   UNL     1       2.544  10.783  90.871  1.00  0.00    -0.268 OA
HETATM    9  N   UNL     1       3.869  12.317  92.000  1.00  0.00    -0.337 N 
HETATM   10  HN  UNL     1       4.763  12.490  92.445  1.00  0.00     0.164 HD
BRANCH   9  11
HETATM   11  C   UNL     1       2.897  13.379  92.048  1.00  0.00     0.172 C 
BRANCH  11  12
HETATM   12  C   UNL     1       3.111  14.325  93.236  1.00  0.00     0.136 C 
HETATM   13  C   UNL     1       4.444  15.062  93.163  1.00  0.00     0.034 C 
BRANCH  12  14
HETATM   14  O   UNL     1       2.054  15.284  93.279  1.00  0.00    -0.383 OA
HETATM   15  H   UNL     1       1.370  14.956  93.888  1.00  0.00     0.210 HD
ENDBRANCH  12  14
ENDBRANCH  11  12
BRANCH  11  16
HETATM   16  C   UNL     1       2.961  14.130  90.722  1.00  0.00     0.398 A 
HETATM   17  O   UNL     1       2.156  13.949  89.811  1.00  0.00    -0.136 OA
HETATM   18  N   UNL     1       3.571  14.016  89.260  1.00  0.00     0.142 N 
HETATM   19  HN  UNL     1       3.092  13.902  88.411  1.00  0.00     0.338 HD
BRANCH  18  20
HETATM   20  S   UNL     1       4.909  13.868  89.607  1.00  0.00     0.076 SA
HETATM   21  H   UNL     1       5.505  14.865  89.859  1.00  0.00     0.136 HD
ENDBRANCH  18  20
ENDBRANCH  11  16
ENDBRANCH   9  11
ENDBRANCH   1   7
BRANCH   4  22
HETATM   22  C   UNL     1       7.803   7.278  91.618  1.00  0.00    -0.059 C 
HETATM   23  C   UNL     1       8.692   6.469  91.663  1.00  0.00    -0.059 C 
BRANCH  23  24
HETATM   24  C   UNL     1       9.749   5.507  91.717  1.00  0.00     0.042 A 
HETATM   25  C   UNL     1      10.156   4.855  90.553  1.00  0.00     0.008 A 
HETATM   26  C   UNL     1      11.186   3.915  90.605  1.00  0.00    -0.002 A 
HETATM   27  C   UNL     1      11.809   3.630  91.821  1.00  0.00     0.011 A 
HETATM   28  C   UNL     1      11.400   4.283  92.984  1.00  0.00    -0.002 A 
HETATM   29  C   UNL     1      10.370   5.222  92.931  1.00  0.00     0.008 A 
BRANCH  27  30
HETATM   30  C   UNL     1      12.911   2.627  91.875  1.00  0.00     0.277 C 
BRANCH  30  31
HETATM   31  N   UNL     1      13.905   2.947  92.899  1.00  0.00     0.147 N 
HETATM   32  C   UNL     1      14.859   1.841  93.059  1.00  0.00     0.283 C 
HETATM   33  C   UNL     1      15.893   2.202  94.124  1.00  0.00     0.178 C 
HETATM   34  O   UNL     1      16.577   3.404  93.765  1.00  0.00    -0.350 OA
HETATM   35  C   UNL     1      15.659   4.491  93.637  1.00  0.00     0.178 C 
HETATM   36  C   UNL     1      14.620   4.185  92.563  1.00  0.00     0.283 C 
ENDBRANCH  30  31
ENDBRANCH  27  30
ENDBRANCH  23  24
ENDBRANCH   4  22
TORSDOF 10
ENDMDL
MODEL 5
REMARK VINA RESULT:      -6.1      1.736      1.890
REMARK  10 active torsions:
REMARK  status: ('A' for Active; 'I' for Inactive)
REMARK    1  A    between atoms: O_2  and  C_16 
REMARK    2  A    between atoms: N_5  and  C_9 
REMARK    3  A    between atoms: N_6  and  C_13 
REMARK       I    between atoms: N_6  and  C_22 
REMARK    4  A    between atoms: C_9  and  C_12 
REMARK    5  A    between atoms: C_13  and  C_16 
REMARK    6  A    between atoms: C_13  and  C_21 
REMARK    7  A    between atoms: C_19  and  C_24 
REMARK    8  A    between atoms: C_22  and  C_23 
REMARK    9  A    between atoms: C_27  and  C_30 
REMARK   10  A    between atoms: N_33  and  S_34 
ROOT
HETATM    1  C   UNL     1       4.994  10.080  91.192  1.00  0.00     0.056 A 
HETATM    2  C   UNL     1       6.300  10.515  91.101  1.00  0.00     0.005 A 
HETATM    3  C   UNL     1       4.673   8.752  91.382  1.00  0.00     0.005 A 
HETATM    4  C   UNL     1       7.031   8.232  91.396  1.00  0.00     0.042 A 
HETATM    5  C   UNL     1       7.331   9.582  91.204  1.00  0.00     0.008 A 
HETATM    6  C   UNL     1       5.703   7.817  91.484  1.00  0.00     0.008 A 
ENDROOT
BRANCH   1   7
HETATM    7  C   UNL     1       3.896  11.075  91.085  1.00  0.00     0.254 C 
HETATM    8  O   UNL     1       2.832  10.741  90.570  1.00  0.00    -0.268 OA
HETATM    9  N   UNL     1       4.161  12.332  91.611  1.00  0.00    -0.337 N 
HETATM   10  HN  UNL     1       5.056  12.528  92.044  1.00  0.00     0.164 HD
BRANCH   9  11
HETATM   11  C   UNL     1       3.190  13.396  91.605  1.00  0.00     0.172 C 
BRANCH  11  12
HETATM   12  C   UNL     1       3.435  14.431  92.710  1.00  0.00     0.136 C 
HETATM   13  C   UNL     1       2.176  14.739  93.512  1.00  0.00     0.034 C 
BRANCH  12  14
HETATM   14  O   UNL     1       4.444  13.950  93.598  1.00  0.00    -0.383 OA
HETATM   15  H   UNL     1       5.208  14.549  93.545  1.00  0.00     0.210 HD
ENDBRANCH  12  14
ENDBRANCH  11  12
BRANCH  11  16
HETATM   16  C   UNL     1       3.217  14.043  90.224  1.00  0.00     0.398 A 
HETATM   17  O   UNL     1       2.691  13.534  89.235  1.00  0.00    -0.136 OA
HETATM   18  N   UNL     1       4.069  14.071  88.883  1.00  0.00     0.142 N 
HETATM   19  HN  UNL     1       3.811  13.745  87.995  1.00  0.00     0.338 HD
BRANCH  18  20
HETATM   20  S   UNL     1       5.296  14.433  89.428  1.00  0.00     0.076 SA
HETATM   21  H   UNL     1       5.280  15.293  90.247  1.00  0.00     0.136 HD
ENDBRANCH  18  20
ENDBRANCH  11  16
ENDBRANCH   9  11
ENDBRANCH   1   7
BRANCH   4  22
HETATM   22  C   UNL     1       8.088   7.275  91.498  1.00  0.00    -0.059 C 
HETATM   23  C   UNL     1       8.976   6.469  91.584  1.00  0.00    -0.059 C 
BRANCH  23  24
HETATM   24  C   UNL     1      10.034   5.510  91.685  1.00  0.00     0.042 A 
HETATM   25  C   UNL     1      10.477   5.093  92.940  1.00  0.00     0.008 A 
HETATM   26  C   UNL     1      11.509   4.160  93.039  1.00  0.00    -0.002 A 
HETATM   27  C   UNL     1      12.096   3.644  91.883  1.00  0.00     0.011 A 
HETATM   28  C   UNL     1      11.651   4.062  90.629  1.00  0.00    -0.002 A 
HETATM   29  C   UNL     1      10.619   4.995  90.530  1.00  0.00     0.008 A 
BRANCH  27  30
HETATM   30  C   UNL     1      13.197   2.645  91.990  1.00  0.00     0.277 C 
BRANCH  30  31
HETATM   31  N   UNL     1      14.200   3.026  92.984  1.00  0.00     0.147 N 
HETATM   32  C   UNL     1      15.244   1.998  93.090  1.00  0.00     0.283 C 
HETATM   33  C   UNL     1      16.284   2.422  94.124  1.00  0.00     0.178 C 
HETATM   34  O   UNL     1      16.857   3.681  93.765  1.00  0.00    -0.350 OA
HETATM   35  C   UNL     1      15.852   4.692  93.691  1.00  0.00     0.178 C 
HETATM   36  C   UNL     1      14.802   4.323  92.648  1.00  0.00     0.283 C 
ENDBRANCH  30  31
ENDBRANCH  27  30
ENDBRANCH  23  24
ENDBRANCH   4  22
TORSDOF 10
ENDMDL
MODEL 6
REMARK VINA RESULT:      -5.5      3.632     12.434
REMARK  10 active torsions:
REMARK  status: ('A' for Active; 'I' for Inactive)
REMARK    1  A    between atoms: O_2  and  C_16 
REMARK    2  A    between atoms: N_5  and  C_9 
REMARK    3  A    between atoms: N_6  and  C_13 
REMARK       I    between atoms: N_6  and  C_22 
REMARK    4  A    between atoms: C_9  and  C_12 
REMARK    5  A    between atoms: C_13  and  C_16 
REMARK    6  A    between atoms: C_13  and  C_21 
REMARK    7  A    between atoms: C_19  and  C_24 
REMARK    8  A    between atoms: C_22  and  C_23 
REMARK    9  A    between atoms: C_27  and  C_30 
REMARK   10  A    between atoms: N_33  and  S_34 
ROOT
HETATM    1  C   UNL     1      10.197   5.720  89.955  1.00  0.00     0.056 A 
HETATM    2  C   UNL     1       9.689   6.173  91.155  1.00  0.00     0.005 A 
HETATM    3  C   UNL     1       9.816   6.258  88.744  1.00  0.00     0.005 A 
HETATM    4  C   UNL     1       8.354   7.771  89.931  1.00  0.00     0.042 A 
HETATM    5  C   UNL     1       8.756   7.210  91.143  1.00  0.00     0.008 A 
HETATM    6  C   UNL     1       8.884   7.296  88.731  1.00  0.00     0.008 A 
ENDROOT
BRANCH   1   7
HETATM    7  C   UNL     1      11.192   4.617  89.968  1.00  0.00     0.254 C 
HETATM    8  O   UNL     1      11.344   3.934  88.958  1.00  0.00    -0.268 OA
HETATM    9  N   UNL     1      11.908   4.457  91.147  1.00  0.00    -0.337 N 
HETATM   10  HN  UNL     1      11.746   5.075  91.933  1.00  0.00     0.164 HD
BRANCH   9  11
HETATM   11  C   UNL     1      12.924   3.448  91.307  1.00  0.00     0.172 C 
BRANCH  11  12
HETATM   12  C   UNL     1      14.344   4.003  91.139  1.00  0.00     0.136 C 
HETATM   13  C   UNL     1      15.278   3.018  90.446  1.00  0.00     0.034 C 
BRANCH  12  14
HETATM   14  O   UNL     1      14.297   5.210  90.379  1.00  0.00    -0.383 OA
HETATM   15  H   UNL     1      14.264   4.976  89.436  1.00  0.00     0.210 HD
ENDBRANCH  12  14
ENDBRANCH  11  12
BRANCH  11  16
HETATM   16  C   UNL     1      12.736   2.811  92.680  1.00  0.00     0.398 A 
HETATM   17  O   UNL     1      12.107   3.351  93.588  1.00  0.00    -0.136 OA
HETATM   18  N   UNL     1      13.399   2.755  94.122  1.00  0.00     0.142 N 
HETATM   19  HN  UNL     1      13.040   3.099  94.968  1.00  0.00     0.338 HD
BRANCH  18  20
HETATM   20  S   UNL     1      14.670   2.333  93.747  1.00  0.00     0.076 SA
HETATM   21  H   UNL     1      14.878   2.247  92.581  1.00  0.00     0.136 HD
ENDBRANCH  18  20
ENDBRANCH  11  16
ENDBRANCH   9  11
ENDBRANCH   1   7
BRANCH   4  22
HETATM   22  C   UNL     1       7.396   8.832  89.919  1.00  0.00    -0.059 C 
HETATM   23  C   UNL     1       6.590   9.725  89.909  1.00  0.00    -0.059 C 
BRANCH  23  24
HETATM   24  C   UNL     1       5.632  10.787  89.897  1.00  0.00     0.042 A 
HETATM   25  C   UNL     1       5.933  11.989  89.257  1.00  0.00     0.008 A 
HETATM   26  C   UNL     1       5.000  13.025  89.247  1.00  0.00    -0.002 A 
HETATM   27  C   UNL     1       3.765  12.859  89.876  1.00  0.00     0.011 A 
HETATM   28  C   UNL     1       3.466  11.656  90.516  1.00  0.00    -0.002 A 
HETATM   29  C   UNL     1       4.400  10.620  90.526  1.00  0.00     0.008 A 
BRANCH  27  30
HETATM   30  C   UNL     1       2.768  13.966  89.863  1.00  0.00     0.277 C 
BRANCH  30  31
HETATM   31  N   UNL     1       2.675  14.647  91.153  1.00  0.00     0.147 N 
HETATM   32  C   UNL     1       1.723  13.959  92.037  1.00  0.00     0.283 C 
HETATM   33  C   UNL     1       1.651  14.681  93.380  1.00  0.00     0.178 C 
HETATM   34  O   UNL     1       2.944  14.735  93.986  1.00  0.00    -0.350 OA
HETATM   35  C   UNL     1       3.867  15.429  93.147  1.00  0.00     0.178 C 
HETATM   36  C   UNL     1       3.993  14.728  91.798  1.00  0.00     0.283 C 
ENDBRANCH  30  31
ENDBRANCH  27  30
ENDBRANCH  23  24
ENDBRANCH   4  22
TORSDOF 10
ENDMDL
MODEL 7
REMARK VINA RESULT:      -5.4      2.311      3.117
REMARK  10 active torsions:
REMARK  status: ('A' for Active; 'I' for Inactive)
REMARK    1  A    between atoms: O_2  and  C_16 
REMARK    2  A    between atoms: N_5  and  C_9 
REMARK    3  A    between atoms: N_6  and  C_13 
REMARK       I    between atoms: N_6  and  C_22 
REMARK    4  A    between atoms: C_9  and  C_12 
REMARK    5  A    between atoms: C_13  and  C_16 
REMARK    6  A    between atoms: C_13  and  C_21 
REMARK    7  A    between atoms: C_19  and  C_24 
REMARK    8  A    between atoms: C_22  and  C_23 
REMARK    9  A    between atoms: C_27  and  C_30 
REMARK   10  A    between atoms: N_33  and  S_34 
ROOT
HETATM    1  C   UNL     1       5.867  10.840  92.959  1.00  0.00     0.056 A 
HETATM    2  C   UNL     1       6.790  10.791  91.935  1.00  0.00     0.005 A 
HETATM    3  C   UNL     1       5.774   9.849  93.914  1.00  0.00     0.005 A 
HETATM    4  C   UNL     1       7.584   8.686  92.816  1.00  0.00     0.042 A 
HETATM    5  C   UNL     1       7.659   9.702  91.862  1.00  0.00     0.008 A 
HETATM    6  C   UNL     1       6.642   8.760  93.842  1.00  0.00     0.008 A 
ENDROOT
BRANCH   1   7
HETATM    7  C   UNL     1       4.943  12.001  93.037  1.00  0.00     0.254 C 
HETATM    8  O   UNL     1       4.821  12.599  94.104  1.00  0.00    -0.268 OA
HETATM    9  N   UNL     1       4.292  12.341  91.860  1.00  0.00    -0.337 N 
HETATM   10  HN  UNL     1       4.462  11.815  91.010  1.00  0.00     0.164 HD
BRANCH   9  11
HETATM   11  C   UNL     1       3.385  13.456  91.769  1.00  0.00     0.172 C 
BRANCH  11  12
HETATM   12  C   UNL     1       3.488  14.198  90.431  1.00  0.00     0.136 C 
HETATM   13  C   UNL     1       4.898  14.167  89.853  1.00  0.00     0.034 C 
BRANCH  12  14
HETATM   14  O   UNL     1       2.589  13.613  89.490  1.00  0.00    -0.383 OA
HETATM   15  H   UNL     1       2.635  12.646  89.584  1.00  0.00     0.210 HD
ENDBRANCH  12  14
ENDBRANCH  11  12
BRANCH  11  16
HETATM   16  C   UNL     1       1.973  12.928  92.003  1.00  0.00     0.398 A 
HETATM   17  O   UNL     1       1.270  13.291  92.944  1.00  0.00    -0.136 OA
HETATM   18  N   UNL     1       1.189  11.783  92.776  1.00  0.00     0.142 N 
HETATM   19  HN  UNL     1       0.564  11.877  93.526  1.00  0.00     0.338 HD
BRANCH  18  20
HETATM   20  S   UNL     1       1.856  10.684  92.245  1.00  0.00     0.076 SA
HETATM   21  H   UNL     1       1.250  10.020  91.468  1.00  0.00     0.136 HD
ENDBRANCH  18  20
ENDBRANCH  11  16
ENDBRANCH   9  11
ENDBRANCH   1   7
BRANCH   4  22
HETATM   22  C   UNL     1       8.472   7.569  92.740  1.00  0.00    -0.059 C 
HETATM   23  C   UNL     1       9.220   6.629  92.675  1.00  0.00    -0.059 C 
BRANCH  23  24
HETATM   24  C   UNL     1      10.109   5.511  92.598  1.00  0.00     0.042 A 
HETATM   25  C   UNL     1      10.115   4.702  91.462  1.00  0.00     0.008 A 
HETATM   26  C   UNL     1      10.981   3.611  91.389  1.00  0.00    -0.002 A 
HETATM   27  C   UNL     1      11.842   3.331  92.450  1.00  0.00     0.011 A 
HETATM   28  C   UNL     1      11.835   4.142  93.585  1.00  0.00    -0.002 A 
HETATM   29  C   UNL     1      10.969   5.232  93.659  1.00  0.00     0.008 A 
BRANCH  27  30
HETATM   30  C   UNL     1      12.768   2.166  92.369  1.00  0.00     0.277 C 
BRANCH  30  31
HETATM   31  N   UNL     1      14.161   2.544  92.605  1.00  0.00     0.147 N 
HETATM   32  C   UNL     1      14.317   4.005  92.563  1.00  0.00     0.283 C 
HETATM   33  C   UNL     1      15.775   4.376  92.823  1.00  0.00     0.178 C 
HETATM   34  O   UNL     1      16.202   3.864  94.086  1.00  0.00    -0.350 OA
HETATM   35  C   UNL     1      16.082   2.441  94.124  1.00  0.00     0.178 C 
HETATM   36  C   UNL     1      14.633   2.024  93.895  1.00  0.00     0.283 C 
ENDBRANCH  30  31
ENDBRANCH  27  30
ENDBRANCH  23  24
ENDBRANCH   4  22
TORSDOF 10
ENDMDL
MODEL 8
REMARK VINA RESULT:      -5.3      3.586     12.565
REMARK  10 active torsions:
REMARK  status: ('A' for Active; 'I' for Inactive)
REMARK    1  A    between atoms: O_2  and  C_16 
REMARK    2  A    between atoms: N_5  and  C_9 
REMARK    3  A    between atoms: N_6  and  C_13 
REMARK       I    between atoms: N_6  and  C_22 
REMARK    4  A    between atoms: C_9  and  C_12 
REMARK    5  A    between atoms: C_13  and  C_16 
REMARK    6  A    between atoms: C_13  and  C_21 
REMARK    7  A    between atoms: C_19  and  C_24 
REMARK    8  A    between atoms: C_22  and  C_23 
REMARK    9  A    between atoms: C_27  and  C_30 
REMARK   10  A    between atoms: N_33  and  S_34 
ROOT
HETATM    1  C   UNL     1      10.291   5.039  91.859  1.00  0.00     0.056 A 
HETATM    2  C   UNL     1      10.162   5.494  90.564  1.00  0.00     0.005 A 
HETATM    3  C   UNL     1       9.557   5.566  92.901  1.00  0.00     0.005 A 
HETATM    4  C   UNL     1       8.506   7.074  91.334  1.00  0.00     0.042 A 
HETATM    5  C   UNL     1       9.260   6.523  90.298  1.00  0.00     0.008 A 
HETATM    6  C   UNL     1       8.654   6.595  92.636  1.00  0.00     0.008 A 
ENDROOT
BRANCH   1   7
HETATM    7  C   UNL     1      11.251   3.940  92.142  1.00  0.00     0.254 C 
HETATM    8  O   UNL     1      10.887   2.775  92.006  1.00  0.00    -0.268 OA
HETATM    9  N   UNL     1      12.527   4.332  92.526  1.00  0.00    -0.337 N 
HETATM   10  HN  UNL     1      12.763   5.315  92.593  1.00  0.00     0.164 HD
BRANCH   9  11
HETATM   11  C   UNL     1      13.575   3.385  92.810  1.00  0.00     0.172 C 
BRANCH  11  12
HETATM   12  C   UNL     1      14.125   2.711  91.547  1.00  0.00     0.136 C 
HETATM   13  C   UNL     1      14.197   3.665  90.360  1.00  0.00     0.034 C 
BRANCH  12  14
HETATM   14  O   UNL     1      15.431   2.198  91.810  1.00  0.00    -0.383 OA
HETATM   15  H   UNL     1      16.072   2.918  91.687  1.00  0.00     0.210 HD
ENDBRANCH  12  14
ENDBRANCH  11  12
BRANCH  11  16
HETATM   16  C   UNL     1      14.674   4.122  93.568  1.00  0.00     0.398 A 
HETATM   17  O   UNL     1      15.254   5.108  93.117  1.00  0.00    -0.136 OA
HETATM   18  N   UNL     1      16.253   4.152  93.747  1.00  0.00     0.142 N 
HETATM   19  HN  UNL     1      16.879   4.859  93.482  1.00  0.00     0.338 HD
BRANCH  18  20
HETATM   20  S   UNL     1      16.441   2.826  94.123  1.00  0.00     0.076 SA
HETATM   21  H   UNL     1      17.435   2.301  93.738  1.00  0.00     0.136 HD
ENDBRANCH  18  20
ENDBRANCH  11  16
ENDBRANCH   9  11
ENDBRANCH   1   7
BRANCH   4  22
HETATM   22  C   UNL     1       7.582   8.131  91.062  1.00  0.00    -0.059 C 
HETATM   23  C   UNL     1       6.806   9.020  90.833  1.00  0.00    -0.059 C 
BRANCH  23  24
HETATM   24  C   UNL     1       5.881  10.077  90.560  1.00  0.00     0.042 A 
HETATM   25  C   UNL     1       6.233  11.099  89.678  1.00  0.00     0.008 A 
HETATM   26  C   UNL     1       5.332  12.131  89.414  1.00  0.00    -0.002 A 
HETATM   27  C   UNL     1       4.080  12.139  90.030  1.00  0.00     0.011 A 
HETATM   28  C   UNL     1       3.731  11.116  90.912  1.00  0.00    -0.002 A 
HETATM   29  C   UNL     1       4.632  10.085  91.176  1.00  0.00     0.008 A 
BRANCH  27  30
HETATM   30  C   UNL     1       3.118  13.241  89.745  1.00  0.00     0.277 C 
BRANCH  30  31
HETATM   31  N   UNL     1       3.085  14.242  90.811  1.00  0.00     0.147 N 
HETATM   32  C   UNL     1       2.235  13.791  91.922  1.00  0.00     0.283 C 
HETATM   33  C   UNL     1       2.225  14.845  93.026  1.00  0.00     0.178 C 
HETATM   34  O   UNL     1       3.555  15.096  93.485  1.00  0.00    -0.350 OA
HETATM   35  C   UNL     1       4.380  15.565  92.417  1.00  0.00     0.178 C 
HETATM   36  C   UNL     1       4.441  14.530  91.299  1.00  0.00     0.283 C 
ENDBRANCH  30  31
ENDBRANCH  27  30
ENDBRANCH  23  24
ENDBRANCH   4  22
TORSDOF 10
ENDMDL
MODEL 9
REMARK VINA RESULT:      -5.3      2.699      3.668
REMARK  10 active torsions:
REMARK  status: ('A' for Active; 'I' for Inactive)
REMARK    1  A    between atoms: O_2  and  C_16 
REMARK    2  A    between atoms: N_5  and  C_9 
REMARK    3  A    between atoms: N_6  and  C_13 
REMARK       I    between atoms: N_6  and  C_22 
REMARK    4  A    between atoms: C_9  and  C_12 
REMARK    5  A    between atoms: C_13  and  C_16 
REMARK    6  A    between atoms: C_13  and  C_21 
REMARK    7  A    between atoms: C_19  and  C_24 
REMARK    8  A    between atoms: C_22  and  C_23 
REMARK    9  A    between atoms: C_27  and  C_30 
REMARK   10  A    between atoms: N_33  and  S_34 
ROOT
HETATM    1  C   UNL     1       6.223   7.472  88.414  1.00  0.00     0.056 A 
HETATM    2  C   UNL     1       5.847   6.681  89.479  1.00  0.00     0.005 A 
HETATM    3  C   UNL     1       7.539   7.609  88.027  1.00  0.00     0.005 A 
HETATM    4  C   UNL     1       8.171   6.120  89.822  1.00  0.00     0.042 A 
HETATM    5  C   UNL     1       6.831   5.998  90.193  1.00  0.00     0.008 A 
HETATM    6  C   UNL     1       8.525   6.925  88.739  1.00  0.00     0.008 A 
ENDROOT
BRANCH   1   7
HETATM    7  C   UNL     1       5.173   8.198  87.653  1.00  0.00     0.254 C 
HETATM    8  O   UNL     1       5.086   8.028  86.439  1.00  0.00    -0.268 OA
HETATM    9  N   UNL     1       4.336   9.015  88.401  1.00  0.00    -0.337 N 
HETATM   10  HN  UNL     1       4.452   9.087  89.405  1.00  0.00     0.164 HD
BRANCH   9  11
HETATM   11  C   UNL     1       3.256   9.765  87.812  1.00  0.00     0.172 C 
BRANCH  11  12
HETATM   12  C   UNL     1       1.876   9.279  88.272  1.00  0.00     0.136 C 
HETATM   13  C   UNL     1       1.434   8.010  87.551  1.00  0.00     0.034 C 
BRANCH  12  14
HETATM   14  O   UNL     1       1.901   9.029  89.677  1.00  0.00    -0.383 OA
HETATM   15  H   UNL     1       1.258   9.621  90.103  1.00  0.00     0.210 HD
ENDBRANCH  12  14
ENDBRANCH  11  12
BRANCH  11  16
HETATM   16  C   UNL     1       3.469  11.236  88.156  1.00  0.00     0.398 A 
HETATM   17  O   UNL     1       4.521  11.831  87.931  1.00  0.00    -0.136 OA
HETATM   18  N   UNL     1       4.007  12.172  89.320  1.00  0.00     0.142 N 
HETATM   19  HN  UNL     1       4.805  12.744  89.318  1.00  0.00     0.338 HD
BRANCH  18  20
HETATM   20  S   UNL     1       3.180  11.723  90.344  1.00  0.00     0.076 SA
HETATM   21  H   UNL     1       2.961  12.489  91.225  1.00  0.00     0.136 HD
ENDBRANCH  18  20
ENDBRANCH  11  16
ENDBRANCH   9  11
ENDBRANCH   1   7
BRANCH   4  22
HETATM   22  C   UNL     1       9.181   5.422  90.554  1.00  0.00    -0.059 C 
HETATM   23  C   UNL     1      10.031   4.835  91.169  1.00  0.00    -0.059 C 
BRANCH  23  24
HETATM   24  C   UNL     1      11.042   4.136  91.903  1.00  0.00     0.042 A 
HETATM   25  C   UNL     1      11.288   4.465  93.235  1.00  0.00     0.008 A 
HETATM   26  C   UNL     1      12.275   3.787  93.949  1.00  0.00    -0.002 A 
HETATM   27  C   UNL     1      13.014   2.777  93.331  1.00  0.00     0.011 A 
HETATM   28  C   UNL     1      12.766   2.449  91.998  1.00  0.00    -0.002 A 
HETATM   29  C   UNL     1      11.779   3.129  91.284  1.00  0.00     0.008 A 
BRANCH  27  30
HETATM   30  C   UNL     1      14.067   2.051  94.096  1.00  0.00     0.277 C 
BRANCH  30  31
HETATM   31  N   UNL     1      15.336   2.776  94.123  1.00  0.00     0.147 N 
HETATM   32  C   UNL     1      16.183   2.387  92.988  1.00  0.00     0.283 C 
HETATM   33  C   UNL     1      17.496   3.164  93.031  1.00  0.00     0.178 C 
HETATM   34  O   UNL     1      17.242   4.570  93.006  1.00  0.00    -0.350 OA
HETATM   35  C   UNL     1      16.445   4.962  94.124  1.00  0.00     0.178 C 
HETATM   36  C   UNL     1      15.108   4.228  94.107  1.00  0.00     0.283 C 
ENDBRANCH  30  31
ENDBRANCH  27  30
ENDBRANCH  23  24
ENDBRANCH   4  22
TORSDOF 10
ENDMDL
