MODEL 1
REMARK VINA RESULT:      -6.7      0.000      0.000
REMARK  11 active torsions:
REMARK  status: ('A' for Active; 'I' for Inactive)
REMARK    1  A    between atoms: O_2  and  C_18 
REMARK    2  A    between atoms: O_5  and  P_8 
REMARK    3  A    between atoms: N_6  and  C_11 
REMARK    4  A    between atoms: N_7  and  C_15 
REMARK       I    between atoms: N_7  and  C_24 
REMARK    5  A    between atoms: P_8  and  C_23 
REMARK    6  A    between atoms: C_11  and  C_14 
REMARK    7  A    between atoms: C_15  and  C_18 
REMARK    8  A    between atoms: C_15  and  C_23 
REMARK    9  A    between atoms: C_21  and  C_26 
REMARK   10  A    between atoms: C_24  and  C_25 
REMARK   11  A    between atoms: C_29  and  C_32 
ROOT
HETATM    1  O   UNL     1      16.497   4.285  94.050  1.00  0.00     0.000 OA
HETATM    2  N   UNL     1      14.615   2.657  92.668  1.00  0.00     0.000 N 
HETATM    3  C   UNL     1      14.566   4.123  92.588  1.00  0.00     0.000 C 
HETATM    4  C   UNL     1      15.193   2.242  93.954  1.00  0.00     0.000 C 
HETATM    5  C   UNL     1      15.966   4.699  92.790  1.00  0.00     0.000 C 
HETATM    6  C   UNL     1      16.576   2.861  94.124  1.00  0.00     0.000 C 
ENDROOT
BRANCH   2   7
HETATM    7  C   UNL     1      13.282   2.084  92.489  1.00  0.00     0.000 C 
BRANCH   7   8
HETATM    8  C   UNL     1      12.253   3.122  92.194  1.00  0.00     0.000 A 
HETATM    9  C   UNL     1      11.767   3.271  90.894  1.00  0.00     0.000 A 
HETATM   10  C   UNL     1      10.806   4.243  90.617  1.00  0.00     0.000 A 
HETATM   11  C   UNL     1      10.330   5.064  91.639  1.00  0.00     0.000 A 
HETATM   12  C   UNL     1      10.815   4.915  92.937  1.00  0.00     0.000 A 
HETATM   13  C   UNL     1      11.776   3.944  93.215  1.00  0.00     0.000 A 
BRANCH  11  14
HETATM   14  C   UNL     1       9.343   6.059  91.355  1.00  0.00     0.000 C 
HETATM   15  C   UNL     1       8.513   6.896  91.117  1.00  0.00     0.000 C 
BRANCH  15  16
HETATM   16  C   UNL     1       7.527   7.892  90.832  1.00  0.00     0.000 A 
HETATM   17  C   UNL     1       7.701   9.196  91.295  1.00  0.00     0.000 A 
HETATM   18  C   UNL     1       6.740  10.168  91.015  1.00  0.00     0.000 A 
HETATM   19  C   UNL     1       5.629   9.814  90.279  1.00  0.00     0.000 A 
HETATM   20  C   UNL     1       5.434   8.532  89.811  1.00  0.00     0.000 A 
HETATM   21  C   UNL     1       6.394   7.559  90.090  1.00  0.00     0.000 A 
BRANCH  19  22
HETATM   22  C   UNL     1       4.605  10.849  89.983  1.00  0.00     0.000 C 
HETATM   23  O   UNL     1       3.484  10.498  89.623  1.00  0.00     0.000 OA
HETATM   24  N   UNL     1       5.001  12.167  90.166  1.00  0.00     0.000 N 
HETATM   25  HN  UNL     1       5.937  12.380  90.490  1.00  0.00     0.000 HD
BRANCH  24  26
HETATM   26  C   UNL     1       4.115  13.281  89.944  1.00  0.00     0.000 C 
BRANCH  26  27
HETATM   27  C   UNL     1       3.472  13.795  91.238  1.00  0.00     0.000 C 
HETATM   28  C   UNL     1       2.216  13.016  91.615  1.00  0.00     0.000 C 
BRANCH  27  29
HETATM   29  O   UNL     1       4.412  13.703  92.308  1.00  0.00     0.000 OA
HETATM   30  H   UNL     1       5.231  13.312  91.961  1.00  0.00     0.000 HD
ENDBRANCH  27  29
ENDBRANCH  26  27
BRANCH  26  31
HETATM   31  C   UNL     1       4.913  14.379  89.248  1.00  0.00     0.000 C 
HETATM   32  O   UNL     1       5.259  15.415  89.812  1.00  0.00     0.000 OA
BRANCH  31  33
HETATM   33  P   UNL     1       5.157  14.087  87.928  1.00  0.00     0.000 P 
HETATM   34  H   UNL     1       4.802  15.190  87.178  1.00  0.00     0.000 HD
BRANCH  33  35
HETATM   35  O   UNL     1       4.471  12.978  87.412  1.00  0.00     0.000 OA
HETATM   36  H   UNL     1       4.630  13.101  86.461  1.00  0.00     0.000 HD
ENDBRANCH  33  35
ENDBRANCH  31  33
ENDBRANCH  26  31
ENDBRANCH  24  26
ENDBRANCH  19  22
ENDBRANCH  15  16
ENDBRANCH  11  14
ENDBRANCH   7   8
ENDBRANCH   2   7
TORSDOF 11
ENDMDL
