MODEL 1
REMARK VINA RESULT:      -6.3      0.000      0.000
REMARK  10 active torsions:
REMARK  status: ('A' for Active; 'I' for Inactive)
REMARK    1  A    between atoms: O_2  and  C_18 
REMARK    2  A    between atoms: O_5  and  N_8 
REMARK    3  A    between atoms: N_6  and  C_11 
REMARK    4  A    between atoms: N_7  and  C_15 
REMARK       I    between atoms: N_7  and  C_24 
REMARK       I    between atoms: N_8  and  C_23 
REMARK    5  A    between atoms: C_11  and  C_14 
REMARK    6  A    between atoms: C_15  and  C_18 
REMARK    7  A    between atoms: C_15  and  C_23 
REMARK    8  A    between atoms: C_21  and  C_26 
REMARK    9  A    between atoms: C_24  and  C_25 
REMARK   10  A    between atoms: C_29  and  C_32 
ROOT
HETATM    1  O   UNK     0      16.456   3.148  93.726  0.00  0.00    -0.388 OA
HETATM    2  N   UNK     0      13.785   2.810  92.802  0.00  0.00     0.096 N 
HETATM    3  C   UNK     0      14.666   1.659  93.041  0.00  0.00     0.299 C 
HETATM    4  C   UNK     0      14.583   3.986  92.431  0.00  0.00     0.299 C 
HETATM    5  C   UNK     0      15.690   2.007  94.119  0.00  0.00     0.198 C 
HETATM    6  C   UNK     0      15.610   4.280  93.521  0.00  0.00     0.198 C 
ENDROOT
BRANCH   2   7
HETATM    7  C   UNK     0      12.801   2.503  91.765  0.00  0.00     0.311 C 
BRANCH   7   8
HETATM    8  C   UNK     0      11.728   3.534  91.676  0.00  0.00    -0.030 A 
HETATM    9  C   UNK     0      11.205   3.889  90.432  0.00  0.00     0.010 A 
HETATM   10  C   UNK     0      10.203   4.855  90.347  0.00  0.00     0.021 A 
HETATM   11  C   UNK     0       9.723   5.464  91.506  0.00  0.00     0.018 A 
HETATM   12  C   UNK     0      10.245   5.110  92.749  0.00  0.00     0.021 A 
HETATM   13  C   UNK     0      11.248   4.145  92.834  0.00  0.00     0.010 A 
BRANCH  11  14
HETATM   14  C   UNK     0       8.693   6.454  91.420  0.00  0.00    -0.061 C 
HETATM   15  C   UNK     0       7.828   7.285  91.347  0.00  0.00    -0.061 C 
BRANCH  15  16
HETATM   16  C   UNK     0       6.799   8.273  91.259  0.00  0.00     0.018 A 
HETATM   17  C   UNK     0       7.136   9.626  91.206  0.00  0.00     0.022 A 
HETATM   18  C   UNK     0       6.132  10.591  91.118  0.00  0.00     0.018 A 
HETATM   19  C   UNK     0       4.815  10.182  91.084  0.00  0.00     0.032 A 
HETATM   20  C   UNK     0       4.456   8.851  91.135  0.00  0.00     0.018 A 
HETATM   21  C   UNK     0       5.460   7.886  91.224  0.00  0.00     0.022 A 
BRANCH  19  22
HETATM   22  C   UNK     0       3.746  11.210  90.993  0.00  0.00     0.252 C 
HETATM   23  O   UNK     0       2.819  11.042  90.204  0.00  0.00    -0.268 OA
HETATM   24  N   UNK     0       3.872  12.296  91.847  0.00  0.00    -0.341 N 
HETATM   25  H   UNK     0       4.653  12.354  92.490  0.00  0.00     0.163 HD
BRANCH  24  26
HETATM   26  C   UNK     0       2.905  13.362  91.894  0.00  0.00     0.207 C 
BRANCH  26  27
HETATM   27  C   UNK     0       2.936  14.135  93.218  0.00  0.00     0.146 C 
HETATM   28  C   UNK     0       4.191  13.844  94.034  0.00  0.00     0.042 C 
BRANCH  27  29
HETATM   29  O   UNK     0       2.870  15.536  92.955  0.00  0.00    -0.393 OA
HETATM   30  H   UNK     0       2.022  15.870  93.293  0.00  0.00     0.210 HD
ENDBRANCH  27  29
ENDBRANCH  26  27
BRANCH  26  31
HETATM   31  C   UNK     0       3.169  14.284  90.708  0.00  0.00     0.266 C 
HETATM   32  O   UNK     0       2.329  14.518  89.841  0.00  0.00    -0.269 OA
HETATM   33  N   UNK     0       4.451  14.777  90.710  0.00  0.00    -0.236 N 
HETATM   34  H   UNK     0       5.194  14.536  91.356  0.00  0.00     0.197 HD
BRANCH  33  35
HETATM   35  O   UNK     0       4.788  15.605  89.629  0.00  0.00    -0.287 OA
HETATM   36  H   UNK     0       5.747  15.692  89.769  0.00  0.00     0.244 HD
ENDBRANCH  33  35
ENDBRANCH  26  31
ENDBRANCH  24  26
ENDBRANCH  19  22
ENDBRANCH  15  16
ENDBRANCH  11  14
ENDBRANCH   7   8
ENDBRANCH   2   7
TORSDOF 10
ENDMDL
MODEL 2
REMARK VINA RESULT:      -4.7      1.840     12.700
REMARK  10 active torsions:
REMARK  status: ('A' for Active; 'I' for Inactive)
REMARK    1  A    between atoms: O_2  and  C_18 
REMARK    2  A    between atoms: O_5  and  N_8 
REMARK    3  A    between atoms: N_6  and  C_11 
REMARK    4  A    between atoms: N_7  and  C_15 
REMARK       I    between atoms: N_7  and  C_24 
REMARK       I    between atoms: N_8  and  C_23 
REMARK    5  A    between atoms: C_11  and  C_14 
REMARK    6  A    between atoms: C_15  and  C_18 
REMARK    7  A    between atoms: C_15  and  C_23 
REMARK    8  A    between atoms: C_21  and  C_26 
REMARK    9  A    between atoms: C_24  and  C_25 
REMARK   10  A    between atoms: C_29  and  C_32 
ROOT
HETATM    1  O   UNK     0       3.251  14.034  92.519  0.00  0.00    -0.388 OA
HETATM    2  N   UNK     0       3.751  13.524  89.764  0.00  0.00     0.096 N 
HETATM    3  C   UNK     0       2.958  12.598  90.584  0.00  0.00     0.299 C 
HETATM    4  C   UNK     0       4.727  14.231  90.603  0.00  0.00     0.299 C 
HETATM    5  C   UNK     0       2.277  13.365  91.716  0.00  0.00     0.198 C 
HETATM    6  C   UNK     0       4.006  14.959  91.734  0.00  0.00     0.198 C 
ENDROOT
BRANCH   2   7
HETATM    7  C   UNK     0       4.421  12.809  88.679  0.00  0.00     0.311 C 
BRANCH   7   8
HETATM    8  C   UNK     0       5.304  11.717  89.178  0.00  0.00    -0.030 A 
HETATM    9  C   UNK     0       6.691  11.869  89.139  0.00  0.00     0.010 A 
HETATM   10  C   UNK     0       7.518  10.847  89.605  0.00  0.00     0.021 A 
HETATM   11  C   UNK     0       6.958   9.674  90.110  0.00  0.00     0.018 A 
HETATM   12  C   UNK     0       5.574   9.521  90.150  0.00  0.00     0.021 A 
HETATM   13  C   UNK     0       4.746  10.543  89.684  0.00  0.00     0.010 A 
BRANCH  11  14
HETATM   14  C   UNK     0       7.806   8.627  90.589  0.00  0.00    -0.061 C 
HETATM   15  C   UNK     0       8.519   7.746  90.992  0.00  0.00    -0.061 C 
BRANCH  15  16
HETATM   16  C   UNK     0       9.366   6.699  91.471  0.00  0.00     0.018 A 
HETATM   17  C   UNK     0       9.567   6.540  92.843  0.00  0.00     0.022 A 
HETATM   18  C   UNK     0      10.392   5.517  93.312  0.00  0.00     0.018 A 
HETATM   19  C   UNK     0      10.996   4.677  92.400  0.00  0.00     0.032 A 
HETATM   20  C   UNK     0      10.814   4.814  91.040  0.00  0.00     0.018 A 
HETATM   21  C   UNK     0       9.990   5.837  90.571  0.00  0.00     0.022 A 
BRANCH  19  22
HETATM   22  C   UNK     0      11.876   3.589  92.900  0.00  0.00     0.252 C 
HETATM   23  O   UNK     0      11.447   2.438  92.934  0.00  0.00    -0.268 OA
HETATM   24  N   UNK     0      13.157   3.968  93.276  0.00  0.00    -0.341 N 
HETATM   25  H   UNK     0      13.451   4.934  93.196  0.00  0.00     0.163 HD
BRANCH  24  26
HETATM   26  C   UNK     0      14.135   3.025  93.757  0.00  0.00     0.207 C 
BRANCH  26  27
HETATM   27  C   UNK     0      14.263   1.790  92.856  0.00  0.00     0.146 C 
HETATM   28  C   UNK     0      15.078   2.068  91.598  0.00  0.00     0.042 C 
BRANCH  27  29
HETATM   29  O   UNK     0      14.882   0.730  93.584  0.00  0.00    -0.393 OA
HETATM   30  H   UNK     0      14.259   0.424  94.265  0.00  0.00     0.210 HD
ENDBRANCH  27  29
ENDBRANCH  26  27
BRANCH  26  31
HETATM   31  C   UNK     0      15.466   3.758  93.886  0.00  0.00     0.266 C 
HETATM   32  O   UNK     0      15.564   4.982  93.825  0.00  0.00    -0.269 OA
HETATM   33  N   UNK     0      16.522   2.894  94.037  0.00  0.00    -0.236 N 
HETATM   34  H   UNK     0      16.488   1.881  94.002  0.00  0.00     0.197 HD
BRANCH  33  35
HETATM   35  O   UNK     0      17.789   3.488  94.124  0.00  0.00    -0.287 OA
HETATM   36  H   UNK     0      18.132   3.299  93.234  0.00  0.00     0.244 HD
ENDBRANCH  33  35
ENDBRANCH  26  31
ENDBRANCH  24  26
ENDBRANCH  19  22
ENDBRANCH  15  16
ENDBRANCH  11  14
ENDBRANCH   7   8
ENDBRANCH   2   7
TORSDOF 10
ENDMDL
MODEL 3
REMARK VINA RESULT:      -4.3      1.859     12.573
REMARK  10 active torsions:
REMARK  status: ('A' for Active; 'I' for Inactive)
REMARK    1  A    between atoms: O_2  and  C_18 
REMARK    2  A    between atoms: O_5  and  N_8 
REMARK    3  A    between atoms: N_6  and  C_11 
REMARK    4  A    between atoms: N_7  and  C_15 
REMARK       I    between atoms: N_7  and  C_24 
REMARK       I    between atoms: N_8  and  C_23 
REMARK    5  A    between atoms: C_11  and  C_14 
REMARK    6  A    between atoms: C_15  and  C_18 
REMARK    7  A    between atoms: C_15  and  C_23 
REMARK    8  A    between atoms: C_21  and  C_26 
REMARK    9  A    between atoms: C_24  and  C_25 
REMARK   10  A    between atoms: C_29  and  C_32 
ROOT
HETATM    1  O   UNK     0       5.678  15.141  89.389  0.00  0.00    -0.388 OA
HETATM    2  N   UNK     0       3.706  13.258  90.205  0.00  0.00     0.096 N 
HETATM    3  C   UNK     0       4.002  14.455  91.004  0.00  0.00     0.299 C 
HETATM    4  C   UNK     0       4.901  12.844  89.458  0.00  0.00     0.299 C 
HETATM    5  C   UNK     0       4.513  15.570  90.096  0.00  0.00     0.198 C 
HETATM    6  C   UNK     0       5.391  13.996  88.586  0.00  0.00     0.198 C 
ENDROOT
BRANCH   2   7
HETATM    7  C   UNK     0       3.224  12.173  91.058  0.00  0.00     0.311 C 
BRANCH   7   8
HETATM    8  C   UNK     0       4.261  11.126  91.284  0.00  0.00    -0.030 A 
HETATM    9  C   UNK     0       4.163   9.896  90.632  0.00  0.00     0.010 A 
HETATM   10  C   UNK     0       5.131   8.914  90.844  0.00  0.00     0.021 A 
HETATM   11  C   UNK     0       6.198   9.164  91.707  0.00  0.00     0.018 A 
HETATM   12  C   UNK     0       6.297  10.392  92.358  0.00  0.00     0.021 A 
HETATM   13  C   UNK     0       5.329  11.373  92.146  0.00  0.00     0.010 A 
BRANCH  11  14
HETATM   14  C   UNK     0       7.192   8.158  91.923  0.00  0.00    -0.061 C 
HETATM   15  C   UNK     0       8.027   7.313  92.104  0.00  0.00    -0.061 C 
BRANCH  15  16
HETATM   16  C   UNK     0       9.019   6.307  92.321  0.00  0.00     0.018 A 
HETATM   17  C   UNK     0       9.485   5.546  91.248  0.00  0.00     0.022 A 
HETATM   18  C   UNK     0      10.455   4.566  91.459  0.00  0.00     0.018 A 
HETATM   19  C   UNK     0      10.938   4.369  92.735  0.00  0.00     0.032 A 
HETATM   20  C   UNK     0      10.494   5.108  93.812  0.00  0.00     0.018 A 
HETATM   21  C   UNK     0       9.523   6.088  93.602  0.00  0.00     0.022 A 
BRANCH  19  22
HETATM   22  C   UNK     0      11.970   3.324  92.960  0.00  0.00     0.252 C 
HETATM   23  O   UNK     0      11.718   2.159  92.661  0.00  0.00    -0.268 OA
HETATM   24  N   UNK     0      13.178   3.764  93.481  0.00  0.00    -0.341 N 
HETATM   25  H   UNK     0      13.323   4.747  93.681  0.00  0.00     0.163 HD
BRANCH  24  26
HETATM   26  C   UNK     0      14.284   2.876  93.732  0.00  0.00     0.207 C 
BRANCH  26  27
HETATM   27  C   UNK     0      14.430   1.791  92.657  0.00  0.00     0.146 C 
HETATM   28  C   UNK     0      15.494   2.135  91.621  0.00  0.00     0.042 C 
BRANCH  27  29
HETATM   29  O   UNK     0      14.768   0.549  93.275  0.00  0.00    -0.393 OA
HETATM   30  H   UNK     0      15.460   0.717  93.937  0.00  0.00     0.210 HD
ENDBRANCH  27  29
ENDBRANCH  26  27
BRANCH  26  31
HETATM   31  C   UNK     0      15.548   3.723  93.839  0.00  0.00     0.266 C 
HETATM   32  O   UNK     0      16.649   3.252  94.119  0.00  0.00    -0.269 OA
HETATM   33  N   UNK     0      15.297   5.057  93.625  0.00  0.00    -0.236 N 
HETATM   34  H   UNK     0      14.392   5.489  93.482  0.00  0.00     0.197 HD
BRANCH  33  35
HETATM   35  O   UNK     0      16.402   5.912  93.743  0.00  0.00    -0.287 OA
HETATM   36  H   UNK     0      16.891   5.678  92.936  0.00  0.00     0.244 HD
ENDBRANCH  33  35
ENDBRANCH  26  31
ENDBRANCH  24  26
ENDBRANCH  19  22
ENDBRANCH  15  16
ENDBRANCH  11  14
ENDBRANCH   7   8
ENDBRANCH   2   7
TORSDOF 10
ENDMDL
MODEL 4
REMARK VINA RESULT:      -3.8      1.314      1.723
REMARK  10 active torsions:
REMARK  status: ('A' for Active; 'I' for Inactive)
REMARK    1  A    between atoms: O_2  and  C_18 
REMARK    2  A    between atoms: O_5  and  N_8 
REMARK    3  A    between atoms: N_6  and  C_11 
REMARK    4  A    between atoms: N_7  and  C_15 
REMARK       I    between atoms: N_7  and  C_24 
REMARK       I    between atoms: N_8  and  C_23 
REMARK    5  A    between atoms: C_11  and  C_14 
REMARK    6  A    between atoms: C_15  and  C_18 
REMARK    7  A    between atoms: C_15  and  C_23 
REMARK    8  A    between atoms: C_21  and  C_26 
REMARK    9  A    between atoms: C_24  and  C_25 
REMARK   10  A    between atoms: C_29  and  C_32 
ROOT
HETATM    1  O   UNK     0      15.996   4.654  92.593  0.00  0.00    -0.388 OA
HETATM    2  N   UNK     0      13.946   2.688  92.785  0.00  0.00     0.096 N 
HETATM    3  C   UNK     0      13.828   3.834  91.872  0.00  0.00     0.299 C 
HETATM    4  C   UNK     0      14.774   3.051  93.943  0.00  0.00     0.299 C 
HETATM    5  C   UNK     0      15.218   4.301  91.447  0.00  0.00     0.198 C 
HETATM    6  C   UNK     0      16.141   3.537  93.470  0.00  0.00     0.198 C 
ENDROOT
BRANCH   2   7
HETATM    7  C   UNK     0      12.626   2.230  93.214  0.00  0.00     0.311 C 
BRANCH   7   8
HETATM    8  C   UNK     0      11.587   3.292  93.087  0.00  0.00    -0.030 A 
HETATM    9  C   UNK     0      10.718   3.288  91.996  0.00  0.00     0.010 A 
HETATM   10  C   UNK     0       9.747   4.282  91.875  0.00  0.00     0.021 A 
HETATM   11  C   UNK     0       9.645   5.278  92.846  0.00  0.00     0.018 A 
HETATM   12  C   UNK     0      10.512   5.282  93.936  0.00  0.00     0.021 A 
HETATM   13  C   UNK     0      11.484   4.289  94.057  0.00  0.00     0.010 A 
BRANCH  11  14
HETATM   14  C   UNK     0       8.647   6.296  92.722  0.00  0.00    -0.061 C 
HETATM   15  C   UNK     0       7.809   7.152  92.619  0.00  0.00    -0.061 C 
BRANCH  15  16
HETATM   16  C   UNK     0       6.813   8.168  92.495  0.00  0.00     0.018 A 
HETATM   17  C   UNK     0       5.868   8.096  91.470  0.00  0.00     0.022 A 
HETATM   18  C   UNK     0       4.894   9.087  91.349  0.00  0.00     0.018 A 
HETATM   19  C   UNK     0       4.885  10.127  92.255  0.00  0.00     0.032 A 
HETATM   20  C   UNK     0       5.807  10.222  93.277  0.00  0.00     0.018 A 
HETATM   21  C   UNK     0       6.782   9.231  93.397  0.00  0.00     0.022 A 
BRANCH  19  22
HETATM   22  C   UNK     0       3.848  11.183  92.125  0.00  0.00     0.252 C 
HETATM   23  O   UNK     0       2.695  10.938  92.472  0.00  0.00    -0.268 OA
HETATM   24  N   UNK     0       4.283  12.405  91.631  0.00  0.00    -0.341 N 
HETATM   25  H   UNK     0       5.258  12.542  91.389  0.00  0.00     0.163 HD
BRANCH  24  26
HETATM   26  C   UNK     0       3.403  13.535  91.470  0.00  0.00     0.207 C 
BRANCH  26  27
HETATM   27  C   UNK     0       3.244  14.352  92.758  0.00  0.00     0.146 C 
HETATM   28  C   UNK     0       4.504  15.135  93.112  0.00  0.00     0.042 C 
BRANCH  27  29
HETATM   29  O   UNK     0       2.157  15.264  92.613  0.00  0.00    -0.393 OA
HETATM   30  H   UNK     0       2.323  16.031  93.187  0.00  0.00     0.210 HD
ENDBRANCH  27  29
ENDBRANCH  26  27
BRANCH  26  31
HETATM   31  C   UNK     0       3.949  14.392  90.333  0.00  0.00     0.266 C 
HETATM   32  O   UNK     0       3.820  15.614  90.294  0.00  0.00    -0.269 OA
HETATM   33  N   UNK     0       4.557  13.637  89.359  0.00  0.00    -0.236 N 
HETATM   34  H   UNK     0       4.602  12.626  89.315  0.00  0.00     0.197 HD
BRANCH  33  35
HETATM   35  O   UNK     0       5.053  14.348  88.257  0.00  0.00    -0.287 OA
HETATM   36  H   UNK     0       4.776  13.762  87.532  0.00  0.00     0.244 HD
ENDBRANCH  33  35
ENDBRANCH  26  31
ENDBRANCH  24  26
ENDBRANCH  19  22
ENDBRANCH  15  16
ENDBRANCH  11  14
ENDBRANCH   7   8
ENDBRANCH   2   7
TORSDOF 10
ENDMDL
MODEL 5
REMARK VINA RESULT:      -3.4      1.983     12.693
REMARK  10 active torsions:
REMARK  status: ('A' for Active; 'I' for Inactive)
REMARK    1  A    between atoms: O_2  and  C_18 
REMARK    2  A    between atoms: O_5  and  N_8 
REMARK    3  A    between atoms: N_6  and  C_11 
REMARK    4  A    between atoms: N_7  and  C_15 
REMARK       I    between atoms: N_7  and  C_24 
REMARK       I    between atoms: N_8  and  C_23 
REMARK    5  A    between atoms: C_11  and  C_14 
REMARK    6  A    between atoms: C_15  and  C_18 
REMARK    7  A    between atoms: C_15  and  C_23 
REMARK    8  A    between atoms: C_21  and  C_26 
REMARK    9  A    between atoms: C_24  and  C_25 
REMARK   10  A    between atoms: C_29  and  C_32 
ROOT
HETATM    1  O   UNK     0       3.495  14.232  89.599  0.00  0.00    -0.388 OA
HETATM    2  N   UNK     0       2.965  13.736  92.351  0.00  0.00     0.096 N 
HETATM    3  C   UNK     0       4.331  13.967  91.861  0.00  0.00     0.299 C 
HETATM    4  C   UNK     0       2.145  13.136  91.291  0.00  0.00     0.299 C 
HETATM    5  C   UNK     0       4.292  14.845  90.613  0.00  0.00     0.198 C 
HETATM    6  C   UNK     0       2.157  14.033  90.056  0.00  0.00     0.198 C 
ENDROOT
BRANCH   2   7
HETATM    7  C   UNK     0       2.978  12.887  93.541  0.00  0.00     0.311 C 
BRANCH   7   8
HETATM    8  C   UNK     0       3.981  11.788  93.444  0.00  0.00    -0.030 A 
HETATM    9  C   UNK     0       5.335  12.092  93.302  0.00  0.00     0.010 A 
HETATM   10  C   UNK     0       6.274  11.064  93.208  0.00  0.00     0.021 A 
HETATM   11  C   UNK     0       5.857   9.734  93.259  0.00  0.00     0.018 A 
HETATM   12  C   UNK     0       4.505   9.430  93.401  0.00  0.00     0.021 A 
HETATM   13  C   UNK     0       3.566  10.457  93.494  0.00  0.00     0.010 A 
BRANCH  11  14
HETATM   14  C   UNK     0       6.821   8.680  93.166  0.00  0.00    -0.061 C 
HETATM   15  C   UNK     0       7.630   7.795  93.088  0.00  0.00    -0.061 C 
BRANCH  15  16
HETATM   16  C   UNK     0       8.593   6.743  92.995  0.00  0.00     0.018 A 
HETATM   17  C   UNK     0       8.363   5.661  92.143  0.00  0.00     0.022 A 
HETATM   18  C   UNK     0       9.304   4.636  92.051  0.00  0.00     0.018 A 
HETATM   19  C   UNK     0      10.453   4.714  92.810  0.00  0.00     0.032 A 
HETATM   20  C   UNK     0      10.703   5.772  93.659  0.00  0.00     0.018 A 
HETATM   21  C   UNK     0       9.763   6.797  93.752  0.00  0.00     0.022 A 
BRANCH  19  22
HETATM   22  C   UNK     0      11.453   3.620  92.712  0.00  0.00     0.252 C 
HETATM   23  O   UNK     0      11.074   2.453  92.771  0.00  0.00    -0.268 OA
HETATM   24  N   UNK     0      12.772   4.016  92.534  0.00  0.00    -0.341 N 
HETATM   25  H   UNK     0      13.007   4.999  92.469  0.00  0.00     0.163 HD
BRANCH  24  26
HETATM   26  C   UNK     0      13.853   3.073  92.397  0.00  0.00     0.207 C 
BRANCH  26  27
HETATM   27  C   UNK     0      14.298   2.888  90.941  0.00  0.00     0.146 C 
HETATM   28  C   UNK     0      13.508   3.761  89.973  0.00  0.00     0.042 C 
BRANCH  27  29
HETATM   29  O   UNK     0      15.685   3.203  90.823  0.00  0.00    -0.393 OA
HETATM   30  H   UNK     0      16.141   2.433  90.443  0.00  0.00     0.210 HD
ENDBRANCH  27  29
ENDBRANCH  26  27
BRANCH  26  31
HETATM   31  C   UNK     0      15.005   3.556  93.272  0.00  0.00     0.266 C 
HETATM   32  O   UNK     0      15.026   4.668  93.799  0.00  0.00    -0.269 OA
HETATM   33  N   UNK     0      16.013   2.627  93.364  0.00  0.00    -0.236 N 
HETATM   34  H   UNK     0      16.068   1.742  92.873  0.00  0.00     0.197 HD
BRANCH  33  35
HETATM   35  O   UNK     0      17.129   3.009  94.121  0.00  0.00    -0.287 OA
HETATM   36  H   UNK     0      17.511   3.688  93.538  0.00  0.00     0.244 HD
ENDBRANCH  33  35
ENDBRANCH  26  31
ENDBRANCH  24  26
ENDBRANCH  19  22
ENDBRANCH  15  16
ENDBRANCH  11  14
ENDBRANCH   7   8
ENDBRANCH   2   7
TORSDOF 10
ENDMDL
