MODEL 1
REMARK VINA RESULT:      -6.6      0.000      0.000
REMARK  14 active torsions:
REMARK  status: ('A' for Active; 'I' for Inactive)
REMARK    1  A    between atoms: O_2  and  C_18 
REMARK    2  A    between atoms: C_5  and  C_8 
REMARK    3  A    between atoms: C_5  and  O_35 
REMARK    4  A    between atoms: C_5  and  C_36 
REMARK    5  A    between atoms: N_6  and  C_11 
REMARK    6  A    between atoms: N_7  and  C_15 
REMARK       I    between atoms: N_7  and  C_24 
REMARK    7  A    between atoms: C_8  and  C_23 
REMARK    8  A    between atoms: C_11  and  C_14 
REMARK    9  A    between atoms: C_15  and  C_18 
REMARK   10  A    between atoms: C_15  and  C_23 
REMARK   11  A    between atoms: C_21  and  C_26 
REMARK   12  A    between atoms: C_24  and  C_25 
REMARK   13  A    between atoms: C_29  and  C_32 
REMARK   14  A    between atoms: C_36  and  O_39 
ROOT
HETATM    1  O   UNL     1      16.449   3.235  93.789  1.00  0.00    -0.350 OA
HETATM    2  N   UNL     1      13.837   2.884  92.713  1.00  0.00     0.147 N 
HETATM    3  C   UNL     1      14.715   1.738  92.987  1.00  0.00     0.283 C 
HETATM    4  C   UNL     1      14.643   4.073  92.402  1.00  0.00     0.283 C 
HETATM    5  C   UNL     1      15.674   2.082  94.124  1.00  0.00     0.178 C 
HETATM    6  C   UNL     1      15.604   4.362  93.551  1.00  0.00     0.178 C 
ENDROOT
BRANCH   2   7
HETATM    7  C   UNL     1      12.916   2.580  91.620  1.00  0.00     0.277 C 
BRANCH   7   8
HETATM    8  C   UNL     1      11.769   3.531  91.562  1.00  0.00     0.011 A 
HETATM    9  C   UNL     1      11.460   4.318  92.672  1.00  0.00    -0.002 A 
HETATM   10  C   UNL     1      10.386   5.207  92.620  1.00  0.00     0.008 A 
HETATM   11  C   UNL     1       9.624   5.309  91.457  1.00  0.00     0.042 A 
HETATM   12  C   UNL     1       9.932   4.525  90.347  1.00  0.00     0.008 A 
HETATM   13  C   UNL     1      11.005   3.635  90.399  1.00  0.00    -0.002 A 
BRANCH  11  14
HETATM   14  C   UNL     1       8.524   6.223  91.402  1.00  0.00    -0.059 C 
HETATM   15  C   UNL     1       7.599   6.990  91.357  1.00  0.00    -0.059 C 
BRANCH  15  16
HETATM   16  C   UNL     1       6.499   7.902  91.304  1.00  0.00     0.042 A 
HETATM   17  C   UNL     1       5.857   8.149  90.090  1.00  0.00     0.008 A 
HETATM   18  C   UNL     1       4.783   9.037  90.039  1.00  0.00     0.005 A 
HETATM   19  C   UNL     1       4.375   9.657  91.201  1.00  0.00     0.056 A 
HETATM   20  C   UNL     1       4.993   9.430  92.413  1.00  0.00     0.005 A 
HETATM   21  C   UNL     1       6.067   8.542  92.465  1.00  0.00     0.008 A 
BRANCH  19  22
HETATM   22  C   UNL     1       3.231  10.604  91.145  1.00  0.00     0.254 C 
HETATM   23  O   UNL     1       2.119  10.184  90.836  1.00  0.00    -0.268 OA
HETATM   24  N   UNL     1       3.516  11.921  91.481  1.00  0.00    -0.335 N 
HETATM   25  HN  UNL     1       4.454  12.190  91.752  1.00  0.00     0.164 HD
BRANCH  24  26
HETATM   26  C   UNL     1       2.509  12.951  91.498  1.00  0.00     0.169 C 
BRANCH  26  27
HETATM   27  C   UNL     1       2.438  13.690  92.841  1.00  0.00     0.138 C 
HETATM   28  C   UNL     1       3.818  14.036  93.390  1.00  0.00     0.034 C 
BRANCH  27  29
HETATM   29  O   UNL     1       1.687  14.893  92.685  1.00  0.00    -0.383 OA
HETATM   30  H   UNL     1       0.985  14.732  92.031  1.00  0.00     0.210 HD
ENDBRANCH  27  29
ENDBRANCH  26  27
BRANCH  26  31
HETATM   31  C   UNL     1       2.806  13.912  90.352  1.00  0.00     0.194 C 
HETATM   32  O   UNL     1       1.929  14.400  89.642  1.00  0.00    -0.289 OA
BRANCH  31  33
HETATM   33  C   UNL     1       4.154  14.127  90.191  1.00  0.00     0.053 C 
BRANCH  33  34
HETATM   34  C   UNL     1       4.604  14.217  88.866  1.00  0.00     0.220 C 
BRANCH  34  35
HETATM   35  O   UNL     1       5.686  14.833  88.873  1.00  0.00    -0.371 OA
HETATM   36  H   UNL     1       5.636  15.200  88.004  1.00  0.00     0.211 HD
ENDBRANCH  34  35
BRANCH  34  37
HETATM   37  C   UNL     1       4.702  12.972  88.223  1.00  0.00     0.185 C 
HETATM   38  O   UNL     1       6.002  13.175  88.376  1.00  0.00    -0.647 OA
BRANCH  37  39
HETATM   39  O   UNL     1       3.954  12.174  87.742  1.00  0.00    -0.774 OA
HETATM   40  H   UNL     1       4.281  11.110  87.959  1.00  0.00     0.167 HD
ENDBRANCH  37  39
ENDBRANCH  34  37
ENDBRANCH  33  34
ENDBRANCH  31  33
ENDBRANCH  26  31
ENDBRANCH  24  26
ENDBRANCH  19  22
ENDBRANCH  15  16
ENDBRANCH  11  14
ENDBRANCH   7   8
ENDBRANCH   2   7
TORSDOF 14
ENDMDL
