MODEL 1
REMARK VINA RESULT:      -6.8      0.000      0.000
REMARK  10 active torsions:
REMARK  status: ('A' for Active; 'I' for Inactive)
REMARK    1  A    between atoms: O_2  and  C_16 
REMARK    2  A    between atoms: N_5  and  C_9 
REMARK    3  A    between atoms: N_6  and  C_13 
REMARK       I    between atoms: N_6  and  C_22 
REMARK    4  A    between atoms: C_9  and  C_12 
REMARK    5  A    between atoms: C_13  and  C_16 
REMARK    6  A    between atoms: C_13  and  C_21 
REMARK    7  A    between atoms: C_19  and  C_24 
REMARK    8  A    between atoms: C_22  and  C_23 
REMARK    9  A    between atoms: C_27  and  C_30 
REMARK   10  A    between atoms: N_33  and  S_34 
ROOT
HETATM    1  C   UNL     1       5.771  11.279  89.940  1.00  0.00     0.056 A 
HETATM    2  C   UNL     1       5.319  10.240  90.726  1.00  0.00     0.005 A 
HETATM    3  C   UNL     1       7.030  11.283  89.377  1.00  0.00     0.005 A 
HETATM    4  C   UNL     1       7.443   9.136  90.403  1.00  0.00     0.042 A 
HETATM    5  C   UNL     1       6.164   9.155  90.960  1.00  0.00     0.008 A 
HETATM    6  C   UNL     1       7.876  10.199  89.611  1.00  0.00     0.008 A 
ENDROOT
BRANCH   1   7
HETATM    7  C   UNL     1       4.869  12.433  89.689  1.00  0.00     0.254 C 
HETATM    8  O   UNL     1       4.805  12.909  88.558  1.00  0.00    -0.268 OA
HETATM    9  N   UNL     1       4.133  12.878  90.778  1.00  0.00    -0.337 N 
HETATM   10  HN  UNL     1       4.219  12.419  91.677  1.00  0.00     0.164 HD
BRANCH   9  11
HETATM   11  C   UNL     1       3.198  13.971  90.688  1.00  0.00     0.172 C 
BRANCH  11  12
HETATM   12  C   UNL     1       1.858  13.663  91.368  1.00  0.00     0.136 C 
HETATM   13  C   UNL     1       1.947  12.480  92.326  1.00  0.00     0.034 C 
BRANCH  12  14
HETATM   14  O   UNL     1       1.414  14.812  92.090  1.00  0.00    -0.383 OA
HETATM   15  H   UNL     1       2.173  15.181  92.572  1.00  0.00     0.210 HD
ENDBRANCH  12  14
ENDBRANCH  11  12
BRANCH  11  16
HETATM   16  C   UNL     1       3.860  15.202  91.299  1.00  0.00     0.398 A 
HETATM   17  O   UNL     1       4.956  15.623  90.934  1.00  0.00    -0.136 OA
HETATM   18  N   UNL     1       4.868  15.625  92.452  1.00  0.00     0.142 N 
HETATM   19  HN  UNL     1       5.767  16.006  92.360  1.00  0.00     0.338 HD
BRANCH  18  20
HETATM   20  S   UNL     1       4.197  15.057  93.529  1.00  0.00     0.076 SA
HETATM   21  H   UNL     1       4.780  15.032  94.564  1.00  0.00     0.136 HD
ENDBRANCH  18  20
ENDBRANCH  11  16
ENDBRANCH   9  11
ENDBRANCH   1   7
BRANCH   4  22
HETATM   22  C   UNL     1       8.310   8.025  90.646  1.00  0.00    -0.059 C 
HETATM   23  C   UNL     1       9.040   7.091  90.849  1.00  0.00    -0.059 C 
BRANCH  23  24
HETATM   24  C   UNL     1       9.908   5.980  91.091  1.00  0.00     0.042 A 
HETATM   25  C   UNL     1      10.060   5.485  92.386  1.00  0.00     0.008 A 
HETATM   26  C   UNL     1      10.908   4.403  92.622  1.00  0.00    -0.002 A 
HETATM   27  C   UNL     1      11.601   3.816  91.563  1.00  0.00     0.011 A 
HETATM   28  C   UNL     1      11.448   4.312  90.269  1.00  0.00    -0.002 A 
HETATM   29  C   UNL     1      10.600   5.395  90.033  1.00  0.00     0.008 A 
BRANCH  27  30
HETATM   30  C   UNL     1      12.506   2.658  91.817  1.00  0.00     0.277 C 
BRANCH  30  31
HETATM   31  N   UNL     1      13.544   2.967  92.799  1.00  0.00     0.147 N 
HETATM   32  C   UNL     1      14.342   1.771  93.106  1.00  0.00     0.283 C 
HETATM   33  C   UNL     1      15.425   2.120  94.124  1.00  0.00     0.178 C 
HETATM   34  O   UNL     1      16.261   3.164  93.622  1.00  0.00    -0.350 OA
HETATM   35  C   UNL     1      15.498   4.340  93.351  1.00  0.00     0.178 C 
HETATM   36  C   UNL     1      14.417   4.045  92.316  1.00  0.00     0.283 C 
ENDBRANCH  30  31
ENDBRANCH  27  30
ENDBRANCH  23  24
ENDBRANCH   4  22
TORSDOF 10
ENDMDL
