MODEL 1
REMARK VINA RESULT:      -6.3      0.000      0.000
REMARK  12 active torsions:
REMARK  status: ('A' for Active; 'I' for Inactive)
REMARK    1  A    between atoms: O_2  and  C_16 
REMARK    2  A    between atoms: N_5  and  C_9 
REMARK    3  A    between atoms: N_6  and  C_13 
REMARK       I    between atoms: N_6  and  C_22 
REMARK    4  A    between atoms: C_9  and  C_12 
REMARK    5  A    between atoms: C_13  and  C_16 
REMARK    6  A    between atoms: C_13  and  C_21 
REMARK    7  A    between atoms: C_19  and  C_24 
REMARK    8  A    between atoms: C_21  and  C_33 
REMARK    9  A    between atoms: C_22  and  C_23 
REMARK   10  A    between atoms: C_27  and  C_30 
REMARK   11  A    between atoms: C_33  and  C_34 
REMARK   12  A    between atoms: C_34  and  C_35 
ROOT
HETATM    1  O   UNL     1      16.034   4.320  93.922  1.00  0.00    -0.350 OA
HETATM    2  N   UNL     1      14.299   2.576  92.489  1.00  0.00     0.147 N 
HETATM    3  C   UNL     1      14.260   4.031  92.290  1.00  0.00     0.283 C 
HETATM    4  C   UNL     1      14.744   2.267  93.855  1.00  0.00     0.283 C 
HETATM    5  C   UNL     1      15.633   4.630  92.585  1.00  0.00     0.178 C 
HETATM    6  C   UNL     1      16.104   2.907  94.115  1.00  0.00     0.178 C 
ENDROOT
BRANCH   2   7
HETATM    7  C   UNL     1      12.990   1.982  92.222  1.00  0.00     0.277 C 
BRANCH   7   8
HETATM    8  C   UNL     1      11.905   3.002  92.161  1.00  0.00     0.011 A 
HETATM    9  C   UNL     1      11.573   3.734  93.302  1.00  0.00    -0.002 A 
HETATM   10  C   UNL     1      10.556   4.687  93.247  1.00  0.00     0.008 A 
HETATM   11  C   UNL     1       9.874   4.910  92.051  1.00  0.00     0.042 A 
HETATM   12  C   UNL     1      10.206   4.180  90.911  1.00  0.00     0.008 A 
HETATM   13  C   UNL     1      11.222   3.226  90.966  1.00  0.00    -0.002 A 
BRANCH  11  14
HETATM   14  C   UNL     1       8.833   5.889  91.994  1.00  0.00    -0.059 C 
HETATM   15  C   UNL     1       7.958   6.713  91.946  1.00  0.00    -0.059 C 
BRANCH  15  16
HETATM   16  C   UNL     1       6.918   7.692  91.889  1.00  0.00     0.042 A 
HETATM   17  C   UNL     1       7.171   9.002  92.296  1.00  0.00     0.008 A 
HETATM   18  C   UNL     1       6.156   9.957  92.238  1.00  0.00     0.005 A 
HETATM   19  C   UNL     1       4.913   9.582  91.772  1.00  0.00     0.056 A 
HETATM   20  C   UNL     1       4.638   8.294  91.364  1.00  0.00     0.005 A 
HETATM   21  C   UNL     1       5.652   7.337  91.422  1.00  0.00     0.008 A 
BRANCH  19  22
HETATM   22  C   UNL     1       3.832  10.600  91.712  1.00  0.00     0.254 C 
HETATM   23  O   UNL     1       2.662  10.229  91.663  1.00  0.00    -0.268 OA
HETATM   24  N   UNL     1       4.243  11.925  91.740  1.00  0.00    -0.335 N 
HETATM   25  HN  UNL     1       5.227  12.156  91.807  1.00  0.00     0.164 HD
BRANCH  24  26
HETATM   26  C   UNL     1       3.313  13.026  91.713  1.00  0.00     0.166 C 
BRANCH  26  27
HETATM   27  C   UNL     1       3.767  14.208  92.579  1.00  0.00     0.138 C 
HETATM   28  C   UNL     1       2.597  14.946  93.220  1.00  0.00     0.034 C 
BRANCH  27  29
HETATM   29  O   UNL     1       4.639  13.739  93.607  1.00  0.00    -0.383 OA
HETATM   30  H   UNL     1       5.467  14.245  93.559  1.00  0.00     0.210 HD
ENDBRANCH  27  29
ENDBRANCH  26  27
BRANCH  26  31
HETATM   31  C   UNL     1       3.128  13.443  90.258  1.00  0.00     0.181 C 
HETATM   32  O   UNL     1       2.266  14.242  89.895  1.00  0.00    -0.294 OA
BRANCH  31  33
HETATM   33  C   UNL     1       4.519  13.946  89.594  1.00  0.00     0.138 C 
BRANCH  33  34
HETATM   34  C   UNL     1       4.543  13.187  88.403  1.00  0.00     0.208 C 
HETATM   35  O   UNL     1       5.217  13.632  87.502  1.00  0.00    -0.289 OA
BRANCH  34  36
HETATM   36  C   UNL     1       4.173  11.891  88.169  1.00  0.00     0.194 C 
HETATM   37  O   UNL     1       4.870  10.698  88.390  1.00  0.00    -0.185 OA
ENDBRANCH  34  36
ENDBRANCH  33  34
ENDBRANCH  31  33
ENDBRANCH  26  31
ENDBRANCH  24  26
ENDBRANCH  19  22
ENDBRANCH  15  16
ENDBRANCH  11  14
ENDBRANCH   7   8
ENDBRANCH   2   7
TORSDOF 12
ENDMDL
MODEL 2
REMARK VINA RESULT:      -5.3      2.669     12.692
REMARK  12 active torsions:
REMARK  status: ('A' for Active; 'I' for Inactive)
REMARK    1  A    between atoms: O_2  and  C_16 
REMARK    2  A    between atoms: N_5  and  C_9 
REMARK    3  A    between atoms: N_6  and  C_13 
REMARK       I    between atoms: N_6  and  C_22 
REMARK    4  A    between atoms: C_9  and  C_12 
REMARK    5  A    between atoms: C_13  and  C_16 
REMARK    6  A    between atoms: C_13  and  C_21 
REMARK    7  A    between atoms: C_19  and  C_24 
REMARK    8  A    between atoms: C_21  and  C_33 
REMARK    9  A    between atoms: C_22  and  C_23 
REMARK   10  A    between atoms: C_27  and  C_30 
REMARK   11  A    between atoms: C_33  and  C_34 
REMARK   12  A    between atoms: C_34  and  C_35 
ROOT
HETATM    1  O   UNL     1       3.065  14.784  94.073  1.00  0.00    -0.350 OA
HETATM    2  N   UNL     1       2.750  14.607  91.249  1.00  0.00     0.147 N 
HETATM    3  C   UNL     1       1.703  14.141  92.170  1.00  0.00     0.283 C 
HETATM    4  C   UNL     1       4.069  14.485  91.885  1.00  0.00     0.283 C 
HETATM    5  C   UNL     1       1.775  14.929  93.476  1.00  0.00     0.178 C 
HETATM    6  C   UNL     1       4.086  15.263  93.197  1.00  0.00     0.178 C 
ENDROOT
BRANCH   2   7
HETATM    7  C   UNL     1       2.706  13.858  89.995  1.00  0.00     0.277 C 
BRANCH   7   8
HETATM    8  C   UNL     1       3.697  12.744  89.963  1.00  0.00     0.011 A 
HETATM    9  C   UNL     1       3.351  11.490  90.467  1.00  0.00    -0.002 A 
HETATM   10  C   UNL     1       4.278  10.448  90.439  1.00  0.00     0.008 A 
HETATM   11  C   UNL     1       5.549  10.661  89.906  1.00  0.00     0.042 A 
HETATM   12  C   UNL     1       5.895  11.913  89.402  1.00  0.00     0.008 A 
HETATM   13  C   UNL     1       4.968  12.955  89.430  1.00  0.00    -0.002 A 
BRANCH  11  14
HETATM   14  C   UNL     1       6.499   9.591  89.876  1.00  0.00    -0.059 C 
HETATM   15  C   UNL     1       7.297   8.693  89.851  1.00  0.00    -0.059 C 
BRANCH  15  16
HETATM   16  C   UNL     1       8.246   7.623  89.821  1.00  0.00     0.042 A 
HETATM   17  C   UNL     1       8.305   6.715  90.879  1.00  0.00     0.008 A 
HETATM   18  C   UNL     1       9.229   5.671  90.848  1.00  0.00     0.005 A 
HETATM   19  C   UNL     1      10.071   5.557  89.762  1.00  0.00     0.056 A 
HETATM   20  C   UNL     1      10.032   6.442  88.704  1.00  0.00     0.005 A 
HETATM   21  C   UNL     1       9.109   7.487  88.734  1.00  0.00     0.008 A 
BRANCH  19  22
HETATM   22  C   UNL     1      11.056   4.445  89.730  1.00  0.00     0.254 C 
HETATM   23  O   UNL     1      11.118   3.726  88.736  1.00  0.00    -0.268 OA
HETATM   24  N   UNL     1      11.867   4.320  90.850  1.00  0.00    -0.335 N 
HETATM   25  HN  UNL     1      11.777   4.967  91.624  1.00  0.00     0.164 HD
BRANCH  24  26
HETATM   26  C   UNL     1      12.887   3.307  90.959  1.00  0.00     0.166 C 
BRANCH  26  27
HETATM   27  C   UNL     1      14.302   3.867  90.770  1.00  0.00     0.138 C 
HETATM   28  C   UNL     1      15.070   3.151  89.664  1.00  0.00     0.034 C 
BRANCH  27  29
HETATM   29  O   UNL     1      14.228   5.257  90.457  1.00  0.00    -0.383 OA
HETATM   30  H   UNL     1      13.454   5.631  90.911  1.00  0.00     0.210 HD
ENDBRANCH  27  29
ENDBRANCH  26  27
BRANCH  26  31
HETATM   31  C   UNL     1      12.733   2.637  92.321  1.00  0.00     0.181 C 
HETATM   32  O   UNL     1      11.866   1.798  92.560  1.00  0.00    -0.294 OA
BRANCH  31  33
HETATM   33  C   UNL     1      14.131   2.004  92.842  1.00  0.00     0.138 C 
BRANCH  33  34
HETATM   34  C   UNL     1      14.658   3.081  93.588  1.00  0.00     0.208 C 
HETATM   35  O   UNL     1      13.849   3.803  94.124  1.00  0.00    -0.289 OA
BRANCH  34  36
HETATM   36  C   UNL     1      15.924   3.301  94.056  1.00  0.00     0.194 C 
HETATM   37  O   UNL     1      17.163   2.923  93.526  1.00  0.00    -0.185 OA
ENDBRANCH  34  36
ENDBRANCH  33  34
ENDBRANCH  31  33
ENDBRANCH  26  31
ENDBRANCH  24  26
ENDBRANCH  19  22
ENDBRANCH  15  16
ENDBRANCH  11  14
ENDBRANCH   7   8
ENDBRANCH   2   7
TORSDOF 12
ENDMDL
MODEL 3
REMARK VINA RESULT:      -4.5      1.421      1.884
REMARK  12 active torsions:
REMARK  status: ('A' for Active; 'I' for Inactive)
REMARK    1  A    between atoms: O_2  and  C_16 
REMARK    2  A    between atoms: N_5  and  C_9 
REMARK    3  A    between atoms: N_6  and  C_13 
REMARK       I    between atoms: N_6  and  C_22 
REMARK    4  A    between atoms: C_9  and  C_12 
REMARK    5  A    between atoms: C_13  and  C_16 
REMARK    6  A    between atoms: C_13  and  C_21 
REMARK    7  A    between atoms: C_19  and  C_24 
REMARK    8  A    between atoms: C_21  and  C_33 
REMARK    9  A    between atoms: C_22  and  C_23 
REMARK   10  A    between atoms: C_27  and  C_30 
REMARK   11  A    between atoms: C_33  and  C_34 
REMARK   12  A    between atoms: C_34  and  C_35 
ROOT
HETATM    1  O   UNL     1      17.270   2.547  92.392  1.00  0.00    -0.350 OA
HETATM    2  N   UNL     1      14.533   2.881  93.097  1.00  0.00     0.147 N 
HETATM    3  C   UNL     1      15.581   2.773  94.120  1.00  0.00     0.283 C 
HETATM    4  C   UNL     1      14.931   2.146  91.888  1.00  0.00     0.283 C 
HETATM    5  C   UNL     1      16.906   3.285  93.560  1.00  0.00     0.178 C 
HETATM    6  C   UNL     1      16.270   2.672  91.380  1.00  0.00     0.178 C 
ENDROOT
BRANCH   2   7
HETATM    7  C   UNL     1      13.256   2.385  93.609  1.00  0.00     0.277 C 
BRANCH   7   8
HETATM    8  C   UNL     1      12.119   3.287  93.270  1.00  0.00     0.011 A 
HETATM    9  C   UNL     1      11.344   3.036  92.137  1.00  0.00    -0.002 A 
HETATM   10  C   UNL     1      10.281   3.880  91.818  1.00  0.00     0.008 A 
HETATM   11  C   UNL     1       9.993   4.975  92.632  1.00  0.00     0.042 A 
HETATM   12  C   UNL     1      10.766   5.227  93.764  1.00  0.00     0.008 A 
HETATM   13  C   UNL     1      11.830   4.383  94.083  1.00  0.00    -0.002 A 
BRANCH  11  14
HETATM   14  C   UNL     1       8.901   5.840  92.306  1.00  0.00    -0.059 C 
HETATM   15  C   UNL     1       7.983   6.567  92.031  1.00  0.00    -0.059 C 
BRANCH  15  16
HETATM   16  C   UNL     1       6.892   7.431  91.705  1.00  0.00     0.042 A 
HETATM   17  C   UNL     1       6.672   7.805  90.379  1.00  0.00     0.008 A 
HETATM   18  C   UNL     1       5.605   8.646  90.061  1.00  0.00     0.005 A 
HETATM   19  C   UNL     1       4.783   9.093  91.075  1.00  0.00     0.056 A 
HETATM   20  C   UNL     1       4.980   8.738  92.393  1.00  0.00     0.005 A 
HETATM   21  C   UNL     1       6.047   7.897  92.712  1.00  0.00     0.008 A 
BRANCH  19  22
HETATM   22  C   UNL     1       3.649   9.990  90.736  1.00  0.00     0.254 C 
HETATM   23  O   UNL     1       2.842   9.639  89.878  1.00  0.00    -0.268 OA
HETATM   24  N   UNL     1       3.576  11.176  91.453  1.00  0.00    -0.335 N 
HETATM   25  HN  UNL     1       4.265  11.388  92.165  1.00  0.00     0.164 HD
BRANCH  24  26
HETATM   26  C   UNL     1       2.521  12.138  91.257  1.00  0.00     0.166 C 
BRANCH  26  27
HETATM   27  C   UNL     1       2.017  12.743  92.573  1.00  0.00     0.138 C 
HETATM   28  C   UNL     1       2.100  11.761  93.736  1.00  0.00     0.034 C 
BRANCH  27  29
HETATM   29  O   UNL     1       2.785  13.903  92.890  1.00  0.00    -0.383 OA
HETATM   30  H   UNL     1       3.707  13.740  92.627  1.00  0.00     0.210 HD
ENDBRANCH  27  29
ENDBRANCH  26  27
BRANCH  26  31
HETATM   31  C   UNL     1       3.045  13.217  90.315  1.00  0.00     0.181 C 
HETATM   32  O   UNL     1       2.416  14.241  90.055  1.00  0.00    -0.294 OA
BRANCH  31  33
HETATM   33  C   UNL     1       4.540  13.695  90.718  1.00  0.00     0.138 C 
BRANCH  33  34
HETATM   34  C   UNL     1       5.032  14.136  89.469  1.00  0.00     0.208 C 
HETATM   35  O   UNL     1       5.199  15.329  89.355  1.00  0.00    -0.289 OA
BRANCH  34  36
HETATM   36  C   UNL     1       5.627  13.439  88.454  1.00  0.00     0.194 C 
HETATM   37  O   UNL     1       6.600  12.435  88.495  1.00  0.00    -0.185 OA
ENDBRANCH  34  36
ENDBRANCH  33  34
ENDBRANCH  31  33
ENDBRANCH  26  31
ENDBRANCH  24  26
ENDBRANCH  19  22
ENDBRANCH  15  16
ENDBRANCH  11  14
ENDBRANCH   7   8
ENDBRANCH   2   7
TORSDOF 12
ENDMDL
MODEL 4
REMARK VINA RESULT:      -4.3      1.298      1.825
REMARK  12 active torsions:
REMARK  status: ('A' for Active; 'I' for Inactive)
REMARK    1  A    between atoms: O_2  and  C_16 
REMARK    2  A    between atoms: N_5  and  C_9 
REMARK    3  A    between atoms: N_6  and  C_13 
REMARK       I    between atoms: N_6  and  C_22 
REMARK    4  A    between atoms: C_9  and  C_12 
REMARK    5  A    between atoms: C_13  and  C_16 
REMARK    6  A    between atoms: C_13  and  C_21 
REMARK    7  A    between atoms: C_19  and  C_24 
REMARK    8  A    between atoms: C_21  and  C_33 
REMARK    9  A    between atoms: C_22  and  C_23 
REMARK   10  A    between atoms: C_27  and  C_30 
REMARK   11  A    between atoms: C_33  and  C_34 
REMARK   12  A    between atoms: C_34  and  C_35 
ROOT
HETATM    1  O   UNL     1      16.632   4.094  93.427  1.00  0.00    -0.350 OA
HETATM    2  N   UNL     1      14.583   2.242  92.741  1.00  0.00     0.147 N 
HETATM    3  C   UNL     1      14.737   3.517  92.025  1.00  0.00     0.283 C 
HETATM    4  C   UNL     1      15.064   2.379  94.122  1.00  0.00     0.283 C 
HETATM    5  C   UNL     1      16.197   3.962  92.073  1.00  0.00     0.178 C 
HETATM    6  C   UNL     1      16.514   2.852  94.121  1.00  0.00     0.178 C 
ENDROOT
BRANCH   2   7
HETATM    7  C   UNL     1      13.189   1.802  92.717  1.00  0.00     0.277 C 
BRANCH   7   8
HETATM    8  C   UNL     1      12.233   2.943  92.644  1.00  0.00     0.011 A 
HETATM    9  C   UNL     1      11.890   3.640  93.804  1.00  0.00    -0.002 A 
HETATM   10  C   UNL     1      10.994   4.707  93.737  1.00  0.00     0.008 A 
HETATM   11  C   UNL     1      10.444   5.078  92.511  1.00  0.00     0.042 A 
HETATM   12  C   UNL     1      10.786   4.384  91.352  1.00  0.00     0.008 A 
HETATM   13  C   UNL     1      11.681   3.316  91.419  1.00  0.00    -0.002 A 
BRANCH  11  14
HETATM   14  C   UNL     1       9.527   6.174  92.442  1.00  0.00    -0.059 C 
HETATM   15  C   UNL     1       8.756   7.095  92.384  1.00  0.00    -0.059 C 
BRANCH  15  16
HETATM   16  C   UNL     1       7.839   8.189  92.315  1.00  0.00     0.042 A 
HETATM   17  C   UNL     1       6.782   8.156  91.405  1.00  0.00     0.008 A 
HETATM   18  C   UNL     1       5.886   9.223  91.340  1.00  0.00     0.005 A 
HETATM   19  C   UNL     1       6.065  10.297  92.186  1.00  0.00     0.056 A 
HETATM   20  C   UNL     1       7.102  10.354  93.093  1.00  0.00     0.005 A 
HETATM   21  C   UNL     1       7.999   9.288  93.159  1.00  0.00     0.008 A 
BRANCH  19  22
HETATM   22  C   UNL     1       5.111  11.434  92.115  1.00  0.00     0.254 C 
HETATM   23  O   UNL     1       4.536  11.799  93.137  1.00  0.00    -0.268 OA
HETATM   24  N   UNL     1       4.961  12.025  90.867  1.00  0.00    -0.335 N 
HETATM   25  HN  UNL     1       5.489  11.685  90.072  1.00  0.00     0.164 HD
BRANCH  24  26
HETATM   26  C   UNL     1       4.092  13.152  90.643  1.00  0.00     0.166 C 
BRANCH  26  27
HETATM   27  C   UNL     1       4.547  14.411  91.392  1.00  0.00     0.138 C 
HETATM   28  C   UNL     1       4.727  15.609  90.467  1.00  0.00     0.034 C 
BRANCH  27  29
HETATM   29  O   UNL     1       3.587  14.741  92.396  1.00  0.00    -0.383 OA
HETATM   30  H   UNL     1       3.162  15.580  92.147  1.00  0.00     0.210 HD
ENDBRANCH  27  29
ENDBRANCH  26  27
BRANCH  26  31
HETATM   31  C   UNL     1       4.026  13.396  89.139  1.00  0.00     0.181 C 
HETATM   32  O   UNL     1       4.551  14.366  88.594  1.00  0.00    -0.294 OA
BRANCH  31  33
HETATM   33  C   UNL     1       4.496  12.094  88.296  1.00  0.00     0.138 C 
BRANCH  33  34
HETATM   34  C   UNL     1       3.329  11.300  88.346  1.00  0.00     0.208 C 
HETATM   35  O   UNL     1       2.325  11.799  87.892  1.00  0.00    -0.289 OA
BRANCH  34  36
HETATM   36  C   UNL     1       3.179   9.956  88.555  1.00  0.00     0.194 C 
HETATM   37  O   UNL     1       2.477   9.269  89.552  1.00  0.00    -0.185 OA
ENDBRANCH  34  36
ENDBRANCH  33  34
ENDBRANCH  31  33
ENDBRANCH  26  31
ENDBRANCH  24  26
ENDBRANCH  19  22
ENDBRANCH  15  16
ENDBRANCH  11  14
ENDBRANCH   7   8
ENDBRANCH   2   7
TORSDOF 12
ENDMDL
MODEL 5
REMARK VINA RESULT:      -4.3      2.719     12.330
REMARK  12 active torsions:
REMARK  status: ('A' for Active; 'I' for Inactive)
REMARK    1  A    between atoms: O_2  and  C_16 
REMARK    2  A    between atoms: N_5  and  C_9 
REMARK    3  A    between atoms: N_6  and  C_13 
REMARK       I    between atoms: N_6  and  C_22 
REMARK    4  A    between atoms: C_9  and  C_12 
REMARK    5  A    between atoms: C_13  and  C_16 
REMARK    6  A    between atoms: C_13  and  C_21 
REMARK    7  A    between atoms: C_19  and  C_24 
REMARK    8  A    between atoms: C_21  and  C_33 
REMARK    9  A    between atoms: C_22  and  C_23 
REMARK   10  A    between atoms: C_27  and  C_30 
REMARK   11  A    between atoms: C_33  and  C_34 
REMARK   12  A    between atoms: C_34  and  C_35 
ROOT
HETATM    1  O   UNL     1       2.927  14.697  93.847  1.00  0.00    -0.350 OA
HETATM    2  N   UNL     1       2.612  14.708  91.018  1.00  0.00     0.147 N 
HETATM    3  C   UNL     1       1.774  13.863  91.881  1.00  0.00     0.283 C 
HETATM    4  C   UNL     1       3.922  14.926  91.647  1.00  0.00     0.283 C 
HETATM    5  C   UNL     1       1.639  14.506  93.259  1.00  0.00     0.178 C 
HETATM    6  C   UNL     1       3.737  15.543  93.029  1.00  0.00     0.178 C 
ENDROOT
BRANCH   2   7
HETATM    7  C   UNL     1       2.764  14.105  89.695  1.00  0.00     0.277 C 
BRANCH   7   8
HETATM    8  C   UNL     1       3.761  12.997  89.687  1.00  0.00     0.011 A 
HETATM    9  C   UNL     1       5.073  13.244  89.281  1.00  0.00    -0.002 A 
HETATM   10  C   UNL     1       6.007  12.208  89.270  1.00  0.00     0.008 A 
HETATM   11  C   UNL     1       5.628  10.926  89.668  1.00  0.00     0.042 A 
HETATM   12  C   UNL     1       4.318  10.678  90.074  1.00  0.00     0.008 A 
HETATM   13  C   UNL     1       3.385  11.714  90.083  1.00  0.00    -0.002 A 
BRANCH  11  14
HETATM   14  C   UNL     1       6.586   9.863  89.659  1.00  0.00    -0.059 C 
HETATM   15  C   UNL     1       7.392   8.971  89.651  1.00  0.00    -0.059 C 
BRANCH  15  16
HETATM   16  C   UNL     1       8.350   7.910  89.643  1.00  0.00     0.042 A 
HETATM   17  C   UNL     1       9.256   7.798  88.588  1.00  0.00     0.008 A 
HETATM   18  C   UNL     1      10.192   6.764  88.582  1.00  0.00     0.005 A 
HETATM   19  C   UNL     1      10.203   5.867  89.630  1.00  0.00     0.056 A 
HETATM   20  C   UNL     1       9.318   5.956  90.684  1.00  0.00     0.005 A 
HETATM   21  C   UNL     1       8.381   6.990  90.691  1.00  0.00     0.008 A 
BRANCH  19  22
HETATM   22  C   UNL     1      11.199   4.765  89.621  1.00  0.00     0.254 C 
HETATM   23  O   UNL     1      11.302   4.057  88.623  1.00  0.00    -0.268 OA
HETATM   24  N   UNL     1      11.972   4.636  90.767  1.00  0.00    -0.335 N 
HETATM   25  HN  UNL     1      11.849   5.274  91.544  1.00  0.00     0.164 HD
BRANCH  24  26
HETATM   26  C   UNL     1      12.997   3.632  90.901  1.00  0.00     0.166 C 
BRANCH  26  27
HETATM   27  C   UNL     1      14.249   4.154  91.617  1.00  0.00     0.138 C 
HETATM   28  C   UNL     1      15.243   3.043  91.939  1.00  0.00     0.034 C 
BRANCH  27  29
HETATM   29  O   UNL     1      14.894   5.130  90.800  1.00  0.00    -0.383 OA
HETATM   30  H   UNL     1      14.212   5.711  90.424  1.00  0.00     0.210 HD
ENDBRANCH  27  29
ENDBRANCH  26  27
BRANCH  26  31
HETATM   31  C   UNL     1      12.391   2.443  91.641  1.00  0.00     0.181 C 
HETATM   32  O   UNL     1      13.034   1.738  92.416  1.00  0.00    -0.294 OA
BRANCH  31  33
HETATM   33  C   UNL     1      11.030   2.851  92.423  1.00  0.00     0.138 C 
BRANCH  33  34
HETATM   34  C   UNL     1      11.555   3.444  93.593  1.00  0.00     0.208 C 
HETATM   35  O   UNL     1      12.504   2.884  94.094  1.00  0.00    -0.289 OA
BRANCH  34  36
HETATM   36  C   UNL     1      11.370   4.695  94.113  1.00  0.00     0.194 C 
HETATM   37  O   UNL     1      10.975   5.884  93.491  1.00  0.00    -0.185 OA
ENDBRANCH  34  36
ENDBRANCH  33  34
ENDBRANCH  31  33
ENDBRANCH  26  31
ENDBRANCH  24  26
ENDBRANCH  19  22
ENDBRANCH  15  16
ENDBRANCH  11  14
ENDBRANCH   7   8
ENDBRANCH   2   7
TORSDOF 12
ENDMDL
MODEL 6
REMARK VINA RESULT:      -3.5      1.867      3.345
REMARK  12 active torsions:
REMARK  status: ('A' for Active; 'I' for Inactive)
REMARK    1  A    between atoms: O_2  and  C_16 
REMARK    2  A    between atoms: N_5  and  C_9 
REMARK    3  A    between atoms: N_6  and  C_13 
REMARK       I    between atoms: N_6  and  C_22 
REMARK    4  A    between atoms: C_9  and  C_12 
REMARK    5  A    between atoms: C_13  and  C_16 
REMARK    6  A    between atoms: C_13  and  C_21 
REMARK    7  A    between atoms: C_19  and  C_24 
REMARK    8  A    between atoms: C_21  and  C_33 
REMARK    9  A    between atoms: C_22  and  C_23 
REMARK   10  A    between atoms: C_27  and  C_30 
REMARK   11  A    between atoms: C_33  and  C_34 
REMARK   12  A    between atoms: C_34  and  C_35 
ROOT
HETATM    1  O   UNL     1      16.944   3.454  92.893  1.00  0.00    -0.350 OA
HETATM    2  N   UNL     1      14.664   1.752  92.982  1.00  0.00     0.147 N 
HETATM    3  C   UNL     1      15.124   2.354  91.723  1.00  0.00     0.283 C 
HETATM    4  C   UNL     1      15.022   2.617  94.114  1.00  0.00     0.283 C 
HETATM    5  C   UNL     1      16.628   2.604  91.788  1.00  0.00     0.178 C 
HETATM    6  C   UNL     1      16.528   2.861  94.124  1.00  0.00     0.178 C 
ENDROOT
BRANCH   2   7
HETATM    7  C   UNL     1      13.222   1.513  92.945  1.00  0.00     0.277 C 
BRANCH   7   8
HETATM    8  C   UNL     1      12.457   2.721  92.523  1.00  0.00     0.011 A 
HETATM    9  C   UNL     1      11.816   3.509  93.480  1.00  0.00    -0.002 A 
HETATM   10  C   UNL     1      11.098   4.638  93.085  1.00  0.00     0.008 A 
HETATM   11  C   UNL     1      11.024   4.980  91.736  1.00  0.00     0.042 A 
HETATM   12  C   UNL     1      11.664   4.194  90.779  1.00  0.00     0.008 A 
HETATM   13  C   UNL     1      12.381   3.064  91.173  1.00  0.00    -0.002 A 
BRANCH  11  14
HETATM   14  C   UNL     1      10.290   6.139  91.332  1.00  0.00    -0.059 C 
HETATM   15  C   UNL     1       9.672   7.114  90.991  1.00  0.00    -0.059 C 
BRANCH  15  16
HETATM   16  C   UNL     1       8.938   8.272  90.587  1.00  0.00     0.042 A 
HETATM   17  C   UNL     1       8.248   8.271  89.375  1.00  0.00     0.008 A 
HETATM   18  C   UNL     1       7.529   9.400  88.982  1.00  0.00     0.005 A 
HETATM   19  C   UNL     1       7.516  10.503  89.810  1.00  0.00     0.056 A 
HETATM   20  C   UNL     1       8.190  10.529  91.013  1.00  0.00     0.005 A 
HETATM   21  C   UNL     1       8.909   9.400  91.407  1.00  0.00     0.008 A 
BRANCH  19  22
HETATM   22  C   UNL     1       6.751  11.706  89.390  1.00  0.00     0.254 C 
HETATM   23  O   UNL     1       7.226  12.450  88.536  1.00  0.00    -0.268 OA
HETATM   24  N   UNL     1       5.516  11.884  89.998  1.00  0.00    -0.335 N 
HETATM   25  HN  UNL     1       5.178  11.214  90.678  1.00  0.00     0.164 HD
BRANCH  24  26
HETATM   26  C   UNL     1       4.647  12.989  89.679  1.00  0.00     0.166 C 
BRANCH  26  27
HETATM   27  C   UNL     1       4.193  12.983  88.214  1.00  0.00     0.138 C 
HETATM   28  C   UNL     1       5.060  13.874  87.331  1.00  0.00     0.034 C 
BRANCH  27  29
HETATM   29  O   UNL     1       4.233  11.649  87.707  1.00  0.00    -0.383 OA
HETATM   30  H   UNL     1       3.625  11.593  86.950  1.00  0.00     0.210 HD
ENDBRANCH  27  29
ENDBRANCH  26  27
BRANCH  26  31
HETATM   31  C   UNL     1       3.456  12.933  90.629  1.00  0.00     0.181 C 
HETATM   32  O   UNL     1       2.403  12.363  90.350  1.00  0.00    -0.294 OA
BRANCH  31  33
HETATM   33  C   UNL     1       3.882  12.400  92.099  1.00  0.00     0.138 C 
BRANCH  33  34
HETATM   34  C   UNL     1       3.179  11.176  92.161  1.00  0.00     0.208 C 
HETATM   35  O   UNL     1       3.776  10.199  91.772  1.00  0.00    -0.289 OA
BRANCH  34  36
HETATM   36  C   UNL     1       2.043  10.839  92.846  1.00  0.00     0.194 C 
HETATM   37  O   UNL     1       1.480   9.584  93.100  1.00  0.00    -0.185 OA
ENDBRANCH  34  36
ENDBRANCH  33  34
ENDBRANCH  31  33
ENDBRANCH  26  31
ENDBRANCH  24  26
ENDBRANCH  19  22
ENDBRANCH  15  16
ENDBRANCH  11  14
ENDBRANCH   7   8
ENDBRANCH   2   7
TORSDOF 12
ENDMDL
MODEL 7
REMARK VINA RESULT:      -3.3      1.664      2.329
REMARK  12 active torsions:
REMARK  status: ('A' for Active; 'I' for Inactive)
REMARK    1  A    between atoms: O_2  and  C_16 
REMARK    2  A    between atoms: N_5  and  C_9 
REMARK    3  A    between atoms: N_6  and  C_13 
REMARK       I    between atoms: N_6  and  C_22 
REMARK    4  A    between atoms: C_9  and  C_12 
REMARK    5  A    between atoms: C_13  and  C_16 
REMARK    6  A    between atoms: C_13  and  C_21 
REMARK    7  A    between atoms: C_19  and  C_24 
REMARK    8  A    between atoms: C_21  and  C_33 
REMARK    9  A    between atoms: C_22  and  C_23 
REMARK   10  A    between atoms: C_27  and  C_30 
REMARK   11  A    between atoms: C_33  and  C_34 
REMARK   12  A    between atoms: C_34  and  C_35 
ROOT
HETATM    1  O   UNL     1      14.302   4.391  90.051  1.00  0.00    -0.350 OA
HETATM    2  N   UNL     1      13.060   2.973  92.184  1.00  0.00     0.147 N 
HETATM    3  C   UNL     1      12.307   3.372  90.986  1.00  0.00     0.283 C 
HETATM    4  C   UNL     1      14.159   3.917  92.426  1.00  0.00     0.283 C 
HETATM    5  C   UNL     1      13.250   3.460  89.789  1.00  0.00     0.178 C 
HETATM    6  C   UNL     1      15.057   3.993  91.196  1.00  0.00     0.178 C 
ENDROOT
BRANCH   2   7
HETATM    7  C   UNL     1      12.177   2.893  93.347  1.00  0.00     0.277 C 
BRANCH   7   8
HETATM    8  C   UNL     1      11.119   3.942  93.330  1.00  0.00     0.011 A 
HETATM    9  C   UNL     1       9.995   3.785  92.518  1.00  0.00    -0.002 A 
HETATM   10  C   UNL     1       9.005   4.767  92.500  1.00  0.00     0.008 A 
HETATM   11  C   UNL     1       9.139   5.905  93.295  1.00  0.00     0.042 A 
HETATM   12  C   UNL     1      10.261   6.063  94.106  1.00  0.00     0.008 A 
HETATM   13  C   UNL     1      11.251   5.082  94.124  1.00  0.00    -0.002 A 
BRANCH  11  14
HETATM   14  C   UNL     1       8.122   6.912  93.278  1.00  0.00    -0.059 C 
HETATM   15  C   UNL     1       7.268   7.758  93.263  1.00  0.00    -0.059 C 
BRANCH  15  16
HETATM   16  C   UNL     1       6.252   8.764  93.245  1.00  0.00     0.042 A 
HETATM   17  C   UNL     1       4.974   8.455  92.777  1.00  0.00     0.008 A 
HETATM   18  C   UNL     1       3.982   9.435  92.763  1.00  0.00     0.005 A 
HETATM   19  C   UNL     1       4.289  10.701  93.216  1.00  0.00     0.056 A 
HETATM   20  C   UNL     1       5.544  11.031  93.683  1.00  0.00     0.005 A 
HETATM   21  C   UNL     1       6.537  10.052  93.698  1.00  0.00     0.008 A 
BRANCH  19  22
HETATM   22  C   UNL     1       3.233  11.745  93.198  1.00  0.00     0.254 C 
HETATM   23  O   UNL     1       2.395  11.767  94.097  1.00  0.00    -0.268 OA
HETATM   24  N   UNL     1       3.293  12.654  92.151  1.00  0.00    -0.335 N 
HETATM   25  HN  UNL     1       4.030  12.589  91.458  1.00  0.00     0.164 HD
BRANCH  24  26
HETATM   26  C   UNL     1       2.355  13.738  92.009  1.00  0.00     0.166 C 
BRANCH  26  27
HETATM   27  C   UNL     1       2.706  14.946  92.887  1.00  0.00     0.138 C 
HETATM   28  C   UNL     1       1.624  15.255  93.915  1.00  0.00     0.034 C 
BRANCH  27  29
HETATM   29  O   UNL     1       3.936  14.699  93.568  1.00  0.00    -0.383 OA
HETATM   30  H   UNL     1       3.796  14.856  94.517  1.00  0.00     0.210 HD
ENDBRANCH  27  29
ENDBRANCH  26  27
BRANCH  26  31
HETATM   31  C   UNL     1       2.305  14.121  90.534  1.00  0.00     0.181 C 
HETATM   32  O   UNL     1       1.449  14.869  90.065  1.00  0.00    -0.294 OA
BRANCH  31  33
HETATM   33  C   UNL     1       3.732  14.681  90.008  1.00  0.00     0.138 C 
BRANCH  33  34
HETATM   34  C   UNL     1       4.233  13.552  89.323  1.00  0.00     0.208 C 
HETATM   35  O   UNL     1       3.421  12.707  89.023  1.00  0.00    -0.289 OA
BRANCH  34  36
HETATM   36  C   UNL     1       5.426  13.361  88.681  1.00  0.00     0.194 C 
HETATM   37  O   UNL     1       6.342  12.306  88.769  1.00  0.00    -0.185 OA
ENDBRANCH  34  36
ENDBRANCH  33  34
ENDBRANCH  31  33
ENDBRANCH  26  31
ENDBRANCH  24  26
ENDBRANCH  19  22
ENDBRANCH  15  16
ENDBRANCH  11  14
ENDBRANCH   7   8
ENDBRANCH   2   7
TORSDOF 12
ENDMDL
