MODEL 1
REMARK VINA RESULT:      -7.0      0.000      0.000
REMARK  9 active torsions:
REMARK  status: ('A' for Active; 'I' for Inactive)
REMARK    1  A    between atoms: O_2  and  C_17 
REMARK    2  A    between atoms: N_5  and  C_10 
REMARK    3  A    between atoms: N_6  and  C_14 
REMARK       I    between atoms: N_6  and  C_23 
REMARK       I    between atoms: N_7  and  C_22 
REMARK    4  A    between atoms: C_10  and  C_13 
REMARK    5  A    between atoms: C_14  and  C_17 
REMARK    6  A    between atoms: C_14  and  C_22 
REMARK    7  A    between atoms: C_20  and  C_25 
REMARK    8  A    between atoms: C_23  and  C_24 
REMARK    9  A    between atoms: C_28  and  C_31 
ROOT
HETATM    1  O   UNL     1      16.814   3.798  93.702  1.00  0.00    -0.388 OA
HETATM    2  N   UNL     1      14.161   2.935  93.138  1.00  0.00     0.096 N 
HETATM    3  C   UNL     1      15.287   1.991  93.160  1.00  0.00     0.299 C 
HETATM    4  C   UNL     1      14.632   4.273  92.753  1.00  0.00     0.299 C 
HETATM    5  C   UNL     1      16.371   2.502  94.106  1.00  0.00     0.198 C 
HETATM    6  C   UNL     1      15.731   4.729  93.708  1.00  0.00     0.198 C 
ENDROOT
BRANCH   2   7
HETATM    7  C   UNL     1      13.114   2.472  92.229  1.00  0.00     0.311 C 
BRANCH   7   8
HETATM    8  C   UNL     1      12.146   3.550  91.879  1.00  0.00    -0.030 A 
HETATM    9  C   UNL     1      11.425   4.192  92.887  1.00  0.00     0.010 A 
HETATM   10  C   UNL     1      10.518   5.200  92.561  1.00  0.00     0.021 A 
HETATM   11  C   UNL     1      10.334   5.567  91.228  1.00  0.00     0.018 A 
HETATM   12  C   UNL     1      11.054   4.927  90.221  1.00  0.00     0.021 A 
HETATM   13  C   UNL     1      11.961   3.918  90.547  1.00  0.00     0.010 A 
BRANCH  11  14
HETATM   14  C   UNL     1       9.405   6.603  90.894  1.00  0.00    -0.061 C 
HETATM   15  C   UNL     1       8.624   7.472  90.613  1.00  0.00    -0.061 C 
BRANCH  15  16
HETATM   16  C   UNL     1       7.695   8.507  90.280  1.00  0.00     0.018 A 
HETATM   17  C   UNL     1       7.897   9.803  90.756  1.00  0.00     0.022 A 
HETATM   18  C   UNL     1       6.992  10.813  90.429  1.00  0.00     0.018 A 
HETATM   19  C   UNL     1       5.908  10.506  89.634  1.00  0.00     0.032 A 
HETATM   20  C   UNL     1       5.687   9.233  89.152  1.00  0.00     0.018 A 
HETATM   21  C   UNL     1       6.590   8.222  89.478  1.00  0.00     0.022 A 
BRANCH  19  22
HETATM   22  C   UNL     1       4.944  11.582  89.287  1.00  0.00     0.252 C 
HETATM   23  O   UNL     1       4.384  11.556  88.194  1.00  0.00    -0.268 OA
HETATM   24  N   UNL     1       4.730  12.544  90.264  1.00  0.00    -0.342 N 
HETATM   25  H   UNL     1       5.211  12.487  91.154  1.00  0.00     0.163 HD
BRANCH  24  26
HETATM   26  C   UNL     1       3.807  13.637  90.087  1.00  0.00     0.199 C 
BRANCH  26  27
HETATM   27  C   UNL     1       2.959  13.905  91.337  1.00  0.00     0.145 C 
HETATM   28  C   UNL     1       1.937  12.804  91.597  1.00  0.00     0.042 C 
BRANCH  27  29
HETATM   29  O   UNL     1       3.811  14.025  92.476  1.00  0.00    -0.393 OA
HETATM   30  H   UNL     1       3.759  14.939  92.801  1.00  0.00     0.210 HD
ENDBRANCH  27  29
ENDBRANCH  26  27
BRANCH  26  31
HETATM   31  C   UNL     1       4.614  14.868  89.690  1.00  0.00     0.220 C 
HETATM   32  O   UNL     1       4.922  15.120  88.526  1.00  0.00    -0.278 OA
HETATM   33  N   UNL     1       4.979  15.624  90.778  1.00  0.00    -0.271 NA
HETATM   34  H   UNL     1       4.819  15.399  91.753  1.00  0.00     0.127 HD
HETATM   35  H   UNL     1       6.253  15.773  91.347  1.00  0.00     0.127 HD
ENDBRANCH  26  31
ENDBRANCH  24  26
ENDBRANCH  19  22
ENDBRANCH  15  16
ENDBRANCH  11  14
ENDBRANCH   7   8
ENDBRANCH   2   7
TORSDOF 9
ENDMDL
MODEL 2
REMARK VINA RESULT:      -6.8      1.767      2.814
REMARK  9 active torsions:
REMARK  status: ('A' for Active; 'I' for Inactive)
REMARK    1  A    between atoms: O_2  and  C_17 
REMARK    2  A    between atoms: N_5  and  C_10 
REMARK    3  A    between atoms: N_6  and  C_14 
REMARK       I    between atoms: N_6  and  C_23 
REMARK       I    between atoms: N_7  and  C_22 
REMARK    4  A    between atoms: C_10  and  C_13 
REMARK    5  A    between atoms: C_14  and  C_17 
REMARK    6  A    between atoms: C_14  and  C_22 
REMARK    7  A    between atoms: C_20  and  C_25 
REMARK    8  A    between atoms: C_23  and  C_24 
REMARK    9  A    between atoms: C_28  and  C_31 
ROOT
HETATM    1  O   UNL     1      16.245   4.010  94.124  1.00  0.00    -0.388 OA
HETATM    2  N   UNL     1      14.327   2.712  92.470  1.00  0.00     0.096 N 
HETATM    3  C   UNL     1      14.477   4.173  92.469  1.00  0.00     0.299 C 
HETATM    4  C   UNL     1      14.705   2.167  93.781  1.00  0.00     0.299 C 
HETATM    5  C   UNL     1      15.910   4.546  92.842  1.00  0.00     0.198 C 
HETATM    6  C   UNL     1      16.131   2.587  94.124  1.00  0.00     0.198 C 
ENDROOT
BRANCH   2   7
HETATM    7  C   UNL     1      12.958   2.332  92.125  1.00  0.00     0.311 C 
BRANCH   7   8
HETATM    8  C   UNL     1      12.013   3.483  92.200  1.00  0.00    -0.030 A 
HETATM    9  C   UNL     1      11.467   4.013  91.031  1.00  0.00     0.010 A 
HETATM   10  C   UNL     1      10.585   5.091  91.100  1.00  0.00     0.021 A 
HETATM   11  C   UNL     1      10.248   5.637  92.338  1.00  0.00     0.018 A 
HETATM   12  C   UNL     1      10.792   5.108  93.507  1.00  0.00     0.021 A 
HETATM   13  C   UNL     1      11.675   4.031  93.438  1.00  0.00     0.010 A 
BRANCH  11  14
HETATM   14  C   UNL     1       9.341   6.742  92.409  1.00  0.00    -0.061 C 
HETATM   15  C   UNL     1       8.579   7.669  92.469  1.00  0.00    -0.061 C 
BRANCH  15  16
HETATM   16  C   UNL     1       7.673   8.773  92.541  1.00  0.00     0.018 A 
HETATM   17  C   UNL     1       7.506   9.460  93.744  1.00  0.00     0.022 A 
HETATM   18  C   UNL     1       6.624  10.538  93.813  1.00  0.00     0.018 A 
HETATM   19  C   UNL     1       5.930  10.906  92.679  1.00  0.00     0.032 A 
HETATM   20  C   UNL     1       6.077  10.243  91.478  1.00  0.00     0.018 A 
HETATM   21  C   UNL     1       6.959   9.164  91.408  1.00  0.00     0.022 A 
BRANCH  19  22
HETATM   22  C   UNL     1       4.989  12.054  92.753  1.00  0.00     0.252 C 
HETATM   23  O   UNL     1       4.808  12.612  93.833  1.00  0.00    -0.268 OA
HETATM   24  N   UNL     1       4.392  12.429  91.558  1.00  0.00    -0.342 N 
HETATM   25  H   UNL     1       4.609  11.936  90.700  1.00  0.00     0.163 HD
BRANCH  24  26
HETATM   26  C   UNL     1       3.475  13.537  91.463  1.00  0.00     0.199 C 
BRANCH  26  27
HETATM   27  C   UNL     1       3.467  14.182  90.072  1.00  0.00     0.145 C 
HETATM   28  C   UNL     1       4.796  14.843  89.726  1.00  0.00     0.042 C 
BRANCH  27  29
HETATM   29  O   UNL     1       3.172  13.191  89.088  1.00  0.00    -0.393 OA
HETATM   30  H   UNL     1       2.975  12.356  89.545  1.00  0.00     0.210 HD
ENDBRANCH  27  29
ENDBRANCH  26  27
BRANCH  26  31
HETATM   31  C   UNL     1       2.090  13.029  91.848  1.00  0.00     0.220 C 
HETATM   32  O   UNL     1       1.710  11.882  91.623  1.00  0.00    -0.278 OA
HETATM   33  N   UNL     1       1.321  14.009  92.430  1.00  0.00    -0.271 NA
HETATM   34  H   UNL     1       1.569  14.984  92.548  1.00  0.00     0.127 HD
HETATM   35  H   UNL     1       0.214  14.683  91.891  1.00  0.00     0.127 HD
ENDBRANCH  26  31
ENDBRANCH  24  26
ENDBRANCH  19  22
ENDBRANCH  15  16
ENDBRANCH  11  14
ENDBRANCH   7   8
ENDBRANCH   2   7
TORSDOF 9
ENDMDL
MODEL 3
REMARK VINA RESULT:      -6.3      1.428      1.723
REMARK  9 active torsions:
REMARK  status: ('A' for Active; 'I' for Inactive)
REMARK    1  A    between atoms: O_2  and  C_17 
REMARK    2  A    between atoms: N_5  and  C_10 
REMARK    3  A    between atoms: N_6  and  C_14 
REMARK       I    between atoms: N_6  and  C_23 
REMARK       I    between atoms: N_7  and  C_22 
REMARK    4  A    between atoms: C_10  and  C_13 
REMARK    5  A    between atoms: C_14  and  C_17 
REMARK    6  A    between atoms: C_14  and  C_22 
REMARK    7  A    between atoms: C_20  and  C_25 
REMARK    8  A    between atoms: C_23  and  C_24 
REMARK    9  A    between atoms: C_28  and  C_31 
ROOT
HETATM    1  O   UNL     1      16.323   2.870  93.930  1.00  0.00    -0.388 OA
HETATM    2  N   UNL     1      13.766   2.809  92.681  1.00  0.00     0.096 N 
HETATM    3  C   UNL     1      14.539   1.580  92.910  1.00  0.00     0.299 C 
HETATM    4  C   UNL     1      14.675   3.951  92.516  1.00  0.00     0.299 C 
HETATM    5  C   UNL     1      15.446   1.758  94.124  1.00  0.00     0.198 C 
HETATM    6  C   UNL     1      15.580   4.074  93.738  1.00  0.00     0.198 C 
ENDROOT
BRANCH   2   7
HETATM    7  C   UNL     1      12.896   2.664  91.515  1.00  0.00     0.311 C 
BRANCH   7   8
HETATM    8  C   UNL     1      11.836   3.711  91.463  1.00  0.00    -0.030 A 
HETATM    9  C   UNL     1      11.424   4.225  90.233  1.00  0.00     0.010 A 
HETATM   10  C   UNL     1      10.434   5.206  90.184  1.00  0.00     0.021 A 
HETATM   11  C   UNL     1       9.856   5.671  91.365  1.00  0.00     0.018 A 
HETATM   12  C   UNL     1      10.267   5.159  92.593  1.00  0.00     0.021 A 
HETATM   13  C   UNL     1      11.257   4.178  92.643  1.00  0.00     0.010 A 
BRANCH  11  14
HETATM   14  C   UNL     1       8.838   6.676  91.314  1.00  0.00    -0.061 C 
HETATM   15  C   UNL     1       7.983   7.521  91.270  1.00  0.00    -0.061 C 
BRANCH  15  16
HETATM   16  C   UNL     1       6.966   8.524  91.220  1.00  0.00     0.018 A 
HETATM   17  C   UNL     1       7.147   9.734  91.891  1.00  0.00     0.022 A 
HETATM   18  C   UNL     1       6.156  10.714  91.839  1.00  0.00     0.018 A 
HETATM   19  C   UNL     1       5.008  10.463  91.117  1.00  0.00     0.032 A 
HETATM   20  C   UNL     1       4.805   9.275  90.446  1.00  0.00     0.018 A 
HETATM   21  C   UNL     1       5.795   8.295  90.497  1.00  0.00     0.022 A 
BRANCH  19  22
HETATM   22  C   UNL     1       3.951  11.506  91.064  1.00  0.00     0.252 C 
HETATM   23  O   UNL     1       2.923  11.287  90.429  1.00  0.00    -0.268 OA
HETATM   24  N   UNL     1       4.209  12.669  91.776  1.00  0.00    -0.342 N 
HETATM   25  H   UNL     1       5.071  12.770  92.299  1.00  0.00     0.163 HD
BRANCH  24  26
HETATM   26  C   UNL     1       3.273  13.762  91.841  1.00  0.00     0.199 C 
BRANCH  26  27
HETATM   27  C   UNL     1       3.402  14.579  93.133  1.00  0.00     0.145 C 
HETATM   28  C   UNL     1       2.230  14.360  94.083  1.00  0.00     0.042 C 
BRANCH  27  29
HETATM   29  O   UNL     1       4.612  14.225  93.802  1.00  0.00    -0.393 OA
HETATM   30  H   UNL     1       5.002  13.462  93.343  1.00  0.00     0.210 HD
ENDBRANCH  27  29
ENDBRANCH  26  27
BRANCH  26  31
HETATM   31  C   UNL     1       3.489  14.635  90.610  1.00  0.00     0.220 C 
HETATM   32  O   UNL     1       4.219  15.625  90.610  1.00  0.00    -0.278 OA
HETATM   33  N   UNL     1       2.749  14.208  89.534  1.00  0.00    -0.271 NA
HETATM   34  H   UNL     1       2.072  13.453  89.524  1.00  0.00     0.127 HD
HETATM   35  H   UNL     1       1.617  14.808  88.960  1.00  0.00     0.127 HD
ENDBRANCH  26  31
ENDBRANCH  24  26
ENDBRANCH  19  22
ENDBRANCH  15  16
ENDBRANCH  11  14
ENDBRANCH   7   8
ENDBRANCH   2   7
TORSDOF 9
ENDMDL
MODEL 4
REMARK VINA RESULT:      -5.3      1.891     12.407
REMARK  9 active torsions:
REMARK  status: ('A' for Active; 'I' for Inactive)
REMARK    1  A    between atoms: O_2  and  C_17 
REMARK    2  A    between atoms: N_5  and  C_10 
REMARK    3  A    between atoms: N_6  and  C_14 
REMARK       I    between atoms: N_6  and  C_23 
REMARK       I    between atoms: N_7  and  C_22 
REMARK    4  A    between atoms: C_10  and  C_13 
REMARK    5  A    between atoms: C_14  and  C_17 
REMARK    6  A    between atoms: C_14  and  C_22 
REMARK    7  A    between atoms: C_20  and  C_25 
REMARK    8  A    between atoms: C_23  and  C_24 
REMARK    9  A    between atoms: C_28  and  C_31 
ROOT
HETATM    1  O   UNL     1       5.648  14.487  88.552  1.00  0.00    -0.388 OA
HETATM    2  N   UNL     1       3.721  13.001  90.028  1.00  0.00     0.096 N 
HETATM    3  C   UNL     1       4.427  14.145  90.621  1.00  0.00     0.299 C 
HETATM    4  C   UNL     1       4.562  12.365  89.004  1.00  0.00     0.299 C 
HETATM    5  C   UNL     1       4.825  15.131  89.526  1.00  0.00     0.198 C 
HETATM    6  C   UNL     1       4.957  13.393  87.948  1.00  0.00     0.198 C 
ENDROOT
BRANCH   2   7
HETATM    7  C   UNL     1       3.339  12.037  91.059  1.00  0.00     0.311 C 
BRANCH   7   8
HETATM    8  C   UNL     1       4.403  11.023  91.310  1.00  0.00    -0.030 A 
HETATM    9  C   UNL     1       4.408   9.827  90.591  1.00  0.00     0.010 A 
HETATM   10  C   UNL     1       5.401   8.876  90.826  1.00  0.00     0.021 A 
HETATM   11  C   UNL     1       6.390   9.123  91.779  1.00  0.00     0.018 A 
HETATM   12  C   UNL     1       6.386  10.318  92.497  1.00  0.00     0.021 A 
HETATM   13  C   UNL     1       5.392  11.268  92.262  1.00  0.00     0.010 A 
BRANCH  11  14
HETATM   14  C   UNL     1       7.410   8.149  92.019  1.00  0.00    -0.061 C 
HETATM   15  C   UNL     1       8.267   7.330  92.220  1.00  0.00    -0.061 C 
BRANCH  15  16
HETATM   16  C   UNL     1       9.286   6.356  92.460  1.00  0.00     0.018 A 
HETATM   17  C   UNL     1       9.835   6.222  93.735  1.00  0.00     0.022 A 
HETATM   18  C   UNL     1      10.828   5.270  93.968  1.00  0.00     0.018 A 
HETATM   19  C   UNL     1      11.246   4.473  92.923  1.00  0.00     0.032 A 
HETATM   20  C   UNL     1      10.719   4.587  91.654  1.00  0.00     0.018 A 
HETATM   21  C   UNL     1       9.727   5.538  91.419  1.00  0.00     0.022 A 
BRANCH  19  22
HETATM   22  C   UNL     1      12.305   3.460  93.172  1.00  0.00     0.252 C 
HETATM   23  O   UNL     1      12.116   2.298  92.823  1.00  0.00    -0.268 OA
HETATM   24  N   UNL     1      13.464   3.928  93.776  1.00  0.00    -0.342 N 
HETATM   25  H   UNL     1      13.559   4.908  94.014  1.00  0.00     0.163 HD
BRANCH  24  26
HETATM   26  C   UNL     1      14.589   3.074  94.060  1.00  0.00     0.199 C 
BRANCH  26  27
HETATM   27  C   UNL     1      14.645   1.843  93.147  1.00  0.00     0.145 C 
HETATM   28  C   UNL     1      15.510   2.071  91.912  1.00  0.00     0.042 C 
BRANCH  27  29
HETATM   29  O   UNL     1      15.163   0.731  93.877  1.00  0.00    -0.393 OA
HETATM   30  H   UNL     1      15.919   0.368  93.384  1.00  0.00     0.210 HD
ENDBRANCH  27  29
ENDBRANCH  26  27
BRANCH  26  31
HETATM   31  C   UNL     1      15.855   3.915  93.936  1.00  0.00     0.220 C 
HETATM   32  O   UNL     1      15.839   5.114  93.664  1.00  0.00    -0.278 OA
HETATM   33  N   UNL     1      16.994   3.169  94.124  1.00  0.00    -0.271 NA
HETATM   34  H   UNL     1      17.047   2.166  94.260  1.00  0.00     0.127 HD
HETATM   35  H   UNL     1      17.943   2.771  93.168  1.00  0.00     0.127 HD
ENDBRANCH  26  31
ENDBRANCH  24  26
ENDBRANCH  19  22
ENDBRANCH  15  16
ENDBRANCH  11  14
ENDBRANCH   7   8
ENDBRANCH   2   7
TORSDOF 9
ENDMDL
MODEL 5
REMARK VINA RESULT:      -5.3      1.983     12.416
REMARK  9 active torsions:
REMARK  status: ('A' for Active; 'I' for Inactive)
REMARK    1  A    between atoms: O_2  and  C_17 
REMARK    2  A    between atoms: N_5  and  C_10 
REMARK    3  A    between atoms: N_6  and  C_14 
REMARK       I    between atoms: N_6  and  C_23 
REMARK       I    between atoms: N_7  and  C_22 
REMARK    4  A    between atoms: C_10  and  C_13 
REMARK    5  A    between atoms: C_14  and  C_17 
REMARK    6  A    between atoms: C_14  and  C_22 
REMARK    7  A    between atoms: C_20  and  C_25 
REMARK    8  A    between atoms: C_23  and  C_24 
REMARK    9  A    between atoms: C_28  and  C_31 
ROOT
HETATM    1  O   UNL     1       5.399  14.588  88.654  1.00  0.00    -0.388 OA
HETATM    2  N   UNL     1       3.528  13.143  90.240  1.00  0.00     0.096 N 
HETATM    3  C   UNL     1       4.222  14.329  90.760  1.00  0.00     0.299 C 
HETATM    4  C   UNL     1       4.363  12.472  89.234  1.00  0.00     0.299 C 
HETATM    5  C   UNL     1       4.580  15.266  89.609  1.00  0.00     0.198 C 
HETATM    6  C   UNL     1       4.719  13.451  88.120  1.00  0.00     0.198 C 
ENDROOT
BRANCH   2   7
HETATM    7  C   UNL     1       3.184  12.227  91.325  1.00  0.00     0.311 C 
BRANCH   7   8
HETATM    8  C   UNL     1       4.237  11.197  91.554  1.00  0.00    -0.030 A 
HETATM    9  C   UNL     1       5.378  11.518  92.291  1.00  0.00     0.010 A 
HETATM   10  C   UNL     1       6.365  10.556  92.503  1.00  0.00     0.021 A 
HETATM   11  C   UNL     1       6.210   9.272  91.981  1.00  0.00     0.018 A 
HETATM   12  C   UNL     1       5.071   8.950  91.246  1.00  0.00     0.021 A 
HETATM   13  C   UNL     1       4.084   9.912  91.032  1.00  0.00     0.010 A 
BRANCH  11  14
HETATM   14  C   UNL     1       7.221   8.285  92.201  1.00  0.00    -0.061 C 
HETATM   15  C   UNL     1       8.072   7.455  92.386  1.00  0.00    -0.061 C 
BRANCH  15  16
HETATM   16  C   UNL     1       9.083   6.469  92.607  1.00  0.00     0.018 A 
HETATM   17  C   UNL     1       9.503   5.655  91.555  1.00  0.00     0.022 A 
HETATM   18  C   UNL     1      10.491   4.694  91.770  1.00  0.00     0.018 A 
HETATM   19  C   UNL     1      11.037   4.570  93.031  1.00  0.00     0.032 A 
HETATM   20  C   UNL     1      10.638   5.361  94.087  1.00  0.00     0.018 A 
HETATM   21  C   UNL     1       9.650   6.322  93.873  1.00  0.00     0.022 A 
BRANCH  19  22
HETATM   22  C   UNL     1      12.088   3.545  93.260  1.00  0.00     0.252 C 
HETATM   23  O   UNL     1      11.814   2.358  93.097  1.00  0.00    -0.268 OA
HETATM   24  N   UNL     1      13.337   4.026  93.626  1.00  0.00    -0.342 N 
HETATM   25  H   UNL     1      13.496   5.023  93.716  1.00  0.00     0.163 HD
BRANCH  24  26
HETATM   26  C   UNL     1      14.465   3.160  93.859  1.00  0.00     0.199 C 
BRANCH  26  27
HETATM   27  C   UNL     1      14.588   2.050  92.807  1.00  0.00     0.145 C 
HETATM   28  C   UNL     1      15.470   2.456  91.632  1.00  0.00     0.042 C 
BRANCH  27  29
HETATM   29  O   UNL     1      15.133   0.878  93.412  1.00  0.00    -0.393 OA
HETATM   30  H   UNL     1      15.247   1.050  94.362  1.00  0.00     0.210 HD
ENDBRANCH  27  29
ENDBRANCH  26  27
BRANCH  26  31
HETATM   31  C   UNL     1      15.718   4.028  93.900  1.00  0.00     0.220 C 
HETATM   32  O   UNL     1      15.698   5.243  93.716  1.00  0.00    -0.278 OA
HETATM   33  N   UNL     1      16.854   3.288  94.123  1.00  0.00    -0.271 NA
HETATM   34  H   UNL     1      16.918   2.279  94.190  1.00  0.00     0.127 HD
HETATM   35  H   UNL     1      17.884   2.978  93.221  1.00  0.00     0.127 HD
ENDBRANCH  26  31
ENDBRANCH  24  26
ENDBRANCH  19  22
ENDBRANCH  15  16
ENDBRANCH  11  14
ENDBRANCH   7   8
ENDBRANCH   2   7
TORSDOF 9
ENDMDL
MODEL 6
REMARK VINA RESULT:      -5.2      1.610     12.340
REMARK  9 active torsions:
REMARK  status: ('A' for Active; 'I' for Inactive)
REMARK    1  A    between atoms: O_2  and  C_17 
REMARK    2  A    between atoms: N_5  and  C_10 
REMARK    3  A    between atoms: N_6  and  C_14 
REMARK       I    between atoms: N_6  and  C_23 
REMARK       I    between atoms: N_7  and  C_22 
REMARK    4  A    between atoms: C_10  and  C_13 
REMARK    5  A    between atoms: C_14  and  C_17 
REMARK    6  A    between atoms: C_14  and  C_22 
REMARK    7  A    between atoms: C_20  and  C_25 
REMARK    8  A    between atoms: C_23  and  C_24 
REMARK    9  A    between atoms: C_28  and  C_31 
ROOT
HETATM    1  O   UNL     1       5.322  15.070  89.998  1.00  0.00    -0.388 OA
HETATM    2  N   UNL     1       3.434  12.962  89.697  1.00  0.00     0.096 N 
HETATM    3  C   UNL     1       3.662  13.609  90.997  1.00  0.00     0.299 C 
HETATM    4  C   UNL     1       4.656  13.021  88.884  1.00  0.00     0.299 C 
HETATM    5  C   UNL     1       4.129  15.046  90.784  1.00  0.00     0.198 C 
HETATM    6  C   UNL     1       5.100  14.471  88.721  1.00  0.00     0.198 C 
ENDROOT
BRANCH   2   7
HETATM    7  C   UNL     1       2.996  11.579  89.877  1.00  0.00     0.311 C 
BRANCH   7   8
HETATM    8  C   UNL     1       4.137  10.646  90.103  1.00  0.00    -0.030 A 
HETATM    9  C   UNL     1       4.361   9.592  89.217  1.00  0.00     0.010 A 
HETATM   10  C   UNL     1       5.427   8.718  89.429  1.00  0.00     0.021 A 
HETATM   11  C   UNL     1       6.269   8.899  90.525  1.00  0.00     0.018 A 
HETATM   12  C   UNL     1       6.046   9.951  91.411  1.00  0.00     0.021 A 
HETATM   13  C   UNL     1       4.980  10.826  91.200  1.00  0.00     0.010 A 
BRANCH  11  14
HETATM   14  C   UNL     1       7.363   8.004  90.741  1.00  0.00    -0.061 C 
HETATM   15  C   UNL     1       8.284   7.251  90.923  1.00  0.00    -0.061 C 
BRANCH  15  16
HETATM   16  C   UNL     1       9.377   6.356  91.139  1.00  0.00     0.018 A 
HETATM   17  C   UNL     1      10.263   6.075  90.099  1.00  0.00     0.022 A 
HETATM   18  C   UNL     1      11.331   5.203  90.311  1.00  0.00     0.018 A 
HETATM   19  C   UNL     1      11.490   4.635  91.558  1.00  0.00     0.032 A 
HETATM   20  C   UNL     1      10.628   4.896  92.602  1.00  0.00     0.018 A 
HETATM   21  C   UNL     1       9.559   5.767  92.391  1.00  0.00     0.022 A 
BRANCH  19  22
HETATM   22  C   UNL     1      12.628   3.705  91.783  1.00  0.00     0.252 C 
HETATM   23  O   UNL     1      12.656   2.635  91.180  1.00  0.00    -0.268 OA
HETATM   24  N   UNL     1      13.607   4.144  92.663  1.00  0.00    -0.342 N 
HETATM   25  H   UNL     1      13.528   5.052  93.106  1.00  0.00     0.163 HD
BRANCH  24  26
HETATM   26  C   UNL     1      14.782   3.367  92.966  1.00  0.00     0.199 C 
BRANCH  26  27
HETATM   27  C   UNL     1      15.801   4.139  93.813  1.00  0.00     0.145 C 
HETATM   28  C   UNL     1      17.144   3.423  93.908  1.00  0.00     0.042 C 
BRANCH  27  29
HETATM   29  O   UNL     1      16.006   5.435  93.251  1.00  0.00    -0.393 OA
HETATM   30  H   UNL     1      15.441   5.518  92.464  1.00  0.00     0.210 HD
ENDBRANCH  27  29
ENDBRANCH  26  27
BRANCH  26  31
HETATM   31  C   UNL     1      14.329   2.092  93.669  1.00  0.00     0.220 C 
HETATM   32  O   UNL     1      15.044   1.098  93.779  1.00  0.00    -0.278 OA
HETATM   33  N   UNL     1      13.034   2.179  94.120  1.00  0.00    -0.271 NA
HETATM   34  H   UNL     1      12.389   2.946  93.968  1.00  0.00     0.127 HD
HETATM   35  H   UNL     1      11.891   1.536  93.618  1.00  0.00     0.127 HD
ENDBRANCH  26  31
ENDBRANCH  24  26
ENDBRANCH  19  22
ENDBRANCH  15  16
ENDBRANCH  11  14
ENDBRANCH   7   8
ENDBRANCH   2   7
TORSDOF 9
ENDMDL
MODEL 7
REMARK VINA RESULT:      -5.0      2.389     12.349
REMARK  9 active torsions:
REMARK  status: ('A' for Active; 'I' for Inactive)
REMARK    1  A    between atoms: O_2  and  C_17 
REMARK    2  A    between atoms: N_5  and  C_10 
REMARK    3  A    between atoms: N_6  and  C_14 
REMARK       I    between atoms: N_6  and  C_23 
REMARK       I    between atoms: N_7  and  C_22 
REMARK    4  A    between atoms: C_10  and  C_13 
REMARK    5  A    between atoms: C_14  and  C_17 
REMARK    6  A    between atoms: C_14  and  C_22 
REMARK    7  A    between atoms: C_20  and  C_25 
REMARK    8  A    between atoms: C_23  and  C_24 
REMARK    9  A    between atoms: C_28  and  C_31 
ROOT
HETATM    1  O   UNL     1       4.487  14.937  90.233  1.00  0.00    -0.388 OA
HETATM    2  N   UNL     1       2.857  13.563  92.119  1.00  0.00     0.096 N 
HETATM    3  C   UNL     1       4.129  14.184  92.512  1.00  0.00     0.299 C 
HETATM    4  C   UNL     1       2.910  13.156  90.708  1.00  0.00     0.299 C 
HETATM    5  C   UNL     1       4.433  15.366  91.595  1.00  0.00     0.198 C 
HETATM    6  C   UNL     1       3.243  14.360  89.834  1.00  0.00     0.198 C 
ENDROOT
BRANCH   2   7
HETATM    7  C   UNL     1       2.551  12.421  92.978  1.00  0.00     0.311 C 
BRANCH   7   8
HETATM    8  C   UNL     1       3.622  11.384  92.949  1.00  0.00    -0.030 A 
HETATM    9  C   UNL     1       3.535  10.318  92.054  1.00  0.00     0.010 A 
HETATM   10  C   UNL     1       4.535   9.346  92.027  1.00  0.00     0.021 A 
HETATM   11  C   UNL     1       5.624   9.444  92.893  1.00  0.00     0.018 A 
HETATM   12  C   UNL     1       5.712  10.509  93.787  1.00  0.00     0.021 A 
HETATM   13  C   UNL     1       4.711  11.480  93.815  1.00  0.00     0.010 A 
BRANCH  11  14
HETATM   14  C   UNL     1       6.651   8.449  92.864  1.00  0.00    -0.061 C 
HETATM   15  C   UNL     1       7.514   7.612  92.840  1.00  0.00    -0.061 C 
BRANCH  15  16
HETATM   16  C   UNL     1       8.541   6.617  92.810  1.00  0.00     0.018 A 
HETATM   17  C   UNL     1       9.630   6.714  93.676  1.00  0.00     0.022 A 
HETATM   18  C   UNL     1      10.630   5.742  93.648  1.00  0.00     0.018 A 
HETATM   19  C   UNL     1      10.517   4.695  92.758  1.00  0.00     0.032 A 
HETATM   20  C   UNL     1       9.451   4.576  91.892  1.00  0.00     0.018 A 
HETATM   21  C   UNL     1       8.450   5.548  91.918  1.00  0.00     0.022 A 
BRANCH  19  22
HETATM   22  C   UNL     1      11.584   3.660  92.727  1.00  0.00     0.252 C 
HETATM   23  O   UNL     1      11.289   2.503  92.438  1.00  0.00    -0.268 OA
HETATM   24  N   UNL     1      12.868   4.102  93.013  1.00  0.00    -0.342 N 
HETATM   25  H   UNL     1      13.040   5.079  93.219  1.00  0.00     0.163 HD
BRANCH  24  26
HETATM   26  C   UNL     1      14.011   3.225  93.000  1.00  0.00     0.199 C 
BRANCH  26  27
HETATM   27  C   UNL     1      14.339   2.698  91.597  1.00  0.00     0.145 C 
HETATM   28  C   UNL     1      14.081   3.734  90.509  1.00  0.00     0.042 C 
BRANCH  27  29
HETATM   29  O   UNL     1      15.709   2.302  91.545  1.00  0.00    -0.393 OA
HETATM   30  H   UNL     1      15.877   1.687  92.279  1.00  0.00     0.210 HD
ENDBRANCH  27  29
ENDBRANCH  26  27
BRANCH  26  31
HETATM   31  C   UNL     1      15.190   3.987  93.596  1.00  0.00     0.220 C 
HETATM   32  O   UNL     1      15.279   5.213  93.565  1.00  0.00    -0.278 OA
HETATM   33  N   UNL     1      16.139   3.146  94.124  1.00  0.00    -0.271 NA
HETATM   34  H   UNL     1      16.140   2.133  94.086  1.00  0.00     0.127 HD
HETATM   35  H   UNL     1      17.417   2.851  93.624  1.00  0.00     0.127 HD
ENDBRANCH  26  31
ENDBRANCH  24  26
ENDBRANCH  19  22
ENDBRANCH  15  16
ENDBRANCH  11  14
ENDBRANCH   7   8
ENDBRANCH   2   7
TORSDOF 9
ENDMDL
MODEL 8
REMARK VINA RESULT:      -4.7      2.176     12.650
REMARK  9 active torsions:
REMARK  status: ('A' for Active; 'I' for Inactive)
REMARK    1  A    between atoms: O_2  and  C_17 
REMARK    2  A    between atoms: N_5  and  C_10 
REMARK    3  A    between atoms: N_6  and  C_14 
REMARK       I    between atoms: N_6  and  C_23 
REMARK       I    between atoms: N_7  and  C_22 
REMARK    4  A    between atoms: C_10  and  C_13 
REMARK    5  A    between atoms: C_14  and  C_17 
REMARK    6  A    between atoms: C_14  and  C_22 
REMARK    7  A    between atoms: C_20  and  C_25 
REMARK    8  A    between atoms: C_23  and  C_24 
REMARK    9  A    between atoms: C_28  and  C_31 
ROOT
HETATM    1  O   UNL     1       1.344  14.565  92.647  1.00  0.00    -0.388 OA
HETATM    2  N   UNL     1       3.009  12.589  91.454  1.00  0.00     0.096 N 
HETATM    3  C   UNL     1       3.153  14.014  91.125  1.00  0.00     0.299 C 
HETATM    4  C   UNL     1       1.620  12.297  91.833  1.00  0.00     0.299 C 
HETATM    5  C   UNL     1       2.700  14.865  92.308  1.00  0.00     0.198 C 
HETATM    6  C   UNL     1       1.203  13.188  92.998  1.00  0.00     0.198 C 
ENDROOT
BRANCH   2   7
HETATM    7  C   UNL     1       3.428  11.753  90.329  1.00  0.00     0.311 C 
BRANCH   7   8
HETATM    8  C   UNL     1       4.501  10.790  90.707  1.00  0.00    -0.030 A 
HETATM    9  C   UNL     1       5.745  11.262  91.128  1.00  0.00     0.010 A 
HETATM   10  C   UNL     1       6.750  10.362  91.479  1.00  0.00     0.021 A 
HETATM   11  C   UNL     1       6.511   8.989  91.410  1.00  0.00     0.018 A 
HETATM   12  C   UNL     1       5.270   8.517  90.990  1.00  0.00     0.021 A 
HETATM   13  C   UNL     1       4.264   9.417  90.638  1.00  0.00     0.010 A 
BRANCH  11  14
HETATM   14  C   UNL     1       7.542   8.066  91.772  1.00  0.00    -0.061 C 
HETATM   15  C   UNL     1       8.409   7.290  92.076  1.00  0.00    -0.061 C 
BRANCH  15  16
HETATM   16  C   UNL     1       9.440   6.368  92.439  1.00  0.00     0.018 A 
HETATM   17  C   UNL     1       9.842   6.261  93.770  1.00  0.00     0.022 A 
HETATM   18  C   UNL     1      10.846   5.359  94.124  1.00  0.00     0.018 A 
HETATM   19  C   UNL     1      11.423   4.584  93.139  1.00  0.00     0.032 A 
HETATM   20  C   UNL     1      11.043   4.672  91.816  1.00  0.00     0.018 A 
HETATM   21  C   UNL     1      10.040   5.573  91.462  1.00  0.00     0.022 A 
BRANCH  19  22
HETATM   22  C   UNL     1      12.494   3.625  93.516  1.00  0.00     0.252 C 
HETATM   23  O   UNL     1      12.182   2.511  93.930  1.00  0.00    -0.268 OA
HETATM   24  N   UNL     1      13.797   4.070  93.343  1.00  0.00    -0.342 N 
HETATM   25  H   UNL     1      13.978   4.995  92.972  1.00  0.00     0.163 HD
BRANCH  24  26
HETATM   26  C   UNL     1      14.943   3.248  93.640  1.00  0.00     0.199 C 
BRANCH  26  27
HETATM   27  C   UNL     1      15.250   2.234  92.531  1.00  0.00     0.145 C 
HETATM   28  C   UNL     1      14.363   0.996  92.610  1.00  0.00     0.042 C 
BRANCH  27  29
HETATM   29  O   UNL     1      15.071   2.852  91.256  1.00  0.00    -0.393 OA
HETATM   30  H   UNL     1      14.122   3.026  91.133  1.00  0.00     0.210 HD
ENDBRANCH  27  29
ENDBRANCH  26  27
BRANCH  26  31
HETATM   31  C   UNL     1      16.128   4.174  93.888  1.00  0.00     0.220 C 
HETATM   32  O   UNL     1      16.015   5.395  93.990  1.00  0.00    -0.278 OA
HETATM   33  N   UNL     1      17.319   3.491  93.943  1.00  0.00    -0.271 NA
HETATM   34  H   UNL     1      17.458   2.501  93.775  1.00  0.00     0.127 HD
HETATM   35  H   UNL     1      18.359   3.475  93.000  1.00  0.00     0.127 HD
ENDBRANCH  26  31
ENDBRANCH  24  26
ENDBRANCH  19  22
ENDBRANCH  15  16
ENDBRANCH  11  14
ENDBRANCH   7   8
ENDBRANCH   2   7
TORSDOF 9
ENDMDL
MODEL 9
REMARK VINA RESULT:      -4.6      2.152     12.234
REMARK  9 active torsions:
REMARK  status: ('A' for Active; 'I' for Inactive)
REMARK    1  A    between atoms: O_2  and  C_17 
REMARK    2  A    between atoms: N_5  and  C_10 
REMARK    3  A    between atoms: N_6  and  C_14 
REMARK       I    between atoms: N_6  and  C_23 
REMARK       I    between atoms: N_7  and  C_22 
REMARK    4  A    between atoms: C_10  and  C_13 
REMARK    5  A    between atoms: C_14  and  C_17 
REMARK    6  A    between atoms: C_14  and  C_22 
REMARK    7  A    between atoms: C_20  and  C_25 
REMARK    8  A    between atoms: C_23  and  C_24 
REMARK    9  A    between atoms: C_28  and  C_31 
ROOT
HETATM    1  O   UNL     1       3.778  15.071  93.116  1.00  0.00    -0.388 OA
HETATM    2  N   UNL     1       2.895  14.220  90.548  1.00  0.00     0.096 N 
HETATM    3  C   UNL     1       2.288  13.699  91.780  1.00  0.00     0.299 C 
HETATM    4  C   UNL     1       4.295  14.593  90.795  1.00  0.00     0.299 C 
HETATM    5  C   UNL     1       2.407  14.736  92.894  1.00  0.00     0.198 C 
HETATM    6  C   UNL     1       4.367  15.608  91.932  1.00  0.00     0.198 C 
ENDROOT
BRANCH   2   7
HETATM    7  C   UNL     1       2.802  13.237  89.469  1.00  0.00     0.311 C 
BRANCH   7   8
HETATM    8  C   UNL     1       3.740  12.094  89.659  1.00  0.00    -0.030 A 
HETATM    9  C   UNL     1       3.764  11.052  88.732  1.00  0.00     0.010 A 
HETATM   10  C   UNL     1       4.640   9.980  88.911  1.00  0.00     0.021 A 
HETATM   11  C   UNL     1       5.492   9.954  90.014  1.00  0.00     0.018 A 
HETATM   12  C   UNL     1       5.469  10.995  90.940  1.00  0.00     0.021 A 
HETATM   13  C   UNL     1       4.593  12.066  90.763  1.00  0.00     0.010 A 
BRANCH  11  14
HETATM   14  C   UNL     1       6.391   8.856  90.196  1.00  0.00    -0.061 C 
HETATM   15  C   UNL     1       7.148   7.934  90.348  1.00  0.00    -0.061 C 
BRANCH  15  16
HETATM   16  C   UNL     1       8.047   6.838  90.529  1.00  0.00     0.018 A 
HETATM   17  C   UNL     1       9.371   7.077  90.900  1.00  0.00     0.022 A 
HETATM   18  C   UNL     1      10.248   6.007  91.079  1.00  0.00     0.018 A 
HETATM   19  C   UNL     1       9.782   4.723  90.885  1.00  0.00     0.032 A 
HETATM   20  C   UNL     1       8.479   4.461  90.518  1.00  0.00     0.018 A 
HETATM   21  C   UNL     1       7.601   5.530  90.338  1.00  0.00     0.022 A 
BRANCH  19  22
HETATM   22  C   UNL     1      10.717   3.584  91.074  1.00  0.00     0.252 C 
HETATM   23  O   UNL     1      10.392   2.469  90.673  1.00  0.00    -0.268 OA
HETATM   24  N   UNL     1      11.926   3.885  91.685  1.00  0.00    -0.342 N 
HETATM   25  H   UNL     1      12.136   4.836  91.967  1.00  0.00     0.163 HD
BRANCH  24  26
HETATM   26  C   UNL     1      12.946   2.894  91.916  1.00  0.00     0.199 C 
BRANCH  26  27
HETATM   27  C   UNL     1      14.273   3.236  91.227  1.00  0.00     0.145 C 
HETATM   28  C   UNL     1      14.328   4.683  90.751  1.00  0.00     0.042 C 
BRANCH  27  29
HETATM   29  O   UNL     1      15.354   3.003  92.130  1.00  0.00    -0.393 OA
HETATM   30  H   UNL     1      15.174   2.180  92.615  1.00  0.00     0.210 HD
ENDBRANCH  27  29
ENDBRANCH  26  27
BRANCH  26  31
HETATM   31  C   UNL     1      13.125   2.753  93.424  1.00  0.00     0.220 C 
HETATM   32  O   UNL     1      13.841   1.895  93.937  1.00  0.00    -0.278 OA
HETATM   33  N   UNL     1      12.370   3.664  94.124  1.00  0.00    -0.271 NA
HETATM   34  H   UNL     1      11.704   4.323  93.739  1.00  0.00     0.127 HD
HETATM   35  H   UNL     1      11.218   3.433  94.892  1.00  0.00     0.127 HD
ENDBRANCH  26  31
ENDBRANCH  24  26
ENDBRANCH  19  22
ENDBRANCH  15  16
ENDBRANCH  11  14
ENDBRANCH   7   8
ENDBRANCH   2   7
TORSDOF 9
ENDMDL
