MODEL 1
REMARK VINA RESULT:      -7.0      0.000      0.000
REMARK  14 active torsions:
REMARK  status: ('A' for Active; 'I' for Inactive)
REMARK    1  A    between atoms: O_2  and  C_18 
REMARK    2  A    between atoms: C_5  and  C_8 
REMARK    3  A    between atoms: C_5  and  O_35 
REMARK    4  A    between atoms: C_5  and  C_36 
REMARK    5  A    between atoms: N_6  and  C_11 
REMARK    6  A    between atoms: N_7  and  C_15 
REMARK       I    between atoms: N_7  and  C_24 
REMARK    7  A    between atoms: C_8  and  C_23 
REMARK    8  A    between atoms: C_11  and  C_14 
REMARK    9  A    between atoms: C_15  and  C_18 
REMARK   10  A    between atoms: C_15  and  C_23 
REMARK   11  A    between atoms: C_21  and  C_26 
REMARK   12  A    between atoms: C_24  and  C_25 
REMARK   13  A    between atoms: C_29  and  C_32 
REMARK   14  A    between atoms: C_36  and  O_39 
ROOT
HETATM    1  O   UNL     1      15.789   4.074  94.124  1.00  0.00    -0.350 OA
HETATM    2  N   UNL     1      14.128   2.624  92.323  1.00  0.00     0.147 N 
HETATM    3  C   UNL     1      14.139   4.094  92.344  1.00  0.00     0.283 C 
HETATM    4  C   UNL     1      14.460   2.099  93.655  1.00  0.00     0.283 C 
HETATM    5  C   UNL     1      15.499   4.593  92.825  1.00  0.00     0.178 C 
HETATM    6  C   UNL     1      15.811   2.646  94.105  1.00  0.00     0.178 C 
ENDROOT
BRANCH   2   7
HETATM    7  C   UNL     1      12.830   2.123  91.876  1.00  0.00     0.277 C 
BRANCH   7   8
HETATM    8  C   UNL     1      11.807   3.203  91.776  1.00  0.00     0.011 A 
HETATM    9  C   UNL     1      11.307   3.576  90.528  1.00  0.00    -0.002 A 
HETATM   10  C   UNL     1      10.352   4.588  90.433  1.00  0.00     0.008 A 
HETATM   11  C   UNL     1       9.896   5.225  91.587  1.00  0.00     0.042 A 
HETATM   12  C   UNL     1      10.394   4.853  92.834  1.00  0.00     0.008 A 
HETATM   13  C   UNL     1      11.350   3.841  92.929  1.00  0.00    -0.002 A 
BRANCH  11  14
HETATM   14  C   UNL     1       8.915   6.261  91.490  1.00  0.00    -0.059 C 
HETATM   15  C   UNL     1       8.090   7.133  91.409  1.00  0.00    -0.059 C 
BRANCH  15  16
HETATM   16  C   UNL     1       7.110   8.169  91.311  1.00  0.00     0.042 A 
HETATM   17  C   UNL     1       6.159   8.134  90.291  1.00  0.00     0.008 A 
HETATM   18  C   UNL     1       5.201   9.143  90.198  1.00  0.00     0.005 A 
HETATM   19  C   UNL     1       5.215  10.163  91.125  1.00  0.00     0.056 A 
HETATM   20  C   UNL     1       6.145  10.221  92.142  1.00  0.00     0.005 A 
HETATM   21  C   UNL     1       7.103   9.212  92.237  1.00  0.00     0.008 A 
BRANCH  19  22
HETATM   22  C   UNL     1       4.195  11.240  91.024  1.00  0.00     0.254 C 
HETATM   23  O   UNL     1       3.155  11.024  90.406  1.00  0.00    -0.268 OA
HETATM   24  N   UNL     1       4.498  12.427  91.675  1.00  0.00    -0.335 N 
HETATM   25  HN  UNL     1       5.367  12.524  92.188  1.00  0.00     0.164 HD
BRANCH  24  26
HETATM   26  C   UNL     1       3.601  13.555  91.690  1.00  0.00     0.169 C 
BRANCH  26  27
HETATM   27  C   UNL     1       3.313  14.067  93.107  1.00  0.00     0.138 C 
HETATM   28  C   UNL     1       4.557  14.072  93.989  1.00  0.00     0.034 C 
BRANCH  27  29
HETATM   29  O   UNL     1       2.787  15.392  93.038  1.00  0.00    -0.383 OA
HETATM   30  H   UNL     1       3.423  15.994  93.460  1.00  0.00     0.210 HD
ENDBRANCH  27  29
ENDBRANCH  26  27
BRANCH  26  31
HETATM   31  C   UNL     1       4.211  14.647  90.819  1.00  0.00     0.194 C 
HETATM   32  O   UNL     1       4.959  15.517  91.262  1.00  0.00    -0.289 OA
BRANCH  31  33
HETATM   33  C   UNL     1       3.798  14.561  89.511  1.00  0.00     0.053 C 
BRANCH  33  34
HETATM   34  C   UNL     1       4.786  14.210  88.581  1.00  0.00     0.220 C 
BRANCH  34  35
HETATM   35  O   UNL     1       5.895  14.407  89.111  1.00  0.00    -0.371 OA
HETATM   36  H   UNL     1       5.953  13.602  89.603  1.00  0.00     0.211 HD
ENDBRANCH  34  35
BRANCH  34  37
HETATM   37  C   UNL     1       4.654  12.899  88.091  1.00  0.00     0.185 C 
HETATM   38  O   UNL     1       5.965  12.871  88.272  1.00  0.00    -0.647 OA
BRANCH  37  39
HETATM   39  O   UNL     1       3.774  12.205  87.678  1.00  0.00    -0.774 OA
HETATM   40  H   UNL     1       3.860  12.044  86.558  1.00  0.00     0.167 HD
ENDBRANCH  37  39
ENDBRANCH  34  37
ENDBRANCH  33  34
ENDBRANCH  31  33
ENDBRANCH  26  31
ENDBRANCH  24  26
ENDBRANCH  19  22
ENDBRANCH  15  16
ENDBRANCH  11  14
ENDBRANCH   7   8
ENDBRANCH   2   7
TORSDOF 14
ENDMDL
MODEL 2
REMARK VINA RESULT:      -6.3      2.594      4.386
REMARK  14 active torsions:
REMARK  status: ('A' for Active; 'I' for Inactive)
REMARK    1  A    between atoms: O_2  and  C_18 
REMARK    2  A    between atoms: C_5  and  C_8 
REMARK    3  A    between atoms: C_5  and  O_35 
REMARK    4  A    between atoms: C_5  and  C_36 
REMARK    5  A    between atoms: N_6  and  C_11 
REMARK    6  A    between atoms: N_7  and  C_15 
REMARK       I    between atoms: N_7  and  C_24 
REMARK    7  A    between atoms: C_8  and  C_23 
REMARK    8  A    between atoms: C_11  and  C_14 
REMARK    9  A    between atoms: C_15  and  C_18 
REMARK   10  A    between atoms: C_15  and  C_23 
REMARK   11  A    between atoms: C_21  and  C_26 
REMARK   12  A    between atoms: C_24  and  C_25 
REMARK   13  A    between atoms: C_29  and  C_32 
REMARK   14  A    between atoms: C_36  and  O_39 
ROOT
HETATM    1  O   UNL     1      17.462   4.854  93.706  1.00  0.00    -0.350 OA
HETATM    2  N   UNL     1      15.417   2.882  93.884  1.00  0.00     0.147 N 
HETATM    3  C   UNL     1      16.791   2.531  93.497  1.00  0.00     0.283 C 
HETATM    4  C   UNL     1      15.119   4.264  93.485  1.00  0.00     0.283 C 
HETATM    5  C   UNL     1      17.772   3.522  94.118  1.00  0.00     0.178 C 
HETATM    6  C   UNL     1      16.139   5.214  94.106  1.00  0.00     0.178 C 
ENDROOT
BRANCH   2   7
HETATM    7  C   UNL     1      14.459   1.951  93.290  1.00  0.00     0.277 C 
BRANCH   7   8
HETATM    8  C   UNL     1      13.363   2.652  92.561  1.00  0.00     0.011 A 
HETATM    9  C   UNL     1      12.082   2.703  93.111  1.00  0.00    -0.002 A 
HETATM   10  C   UNL     1      11.056   3.356  92.429  1.00  0.00     0.008 A 
HETATM   11  C   UNL     1      11.312   3.961  91.199  1.00  0.00     0.042 A 
HETATM   12  C   UNL     1      12.592   3.911  90.649  1.00  0.00     0.008 A 
HETATM   13  C   UNL     1      13.618   3.257  91.330  1.00  0.00    -0.002 A 
BRANCH  11  14
HETATM   14  C   UNL     1      10.260   4.633  90.500  1.00  0.00    -0.059 C 
HETATM   15  C   UNL     1       9.376   5.198  89.914  1.00  0.00    -0.059 C 
BRANCH  15  16
HETATM   16  C   UNL     1       8.324   5.871  89.216  1.00  0.00     0.042 A 
HETATM   17  C   UNL     1       8.512   6.274  87.894  1.00  0.00     0.008 A 
HETATM   18  C   UNL     1       7.485   6.928  87.213  1.00  0.00     0.005 A 
HETATM   19  C   UNL     1       6.295   7.162  87.868  1.00  0.00     0.056 A 
HETATM   20  C   UNL     1       6.084   6.774  89.174  1.00  0.00     0.005 A 
HETATM   21  C   UNL     1       7.110   6.120  89.857  1.00  0.00     0.008 A 
BRANCH  19  22
HETATM   22  C   UNL     1       5.202   7.860  87.143  1.00  0.00     0.254 C 
HETATM   23  O   UNL     1       5.323   8.077  85.940  1.00  0.00    -0.268 OA
HETATM   24  N   UNL     1       4.089   8.200  87.900  1.00  0.00    -0.335 N 
HETATM   25  HN  UNL     1       4.049   7.966  88.885  1.00  0.00     0.164 HD
BRANCH  24  26
HETATM   26  C   UNL     1       2.938   8.858  87.336  1.00  0.00     0.169 C 
BRANCH  26  27
HETATM   27  C   UNL     1       1.626   8.125  87.641  1.00  0.00     0.138 C 
HETATM   28  C   UNL     1       1.737   6.618  87.434  1.00  0.00     0.034 C 
BRANCH  27  29
HETATM   29  O   UNL     1       1.240   8.379  88.992  1.00  0.00    -0.383 OA
HETATM   30  H   UNL     1       1.932   8.919  89.410  1.00  0.00     0.210 HD
ENDBRANCH  27  29
ENDBRANCH  26  27
BRANCH  26  31
HETATM   31  C   UNL     1       2.912  10.287  87.868  1.00  0.00     0.194 C 
HETATM   32  O   UNL     1       1.944  11.034  87.734  1.00  0.00    -0.289 OA
BRANCH  31  33
HETATM   33  C   UNL     1       4.096  10.640  88.468  1.00  0.00     0.053 C 
BRANCH  33  34
HETATM   34  C   UNL     1       4.136  11.923  89.031  1.00  0.00     0.220 C 
BRANCH  34  35
HETATM   35  O   UNL     1       3.845  11.818  90.237  1.00  0.00    -0.371 OA
HETATM   36  H   UNL     1       3.257  12.556  90.296  1.00  0.00     0.211 HD
ENDBRANCH  34  35
BRANCH  34  37
HETATM   37  C   UNL     1       5.361  12.583  88.833  1.00  0.00     0.185 C 
HETATM   38  O   UNL     1       4.597  13.664  88.837  1.00  0.00    -0.647 OA
BRANCH  37  39
HETATM   39  O   UNL     1       6.506  12.276  88.688  1.00  0.00    -0.774 OA
HETATM   40  H   UNL     1       7.015  12.077  89.683  1.00  0.00     0.167 HD
ENDBRANCH  37  39
ENDBRANCH  34  37
ENDBRANCH  33  34
ENDBRANCH  31  33
ENDBRANCH  26  31
ENDBRANCH  24  26
ENDBRANCH  19  22
ENDBRANCH  15  16
ENDBRANCH  11  14
ENDBRANCH   7   8
ENDBRANCH   2   7
TORSDOF 14
ENDMDL
MODEL 3
REMARK VINA RESULT:      -5.3      1.333      1.597
REMARK  14 active torsions:
REMARK  status: ('A' for Active; 'I' for Inactive)
REMARK    1  A    between atoms: O_2  and  C_18 
REMARK    2  A    between atoms: C_5  and  C_8 
REMARK    3  A    between atoms: C_5  and  O_35 
REMARK    4  A    between atoms: C_5  and  C_36 
REMARK    5  A    between atoms: N_6  and  C_11 
REMARK    6  A    between atoms: N_7  and  C_15 
REMARK       I    between atoms: N_7  and  C_24 
REMARK    7  A    between atoms: C_8  and  C_23 
REMARK    8  A    between atoms: C_11  and  C_14 
REMARK    9  A    between atoms: C_15  and  C_18 
REMARK   10  A    between atoms: C_15  and  C_23 
REMARK   11  A    between atoms: C_21  and  C_26 
REMARK   12  A    between atoms: C_24  and  C_25 
REMARK   13  A    between atoms: C_29  and  C_32 
REMARK   14  A    between atoms: C_36  and  O_39 
ROOT
HETATM    1  O   UNL     1      15.694   4.336  92.590  1.00  0.00    -0.350 OA
HETATM    2  N   UNL     1      13.568   2.511  92.091  1.00  0.00     0.147 N 
HETATM    3  C   UNL     1      13.622   3.825  91.435  1.00  0.00     0.283 C 
HETATM    4  C   UNL     1      14.238   2.573  93.397  1.00  0.00     0.283 C 
HETATM    5  C   UNL     1      15.074   4.278  91.304  1.00  0.00     0.178 C 
HETATM    6  C   UNL     1      15.674   3.056  93.221  1.00  0.00     0.178 C 
ENDROOT
BRANCH   2   7
HETATM    7  C   UNL     1      12.185   2.062  92.236  1.00  0.00     0.277 C 
BRANCH   7   8
HETATM    8  C   UNL     1      11.222   3.198  92.301  1.00  0.00     0.011 A 
HETATM    9  C   UNL     1      10.258   3.352  91.305  1.00  0.00    -0.002 A 
HETATM   10  C   UNL     1       9.358   4.417  91.364  1.00  0.00     0.008 A 
HETATM   11  C   UNL     1       9.422   5.325  92.420  1.00  0.00     0.042 A 
HETATM   12  C   UNL     1      10.384   5.172  93.416  1.00  0.00     0.008 A 
HETATM   13  C   UNL     1      11.285   4.108  93.357  1.00  0.00    -0.002 A 
BRANCH  11  14
HETATM   14  C   UNL     1       8.498   6.415  92.481  1.00  0.00    -0.059 C 
HETATM   15  C   UNL     1       7.721   7.331  92.532  1.00  0.00    -0.059 C 
BRANCH  15  16
HETATM   16  C   UNL     1       6.796   8.420  92.593  1.00  0.00     0.042 A 
HETATM   17  C   UNL     1       5.454   8.179  92.890  1.00  0.00     0.008 A 
HETATM   18  C   UNL     1       4.553   9.242  92.952  1.00  0.00     0.005 A 
HETATM   19  C   UNL     1       5.013  10.520  92.718  1.00  0.00     0.056 A 
HETATM   20  C   UNL     1       6.334  10.785  92.423  1.00  0.00     0.005 A 
HETATM   21  C   UNL     1       7.237   9.723  92.360  1.00  0.00     0.008 A 
BRANCH  19  22
HETATM   22  C   UNL     1       4.053  11.652  92.782  1.00  0.00     0.254 C 
HETATM   23  O   UNL     1       3.061  11.557  93.502  1.00  0.00    -0.268 OA
HETATM   24  N   UNL     1       4.375  12.767  92.021  1.00  0.00    -0.335 N 
HETATM   25  HN  UNL     1       5.225  12.784  91.470  1.00  0.00     0.164 HD
BRANCH  24  26
HETATM   26  C   UNL     1       3.556  13.953  91.998  1.00  0.00     0.169 C 
BRANCH  26  27
HETATM   27  C   UNL     1       3.931  14.955  93.098  1.00  0.00     0.138 C 
HETATM   28  C   UNL     1       2.710  15.624  93.718  1.00  0.00     0.034 C 
BRANCH  27  29
HETATM   29  O   UNL     1       4.663  14.285  94.124  1.00  0.00    -0.383 OA
HETATM   30  H   UNL     1       4.235  13.430  94.295  1.00  0.00     0.210 HD
ENDBRANCH  27  29
ENDBRANCH  26  27
BRANCH  26  31
HETATM   31  C   UNL     1       3.681  14.578  90.613  1.00  0.00     0.194 C 
HETATM   32  O   UNL     1       4.298  15.620  90.401  1.00  0.00    -0.289 OA
BRANCH  31  33
HETATM   33  C   UNL     1       2.998  13.864  89.658  1.00  0.00     0.053 C 
BRANCH  33  34
HETATM   34  C   UNL     1       3.691  12.786  89.090  1.00  0.00     0.220 C 
BRANCH  34  35
HETATM   35  O   UNL     1       2.901  12.176  88.345  1.00  0.00    -0.371 OA
HETATM   36  H   UNL     1       3.448  11.430  88.153  1.00  0.00     0.211 HD
ENDBRANCH  34  35
BRANCH  34  37
HETATM   37  C   UNL     1       4.868  13.166  88.422  1.00  0.00     0.185 C 
HETATM   38  O   UNL     1       5.397  12.180  89.129  1.00  0.00    -0.647 OA
BRANCH  37  39
HETATM   39  O   UNL     1       5.196  14.008  87.641  1.00  0.00    -0.774 OA
HETATM   40  H   UNL     1       6.000  13.632  86.933  1.00  0.00     0.167 HD
ENDBRANCH  37  39
ENDBRANCH  34  37
ENDBRANCH  33  34
ENDBRANCH  31  33
ENDBRANCH  26  31
ENDBRANCH  24  26
ENDBRANCH  19  22
ENDBRANCH  15  16
ENDBRANCH  11  14
ENDBRANCH   7   8
ENDBRANCH   2   7
TORSDOF 14
ENDMDL
MODEL 4
REMARK VINA RESULT:      -4.6      2.383      4.053
REMARK  14 active torsions:
REMARK  status: ('A' for Active; 'I' for Inactive)
REMARK    1  A    between atoms: O_2  and  C_18 
REMARK    2  A    between atoms: C_5  and  C_8 
REMARK    3  A    between atoms: C_5  and  O_35 
REMARK    4  A    between atoms: C_5  and  C_36 
REMARK    5  A    between atoms: N_6  and  C_11 
REMARK    6  A    between atoms: N_7  and  C_15 
REMARK       I    between atoms: N_7  and  C_24 
REMARK    7  A    between atoms: C_8  and  C_23 
REMARK    8  A    between atoms: C_11  and  C_14 
REMARK    9  A    between atoms: C_15  and  C_18 
REMARK   10  A    between atoms: C_15  and  C_23 
REMARK   11  A    between atoms: C_21  and  C_26 
REMARK   12  A    between atoms: C_24  and  C_25 
REMARK   13  A    between atoms: C_29  and  C_32 
REMARK   14  A    between atoms: C_36  and  O_39 
ROOT
HETATM    1  O   UNL     1      17.354   4.461  93.201  1.00  0.00    -0.350 OA
HETATM    2  N   UNL     1      15.234   2.690  93.888  1.00  0.00     0.147 N 
HETATM    3  C   UNL     1      16.299   2.289  92.958  1.00  0.00     0.283 C 
HETATM    4  C   UNL     1      15.031   4.144  93.823  1.00  0.00     0.283 C 
HETATM    5  C   UNL     1      17.581   3.053  93.280  1.00  0.00     0.178 C 
HETATM    6  C   UNL     1      16.341   4.864  94.124  1.00  0.00     0.178 C 
ENDROOT
BRANCH   2   7
HETATM    7  C   UNL     1      13.993   1.977  93.591  1.00  0.00     0.277 C 
BRANCH   7   8
HETATM    8  C   UNL     1      12.942   2.876  93.033  1.00  0.00     0.011 A 
HETATM    9  C   UNL     1      12.117   3.601  93.893  1.00  0.00    -0.002 A 
HETATM   10  C   UNL     1      11.132   4.440  93.372  1.00  0.00     0.008 A 
HETATM   11  C   UNL     1      10.974   4.555  91.991  1.00  0.00     0.042 A 
HETATM   12  C   UNL     1      11.797   3.831  91.131  1.00  0.00     0.008 A 
HETATM   13  C   UNL     1      12.782   2.991  91.652  1.00  0.00    -0.002 A 
BRANCH  11  14
HETATM   14  C   UNL     1       9.965   5.417  91.457  1.00  0.00    -0.059 C 
HETATM   15  C   UNL     1       9.117   6.142  91.008  1.00  0.00    -0.059 C 
BRANCH  15  16
HETATM   16  C   UNL     1       8.109   7.004  90.475  1.00  0.00     0.042 A 
HETATM   17  C   UNL     1       7.823   6.980  89.110  1.00  0.00     0.008 A 
HETATM   18  C   UNL     1       6.838   7.820  88.590  1.00  0.00     0.005 A 
HETATM   19  C   UNL     1       6.161   8.663  89.446  1.00  0.00     0.056 A 
HETATM   20  C   UNL     1       6.425   8.705  90.799  1.00  0.00     0.005 A 
HETATM   21  C   UNL     1       7.410   7.866  91.320  1.00  0.00     0.008 A 
BRANCH  19  22
HETATM   22  C   UNL     1       5.113   9.558  88.892  1.00  0.00     0.254 C 
HETATM   23  O   UNL     1       5.117   9.814  87.691  1.00  0.00    -0.268 OA
HETATM   24  N   UNL     1       4.172  10.027  89.799  1.00  0.00    -0.335 N 
HETATM   25  HN  UNL     1       4.217   9.753  90.773  1.00  0.00     0.164 HD
BRANCH  24  26
HETATM   26  C   UNL     1       3.081  10.884  89.410  1.00  0.00     0.169 C 
BRANCH  26  27
HETATM   27  C   UNL     1       3.554  12.227  88.840  1.00  0.00     0.138 C 
HETATM   28  C   UNL     1       4.650  12.866  89.685  1.00  0.00     0.034 C 
BRANCH  27  29
HETATM   29  O   UNL     1       4.045  12.035  87.513  1.00  0.00    -0.383 OA
HETATM   30  H   UNL     1       3.427  12.462  86.895  1.00  0.00     0.210 HD
ENDBRANCH  27  29
ENDBRANCH  26  27
BRANCH  26  31
HETATM   31  C   UNL     1       2.227  10.123  88.401  1.00  0.00     0.194 C 
HETATM   32  O   UNL     1       1.883  10.599  87.321  1.00  0.00    -0.289 OA
BRANCH  31  33
HETATM   33  C   UNL     1       1.867   8.879  88.860  1.00  0.00     0.053 C 
BRANCH  33  34
HETATM   34  C   UNL     1       1.992   7.830  87.938  1.00  0.00     0.220 C 
BRANCH  34  35
HETATM   35  O   UNL     1       3.007   8.046  87.250  1.00  0.00    -0.371 OA
HETATM   36  H   UNL     1       2.931   7.307  86.666  1.00  0.00     0.211 HD
ENDBRANCH  34  35
BRANCH  34  37
HETATM   37  C   UNL     1       2.014   6.558  88.537  1.00  0.00     0.185 C 
HETATM   38  O   UNL     1       3.269   6.884  88.807  1.00  0.00    -0.647 OA
BRANCH  37  39
HETATM   39  O   UNL     1       1.260   5.642  88.671  1.00  0.00    -0.774 OA
HETATM   40  H   UNL     1       1.244   4.976  87.753  1.00  0.00     0.167 HD
ENDBRANCH  37  39
ENDBRANCH  34  37
ENDBRANCH  33  34
ENDBRANCH  31  33
ENDBRANCH  26  31
ENDBRANCH  24  26
ENDBRANCH  19  22
ENDBRANCH  15  16
ENDBRANCH  11  14
ENDBRANCH   7   8
ENDBRANCH   2   7
TORSDOF 14
ENDMDL
