MODEL 1
REMARK VINA RESULT:      -6.5      0.000      0.000
REMARK  14 active torsions:
REMARK  status: ('A' for Active; 'I' for Inactive)
REMARK    1  A    between atoms: O_2  and  C_18 
REMARK    2  A    between atoms: C_5  and  C_8 
REMARK    3  A    between atoms: C_5  and  O_35 
REMARK    4  A    between atoms: C_5  and  C_36 
REMARK    5  A    between atoms: N_6  and  C_11 
REMARK    6  A    between atoms: N_7  and  C_15 
REMARK       I    between atoms: N_7  and  C_24 
REMARK    7  A    between atoms: C_8  and  C_23 
REMARK    8  A    between atoms: C_11  and  C_14 
REMARK    9  A    between atoms: C_15  and  C_18 
REMARK   10  A    between atoms: C_15  and  C_23 
REMARK   11  A    between atoms: C_21  and  C_26 
REMARK   12  A    between atoms: C_24  and  C_25 
REMARK   13  A    between atoms: C_29  and  C_32 
REMARK   14  A    between atoms: C_36  and  O_39 
ROOT
HETATM    1  O   UNL     1      16.616   3.313  93.738  1.00  0.00    -0.350 OA
HETATM    2  N   UNL     1      13.957   2.835  92.840  1.00  0.00     0.147 N 
HETATM    3  C   UNL     1      14.905   1.733  93.055  1.00  0.00     0.283 C 
HETATM    4  C   UNL     1      14.683   4.060  92.476  1.00  0.00     0.283 C 
HETATM    5  C   UNL     1      15.921   2.126  94.124  1.00  0.00     0.178 C 
HETATM    6  C   UNL     1      15.704   4.397  93.557  1.00  0.00     0.178 C 
ENDROOT
BRANCH   2   7
HETATM    7  C   UNL     1      12.980   2.485  91.812  1.00  0.00     0.277 C 
BRANCH   7   8
HETATM    8  C   UNL     1      11.839   3.444  91.761  1.00  0.00     0.011 A 
HETATM    9  C   UNL     1      11.316   3.839  90.530  1.00  0.00    -0.002 A 
HETATM   10  C   UNL     1      10.250   4.738  90.482  1.00  0.00     0.008 A 
HETATM   11  C   UNL     1       9.708   5.239  91.665  1.00  0.00     0.042 A 
HETATM   12  C   UNL     1      10.229   4.844  92.895  1.00  0.00     0.008 A 
HETATM   13  C   UNL     1      11.295   3.946  92.943  1.00  0.00    -0.002 A 
BRANCH  11  14
HETATM   14  C   UNL     1       8.613   6.159  91.615  1.00  0.00    -0.059 C 
HETATM   15  C   UNL     1       7.694   6.933  91.573  1.00  0.00    -0.059 C 
BRANCH  15  16
HETATM   16  C   UNL     1       6.601   7.853  91.523  1.00  0.00     0.042 A 
HETATM   17  C   UNL     1       6.132   8.443  92.697  1.00  0.00     0.008 A 
HETATM   18  C   UNL     1       5.068   9.343  92.648  1.00  0.00     0.005 A 
HETATM   19  C   UNL     1       4.496   9.633  91.427  1.00  0.00     0.056 A 
HETATM   20  C   UNL     1       4.941   9.063  90.252  1.00  0.00     0.005 A 
HETATM   21  C   UNL     1       6.005   8.163  90.300  1.00  0.00     0.008 A 
BRANCH  19  22
HETATM   22  C   UNL     1       3.361  10.590  91.374  1.00  0.00     0.254 C 
HETATM   23  O   UNL     1       2.215  10.157  91.278  1.00  0.00    -0.268 OA
HETATM   24  N   UNL     1       3.694  11.934  91.466  1.00  0.00    -0.335 N 
HETATM   25  HN  UNL     1       4.662  12.217  91.569  1.00  0.00     0.164 HD
BRANCH  24  26
HETATM   26  C   UNL     1       2.704  12.981  91.455  1.00  0.00     0.169 C 
BRANCH  26  27
HETATM   27  C   UNL     1       2.667  13.777  92.766  1.00  0.00     0.138 C 
HETATM   28  C   UNL     1       4.053  14.221  93.219  1.00  0.00     0.034 C 
BRANCH  27  29
HETATM   29  O   UNL     1       1.841  14.929  92.601  1.00  0.00    -0.383 OA
HETATM   30  H   UNL     1       1.018  14.788  93.098  1.00  0.00     0.210 HD
ENDBRANCH  27  29
ENDBRANCH  26  27
BRANCH  26  31
HETATM   31  C   UNL     1       2.999  13.888  90.264  1.00  0.00     0.194 C 
HETATM   32  O   UNL     1       2.119  14.473  89.635  1.00  0.00    -0.289 OA
BRANCH  31  33
HETATM   33  C   UNL     1       4.339  13.935  89.966  1.00  0.00     0.053 C 
BRANCH  33  34
HETATM   34  C   UNL     1       4.671  13.756  88.616  1.00  0.00     0.220 C 
BRANCH  34  35
HETATM   35  O   UNL     1       5.846  14.138  88.459  1.00  0.00    -0.371 OA
HETATM   36  H   UNL     1       5.714  14.657  87.680  1.00  0.00     0.211 HD
ENDBRANCH  34  35
BRANCH  34  37
HETATM   37  C   UNL     1       4.472  12.442  88.160  1.00  0.00     0.185 C 
HETATM   38  O   UNL     1       5.544  12.194  88.895  1.00  0.00    -0.647 OA
BRANCH  37  39
HETATM   39  O   UNL     1       3.718  11.876  87.426  1.00  0.00    -0.774 OA
HETATM   40  H   UNL     1       2.805  12.509  87.195  1.00  0.00     0.167 HD
ENDBRANCH  37  39
ENDBRANCH  34  37
ENDBRANCH  33  34
ENDBRANCH  31  33
ENDBRANCH  26  31
ENDBRANCH  24  26
ENDBRANCH  19  22
ENDBRANCH  15  16
ENDBRANCH  11  14
ENDBRANCH   7   8
ENDBRANCH   2   7
TORSDOF 14
ENDMDL
