MODEL 1
REMARK VINA RESULT:      -6.2      0.000      0.000
REMARK  12 active torsions:
REMARK  status: ('A' for Active; 'I' for Inactive)
REMARK    1  A    between atoms: O_2  and  C_16 
REMARK    2  A    between atoms: N_5  and  C_9 
REMARK    3  A    between atoms: N_6  and  C_13 
REMARK       I    between atoms: N_6  and  C_22 
REMARK    4  A    between atoms: C_9  and  C_12 
REMARK    5  A    between atoms: C_13  and  C_16 
REMARK    6  A    between atoms: C_13  and  C_21 
REMARK    7  A    between atoms: C_19  and  C_24 
REMARK    8  A    between atoms: C_21  and  C_33 
REMARK    9  A    between atoms: C_22  and  C_23 
REMARK   10  A    between atoms: C_27  and  C_30 
REMARK   11  A    between atoms: C_33  and  C_34 
REMARK   12  A    between atoms: C_34  and  C_35 
ROOT
HETATM    1  O   UNL     1      16.485   3.406  93.698  1.00  0.00    -0.350 OA
HETATM    2  N   UNL     1      13.844   2.766  92.851  1.00  0.00     0.147 N 
HETATM    3  C   UNL     1      14.851   1.721  93.080  1.00  0.00     0.283 C 
HETATM    4  C   UNL     1      14.499   4.017  92.445  1.00  0.00     0.283 C 
HETATM    5  C   UNL     1      15.859   2.194  94.124  1.00  0.00     0.178 C 
HETATM    6  C   UNL     1      15.515   4.436  93.503  1.00  0.00     0.178 C 
ENDROOT
BRANCH   2   7
HETATM    7  C   UNL     1      12.873   2.338  91.845  1.00  0.00     0.277 C 
BRANCH   7   8
HETATM    8  C   UNL     1      11.715   3.271  91.739  1.00  0.00     0.011 A 
HETATM    9  C   UNL     1      11.096   3.476  90.506  1.00  0.00    -0.002 A 
HETATM   10  C   UNL     1      10.015   4.351  90.405  1.00  0.00     0.008 A 
HETATM   11  C   UNL     1       9.551   5.019  91.539  1.00  0.00     0.042 A 
HETATM   12  C   UNL     1      10.169   4.814  92.771  1.00  0.00     0.008 A 
HETATM   13  C   UNL     1      11.251   3.940  92.872  1.00  0.00    -0.002 A 
BRANCH  11  14
HETATM   14  C   UNL     1       8.440   5.914  91.436  1.00  0.00    -0.059 C 
HETATM   15  C   UNL     1       7.506   6.667  91.350  1.00  0.00    -0.059 C 
BRANCH  15  16
HETATM   16  C   UNL     1       6.396   7.562  91.249  1.00  0.00     0.042 A 
HETATM   17  C   UNL     1       6.131   8.207  90.040  1.00  0.00     0.008 A 
HETATM   18  C   UNL     1       5.046   9.078  89.941  1.00  0.00     0.005 A 
HETATM   19  C   UNL     1       4.252   9.284  91.049  1.00  0.00     0.056 A 
HETATM   20  C   UNL     1       4.494   8.659  92.254  1.00  0.00     0.005 A 
HETATM   21  C   UNL     1       5.578   7.787  92.356  1.00  0.00     0.008 A 
BRANCH  19  22
HETATM   22  C   UNL     1       3.098  10.214  90.943  1.00  0.00     0.254 C 
HETATM   23  O   UNL     1       2.025   9.792  90.518  1.00  0.00    -0.268 OA
HETATM   24  N   UNL     1       3.325  11.516  91.368  1.00  0.00    -0.335 N 
HETATM   25  HN  UNL     1       4.231  11.786  91.731  1.00  0.00     0.164 HD
BRANCH  24  26
HETATM   26  C   UNL     1       2.299  12.527  91.349  1.00  0.00     0.166 C 
BRANCH  26  27
HETATM   27  C   UNL     1       1.855  12.948  92.756  1.00  0.00     0.138 C 
HETATM   28  C   UNL     1       1.257  11.792  93.550  1.00  0.00     0.034 C 
BRANCH  27  29
HETATM   29  O   UNL     1       2.973  13.473  93.472  1.00  0.00    -0.383 OA
HETATM   30  H   UNL     1       2.750  14.371  93.770  1.00  0.00     0.210 HD
ENDBRANCH  27  29
ENDBRANCH  26  27
BRANCH  26  31
HETATM   31  C   UNL     1       2.831  13.717  90.557  1.00  0.00     0.181 C 
HETATM   32  O   UNL     1       2.387  14.857  90.681  1.00  0.00    -0.294 OA
BRANCH  31  33
HETATM   33  C   UNL     1       4.443  13.844  90.672  1.00  0.00     0.138 C 
BRANCH  33  34
HETATM   34  C   UNL     1       4.774  14.306  89.379  1.00  0.00     0.208 C 
HETATM   35  O   UNL     1       5.266  15.410  89.318  1.00  0.00    -0.289 OA
BRANCH  34  36
HETATM   36  C   UNL     1       4.905  13.626  88.200  1.00  0.00     0.194 C 
HETATM   37  O   UNL     1       4.470  12.345  87.842  1.00  0.00    -0.185 OA
ENDBRANCH  34  36
ENDBRANCH  33  34
ENDBRANCH  31  33
ENDBRANCH  26  31
ENDBRANCH  24  26
ENDBRANCH  19  22
ENDBRANCH  15  16
ENDBRANCH  11  14
ENDBRANCH   7   8
ENDBRANCH   2   7
TORSDOF 12
ENDMDL
MODEL 2
REMARK VINA RESULT:      -5.8      1.432      2.027
REMARK  12 active torsions:
REMARK  status: ('A' for Active; 'I' for Inactive)
REMARK    1  A    between atoms: O_2  and  C_16 
REMARK    2  A    between atoms: N_5  and  C_9 
REMARK    3  A    between atoms: N_6  and  C_13 
REMARK       I    between atoms: N_6  and  C_22 
REMARK    4  A    between atoms: C_9  and  C_12 
REMARK    5  A    between atoms: C_13  and  C_16 
REMARK    6  A    between atoms: C_13  and  C_21 
REMARK    7  A    between atoms: C_19  and  C_24 
REMARK    8  A    between atoms: C_21  and  C_33 
REMARK    9  A    between atoms: C_22  and  C_23 
REMARK   10  A    between atoms: C_27  and  C_30 
REMARK   11  A    between atoms: C_33  and  C_34 
REMARK   12  A    between atoms: C_34  and  C_35 
ROOT
HETATM    1  O   UNL     1      16.421   4.157  94.124  1.00  0.00    -0.350 OA
HETATM    2  N   UNL     1      14.603   2.696  92.493  1.00  0.00     0.147 N 
HETATM    3  C   UNL     1      14.545   4.161  92.584  1.00  0.00     0.283 C 
HETATM    4  C   UNL     1      15.138   2.135  93.741  1.00  0.00     0.283 C 
HETATM    5  C   UNL     1      15.932   4.714  92.902  1.00  0.00     0.178 C 
HETATM    6  C   UNL     1      16.509   2.735  94.033  1.00  0.00     0.178 C 
ENDROOT
BRANCH   2   7
HETATM    7  C   UNL     1      13.281   2.143  92.200  1.00  0.00     0.277 C 
BRANCH   7   8
HETATM    8  C   UNL     1      12.211   3.180  92.239  1.00  0.00     0.011 A 
HETATM    9  C   UNL     1      11.844   3.758  93.455  1.00  0.00    -0.002 A 
HETATM   10  C   UNL     1      10.841   4.726  93.493  1.00  0.00     0.008 A 
HETATM   11  C   UNL     1      10.207   5.118  92.315  1.00  0.00     0.042 A 
HETATM   12  C   UNL     1      10.572   4.542  91.099  1.00  0.00     0.008 A 
HETATM   13  C   UNL     1      11.575   3.573  91.061  1.00  0.00    -0.002 A 
BRANCH  11  14
HETATM   14  C   UNL     1       9.180   6.113  92.353  1.00  0.00    -0.059 C 
HETATM   15  C   UNL     1       8.316   6.949  92.385  1.00  0.00    -0.059 C 
BRANCH  15  16
HETATM   16  C   UNL     1       7.289   7.943  92.424  1.00  0.00     0.042 A 
HETATM   17  C   UNL     1       7.599   9.251  92.795  1.00  0.00     0.008 A 
HETATM   18  C   UNL     1       6.597  10.221  92.830  1.00  0.00     0.005 A 
HETATM   19  C   UNL     1       5.309   9.861  92.493  1.00  0.00     0.056 A 
HETATM   20  C   UNL     1       4.977   8.575  92.124  1.00  0.00     0.005 A 
HETATM   21  C   UNL     1       5.978   7.604  92.089  1.00  0.00     0.008 A 
BRANCH  19  22
HETATM   22  C   UNL     1       4.242  10.894  92.533  1.00  0.00     0.254 C 
HETATM   23  O   UNL     1       3.260  10.716  93.250  1.00  0.00    -0.268 OA
HETATM   24  N   UNL     1       4.458  12.022  91.752  1.00  0.00    -0.335 N 
HETATM   25  HN  UNL     1       5.305  12.112  91.205  1.00  0.00     0.164 HD
BRANCH  24  26
HETATM   26  C   UNL     1       3.527  13.121  91.704  1.00  0.00     0.166 C 
BRANCH  26  27
HETATM   27  C   UNL     1       3.996  14.332  92.520  1.00  0.00     0.138 C 
HETATM   28  C   UNL     1       2.837  15.208  92.982  1.00  0.00     0.034 C 
BRANCH  27  29
HETATM   29  O   UNL     1       4.723  13.884  93.664  1.00  0.00    -0.383 OA
HETATM   30  H   UNL     1       5.594  14.314  93.659  1.00  0.00     0.210 HD
ENDBRANCH  27  29
ENDBRANCH  26  27
BRANCH  26  31
HETATM   31  C   UNL     1       3.317  13.488  90.238  1.00  0.00     0.181 C 
HETATM   32  O   UNL     1       2.327  14.097  89.836  1.00  0.00    -0.294 OA
BRANCH  31  33
HETATM   33  C   UNL     1       4.603  14.257  89.619  1.00  0.00     0.138 C 
BRANCH  33  34
HETATM   34  C   UNL     1       5.052  13.315  88.667  1.00  0.00     0.208 C 
HETATM   35  O   UNL     1       6.240  13.315  88.437  1.00  0.00    -0.289 OA
BRANCH  34  36
HETATM   36  C   UNL     1       4.437  12.204  88.160  1.00  0.00     0.194 C 
HETATM   37  O   UNL     1       4.555  10.858  88.525  1.00  0.00    -0.185 OA
ENDBRANCH  34  36
ENDBRANCH  33  34
ENDBRANCH  31  33
ENDBRANCH  26  31
ENDBRANCH  24  26
ENDBRANCH  19  22
ENDBRANCH  15  16
ENDBRANCH  11  14
ENDBRANCH   7   8
ENDBRANCH   2   7
TORSDOF 12
ENDMDL
MODEL 3
REMARK VINA RESULT:      -5.4      2.413     12.790
REMARK  12 active torsions:
REMARK  status: ('A' for Active; 'I' for Inactive)
REMARK    1  A    between atoms: O_2  and  C_16 
REMARK    2  A    between atoms: N_5  and  C_9 
REMARK    3  A    between atoms: N_6  and  C_13 
REMARK       I    between atoms: N_6  and  C_22 
REMARK    4  A    between atoms: C_9  and  C_12 
REMARK    5  A    between atoms: C_13  and  C_16 
REMARK    6  A    between atoms: C_13  and  C_21 
REMARK    7  A    between atoms: C_19  and  C_24 
REMARK    8  A    between atoms: C_21  and  C_33 
REMARK    9  A    between atoms: C_22  and  C_23 
REMARK   10  A    between atoms: C_27  and  C_30 
REMARK   11  A    between atoms: C_33  and  C_34 
REMARK   12  A    between atoms: C_34  and  C_35 
ROOT
HETATM    1  O   UNL     1       3.006  14.956  93.925  1.00  0.00    -0.350 OA
HETATM    2  N   UNL     1       2.639  14.578  91.128  1.00  0.00     0.147 N 
HETATM    3  C   UNL     1       1.745  13.951  92.111  1.00  0.00     0.283 C 
HETATM    4  C   UNL     1       3.976  14.765  91.709  1.00  0.00     0.283 C 
HETATM    5  C   UNL     1       1.695  14.800  93.379  1.00  0.00     0.178 C 
HETATM    6  C   UNL     1       3.873  15.593  92.986  1.00  0.00     0.178 C 
ENDROOT
BRANCH   2   7
HETATM    7  C   UNL     1       2.711  13.775  89.908  1.00  0.00     0.277 C 
BRANCH   7   8
HETATM    8  C   UNL     1       3.672  12.642  90.029  1.00  0.00     0.011 A 
HETATM    9  C   UNL     1       4.914  12.711  89.397  1.00  0.00    -0.002 A 
HETATM   10  C   UNL     1       5.813  11.651  89.508  1.00  0.00     0.008 A 
HETATM   11  C   UNL     1       5.471  10.523  90.253  1.00  0.00     0.042 A 
HETATM   12  C   UNL     1       4.231  10.453  90.886  1.00  0.00     0.008 A 
HETATM   13  C   UNL     1       3.331  11.513  90.774  1.00  0.00    -0.002 A 
BRANCH  11  14
HETATM   14  C   UNL     1       6.394   9.436  90.369  1.00  0.00    -0.059 C 
HETATM   15  C   UNL     1       7.169   8.522  90.466  1.00  0.00    -0.059 C 
BRANCH  15  16
HETATM   16  C   UNL     1       8.092   7.436  90.580  1.00  0.00     0.042 A 
HETATM   17  C   UNL     1       8.022   6.366  89.688  1.00  0.00     0.008 A 
HETATM   18  C   UNL     1       8.924   5.308  89.799  1.00  0.00     0.005 A 
HETATM   19  C   UNL     1       9.875   5.343  90.797  1.00  0.00     0.056 A 
HETATM   20  C   UNL     1       9.965   6.390  91.691  1.00  0.00     0.005 A 
HETATM   21  C   UNL     1       9.063   7.448  91.582  1.00  0.00     0.008 A 
BRANCH  19  22
HETATM   22  C   UNL     1      10.835   4.215  90.915  1.00  0.00     0.254 C 
HETATM   23  O   UNL     1      10.566   3.141  90.382  1.00  0.00    -0.268 OA
HETATM   24  N   UNL     1      12.002   4.480  91.618  1.00  0.00    -0.335 N 
HETATM   25  HN  UNL     1      12.167   5.400  92.010  1.00  0.00     0.164 HD
BRANCH  24  26
HETATM   26  C   UNL     1      13.039   3.497  91.798  1.00  0.00     0.166 C 
BRANCH  26  27
HETATM   27  C   UNL     1      14.325   3.844  91.037  1.00  0.00     0.138 C 
HETATM   28  C   UNL     1      14.332   3.287  89.618  1.00  0.00     0.034 C 
BRANCH  27  29
HETATM   29  O   UNL     1      14.477   5.262  90.979  1.00  0.00    -0.383 OA
HETATM   30  H   UNL     1      13.595   5.666  91.038  1.00  0.00     0.210 HD
ENDBRANCH  27  29
ENDBRANCH  26  27
BRANCH  26  31
HETATM   31  C   UNL     1      13.299   3.363  93.295  1.00  0.00     0.181 C 
HETATM   32  O   UNL     1      12.400   3.222  94.121  1.00  0.00    -0.294 OA
BRANCH  31  33
HETATM   33  C   UNL     1      14.392   2.210  93.616  1.00  0.00     0.138 C 
BRANCH  33  34
HETATM   34  C   UNL     1      15.568   2.979  93.758  1.00  0.00     0.208 C 
HETATM   35  O   UNL     1      16.567   2.525  93.248  1.00  0.00    -0.289 OA
BRANCH  34  36
HETATM   36  C   UNL     1      15.734   4.287  94.123  1.00  0.00     0.194 C 
HETATM   37  O   UNL     1      16.092   5.402  93.356  1.00  0.00    -0.185 OA
ENDBRANCH  34  36
ENDBRANCH  33  34
ENDBRANCH  31  33
ENDBRANCH  26  31
ENDBRANCH  24  26
ENDBRANCH  19  22
ENDBRANCH  15  16
ENDBRANCH  11  14
ENDBRANCH   7   8
ENDBRANCH   2   7
TORSDOF 12
ENDMDL
MODEL 4
REMARK VINA RESULT:      -4.6      1.665      2.412
REMARK  12 active torsions:
REMARK  status: ('A' for Active; 'I' for Inactive)
REMARK    1  A    between atoms: O_2  and  C_16 
REMARK    2  A    between atoms: N_5  and  C_9 
REMARK    3  A    between atoms: N_6  and  C_13 
REMARK       I    between atoms: N_6  and  C_22 
REMARK    4  A    between atoms: C_9  and  C_12 
REMARK    5  A    between atoms: C_13  and  C_16 
REMARK    6  A    between atoms: C_13  and  C_21 
REMARK    7  A    between atoms: C_19  and  C_24 
REMARK    8  A    between atoms: C_21  and  C_33 
REMARK    9  A    between atoms: C_22  and  C_23 
REMARK   10  A    between atoms: C_27  and  C_30 
REMARK   11  A    between atoms: C_33  and  C_34 
REMARK   12  A    between atoms: C_34  and  C_35 
ROOT
HETATM    1  O   UNL     1      16.645   2.893  93.749  1.00  0.00    -0.350 OA
HETATM    2  N   UNL     1      13.872   2.865  93.110  1.00  0.00     0.147 N 
HETATM    3  C   UNL     1      14.664   1.628  93.144  1.00  0.00     0.283 C 
HETATM    4  C   UNL     1      14.731   4.004  92.757  1.00  0.00     0.283 C 
HETATM    5  C   UNL     1      15.825   1.785  94.123  1.00  0.00     0.178 C 
HETATM    6  C   UNL     1      15.889   4.104  93.744  1.00  0.00     0.178 C 
ENDROOT
BRANCH   2   7
HETATM    7  C   UNL     1      12.759   2.742  92.169  1.00  0.00     0.277 C 
BRANCH   7   8
HETATM    8  C   UNL     1      11.790   3.868  92.285  1.00  0.00     0.011 A 
HETATM    9  C   UNL     1      11.447   4.366  93.543  1.00  0.00    -0.002 A 
HETATM   10  C   UNL     1      10.539   5.418  93.653  1.00  0.00     0.008 A 
HETATM   11  C   UNL     1       9.975   5.974  92.505  1.00  0.00     0.042 A 
HETATM   12  C   UNL     1      10.316   5.478  91.248  1.00  0.00     0.008 A 
HETATM   13  C   UNL     1      11.224   4.425  91.138  1.00  0.00    -0.002 A 
BRANCH  11  14
HETATM   14  C   UNL     1       9.044   7.054  92.618  1.00  0.00    -0.059 C 
HETATM   15  C   UNL     1       8.261   7.962  92.712  1.00  0.00    -0.059 C 
BRANCH  15  16
HETATM   16  C   UNL     1       7.331   9.042  92.825  1.00  0.00     0.042 A 
HETATM   17  C   UNL     1       7.347   9.859  93.956  1.00  0.00     0.008 A 
HETATM   18  C   UNL     1       6.441  10.914  94.065  1.00  0.00     0.005 A 
HETATM   19  C   UNL     1       5.541  11.129  93.042  1.00  0.00     0.056 A 
HETATM   20  C   UNL     1       5.505  10.335  91.915  1.00  0.00     0.005 A 
HETATM   21  C   UNL     1       6.410   9.280  91.805  1.00  0.00     0.008 A 
BRANCH  19  22
HETATM   22  C   UNL     1       4.575  12.252  93.160  1.00  0.00     0.254 C 
HETATM   23  O   UNL     1       4.668  13.026  94.109  1.00  0.00    -0.268 OA
HETATM   24  N   UNL     1       3.633  12.352  92.146  1.00  0.00    -0.335 N 
HETATM   25  HN  UNL     1       3.632  11.689  91.379  1.00  0.00     0.164 HD
BRANCH  24  26
HETATM   26  C   UNL     1       2.645  13.400  92.106  1.00  0.00     0.166 C 
BRANCH  26  27
HETATM   27  C   UNL     1       3.007  14.591  93.002  1.00  0.00     0.138 C 
HETATM   28  C   UNL     1       4.199  15.379  92.472  1.00  0.00     0.034 C 
BRANCH  27  29
HETATM   29  O   UNL     1       1.884  15.466  93.109  1.00  0.00    -0.383 OA
HETATM   30  H   UNL     1       2.211  16.358  93.312  1.00  0.00     0.210 HD
ENDBRANCH  27  29
ENDBRANCH  26  27
BRANCH  26  31
HETATM   31  C   UNL     1       2.480  13.830  90.652  1.00  0.00     0.181 C 
HETATM   32  O   UNL     1       1.783  14.783  90.310  1.00  0.00    -0.294 OA
BRANCH  31  33
HETATM   33  C   UNL     1       3.912  14.030  89.917  1.00  0.00     0.138 C 
BRANCH  33  34
HETATM   34  C   UNL     1       3.920  12.932  89.030  1.00  0.00     0.208 C 
HETATM   35  O   UNL     1       3.176  12.019  89.306  1.00  0.00    -0.289 OA
BRANCH  34  36
HETATM   36  C   UNL     1       4.405  12.825  87.755  1.00  0.00     0.194 C 
HETATM   37  O   UNL     1       5.299  13.643  87.055  1.00  0.00    -0.185 OA
ENDBRANCH  34  36
ENDBRANCH  33  34
ENDBRANCH  31  33
ENDBRANCH  26  31
ENDBRANCH  24  26
ENDBRANCH  19  22
ENDBRANCH  15  16
ENDBRANCH  11  14
ENDBRANCH   7   8
ENDBRANCH   2   7
TORSDOF 12
ENDMDL
MODEL 5
REMARK VINA RESULT:      -3.8      2.462      3.448
REMARK  12 active torsions:
REMARK  status: ('A' for Active; 'I' for Inactive)
REMARK    1  A    between atoms: O_2  and  C_16 
REMARK    2  A    between atoms: N_5  and  C_9 
REMARK    3  A    between atoms: N_6  and  C_13 
REMARK       I    between atoms: N_6  and  C_22 
REMARK    4  A    between atoms: C_9  and  C_12 
REMARK    5  A    between atoms: C_13  and  C_16 
REMARK    6  A    between atoms: C_13  and  C_21 
REMARK    7  A    between atoms: C_19  and  C_24 
REMARK    8  A    between atoms: C_21  and  C_33 
REMARK    9  A    between atoms: C_22  and  C_23 
REMARK   10  A    between atoms: C_27  and  C_30 
REMARK   11  A    between atoms: C_33  and  C_34 
REMARK   12  A    between atoms: C_34  and  C_35 
ROOT
HETATM    1  O   UNL     1      17.333   4.708  93.834  1.00  0.00    -0.350 OA
HETATM    2  N   UNL     1      15.308   2.729  93.549  1.00  0.00     0.147 N 
HETATM    3  C   UNL     1      16.720   2.426  93.279  1.00  0.00     0.283 C 
HETATM    4  C   UNL     1      15.037   4.149  93.286  1.00  0.00     0.283 C 
HETATM    5  C   UNL     1      17.613   3.336  94.119  1.00  0.00     0.178 C 
HETATM    6  C   UNL     1      15.970   5.017  94.124  1.00  0.00     0.178 C 
ENDROOT
BRANCH   2   7
HETATM    7  C   UNL     1      14.433   1.875  92.747  1.00  0.00     0.277 C 
BRANCH   7   8
HETATM    8  C   UNL     1      13.323   2.640  92.109  1.00  0.00     0.011 A 
HETATM    9  C   UNL     1      13.594   3.513  91.055  1.00  0.00    -0.002 A 
HETATM   10  C   UNL     1      12.557   4.231  90.460  1.00  0.00     0.008 A 
HETATM   11  C   UNL     1      11.249   4.072  90.916  1.00  0.00     0.042 A 
HETATM   12  C   UNL     1      10.977   3.200  91.968  1.00  0.00     0.008 A 
HETATM   13  C   UNL     1      12.014   2.483  92.565  1.00  0.00    -0.002 A 
BRANCH  11  14
HETATM   14  C   UNL     1      10.185   4.806  90.304  1.00  0.00    -0.059 C 
HETATM   15  C   UNL     1       9.290   5.423  89.789  1.00  0.00    -0.059 C 
BRANCH  15  16
HETATM   16  C   UNL     1       8.226   6.156  89.177  1.00  0.00     0.042 A 
HETATM   17  C   UNL     1       6.938   6.090  89.710  1.00  0.00     0.008 A 
HETATM   18  C   UNL     1       5.901   6.808  89.115  1.00  0.00     0.005 A 
HETATM   19  C   UNL     1       6.174   7.575  88.002  1.00  0.00     0.056 A 
HETATM   20  C   UNL     1       7.438   7.656  87.455  1.00  0.00     0.005 A 
HETATM   21  C   UNL     1       8.476   6.939  88.050  1.00  0.00     0.008 A 
BRANCH  19  22
HETATM   22  C   UNL     1       5.068   8.337  87.367  1.00  0.00     0.254 C 
HETATM   23  O   UNL     1       4.812   8.147  86.180  1.00  0.00    -0.268 OA
HETATM   24  N   UNL     1       4.378   9.211  88.195  1.00  0.00    -0.335 N 
HETATM   25  HN  UNL     1       4.631   9.298  89.173  1.00  0.00     0.164 HD
BRANCH  24  26
HETATM   26  C   UNL     1       3.266  10.003  87.734  1.00  0.00     0.166 C 
BRANCH  26  27
HETATM   27  C   UNL     1       1.912   9.448  88.192  1.00  0.00     0.138 C 
HETATM   28  C   UNL     1       1.504   8.196  87.423  1.00  0.00     0.034 C 
BRANCH  27  29
HETATM   29  O   UNL     1       1.969   9.139  89.584  1.00  0.00    -0.383 OA
HETATM   30  H   UNL     1       1.320   9.695  90.047  1.00  0.00     0.210 HD
ENDBRANCH  27  29
ENDBRANCH  26  27
BRANCH  26  31
HETATM   31  C   UNL     1       3.475  11.431  88.225  1.00  0.00     0.181 C 
HETATM   32  O   UNL     1       2.854  11.911  89.172  1.00  0.00    -0.294 OA
BRANCH  31  33
HETATM   33  C   UNL     1       5.040  11.749  88.504  1.00  0.00     0.138 C 
BRANCH  33  34
HETATM   34  C   UNL     1       5.053  13.159  88.411  1.00  0.00     0.208 C 
HETATM   35  O   UNL     1       4.822  13.622  87.317  1.00  0.00    -0.289 OA
BRANCH  34  36
HETATM   36  C   UNL     1       4.999  14.114  89.389  1.00  0.00     0.194 C 
HETATM   37  O   UNL     1       4.580  15.447  89.329  1.00  0.00    -0.185 OA
ENDBRANCH  34  36
ENDBRANCH  33  34
ENDBRANCH  31  33
ENDBRANCH  26  31
ENDBRANCH  24  26
ENDBRANCH  19  22
ENDBRANCH  15  16
ENDBRANCH  11  14
ENDBRANCH   7   8
ENDBRANCH   2   7
TORSDOF 12
ENDMDL
MODEL 6
REMARK VINA RESULT:      -3.2      2.495     12.729
REMARK  12 active torsions:
REMARK  status: ('A' for Active; 'I' for Inactive)
REMARK    1  A    between atoms: O_2  and  C_16 
REMARK    2  A    between atoms: N_5  and  C_9 
REMARK    3  A    between atoms: N_6  and  C_13 
REMARK       I    between atoms: N_6  and  C_22 
REMARK    4  A    between atoms: C_9  and  C_12 
REMARK    5  A    between atoms: C_13  and  C_16 
REMARK    6  A    between atoms: C_13  and  C_21 
REMARK    7  A    between atoms: C_19  and  C_24 
REMARK    8  A    between atoms: C_21  and  C_33 
REMARK    9  A    between atoms: C_22  and  C_23 
REMARK   10  A    between atoms: C_27  and  C_30 
REMARK   11  A    between atoms: C_33  and  C_34 
REMARK   12  A    between atoms: C_34  and  C_35 
ROOT
HETATM    1  O   UNL     1       2.402  15.625  93.375  1.00  0.00    -0.350 OA
HETATM    2  N   UNL     1       2.810  13.344  91.722  1.00  0.00     0.147 N 
HETATM    3  C   UNL     1       3.922  14.228  92.098  1.00  0.00     0.283 C 
HETATM    4  C   UNL     1       1.552  14.103  91.688  1.00  0.00     0.283 C 
HETATM    5  C   UNL     1       3.625  14.888  93.443  1.00  0.00     0.178 C 
HETATM    6  C   UNL     1       1.311  14.766  93.040  1.00  0.00     0.178 C 
ENDROOT
BRANCH   2   7
HETATM    7  C   UNL     1       3.068  12.708  90.431  1.00  0.00     0.277 C 
BRANCH   7   8
HETATM    8  C   UNL     1       4.199  11.739  90.491  1.00  0.00     0.011 A 
HETATM    9  C   UNL     1       4.164  10.683  91.403  1.00  0.00    -0.002 A 
HETATM   10  C   UNL     1       5.222   9.777  91.462  1.00  0.00     0.008 A 
HETATM   11  C   UNL     1       6.315   9.926  90.608  1.00  0.00     0.042 A 
HETATM   12  C   UNL     1       6.351  10.980  89.697  1.00  0.00     0.008 A 
HETATM   13  C   UNL     1       5.293  11.887  89.639  1.00  0.00    -0.002 A 
BRANCH  11  14
HETATM   14  C   UNL     1       7.400   8.995  90.667  1.00  0.00    -0.059 C 
HETATM   15  C   UNL     1       8.311   8.212  90.716  1.00  0.00    -0.059 C 
BRANCH  15  16
HETATM   16  C   UNL     1       9.395   7.282  90.774  1.00  0.00     0.042 A 
HETATM   17  C   UNL     1      10.019   6.866  89.598  1.00  0.00     0.008 A 
HETATM   18  C   UNL     1      11.079   5.960  89.656  1.00  0.00     0.005 A 
HETATM   19  C   UNL     1      11.490   5.493  90.886  1.00  0.00     0.056 A 
HETATM   20  C   UNL     1      10.890   5.889  92.063  1.00  0.00     0.005 A 
HETATM   21  C   UNL     1       9.830   6.794  92.007  1.00  0.00     0.008 A 
BRANCH  19  22
HETATM   22  C   UNL     1      12.618   4.527  90.946  1.00  0.00     0.254 C 
HETATM   23  O   UNL     1      12.923   3.897  89.936  1.00  0.00    -0.268 OA
HETATM   24  N   UNL     1      13.270   4.429  92.168  1.00  0.00    -0.335 N 
HETATM   25  HN  UNL     1      12.978   4.999  92.952  1.00  0.00     0.164 HD
BRANCH  24  26
HETATM   26  C   UNL     1      14.396   3.555  92.377  1.00  0.00     0.166 C 
BRANCH  26  27
HETATM   27  C   UNL     1      15.417   4.130  93.367  1.00  0.00     0.138 C 
HETATM   28  C   UNL     1      16.602   3.197  93.592  1.00  0.00     0.034 C 
BRANCH  27  29
HETATM   29  O   UNL     1      15.900   5.382  92.881  1.00  0.00    -0.383 OA
HETATM   30  H   UNL     1      15.288   5.699  92.195  1.00  0.00     0.210 HD
ENDBRANCH  27  29
ENDBRANCH  26  27
BRANCH  26  31
HETATM   31  C   UNL     1      13.860   2.209  92.854  1.00  0.00     0.181 C 
HETATM   32  O   UNL     1      14.524   1.423  93.527  1.00  0.00    -0.294 OA
BRANCH  31  33
HETATM   33  C   UNL     1      12.436   2.363  93.614  1.00  0.00     0.138 C 
BRANCH  33  34
HETATM   34  C   UNL     1      11.533   2.172  92.545  1.00  0.00     0.208 C 
HETATM   35  O   UNL     1      11.877   1.387  91.691  1.00  0.00    -0.289 OA
BRANCH  34  36
HETATM   36  C   UNL     1      10.209   2.495  92.433  1.00  0.00     0.194 C 
HETATM   37  O   UNL     1       9.472   2.922  91.322  1.00  0.00    -0.185 OA
ENDBRANCH  34  36
ENDBRANCH  33  34
ENDBRANCH  31  33
ENDBRANCH  26  31
ENDBRANCH  24  26
ENDBRANCH  19  22
ENDBRANCH  15  16
ENDBRANCH  11  14
ENDBRANCH   7   8
ENDBRANCH   2   7
TORSDOF 12
ENDMDL
