MODEL 1
REMARK VINA RESULT:      -7.3      0.000      0.000
REMARK  9 active torsions:
REMARK  status: ('A' for Active; 'I' for Inactive)
REMARK    1  A    between atoms: O_2  and  C_17 
REMARK    2  A    between atoms: N_5  and  C_10 
REMARK    3  A    between atoms: N_6  and  C_14 
REMARK       I    between atoms: N_6  and  C_23 
REMARK       I    between atoms: N_7  and  C_22 
REMARK    4  A    between atoms: C_10  and  C_13 
REMARK    5  A    between atoms: C_14  and  C_17 
REMARK    6  A    between atoms: C_14  and  C_22 
REMARK    7  A    between atoms: C_20  and  C_25 
REMARK    8  A    between atoms: C_23  and  C_24 
REMARK    9  A    between atoms: C_28  and  C_31 
ROOT
HETATM    1  O   UNL     1      15.717   3.763  94.023  1.00  0.00    -0.388 OA
HETATM    2  N   UNL     1      13.849   2.509  92.279  1.00  0.00     0.096 N 
HETATM    3  C   UNL     1      13.997   3.971  92.323  1.00  0.00     0.299 C 
HETATM    4  C   UNL     1      14.191   1.929  93.585  1.00  0.00     0.299 C 
HETATM    5  C   UNL     1      15.418   4.334  92.747  1.00  0.00     0.198 C 
HETATM    6  C   UNL     1      15.605   2.340  93.980  1.00  0.00     0.198 C 
ENDROOT
BRANCH   2   7
HETATM    7  C   UNL     1      12.491   2.138  91.884  1.00  0.00     0.311 C 
BRANCH   7   8
HETATM    8  C   UNL     1      11.646   3.326  91.571  1.00  0.00    -0.030 A 
HETATM    9  C   UNL     1      10.929   3.958  92.587  1.00  0.00     0.010 A 
HETATM   10  C   UNL     1      10.137   5.068  92.294  1.00  0.00     0.021 A 
HETATM   11  C   UNL     1      10.064   5.546  90.986  1.00  0.00     0.018 A 
HETATM   12  C   UNL     1      10.780   4.915  89.971  1.00  0.00     0.021 A 
HETATM   13  C   UNL     1      11.572   3.805  90.263  1.00  0.00     0.010 A 
BRANCH  11  14
HETATM   14  C   UNL     1       9.252   6.686  90.686  1.00  0.00    -0.061 C 
HETATM   15  C   UNL     1       8.571   7.644  90.435  1.00  0.00    -0.061 C 
BRANCH  15  16
HETATM   16  C   UNL     1       7.761   8.783  90.134  1.00  0.00     0.018 A 
HETATM   17  C   UNL     1       6.371   8.685  90.199  1.00  0.00     0.022 A 
HETATM   18  C   UNL     1       5.581   9.798  89.908  1.00  0.00     0.018 A 
HETATM   19  C   UNL     1       6.198  10.981  89.561  1.00  0.00     0.032 A 
HETATM   20  C   UNL     1       7.570  11.103  89.490  1.00  0.00     0.018 A 
HETATM   21  C   UNL     1       8.361   9.992  89.780  1.00  0.00     0.022 A 
BRANCH  19  22
HETATM   22  C   UNL     1       5.356  12.165  89.250  1.00  0.00     0.252 C 
HETATM   23  O   UNL     1       5.404  12.657  88.126  1.00  0.00    -0.268 OA
HETATM   24  N   UNL     1       4.540  12.619  90.278  1.00  0.00    -0.342 N 
HETATM   25  H   UNL     1       4.535  12.146  91.175  1.00  0.00     0.163 HD
BRANCH  24  26
HETATM   26  C   UNL     1       3.649  13.740  90.124  1.00  0.00     0.199 C 
BRANCH  26  27
HETATM   27  C   UNL     1       2.406  13.638  91.017  1.00  0.00     0.145 C 
HETATM   28  C   UNL     1       2.382  12.355  91.840  1.00  0.00     0.042 C 
BRANCH  27  29
HETATM   29  O   UNL     1       2.361  14.757  91.903  1.00  0.00    -0.393 OA
HETATM   30  H   UNL     1       1.834  14.509  92.680  1.00  0.00     0.210 HD
ENDBRANCH  27  29
ENDBRANCH  26  27
BRANCH  26  31
HETATM   31  C   UNL     1       4.442  15.009  90.420  1.00  0.00     0.220 C 
HETATM   32  O   UNL     1       4.623  15.435  91.559  1.00  0.00    -0.278 OA
HETATM   33  N   UNL     1       4.885  15.624  89.274  1.00  0.00    -0.271 NA
HETATM   34  H   UNL     1       4.678  15.350  88.320  1.00  0.00     0.127 HD
HETATM   35  H   UNL     1       4.430  16.819  88.695  1.00  0.00     0.127 HD
ENDBRANCH  26  31
ENDBRANCH  24  26
ENDBRANCH  19  22
ENDBRANCH  15  16
ENDBRANCH  11  14
ENDBRANCH   7   8
ENDBRANCH   2   7
TORSDOF 9
ENDMDL
