MODEL 1
REMARK VINA RESULT:      -7.1      0.000      0.000
REMARK  10 active torsions:
REMARK  status: ('A' for Active; 'I' for Inactive)
REMARK    1  A    between atoms: O_2  and  C_16 
REMARK    2  A    between atoms: N_5  and  C_9 
REMARK    3  A    between atoms: N_6  and  C_13 
REMARK       I    between atoms: N_6  and  C_22 
REMARK    4  A    between atoms: C_9  and  C_12 
REMARK    5  A    between atoms: C_13  and  C_16 
REMARK    6  A    between atoms: C_13  and  C_21 
REMARK    7  A    between atoms: C_19  and  C_24 
REMARK    8  A    between atoms: C_22  and  C_23 
REMARK    9  A    between atoms: C_27  and  C_30 
REMARK   10  A    between atoms: N_33  and  S_34 
ROOT
HETATM    1  C   UNL     1       5.791  10.894  89.593  1.00  0.00     0.056 A 
HETATM    2  C   UNL     1       7.133  11.036  89.307  1.00  0.00     0.005 A 
HETATM    3  C   UNL     1       5.276   9.745  90.156  1.00  0.00     0.005 A 
HETATM    4  C   UNL     1       7.502   8.809  90.165  1.00  0.00     0.042 A 
HETATM    5  C   UNL     1       7.999   9.981  89.595  1.00  0.00     0.008 A 
HETATM    6  C   UNL     1       6.141   8.690  90.445  1.00  0.00     0.008 A 
ENDROOT
BRANCH   1   7
HETATM    7  C   UNL     1       4.869  12.019  89.287  1.00  0.00     0.254 C 
HETATM    8  O   UNL     1       4.759  12.405  88.126  1.00  0.00    -0.268 OA
HETATM    9  N   UNL     1       4.168  12.541  90.365  1.00  0.00    -0.337 N 
HETATM   10  HN  UNL     1       4.292  12.153  91.293  1.00  0.00     0.164 HD
BRANCH   9  11
HETATM   11  C   UNL     1       3.220  13.616  90.226  1.00  0.00     0.172 C 
BRANCH  11  12
HETATM   12  C   UNL     1       1.972  13.424  91.098  1.00  0.00     0.136 C 
HETATM   13  C   UNL     1       2.156  12.333  92.147  1.00  0.00     0.034 C 
BRANCH  12  14
HETATM   14  O   UNL     1       1.655  14.651  91.755  1.00  0.00    -0.383 OA
HETATM   15  H   UNL     1       1.279  15.260  91.098  1.00  0.00     0.210 HD
ENDBRANCH  12  14
ENDBRANCH  11  12
BRANCH  11  16
HETATM   16  C   UNL     1       3.938  14.918  90.566  1.00  0.00     0.398 A 
HETATM   17  O   UNL     1       5.056  15.197  90.138  1.00  0.00    -0.136 OA
HETATM   18  N   UNL     1       4.958  15.535  91.616  1.00  0.00     0.142 N 
HETATM   19  HN  UNL     1       5.876  15.844  91.460  1.00  0.00     0.338 HD
BRANCH  18  20
HETATM   20  S   UNL     1       4.253  15.248  92.780  1.00  0.00     0.076 SA
HETATM   21  H   UNL     1       3.335  15.959  93.034  1.00  0.00     0.136 HD
ENDBRANCH  18  20
ENDBRANCH  11  16
ENDBRANCH   9  11
ENDBRANCH   1   7
BRANCH   4  22
HETATM   22  C   UNL     1       8.390   7.726  90.458  1.00  0.00    -0.059 C 
HETATM   23  C   UNL     1       9.135   6.816  90.705  1.00  0.00    -0.059 C 
BRANCH  23  24
HETATM   24  C   UNL     1      10.022   5.732  90.999  1.00  0.00     0.042 A 
HETATM   25  C   UNL     1      10.199   5.315  92.317  1.00  0.00     0.008 A 
HETATM   26  C   UNL     1      11.065   4.260  92.603  1.00  0.00    -0.002 A 
HETATM   27  C   UNL     1      11.753   3.622  91.570  1.00  0.00     0.011 A 
HETATM   28  C   UNL     1      11.575   4.041  90.252  1.00  0.00    -0.002 A 
HETATM   29  C   UNL     1      10.709   5.097  89.966  1.00  0.00     0.008 A 
BRANCH  27  30
HETATM   30  C   UNL     1      12.677   2.493  91.877  1.00  0.00     0.277 C 
BRANCH  30  31
HETATM   31  N   UNL     1      13.708   2.864  92.845  1.00  0.00     0.147 N 
HETATM   32  C   UNL     1      14.597   1.727  93.120  1.00  0.00     0.283 C 
HETATM   33  C   UNL     1      15.670   2.141  94.124  1.00  0.00     0.178 C 
HETATM   34  O   UNL     1      16.419   3.250  93.622  1.00  0.00    -0.350 OA
HETATM   35  C   UNL     1      15.566   4.370  93.381  1.00  0.00     0.178 C 
HETATM   36  C   UNL     1      14.491   4.010  92.361  1.00  0.00     0.283 C 
ENDBRANCH  30  31
ENDBRANCH  27  30
ENDBRANCH  23  24
ENDBRANCH   4  22
TORSDOF 10
ENDMDL
MODEL 2
REMARK VINA RESULT:      -6.8      1.469      1.707
REMARK  10 active torsions:
REMARK  status: ('A' for Active; 'I' for Inactive)
REMARK    1  A    between atoms: O_2  and  C_16 
REMARK    2  A    between atoms: N_5  and  C_9 
REMARK    3  A    between atoms: N_6  and  C_13 
REMARK       I    between atoms: N_6  and  C_22 
REMARK    4  A    between atoms: C_9  and  C_12 
REMARK    5  A    between atoms: C_13  and  C_16 
REMARK    6  A    between atoms: C_13  and  C_21 
REMARK    7  A    between atoms: C_19  and  C_24 
REMARK    8  A    between atoms: C_22  and  C_23 
REMARK    9  A    between atoms: C_27  and  C_30 
REMARK   10  A    between atoms: N_33  and  S_34 
ROOT
HETATM    1  C   UNL     1       4.793   9.737  91.009  1.00  0.00     0.056 A 
HETATM    2  C   UNL     1       4.792   8.607  90.218  1.00  0.00     0.005 A 
HETATM    3  C   UNL     1       5.806  10.009  91.904  1.00  0.00     0.005 A 
HETATM    4  C   UNL     1       6.888   7.958  91.228  1.00  0.00     0.042 A 
HETATM    5  C   UNL     1       5.852   7.706  90.329  1.00  0.00     0.008 A 
HETATM    6  C   UNL     1       6.866   9.109  92.016  1.00  0.00     0.008 A 
ENDROOT
BRANCH   1   7
HETATM    7  C   UNL     1       3.665  10.698  90.889  1.00  0.00     0.254 C 
HETATM    8  O   UNL     1       2.525  10.267  90.732  1.00  0.00    -0.268 OA
HETATM    9  N   UNL     1       3.997  12.041  90.991  1.00  0.00    -0.337 N 
HETATM   10  HN  UNL     1       4.959  12.322  91.145  1.00  0.00     0.164 HD
BRANCH   9  11
HETATM   11  C   UNL     1       3.013  13.091  90.919  1.00  0.00     0.172 C 
BRANCH  11  12
HETATM   12  C   UNL     1       2.735  13.738  92.282  1.00  0.00     0.136 C 
HETATM   13  C   UNL     1       1.377  13.342  92.850  1.00  0.00     0.034 C 
BRANCH  12  14
HETATM   14  O   UNL     1       3.754  13.358  93.207  1.00  0.00    -0.383 OA
HETATM   15  H   UNL     1       4.542  13.096  92.702  1.00  0.00     0.210 HD
ENDBRANCH  12  14
ENDBRANCH  11  12
BRANCH  11  16
HETATM   16  C   UNL     1       3.503  14.120  89.906  1.00  0.00     0.398 A 
HETATM   17  O   UNL     1       4.077  13.813  88.863  1.00  0.00    -0.136 OA
HETATM   18  N   UNL     1       4.785  14.981  89.532  1.00  0.00     0.142 N 
HETATM   19  HN  UNL     1       5.353  14.906  88.735  1.00  0.00     0.338 HD
BRANCH  18  20
HETATM   20  S   UNL     1       4.962  15.625  90.751  1.00  0.00     0.076 SA
HETATM   21  H   UNL     1       4.942  14.940  91.722  1.00  0.00     0.136 HD
ENDBRANCH  18  20
ENDBRANCH  11  16
ENDBRANCH   9  11
ENDBRANCH   1   7
BRANCH   4  22
HETATM   22  C   UNL     1       7.973   7.033  91.344  1.00  0.00    -0.059 C 
HETATM   23  C   UNL     1       8.884   6.256  91.441  1.00  0.00    -0.059 C 
BRANCH  23  24
HETATM   24  C   UNL     1       9.970   5.331  91.556  1.00  0.00     0.042 A 
HETATM   25  C   UNL     1      10.279   4.771  92.795  1.00  0.00     0.008 A 
HETATM   26  C   UNL     1      11.339   3.871  92.908  1.00  0.00    -0.002 A 
HETATM   27  C   UNL     1      12.087   3.530  91.780  1.00  0.00     0.011 A 
HETATM   28  C   UNL     1      11.776   4.090  90.541  1.00  0.00    -0.002 A 
HETATM   29  C   UNL     1      10.717   4.991  90.429  1.00  0.00     0.008 A 
BRANCH  27  30
HETATM   30  C   UNL     1      13.218   2.566  91.901  1.00  0.00     0.277 C 
BRANCH  30  31
HETATM   31  N   UNL     1      14.178   2.960  92.931  1.00  0.00     0.147 N 
HETATM   32  C   UNL     1      15.253   1.966  93.048  1.00  0.00     0.283 C 
HETATM   33  C   UNL     1      16.248   2.404  94.120  1.00  0.00     0.178 C 
HETATM   34  O   UNL     1      16.788   3.688  93.803  1.00  0.00    -0.350 OA
HETATM   35  C   UNL     1      15.751   4.666  93.718  1.00  0.00     0.178 C 
HETATM   36  C   UNL     1      14.745   4.283  92.638  1.00  0.00     0.283 C 
ENDBRANCH  30  31
ENDBRANCH  27  30
ENDBRANCH  23  24
ENDBRANCH   4  22
TORSDOF 10
ENDMDL
MODEL 3
REMARK VINA RESULT:      -6.0      2.537      3.498
REMARK  10 active torsions:
REMARK  status: ('A' for Active; 'I' for Inactive)
REMARK    1  A    between atoms: O_2  and  C_16 
REMARK    2  A    between atoms: N_5  and  C_9 
REMARK    3  A    between atoms: N_6  and  C_13 
REMARK       I    between atoms: N_6  and  C_22 
REMARK    4  A    between atoms: C_9  and  C_12 
REMARK    5  A    between atoms: C_13  and  C_16 
REMARK    6  A    between atoms: C_13  and  C_21 
REMARK    7  A    between atoms: C_19  and  C_24 
REMARK    8  A    between atoms: C_22  and  C_23 
REMARK    9  A    between atoms: C_27  and  C_30 
REMARK   10  A    between atoms: N_33  and  S_34 
ROOT
HETATM    1  C   UNL     1       6.228   7.602  88.350  1.00  0.00     0.056 A 
HETATM    2  C   UNL     1       5.877   6.521  89.132  1.00  0.00     0.005 A 
HETATM    3  C   UNL     1       7.536   8.017  88.213  1.00  0.00     0.005 A 
HETATM    4  C   UNL     1       8.209   6.225  89.685  1.00  0.00     0.042 A 
HETATM    5  C   UNL     1       6.878   5.824  89.808  1.00  0.00     0.008 A 
HETATM    6  C   UNL     1       8.538   7.321  88.888  1.00  0.00     0.008 A 
ENDROOT
BRANCH   1   7
HETATM    7  C   UNL     1       5.161   8.343  87.629  1.00  0.00     0.254 C 
HETATM    8  O   UNL     1       5.058   8.212  86.411  1.00  0.00    -0.268 OA
HETATM    9  N   UNL     1       4.327   9.126  88.414  1.00  0.00    -0.337 N 
HETATM   10  HN  UNL     1       4.456   9.166  89.419  1.00  0.00     0.164 HD
BRANCH   9  11
HETATM   11  C   UNL     1       3.231   9.885  87.866  1.00  0.00     0.172 C 
BRANCH  11  12
HETATM   12  C   UNL     1       1.863   9.276  88.198  1.00  0.00     0.136 C 
HETATM   13  C   UNL     1       1.571   8.019  87.387  1.00  0.00     0.034 C 
BRANCH  12  14
HETATM   14  O   UNL     1       1.808   8.956  89.588  1.00  0.00    -0.383 OA
HETATM   15  H   UNL     1       2.038   9.753  90.094  1.00  0.00     0.210 HD
ENDBRANCH  12  14
ENDBRANCH  11  12
BRANCH  11  16
HETATM   16  C   UNL     1       3.345  11.313  88.389  1.00  0.00     0.398 A 
HETATM   17  O   UNL     1       4.100  12.149  87.895  1.00  0.00    -0.136 OA
HETATM   18  N   UNL     1       4.179  12.196  89.412  1.00  0.00     0.142 N 
HETATM   19  HN  UNL     1       4.804  12.926  89.213  1.00  0.00     0.338 HD
BRANCH  18  20
HETATM   20  S   UNL     1       3.944  11.454  90.564  1.00  0.00     0.076 SA
HETATM   21  H   UNL     1       4.582  11.745  91.523  1.00  0.00     0.136 HD
ENDBRANCH  18  20
ENDBRANCH  11  16
ENDBRANCH   9  11
ENDBRANCH   1   7
BRANCH   4  22
HETATM   22  C   UNL     1       9.236   5.512  90.380  1.00  0.00    -0.059 C 
HETATM   23  C   UNL     1      10.099   4.913  90.964  1.00  0.00    -0.059 C 
BRANCH  23  24
HETATM   24  C   UNL     1      11.127   4.200  91.659  1.00  0.00     0.042 A 
HETATM   25  C   UNL     1      11.102   4.124  93.051  1.00  0.00     0.008 A 
HETATM   26  C   UNL     1      12.105   3.431  93.729  1.00  0.00    -0.002 A 
HETATM   27  C   UNL     1      13.131   2.813  93.013  1.00  0.00     0.011 A 
HETATM   28  C   UNL     1      13.154   2.891  91.621  1.00  0.00    -0.002 A 
HETATM   29  C   UNL     1      12.152   3.584  90.944  1.00  0.00     0.008 A 
BRANCH  27  30
HETATM   30  C   UNL     1      14.202   2.071  93.739  1.00  0.00     0.277 C 
BRANCH  30  31
HETATM   31  N   UNL     1      15.319   2.934  94.118  1.00  0.00     0.147 N 
HETATM   32  C   UNL     1      16.571   2.462  93.510  1.00  0.00     0.283 C 
HETATM   33  C   UNL     1      17.720   3.384  93.911  1.00  0.00     0.178 C 
HETATM   34  O   UNL     1      17.444   4.727  93.507  1.00  0.00    -0.350 OA
HETATM   35  C   UNL     1      16.245   5.204  94.118  1.00  0.00     0.178 C 
HETATM   36  C   UNL     1      15.061   4.326  93.724  1.00  0.00     0.283 C 
ENDBRANCH  30  31
ENDBRANCH  27  30
ENDBRANCH  23  24
ENDBRANCH   4  22
TORSDOF 10
ENDMDL
MODEL 4
REMARK VINA RESULT:      -5.6      3.686     12.435
REMARK  10 active torsions:
REMARK  status: ('A' for Active; 'I' for Inactive)
REMARK    1  A    between atoms: O_2  and  C_16 
REMARK    2  A    between atoms: N_5  and  C_9 
REMARK    3  A    between atoms: N_6  and  C_13 
REMARK       I    between atoms: N_6  and  C_22 
REMARK    4  A    between atoms: C_9  and  C_12 
REMARK    5  A    between atoms: C_13  and  C_16 
REMARK    6  A    between atoms: C_13  and  C_21 
REMARK    7  A    between atoms: C_19  and  C_24 
REMARK    8  A    between atoms: C_22  and  C_23 
REMARK    9  A    between atoms: C_27  and  C_30 
REMARK   10  A    between atoms: N_33  and  S_34 
ROOT
HETATM    1  C   UNL     1      10.181   5.648  89.993  1.00  0.00     0.056 A 
HETATM    2  C   UNL     1       9.286   5.735  91.038  1.00  0.00     0.005 A 
HETATM    3  C   UNL     1      10.180   6.547  88.947  1.00  0.00     0.005 A 
HETATM    4  C   UNL     1       8.325   7.687  89.991  1.00  0.00     0.042 A 
HETATM    5  C   UNL     1       8.347   6.766  91.038  1.00  0.00     0.008 A 
HETATM    6  C   UNL     1       9.241   7.579  88.945  1.00  0.00     0.008 A 
ENDROOT
BRANCH   1   7
HETATM    7  C   UNL     1      11.183   4.551  89.994  1.00  0.00     0.254 C 
HETATM    8  O   UNL     1      11.345   3.885  88.974  1.00  0.00    -0.268 OA
HETATM    9  N   UNL     1      11.893   4.377  91.174  1.00  0.00    -0.337 N 
HETATM   10  HN  UNL     1      11.722   4.983  91.969  1.00  0.00     0.164 HD
BRANCH   9  11
HETATM   11  C   UNL     1      12.914   3.372  91.324  1.00  0.00     0.172 C 
BRANCH  11  12
HETATM   12  C   UNL     1      14.328   3.926  91.106  1.00  0.00     0.136 C 
HETATM   13  C   UNL     1      15.212   2.972  90.311  1.00  0.00     0.034 C 
BRANCH  12  14
HETATM   14  O   UNL     1      14.251   5.172  90.414  1.00  0.00    -0.383 OA
HETATM   15  H   UNL     1      13.314   5.416  90.329  1.00  0.00     0.210 HD
ENDBRANCH  12  14
ENDBRANCH  11  12
BRANCH  11  16
HETATM   16  C   UNL     1      12.766   2.762  92.714  1.00  0.00     0.398 A 
HETATM   17  O   UNL     1      12.205   3.339  93.643  1.00  0.00    -0.136 OA
HETATM   18  N   UNL     1      13.495   2.695  94.124  1.00  0.00     0.142 N 
HETATM   19  HN  UNL     1      13.192   3.066  94.980  1.00  0.00     0.338 HD
BRANCH  18  20
HETATM   20  S   UNL     1      14.728   2.216  93.696  1.00  0.00     0.076 SA
HETATM   21  H   UNL     1      14.793   1.855  92.565  1.00  0.00     0.136 HD
ENDBRANCH  18  20
ENDBRANCH  11  16
ENDBRANCH   9  11
ENDBRANCH   1   7
BRANCH   4  22
HETATM   22  C   UNL     1       7.360   8.743  89.989  1.00  0.00    -0.059 C 
HETATM   23  C   UNL     1       6.548   9.630  89.989  1.00  0.00    -0.059 C 
BRANCH  23  24
HETATM   24  C   UNL     1       5.583  10.686  89.988  1.00  0.00     0.042 A 
HETATM   25  C   UNL     1       5.836  11.859  89.276  1.00  0.00     0.008 A 
HETATM   26  C   UNL     1       4.896  12.889  89.277  1.00  0.00    -0.002 A 
HETATM   27  C   UNL     1       3.704  12.746  89.987  1.00  0.00     0.011 A 
HETATM   28  C   UNL     1       3.453  11.572  90.698  1.00  0.00    -0.002 A 
HETATM   29  C   UNL     1       4.393  10.542  90.698  1.00  0.00     0.008 A 
BRANCH  27  30
HETATM   30  C   UNL     1       2.699  13.847  89.985  1.00  0.00     0.277 C 
BRANCH  30  31
HETATM   31  N   UNL     1       2.709  14.613  91.230  1.00  0.00     0.147 N 
HETATM   32  C   UNL     1       1.859  13.971  92.243  1.00  0.00     0.283 C 
HETATM   33  C   UNL     1       1.895  14.781  93.536  1.00  0.00     0.178 C 
HETATM   34  O   UNL     1       3.237  14.899  94.013  1.00  0.00    -0.350 OA
HETATM   35  C   UNL     1       4.062  15.550  93.047  1.00  0.00     0.178 C 
HETATM   36  C   UNL     1       4.079  14.759  91.742  1.00  0.00     0.283 C 
ENDBRANCH  30  31
ENDBRANCH  27  30
ENDBRANCH  23  24
ENDBRANCH   4  22
TORSDOF 10
ENDMDL
MODEL 5
REMARK VINA RESULT:      -5.6      1.808      2.504
REMARK  10 active torsions:
REMARK  status: ('A' for Active; 'I' for Inactive)
REMARK    1  A    between atoms: O_2  and  C_16 
REMARK    2  A    between atoms: N_5  and  C_9 
REMARK    3  A    between atoms: N_6  and  C_13 
REMARK       I    between atoms: N_6  and  C_22 
REMARK    4  A    between atoms: C_9  and  C_12 
REMARK    5  A    between atoms: C_13  and  C_16 
REMARK    6  A    between atoms: C_13  and  C_21 
REMARK    7  A    between atoms: C_19  and  C_24 
REMARK    8  A    between atoms: C_22  and  C_23 
REMARK    9  A    between atoms: C_27  and  C_30 
REMARK   10  A    between atoms: N_33  and  S_34 
ROOT
HETATM    1  C   UNL     1       5.828  10.381  92.255  1.00  0.00     0.056 A 
HETATM    2  C   UNL     1       5.616   9.297  93.081  1.00  0.00     0.005 A 
HETATM    3  C   UNL     1       6.941  10.483  91.447  1.00  0.00     0.005 A 
HETATM    4  C   UNL     1       7.693   8.350  92.294  1.00  0.00     0.042 A 
HETATM    5  C   UNL     1       6.559   8.270  93.102  1.00  0.00     0.008 A 
HETATM    6  C   UNL     1       7.885   9.456  91.466  1.00  0.00     0.008 A 
ENDROOT
BRANCH   1   7
HETATM    7  C   UNL     1       4.823  11.474  92.232  1.00  0.00     0.254 C 
HETATM    8  O   UNL     1       4.943  12.416  93.012  1.00  0.00    -0.268 OA
HETATM    9  N   UNL     1       3.812  11.352  91.288  1.00  0.00    -0.337 N 
HETATM   10  HN  UNL     1       3.791  10.557  90.660  1.00  0.00     0.164 HD
BRANCH   9  11
HETATM   11  C   UNL     1       2.778  12.341  91.126  1.00  0.00     0.172 C 
BRANCH  11  12
HETATM   12  C   UNL     1       1.751  12.319  92.266  1.00  0.00     0.136 C 
HETATM   13  C   UNL     1       1.559  10.924  92.851  1.00  0.00     0.034 C 
BRANCH  12  14
HETATM   14  O   UNL     1       2.172  13.203  93.304  1.00  0.00    -0.383 OA
HETATM   15  H   UNL     1       1.903  14.106  93.064  1.00  0.00     0.210 HD
ENDBRANCH  12  14
ENDBRANCH  11  12
BRANCH  11  16
HETATM   16  C   UNL     1       3.451  13.705  91.014  1.00  0.00     0.398 A 
HETATM   17  O   UNL     1       2.822  14.755  90.892  1.00  0.00    -0.136 OA
HETATM   18  N   UNL     1       4.002  14.731  89.933  1.00  0.00     0.142 N 
HETATM   19  HN  UNL     1       3.657  15.623  89.715  1.00  0.00     0.338 HD
BRANCH  18  20
HETATM   20  S   UNL     1       4.888  13.884  89.278  1.00  0.00     0.076 SA
HETATM   21  H   UNL     1       4.852  12.737  89.586  1.00  0.00     0.136 HD
ENDBRANCH  18  20
ENDBRANCH  11  16
ENDBRANCH   9  11
ENDBRANCH   1   7
BRANCH   4  22
HETATM   22  C   UNL     1       8.661   7.298  92.317  1.00  0.00    -0.059 C 
HETATM   23  C   UNL     1       9.476   6.414  92.336  1.00  0.00    -0.059 C 
BRANCH  23  24
HETATM   24  C   UNL     1      10.445   5.361  92.360  1.00  0.00     0.042 A 
HETATM   25  C   UNL     1      10.808   4.722  91.175  1.00  0.00     0.008 A 
HETATM   26  C   UNL     1      11.751   3.695  91.198  1.00  0.00    -0.002 A 
HETATM   27  C   UNL     1      12.332   3.309  92.406  1.00  0.00     0.011 A 
HETATM   28  C   UNL     1      11.968   3.950  93.591  1.00  0.00    -0.002 A 
HETATM   29  C   UNL     1      11.024   4.976  93.567  1.00  0.00     0.008 A 
BRANCH  27  30
HETATM   30  C   UNL     1      13.342   2.212  92.429  1.00  0.00     0.277 C 
BRANCH  30  31
HETATM   31  N   UNL     1      14.700   2.710  92.640  1.00  0.00     0.147 N 
HETATM   32  C   UNL     1      14.719   4.179  92.652  1.00  0.00     0.283 C 
HETATM   33  C   UNL     1      16.145   4.675  92.884  1.00  0.00     0.178 C 
HETATM   34  O   UNL     1      16.657   4.159  94.114  1.00  0.00    -0.350 OA
HETATM   35  C   UNL     1      16.670   2.731  94.098  1.00  0.00     0.178 C 
HETATM   36  C   UNL     1      15.259   2.188  93.894  1.00  0.00     0.283 C 
ENDBRANCH  30  31
ENDBRANCH  27  30
ENDBRANCH  23  24
ENDBRANCH   4  22
TORSDOF 10
ENDMDL
MODEL 6
REMARK VINA RESULT:      -5.5      3.699     12.541
REMARK  10 active torsions:
REMARK  status: ('A' for Active; 'I' for Inactive)
REMARK    1  A    between atoms: O_2  and  C_16 
REMARK    2  A    between atoms: N_5  and  C_9 
REMARK    3  A    between atoms: N_6  and  C_13 
REMARK       I    between atoms: N_6  and  C_22 
REMARK    4  A    between atoms: C_9  and  C_12 
REMARK    5  A    between atoms: C_13  and  C_16 
REMARK    6  A    between atoms: C_13  and  C_21 
REMARK    7  A    between atoms: C_19  and  C_24 
REMARK    8  A    between atoms: C_22  and  C_23 
REMARK    9  A    between atoms: C_27  and  C_30 
REMARK   10  A    between atoms: N_33  and  S_34 
ROOT
HETATM    1  C   UNL     1      10.327   4.769  92.664  1.00  0.00     0.056 A 
HETATM    2  C   UNL     1      10.283   5.799  93.580  1.00  0.00     0.005 A 
HETATM    3  C   UNL     1       9.425   4.668  91.625  1.00  0.00     0.005 A 
HETATM    4  C   UNL     1       8.367   6.693  92.411  1.00  0.00     0.042 A 
HETATM    5  C   UNL     1       9.292   6.772  93.453  1.00  0.00     0.008 A 
HETATM    6  C   UNL     1       8.433   5.641  91.497  1.00  0.00     0.008 A 
ENDROOT
BRANCH   1   7
HETATM    7  C   UNL     1      11.384   3.734  92.798  1.00  0.00     0.254 C 
HETATM    8  O   UNL     1      11.068   2.547  92.773  1.00  0.00    -0.268 OA
HETATM    9  N   UNL     1      12.684   4.205  92.921  1.00  0.00    -0.337 N 
HETATM   10  HN  UNL     1      12.872   5.200  92.908  1.00  0.00     0.164 HD
BRANCH   9  11
HETATM   11  C   UNL     1      13.820   3.325  93.035  1.00  0.00     0.172 C 
BRANCH  11  12
HETATM   12  C   UNL     1      14.269   2.757  91.683  1.00  0.00     0.136 C 
HETATM   13  C   UNL     1      13.968   3.701  90.524  1.00  0.00     0.034 C 
BRANCH  12  14
HETATM   14  O   UNL     1      15.673   2.498  91.717  1.00  0.00    -0.383 OA
HETATM   15  H   UNL     1      15.906   1.980  90.928  1.00  0.00     0.210 HD
ENDBRANCH  12  14
ENDBRANCH  11  12
BRANCH  11  16
HETATM   16  C   UNL     1      14.944   4.103  93.711  1.00  0.00     0.398 A 
HETATM   17  O   UNL     1      15.450   5.111  93.222  1.00  0.00    -0.136 OA
HETATM   18  N   UNL     1      16.529   4.192  93.770  1.00  0.00     0.142 N 
HETATM   19  HN  UNL     1      17.106   4.924  93.462  1.00  0.00     0.338 HD
BRANCH  18  20
HETATM   20  S   UNL     1      16.797   2.875  94.124  1.00  0.00     0.076 SA
HETATM   21  H   UNL     1      17.942   2.564  94.190  1.00  0.00     0.136 HD
ENDBRANCH  18  20
ENDBRANCH  11  16
ENDBRANCH   9  11
ENDBRANCH   1   7
BRANCH   4  22
HETATM   22  C   UNL     1       7.349   7.688  92.283  1.00  0.00    -0.059 C 
HETATM   23  C   UNL     1       6.493   8.525  92.175  1.00  0.00    -0.059 C 
BRANCH  23  24
HETATM   24  C   UNL     1       5.474   9.522  92.048  1.00  0.00     0.042 A 
HETATM   25  C   UNL     1       5.117  10.297  93.151  1.00  0.00     0.008 A 
HETATM   26  C   UNL     1       4.122  11.267  93.027  1.00  0.00    -0.002 A 
HETATM   27  C   UNL     1       3.488  11.463  91.800  1.00  0.00     0.011 A 
HETATM   28  C   UNL     1       3.848  10.688  90.697  1.00  0.00    -0.002 A 
HETATM   29  C   UNL     1       4.841   9.717  90.822  1.00  0.00     0.008 A 
BRANCH  27  30
HETATM   30  C   UNL     1       2.427  12.502  91.668  1.00  0.00     0.277 C 
BRANCH  30  31
HETATM   31  N   UNL     1       2.978  13.830  91.401  1.00  0.00     0.147 N 
HETATM   32  C   UNL     1       3.888  14.242  92.478  1.00  0.00     0.283 C 
HETATM   33  C   UNL     1       4.458  15.625  92.172  1.00  0.00     0.178 C 
HETATM   34  O   UNL     1       5.142  15.614  90.918  1.00  0.00    -0.350 OA
HETATM   35  C   UNL     1       4.257  15.244  89.861  1.00  0.00     0.178 C 
HETATM   36  C   UNL     1       3.681  13.854  90.111  1.00  0.00     0.283 C 
ENDBRANCH  30  31
ENDBRANCH  27  30
ENDBRANCH  23  24
ENDBRANCH   4  22
TORSDOF 10
ENDMDL
MODEL 7
REMARK VINA RESULT:      -5.4      3.645     12.521
REMARK  10 active torsions:
REMARK  status: ('A' for Active; 'I' for Inactive)
REMARK    1  A    between atoms: O_2  and  C_16 
REMARK    2  A    between atoms: N_5  and  C_9 
REMARK    3  A    between atoms: N_6  and  C_13 
REMARK       I    between atoms: N_6  and  C_22 
REMARK    4  A    between atoms: C_9  and  C_12 
REMARK    5  A    between atoms: C_13  and  C_16 
REMARK    6  A    between atoms: C_13  and  C_21 
REMARK    7  A    between atoms: C_19  and  C_24 
REMARK    8  A    between atoms: C_22  and  C_23 
REMARK    9  A    between atoms: C_27  and  C_30 
REMARK   10  A    between atoms: N_33  and  S_34 
ROOT
HETATM    1  C   UNL     1      10.029   5.203  90.555  1.00  0.00     0.056 A 
HETATM    2  C   UNL     1       9.057   5.352  91.522  1.00  0.00     0.005 A 
HETATM    3  C   UNL     1      10.155   6.079  89.497  1.00  0.00     0.005 A 
HETATM    4  C   UNL     1       8.277   7.324  90.367  1.00  0.00     0.042 A 
HETATM    5  C   UNL     1       8.171   6.424  91.428  1.00  0.00     0.008 A 
HETATM    6  C   UNL     1       9.268   7.152  89.402  1.00  0.00     0.008 A 
ENDROOT
BRANCH   1   7
HETATM    7  C   UNL     1      10.975   4.061  90.657  1.00  0.00     0.254 C 
HETATM    8  O   UNL     1      10.815   3.083  89.931  1.00  0.00    -0.268 OA
HETATM    9  N   UNL     1      12.007   4.207  91.574  1.00  0.00    -0.337 N 
HETATM   10  HN  UNL     1      12.090   5.055  92.122  1.00  0.00     0.164 HD
BRANCH   9  11
HETATM   11  C   UNL     1      13.017   3.198  91.771  1.00  0.00     0.172 C 
BRANCH  11  12
HETATM   12  C   UNL     1      14.163   3.301  90.757  1.00  0.00     0.136 C 
HETATM   13  C   UNL     1      14.491   4.744  90.390  1.00  0.00     0.034 C 
BRANCH  12  14
HETATM   14  O   UNL     1      15.332   2.682  91.294  1.00  0.00    -0.383 OA
HETATM   15  H   UNL     1      15.425   1.803  90.890  1.00  0.00     0.210 HD
ENDBRANCH  12  14
ENDBRANCH  11  12
BRANCH  11  16
HETATM   16  C   UNL     1      13.529   3.326  93.202  1.00  0.00     0.398 A 
HETATM   17  O   UNL     1      14.270   4.235  93.570  1.00  0.00    -0.136 OA
HETATM   18  N   UNL     1      14.752   2.904  94.124  1.00  0.00     0.142 N 
HETATM   19  HN  UNL     1      15.428   3.484  94.535  1.00  0.00     0.338 HD
BRANCH  18  20
HETATM   20  S   UNL     1      14.692   1.529  93.929  1.00  0.00     0.076 SA
HETATM   21  H   UNL     1      13.662   1.094  93.526  1.00  0.00     0.136 HD
ENDBRANCH  18  20
ENDBRANCH  11  16
ENDBRANCH   9  11
ENDBRANCH   1   7
BRANCH   4  22
HETATM   22  C   UNL     1       7.366   8.422  90.269  1.00  0.00    -0.059 C 
HETATM   23  C   UNL     1       6.600   9.345  90.186  1.00  0.00    -0.059 C 
BRANCH  23  24
HETATM   24  C   UNL     1       5.689  10.443  90.089  1.00  0.00     0.042 A 
HETATM   25  C   UNL     1       4.414  10.343  90.646  1.00  0.00     0.008 A 
HETATM   26  C   UNL     1       3.525  11.413  90.549  1.00  0.00    -0.002 A 
HETATM   27  C   UNL     1       3.912  12.584  89.896  1.00  0.00     0.011 A 
HETATM   28  C   UNL     1       5.187  12.683  89.340  1.00  0.00    -0.002 A 
HETATM   29  C   UNL     1       6.076  11.612  89.437  1.00  0.00     0.008 A 
BRANCH  27  30
HETATM   30  C   UNL     1       2.962  13.728  89.795  1.00  0.00     0.277 C 
BRANCH  30  31
HETATM   31  N   UNL     1       2.906  14.516  91.026  1.00  0.00     0.147 N 
HETATM   32  C   UNL     1       1.875  13.992  91.932  1.00  0.00     0.283 C 
HETATM   33  C   UNL     1       1.842  14.822  93.213  1.00  0.00     0.178 C 
HETATM   34  O   UNL     1       3.121  14.805  93.849  1.00  0.00    -0.350 OA
HETATM   35  C   UNL     1       4.124  15.342  92.986  1.00  0.00     0.178 C 
HETATM   36  C   UNL     1       4.211  14.526  91.700  1.00  0.00     0.283 C 
ENDBRANCH  30  31
ENDBRANCH  27  30
ENDBRANCH  23  24
ENDBRANCH   4  22
TORSDOF 10
ENDMDL
MODEL 8
REMARK VINA RESULT:      -5.4      2.938      4.065
REMARK  10 active torsions:
REMARK  status: ('A' for Active; 'I' for Inactive)
REMARK    1  A    between atoms: O_2  and  C_16 
REMARK    2  A    between atoms: N_5  and  C_9 
REMARK    3  A    between atoms: N_6  and  C_13 
REMARK       I    between atoms: N_6  and  C_22 
REMARK    4  A    between atoms: C_9  and  C_12 
REMARK    5  A    between atoms: C_13  and  C_16 
REMARK    6  A    between atoms: C_13  and  C_21 
REMARK    7  A    between atoms: C_19  and  C_24 
REMARK    8  A    between atoms: C_22  and  C_23 
REMARK    9  A    between atoms: C_27  and  C_30 
REMARK   10  A    between atoms: N_33  and  S_34 
ROOT
HETATM    1  C   UNL     1       6.029   7.961  89.223  1.00  0.00     0.056 A 
HETATM    2  C   UNL     1       5.800   6.651  89.589  1.00  0.00     0.005 A 
HETATM    3  C   UNL     1       7.261   8.562  89.373  1.00  0.00     0.005 A 
HETATM    4  C   UNL     1       8.105   6.494  90.291  1.00  0.00     0.042 A 
HETATM    5  C   UNL     1       6.850   5.909  90.129  1.00  0.00     0.008 A 
HETATM    6  C   UNL     1       8.311   7.821  89.913  1.00  0.00     0.008 A 
ENDROOT
BRANCH   1   7
HETATM    7  C   UNL     1       4.911   8.751  88.645  1.00  0.00     0.254 C 
HETATM    8  O   UNL     1       4.888   8.962  87.435  1.00  0.00    -0.268 OA
HETATM    9  N   UNL     1       3.941   9.178  89.542  1.00  0.00    -0.337 N 
HETATM   10  HN  UNL     1       4.013   8.944  90.525  1.00  0.00     0.164 HD
BRANCH   9  11
HETATM   11  C   UNL     1       2.784   9.933  89.132  1.00  0.00     0.172 C 
BRANCH  11  12
HETATM   12  C   UNL     1       3.083  11.426  88.948  1.00  0.00     0.136 C 
HETATM   13  C   UNL     1       4.073  11.954  89.981  1.00  0.00     0.034 C 
BRANCH  12  14
HETATM   14  O   UNL     1       3.613  11.650  87.642  1.00  0.00    -0.383 OA
HETATM   15  H   UNL     1       3.047  11.188  87.000  1.00  0.00     0.210 HD
ENDBRANCH  12  14
ENDBRANCH  11  12
BRANCH  11  16
HETATM   16  C   UNL     1       2.256   9.311  87.843  1.00  0.00     0.398 A 
HETATM   17  O   UNL     1       1.191   9.644  87.326  1.00  0.00    -0.136 OA
HETATM   18  N   UNL     1       1.328   8.130  87.325  1.00  0.00     0.142 N 
HETATM   19  HN  UNL     1       0.464   8.197  86.865  1.00  0.00     0.338 HD
BRANCH  18  20
HETATM   20  S   UNL     1       1.979   7.070  87.946  1.00  0.00     0.076 SA
HETATM   21  H   UNL     1       1.391   6.038  87.989  1.00  0.00     0.136 HD
ENDBRANCH  18  20
ENDBRANCH  11  16
ENDBRANCH   9  11
ENDBRANCH   1   7
BRANCH   4  22
HETATM   22  C   UNL     1       9.181   5.734  90.848  1.00  0.00    -0.059 C 
HETATM   23  C   UNL     1      10.086   5.095  91.316  1.00  0.00    -0.059 C 
BRANCH  23  24
HETATM   24  C   UNL     1      11.162   4.335  91.873  1.00  0.00     0.042 A 
HETATM   25  C   UNL     1      12.254   3.989  91.078  1.00  0.00     0.008 A 
HETATM   26  C   UNL     1      13.303   3.247  91.621  1.00  0.00    -0.002 A 
HETATM   27  C   UNL     1      13.260   2.853  92.959  1.00  0.00     0.011 A 
HETATM   28  C   UNL     1      12.167   3.201  93.752  1.00  0.00    -0.002 A 
HETATM   29  C   UNL     1      11.118   3.942  93.209  1.00  0.00     0.008 A 
BRANCH  27  30
HETATM   30  C   UNL     1      14.382   2.061  93.538  1.00  0.00     0.277 C 
BRANCH  30  31
HETATM   31  N   UNL     1      15.473   2.909  94.017  1.00  0.00     0.147 N 
HETATM   32  C   UNL     1      16.767   2.423  93.518  1.00  0.00     0.283 C 
HETATM   33  C   UNL     1      17.888   3.329  94.021  1.00  0.00     0.178 C 
HETATM   34  O   UNL     1      17.665   4.676  93.600  1.00  0.00    -0.350 OA
HETATM   35  C   UNL     1      16.423   5.166  94.106  1.00  0.00     0.178 C 
HETATM   36  C   UNL     1      15.268   4.305  93.606  1.00  0.00     0.283 C 
ENDBRANCH  30  31
ENDBRANCH  27  30
ENDBRANCH  23  24
ENDBRANCH   4  22
TORSDOF 10
ENDMDL
