MODEL 1
REMARK VINA RESULT:      -6.7      0.000      0.000
REMARK  10 active torsions:
REMARK  status: ('A' for Active; 'I' for Inactive)
REMARK    1  A    between atoms: O_2  and  C_18 
REMARK    2  A    between atoms: O_5  and  N_8 
REMARK    3  A    between atoms: N_6  and  C_11 
REMARK    4  A    between atoms: N_7  and  C_15 
REMARK       I    between atoms: N_7  and  C_24 
REMARK       I    between atoms: N_8  and  C_23 
REMARK    5  A    between atoms: C_11  and  C_14 
REMARK    6  A    between atoms: C_15  and  C_18 
REMARK    7  A    between atoms: C_15  and  C_23 
REMARK    8  A    between atoms: C_21  and  C_26 
REMARK    9  A    between atoms: C_24  and  C_25 
REMARK   10  A    between atoms: C_29  and  C_32 
ROOT
HETATM    1  O   UNK     0      16.531   4.372  94.124  0.00  0.00    -0.388 OA
HETATM    2  N   UNK     0      14.852   2.653  92.599  0.00  0.00     0.096 N 
HETATM    3  C   UNK     0      14.663   4.110  92.596  0.00  0.00     0.299 C 
HETATM    4  C   UNK     0      15.433   2.223  93.878  0.00  0.00     0.299 C 
HETATM    5  C   UNK     0      15.995   4.804  92.872  0.00  0.00     0.198 C 
HETATM    6  C   UNK     0      16.746   2.961  94.124  0.00  0.00     0.198 C 
ENDROOT
BRANCH   2   7
HETATM    7  C   UNK     0      13.586   1.966  92.347  0.00  0.00     0.311 C 
BRANCH   7   8
HETATM    8  C   UNK     0      12.462   2.917  92.113  0.00  0.00    -0.030 A 
HETATM    9  C   UNK     0      11.791   3.484  93.197  0.00  0.00     0.010 A 
HETATM   10  C   UNK     0      10.737   4.372  92.978  0.00  0.00     0.021 A 
HETATM   11  C   UNK     0      10.357   4.694  91.676  0.00  0.00     0.018 A 
HETATM   12  C   UNK     0      11.026   4.128  90.593  0.00  0.00     0.021 A 
HETATM   13  C   UNK     0      12.079   3.240  90.811  0.00  0.00     0.010 A 
BRANCH  11  14
HETATM   14  C   UNK     0       9.278   5.606  91.452  0.00  0.00    -0.061 C 
HETATM   15  C   UNK     0       8.371   6.372  91.264  0.00  0.00    -0.061 C 
BRANCH  15  16
HETATM   16  C   UNK     0       7.293   7.283  91.039  0.00  0.00     0.018 A 
HETATM   17  C   UNK     0       6.079   6.815  90.535  0.00  0.00     0.022 A 
HETATM   18  C   UNK     0       5.026   7.704  90.317  0.00  0.00     0.018 A 
HETATM   19  C   UNK     0       5.210   9.040  90.608  0.00  0.00     0.032 A 
HETATM   20  C   UNK     0       6.400   9.528  91.106  0.00  0.00     0.018 A 
HETATM   21  C   UNK     0       7.453   8.639  91.323  0.00  0.00     0.022 A 
BRANCH  19  22
HETATM   22  C   UNK     0       4.089   9.986  90.374  0.00  0.00     0.252 C 
HETATM   23  O   UNK     0       2.970   9.542  90.129  0.00  0.00    -0.268 OA
HETATM   24  N   UNK     0       4.400  11.335  90.477  0.00  0.00    -0.341 N 
HETATM   25  H   UNK     0       5.343  11.628  90.707  0.00  0.00     0.163 HD
BRANCH  24  26
HETATM   26  C   UNK     0       3.417  12.374  90.301  0.00  0.00     0.207 C 
BRANCH  26  27
HETATM   27  C   UNK     0       3.159  13.170  91.586  0.00  0.00     0.146 C 
HETATM   28  C   UNK     0       2.060  12.553  92.444  0.00  0.00     0.042 C 
BRANCH  27  29
HETATM   29  O   UNK     0       4.360  13.242  92.353  0.00  0.00    -0.393 OA
HETATM   30  H   UNK     0       4.857  12.417  92.219  0.00  0.00     0.210 HD
ENDBRANCH  27  29
ENDBRANCH  26  27
BRANCH  26  31
HETATM   31  C   UNK     0       3.895  13.282  89.173  0.00  0.00     0.266 C 
HETATM   32  O   UNK     0       3.841  14.509  89.232  0.00  0.00    -0.269 OA
HETATM   33  N   UNK     0       4.349  12.569  88.089  0.00  0.00    -0.236 N 
HETATM   34  H   UNK     0       4.325  11.562  87.972  0.00  0.00     0.197 HD
BRANCH  33  35
HETATM   35  O   UNK     0       4.772  13.331  86.991  0.00  0.00    -0.287 OA
HETATM   36  H   UNK     0       3.947  13.797  86.774  0.00  0.00     0.244 HD
ENDBRANCH  33  35
ENDBRANCH  26  31
ENDBRANCH  24  26
ENDBRANCH  19  22
ENDBRANCH  15  16
ENDBRANCH  11  14
ENDBRANCH   7   8
ENDBRANCH   2   7
TORSDOF 10
ENDMDL
