MODEL 1
REMARK VINA RESULT:      -6.8      0.000      0.000
REMARK  10 active torsions:
REMARK  status: ('A' for Active; 'I' for Inactive)
REMARK    1  A    between atoms: O_2  and  C_16 
REMARK    2  A    between atoms: N_5  and  C_9 
REMARK    3  A    between atoms: N_6  and  C_13 
REMARK       I    between atoms: N_6  and  C_22 
REMARK    4  A    between atoms: C_9  and  C_12 
REMARK    5  A    between atoms: C_13  and  C_16 
REMARK    6  A    between atoms: C_13  and  C_21 
REMARK    7  A    between atoms: C_19  and  C_24 
REMARK    8  A    between atoms: C_22  and  C_23 
REMARK    9  A    between atoms: C_27  and  C_30 
REMARK   10  A    between atoms: N_33  and  S_34 
ROOT
HETATM    1  C   UNL     1       5.619  10.129  89.290  1.00  0.00     0.056 A 
HETATM    2  C   UNL     1       6.547  10.399  90.274  1.00  0.00     0.005 A 
HETATM    3  C   UNL     1       5.590   8.925  88.618  1.00  0.00     0.005 A 
HETATM    4  C   UNL     1       7.480   8.198  89.933  1.00  0.00     0.042 A 
HETATM    5  C   UNL     1       7.489   9.423  90.600  1.00  0.00     0.008 A 
HETATM    6  C   UNL     1       6.531   7.948  88.942  1.00  0.00     0.008 A 
ENDROOT
BRANCH   1   7
HETATM    7  C   UNL     1       4.615  11.168  88.946  1.00  0.00     0.254 C 
HETATM    8  O   UNL     1       4.060  11.126  87.850  1.00  0.00    -0.268 OA
HETATM    9  N   UNL     1       4.360  12.116  89.926  1.00  0.00    -0.337 N 
HETATM   10  HN  UNL     1       4.840  12.074  90.818  1.00  0.00     0.164 HD
BRANCH   9  11
HETATM   11  C   UNL     1       3.396  13.173  89.752  1.00  0.00     0.172 C 
BRANCH  11  12
HETATM   12  C   UNL     1       2.522  13.390  90.994  1.00  0.00     0.136 C 
HETATM   13  C   UNL     1       1.448  14.449  90.773  1.00  0.00     0.034 C 
BRANCH  12  14
HETATM   14  O   UNL     1       1.894  12.161  91.356  1.00  0.00    -0.383 OA
HETATM   15  H   UNL     1       1.668  12.201  92.301  1.00  0.00     0.210 HD
ENDBRANCH  12  14
ENDBRANCH  11  12
BRANCH  11  16
HETATM   16  C   UNL     1       4.157  14.441  89.381  1.00  0.00     0.398 A 
HETATM   17  O   UNL     1       5.154  14.438  88.660  1.00  0.00    -0.136 OA
HETATM   18  N   UNL     1       5.373  15.344  89.861  1.00  0.00     0.142 N 
HETATM   19  HN  UNL     1       6.232  15.492  89.411  1.00  0.00     0.338 HD
BRANCH  18  20
HETATM   20  S   UNL     1       4.938  15.602  91.156  1.00  0.00     0.076 SA
HETATM   21  H   UNL     1       3.859  15.196  91.444  1.00  0.00     0.136 HD
ENDBRANCH  18  20
ENDBRANCH  11  16
ENDBRANCH   9  11
ENDBRANCH   1   7
BRANCH   4  22
HETATM   22  C   UNL     1       8.448   7.198  90.265  1.00  0.00    -0.059 C 
HETATM   23  C   UNL     1       9.260   6.357  90.544  1.00  0.00    -0.059 C 
BRANCH  23  24
HETATM   24  C   UNL     1      10.227   5.356  90.875  1.00  0.00     0.042 A 
HETATM   25  C   UNL     1      10.258   4.816  92.161  1.00  0.00     0.008 A 
HETATM   26  C   UNL     1      11.202   3.842  92.484  1.00  0.00    -0.002 A 
HETATM   27  C   UNL     1      12.114   3.407  91.521  1.00  0.00     0.011 A 
HETATM   28  C   UNL     1      12.081   3.948  90.236  1.00  0.00    -0.002 A 
HETATM   29  C   UNL     1      11.137   4.923  89.913  1.00  0.00     0.008 A 
BRANCH  27  30
HETATM   30  C   UNL     1      13.121   2.364  91.868  1.00  0.00     0.277 C 
BRANCH  30  31
HETATM   31  N   UNL     1      14.086   2.830  92.862  1.00  0.00     0.147 N 
HETATM   32  C   UNL     1      15.127   1.818  93.092  1.00  0.00     0.283 C 
HETATM   33  C   UNL     1      16.128   2.331  94.124  1.00  0.00     0.178 C 
HETATM   34  O   UNL     1      16.713   3.558  93.683  1.00  0.00    -0.350 OA
HETATM   35  C   UNL     1      15.710   4.556  93.487  1.00  0.00     0.178 C 
HETATM   36  C   UNL     1      14.700   4.097  92.441  1.00  0.00     0.283 C 
ENDBRANCH  30  31
ENDBRANCH  27  30
ENDBRANCH  23  24
ENDBRANCH   4  22
TORSDOF 10
ENDMDL
MODEL 2
REMARK VINA RESULT:      -6.7      1.212      1.524
REMARK  10 active torsions:
REMARK  status: ('A' for Active; 'I' for Inactive)
REMARK    1  A    between atoms: O_2  and  C_16 
REMARK    2  A    between atoms: N_5  and  C_9 
REMARK    3  A    between atoms: N_6  and  C_13 
REMARK       I    between atoms: N_6  and  C_22 
REMARK    4  A    between atoms: C_9  and  C_12 
REMARK    5  A    between atoms: C_13  and  C_16 
REMARK    6  A    between atoms: C_13  and  C_21 
REMARK    7  A    between atoms: C_19  and  C_24 
REMARK    8  A    between atoms: C_22  and  C_23 
REMARK    9  A    between atoms: C_27  and  C_30 
REMARK   10  A    between atoms: N_33  and  S_34 
ROOT
HETATM    1  C   UNL     1       4.783   9.775  90.820  1.00  0.00     0.056 A 
HETATM    2  C   UNL     1       4.986   8.849  89.818  1.00  0.00     0.005 A 
HETATM    3  C   UNL     1       5.572   9.821  91.950  1.00  0.00     0.005 A 
HETATM    4  C   UNL     1       6.836   7.953  91.087  1.00  0.00     0.042 A 
HETATM    5  C   UNL     1       6.024   7.926  89.953  1.00  0.00     0.008 A 
HETATM    6  C   UNL     1       6.610   8.900  92.086  1.00  0.00     0.008 A 
ENDROOT
BRANCH   1   7
HETATM    7  C   UNL     1       3.678  10.758  90.675  1.00  0.00     0.254 C 
HETATM    8  O   UNL     1       2.587  10.377  90.259  1.00  0.00    -0.268 OA
HETATM    9  N   UNL     1       3.970  12.061  91.054  1.00  0.00    -0.337 N 
HETATM   10  HN  UNL     1       4.888  12.297  91.413  1.00  0.00     0.164 HD
BRANCH   9  11
HETATM   11  C   UNL     1       2.998  13.122  90.995  1.00  0.00     0.172 C 
BRANCH  11  12
HETATM   12  C   UNL     1       2.781  13.805  92.352  1.00  0.00     0.136 C 
HETATM   13  C   UNL     1       1.316  14.136  92.611  1.00  0.00     0.034 C 
BRANCH  12  14
HETATM   14  O   UNL     1       3.256  12.955  93.395  1.00  0.00    -0.383 OA
HETATM   15  H   UNL     1       3.734  13.502  94.040  1.00  0.00     0.210 HD
ENDBRANCH  12  14
ENDBRANCH  11  12
BRANCH  11  16
HETATM   16  C   UNL     1       3.461  14.120  89.940  1.00  0.00     0.398 A 
HETATM   17  O   UNL     1       3.992  13.781  88.884  1.00  0.00    -0.136 OA
HETATM   18  N   UNL     1       4.739  14.954  89.497  1.00  0.00     0.142 N 
HETATM   19  HN  UNL     1       5.275  14.853  88.681  1.00  0.00     0.338 HD
BRANCH  18  20
HETATM   20  S   UNL     1       4.971  15.625  90.692  1.00  0.00     0.076 SA
HETATM   21  H   UNL     1       6.050  15.495  91.174  1.00  0.00     0.136 HD
ENDBRANCH  18  20
ENDBRANCH  11  16
ENDBRANCH   9  11
ENDBRANCH   1   7
BRANCH   4  22
HETATM   22  C   UNL     1       7.898   7.006  91.227  1.00  0.00    -0.059 C 
HETATM   23  C   UNL     1       8.791   6.210  91.344  1.00  0.00    -0.059 C 
BRANCH  23  24
HETATM   24  C   UNL     1       9.855   5.263  91.483  1.00  0.00     0.042 A 
HETATM   25  C   UNL     1      10.430   5.042  92.734  1.00  0.00     0.008 A 
HETATM   26  C   UNL     1      11.469   4.121  92.870  1.00  0.00    -0.002 A 
HETATM   27  C   UNL     1      11.929   3.419  91.755  1.00  0.00     0.011 A 
HETATM   28  C   UNL     1      11.352   3.642  90.505  1.00  0.00    -0.002 A 
HETATM   29  C   UNL     1      10.314   4.564  90.369  1.00  0.00     0.008 A 
BRANCH  27  30
HETATM   30  C   UNL     1      13.037   2.433  91.902  1.00  0.00     0.277 C 
BRANCH  30  31
HETATM   31  N   UNL     1      14.015   2.840  92.910  1.00  0.00     0.147 N 
HETATM   32  C   UNL     1      15.050   1.810  93.076  1.00  0.00     0.283 C 
HETATM   33  C   UNL     1      16.065   2.261  94.124  1.00  0.00     0.178 C 
HETATM   34  O   UNL     1      16.654   3.505  93.742  1.00  0.00    -0.350 OA
HETATM   35  C   UNL     1      15.657   4.519  93.609  1.00  0.00     0.178 C 
HETATM   36  C   UNL     1      14.634   4.123  92.550  1.00  0.00     0.283 C 
ENDBRANCH  30  31
ENDBRANCH  27  30
ENDBRANCH  23  24
ENDBRANCH   4  22
TORSDOF 10
ENDMDL
MODEL 3
REMARK VINA RESULT:      -6.6      1.688      2.327
REMARK  10 active torsions:
REMARK  status: ('A' for Active; 'I' for Inactive)
REMARK    1  A    between atoms: O_2  and  C_16 
REMARK    2  A    between atoms: N_5  and  C_9 
REMARK    3  A    between atoms: N_6  and  C_13 
REMARK       I    between atoms: N_6  and  C_22 
REMARK    4  A    between atoms: C_9  and  C_12 
REMARK    5  A    between atoms: C_13  and  C_16 
REMARK    6  A    between atoms: C_13  and  C_21 
REMARK    7  A    between atoms: C_19  and  C_24 
REMARK    8  A    between atoms: C_22  and  C_23 
REMARK    9  A    between atoms: C_27  and  C_30 
REMARK   10  A    between atoms: N_33  and  S_34 
ROOT
HETATM    1  C   UNL     1       5.308  10.506  91.025  1.00  0.00     0.056 A 
HETATM    2  C   UNL     1       6.218  10.328  90.005  1.00  0.00     0.005 A 
HETATM    3  C   UNL     1       5.323   9.734  92.168  1.00  0.00     0.005 A 
HETATM    4  C   UNL     1       7.223   8.537  91.277  1.00  0.00     0.042 A 
HETATM    5  C   UNL     1       7.186   9.332  90.130  1.00  0.00     0.008 A 
HETATM    6  C   UNL     1       6.291   8.738  92.295  1.00  0.00     0.008 A 
ENDROOT
BRANCH   1   7
HETATM    7  C   UNL     1       4.278  11.569  90.892  1.00  0.00     0.254 C 
HETATM    8  O   UNL     1       3.226  11.315  90.310  1.00  0.00    -0.268 OA
HETATM    9  N   UNL     1       4.586  12.791  91.473  1.00  0.00    -0.337 N 
HETATM   10  HN  UNL     1       5.465  12.920  91.959  1.00  0.00     0.164 HD
BRANCH   9  11
HETATM   11  C   UNL     1       3.681  13.911  91.448  1.00  0.00     0.172 C 
BRANCH  11  12
HETATM   12  C   UNL     1       3.651  14.622  90.089  1.00  0.00     0.136 C 
HETATM   13  C   UNL     1       4.983  14.527  89.352  1.00  0.00     0.034 C 
BRANCH  12  14
HETATM   14  O   UNL     1       2.629  14.051  89.274  1.00  0.00    -0.383 OA
HETATM   15  H   UNL     1       1.892  14.683  89.222  1.00  0.00     0.210 HD
ENDBRANCH  12  14
ENDBRANCH  11  12
BRANCH  11  16
HETATM   16  C   UNL     1       2.297  13.400  91.837  1.00  0.00     0.398 A 
HETATM   17  O   UNL     1       1.319  14.137  91.952  1.00  0.00    -0.136 OA
HETATM   18  N   UNL     1       1.378  13.152  93.108  1.00  0.00     0.142 N 
HETATM   19  HN  UNL     1       0.548  13.613  93.355  1.00  0.00     0.338 HD
BRANCH  18  20
HETATM   20  S   UNL     1       2.235  12.322  93.822  1.00  0.00     0.076 SA
HETATM   21  H   UNL     1       2.341  11.205  93.430  1.00  0.00     0.136 HD
ENDBRANCH  18  20
ENDBRANCH  11  16
ENDBRANCH   9  11
ENDBRANCH   1   7
BRANCH   4  22
HETATM   22  C   UNL     1       8.213   7.514  91.405  1.00  0.00    -0.059 C 
HETATM   23  C   UNL     1       9.047   6.655  91.512  1.00  0.00    -0.059 C 
BRANCH  23  24
HETATM   24  C   UNL     1      10.039   5.632  91.640  1.00  0.00     0.042 A 
HETATM   25  C   UNL     1      10.389   5.156  92.904  1.00  0.00     0.008 A 
HETATM   26  C   UNL     1      11.358   4.161  93.029  1.00  0.00    -0.002 A 
HETATM   27  C   UNL     1      11.974   3.640  91.891  1.00  0.00     0.011 A 
HETATM   28  C   UNL     1      11.622   4.116  90.628  1.00  0.00    -0.002 A 
HETATM   29  C   UNL     1      10.654   5.112  90.503  1.00  0.00     0.008 A 
BRANCH  27  30
HETATM   30  C   UNL     1      13.007   2.574  92.026  1.00  0.00     0.277 C 
BRANCH  30  31
HETATM   31  N   UNL     1      14.030   2.912  93.015  1.00  0.00     0.147 N 
HETATM   32  C   UNL     1      15.047   1.854  93.094  1.00  0.00     0.283 C 
HETATM   33  C   UNL     1      16.108   2.233  94.124  1.00  0.00     0.178 C 
HETATM   34  O   UNL     1      16.712   3.482  93.778  1.00  0.00    -0.350 OA
HETATM   35  C   UNL     1      15.735   4.521  93.730  1.00  0.00     0.178 C 
HETATM   36  C   UNL     1      14.664   4.197  92.692  1.00  0.00     0.283 C 
ENDBRANCH  30  31
ENDBRANCH  27  30
ENDBRANCH  23  24
ENDBRANCH   4  22
TORSDOF 10
ENDMDL
MODEL 4
REMARK VINA RESULT:      -5.4      3.868     12.610
REMARK  10 active torsions:
REMARK  status: ('A' for Active; 'I' for Inactive)
REMARK    1  A    between atoms: O_2  and  C_16 
REMARK    2  A    between atoms: N_5  and  C_9 
REMARK    3  A    between atoms: N_6  and  C_13 
REMARK       I    between atoms: N_6  and  C_22 
REMARK    4  A    between atoms: C_9  and  C_12 
REMARK    5  A    between atoms: C_13  and  C_16 
REMARK    6  A    between atoms: C_13  and  C_21 
REMARK    7  A    between atoms: C_19  and  C_24 
REMARK    8  A    between atoms: C_22  and  C_23 
REMARK    9  A    between atoms: C_27  and  C_30 
REMARK   10  A    between atoms: N_33  and  S_34 
ROOT
HETATM    1  C   UNL     1      10.296   5.091  92.165  1.00  0.00     0.056 A 
HETATM    2  C   UNL     1       9.527   5.596  93.193  1.00  0.00     0.005 A 
HETATM    3  C   UNL     1      10.212   5.575  90.877  1.00  0.00     0.005 A 
HETATM    4  C   UNL     1       8.530   7.139  91.624  1.00  0.00     0.042 A 
HETATM    5  C   UNL     1       8.634   6.632  92.920  1.00  0.00     0.008 A 
HETATM    6  C   UNL     1       9.319   6.610  90.603  1.00  0.00     0.008 A 
ENDROOT
BRANCH   1   7
HETATM    7  C   UNL     1      11.249   3.989  92.457  1.00  0.00     0.254 C 
HETATM    8  O   UNL     1      10.839   2.831  92.478  1.00  0.00    -0.268 OA
HETATM    9  N   UNL     1      12.569   4.365  92.665  1.00  0.00    -0.337 N 
HETATM   10  HN  UNL     1      12.839   5.340  92.607  1.00  0.00     0.164 HD
BRANCH   9  11
HETATM   11  C   UNL     1      13.614   3.411  92.934  1.00  0.00     0.172 C 
BRANCH  11  12
HETATM   12  C   UNL     1      14.140   2.733  91.663  1.00  0.00     0.136 C 
HETATM   13  C   UNL     1      14.115   3.660  90.453  1.00  0.00     0.034 C 
BRANCH  12  14
HETATM   14  O   UNL     1      15.479   2.288  91.878  1.00  0.00    -0.383 OA
HETATM   15  H   UNL     1      15.952   2.320  91.029  1.00  0.00     0.210 HD
ENDBRANCH  12  14
ENDBRANCH  11  12
BRANCH  11  16
HETATM   16  C   UNL     1      14.730   4.140  93.676  1.00  0.00     0.398 A 
HETATM   17  O   UNL     1      15.279   5.149  93.236  1.00  0.00    -0.136 OA
HETATM   18  N   UNL     1      16.313   4.187  93.799  1.00  0.00     0.142 N 
HETATM   19  HN  UNL     1      16.920   4.912  93.535  1.00  0.00     0.338 HD
BRANCH  18  20
HETATM   20  S   UNL     1      16.534   2.853  94.124  1.00  0.00     0.076 SA
HETATM   21  H   UNL     1      15.571   2.163  94.217  1.00  0.00     0.136 HD
ENDBRANCH  18  20
ENDBRANCH  11  16
ENDBRANCH   9  11
ENDBRANCH   1   7
BRANCH   4  22
HETATM   22  C   UNL     1       7.612   8.198  91.344  1.00  0.00    -0.059 C 
HETATM   23  C   UNL     1       6.841   9.090  91.108  1.00  0.00    -0.059 C 
BRANCH  23  24
HETATM   24  C   UNL     1       5.923  10.150  90.826  1.00  0.00     0.042 A 
HETATM   25  C   UNL     1       6.241  11.110  89.866  1.00  0.00     0.008 A 
HETATM   26  C   UNL     1       5.347  12.145  89.592  1.00  0.00    -0.002 A 
HETATM   27  C   UNL     1       4.134  12.218  90.278  1.00  0.00     0.011 A 
HETATM   28  C   UNL     1       3.817  11.257  91.238  1.00  0.00    -0.002 A 
HETATM   29  C   UNL     1       4.712  10.222  91.511  1.00  0.00     0.008 A 
BRANCH  27  30
HETATM   30  C   UNL     1       3.178  13.323  89.984  1.00  0.00     0.277 C 
BRANCH  30  31
HETATM   31  N   UNL     1       3.007  14.229  91.118  1.00  0.00     0.147 N 
HETATM   32  C   UNL     1       1.847  13.835  91.929  1.00  0.00     0.283 C 
HETATM   33  C   UNL     1       1.695  14.788  93.112  1.00  0.00     0.178 C 
HETATM   34  O   UNL     1       2.883  14.786  93.907  1.00  0.00    -0.350 OA
HETATM   35  C   UNL     1       4.011  15.198  93.134  1.00  0.00     0.178 C 
HETATM   36  C   UNL     1       4.217  14.257  91.951  1.00  0.00     0.283 C 
ENDBRANCH  30  31
ENDBRANCH  27  30
ENDBRANCH  23  24
ENDBRANCH   4  22
TORSDOF 10
ENDMDL
MODEL 5
REMARK VINA RESULT:      -5.4      1.931      2.691
REMARK  10 active torsions:
REMARK  status: ('A' for Active; 'I' for Inactive)
REMARK    1  A    between atoms: O_2  and  C_16 
REMARK    2  A    between atoms: N_5  and  C_9 
REMARK    3  A    between atoms: N_6  and  C_13 
REMARK       I    between atoms: N_6  and  C_22 
REMARK    4  A    between atoms: C_9  and  C_12 
REMARK    5  A    between atoms: C_13  and  C_16 
REMARK    6  A    between atoms: C_13  and  C_21 
REMARK    7  A    between atoms: C_19  and  C_24 
REMARK    8  A    between atoms: C_22  and  C_23 
REMARK    9  A    between atoms: C_27  and  C_30 
REMARK   10  A    between atoms: N_33  and  S_34 
ROOT
HETATM    1  C   UNL     1       6.213   7.882  88.451  1.00  0.00     0.056 A 
HETATM    2  C   UNL     1       5.976   7.457  89.742  1.00  0.00     0.005 A 
HETATM    3  C   UNL     1       7.390   7.602  87.788  1.00  0.00     0.005 A 
HETATM    4  C   UNL     1       8.158   6.422  89.751  1.00  0.00     0.042 A 
HETATM    5  C   UNL     1       6.959   6.719  90.400  1.00  0.00     0.008 A 
HETATM    6  C   UNL     1       8.374   6.863  88.446  1.00  0.00     0.008 A 
ENDROOT
BRANCH   1   7
HETATM    7  C   UNL     1       5.165   8.667  87.750  1.00  0.00     0.254 C 
HETATM    8  O   UNL     1       4.924   8.426  86.569  1.00  0.00    -0.268 OA
HETATM    9  N   UNL     1       4.506   9.621  88.513  1.00  0.00    -0.337 N 
HETATM   10  HN  UNL     1       4.742   9.748  89.490  1.00  0.00     0.164 HD
BRANCH   9  11
HETATM   11  C   UNL     1       3.449  10.444  87.983  1.00  0.00     0.172 C 
BRANCH  11  12
HETATM   12  C   UNL     1       2.062  10.027  88.487  1.00  0.00     0.136 C 
HETATM   13  C   UNL     1       1.603   8.697  87.899  1.00  0.00     0.034 C 
BRANCH  12  14
HETATM   14  O   UNL     1       2.083   9.922  89.910  1.00  0.00    -0.383 OA
HETATM   15  H   UNL     1       2.917   9.497  90.172  1.00  0.00     0.210 HD
ENDBRANCH  12  14
ENDBRANCH  11  12
BRANCH  11  16
HETATM   16  C   UNL     1       3.759  11.893  88.347  1.00  0.00     0.398 A 
HETATM   17  O   UNL     1       4.399  12.645  87.615  1.00  0.00    -0.136 OA
HETATM   18  N   UNL     1       4.868  12.784  89.054  1.00  0.00     0.142 N 
HETATM   19  HN  UNL     1       5.454  13.458  88.647  1.00  0.00     0.338 HD
BRANCH  18  20
HETATM   20  S   UNL     1       4.903  12.132  90.282  1.00  0.00     0.076 SA
HETATM   21  H   UNL     1       4.884  10.945  90.253  1.00  0.00     0.136 HD
ENDBRANCH  18  20
ENDBRANCH  11  16
ENDBRANCH   9  11
ENDBRANCH   1   7
BRANCH   4  22
HETATM   22  C   UNL     1       9.167   5.668  90.427  1.00  0.00    -0.059 C 
HETATM   23  C   UNL     1      10.016   5.033  90.996  1.00  0.00    -0.059 C 
BRANCH  23  24
HETATM   24  C   UNL     1      11.025   4.277  91.672  1.00  0.00     0.042 A 
HETATM   25  C   UNL     1      11.659   3.221  91.017  1.00  0.00     0.008 A 
HETATM   26  C   UNL     1      12.642   2.483  91.677  1.00  0.00    -0.002 A 
HETATM   27  C   UNL     1      12.991   2.803  92.989  1.00  0.00     0.011 A 
HETATM   28  C   UNL     1      12.357   3.860  93.642  1.00  0.00    -0.002 A 
HETATM   29  C   UNL     1      11.373   4.597  92.982  1.00  0.00     0.008 A 
BRANCH  27  30
HETATM   30  C   UNL     1      14.043   2.015  93.692  1.00  0.00     0.277 C 
BRANCH  30  31
HETATM   31  N   UNL     1      15.173   2.843  94.111  1.00  0.00     0.147 N 
HETATM   32  C   UNL     1      16.433   2.317  93.567  1.00  0.00     0.283 C 
HETATM   33  C   UNL     1      17.596   3.203  94.007  1.00  0.00     0.178 C 
HETATM   34  O   UNL     1      17.387   4.549  93.574  1.00  0.00    -0.350 OA
HETATM   35  C   UNL     1      16.180   5.077  94.124  1.00  0.00     0.178 C 
HETATM   36  C   UNL     1      14.984   4.237  93.687  1.00  0.00     0.283 C 
ENDBRANCH  30  31
ENDBRANCH  27  30
ENDBRANCH  23  24
ENDBRANCH   4  22
TORSDOF 10
ENDMDL
MODEL 6
REMARK VINA RESULT:      -5.3      3.877     12.559
REMARK  10 active torsions:
REMARK  status: ('A' for Active; 'I' for Inactive)
REMARK    1  A    between atoms: O_2  and  C_16 
REMARK    2  A    between atoms: N_5  and  C_9 
REMARK    3  A    between atoms: N_6  and  C_13 
REMARK       I    between atoms: N_6  and  C_22 
REMARK    4  A    between atoms: C_9  and  C_12 
REMARK    5  A    between atoms: C_13  and  C_16 
REMARK    6  A    between atoms: C_13  and  C_21 
REMARK    7  A    between atoms: C_19  and  C_24 
REMARK    8  A    between atoms: C_22  and  C_23 
REMARK    9  A    between atoms: C_27  and  C_30 
REMARK   10  A    between atoms: N_33  and  S_34 
ROOT
HETATM    1  C   UNL     1      10.455   4.694  92.639  1.00  0.00     0.056 A 
HETATM    2  C   UNL     1      10.399   5.705  93.575  1.00  0.00     0.005 A 
HETATM    3  C   UNL     1       9.564   4.612  91.589  1.00  0.00     0.005 A 
HETATM    4  C   UNL     1       8.493   6.617  92.406  1.00  0.00     0.042 A 
HETATM    5  C   UNL     1       9.406   6.678  93.458  1.00  0.00     0.008 A 
HETATM    6  C   UNL     1       8.571   5.584  91.471  1.00  0.00     0.008 A 
ENDROOT
BRANCH   1   7
HETATM    7  C   UNL     1      11.514   3.659  92.763  1.00  0.00     0.254 C 
HETATM    8  O   UNL     1      11.225   2.479  92.575  1.00  0.00    -0.268 OA
HETATM    9  N   UNL     1      12.786   4.123  93.066  1.00  0.00    -0.337 N 
HETATM   10  HN  UNL     1      12.955   5.116  93.184  1.00  0.00     0.164 HD
BRANCH   9  11
HETATM   11  C   UNL     1      13.922   3.246  93.196  1.00  0.00     0.172 C 
BRANCH  11  12
HETATM   12  C   UNL     1      14.416   2.711  91.846  1.00  0.00     0.136 C 
HETATM   13  C   UNL     1      14.245   3.724  90.719  1.00  0.00     0.034 C 
BRANCH  12  14
HETATM   14  O   UNL     1      15.795   2.360  91.947  1.00  0.00    -0.383 OA
HETATM   15  H   UNL     1      16.275   2.796  91.223  1.00  0.00     0.210 HD
ENDBRANCH  12  14
ENDBRANCH  11  12
BRANCH  11  16
HETATM   16  C   UNL     1      15.022   4.012  93.924  1.00  0.00     0.398 A 
HETATM   17  O   UNL     1      15.441   5.104  93.545  1.00  0.00    -0.136 OA
HETATM   18  N   UNL     1      16.599   4.202  93.942  1.00  0.00     0.142 N 
HETATM   19  HN  UNL     1      17.115   5.003  93.706  1.00  0.00     0.338 HD
BRANCH  18  20
HETATM   20  S   UNL     1      16.963   2.873  94.124  1.00  0.00     0.076 SA
HETATM   21  H   UNL     1      17.647   2.634  95.066  1.00  0.00     0.136 HD
ENDBRANCH  18  20
ENDBRANCH  11  16
ENDBRANCH   9  11
ENDBRANCH   1   7
BRANCH   4  22
HETATM   22  C   UNL     1       7.473   7.612  92.287  1.00  0.00    -0.059 C 
HETATM   23  C   UNL     1       6.616   8.449  92.188  1.00  0.00    -0.059 C 
BRANCH  23  24
HETATM   24  C   UNL     1       5.596   9.446  92.070  1.00  0.00     0.042 A 
HETATM   25  C   UNL     1       4.505   9.229  91.231  1.00  0.00     0.008 A 
HETATM   26  C   UNL     1       3.512  10.202  91.114  1.00  0.00    -0.002 A 
HETATM   27  C   UNL     1       3.610  11.390  91.839  1.00  0.00     0.011 A 
HETATM   28  C   UNL     1       4.703  11.605  92.678  1.00  0.00    -0.002 A 
HETATM   29  C   UNL     1       5.696  10.633  92.794  1.00  0.00     0.008 A 
BRANCH  27  30
HETATM   30  C   UNL     1       2.547  12.428  91.715  1.00  0.00     0.277 C 
BRANCH  30  31
HETATM   31  N   UNL     1       3.079  13.722  91.291  1.00  0.00     0.147 N 
HETATM   32  C   UNL     1       3.976  14.276  92.314  1.00  0.00     0.283 C 
HETATM   33  C   UNL     1       4.527  15.620  91.845  1.00  0.00     0.178 C 
HETATM   34  O   UNL     1       5.219  15.469  90.604  1.00  0.00    -0.350 OA
HETATM   35  C   UNL     1       4.345  14.959  89.596  1.00  0.00     0.178 C 
HETATM   36  C   UNL     1       3.789  13.601  90.010  1.00  0.00     0.283 C 
ENDBRANCH  30  31
ENDBRANCH  27  30
ENDBRANCH  23  24
ENDBRANCH   4  22
TORSDOF 10
ENDMDL
MODEL 7
REMARK VINA RESULT:      -5.0      1.688      2.189
REMARK  10 active torsions:
REMARK  status: ('A' for Active; 'I' for Inactive)
REMARK    1  A    between atoms: O_2  and  C_16 
REMARK    2  A    between atoms: N_5  and  C_9 
REMARK    3  A    between atoms: N_6  and  C_13 
REMARK       I    between atoms: N_6  and  C_22 
REMARK    4  A    between atoms: C_9  and  C_12 
REMARK    5  A    between atoms: C_13  and  C_16 
REMARK    6  A    between atoms: C_13  and  C_21 
REMARK    7  A    between atoms: C_19  and  C_24 
REMARK    8  A    between atoms: C_22  and  C_23 
REMARK    9  A    between atoms: C_27  and  C_30 
REMARK   10  A    between atoms: N_33  and  S_34 
ROOT
HETATM    1  C   UNL     1       5.441   8.113  89.791  1.00  0.00     0.056 A 
HETATM    2  C   UNL     1       5.359   6.739  89.720  1.00  0.00     0.005 A 
HETATM    3  C   UNL     1       6.591   8.763  90.185  1.00  0.00     0.005 A 
HETATM    4  C   UNL     1       7.654   6.612  90.464  1.00  0.00     0.042 A 
HETATM    5  C   UNL     1       6.478   5.978  90.061  1.00  0.00     0.008 A 
HETATM    6  C   UNL     1       7.711   8.005  90.527  1.00  0.00     0.008 A 
ENDROOT
BRANCH   1   7
HETATM    7  C   UNL     1       4.249   8.923  89.425  1.00  0.00     0.254 C 
HETATM    8  O   UNL     1       3.404   8.441  88.676  1.00  0.00    -0.268 OA
HETATM    9  N   UNL     1       4.174  10.186  89.996  1.00  0.00    -0.337 N 
HETATM   10  HN  UNL     1       4.898  10.507  90.627  1.00  0.00     0.164 HD
BRANCH   9  11
HETATM   11  C   UNL     1       3.069  11.079  89.759  1.00  0.00     0.172 C 
BRANCH  11  12
HETATM   12  C   UNL     1       2.791  12.009  90.947  1.00  0.00     0.136 C 
HETATM   13  C   UNL     1       4.033  12.259  91.795  1.00  0.00     0.034 C 
BRANCH  12  14
HETATM   14  O   UNL     1       2.298  13.260  90.468  1.00  0.00    -0.383 OA
HETATM   15  H   UNL     1       3.012  13.916  90.539  1.00  0.00     0.210 HD
ENDBRANCH  12  14
ENDBRANCH  11  12
BRANCH  11  16
HETATM   16  C   UNL     1       3.375  11.873  88.493  1.00  0.00     0.398 A 
HETATM   17  O   UNL     1       3.749  11.346  87.446  1.00  0.00    -0.136 OA
HETATM   18  N   UNL     1       4.575  12.589  87.737  1.00  0.00     0.142 N 
HETATM   19  HN  UNL     1       4.989  12.338  86.884  1.00  0.00     0.338 HD
BRANCH  18  20
HETATM   20  S   UNL     1       4.976  13.447  88.755  1.00  0.00     0.076 SA
HETATM   21  H   UNL     1       5.534  14.442  88.423  1.00  0.00     0.136 HD
ENDBRANCH  18  20
ENDBRANCH  11  16
ENDBRANCH   9  11
ENDBRANCH   1   7
BRANCH   4  22
HETATM   22  C   UNL     1       8.800   5.833  90.816  1.00  0.00    -0.059 C 
HETATM   23  C   UNL     1       9.763   5.178  91.113  1.00  0.00    -0.059 C 
BRANCH  23  24
HETATM   24  C   UNL     1      10.910   4.398  91.466  1.00  0.00     0.042 A 
HETATM   25  C   UNL     1      10.893   3.620  92.623  1.00  0.00     0.008 A 
HETATM   26  C   UNL     1      12.011   2.861  92.968  1.00  0.00    -0.002 A 
HETATM   27  C   UNL     1      13.144   2.879  92.154  1.00  0.00     0.011 A 
HETATM   28  C   UNL     1      13.159   3.657  90.996  1.00  0.00    -0.002 A 
HETATM   29  C   UNL     1      12.041   4.416  90.652  1.00  0.00     0.008 A 
BRANCH  27  30
HETATM   30  C   UNL     1      14.338   2.065  92.522  1.00  0.00     0.277 C 
BRANCH  30  31
HETATM   31  N   UNL     1      15.269   2.798  93.378  1.00  0.00     0.147 N 
HETATM   32  C   UNL     1      16.659   2.436  93.064  1.00  0.00     0.283 C 
HETATM   33  C   UNL     1      17.612   3.222  93.962  1.00  0.00     0.178 C 
HETATM   34  O   UNL     1      17.412   4.626  93.791  1.00  0.00    -0.350 OA
HETATM   35  C   UNL     1      16.072   4.991  94.124  1.00  0.00     0.178 C 
HETATM   36  C   UNL     1      15.082   4.248  93.232  1.00  0.00     0.283 C 
ENDBRANCH  30  31
ENDBRANCH  27  30
ENDBRANCH  23  24
ENDBRANCH   4  22
TORSDOF 10
ENDMDL
MODEL 8
REMARK VINA RESULT:      -4.9      2.380      3.128
REMARK  10 active torsions:
REMARK  status: ('A' for Active; 'I' for Inactive)
REMARK    1  A    between atoms: O_2  and  C_16 
REMARK    2  A    between atoms: N_5  and  C_9 
REMARK    3  A    between atoms: N_6  and  C_13 
REMARK       I    between atoms: N_6  and  C_22 
REMARK    4  A    between atoms: C_9  and  C_12 
REMARK    5  A    between atoms: C_13  and  C_16 
REMARK    6  A    between atoms: C_13  and  C_21 
REMARK    7  A    between atoms: C_19  and  C_24 
REMARK    8  A    between atoms: C_22  and  C_23 
REMARK    9  A    between atoms: C_27  and  C_30 
REMARK   10  A    between atoms: N_33  and  S_34 
ROOT
HETATM    1  C   UNL     1       6.210   8.481  89.136  1.00  0.00     0.056 A 
HETATM    2  C   UNL     1       6.719   7.467  88.351  1.00  0.00     0.005 A 
HETATM    3  C   UNL     1       6.673   8.728  90.411  1.00  0.00     0.005 A 
HETATM    4  C   UNL     1       8.222   6.893  90.152  1.00  0.00     0.042 A 
HETATM    5  C   UNL     1       7.736   6.664  88.865  1.00  0.00     0.008 A 
HETATM    6  C   UNL     1       7.691   7.925  90.926  1.00  0.00     0.008 A 
ENDROOT
BRANCH   1   7
HETATM    7  C   UNL     1       5.127   9.338  88.588  1.00  0.00     0.254 C 
HETATM    8  O   UNL     1       4.920   9.342  87.377  1.00  0.00    -0.268 OA
HETATM    9  N   UNL     1       4.399  10.068  89.518  1.00  0.00    -0.337 N 
HETATM   10  HN  UNL     1       4.611   9.995  90.506  1.00  0.00     0.164 HD
BRANCH   9  11
HETATM   11  C   UNL     1       3.303  10.926  89.145  1.00  0.00     0.172 C 
BRANCH  11  12
HETATM   12  C   UNL     1       3.746  12.367  88.865  1.00  0.00     0.136 C 
HETATM   13  C   UNL     1       4.638  12.929  89.966  1.00  0.00     0.034 C 
BRANCH  12  14
HETATM   14  O   UNL     1       4.453  12.417  87.626  1.00  0.00    -0.383 OA
HETATM   15  H   UNL     1       4.780  13.323  87.497  1.00  0.00     0.210 HD
ENDBRANCH  12  14
ENDBRANCH  11  12
BRANCH  11  16
HETATM   16  C   UNL     1       2.622  10.308  87.928  1.00  0.00     0.398 A 
HETATM   17  O   UNL     1       1.658  10.825  87.367  1.00  0.00    -0.136 OA
HETATM   18  N   UNL     1       1.433   9.331  87.535  1.00  0.00     0.142 N 
HETATM   19  HN  UNL     1       0.602   9.549  87.061  1.00  0.00     0.338 HD
BRANCH  18  20
HETATM   20  S   UNL     1       1.825   8.222  88.276  1.00  0.00     0.076 SA
HETATM   21  H   UNL     1       2.993   8.080  88.442  1.00  0.00     0.136 HD
ENDBRANCH  18  20
ENDBRANCH  11  16
ENDBRANCH   9  11
ENDBRANCH   1   7
BRANCH   4  22
HETATM   22  C   UNL     1       9.264   6.067  90.680  1.00  0.00    -0.059 C 
HETATM   23  C   UNL     1      10.140   5.374  91.123  1.00  0.00    -0.059 C 
BRANCH  23  24
HETATM   24  C   UNL     1      11.182   4.548  91.652  1.00  0.00     0.042 A 
HETATM   25  C   UNL     1      11.087   4.055  92.953  1.00  0.00     0.008 A 
HETATM   26  C   UNL     1      12.103   3.252  93.469  1.00  0.00    -0.002 A 
HETATM   27  C   UNL     1      13.213   2.940  92.683  1.00  0.00     0.011 A 
HETATM   28  C   UNL     1      13.306   3.434  91.382  1.00  0.00    -0.002 A 
HETATM   29  C   UNL     1      12.290   4.238  90.866  1.00  0.00     0.008 A 
BRANCH  27  30
HETATM   30  C   UNL     1      14.298   2.080  93.235  1.00  0.00     0.277 C 
BRANCH  30  31
HETATM   31  N   UNL     1      15.483   2.850  93.612  1.00  0.00     0.147 N 
HETATM   32  C   UNL     1      16.558   2.664  92.628  1.00  0.00     0.283 C 
HETATM   33  C   UNL     1      17.779   3.484  93.035  1.00  0.00     0.178 C 
HETATM   34  O   UNL     1      17.435   4.867  93.143  1.00  0.00    -0.350 OA
HETATM   35  C   UNL     1      16.412   5.060  94.120  1.00  0.00     0.178 C 
HETATM   36  C   UNL     1      15.159   4.277  93.740  1.00  0.00     0.283 C 
ENDBRANCH  30  31
ENDBRANCH  27  30
ENDBRANCH  23  24
ENDBRANCH   4  22
TORSDOF 10
ENDMDL
MODEL 9
REMARK VINA RESULT:      -3.9      4.137     12.646
REMARK  10 active torsions:
REMARK  status: ('A' for Active; 'I' for Inactive)
REMARK    1  A    between atoms: O_2  and  C_16 
REMARK    2  A    between atoms: N_5  and  C_9 
REMARK    3  A    between atoms: N_6  and  C_13 
REMARK       I    between atoms: N_6  and  C_22 
REMARK    4  A    between atoms: C_9  and  C_12 
REMARK    5  A    between atoms: C_13  and  C_16 
REMARK    6  A    between atoms: C_13  and  C_21 
REMARK    7  A    between atoms: C_19  and  C_24 
REMARK    8  A    between atoms: C_22  and  C_23 
REMARK    9  A    between atoms: C_27  and  C_30 
REMARK   10  A    between atoms: N_33  and  S_34 
ROOT
HETATM    1  C   UNL     1      10.726   5.321  92.515  1.00  0.00     0.056 A 
HETATM    2  C   UNL     1      10.187   5.860  91.365  1.00  0.00     0.005 A 
HETATM    3  C   UNL     1      10.140   5.491  93.752  1.00  0.00     0.005 A 
HETATM    4  C   UNL     1       8.399   6.791  92.696  1.00  0.00     0.042 A 
HETATM    5  C   UNL     1       9.011   6.604  91.456  1.00  0.00     0.008 A 
HETATM    6  C   UNL     1       8.964   6.235  93.844  1.00  0.00     0.008 A 
ENDROOT
BRANCH   1   7
HETATM    7  C   UNL     1      11.978   4.527  92.417  1.00  0.00     0.254 C 
HETATM    8  O   UNL     1      12.579   4.486  91.347  1.00  0.00    -0.268 OA
HETATM    9  N   UNL     1      12.392   3.899  93.583  1.00  0.00    -0.337 N 
HETATM   10  HN  UNL     1      11.856   3.999  94.438  1.00  0.00     0.164 HD
BRANCH   9  11
HETATM   11  C   UNL     1      13.598   3.113  93.655  1.00  0.00     0.172 C 
BRANCH  11  12
HETATM   12  C   UNL     1      13.757   2.161  92.463  1.00  0.00     0.136 C 
HETATM   13  C   UNL     1      12.419   1.658  91.934  1.00  0.00     0.034 C 
BRANCH  12  14
HETATM   14  O   UNL     1      14.451   2.827  91.409  1.00  0.00    -0.383 OA
HETATM   15  H   UNL     1      13.955   3.630  91.177  1.00  0.00     0.210 HD
ENDBRANCH  12  14
ENDBRANCH  11  12
BRANCH  11  16
HETATM   16  C   UNL     1      14.776   4.077  93.756  1.00  0.00     0.398 A 
HETATM   17  O   UNL     1      15.081   4.859  92.858  1.00  0.00    -0.136 OA
HETATM   18  N   UNL     1      16.324   4.184  93.415  1.00  0.00     0.142 N 
HETATM   19  HN  UNL     1      16.759   4.767  92.757  1.00  0.00     0.338 HD
BRANCH  18  20
HETATM   20  S   UNL     1      16.766   3.067  94.114  1.00  0.00     0.076 SA
HETATM   21  H   UNL     1      17.417   3.272  95.087  1.00  0.00     0.136 HD
ENDBRANCH  18  20
ENDBRANCH  11  16
ENDBRANCH   9  11
ENDBRANCH   1   7
BRANCH   4  22
HETATM   22  C   UNL     1       7.195   7.555  92.790  1.00  0.00    -0.059 C 
HETATM   23  C   UNL     1       6.182   8.198  92.869  1.00  0.00    -0.059 C 
BRANCH  23  24
HETATM   24  C   UNL     1       4.976   8.963  92.962  1.00  0.00     0.042 A 
HETATM   25  C   UNL     1       4.909  10.053  93.829  1.00  0.00     0.008 A 
HETATM   26  C   UNL     1       3.733  10.797  93.922  1.00  0.00    -0.002 A 
HETATM   27  C   UNL     1       2.625  10.452  93.146  1.00  0.00     0.011 A 
HETATM   28  C   UNL     1       2.695   9.361  92.279  1.00  0.00    -0.002 A 
HETATM   29  C   UNL     1       3.871   8.617  92.187  1.00  0.00     0.008 A 
BRANCH  27  30
HETATM   30  C   UNL     1       1.370  11.249  93.245  1.00  0.00     0.277 C 
BRANCH  30  31
HETATM   31  N   UNL     1       1.546  12.625  92.784  1.00  0.00     0.147 N 
HETATM   32  C   UNL     1       2.077  13.471  93.863  1.00  0.00     0.283 C 
HETATM   33  C   UNL     1       2.264  14.899  93.356  1.00  0.00     0.178 C 
HETATM   34  O   UNL     1       3.143  14.916  92.230  1.00  0.00    -0.350 OA
HETATM   35  C   UNL     1       2.619  14.121  91.166  1.00  0.00     0.178 C 
HETATM   36  C   UNL     1       2.440  12.676  91.619  1.00  0.00     0.283 C 
ENDBRANCH  30  31
ENDBRANCH  27  30
ENDBRANCH  23  24
ENDBRANCH   4  22
TORSDOF 10
ENDMDL
