MODEL 1
REMARK VINA RESULT:      -6.2      0.000      0.000
REMARK  12 active torsions:
REMARK  status: ('A' for Active; 'I' for Inactive)
REMARK    1  A    between atoms: O_2  and  C_16 
REMARK    2  A    between atoms: N_5  and  C_9 
REMARK    3  A    between atoms: N_6  and  C_13 
REMARK       I    between atoms: N_6  and  C_22 
REMARK    4  A    between atoms: C_9  and  C_12 
REMARK    5  A    between atoms: C_13  and  C_16 
REMARK    6  A    between atoms: C_13  and  C_21 
REMARK    7  A    between atoms: C_19  and  C_24 
REMARK    8  A    between atoms: C_21  and  C_33 
REMARK    9  A    between atoms: C_22  and  C_23 
REMARK   10  A    between atoms: C_27  and  C_30 
REMARK   11  A    between atoms: C_33  and  C_34 
REMARK   12  A    between atoms: C_34  and  C_35 
ROOT
HETATM    1  O   UNL     1      16.476   3.254  93.761  1.00  0.00    -0.350 OA
HETATM    2  N   UNL     1      13.891   2.885  92.629  1.00  0.00     0.147 N 
HETATM    3  C   UNL     1      14.748   1.743  92.976  1.00  0.00     0.283 C 
HETATM    4  C   UNL     1      14.719   4.051  92.290  1.00  0.00     0.283 C 
HETATM    5  C   UNL     1      15.680   2.125  94.123  1.00  0.00     0.178 C 
HETATM    6  C   UNL     1      15.651   4.378  93.452  1.00  0.00     0.178 C 
ENDROOT
BRANCH   2   7
HETATM    7  C   UNL     1      12.996   2.544  91.524  1.00  0.00     0.277 C 
BRANCH   7   8
HETATM    8  C   UNL     1      11.838   3.478  91.422  1.00  0.00     0.011 A 
HETATM    9  C   UNL     1      11.333   4.089  92.571  1.00  0.00    -0.002 A 
HETATM   10  C   UNL     1      10.248   4.961  92.477  1.00  0.00     0.008 A 
HETATM   11  C   UNL     1       9.671   5.222  91.235  1.00  0.00     0.042 A 
HETATM   12  C   UNL     1      10.175   4.613  90.088  1.00  0.00     0.008 A 
HETATM   13  C   UNL     1      11.259   3.741  90.181  1.00  0.00    -0.002 A 
BRANCH  11  14
HETATM   14  C   UNL     1       8.560   6.119  91.139  1.00  0.00    -0.059 C 
HETATM   15  C   UNL     1       7.626   6.871  91.059  1.00  0.00    -0.059 C 
BRANCH  15  16
HETATM   16  C   UNL     1       6.515   7.767  90.963  1.00  0.00     0.042 A 
HETATM   17  C   UNL     1       5.217   7.288  91.139  1.00  0.00     0.008 A 
HETATM   18  C   UNL     1       4.134   8.163  91.049  1.00  0.00     0.005 A 
HETATM   19  C   UNL     1       4.374   9.495  90.786  1.00  0.00     0.056 A 
HETATM   20  C   UNL     1       5.647   9.993  90.608  1.00  0.00     0.005 A 
HETATM   21  C   UNL     1       6.731   9.119  90.698  1.00  0.00     0.008 A 
BRANCH  19  22
HETATM   22  C   UNL     1       3.220  10.426  90.688  1.00  0.00     0.254 C 
HETATM   23  O   UNL     1       2.208  10.067  90.090  1.00  0.00    -0.268 OA
HETATM   24  N   UNL     1       3.373  11.653  91.318  1.00  0.00    -0.335 N 
HETATM   25  HN  UNL     1       4.229  11.871  91.815  1.00  0.00     0.164 HD
BRANCH  24  26
HETATM   26  C   UNL     1       2.336  12.653  91.333  1.00  0.00     0.166 C 
BRANCH  26  27
HETATM   27  C   UNL     1       2.023  13.163  92.745  1.00  0.00     0.138 C 
HETATM   28  C   UNL     1       3.257  13.200  93.639  1.00  0.00     0.034 C 
BRANCH  27  29
HETATM   29  O   UNL     1       1.468  14.476  92.666  1.00  0.00    -0.383 OA
HETATM   30  H   UNL     1       0.506  14.408  92.785  1.00  0.00     0.210 HD
ENDBRANCH  27  29
ENDBRANCH  26  27
BRANCH  26  31
HETATM   31  C   UNL     1       2.772  13.791  90.416  1.00  0.00     0.181 C 
HETATM   32  O   UNL     1       2.142  14.841  90.306  1.00  0.00    -0.294 OA
BRANCH  31  33
HETATM   33  C   UNL     1       4.315  14.214  90.675  1.00  0.00     0.138 C 
BRANCH  33  34
HETATM   34  C   UNL     1       4.734  14.534  89.364  1.00  0.00     0.208 C 
HETATM   35  O   UNL     1       5.237  15.624  89.217  1.00  0.00    -0.289 OA
BRANCH  34  36
HETATM   36  C   UNL     1       4.939  13.730  88.277  1.00  0.00     0.194 C 
HETATM   37  O   UNL     1       4.607  12.386  88.071  1.00  0.00    -0.185 OA
ENDBRANCH  34  36
ENDBRANCH  33  34
ENDBRANCH  31  33
ENDBRANCH  26  31
ENDBRANCH  24  26
ENDBRANCH  19  22
ENDBRANCH  15  16
ENDBRANCH  11  14
ENDBRANCH   7   8
ENDBRANCH   2   7
TORSDOF 12
ENDMDL
