MODEL 1
REMARK VINA RESULT:      -7.2      0.000      0.000
REMARK  9 active torsions:
REMARK  status: ('A' for Active; 'I' for Inactive)
REMARK    1  A    between atoms: O_2  and  C_17 
REMARK    2  A    between atoms: N_5  and  C_10 
REMARK    3  A    between atoms: N_6  and  C_14 
REMARK       I    between atoms: N_6  and  C_23 
REMARK       I    between atoms: N_7  and  C_22 
REMARK    4  A    between atoms: C_10  and  C_13 
REMARK    5  A    between atoms: C_14  and  C_17 
REMARK    6  A    between atoms: C_14  and  C_22 
REMARK    7  A    between atoms: C_20  and  C_25 
REMARK    8  A    between atoms: C_23  and  C_24 
REMARK    9  A    between atoms: C_28  and  C_31 
ROOT
HETATM    1  O   UNL     1      16.514   4.309  94.093  1.00  0.00    -0.388 OA
HETATM    2  N   UNL     1      14.759   2.693  92.540  1.00  0.00     0.096 N 
HETATM    3  C   UNL     1      14.684   4.161  92.506  1.00  0.00     0.299 C 
HETATM    4  C   UNL     1      15.263   2.245  93.845  1.00  0.00     0.299 C 
HETATM    5  C   UNL     1      16.055   4.756  92.816  1.00  0.00     0.198 C 
HETATM    6  C   UNL     1      16.620   2.885  94.123  1.00  0.00     0.198 C 
ENDROOT
BRANCH   2   7
HETATM    7  C   UNL     1      13.452   2.102  92.257  1.00  0.00     0.311 C 
BRANCH   7   8
HETATM    8  C   UNL     1      12.439   3.123  91.864  1.00  0.00    -0.030 A 
HETATM    9  C   UNL     1      11.607   3.686  92.833  1.00  0.00     0.010 A 
HETATM   10  C   UNL     1      10.658   4.640  92.467  1.00  0.00     0.021 A 
HETATM   11  C   UNL     1      10.542   5.031  91.133  1.00  0.00     0.018 A 
HETATM   12  C   UNL     1      11.373   4.470  90.166  1.00  0.00     0.021 A 
HETATM   13  C   UNL     1      12.322   3.515  90.531  1.00  0.00     0.010 A 
BRANCH  11  14
HETATM   14  C   UNL     1       9.569   6.011  90.758  1.00  0.00    -0.061 C 
HETATM   15  C   UNL     1       8.752   6.834  90.443  1.00  0.00    -0.061 C 
BRANCH  15  16
HETATM   16  C   UNL     1       7.780   7.813  90.068  1.00  0.00     0.018 A 
HETATM   17  C   UNL     1       6.864   7.532  89.053  1.00  0.00     0.022 A 
HETATM   18  C   UNL     1       5.914   8.486  88.689  1.00  0.00     0.018 A 
HETATM   19  C   UNL     1       5.899   9.698  89.348  1.00  0.00     0.032 A 
HETATM   20  C   UNL     1       6.793   9.999  90.354  1.00  0.00     0.018 A 
HETATM   21  C   UNL     1       7.744   9.046  90.718  1.00  0.00     0.022 A 
BRANCH  19  22
HETATM   22  C   UNL     1       4.888  10.714  88.958  1.00  0.00     0.252 C 
HETATM   23  O   UNL     1       4.068  10.441  88.085  1.00  0.00    -0.268 OA
HETATM   24  N   UNL     1       4.937  11.916  89.650  1.00  0.00    -0.342 N 
HETATM   25  H   UNL     1       5.627  12.062  90.377  1.00  0.00     0.163 HD
BRANCH  24  26
HETATM   26  C   UNL     1       4.009  12.991  89.404  1.00  0.00     0.199 C 
BRANCH  26  27
HETATM   27  C   UNL     1       3.511  13.652  90.695  1.00  0.00     0.145 C 
HETATM   28  C   UNL     1       2.401  12.854  91.370  1.00  0.00     0.042 C 
BRANCH  27  29
HETATM   29  O   UNL     1       4.598  13.796  91.608  1.00  0.00    -0.393 OA
HETATM   30  H   UNL     1       5.104  14.588  91.358  1.00  0.00     0.210 HD
ENDBRANCH  27  29
ENDBRANCH  26  27
BRANCH  26  31
HETATM   31  C   UNL     1       4.697  14.002  88.493  1.00  0.00     0.220 C 
HETATM   32  O   UNL     1       4.941  15.157  88.838  1.00  0.00    -0.278 OA
HETATM   33  N   UNL     1       4.968  13.481  87.251  1.00  0.00    -0.271 NA
HETATM   34  H   UNL     1       4.702  12.567  86.905  1.00  0.00     0.127 HD
HETATM   35  H   UNL     1       4.347  13.776  86.027  1.00  0.00     0.127 HD
ENDBRANCH  26  31
ENDBRANCH  24  26
ENDBRANCH  19  22
ENDBRANCH  15  16
ENDBRANCH  11  14
ENDBRANCH   7   8
ENDBRANCH   2   7
TORSDOF 9
ENDMDL
