MODEL 1
REMARK VINA RESULT:      -7.5      0.000      0.000
REMARK  9 active torsions:
REMARK  status: ('A' for Active; 'I' for Inactive)
REMARK    1  A    between atoms: N_3  and  C_6 
REMARK    2  A    between atoms: C_6  and  C_9 
REMARK    3  A    between atoms: C_14  and  C_17 
REMARK       I    between atoms: N_26  and  C_15 
REMARK    4  A    between atoms: C_15  and  C_16 
REMARK    5  A    between atoms: C_20  and  C_23 
REMARK    6  A    between atoms: OG1_24  and  CB_28 
REMARK    7  A    between atoms: N_26  and  CA_27 
REMARK    8  A    between atoms: CA_27  and  CB_28 
REMARK    9  A    between atoms: CA_27  and  C_30 
ROOT
HETATM    1  O   UNK A   0       1.939   8.007  87.811  1.00  0.00    -0.388 OA
HETATM    2  N   UNK A   0       4.739   7.514  87.679  1.00  0.00     0.096 N 
HETATM    3  C   UNK A   0       4.203   8.880  87.769  1.00  0.00     0.299 C 
HETATM    4  C   UNK A   0       3.771   6.637  87.005  1.00  0.00     0.299 C 
HETATM    5  C   UNK A   0       2.859   8.860  88.493  1.00  0.00     0.198 C 
HETATM    6  C   UNK A   0       2.439   6.671  87.747  1.00  0.00     0.198 C 
ENDROOT
BRANCH   2   7
HETATM    7  C   UNK A   0       6.022   7.508  86.978  1.00  0.00     0.311 C 
BRANCH   7   8
HETATM    8  C   UNK A   0       7.112   6.901  87.795  1.00  0.00    -0.030 A 
HETATM    9  C   UNK A   0       8.351   6.630  87.212  1.00  0.00     0.010 A 
HETATM   10  C   UNK A   0       9.370   6.061  87.975  1.00  0.00     0.021 A 
HETATM   11  C   UNK A   0       9.151   5.765  89.320  1.00  0.00     0.018 A 
HETATM   12  C   UNK A   0       7.915   6.035  89.903  1.00  0.00     0.021 A 
HETATM   13  C   UNK A   0       6.895   6.604  89.140  1.00  0.00     0.010 A 
BRANCH  11  14
HETATM   14  C   UNK A   0      10.198   5.183  90.102  1.00  0.00    -0.061 C 
HETATM   15  C   UNK A   0      11.078   4.695  90.760  1.00  0.00    -0.061 C 
BRANCH  15  16
HETATM   16  C   UNK A   0      12.124   4.114  91.543  1.00  0.00     0.018 A 
HETATM   17  C   UNK A   0      13.383   3.906  90.979  1.00  0.00     0.022 A 
HETATM   18  C   UNK A   0      14.404   3.342  91.744  1.00  0.00     0.018 A 
HETATM   19  C   UNK A   0      14.144   2.999  93.054  1.00  0.00     0.032 A 
HETATM   20  C   UNK A   0      12.908   3.194  93.634  1.00  0.00     0.018 A 
HETATM   21  C   UNK A   0      11.886   3.758  92.870  1.00  0.00     0.022 A 
BRANCH  19  22
HETATM   22  C   UNK A   0      15.231   2.396  93.867  1.00  0.00     0.252 C 
HETATM   23  O   UNK A   0      16.357   2.886  93.822  1.00  0.00    -0.268 OA
ENDBRANCH  19  22
ENDBRANCH  15  16
ENDBRANCH  11  14
ENDBRANCH   7   8
ENDBRANCH   2   7
TORSDOF 9
ENDMDL
