MODEL 1
REMARK VINA RESULT:      -6.1      0.000      0.000
REMARK  12 active torsions:
REMARK  status: ('A' for Active; 'I' for Inactive)
REMARK    1  A    between atoms: O_2  and  C_16 
REMARK    2  A    between atoms: N_5  and  C_9 
REMARK    3  A    between atoms: N_6  and  C_13 
REMARK       I    between atoms: N_6  and  C_22 
REMARK    4  A    between atoms: C_9  and  C_12 
REMARK    5  A    between atoms: C_13  and  C_16 
REMARK    6  A    between atoms: C_13  and  C_21 
REMARK    7  A    between atoms: C_19  and  C_24 
REMARK    8  A    between atoms: C_21  and  C_33 
REMARK    9  A    between atoms: C_22  and  C_23 
REMARK   10  A    between atoms: C_27  and  C_30 
REMARK   11  A    between atoms: C_33  and  C_34 
REMARK   12  A    between atoms: C_34  and  C_35 
ROOT
HETATM    1  O   UNL     1      16.336   2.803  94.029  1.00  0.00    -0.350 OA
HETATM    2  N   UNL     1      13.961   3.054  92.480  1.00  0.00     0.147 N 
HETATM    3  C   UNL     1      14.527   1.738  92.810  1.00  0.00     0.283 C 
HETATM    4  C   UNL     1      15.030   4.060  92.417  1.00  0.00     0.283 C 
HETATM    5  C   UNL     1      15.300   1.823  94.124  1.00  0.00     0.178 C 
HETATM    6  C   UNL     1      15.791   4.090  93.738  1.00  0.00     0.178 C 
ENDROOT
BRANCH   2   7
HETATM    7  C   UNL     1      13.225   2.998  91.218  1.00  0.00     0.277 C 
BRANCH   7   8
HETATM    8  C   UNL     1      12.052   3.919  91.204  1.00  0.00     0.011 A 
HETATM    9  C   UNL     1      11.472   4.327  92.406  1.00  0.00    -0.002 A 
HETATM   10  C   UNL     1      10.374   5.187  92.394  1.00  0.00     0.008 A 
HETATM   11  C   UNL     1       9.858   5.640  91.180  1.00  0.00     0.042 A 
HETATM   12  C   UNL     1      10.436   5.233  89.979  1.00  0.00     0.008 A 
HETATM   13  C   UNL     1      11.534   4.373  89.991  1.00  0.00    -0.002 A 
BRANCH  11  14
HETATM   14  C   UNL     1       8.733   6.523  91.168  1.00  0.00    -0.059 C 
HETATM   15  C   UNL     1       7.788   7.267  91.158  1.00  0.00    -0.059 C 
BRANCH  15  16
HETATM   16  C   UNL     1       6.664   8.150  91.145  1.00  0.00     0.042 A 
HETATM   17  C   UNL     1       5.671   8.001  90.176  1.00  0.00     0.008 A 
HETATM   18  C   UNL     1       4.574   8.862  90.166  1.00  0.00     0.005 A 
HETATM   19  C   UNL     1       4.493   9.851  91.124  1.00  0.00     0.056 A 
HETATM   20  C   UNL     1       5.461  10.019  92.092  1.00  0.00     0.005 A 
HETATM   21  C   UNL     1       6.559   9.159  92.103  1.00  0.00     0.008 A 
BRANCH  19  22
HETATM   22  C   UNL     1       3.324  10.768  91.111  1.00  0.00     0.254 C 
HETATM   23  O   UNL     1       2.319  10.451  90.480  1.00  0.00    -0.268 OA
HETATM   24  N   UNL     1       3.458  11.933  91.855  1.00  0.00    -0.335 N 
HETATM   25  HN  UNL     1       4.309  12.116  92.372  1.00  0.00     0.164 HD
BRANCH  24  26
HETATM   26  C   UNL     1       2.404  12.910  91.961  1.00  0.00     0.166 C 
BRANCH  26  27
HETATM   27  C   UNL     1       2.334  13.558  93.350  1.00  0.00     0.138 C 
HETATM   28  C   UNL     1       3.710  13.925  93.893  1.00  0.00     0.034 C 
BRANCH  27  29
HETATM   29  O   UNL     1       1.531  14.737  93.286  1.00  0.00    -0.383 OA
HETATM   30  H   UNL     1       1.607  15.109  92.391  1.00  0.00     0.210 HD
ENDBRANCH  27  29
ENDBRANCH  26  27
BRANCH  26  31
HETATM   31  C   UNL     1       2.626  13.954  90.872  1.00  0.00     0.181 C 
HETATM   32  O   UNL     1       1.832  14.866  90.647  1.00  0.00    -0.294 OA
BRANCH  31  33
HETATM   33  C   UNL     1       4.088  14.645  90.989  1.00  0.00     0.138 C 
BRANCH  33  34
HETATM   34  C   UNL     1       4.516  14.607  89.643  1.00  0.00     0.208 C 
HETATM   35  O   UNL     1       5.132  15.572  89.253  1.00  0.00    -0.289 OA
BRANCH  34  36
HETATM   36  C   UNL     1       4.613  13.556  88.773  1.00  0.00     0.194 C 
HETATM   37  O   UNL     1       5.737  12.855  88.323  1.00  0.00    -0.185 OA
ENDBRANCH  34  36
ENDBRANCH  33  34
ENDBRANCH  31  33
ENDBRANCH  26  31
ENDBRANCH  24  26
ENDBRANCH  19  22
ENDBRANCH  15  16
ENDBRANCH  11  14
ENDBRANCH   7   8
ENDBRANCH   2   7
TORSDOF 12
ENDMDL
