MODEL 1
REMARK VINA RESULT:      -7.6      0.000      0.000
REMARK  9 active torsions:
REMARK  status: ('A' for Active; 'I' for Inactive)
REMARK    1  A    between atoms: N_3  and  C_6 
REMARK    2  A    between atoms: C_6  and  C_9 
REMARK    3  A    between atoms: C_14  and  C_17 
REMARK       I    between atoms: N_26  and  C_15 
REMARK    4  A    between atoms: C_15  and  C_16 
REMARK    5  A    between atoms: C_20  and  C_23 
REMARK    6  A    between atoms: OG1_24  and  CB_28 
REMARK    7  A    between atoms: N_26  and  CA_27 
REMARK    8  A    between atoms: CA_27  and  CB_28 
REMARK    9  A    between atoms: CA_27  and  C_30 
ROOT
HETATM    1  O   UNK A   0       1.915   8.018  87.813  1.00  0.00    -0.388 OA
HETATM    2  N   UNK A   0       4.717   7.539  87.674  1.00  0.00     0.096 N 
HETATM    3  C   UNK A   0       4.175   8.901  87.777  1.00  0.00     0.299 C 
HETATM    4  C   UNK A   0       3.752   6.664  86.994  1.00  0.00     0.299 C 
HETATM    5  C   UNK A   0       2.832   8.870  88.503  1.00  0.00     0.198 C 
HETATM    6  C   UNK A   0       2.420   6.685  87.736  1.00  0.00     0.198 C 
ENDROOT
BRANCH   2   7
HETATM    7  C   UNK A   0       5.999   7.544  86.973  1.00  0.00     0.311 C 
BRANCH   7   8
HETATM    8  C   UNK A   0       7.094   6.942  87.786  1.00  0.00    -0.030 A 
HETATM    9  C   UNK A   0       6.881   6.651  89.134  1.00  0.00     0.010 A 
HETATM   10  C   UNK A   0       7.905   6.090  89.897  1.00  0.00     0.021 A 
HETATM   11  C   UNK A   0       9.141   5.818  89.311  1.00  0.00     0.018 A 
HETATM   12  C   UNK A   0       9.355   6.108  87.965  1.00  0.00     0.021 A 
HETATM   13  C   UNK A   0       8.331   6.670  87.202  1.00  0.00     0.010 A 
BRANCH  11  14
HETATM   14  C   UNK A   0      10.191   5.241  90.093  1.00  0.00    -0.061 C 
HETATM   15  C   UNK A   0      11.073   4.756  90.750  1.00  0.00    -0.061 C 
BRANCH  15  16
HETATM   16  C   UNK A   0      12.121   4.179  91.533  1.00  0.00     0.018 A 
HETATM   17  C   UNK A   0      11.897   3.864  92.873  1.00  0.00     0.022 A 
HETATM   18  C   UNK A   0      12.919   3.298  93.635  1.00  0.00     0.018 A 
HETATM   19  C   UNK A   0      14.141   3.060  93.041  1.00  0.00     0.032 A 
HETATM   20  C   UNK A   0      14.387   3.363  91.718  1.00  0.00     0.018 A 
HETATM   21  C   UNK A   0      13.366   3.929  90.955  1.00  0.00     0.022 A 
BRANCH  19  22
HETATM   22  C   UNK A   0      15.230   2.459  93.854  1.00  0.00     0.252 C 
HETATM   23  O   UNK A   0      16.376   2.885  93.729  1.00  0.00    -0.268 OA
ENDBRANCH  19  22
ENDBRANCH  15  16
ENDBRANCH  11  14
ENDBRANCH   7   8
ENDBRANCH   2   7
TORSDOF 9
ENDMDL
MODEL 2
REMARK VINA RESULT:      -7.5      0.089      1.011
REMARK  9 active torsions:
REMARK  status: ('A' for Active; 'I' for Inactive)
REMARK    1  A    between atoms: N_3  and  C_6 
REMARK    2  A    between atoms: C_6  and  C_9 
REMARK    3  A    between atoms: C_14  and  C_17 
REMARK       I    between atoms: N_26  and  C_15 
REMARK    4  A    between atoms: C_15  and  C_16 
REMARK    5  A    between atoms: C_20  and  C_23 
REMARK    6  A    between atoms: OG1_24  and  CB_28 
REMARK    7  A    between atoms: N_26  and  CA_27 
REMARK    8  A    between atoms: CA_27  and  CB_28 
REMARK    9  A    between atoms: CA_27  and  C_30 
ROOT
HETATM    1  O   UNK A   0       1.987   8.172  87.876  1.00  0.00    -0.388 OA
HETATM    2  N   UNK A   0       4.761   7.561  87.690  1.00  0.00     0.096 N 
HETATM    3  C   UNK A   0       4.284   8.949  87.758  1.00  0.00     0.299 C 
HETATM    4  C   UNK A   0       3.742   6.708  87.063  1.00  0.00     0.299 C 
HETATM    5  C   UNK A   0       2.958   9.004  88.514  1.00  0.00     0.198 C 
HETATM    6  C   UNK A   0       2.431   6.815  87.834  1.00  0.00     0.198 C 
ENDROOT
BRANCH   2   7
HETATM    7  C   UNK A   0       6.025   7.484  86.960  1.00  0.00     0.311 C 
BRANCH   7   8
HETATM    8  C   UNK A   0       7.121   6.894  87.782  1.00  0.00    -0.030 A 
HETATM    9  C   UNK A   0       8.336   6.559  87.185  1.00  0.00     0.010 A 
HETATM   10  C   UNK A   0       9.361   6.005  87.952  1.00  0.00     0.021 A 
HETATM   11  C   UNK A   0       9.170   5.789  89.317  1.00  0.00     0.018 A 
HETATM   12  C   UNK A   0       7.957   6.124  89.914  1.00  0.00     0.021 A 
HETATM   13  C   UNK A   0       6.931   6.677  89.147  1.00  0.00     0.010 A 
BRANCH  11  14
HETATM   14  C   UNK A   0      10.222   5.223  90.104  1.00  0.00    -0.061 C 
HETATM   15  C   UNK A   0      11.106   4.747  90.765  1.00  0.00    -0.061 C 
BRANCH  15  16
HETATM   16  C   UNK A   0      12.158   4.181  91.551  1.00  0.00     0.018 A 
HETATM   17  C   UNK A   0      11.931   3.859  92.890  1.00  0.00     0.022 A 
HETATM   18  C   UNK A   0      12.957   3.305  93.656  1.00  0.00     0.018 A 
HETATM   19  C   UNK A   0      14.184   3.085  93.067  1.00  0.00     0.032 A 
HETATM   20  C   UNK A   0      14.433   3.394  91.746  1.00  0.00     0.018 A 
HETATM   21  C   UNK A   0      13.409   3.949  90.979  1.00  0.00     0.022 A 
BRANCH  19  22
HETATM   22  C   UNK A   0      15.277   2.496  93.884  1.00  0.00     0.252 C 
HETATM   23  O   UNK A   0      16.423   2.914  93.742  1.00  0.00    -0.268 OA
ENDBRANCH  19  22
ENDBRANCH  15  16
ENDBRANCH  11  14
ENDBRANCH   7   8
ENDBRANCH   2   7
TORSDOF 9
ENDMDL
MODEL 3
REMARK VINA RESULT:      -7.5      0.491      1.501
REMARK  9 active torsions:
REMARK  status: ('A' for Active; 'I' for Inactive)
REMARK    1  A    between atoms: N_3  and  C_6 
REMARK    2  A    between atoms: C_6  and  C_9 
REMARK    3  A    between atoms: C_14  and  C_17 
REMARK       I    between atoms: N_26  and  C_15 
REMARK    4  A    between atoms: C_15  and  C_16 
REMARK    5  A    between atoms: C_20  and  C_23 
REMARK    6  A    between atoms: OG1_24  and  CB_28 
REMARK    7  A    between atoms: N_26  and  CA_27 
REMARK    8  A    between atoms: CA_27  and  CB_28 
REMARK    9  A    between atoms: CA_27  and  C_30 
ROOT
HETATM    1  O   UNK A   0       1.897   8.914  88.400  1.00  0.00    -0.388 OA
HETATM    2  N   UNK A   0       4.469   7.786  87.939  1.00  0.00     0.096 N 
HETATM    3  C   UNK A   0       4.281   9.236  88.083  1.00  0.00     0.299 C 
HETATM    4  C   UNK A   0       3.252   7.173  87.391  1.00  0.00     0.299 C 
HETATM    5  C   UNK A   0       3.065   9.515  88.963  1.00  0.00     0.198 C 
HETATM    6  C   UNK A   0       2.060   7.500  88.285  1.00  0.00     0.198 C 
ENDROOT
BRANCH   2   7
HETATM    7  C   UNK A   0       5.624   7.496  87.091  1.00  0.00     0.311 C 
BRANCH   7   8
HETATM    8  C   UNK A   0       6.759   6.909  87.858  1.00  0.00    -0.030 A 
HETATM    9  C   UNK A   0       8.030   6.848  87.285  1.00  0.00     0.010 A 
HETATM   10  C   UNK A   0       9.092   6.297  88.001  1.00  0.00     0.021 A 
HETATM   11  C   UNK A   0       8.884   5.809  89.291  1.00  0.00     0.018 A 
HETATM   12  C   UNK A   0       7.615   5.870  89.864  1.00  0.00     0.021 A 
HETATM   13  C   UNK A   0       6.553   6.420  89.148  1.00  0.00     0.010 A 
BRANCH  11  14
HETATM   14  C   UNK A   0       9.974   5.246  90.027  1.00  0.00    -0.061 C 
HETATM   15  C   UNK A   0      10.891   4.772  90.644  1.00  0.00    -0.061 C 
BRANCH  15  16
HETATM   16  C   UNK A   0      11.981   4.210  91.379  1.00  0.00     0.018 A 
HETATM   17  C   UNK A   0      13.227   4.058  90.769  1.00  0.00     0.022 A 
HETATM   18  C   UNK A   0      14.290   3.512  91.487  1.00  0.00     0.018 A 
HETATM   19  C   UNK A   0      14.086   3.132  92.797  1.00  0.00     0.032 A 
HETATM   20  C   UNK A   0      12.864   3.271  93.422  1.00  0.00     0.018 A 
HETATM   21  C   UNK A   0      11.799   3.817  92.705  1.00  0.00     0.022 A 
BRANCH  19  22
HETATM   22  C   UNK A   0      15.219   2.548  93.561  1.00  0.00     0.252 C 
HETATM   23  O   UNK A   0      16.251   3.201  93.695  1.00  0.00    -0.268 OA
ENDBRANCH  19  22
ENDBRANCH  15  16
ENDBRANCH  11  14
ENDBRANCH   7   8
ENDBRANCH   2   7
TORSDOF 9
ENDMDL
MODEL 4
REMARK VINA RESULT:      -7.1      1.076      1.551
REMARK  9 active torsions:
REMARK  status: ('A' for Active; 'I' for Inactive)
REMARK    1  A    between atoms: N_3  and  C_6 
REMARK    2  A    between atoms: C_6  and  C_9 
REMARK    3  A    between atoms: C_14  and  C_17 
REMARK       I    between atoms: N_26  and  C_15 
REMARK    4  A    between atoms: C_15  and  C_16 
REMARK    5  A    between atoms: C_20  and  C_23 
REMARK    6  A    between atoms: OG1_24  and  CB_28 
REMARK    7  A    between atoms: N_26  and  CA_27 
REMARK    8  A    between atoms: CA_27  and  CB_28 
REMARK    9  A    between atoms: CA_27  and  C_30 
ROOT
HETATM    1  O   UNK A   0       1.889   7.092  86.926  1.00  0.00    -0.388 OA
HETATM    2  N   UNK A   0       4.164   7.916  88.425  1.00  0.00     0.096 N 
HETATM    3  C   UNK A   0       2.950   8.741  88.356  1.00  0.00     0.299 C 
HETATM    4  C   UNK A   0       4.299   7.116  87.200  1.00  0.00     0.299 C 
HETATM    5  C   UNK A   0       1.732   7.850  88.127  1.00  0.00     0.198 C 
HETATM    6  C   UNK A   0       3.050   6.264  86.997  1.00  0.00     0.198 C 
ENDROOT
BRANCH   2   7
HETATM    7  C   UNK A   0       5.346   8.750  88.633  1.00  0.00     0.311 C 
BRANCH   7   8
HETATM    8  C   UNK A   0       6.491   7.982  89.200  1.00  0.00    -0.030 A 
HETATM    9  C   UNK A   0       6.310   7.206  90.345  1.00  0.00     0.010 A 
HETATM   10  C   UNK A   0       7.381   6.488  90.878  1.00  0.00     0.021 A 
HETATM   11  C   UNK A   0       8.632   6.546  90.264  1.00  0.00     0.018 A 
HETATM   12  C   UNK A   0       8.814   7.321  89.120  1.00  0.00     0.021 A 
HETATM   13  C   UNK A   0       7.743   8.039  88.588  1.00  0.00     0.010 A 
BRANCH  11  14
HETATM   14  C   UNK A   0       9.730   5.808  90.809  1.00  0.00    -0.061 C 
HETATM   15  C   UNK A   0      10.652   5.188  91.268  1.00  0.00    -0.061 C 
BRANCH  15  16
HETATM   16  C   UNK A   0      11.749   4.450  91.812  1.00  0.00     0.018 A 
HETATM   17  C   UNK A   0      12.834   4.116  91.002  1.00  0.00     0.022 A 
HETATM   18  C   UNK A   0      13.905   3.398  91.534  1.00  0.00     0.018 A 
HETATM   19  C   UNK A   0      13.868   3.032  92.863  1.00  0.00     0.032 A 
HETATM   20  C   UNK A   0      12.807   3.350  93.685  1.00  0.00     0.018 A 
HETATM   21  C   UNK A   0      11.735   4.068  93.154  1.00  0.00     0.022 A 
BRANCH  19  22
HETATM   22  C   UNK A   0      15.008   2.266  93.429  1.00  0.00     0.252 C 
HETATM   23  O   UNK A   0      16.128   2.770  93.430  1.00  0.00    -0.268 OA
ENDBRANCH  19  22
ENDBRANCH  15  16
ENDBRANCH  11  14
ENDBRANCH   7   8
ENDBRANCH   2   7
TORSDOF 9
ENDMDL
MODEL 5
REMARK VINA RESULT:      -6.9      1.465      1.850
REMARK  9 active torsions:
REMARK  status: ('A' for Active; 'I' for Inactive)
REMARK    1  A    between atoms: N_3  and  C_6 
REMARK    2  A    between atoms: C_6  and  C_9 
REMARK    3  A    between atoms: C_14  and  C_17 
REMARK       I    between atoms: N_26  and  C_15 
REMARK    4  A    between atoms: C_15  and  C_16 
REMARK    5  A    between atoms: C_20  and  C_23 
REMARK    6  A    between atoms: OG1_24  and  CB_28 
REMARK    7  A    between atoms: N_26  and  CA_27 
REMARK    8  A    between atoms: CA_27  and  CB_28 
REMARK    9  A    between atoms: CA_27  and  C_30 
ROOT
HETATM    1  O   UNK A   0       2.716  11.106  89.674  1.00  0.00    -0.388 OA
HETATM    2  N   UNK A   0       4.589   9.182  88.730  1.00  0.00     0.096 N 
HETATM    3  C   UNK A   0       3.834  10.037  87.804  1.00  0.00     0.299 C 
HETATM    4  C   UNK A   0       3.813   8.961  89.958  1.00  0.00     0.299 C 
HETATM    5  C   UNK A   0       3.477  11.353  88.490  1.00  0.00     0.198 C 
HETATM    6  C   UNK A   0       3.456  10.301  90.593  1.00  0.00     0.198 C 
ENDROOT
BRANCH   2   7
HETATM    7  C   UNK A   0       4.933   7.910  88.096  1.00  0.00     0.311 C 
BRANCH   7   8
HETATM    8  C   UNK A   0       6.146   7.286  88.697  1.00  0.00    -0.030 A 
HETATM    9  C   UNK A   0       6.012   6.210  89.576  1.00  0.00     0.010 A 
HETATM   10  C   UNK A   0       7.146   5.626  90.141  1.00  0.00     0.021 A 
HETATM   11  C   UNK A   0       8.412   6.117  89.825  1.00  0.00     0.018 A 
HETATM   12  C   UNK A   0       8.547   7.191  88.948  1.00  0.00     0.021 A 
HETATM   13  C   UNK A   0       7.413   7.775  88.383  1.00  0.00     0.010 A 
BRANCH  11  14
HETATM   14  C   UNK A   0       9.575   5.516  90.403  1.00  0.00    -0.061 C 
HETATM   15  C   UNK A   0      10.553   5.012  90.889  1.00  0.00    -0.061 C 
BRANCH  15  16
HETATM   16  C   UNK A   0      11.714   4.412  91.468  1.00  0.00     0.018 A 
HETATM   17  C   UNK A   0      11.682   3.962  92.788  1.00  0.00     0.022 A 
HETATM   18  C   UNK A   0      12.814   3.374  93.351  1.00  0.00     0.018 A 
HETATM   19  C   UNK A   0      13.952   3.249  92.582  1.00  0.00     0.032 A 
HETATM   20  C   UNK A   0      14.010   3.686  91.275  1.00  0.00     0.018 A 
HETATM   21  C   UNK A   0      12.878   4.274  90.711  1.00  0.00     0.022 A 
BRANCH  19  22
HETATM   22  C   UNK A   0      15.159   2.624  93.183  1.00  0.00     0.252 C 
HETATM   23  O   UNK A   0      15.859   3.284  93.946  1.00  0.00    -0.268 OA
ENDBRANCH  19  22
ENDBRANCH  15  16
ENDBRANCH  11  14
ENDBRANCH   7   8
ENDBRANCH   2   7
TORSDOF 9
ENDMDL
MODEL 6
REMARK VINA RESULT:      -6.6      3.965     10.464
REMARK  9 active torsions:
REMARK  status: ('A' for Active; 'I' for Inactive)
REMARK    1  A    between atoms: N_3  and  C_6 
REMARK    2  A    between atoms: C_6  and  C_9 
REMARK    3  A    between atoms: C_14  and  C_17 
REMARK       I    between atoms: N_26  and  C_15 
REMARK    4  A    between atoms: C_15  and  C_16 
REMARK    5  A    between atoms: C_20  and  C_23 
REMARK    6  A    between atoms: OG1_24  and  CB_28 
REMARK    7  A    between atoms: N_26  and  CA_27 
REMARK    8  A    between atoms: CA_27  and  CB_28 
REMARK    9  A    between atoms: CA_27  and  C_30 
ROOT
HETATM    1  O   UNK A   0      14.553   3.319  92.081  1.00  0.00    -0.388 OA
HETATM    2  N   UNK A   0      11.850   4.182  92.300  1.00  0.00     0.096 N 
HETATM    3  C   UNK A   0      12.462   3.312  93.313  1.00  0.00     0.299 C 
HETATM    4  C   UNK A   0      12.481   3.954  90.993  1.00  0.00     0.299 C 
HETATM    5  C   UNK A   0      13.968   3.557  93.363  1.00  0.00     0.198 C 
HETATM    6  C   UNK A   0      13.985   4.183  91.096  1.00  0.00     0.198 C 
ENDROOT
BRANCH   2   7
HETATM    7  C   UNK A   0      10.407   3.957  92.228  1.00  0.00     0.311 C 
BRANCH   7   8
HETATM    8  C   UNK A   0       9.652   5.205  91.919  1.00  0.00    -0.030 A 
HETATM    9  C   UNK A   0       8.654   5.191  90.944  1.00  0.00     0.010 A 
HETATM   10  C   UNK A   0       7.949   6.358  90.652  1.00  0.00     0.021 A 
HETATM   11  C   UNK A   0       8.240   7.537  91.337  1.00  0.00     0.018 A 
HETATM   12  C   UNK A   0       9.236   7.552  92.311  1.00  0.00     0.021 A 
HETATM   13  C   UNK A   0       9.942   6.385  92.602  1.00  0.00     0.010 A 
BRANCH  11  14
HETATM   14  C   UNK A   0       7.515   8.734  91.039  1.00  0.00    -0.061 C 
HETATM   15  C   UNK A   0       6.905   9.740  90.788  1.00  0.00    -0.061 C 
BRANCH  15  16
HETATM   16  C   UNK A   0       6.179  10.935  90.490  1.00  0.00     0.018 A 
HETATM   17  C   UNK A   0       6.358  11.570  89.261  1.00  0.00     0.022 A 
HETATM   18  C   UNK A   0       5.648  12.735  88.969  1.00  0.00     0.018 A 
HETATM   19  C   UNK A   0       4.776  13.237  89.912  1.00  0.00     0.032 A 
HETATM   20  C   UNK A   0       4.582  12.629  91.134  1.00  0.00     0.018 A 
HETATM   21  C   UNK A   0       5.291  11.464  91.427  1.00  0.00     0.022 A 
BRANCH  19  22
HETATM   22  C   UNK A   0       4.021  14.479  89.602  1.00  0.00     0.252 C 
HETATM   23  O   UNK A   0       4.564  15.568  89.768  1.00  0.00    -0.268 OA
ENDBRANCH  19  22
ENDBRANCH  15  16
ENDBRANCH  11  14
ENDBRANCH   7   8
ENDBRANCH   2   7
TORSDOF 9
ENDMDL
MODEL 7
REMARK VINA RESULT:      -6.5      1.859      2.654
REMARK  9 active torsions:
REMARK  status: ('A' for Active; 'I' for Inactive)
REMARK    1  A    between atoms: N_3  and  C_6 
REMARK    2  A    between atoms: C_6  and  C_9 
REMARK    3  A    between atoms: C_14  and  C_17 
REMARK       I    between atoms: N_26  and  C_15 
REMARK    4  A    between atoms: C_15  and  C_16 
REMARK    5  A    between atoms: C_20  and  C_23 
REMARK    6  A    between atoms: OG1_24  and  CB_28 
REMARK    7  A    between atoms: N_26  and  CA_27 
REMARK    8  A    between atoms: CA_27  and  CB_28 
REMARK    9  A    between atoms: CA_27  and  C_30 
ROOT
HETATM    1  O   UNK A   0       3.456  10.739  88.428  1.00  0.00    -0.388 OA
HETATM    2  N   UNK A   0       4.305   8.293  89.610  1.00  0.00     0.096 N 
HETATM    3  C   UNK A   0       2.974   8.431  89.002  1.00  0.00     0.299 C 
HETATM    4  C   UNK A   0       4.762   9.593  90.120  1.00  0.00     0.299 C 
HETATM    5  C   UNK A   0       3.016   9.486  87.900  1.00  0.00     0.198 C 
HETATM    6  C   UNK A   0       4.762  10.621  88.993  1.00  0.00     0.198 C 
ENDROOT
BRANCH   2   7
HETATM    7  C   UNK A   0       4.286   7.293  90.676  1.00  0.00     0.311 C 
BRANCH   7   8
HETATM    8  C   UNK A   0       5.639   6.734  90.955  1.00  0.00    -0.030 A 
HETATM    9  C   UNK A   0       6.211   6.891  92.219  1.00  0.00     0.010 A 
HETATM   10  C   UNK A   0       7.478   6.371  92.480  1.00  0.00     0.021 A 
HETATM   11  C   UNK A   0       8.172   5.692  91.479  1.00  0.00     0.018 A 
HETATM   12  C   UNK A   0       7.602   5.535  90.217  1.00  0.00     0.021 A 
HETATM   13  C   UNK A   0       6.335   6.056  89.955  1.00  0.00     0.010 A 
BRANCH  11  14
HETATM   14  C   UNK A   0       9.471   5.156  91.748  1.00  0.00    -0.061 C 
HETATM   15  C   UNK A   0      10.562   4.705  91.975  1.00  0.00    -0.061 C 
BRANCH  15  16
HETATM   16  C   UNK A   0      11.860   4.169  92.244  1.00  0.00     0.018 A 
HETATM   17  C   UNK A   0      12.860   4.246  91.273  1.00  0.00     0.022 A 
HETATM   18  C   UNK A   0      14.127   3.725  91.537  1.00  0.00     0.018 A 
HETATM   19  C   UNK A   0      14.366   3.141  92.763  1.00  0.00     0.032 A 
HETATM   20  C   UNK A   0      13.395   3.053  93.738  1.00  0.00     0.018 A 
HETATM   21  C   UNK A   0      12.127   3.573  93.476  1.00  0.00     0.022 A 
BRANCH  19  22
HETATM   22  C   UNK A   0      15.715   2.584  93.042  1.00  0.00     0.252 C 
HETATM   23  O   UNK A   0      16.447   3.160  93.844  1.00  0.00    -0.268 OA
ENDBRANCH  19  22
ENDBRANCH  15  16
ENDBRANCH  11  14
ENDBRANCH   7   8
ENDBRANCH   2   7
TORSDOF 9
ENDMDL
MODEL 8
REMARK VINA RESULT:      -6.4      4.882     10.222
REMARK  9 active torsions:
REMARK  status: ('A' for Active; 'I' for Inactive)
REMARK    1  A    between atoms: N_3  and  C_6 
REMARK    2  A    between atoms: C_6  and  C_9 
REMARK    3  A    between atoms: C_14  and  C_17 
REMARK       I    between atoms: N_26  and  C_15 
REMARK    4  A    between atoms: C_15  and  C_16 
REMARK    5  A    between atoms: C_20  and  C_23 
REMARK    6  A    between atoms: OG1_24  and  CB_28 
REMARK    7  A    between atoms: N_26  and  CA_27 
REMARK    8  A    between atoms: CA_27  and  CB_28 
REMARK    9  A    between atoms: CA_27  and  C_30 
ROOT
HETATM    1  O   UNK A   0      11.158   3.868  88.764  1.00  0.00    -0.388 OA
HETATM    2  N   UNK A   0       9.444   5.869  87.684  1.00  0.00     0.096 N 
HETATM    3  C   UNK A   0      10.133   4.899  86.820  1.00  0.00     0.299 C 
HETATM    4  C   UNK A   0      10.232   6.106  88.901  1.00  0.00     0.299 C 
HETATM    5  C   UNK A   0      10.383   3.606  87.592  1.00  0.00     0.198 C 
HETATM    6  C   UNK A   0      10.481   4.786  89.623  1.00  0.00     0.198 C 
ENDROOT
BRANCH   2   7
HETATM    7  C   UNK A   0       9.203   7.120  86.968  1.00  0.00     0.311 C 
BRANCH   7   8
HETATM    8  C   UNK A   0       8.406   8.090  87.772  1.00  0.00    -0.030 A 
HETATM    9  C   UNK A   0       7.086   7.793  88.113  1.00  0.00     0.010 A 
HETATM   10  C   UNK A   0       6.339   8.700  88.863  1.00  0.00     0.021 A 
HETATM   11  C   UNK A   0       6.912   9.903  89.273  1.00  0.00     0.018 A 
HETATM   12  C   UNK A   0       8.230  10.201  88.933  1.00  0.00     0.021 A 
HETATM   13  C   UNK A   0       8.978   9.294  88.182  1.00  0.00     0.010 A 
BRANCH  11  14
HETATM   14  C   UNK A   0       6.146  10.834  90.045  1.00  0.00    -0.061 C 
HETATM   15  C   UNK A   0       5.502  11.615  90.692  1.00  0.00    -0.061 C 
BRANCH  15  16
HETATM   16  C   UNK A   0       4.735  12.544  91.463  1.00  0.00     0.018 A 
HETATM   17  C   UNK A   0       4.275  12.185  92.730  1.00  0.00     0.022 A 
HETATM   18  C   UNK A   0       3.529  13.093  93.482  1.00  0.00     0.018 A 
HETATM   19  C   UNK A   0       3.262  14.338  92.952  1.00  0.00     0.032 A 
HETATM   20  C   UNK A   0       3.706  14.716  91.703  1.00  0.00     0.018 A 
HETATM   21  C   UNK A   0       4.451  13.810  90.949  1.00  0.00     0.022 A 
BRANCH  19  22
HETATM   22  C   UNK A   0       2.466  15.303  93.754  1.00  0.00     0.252 C 
HETATM   23  O   UNK A   0       1.340  15.614  93.373  1.00  0.00    -0.268 OA
ENDBRANCH  19  22
ENDBRANCH  15  16
ENDBRANCH  11  14
ENDBRANCH   7   8
ENDBRANCH   2   7
TORSDOF 9
ENDMDL
MODEL 9
REMARK VINA RESULT:      -6.4      3.797     10.227
REMARK  9 active torsions:
REMARK  status: ('A' for Active; 'I' for Inactive)
REMARK    1  A    between atoms: N_3  and  C_6 
REMARK    2  A    between atoms: C_6  and  C_9 
REMARK    3  A    between atoms: C_14  and  C_17 
REMARK       I    between atoms: N_26  and  C_15 
REMARK    4  A    between atoms: C_15  and  C_16 
REMARK    5  A    between atoms: C_20  and  C_23 
REMARK    6  A    between atoms: OG1_24  and  CB_28 
REMARK    7  A    between atoms: N_26  and  CA_27 
REMARK    8  A    between atoms: CA_27  and  CB_28 
REMARK    9  A    between atoms: CA_27  and  C_30 
ROOT
HETATM    1  O   UNK A   0      14.495   2.998  92.506  1.00  0.00    -0.388 OA
HETATM    2  N   UNK A   0      12.093   3.928  91.293  1.00  0.00     0.096 N 
HETATM    3  C   UNK A   0      12.124   2.691  92.085  1.00  0.00     0.299 C 
HETATM    4  C   UNK A   0      13.407   4.166  90.679  1.00  0.00     0.299 C 
HETATM    5  C   UNK A   0      13.230   2.776  93.133  1.00  0.00     0.198 C 
HETATM    6  C   UNK A   0      14.483   4.215  91.759  1.00  0.00     0.198 C 
ENDROOT
BRANCH   2   7
HETATM    7  C   UNK A   0      11.047   3.865  90.274  1.00  0.00     0.311 C 
BRANCH   7   8
HETATM    8  C   UNK A   0      10.242   5.118  90.207  1.00  0.00    -0.030 A 
HETATM    9  C   UNK A   0       9.698   5.659  91.373  1.00  0.00     0.010 A 
HETATM   10  C   UNK A   0       8.943   6.830  91.312  1.00  0.00     0.021 A 
HETATM   11  C   UNK A   0       8.735   7.461  90.086  1.00  0.00     0.018 A 
HETATM   12  C   UNK A   0       9.278   6.922  88.921  1.00  0.00     0.021 A 
HETATM   13  C   UNK A   0      10.032   5.750  88.982  1.00  0.00     0.010 A 
BRANCH  11  14
HETATM   14  C   UNK A   0       7.962   8.663  90.023  1.00  0.00    -0.061 C 
HETATM   15  C   UNK A   0       7.312   9.674  89.972  1.00  0.00    -0.061 C 
BRANCH  15  16
HETATM   16  C   UNK A   0       6.541  10.876  89.910  1.00  0.00     0.018 A 
HETATM   17  C   UNK A   0       5.523  11.098  90.838  1.00  0.00     0.022 A 
HETATM   18  C   UNK A   0       4.772  12.272  90.780  1.00  0.00     0.018 A 
HETATM   19  C   UNK A   0       5.056  13.197  89.797  1.00  0.00     0.032 A 
HETATM   20  C   UNK A   0       6.056  13.000  88.868  1.00  0.00     0.018 A 
HETATM   21  C   UNK A   0       6.807  11.826  88.925  1.00  0.00     0.022 A 
BRANCH  19  22
HETATM   22  C   UNK A   0       4.254  14.446  89.734  1.00  0.00     0.252 C 
HETATM   23  O   UNK A   0       4.831  15.523  89.603  1.00  0.00    -0.268 OA
ENDBRANCH  19  22
ENDBRANCH  15  16
ENDBRANCH  11  14
ENDBRANCH   7   8
ENDBRANCH   2   7
TORSDOF 9
ENDMDL
