MODEL 1
REMARK VINA RESULT:      -6.9      0.000      0.000
REMARK  10 active torsions:
REMARK  status: ('A' for Active; 'I' for Inactive)
REMARK    1  A    between atoms: O_2  and  C_18 
REMARK    2  A    between atoms: O_5  and  N_8 
REMARK    3  A    between atoms: N_6  and  C_11 
REMARK    4  A    between atoms: N_7  and  C_15 
REMARK       I    between atoms: N_7  and  C_24 
REMARK       I    between atoms: N_8  and  C_23 
REMARK    5  A    between atoms: C_11  and  C_14 
REMARK    6  A    between atoms: C_15  and  C_18 
REMARK    7  A    between atoms: C_15  and  C_23 
REMARK    8  A    between atoms: C_21  and  C_26 
REMARK    9  A    between atoms: C_24  and  C_25 
REMARK   10  A    between atoms: C_29  and  C_32 
ROOT
HETATM    1  O   UNK     0      16.558   4.422  94.123  0.00  0.00    -0.388 OA
HETATM    2  N   UNK     0      14.912   2.712  92.552  0.00  0.00     0.096 N 
HETATM    3  C   UNK     0      14.718   4.169  92.561  0.00  0.00     0.299 C 
HETATM    4  C   UNK     0      15.472   2.271  93.836  0.00  0.00     0.299 C 
HETATM    5  C   UNK     0      16.042   4.864  92.866  0.00  0.00     0.198 C 
HETATM    6  C   UNK     0      16.778   3.011  94.113  0.00  0.00     0.198 C 
ENDROOT
BRANCH   2   7
HETATM    7  C   UNK     0      13.653   2.024  92.272  0.00  0.00     0.311 C 
BRANCH   7   8
HETATM    8  C   UNK     0      12.538   2.973  91.990  0.00  0.00    -0.030 A 
HETATM    9  C   UNK     0      12.423   3.557  90.728  0.00  0.00     0.010 A 
HETATM   10  C   UNK     0      11.382   4.446  90.464  0.00  0.00     0.021 A 
HETATM   11  C   UNK     0      10.454   4.749  91.460  0.00  0.00     0.018 A 
HETATM   12  C   UNK     0      10.568   4.166  92.721  0.00  0.00     0.021 A 
HETATM   13  C   UNK     0      11.609   3.277  92.986  0.00  0.00     0.010 A 
BRANCH  11  14
HETATM   14  C   UNK     0       9.385   5.660  91.188  0.00  0.00    -0.061 C 
HETATM   15  C   UNK     0       8.486   6.425  90.960  0.00  0.00    -0.061 C 
BRANCH  15  16
HETATM   16  C   UNK     0       7.418   7.334  90.689  0.00  0.00     0.018 A 
HETATM   17  C   UNK     0       7.682   8.554  90.064  0.00  0.00     0.022 A 
HETATM   18  C   UNK     0       6.639   9.441  89.798  0.00  0.00     0.018 A 
HETATM   19  C   UNK     0       5.356   9.089  90.161  0.00  0.00     0.032 A 
HETATM   20  C   UNK     0       5.068   7.890  90.780  0.00  0.00     0.018 A 
HETATM   21  C   UNK     0       6.111   7.004  91.047  0.00  0.00     0.022 A 
BRANCH  19  22
HETATM   22  C   UNK     0       4.245  10.035  89.879  0.00  0.00     0.252 C 
HETATM   23  O   UNK     0       3.170   9.595  89.479  0.00  0.00    -0.268 OA
HETATM   24  N   UNK     0       4.512  11.375  90.121  0.00  0.00    -0.341 N 
HETATM   25  H   UNK     0       5.416  11.662  90.477  0.00  0.00     0.163 HD
BRANCH  24  26
HETATM   26  C   UNK     0       3.529  12.410  89.920  0.00  0.00     0.207 C 
BRANCH  26  27
HETATM   27  C   UNK     0       3.161  13.140  91.218  0.00  0.00     0.146 C 
HETATM   28  C   UNK     0       2.366  12.261  92.177  0.00  0.00     0.042 C 
BRANCH  27  29
HETATM   29  O   UNK     0       4.351  13.581  91.871  0.00  0.00    -0.393 OA
HETATM   30  H   UNK     0       4.741  12.823  92.338  0.00  0.00     0.210 HD
ENDBRANCH  27  29
ENDBRANCH  26  27
BRANCH  26  31
HETATM   31  C   UNK     0       4.079  13.377  88.876  0.00  0.00     0.266 C 
HETATM   32  O   UNK     0       4.222  14.580  89.087  0.00  0.00    -0.269 OA
HETATM   33  N   UNK     0       4.352  12.753  87.683  0.00  0.00    -0.236 N 
HETATM   34  H   UNK     0       4.164  11.786  87.447  0.00  0.00     0.197 HD
BRANCH  33  35
HETATM   35  O   UNK     0       4.827  13.581  86.656  0.00  0.00    -0.287 OA
HETATM   36  H   UNK     0       5.220  12.918  86.064  0.00  0.00     0.244 HD
ENDBRANCH  33  35
ENDBRANCH  26  31
ENDBRANCH  24  26
ENDBRANCH  19  22
ENDBRANCH  15  16
ENDBRANCH  11  14
ENDBRANCH   7   8
ENDBRANCH   2   7
TORSDOF 10
ENDMDL
MODEL 2
REMARK VINA RESULT:      -6.2      1.942      2.424
REMARK  10 active torsions:
REMARK  status: ('A' for Active; 'I' for Inactive)
REMARK    1  A    between atoms: O_2  and  C_18 
REMARK    2  A    between atoms: O_5  and  N_8 
REMARK    3  A    between atoms: N_6  and  C_11 
REMARK    4  A    between atoms: N_7  and  C_15 
REMARK       I    between atoms: N_7  and  C_24 
REMARK       I    between atoms: N_8  and  C_23 
REMARK    5  A    between atoms: C_11  and  C_14 
REMARK    6  A    between atoms: C_15  and  C_18 
REMARK    7  A    between atoms: C_15  and  C_23 
REMARK    8  A    between atoms: C_21  and  C_26 
REMARK    9  A    between atoms: C_24  and  C_25 
REMARK   10  A    between atoms: C_29  and  C_32 
ROOT
HETATM    1  O   UNK     0      16.566   4.116  93.975  0.00  0.00    -0.388 OA
HETATM    2  N   UNK     0      14.465   2.615  92.777  0.00  0.00     0.096 N 
HETATM    3  C   UNK     0      14.553   4.073  92.620  0.00  0.00     0.299 C 
HETATM    4  C   UNK     0      15.068   2.209  94.054  0.00  0.00     0.299 C 
HETATM    5  C   UNK     0      16.010   4.517  92.722  0.00  0.00     0.198 C 
HETATM    6  C   UNK     0      16.512   2.697  94.123  0.00  0.00     0.198 C 
ENDROOT
BRANCH   2   7
HETATM    7  C   UNK     0      13.076   2.168  92.694  0.00  0.00     0.311 C 
BRANCH   7   8
HETATM    8  C   UNK     0      12.110   3.304  92.736  0.00  0.00    -0.030 A 
HETATM    9  C   UNK     0      11.418   3.672  91.582  0.00  0.00     0.010 A 
HETATM   10  C   UNK     0      10.517   4.735  91.619  0.00  0.00     0.021 A 
HETATM   11  C   UNK     0      10.306   5.428  92.811  0.00  0.00     0.018 A 
HETATM   12  C   UNK     0      10.997   5.061  93.964  0.00  0.00     0.021 A 
HETATM   13  C   UNK     0      11.899   3.998  93.927  0.00  0.00     0.010 A 
BRANCH  11  14
HETATM   14  C   UNK     0       9.380   6.518  92.850  0.00  0.00    -0.061 C 
HETATM   15  C   UNK     0       8.601   7.433  92.882  0.00  0.00    -0.061 C 
BRANCH  15  16
HETATM   16  C   UNK     0       7.676   8.522  92.919  0.00  0.00     0.018 A 
HETATM   17  C   UNK     0       6.670   8.548  93.886  0.00  0.00     0.022 A 
HETATM   18  C   UNK     0       5.768   9.612  93.924  0.00  0.00     0.018 A 
HETATM   19  C   UNK     0       5.893  10.625  92.997  0.00  0.00     0.032 A 
HETATM   20  C   UNK     0       6.878  10.623  92.032  0.00  0.00     0.018 A 
HETATM   21  C   UNK     0       7.779   9.559  91.992  0.00  0.00     0.022 A 
BRANCH  19  22
HETATM   22  C   UNK     0       4.931  11.757  93.037  0.00  0.00     0.252 C 
HETATM   23  O   UNK     0       4.497  12.138  94.122  0.00  0.00    -0.268 OA
HETATM   24  N   UNK     0       4.609  12.325  91.812  0.00  0.00    -0.341 N 
HETATM   25  H   UNK     0       5.027  11.974  90.958  0.00  0.00     0.163 HD
BRANCH  24  26
HETATM   26  C   UNK     0       3.711  13.445  91.689  0.00  0.00     0.207 C 
BRANCH  26  27
HETATM   27  C   UNK     0       4.327  14.759  92.185  0.00  0.00     0.146 C 
HETATM   28  C   UNK     0       4.852  15.625  91.046  0.00  0.00     0.042 C 
BRANCH  27  29
HETATM   29  O   UNK     0       3.350  15.498  92.917  0.00  0.00    -0.393 OA
HETATM   30  H   UNK     0       2.648  14.885  93.193  0.00  0.00     0.210 HD
ENDBRANCH  27  29
ENDBRANCH  26  27
BRANCH  26  31
HETATM   31  C   UNK     0       3.292  13.547  90.226  0.00  0.00     0.266 C 
HETATM   32  O   UNK     0       2.314  14.192  89.852  0.00  0.00    -0.269 OA
HETATM   33  N   UNK     0       4.107  12.810  89.400  0.00  0.00    -0.236 N 
HETATM   34  H   UNK     0       4.863  12.199  89.683  0.00  0.00     0.197 HD
BRANCH  33  35
HETATM   35  O   UNK     0       3.766  12.820  88.040  0.00  0.00    -0.287 OA
HETATM   36  H   UNK     0       4.508  12.312  87.671  0.00  0.00     0.244 HD
ENDBRANCH  33  35
ENDBRANCH  26  31
ENDBRANCH  24  26
ENDBRANCH  19  22
ENDBRANCH  15  16
ENDBRANCH  11  14
ENDBRANCH   7   8
ENDBRANCH   2   7
TORSDOF 10
ENDMDL
MODEL 3
REMARK VINA RESULT:      -5.2      2.045     12.341
REMARK  10 active torsions:
REMARK  status: ('A' for Active; 'I' for Inactive)
REMARK    1  A    between atoms: O_2  and  C_18 
REMARK    2  A    between atoms: O_5  and  N_8 
REMARK    3  A    between atoms: N_6  and  C_11 
REMARK    4  A    between atoms: N_7  and  C_15 
REMARK       I    between atoms: N_7  and  C_24 
REMARK       I    between atoms: N_8  and  C_23 
REMARK    5  A    between atoms: C_11  and  C_14 
REMARK    6  A    between atoms: C_15  and  C_18 
REMARK    7  A    between atoms: C_15  and  C_23 
REMARK    8  A    between atoms: C_21  and  C_26 
REMARK    9  A    between atoms: C_24  and  C_25 
REMARK   10  A    between atoms: C_29  and  C_32 
ROOT
HETATM    1  O   UNK     0       5.531  14.644  88.672  0.00  0.00    -0.388 OA
HETATM    2  N   UNK     0       3.630  13.144  90.168  0.00  0.00     0.096 N 
HETATM    3  C   UNK     0       4.226  14.377  90.701  0.00  0.00     0.299 C 
HETATM    4  C   UNK     0       4.566  12.492  89.241  0.00  0.00     0.299 C 
HETATM    5  C   UNK     0       4.615  15.302  89.550  0.00  0.00     0.198 C 
HETATM    6  C   UNK     0       4.948  13.461  88.125  0.00  0.00     0.198 C 
ENDROOT
BRANCH   2   7
HETATM    7  C   UNK     0       3.259  12.237  91.253  0.00  0.00     0.311 C 
BRANCH   7   8
HETATM    8  C   UNK     0       4.284  11.180  91.486  0.00  0.00    -0.030 A 
HETATM    9  C   UNK     0       4.176   9.950  90.837  0.00  0.00     0.010 A 
HETATM   10  C   UNK     0       5.133   8.959  91.055  0.00  0.00     0.021 A 
HETATM   11  C   UNK     0       6.199   9.201  91.921  0.00  0.00     0.018 A 
HETATM   12  C   UNK     0       6.309  10.429  92.570  0.00  0.00     0.021 A 
HETATM   13  C   UNK     0       5.351  11.419  92.352  0.00  0.00     0.010 A 
BRANCH  11  14
HETATM   14  C   UNK     0       7.183   8.185  92.144  0.00  0.00    -0.061 C 
HETATM   15  C   UNK     0       8.009   7.332  92.331  0.00  0.00    -0.061 C 
BRANCH  15  16
HETATM   16  C   UNK     0       8.991   6.318  92.552  0.00  0.00     0.018 A 
HETATM   17  C   UNK     0       9.732   6.312  93.735  0.00  0.00     0.022 A 
HETATM   18  C   UNK     0      10.689   5.320  93.952  0.00  0.00     0.018 A 
HETATM   19  C   UNK     0      10.883   4.358  92.984  0.00  0.00     0.032 A 
HETATM   20  C   UNK     0      10.164   4.342  91.807  0.00  0.00     0.018 A 
HETATM   21  C   UNK     0       9.208   5.333  91.589  0.00  0.00     0.022 A 
BRANCH  19  22
HETATM   22  C   UNK     0      11.904   3.303  93.215  0.00  0.00     0.252 C 
HETATM   23  O   UNK     0      11.614   2.129  92.997  0.00  0.00    -0.268 OA
HETATM   24  N   UNK     0      13.147   3.744  93.648  0.00  0.00    -0.341 N 
HETATM   25  H   UNK     0      13.321   4.733  93.783  0.00  0.00     0.163 HD
BRANCH  24  26
HETATM   26  C   UNK     0      14.246   2.846  93.892  0.00  0.00     0.207 C 
BRANCH  26  27
HETATM   27  C   UNK     0      14.345   1.729  92.845  0.00  0.00     0.146 C 
HETATM   28  C   UNK     0      15.085   2.172  91.588  0.00  0.00     0.042 C 
BRANCH  27  29
HETATM   29  O   UNK     0      15.021   0.605  93.408  0.00  0.00    -0.393 OA
HETATM   30  H   UNK     0      15.898   0.539  92.996  0.00  0.00     0.210 HD
ENDBRANCH  27  29
ENDBRANCH  26  27
BRANCH  26  31
HETATM   31  C   UNK     0      15.525   3.677  93.939  0.00  0.00     0.266 C 
HETATM   32  O   UNK     0      16.636   3.185  94.124  0.00  0.00    -0.269 OA
HETATM   33  N   UNK     0      15.277   5.020  93.792  0.00  0.00    -0.236 N 
HETATM   34  H   UNK     0      14.369   5.466  93.728  0.00  0.00     0.197 HD
BRANCH  33  35
HETATM   35  O   UNK     0      16.398   5.859  93.862  0.00  0.00    -0.287 OA
HETATM   36  H   UNK     0      16.258   6.264  94.734  0.00  0.00     0.244 HD
ENDBRANCH  33  35
ENDBRANCH  26  31
ENDBRANCH  24  26
ENDBRANCH  19  22
ENDBRANCH  15  16
ENDBRANCH  11  14
ENDBRANCH   7   8
ENDBRANCH   2   7
TORSDOF 10
ENDMDL
MODEL 4
REMARK VINA RESULT:      -4.6      1.967     12.580
REMARK  10 active torsions:
REMARK  status: ('A' for Active; 'I' for Inactive)
REMARK    1  A    between atoms: O_2  and  C_18 
REMARK    2  A    between atoms: O_5  and  N_8 
REMARK    3  A    between atoms: N_6  and  C_11 
REMARK    4  A    between atoms: N_7  and  C_15 
REMARK       I    between atoms: N_7  and  C_24 
REMARK       I    between atoms: N_8  and  C_23 
REMARK    5  A    between atoms: C_11  and  C_14 
REMARK    6  A    between atoms: C_15  and  C_18 
REMARK    7  A    between atoms: C_15  and  C_23 
REMARK    8  A    between atoms: C_21  and  C_26 
REMARK    9  A    between atoms: C_24  and  C_25 
REMARK   10  A    between atoms: C_29  and  C_32 
ROOT
HETATM    1  O   UNK     0       2.487  13.514  92.156  0.00  0.00    -0.388 OA
HETATM    2  N   UNK     0       3.198  12.517  89.586  0.00  0.00     0.096 N 
HETATM    3  C   UNK     0       3.256  11.666  90.783  0.00  0.00     0.299 C 
HETATM    4  C   UNK     0       3.424  13.920  89.955  0.00  0.00     0.299 C 
HETATM    5  C   UNK     0       2.237  12.151  91.812  0.00  0.00     0.198 C 
HETATM    6  C   UNK     0       2.402  14.352  91.002  0.00  0.00     0.198 C 
ENDROOT
BRANCH   2   7
HETATM    7  C   UNK     0       4.174  12.077  88.591  0.00  0.00     0.311 C 
BRANCH   7   8
HETATM    8  C   UNK     0       5.121  11.061  89.134  0.00  0.00    -0.030 A 
HETATM    9  C   UNK     0       6.349  11.463  89.659  0.00  0.00     0.010 A 
HETATM   10  C   UNK     0       7.236  10.514  90.165  0.00  0.00     0.021 A 
HETATM   11  C   UNK     0       6.893   9.162  90.148  0.00  0.00     0.018 A 
HETATM   12  C   UNK     0       5.666   8.759  89.625  0.00  0.00     0.021 A 
HETATM   13  C   UNK     0       4.779   9.708  89.118  0.00  0.00     0.010 A 
BRANCH  11  14
HETATM   14  C   UNK     0       7.802   8.188  90.670  0.00  0.00    -0.061 C 
HETATM   15  C   UNK     0       8.566   7.369  91.108  0.00  0.00    -0.061 C 
BRANCH  15  16
HETATM   16  C   UNK     0       9.474   6.398  91.629  0.00  0.00     0.018 A 
HETATM   17  C   UNK     0      10.295   5.675  90.761  0.00  0.00     0.022 A 
HETATM   18  C   UNK     0      11.184   4.728  91.269  0.00  0.00     0.018 A 
HETATM   19  C   UNK     0      11.233   4.524  92.632  0.00  0.00     0.032 A 
HETATM   20  C   UNK     0      10.433   5.224  93.511  0.00  0.00     0.018 A 
HETATM   21  C   UNK     0       9.544   6.171  93.003  0.00  0.00     0.022 A 
BRANCH  19  22
HETATM   22  C   UNK     0      12.179   3.513  93.173  0.00  0.00     0.252 C 
HETATM   23  O   UNK     0      11.778   2.372  93.389  0.00  0.00    -0.268 OA
HETATM   24  N   UNK     0      13.482   3.946  93.373  0.00  0.00    -0.341 N 
HETATM   25  H   UNK     0      13.747   4.898  93.147  0.00  0.00     0.163 HD
BRANCH  24  26
HETATM   26  C   UNK     0      14.520   3.078  93.868  0.00  0.00     0.207 C 
BRANCH  26  27
HETATM   27  C   UNK     0      14.627   1.768  93.077  0.00  0.00     0.146 C 
HETATM   28  C   UNK     0      15.606   1.867  91.913  0.00  0.00     0.042 C 
BRANCH  27  29
HETATM   29  O   UNK     0      15.046   0.717  93.947  0.00  0.00    -0.393 OA
HETATM   30  H   UNK     0      14.889   1.000  94.864  0.00  0.00     0.210 HD
ENDBRANCH  27  29
ENDBRANCH  26  27
BRANCH  26  31
HETATM   31  C   UNK     0      15.833   3.854  93.834  0.00  0.00     0.266 C 
HETATM   32  O   UNK     0      15.897   5.048  93.548  0.00  0.00    -0.269 OA
HETATM   33  N   UNK     0      16.915   3.057  94.120  0.00  0.00    -0.236 N 
HETATM   34  H   UNK     0      16.907   2.055  94.271  0.00  0.00     0.197 HD
BRANCH  33  35
HETATM   35  O   UNK     0      18.166   3.688  94.072  0.00  0.00    -0.287 OA
HETATM   36  H   UNK     0      18.153   4.165  94.919  0.00  0.00     0.244 HD
ENDBRANCH  33  35
ENDBRANCH  26  31
ENDBRANCH  24  26
ENDBRANCH  19  22
ENDBRANCH  15  16
ENDBRANCH  11  14
ENDBRANCH   7   8
ENDBRANCH   2   7
TORSDOF 10
ENDMDL
MODEL 5
REMARK VINA RESULT:      -4.6      2.494     12.503
REMARK  10 active torsions:
REMARK  status: ('A' for Active; 'I' for Inactive)
REMARK    1  A    between atoms: O_2  and  C_18 
REMARK    2  A    between atoms: O_5  and  N_8 
REMARK    3  A    between atoms: N_6  and  C_11 
REMARK    4  A    between atoms: N_7  and  C_15 
REMARK       I    between atoms: N_7  and  C_24 
REMARK       I    between atoms: N_8  and  C_23 
REMARK    5  A    between atoms: C_11  and  C_14 
REMARK    6  A    between atoms: C_15  and  C_18 
REMARK    7  A    between atoms: C_15  and  C_23 
REMARK    8  A    between atoms: C_21  and  C_26 
REMARK    9  A    between atoms: C_24  and  C_25 
REMARK   10  A    between atoms: C_29  and  C_32 
ROOT
HETATM    1  O   UNK     0       3.977  14.626  90.054  0.00  0.00    -0.388 OA
HETATM    2  N   UNK     0       2.865  13.698  92.504  0.00  0.00     0.096 N 
HETATM    3  C   UNK     0       4.056  14.558  92.478  0.00  0.00     0.299 C 
HETATM    4  C   UNK     0       2.799  12.893  91.277  0.00  0.00     0.299 C 
HETATM    5  C   UNK     0       4.033  15.436  91.230  0.00  0.00     0.198 C 
HETATM    6  C   UNK     0       2.806  13.809  90.056  0.00  0.00     0.198 C 
ENDROOT
BRANCH   2   7
HETATM    7  C   UNK     0       2.872  12.840  93.688  0.00  0.00     0.311 C 
BRANCH   7   8
HETATM    8  C   UNK     0       3.896  11.760  93.601  0.00  0.00    -0.030 A 
HETATM    9  C   UNK     0       3.538  10.497  93.127  0.00  0.00     0.010 A 
HETATM   10  C   UNK     0       4.495   9.485  93.048  0.00  0.00     0.021 A 
HETATM   11  C   UNK     0       5.810   9.738  93.440  0.00  0.00     0.018 A 
HETATM   12  C   UNK     0       6.168  10.998  93.912  0.00  0.00     0.021 A 
HETATM   13  C   UNK     0       5.211  12.010  93.993  0.00  0.00     0.010 A 
BRANCH  11  14
HETATM   14  C   UNK     0       6.791   8.701  93.356  0.00  0.00    -0.061 C 
HETATM   15  C   UNK     0       7.616   7.829  93.285  0.00  0.00    -0.061 C 
BRANCH  15  16
HETATM   16  C   UNK     0       8.596   6.792  93.202  0.00  0.00     0.018 A 
HETATM   17  C   UNK     0       9.670   6.775  94.093  0.00  0.00     0.022 A 
HETATM   18  C   UNK     0      10.625   5.762  94.014  0.00  0.00     0.018 A 
HETATM   19  C   UNK     0      10.486   4.789  93.046  0.00  0.00     0.032 A 
HETATM   20  C   UNK     0       9.435   4.783  92.154  0.00  0.00     0.018 A 
HETATM   21  C   UNK     0       8.480   5.796  92.232  0.00  0.00     0.022 A 
BRANCH  19  22
HETATM   22  C   UNK     0      11.506   3.711  92.961  0.00  0.00     0.252 C 
HETATM   23  O   UNK     0      11.175   2.604  92.543  0.00  0.00    -0.268 OA
HETATM   24  N   UNK     0      12.792   4.059  93.349  0.00  0.00    -0.341 N 
HETATM   25  H   UNK     0      12.997   5.001  93.661  0.00  0.00     0.163 HD
BRANCH  24  26
HETATM   26  C   UNK     0      13.894   3.132  93.301  0.00  0.00     0.207 C 
BRANCH  26  27
HETATM   27  C   UNK     0      14.066   2.486  91.920  0.00  0.00     0.146 C 
HETATM   28  C   UNK     0      14.249   3.517  90.812  0.00  0.00     0.042 C 
BRANCH  27  29
HETATM   29  O   UNK     0      15.198   1.617  91.937  0.00  0.00    -0.393 OA
HETATM   30  H   UNK     0      15.468   1.450  91.018  0.00  0.00     0.210 HD
ENDBRANCH  27  29
ENDBRANCH  26  27
BRANCH  26  31
HETATM   31  C   UNK     0      15.153   3.882  93.722  0.00  0.00     0.266 C 
HETATM   32  O   UNK     0      15.169   5.091  93.946  0.00  0.00    -0.269 OA
HETATM   33  N   UNK     0      16.252   3.060  93.780  0.00  0.00    -0.236 N 
HETATM   34  H   UNK     0      16.294   2.082  93.516  0.00  0.00     0.197 HD
BRANCH  33  35
HETATM   35  O   UNK     0      17.461   3.681  94.124  0.00  0.00    -0.287 OA
HETATM   36  H   UNK     0      17.347   4.541  93.683  0.00  0.00     0.244 HD
ENDBRANCH  33  35
ENDBRANCH  26  31
ENDBRANCH  24  26
ENDBRANCH  19  22
ENDBRANCH  15  16
ENDBRANCH  11  14
ENDBRANCH   7   8
ENDBRANCH   2   7
TORSDOF 10
ENDMDL
MODEL 6
REMARK VINA RESULT:      -4.1      1.906      2.305
REMARK  10 active torsions:
REMARK  status: ('A' for Active; 'I' for Inactive)
REMARK    1  A    between atoms: O_2  and  C_18 
REMARK    2  A    between atoms: O_5  and  N_8 
REMARK    3  A    between atoms: N_6  and  C_11 
REMARK    4  A    between atoms: N_7  and  C_15 
REMARK       I    between atoms: N_7  and  C_24 
REMARK       I    between atoms: N_8  and  C_23 
REMARK    5  A    between atoms: C_11  and  C_14 
REMARK    6  A    between atoms: C_15  and  C_18 
REMARK    7  A    between atoms: C_15  and  C_23 
REMARK    8  A    between atoms: C_21  and  C_26 
REMARK    9  A    between atoms: C_24  and  C_25 
REMARK   10  A    between atoms: C_29  and  C_32 
ROOT
HETATM    1  O   UNK     0      15.485   4.066  91.429  0.00  0.00    -0.388 OA
HETATM    2  N   UNK     0      13.290   2.606  92.501  0.00  0.00     0.096 N 
HETATM    3  C   UNK     0      13.091   3.678  91.516  0.00  0.00     0.299 C 
HETATM    4  C   UNK     0      14.498   2.868  93.294  0.00  0.00     0.299 C 
HETATM    5  C   UNK     0      14.329   3.803  90.632  0.00  0.00     0.198 C 
HETATM    6  C   UNK     0      15.703   3.013  92.368  0.00  0.00     0.198 C 
ENDROOT
BRANCH   2   7
HETATM    7  C   UNK     0      12.119   2.475  93.367  0.00  0.00     0.311 C 
BRANCH   7   8
HETATM    8  C   UNK     0      11.081   3.505  93.078  0.00  0.00    -0.030 A 
HETATM    9  C   UNK     0      10.159   3.296  92.052  0.00  0.00     0.010 A 
HETATM   10  C   UNK     0       9.189   4.260  91.779  0.00  0.00     0.021 A 
HETATM   11  C   UNK     0       9.140   5.432  92.535  0.00  0.00     0.018 A 
HETATM   12  C   UNK     0      10.060   5.641  93.560  0.00  0.00     0.021 A 
HETATM   13  C   UNK     0      11.031   4.677  93.832  0.00  0.00     0.010 A 
BRANCH  11  14
HETATM   14  C   UNK     0       8.143   6.420  92.256  0.00  0.00    -0.061 C 
HETATM   15  C   UNK     0       7.306   7.250  92.023  0.00  0.00    -0.061 C 
BRANCH  15  16
HETATM   16  C   UNK     0       6.309   8.236  91.746  0.00  0.00     0.018 A 
HETATM   17  C   UNK     0       6.683   9.565  91.539  0.00  0.00     0.022 A 
HETATM   18  C   UNK     0       5.710  10.527  91.266  0.00  0.00     0.018 A 
HETATM   19  C   UNK     0       4.388  10.140  91.206  0.00  0.00     0.032 A 
HETATM   20  C   UNK     0       3.993   8.834  91.407  0.00  0.00     0.018 A 
HETATM   21  C   UNK     0       4.965   7.872  91.680  0.00  0.00     0.022 A 
BRANCH  19  22
HETATM   22  C   UNK     0       3.353  11.166  90.917  0.00  0.00     0.252 C 
HETATM   23  O   UNK     0       2.704  11.088  89.877  0.00  0.00    -0.268 OA
HETATM   24  N   UNK     0       3.181  12.146  91.886  0.00  0.00    -0.341 N 
HETATM   25  H   UNK     0       3.737  12.133  92.733  0.00  0.00     0.163 HD
BRANCH  24  26
HETATM   26  C   UNK     0       2.200  13.194  91.763  0.00  0.00     0.207 C 
BRANCH  26  27
HETATM   27  C   UNK     0       1.871  13.860  93.105  0.00  0.00     0.146 C 
HETATM   28  C   UNK     0       3.013  13.746  94.108  0.00  0.00     0.042 C 
BRANCH  27  29
HETATM   29  O   UNK     0       1.576  15.240  92.893  0.00  0.00    -0.393 OA
HETATM   30  H   UNK     0       2.414  15.732  92.876  0.00  0.00     0.210 HD
ENDBRANCH  27  29
ENDBRANCH  26  27
BRANCH  26  31
HETATM   31  C   UNK     0       2.728  14.210  90.755  0.00  0.00     0.266 C 
HETATM   32  O   UNK     0       2.109  14.535  89.744  0.00  0.00    -0.269 OA
HETATM   33  N   UNK     0       3.976  14.677  91.093  0.00  0.00    -0.236 N 
HETATM   34  H   UNK     0       4.550  14.365  91.867  0.00  0.00     0.197 HD
BRANCH  33  35
HETATM   35  O   UNK     0       4.550  15.588  90.196  0.00  0.00    -0.287 OA
HETATM   36  H   UNK     0       4.780  14.991  89.464  0.00  0.00     0.244 HD
ENDBRANCH  33  35
ENDBRANCH  26  31
ENDBRANCH  24  26
ENDBRANCH  19  22
ENDBRANCH  15  16
ENDBRANCH  11  14
ENDBRANCH   7   8
ENDBRANCH   2   7
TORSDOF 10
ENDMDL
MODEL 7
REMARK VINA RESULT:      -4.0      2.191      3.181
REMARK  10 active torsions:
REMARK  status: ('A' for Active; 'I' for Inactive)
REMARK    1  A    between atoms: O_2  and  C_18 
REMARK    2  A    between atoms: O_5  and  N_8 
REMARK    3  A    between atoms: N_6  and  C_11 
REMARK    4  A    between atoms: N_7  and  C_15 
REMARK       I    between atoms: N_7  and  C_24 
REMARK       I    between atoms: N_8  and  C_23 
REMARK    5  A    between atoms: C_11  and  C_14 
REMARK    6  A    between atoms: C_15  and  C_18 
REMARK    7  A    between atoms: C_15  and  C_23 
REMARK    8  A    between atoms: C_21  and  C_26 
REMARK    9  A    between atoms: C_24  and  C_25 
REMARK   10  A    between atoms: C_29  and  C_32 
ROOT
HETATM    1  O   UNK     0      16.738   2.511  92.757  0.00  0.00    -0.388 OA
HETATM    2  N   UNK     0      13.957   2.934  93.188  0.00  0.00     0.096 N 
HETATM    3  C   UNK     0      14.767   2.142  94.124  0.00  0.00     0.299 C 
HETATM    4  C   UNK     0      14.519   2.844  91.834  0.00  0.00     0.299 C 
HETATM    5  C   UNK     0      16.217   2.619  94.083  0.00  0.00     0.198 C 
HETATM    6  C   UNK     0      15.975   3.303  91.847  0.00  0.00     0.198 C 
ENDROOT
BRANCH   2   7
HETATM    7  C   UNK     0      12.565   2.488  93.203  0.00  0.00     0.311 C 
BRANCH   7   8
HETATM    8  C   UNK     0      11.604   3.620  93.070  0.00  0.00    -0.030 A 
HETATM    9  C   UNK     0      11.486   4.558  94.096  0.00  0.00     0.010 A 
HETATM   10  C   UNK     0      10.586   5.616  93.974  0.00  0.00     0.021 A 
HETATM   11  C   UNK     0       9.806   5.736  92.825  0.00  0.00     0.018 A 
HETATM   12  C   UNK     0       9.922   4.801  91.799  0.00  0.00     0.021 A 
HETATM   13  C   UNK     0      10.822   3.742  91.921  0.00  0.00     0.010 A 
BRANCH  11  14
HETATM   14  C   UNK     0       8.884   6.823  92.699  0.00  0.00    -0.061 C 
HETATM   15  C   UNK     0       8.108   7.736  92.593  0.00  0.00    -0.061 C 
BRANCH  15  16
HETATM   16  C   UNK     0       7.187   8.821  92.465  0.00  0.00     0.018 A 
HETATM   17  C   UNK     0       6.164   8.980  93.401  0.00  0.00     0.022 A 
HETATM   18  C   UNK     0       5.266  10.040  93.278  0.00  0.00     0.018 A 
HETATM   19  C   UNK     0       5.411  10.918  92.224  0.00  0.00     0.032 A 
HETATM   20  C   UNK     0       6.413  10.783  91.286  0.00  0.00     0.018 A 
HETATM   21  C   UNK     0       7.310   9.722  91.408  0.00  0.00     0.022 A 
BRANCH  19  22
HETATM   22  C   UNK     0       4.453  12.046  92.093  0.00  0.00     0.252 C 
HETATM   23  O   UNK     0       3.372  11.986  92.674  0.00  0.00    -0.268 OA
HETATM   24  N   UNK     0       4.878  13.118  91.321  0.00  0.00    -0.341 N 
HETATM   25  H   UNK     0       5.796  13.109  90.891  0.00  0.00     0.163 HD
BRANCH  24  26
HETATM   26  C   UNK     0       4.073  14.296  91.119  0.00  0.00     0.207 C 
BRANCH  26  27
HETATM   27  C   UNK     0       2.886  14.050  90.179  0.00  0.00     0.146 C 
HETATM   28  C   UNK     0       3.111  12.857  89.256  0.00  0.00     0.042 C 
BRANCH  27  29
HETATM   29  O   UNK     0       1.706  13.824  90.949  0.00  0.00    -0.393 OA
HETATM   30  H   UNK     0       1.217  14.661  91.011  0.00  0.00     0.210 HD
ENDBRANCH  27  29
ENDBRANCH  26  27
BRANCH  26  31
HETATM   31  C   UNK     0       3.605  14.781  92.487  0.00  0.00     0.266 C 
HETATM   32  O   UNK     0       4.372  15.237  93.334  0.00  0.00    -0.269 OA
HETATM   33  N   UNK     0       2.254  14.611  92.664  0.00  0.00    -0.236 N 
HETATM   34  H   UNK     0       1.610  14.159  92.025  0.00  0.00     0.197 HD
BRANCH  33  35
HETATM   35  O   UNK     0       1.748  14.998  93.913  0.00  0.00    -0.287 OA
HETATM   36  H   UNK     0       1.011  14.371  94.005  0.00  0.00     0.244 HD
ENDBRANCH  33  35
ENDBRANCH  26  31
ENDBRANCH  24  26
ENDBRANCH  19  22
ENDBRANCH  15  16
ENDBRANCH  11  14
ENDBRANCH   7   8
ENDBRANCH   2   7
TORSDOF 10
ENDMDL
