MODEL 1
REMARK VINA RESULT:      -6.0      0.000      0.000
REMARK  12 active torsions:
REMARK  status: ('A' for Active; 'I' for Inactive)
REMARK    1  A    between atoms: O_2  and  C_16 
REMARK    2  A    between atoms: N_5  and  C_9 
REMARK    3  A    between atoms: N_6  and  C_13 
REMARK       I    between atoms: N_6  and  C_22 
REMARK    4  A    between atoms: C_9  and  C_12 
REMARK    5  A    between atoms: C_13  and  C_16 
REMARK    6  A    between atoms: C_13  and  C_21 
REMARK    7  A    between atoms: C_19  and  C_24 
REMARK    8  A    between atoms: C_21  and  C_33 
REMARK    9  A    between atoms: C_22  and  C_23 
REMARK   10  A    between atoms: C_27  and  C_30 
REMARK   11  A    between atoms: C_33  and  C_34 
REMARK   12  A    between atoms: C_34  and  C_35 
ROOT
HETATM    1  O   UNL     1      16.610   3.201  93.990  1.00  0.00    -0.350 OA
HETATM    2  N   UNL     1      14.123   3.025  92.617  1.00  0.00     0.147 N 
HETATM    3  C   UNL     1      14.949   1.836  92.864  1.00  0.00     0.283 C 
HETATM    4  C   UNL     1      14.976   4.218  92.514  1.00  0.00     0.283 C 
HETATM    5  C   UNL     1      15.787   2.041  94.124  1.00  0.00     0.178 C 
HETATM    6  C   UNL     1      15.813   4.367  93.780  1.00  0.00     0.178 C 
ENDROOT
BRANCH   2   7
HETATM    7  C   UNL     1      13.319   2.855  91.408  1.00  0.00     0.277 C 
BRANCH   7   8
HETATM    8  C   UNL     1      12.123   3.745  91.391  1.00  0.00     0.011 A 
HETATM    9  C   UNL     1      11.655   4.260  90.182  1.00  0.00    -0.002 A 
HETATM   10  C   UNL     1      10.537   5.094  90.166  1.00  0.00     0.008 A 
HETATM   11  C   UNL     1       9.887   5.410  91.358  1.00  0.00     0.042 A 
HETATM   12  C   UNL     1      10.353   4.896  92.566  1.00  0.00     0.008 A 
HETATM   13  C   UNL     1      11.471   4.063  92.583  1.00  0.00    -0.002 A 
BRANCH  11  14
HETATM   14  C   UNL     1       8.739   6.264  91.341  1.00  0.00    -0.059 C 
HETATM   15  C   UNL     1       7.774   6.982  91.327  1.00  0.00    -0.059 C 
BRANCH  15  16
HETATM   16  C   UNL     1       6.628   7.836  91.309  1.00  0.00     0.042 A 
HETATM   17  C   UNL     1       5.545   7.531  90.483  1.00  0.00     0.008 A 
HETATM   18  C   UNL     1       4.426   8.363  90.468  1.00  0.00     0.005 A 
HETATM   19  C   UNL     1       4.413   9.478  91.279  1.00  0.00     0.056 A 
HETATM   20  C   UNL     1       5.470   9.801  92.104  1.00  0.00     0.005 A 
HETATM   21  C   UNL     1       6.590   8.970  92.120  1.00  0.00     0.008 A 
BRANCH  19  22
HETATM   22  C   UNL     1       3.221  10.365  91.261  1.00  0.00     0.254 C 
HETATM   23  O   UNL     1       2.110   9.874  91.073  1.00  0.00    -0.268 OA
HETATM   24  N   UNL     1       3.462  11.713  91.489  1.00  0.00    -0.335 N 
HETATM   25  HN  UNL     1       4.404  12.043  91.663  1.00  0.00     0.164 HD
BRANCH  24  26
HETATM   26  C   UNL     1       2.407  12.694  91.527  1.00  0.00     0.166 C 
BRANCH  26  27
HETATM   27  C   UNL     1       2.255  13.349  92.906  1.00  0.00     0.138 C 
HETATM   28  C   UNL     1       3.596  13.584  93.592  1.00  0.00     0.034 C 
BRANCH  27  29
HETATM   29  O   UNL     1       1.579  14.599  92.768  1.00  0.00    -0.383 OA
HETATM   30  H   UNL     1       0.653  14.420  92.534  1.00  0.00     0.210 HD
ENDBRANCH  27  29
ENDBRANCH  26  27
BRANCH  26  31
HETATM   31  C   UNL     1       2.698  13.732  90.449  1.00  0.00     0.181 C 
HETATM   32  O   UNL     1       2.059  14.777  90.335  1.00  0.00    -0.294 OA
BRANCH  31  33
HETATM   33  C   UNL     1       4.263  14.154  90.426  1.00  0.00     0.138 C 
BRANCH  33  34
HETATM   34  C   UNL     1       4.543  14.090  89.043  1.00  0.00     0.208 C 
HETATM   35  O   UNL     1       4.954  15.108  88.535  1.00  0.00    -0.289 OA
BRANCH  34  36
HETATM   36  C   UNL     1       4.707  13.009  88.220  1.00  0.00     0.194 C 
HETATM   37  O   UNL     1       4.798  11.646  88.525  1.00  0.00    -0.185 OA
ENDBRANCH  34  36
ENDBRANCH  33  34
ENDBRANCH  31  33
ENDBRANCH  26  31
ENDBRANCH  24  26
ENDBRANCH  19  22
ENDBRANCH  15  16
ENDBRANCH  11  14
ENDBRANCH   7   8
ENDBRANCH   2   7
TORSDOF 12
ENDMDL
MODEL 2
REMARK VINA RESULT:      -5.8      1.251      1.888
REMARK  12 active torsions:
REMARK  status: ('A' for Active; 'I' for Inactive)
REMARK    1  A    between atoms: O_2  and  C_16 
REMARK    2  A    between atoms: N_5  and  C_9 
REMARK    3  A    between atoms: N_6  and  C_13 
REMARK       I    between atoms: N_6  and  C_22 
REMARK    4  A    between atoms: C_9  and  C_12 
REMARK    5  A    between atoms: C_13  and  C_16 
REMARK    6  A    between atoms: C_13  and  C_21 
REMARK    7  A    between atoms: C_19  and  C_24 
REMARK    8  A    between atoms: C_21  and  C_33 
REMARK    9  A    between atoms: C_22  and  C_23 
REMARK   10  A    between atoms: C_27  and  C_30 
REMARK   11  A    between atoms: C_33  and  C_34 
REMARK   12  A    between atoms: C_34  and  C_35 
ROOT
HETATM    1  O   UNL     1      16.120   4.135  94.078  1.00  0.00    -0.350 OA
HETATM    2  N   UNL     1      14.329   2.549  92.535  1.00  0.00     0.147 N 
HETATM    3  C   UNL     1      14.290   4.017  92.488  1.00  0.00     0.283 C 
HETATM    4  C   UNL     1      14.819   2.100  93.845  1.00  0.00     0.283 C 
HETATM    5  C   UNL     1      15.674   4.582  92.796  1.00  0.00     0.178 C 
HETATM    6  C   UNL     1      16.190   2.709  94.121  1.00  0.00     0.178 C 
ENDROOT
BRANCH   2   7
HETATM    7  C   UNL     1      13.009   1.987  92.253  1.00  0.00     0.277 C 
BRANCH   7   8
HETATM    8  C   UNL     1      11.942   3.027  92.228  1.00  0.00     0.011 A 
HETATM    9  C   UNL     1      11.692   3.796  93.365  1.00  0.00    -0.002 A 
HETATM   10  C   UNL     1      10.692   4.769  93.344  1.00  0.00     0.008 A 
HETATM   11  C   UNL     1       9.945   4.973  92.184  1.00  0.00     0.042 A 
HETATM   12  C   UNL     1      10.194   4.206  91.048  1.00  0.00     0.008 A 
HETATM   13  C   UNL     1      11.193   3.233  91.069  1.00  0.00    -0.002 A 
BRANCH  11  14
HETATM   14  C   UNL     1       8.921   5.972  92.161  1.00  0.00    -0.059 C 
HETATM   15  C   UNL     1       8.061   6.812  92.142  1.00  0.00    -0.059 C 
BRANCH  15  16
HETATM   16  C   UNL     1       7.038   7.811  92.119  1.00  0.00     0.042 A 
HETATM   17  C   UNL     1       7.343   9.128  92.461  1.00  0.00     0.008 A 
HETATM   18  C   UNL     1       6.345  10.103  92.435  1.00  0.00     0.005 A 
HETATM   19  C   UNL     1       5.067   9.739  92.067  1.00  0.00     0.056 A 
HETATM   20  C   UNL     1       4.740   8.443  91.725  1.00  0.00     0.005 A 
HETATM   21  C   UNL     1       5.737   7.468  91.750  1.00  0.00     0.008 A 
BRANCH  19  22
HETATM   22  C   UNL     1       4.004  10.777  92.042  1.00  0.00     0.254 C 
HETATM   23  O   UNL     1       2.869  10.482  92.407  1.00  0.00    -0.268 OA
HETATM   24  N   UNL     1       4.397  12.039  91.619  1.00  0.00    -0.335 N 
HETATM   25  HN  UNL     1       5.359  12.215  91.356  1.00  0.00     0.164 HD
BRANCH  24  26
HETATM   26  C   UNL     1       3.488  13.156  91.562  1.00  0.00     0.166 C 
BRANCH  26  27
HETATM   27  C   UNL     1       3.514  14.007  92.838  1.00  0.00     0.138 C 
HETATM   28  C   UNL     1       2.341  13.705  93.765  1.00  0.00     0.034 C 
BRANCH  27  29
HETATM   29  O   UNL     1       4.733  13.774  93.543  1.00  0.00    -0.383 OA
HETATM   30  H   UNL     1       4.690  12.889  93.942  1.00  0.00     0.210 HD
ENDBRANCH  27  29
ENDBRANCH  26  27
BRANCH  26  31
HETATM   31  C   UNL     1       3.847  13.986  90.334  1.00  0.00     0.181 C 
HETATM   32  O   UNL     1       4.017  15.203  90.375  1.00  0.00    -0.294 OA
BRANCH  31  33
HETATM   33  C   UNL     1       5.127  13.377  89.548  1.00  0.00     0.138 C 
BRANCH  33  34
HETATM   34  C   UNL     1       4.526  12.937  88.348  1.00  0.00     0.208 C 
HETATM   35  O   UNL     1       4.935  13.446  87.329  1.00  0.00    -0.289 OA
BRANCH  34  36
HETATM   36  C   UNL     1       3.761  11.832  88.092  1.00  0.00     0.194 C 
HETATM   37  O   UNL     1       3.042  11.008  88.965  1.00  0.00    -0.185 OA
ENDBRANCH  34  36
ENDBRANCH  33  34
ENDBRANCH  31  33
ENDBRANCH  26  31
ENDBRANCH  24  26
ENDBRANCH  19  22
ENDBRANCH  15  16
ENDBRANCH  11  14
ENDBRANCH   7   8
ENDBRANCH   2   7
TORSDOF 12
ENDMDL
MODEL 3
REMARK VINA RESULT:      -4.5      1.309      2.883
REMARK  12 active torsions:
REMARK  status: ('A' for Active; 'I' for Inactive)
REMARK    1  A    between atoms: O_2  and  C_16 
REMARK    2  A    between atoms: N_5  and  C_9 
REMARK    3  A    between atoms: N_6  and  C_13 
REMARK       I    between atoms: N_6  and  C_22 
REMARK    4  A    between atoms: C_9  and  C_12 
REMARK    5  A    between atoms: C_13  and  C_16 
REMARK    6  A    between atoms: C_13  and  C_21 
REMARK    7  A    between atoms: C_19  and  C_24 
REMARK    8  A    between atoms: C_21  and  C_33 
REMARK    9  A    between atoms: C_22  and  C_23 
REMARK   10  A    between atoms: C_27  and  C_30 
REMARK   11  A    between atoms: C_33  and  C_34 
REMARK   12  A    between atoms: C_34  and  C_35 
ROOT
HETATM    1  O   UNL     1      17.018   3.932  93.842  1.00  0.00    -0.350 OA
HETATM    2  N   UNL     1      14.403   2.992  93.221  1.00  0.00     0.147 N 
HETATM    3  C   UNL     1      15.576   2.109  93.142  1.00  0.00     0.283 C 
HETATM    4  C   UNL     1      14.802   4.383  92.962  1.00  0.00     0.283 C 
HETATM    5  C   UNL     1      16.645   2.581  94.124  1.00  0.00     0.178 C 
HETATM    6  C   UNL     1      15.890   4.801  93.946  1.00  0.00     0.178 C 
ENDROOT
BRANCH   2   7
HETATM    7  C   UNL     1      13.369   2.565  92.280  1.00  0.00     0.277 C 
BRANCH   7   8
HETATM    8  C   UNL     1      12.309   3.596  92.094  1.00  0.00     0.011 A 
HETATM    9  C   UNL     1      11.608   4.082  93.199  1.00  0.00    -0.002 A 
HETATM   10  C   UNL     1      10.615   5.045  93.026  1.00  0.00     0.008 A 
HETATM   11  C   UNL     1      10.324   5.523  91.749  1.00  0.00     0.042 A 
HETATM   12  C   UNL     1      11.023   5.039  90.645  1.00  0.00     0.008 A 
HETATM   13  C   UNL     1      12.016   4.075  90.817  1.00  0.00    -0.002 A 
BRANCH  11  14
HETATM   14  C   UNL     1       9.306   6.513  91.571  1.00  0.00    -0.059 C 
HETATM   15  C   UNL     1       8.451   7.345  91.423  1.00  0.00    -0.059 C 
BRANCH  15  16
HETATM   16  C   UNL     1       7.434   8.335  91.247  1.00  0.00     0.042 A 
HETATM   17  C   UNL     1       6.632   8.709  92.325  1.00  0.00     0.008 A 
HETATM   18  C   UNL     1       5.642   9.676  92.154  1.00  0.00     0.005 A 
HETATM   19  C   UNL     1       5.477  10.248  90.909  1.00  0.00     0.056 A 
HETATM   20  C   UNL     1       6.257   9.895  89.828  1.00  0.00     0.005 A 
HETATM   21  C   UNL     1       7.247   8.928  89.998  1.00  0.00     0.008 A 
BRANCH  19  22
HETATM   22  C   UNL     1       4.421  11.277  90.727  1.00  0.00     0.254 C 
HETATM   23  O   UNL     1       3.387  10.977  90.135  1.00  0.00    -0.268 OA
HETATM   24  N   UNL     1       4.685  12.524  91.276  1.00  0.00    -0.335 N 
HETATM   25  HN  UNL     1       5.552  12.692  91.774  1.00  0.00     0.164 HD
BRANCH  24  26
HETATM   26  C   UNL     1       3.750  13.618  91.204  1.00  0.00     0.166 C 
BRANCH  26  27
HETATM   27  C   UNL     1       3.646  14.217  89.796  1.00  0.00     0.138 C 
HETATM   28  C   UNL     1       4.994  14.687  89.260  1.00  0.00     0.034 C 
BRANCH  27  29
HETATM   29  O   UNL     1       3.106  13.245  88.901  1.00  0.00    -0.383 OA
HETATM   30  H   UNL     1       3.145  12.376  89.335  1.00  0.00     0.210 HD
ENDBRANCH  27  29
ENDBRANCH  26  27
BRANCH  26  31
HETATM   31  C   UNL     1       2.398  13.107  91.690  1.00  0.00     0.181 C 
HETATM   32  O   UNL     1       2.276  12.319  92.626  1.00  0.00    -0.294 OA
BRANCH  31  33
HETATM   33  C   UNL     1       1.366  14.322  91.985  1.00  0.00     0.138 C 
BRANCH  33  34
HETATM   34  C   UNL     1       1.972  14.929  93.107  1.00  0.00     0.208 C 
HETATM   35  O   UNL     1       1.232  15.526  93.855  1.00  0.00    -0.289 OA
BRANCH  34  36
HETATM   36  C   UNL     1       3.206  14.731  93.665  1.00  0.00     0.194 C 
HETATM   37  O   UNL     1       4.265  15.625  93.858  1.00  0.00    -0.185 OA
ENDBRANCH  34  36
ENDBRANCH  33  34
ENDBRANCH  31  33
ENDBRANCH  26  31
ENDBRANCH  24  26
ENDBRANCH  19  22
ENDBRANCH  15  16
ENDBRANCH  11  14
ENDBRANCH   7   8
ENDBRANCH   2   7
TORSDOF 12
ENDMDL
MODEL 4
REMARK VINA RESULT:      -4.3      1.702      2.056
REMARK  12 active torsions:
REMARK  status: ('A' for Active; 'I' for Inactive)
REMARK    1  A    between atoms: O_2  and  C_16 
REMARK    2  A    between atoms: N_5  and  C_9 
REMARK    3  A    between atoms: N_6  and  C_13 
REMARK       I    between atoms: N_6  and  C_22 
REMARK    4  A    between atoms: C_9  and  C_12 
REMARK    5  A    between atoms: C_13  and  C_16 
REMARK    6  A    between atoms: C_13  and  C_21 
REMARK    7  A    between atoms: C_19  and  C_24 
REMARK    8  A    between atoms: C_21  and  C_33 
REMARK    9  A    between atoms: C_22  and  C_23 
REMARK   10  A    between atoms: C_27  and  C_30 
REMARK   11  A    between atoms: C_33  and  C_34 
REMARK   12  A    between atoms: C_34  and  C_35 
ROOT
HETATM    1  O   UNL     1      16.486   2.660  92.751  1.00  0.00    -0.350 OA
HETATM    2  N   UNL     1      13.684   2.852  93.215  1.00  0.00     0.147 N 
HETATM    3  C   UNL     1      14.495   1.797  93.839  1.00  0.00     0.283 C 
HETATM    4  C   UNL     1      14.281   3.254  91.934  1.00  0.00     0.283 C 
HETATM    5  C   UNL     1      15.931   2.285  94.014  1.00  0.00     0.178 C 
HETATM    6  C   UNL     1      15.721   3.706  92.152  1.00  0.00     0.178 C 
ENDROOT
BRANCH   2   7
HETATM    7  C   UNL     1      12.306   2.403  93.029  1.00  0.00     0.277 C 
BRANCH   7   8
HETATM    8  C   UNL     1      11.333   3.533  93.039  1.00  0.00     0.011 A 
HETATM    9  C   UNL     1      10.294   3.566  92.108  1.00  0.00    -0.002 A 
HETATM   10  C   UNL     1       9.386   4.624  92.115  1.00  0.00     0.008 A 
HETATM   11  C   UNL     1       9.515   5.647  93.054  1.00  0.00     0.042 A 
HETATM   12  C   UNL     1      10.552   5.615  93.984  1.00  0.00     0.008 A 
HETATM   13  C   UNL     1      11.462   4.557  93.977  1.00  0.00    -0.002 A 
BRANCH  11  14
HETATM   14  C   UNL     1       8.582   6.731  93.063  1.00  0.00    -0.059 C 
HETATM   15  C   UNL     1       7.797   7.642  93.069  1.00  0.00    -0.059 C 
BRANCH  15  16
HETATM   16  C   UNL     1       6.863   8.725  93.078  1.00  0.00     0.042 A 
HETATM   17  C   UNL     1       5.659   8.612  92.382  1.00  0.00     0.008 A 
HETATM   18  C   UNL     1       4.747   9.667  92.393  1.00  0.00     0.005 A 
HETATM   19  C   UNL     1       5.059  10.810  93.099  1.00  0.00     0.056 A 
HETATM   20  C   UNL     1       6.242  10.947  93.794  1.00  0.00     0.005 A 
HETATM   21  C   UNL     1       7.155   9.892  93.784  1.00  0.00     0.008 A 
BRANCH  19  22
HETATM   22  C   UNL     1       4.088  11.935  93.108  1.00  0.00     0.254 C 
HETATM   23  O   UNL     1       3.276  12.019  94.027  1.00  0.00    -0.268 OA
HETATM   24  N   UNL     1       4.195  12.840  92.061  1.00  0.00    -0.335 N 
HETATM   25  HN  UNL     1       4.908  12.720  91.351  1.00  0.00     0.164 HD
BRANCH  24  26
HETATM   26  C   UNL     1       3.342  13.995  91.944  1.00  0.00     0.166 C 
BRANCH  26  27
HETATM   27  C   UNL     1       3.941  15.244  92.603  1.00  0.00     0.138 C 
HETATM   28  C   UNL     1       4.271  15.026  94.075  1.00  0.00     0.034 C 
BRANCH  27  29
HETATM   29  O   UNL     1       5.131  15.624  91.913  1.00  0.00    -0.383 OA
HETATM   30  H   UNL     1       5.682  14.832  91.795  1.00  0.00     0.210 HD
ENDBRANCH  27  29
ENDBRANCH  26  27
BRANCH  26  31
HETATM   31  C   UNL     1       3.072  14.226  90.461  1.00  0.00     0.181 C 
HETATM   32  O   UNL     1       3.785  14.935  89.753  1.00  0.00    -0.294 OA
BRANCH  31  33
HETATM   33  C   UNL     1       2.883  12.830  89.658  1.00  0.00     0.138 C 
BRANCH  33  34
HETATM   34  C   UNL     1       4.154  12.685  89.059  1.00  0.00     0.208 C 
HETATM   35  O   UNL     1       4.954  12.011  89.666  1.00  0.00    -0.289 OA
BRANCH  34  36
HETATM   36  C   UNL     1       4.564  12.930  87.777  1.00  0.00     0.194 C 
HETATM   37  O   UNL     1       5.553  13.794  87.294  1.00  0.00    -0.185 OA
ENDBRANCH  34  36
ENDBRANCH  33  34
ENDBRANCH  31  33
ENDBRANCH  26  31
ENDBRANCH  24  26
ENDBRANCH  19  22
ENDBRANCH  15  16
ENDBRANCH  11  14
ENDBRANCH   7   8
ENDBRANCH   2   7
TORSDOF 12
ENDMDL
MODEL 5
REMARK VINA RESULT:      -3.8      2.034      3.165
REMARK  12 active torsions:
REMARK  status: ('A' for Active; 'I' for Inactive)
REMARK    1  A    between atoms: O_2  and  C_16 
REMARK    2  A    between atoms: N_5  and  C_9 
REMARK    3  A    between atoms: N_6  and  C_13 
REMARK       I    between atoms: N_6  and  C_22 
REMARK    4  A    between atoms: C_9  and  C_12 
REMARK    5  A    between atoms: C_13  and  C_16 
REMARK    6  A    between atoms: C_13  and  C_21 
REMARK    7  A    between atoms: C_19  and  C_24 
REMARK    8  A    between atoms: C_21  and  C_33 
REMARK    9  A    between atoms: C_22  and  C_23 
REMARK   10  A    between atoms: C_27  and  C_30 
REMARK   11  A    between atoms: C_33  and  C_34 
REMARK   12  A    between atoms: C_34  and  C_35 
ROOT
HETATM    1  O   UNL     1      17.528   4.725  93.631  1.00  0.00    -0.350 OA
HETATM    2  N   UNL     1      15.346   2.902  93.766  1.00  0.00     0.147 N 
HETATM    3  C   UNL     1      16.669   2.482  93.284  1.00  0.00     0.283 C 
HETATM    4  C   UNL     1      15.139   4.330  93.488  1.00  0.00     0.283 C 
HETATM    5  C   UNL     1      17.752   3.345  93.926  1.00  0.00     0.178 C 
HETATM    6  C   UNL     1      16.257   5.150  94.124  1.00  0.00     0.178 C 
ENDROOT
BRANCH   2   7
HETATM    7  C   UNL     1      14.292   2.095  93.155  1.00  0.00     0.277 C 
BRANCH   7   8
HETATM    8  C   UNL     1      13.117   2.914  92.741  1.00  0.00     0.011 A 
HETATM    9  C   UNL     1      12.172   3.306  93.690  1.00  0.00    -0.002 A 
HETATM   10  C   UNL     1      11.071   4.070  93.304  1.00  0.00     0.008 A 
HETATM   11  C   UNL     1      10.917   4.444  91.969  1.00  0.00     0.042 A 
HETATM   12  C   UNL     1      11.861   4.054  91.021  1.00  0.00     0.008 A 
HETATM   13  C   UNL     1      12.961   3.289  91.407  1.00  0.00    -0.002 A 
BRANCH  11  14
HETATM   14  C   UNL     1       9.789   5.231  91.573  1.00  0.00    -0.059 C 
HETATM   15  C   UNL     1       8.841   5.891  91.241  1.00  0.00    -0.059 C 
BRANCH  15  16
HETATM   16  C   UNL     1       7.714   6.677  90.846  1.00  0.00     0.042 A 
HETATM   17  C   UNL     1       7.459   7.895  91.477  1.00  0.00     0.008 A 
HETATM   18  C   UNL     1       6.361   8.663  91.090  1.00  0.00     0.005 A 
HETATM   19  C   UNL     1       5.543   8.197  90.082  1.00  0.00     0.056 A 
HETATM   20  C   UNL     1       5.774   6.996  89.443  1.00  0.00     0.005 A 
HETATM   21  C   UNL     1       6.872   6.227  89.830  1.00  0.00     0.008 A 
BRANCH  19  22
HETATM   22  C   UNL     1       4.373   9.014  89.671  1.00  0.00     0.254 C 
HETATM   23  O   UNL     1       3.525   9.311  90.509  1.00  0.00    -0.268 OA
HETATM   24  N   UNL     1       4.343   9.408  88.340  1.00  0.00    -0.335 N 
HETATM   25  HN  UNL     1       5.092   9.146  87.711  1.00  0.00     0.164 HD
BRANCH  24  26
HETATM   26  C   UNL     1       3.287  10.223  87.797  1.00  0.00     0.166 C 
BRANCH  26  27
HETATM   27  C   UNL     1       1.897   9.604  87.994  1.00  0.00     0.138 C 
HETATM   28  C   UNL     1       1.765   8.242  87.322  1.00  0.00     0.034 C 
BRANCH  27  29
HETATM   29  O   UNL     1       1.632   9.460  89.389  1.00  0.00    -0.383 OA
HETATM   30  H   UNL     1       2.180   8.734  89.730  1.00  0.00     0.210 HD
ENDBRANCH  27  29
ENDBRANCH  26  27
BRANCH  26  31
HETATM   31  C   UNL     1       3.378  11.599  88.448  1.00  0.00     0.181 C 
HETATM   32  O   UNL     1       2.680  11.935  89.404  1.00  0.00    -0.294 OA
BRANCH  31  33
HETATM   33  C   UNL     1       4.903  11.977  88.847  1.00  0.00     0.138 C 
BRANCH  33  34
HETATM   34  C   UNL     1       4.979  13.315  88.400  1.00  0.00     0.208 C 
HETATM   35  O   UNL     1       4.966  13.478  87.201  1.00  0.00    -0.289 OA
BRANCH  34  36
HETATM   36  C   UNL     1       4.778  14.488  89.074  1.00  0.00     0.194 C 
HETATM   37  O   UNL     1       4.492  14.718  90.425  1.00  0.00    -0.185 OA
ENDBRANCH  34  36
ENDBRANCH  33  34
ENDBRANCH  31  33
ENDBRANCH  26  31
ENDBRANCH  24  26
ENDBRANCH  19  22
ENDBRANCH  15  16
ENDBRANCH  11  14
ENDBRANCH   7   8
ENDBRANCH   2   7
TORSDOF 12
ENDMDL
MODEL 6
REMARK VINA RESULT:      -3.5      1.477      1.721
REMARK  12 active torsions:
REMARK  status: ('A' for Active; 'I' for Inactive)
REMARK    1  A    between atoms: O_2  and  C_16 
REMARK    2  A    between atoms: N_5  and  C_9 
REMARK    3  A    between atoms: N_6  and  C_13 
REMARK       I    between atoms: N_6  and  C_22 
REMARK    4  A    between atoms: C_9  and  C_12 
REMARK    5  A    between atoms: C_13  and  C_16 
REMARK    6  A    between atoms: C_13  and  C_21 
REMARK    7  A    between atoms: C_19  and  C_24 
REMARK    8  A    between atoms: C_21  and  C_33 
REMARK    9  A    between atoms: C_22  and  C_23 
REMARK   10  A    between atoms: C_27  and  C_30 
REMARK   11  A    between atoms: C_33  and  C_34 
REMARK   12  A    between atoms: C_34  and  C_35 
ROOT
HETATM    1  O   UNL     1      15.552   2.781  90.715  1.00  0.00    -0.350 OA
HETATM    2  N   UNL     1      13.620   3.152  92.771  1.00  0.00     0.147 N 
HETATM    3  C   UNL     1      14.634   2.092  92.853  1.00  0.00     0.283 C 
HETATM    4  C   UNL     1      13.312   3.448  91.365  1.00  0.00     0.283 C 
HETATM    5  C   UNL     1      15.881   2.509  92.078  1.00  0.00     0.178 C 
HETATM    6  C   UNL     1      14.590   3.832  90.626  1.00  0.00     0.178 C 
ENDROOT
BRANCH   2   7
HETATM    7  C   UNL     1      12.411   2.769  93.498  1.00  0.00     0.277 C 
BRANCH   7   8
HETATM    8  C   UNL     1      11.290   3.728  93.281  1.00  0.00     0.011 A 
HETATM    9  C   UNL     1      10.385   3.516  92.240  1.00  0.00    -0.002 A 
HETATM   10  C   UNL     1       9.337   4.414  92.035  1.00  0.00     0.008 A 
HETATM   11  C   UNL     1       9.193   5.520  92.871  1.00  0.00     0.042 A 
HETATM   12  C   UNL     1      10.096   5.731  93.911  1.00  0.00     0.008 A 
HETATM   13  C   UNL     1      11.145   4.835  94.117  1.00  0.00    -0.002 A 
BRANCH  11  14
HETATM   14  C   UNL     1       8.117   6.439  92.662  1.00  0.00    -0.059 C 
HETATM   15  C   UNL     1       7.212   7.211  92.485  1.00  0.00    -0.059 C 
BRANCH  15  16
HETATM   16  C   UNL     1       6.136   8.128  92.276  1.00  0.00     0.042 A 
HETATM   17  C   UNL     1       4.829   7.654  92.156  1.00  0.00     0.008 A 
HETATM   18  C   UNL     1       3.779   8.550  91.955  1.00  0.00     0.005 A 
HETATM   19  C   UNL     1       4.059   9.898  91.878  1.00  0.00     0.056 A 
HETATM   20  C   UNL     1       5.341  10.392  91.993  1.00  0.00     0.005 A 
HETATM   21  C   UNL     1       6.392   9.497  92.194  1.00  0.00     0.008 A 
BRANCH  19  22
HETATM   22  C   UNL     1       2.940  10.852  91.662  1.00  0.00     0.254 C 
HETATM   23  O   UNL     1       1.813  10.414  91.439  1.00  0.00    -0.268 OA
HETATM   24  N   UNL     1       3.262  12.199  91.754  1.00  0.00    -0.335 N 
HETATM   25  HN  UNL     1       4.211  12.485  91.966  1.00  0.00     0.164 HD
BRANCH  24  26
HETATM   26  C   UNL     1       2.283  13.243  91.593  1.00  0.00     0.166 C 
BRANCH  26  27
HETATM   27  C   UNL     1       1.695  13.717  92.929  1.00  0.00     0.138 C 
HETATM   28  C   UNL     1       2.560  13.321  94.120  1.00  0.00     0.034 C 
BRANCH  27  29
HETATM   29  O   UNL     1       1.553  15.137  92.911  1.00  0.00    -0.383 OA
HETATM   30  H   UNL     1       2.038  15.482  92.143  1.00  0.00     0.210 HD
ENDBRANCH  27  29
ENDBRANCH  26  27
BRANCH  26  31
HETATM   31  C   UNL     1       2.947  14.392  90.841  1.00  0.00     0.181 C 
HETATM   32  O   UNL     1       4.087  14.783  91.086  1.00  0.00    -0.294 OA
BRANCH  31  33
HETATM   33  C   UNL     1       2.877  14.181  89.236  1.00  0.00     0.138 C 
BRANCH  33  34
HETATM   34  C   UNL     1       3.936  13.270  89.033  1.00  0.00     0.208 C 
HETATM   35  O   UNL     1       3.630  12.189  88.585  1.00  0.00    -0.289 OA
BRANCH  34  36
HETATM   36  C   UNL     1       5.287  13.477  88.981  1.00  0.00     0.194 C 
HETATM   37  O   UNL     1       6.324  12.603  88.637  1.00  0.00    -0.185 OA
ENDBRANCH  34  36
ENDBRANCH  33  34
ENDBRANCH  31  33
ENDBRANCH  26  31
ENDBRANCH  24  26
ENDBRANCH  19  22
ENDBRANCH  15  16
ENDBRANCH  11  14
ENDBRANCH   7   8
ENDBRANCH   2   7
TORSDOF 12
ENDMDL
