MODEL 1
REMARK VINA RESULT:      -6.8      0.000      0.000
REMARK  14 active torsions:
REMARK  status: ('A' for Active; 'I' for Inactive)
REMARK    1  A    between atoms: O_2  and  C_18 
REMARK    2  A    between atoms: C_5  and  C_8 
REMARK    3  A    between atoms: C_5  and  O_35 
REMARK    4  A    between atoms: C_5  and  C_36 
REMARK    5  A    between atoms: N_6  and  C_11 
REMARK    6  A    between atoms: N_7  and  C_15 
REMARK       I    between atoms: N_7  and  C_24 
REMARK    7  A    between atoms: C_8  and  C_23 
REMARK    8  A    between atoms: C_11  and  C_14 
REMARK    9  A    between atoms: C_15  and  C_18 
REMARK   10  A    between atoms: C_15  and  C_23 
REMARK   11  A    between atoms: C_21  and  C_26 
REMARK   12  A    between atoms: C_24  and  C_25 
REMARK   13  A    between atoms: C_29  and  C_32 
REMARK   14  A    between atoms: C_36  and  O_39 
ROOT
HETATM    1  O   UNL     1      16.248   4.244  94.105  1.00  0.00    -0.350 OA
HETATM    2  N   UNL     1      14.523   2.767  92.388  1.00  0.00     0.147 N 
HETATM    3  C   UNL     1      14.547   4.236  92.373  1.00  0.00     0.283 C 
HETATM    4  C   UNL     1      14.889   2.271  93.722  1.00  0.00     0.283 C 
HETATM    5  C   UNL     1      15.924   4.735  92.802  1.00  0.00     0.178 C 
HETATM    6  C   UNL     1      16.257   2.816  94.120  1.00  0.00     0.178 C 
ENDROOT
BRANCH   2   7
HETATM    7  C   UNL     1      13.208   2.267  91.990  1.00  0.00     0.277 C 
BRANCH   7   8
HETATM    8  C   UNL     1      12.171   3.337  91.986  1.00  0.00     0.011 A 
HETATM    9  C   UNL     1      11.623   3.772  90.779  1.00  0.00    -0.002 A 
HETATM   10  C   UNL     1      10.653   4.775  90.774  1.00  0.00     0.008 A 
HETATM   11  C   UNL     1      10.231   5.340  91.977  1.00  0.00     0.042 A 
HETATM   12  C   UNL     1      10.777   4.906  93.183  1.00  0.00     0.008 A 
HETATM   13  C   UNL     1      11.747   3.904  93.188  1.00  0.00    -0.002 A 
BRANCH  11  14
HETATM   14  C   UNL     1       9.235   6.367  91.972  1.00  0.00    -0.059 C 
HETATM   15  C   UNL     1       8.398   7.231  91.969  1.00  0.00    -0.059 C 
BRANCH  15  16
HETATM   16  C   UNL     1       7.404   8.258  91.963  1.00  0.00     0.042 A 
HETATM   17  C   UNL     1       7.292   9.125  93.051  1.00  0.00     0.008 A 
HETATM   18  C   UNL     1       6.323  10.128  93.044  1.00  0.00     0.005 A 
HETATM   19  C   UNL     1       5.489  10.243  91.951  1.00  0.00     0.056 A 
HETATM   20  C   UNL     1       5.580   9.398  90.865  1.00  0.00     0.005 A 
HETATM   21  C   UNL     1       6.548   8.394  90.870  1.00  0.00     0.008 A 
BRANCH  19  22
HETATM   22  C   UNL     1       4.456  11.311  91.946  1.00  0.00     0.254 C 
HETATM   23  O   UNL     1       3.319  11.047  92.328  1.00  0.00    -0.268 OA
HETATM   24  N   UNL     1       4.878  12.563  91.519  1.00  0.00    -0.335 N 
HETATM   25  HN  UNL     1       5.841  12.712  91.241  1.00  0.00     0.164 HD
BRANCH  24  26
HETATM   26  C   UNL     1       4.001  13.705  91.480  1.00  0.00     0.169 C 
BRANCH  26  27
HETATM   27  C   UNL     1       3.887  14.413  92.836  1.00  0.00     0.138 C 
HETATM   28  C   UNL     1       2.537  15.094  93.028  1.00  0.00     0.034 C 
BRANCH  27  29
HETATM   29  O   UNL     1       4.082  13.466  93.887  1.00  0.00    -0.383 OA
HETATM   30  H   UNL     1       3.392  13.608  94.557  1.00  0.00     0.210 HD
ENDBRANCH  27  29
ENDBRANCH  26  27
BRANCH  26  31
HETATM   31  C   UNL     1       4.517  14.652  90.402  1.00  0.00     0.194 C 
HETATM   32  O   UNL     1       5.295  15.574  90.637  1.00  0.00    -0.289 OA
BRANCH  31  33
HETATM   33  C   UNL     1       3.982  14.373  89.167  1.00  0.00     0.053 C 
BRANCH  33  34
HETATM   34  C   UNL     1       4.781  13.594  88.318  1.00  0.00     0.220 C 
BRANCH  34  35
HETATM   35  O   UNL     1       5.948  13.637  88.749  1.00  0.00    -0.371 OA
HETATM   36  H   UNL     1       5.767  13.408  89.648  1.00  0.00     0.211 HD
ENDBRANCH  34  35
BRANCH  34  37
HETATM   37  C   UNL     1       4.316  12.277  88.165  1.00  0.00     0.185 C 
HETATM   38  O   UNL     1       5.551  11.969  88.533  1.00  0.00    -0.647 OA
BRANCH  37  39
HETATM   39  O   UNL     1       3.306  11.740  87.821  1.00  0.00    -0.774 OA
HETATM   40  H   UNL     1       3.051  11.983  86.742  1.00  0.00     0.167 HD
ENDBRANCH  37  39
ENDBRANCH  34  37
ENDBRANCH  33  34
ENDBRANCH  31  33
ENDBRANCH  26  31
ENDBRANCH  24  26
ENDBRANCH  19  22
ENDBRANCH  15  16
ENDBRANCH  11  14
ENDBRANCH   7   8
ENDBRANCH   2   7
TORSDOF 14
ENDMDL
