MODEL 1
REMARK VINA RESULT:      -6.9      0.000      0.000
REMARK  11 active torsions:
REMARK  status: ('A' for Active; 'I' for Inactive)
REMARK    1  A    between atoms: O_2  and  C_18 
REMARK    2  A    between atoms: O_5  and  P_8 
REMARK    3  A    between atoms: N_6  and  C_11 
REMARK    4  A    between atoms: N_7  and  C_15 
REMARK       I    between atoms: N_7  and  C_24 
REMARK    5  A    between atoms: P_8  and  C_23 
REMARK    6  A    between atoms: C_11  and  C_14 
REMARK    7  A    between atoms: C_15  and  C_18 
REMARK    8  A    between atoms: C_15  and  C_23 
REMARK    9  A    between atoms: C_21  and  C_26 
REMARK   10  A    between atoms: C_24  and  C_25 
REMARK   11  A    between atoms: C_29  and  C_32 
ROOT
HETATM    1  O   UNL     1      16.030   4.109  94.124  1.00  0.00     0.000 OA
HETATM    2  N   UNL     1      14.297   2.712  92.350  1.00  0.00     0.000 N 
HETATM    3  C   UNL     1      14.373   4.180  92.351  1.00  0.00     0.000 C 
HETATM    4  C   UNL     1      14.611   2.190  93.687  1.00  0.00     0.000 C 
HETATM    5  C   UNL     1      15.757   4.625  92.819  1.00  0.00     0.000 C 
HETATM    6  C   UNL     1      15.988   2.682  94.124  1.00  0.00     0.000 C 
ENDROOT
BRANCH   2   7
HETATM    7  C   UNL     1      12.975   2.264  91.914  1.00  0.00     0.000 C 
BRANCH   7   8
HETATM    8  C   UNL     1      12.056   3.401  91.623  1.00  0.00     0.000 A 
HETATM    9  C   UNL     1      11.969   3.912  90.328  1.00  0.00     0.000 A 
HETATM   10  C   UNL     1      11.112   4.978  90.055  1.00  0.00     0.000 A 
HETATM   11  C   UNL     1      10.341   5.530  91.077  1.00  0.00     0.000 A 
HETATM   12  C   UNL     1      10.427   5.021  92.371  1.00  0.00     0.000 A 
HETATM   13  C   UNL     1      11.285   3.956  92.644  1.00  0.00     0.000 A 
BRANCH  11  14
HETATM   14  C   UNL     1       9.460   6.622  90.796  1.00  0.00     0.000 C 
HETATM   15  C   UNL     1       8.720   7.540  90.560  1.00  0.00     0.000 C 
BRANCH  15  16
HETATM   16  C   UNL     1       7.839   8.631  90.278  1.00  0.00     0.000 A 
HETATM   17  C   UNL     1       6.497   8.557  90.651  1.00  0.00     0.000 A 
HETATM   18  C   UNL     1       5.639   9.622  90.379  1.00  0.00     0.000 A 
HETATM   19  C   UNL     1       6.142  10.737  89.741  1.00  0.00     0.000 A 
HETATM   20  C   UNL     1       7.465  10.834  89.362  1.00  0.00     0.000 A 
HETATM   21  C   UNL     1       8.323   9.769  89.634  1.00  0.00     0.000 A 
BRANCH  19  22
HETATM   22  C   UNL     1       5.227  11.871  89.450  1.00  0.00     0.000 C 
HETATM   23  O   UNL     1       5.038  12.204  88.282  1.00  0.00     0.000 OA
HETATM   24  N   UNL     1       4.625  12.465  90.550  1.00  0.00     0.000 N 
HETATM   25  HN  UNL     1       4.811  12.120  91.485  1.00  0.00     0.000 HD
BRANCH  24  26
HETATM   26  C   UNL     1       3.695  13.559  90.429  1.00  0.00     0.000 C 
BRANCH  26  27
HETATM   27  C   UNL     1       2.302  13.217  90.972  1.00  0.00     0.000 C 
HETATM   28  C   UNL     1       2.356  12.254  92.153  1.00  0.00     0.000 C 
BRANCH  27  29
HETATM   29  O   UNL     1       1.642  14.414  91.380  1.00  0.00     0.000 OA
HETATM   30  H   UNL     1       1.802  14.542  92.331  1.00  0.00     0.000 HD
ENDBRANCH  27  29
ENDBRANCH  26  27
BRANCH  26  31
HETATM   31  C   UNL     1       4.293  14.760  91.154  1.00  0.00     0.000 C 
HETATM   32  O   UNL     1       4.171  14.942  92.364  1.00  0.00     0.000 OA
BRANCH  31  33
HETATM   33  P   UNL     1       4.938  15.617  90.294  1.00  0.00     0.000 P 
HETATM   34  H   UNL     1       4.369  16.866  90.436  1.00  0.00     0.000 HD
BRANCH  33  35
HETATM   35  O   UNL     1       4.886  15.272  88.936  1.00  0.00     0.000 OA
HETATM   36  H   UNL     1       4.002  14.869  88.892  1.00  0.00     0.000 HD
ENDBRANCH  33  35
ENDBRANCH  31  33
ENDBRANCH  26  31
ENDBRANCH  24  26
ENDBRANCH  19  22
ENDBRANCH  15  16
ENDBRANCH  11  14
ENDBRANCH   7   8
ENDBRANCH   2   7
TORSDOF 11
ENDMDL
MODEL 2
REMARK VINA RESULT:      -6.5      1.833      2.527
REMARK  11 active torsions:
REMARK  status: ('A' for Active; 'I' for Inactive)
REMARK    1  A    between atoms: O_2  and  C_18 
REMARK    2  A    between atoms: O_5  and  P_8 
REMARK    3  A    between atoms: N_6  and  C_11 
REMARK    4  A    between atoms: N_7  and  C_15 
REMARK       I    between atoms: N_7  and  C_24 
REMARK    5  A    between atoms: P_8  and  C_23 
REMARK    6  A    between atoms: C_11  and  C_14 
REMARK    7  A    between atoms: C_15  and  C_18 
REMARK    8  A    between atoms: C_15  and  C_23 
REMARK    9  A    between atoms: C_21  and  C_26 
REMARK   10  A    between atoms: C_24  and  C_25 
REMARK   11  A    between atoms: C_29  and  C_32 
ROOT
HETATM    1  O   UNL     1      16.236   3.964  94.124  1.00  0.00     0.000 OA
HETATM    2  N   UNL     1      14.279   2.675  92.508  1.00  0.00     0.000 N 
HETATM    3  C   UNL     1      14.432   4.136  92.509  1.00  0.00     0.000 C 
HETATM    4  C   UNL     1      14.685   2.125  93.809  1.00  0.00     0.000 C 
HETATM    5  C   UNL     1      15.873   4.505  92.852  1.00  0.00     0.000 C 
HETATM    6  C   UNL     1      16.119   2.541  94.122  1.00  0.00     0.000 C 
ENDROOT
BRANCH   2   7
HETATM    7  C   UNL     1      12.902   2.299  92.193  1.00  0.00     0.000 C 
BRANCH   7   8
HETATM    8  C   UNL     1      11.967   3.458  92.258  1.00  0.00     0.000 A 
HETATM    9  C   UNL     1      11.401   3.964  91.087  1.00  0.00     0.000 A 
HETATM   10  C   UNL     1      10.529   5.050  91.147  1.00  0.00     0.000 A 
HETATM   11  C   UNL     1      10.221   5.629  92.378  1.00  0.00     0.000 A 
HETATM   12  C   UNL     1      10.785   5.124  93.548  1.00  0.00     0.000 A 
HETATM   13  C   UNL     1      11.658   4.039  93.489  1.00  0.00     0.000 A 
BRANCH  11  14
HETATM   14  C   UNL     1       9.323   6.741  92.440  1.00  0.00     0.000 C 
HETATM   15  C   UNL     1       8.570   7.677  92.492  1.00  0.00     0.000 C 
BRANCH  15  16
HETATM   16  C   UNL     1       7.674   8.790  92.552  1.00  0.00     0.000 A 
HETATM   17  C   UNL     1       7.501   9.480  93.752  1.00  0.00     0.000 A 
HETATM   18  C   UNL     1       6.629  10.567  93.810  1.00  0.00     0.000 A 
HETATM   19  C   UNL     1       5.950  10.939  92.669  1.00  0.00     0.000 A 
HETATM   20  C   UNL     1       6.104  10.273  91.471  1.00  0.00     0.000 A 
HETATM   21  C   UNL     1       6.976   9.186  91.412  1.00  0.00     0.000 A 
BRANCH  19  22
HETATM   22  C   UNL     1       5.020  12.096  92.732  1.00  0.00     0.000 C 
HETATM   23  O   UNL     1       4.804  12.633  93.815  1.00  0.00     0.000 OA
HETATM   24  N   UNL     1       4.473  12.503  91.523  1.00  0.00     0.000 N 
HETATM   25  HN  UNL     1       4.717  12.026  90.663  1.00  0.00     0.000 HD
BRANCH  24  26
HETATM   26  C   UNL     1       3.573  13.623  91.417  1.00  0.00     0.000 C 
BRANCH  26  27
HETATM   27  C   UNL     1       3.517  14.207  90.000  1.00  0.00     0.000 C 
HETATM   28  C   UNL     1       4.880  14.687  89.512  1.00  0.00     0.000 C 
BRANCH  27  29
HETATM   29  O   UNL     1       3.022  13.220  89.096  1.00  0.00     0.000 OA
HETATM   30  H   UNL     1       2.058  13.163  89.204  1.00  0.00     0.000 HD
ENDBRANCH  27  29
ENDBRANCH  26  27
BRANCH  26  31
HETATM   31  C   UNL     1       2.196  13.160  91.880  1.00  0.00     0.000 C 
HETATM   32  O   UNL     1       1.752  12.037  91.644  1.00  0.00     0.000 OA
BRANCH  31  33
HETATM   33  P   UNL     1       1.512  14.148  92.546  1.00  0.00     0.000 P 
HETATM   34  H   UNL     1       0.582  14.680  91.676  1.00  0.00     0.000 HD
BRANCH  33  35
HETATM   35  O   UNL     1       2.293  15.204  93.039  1.00  0.00     0.000 OA
HETATM   36  H   UNL     1       1.754  15.964  92.760  1.00  0.00     0.000 HD
ENDBRANCH  33  35
ENDBRANCH  31  33
ENDBRANCH  26  31
ENDBRANCH  24  26
ENDBRANCH  19  22
ENDBRANCH  15  16
ENDBRANCH  11  14
ENDBRANCH   7   8
ENDBRANCH   2   7
TORSDOF 11
ENDMDL
MODEL 3
REMARK VINA RESULT:      -5.9      1.428      2.081
REMARK  11 active torsions:
REMARK  status: ('A' for Active; 'I' for Inactive)
REMARK    1  A    between atoms: O_2  and  C_18 
REMARK    2  A    between atoms: O_5  and  P_8 
REMARK    3  A    between atoms: N_6  and  C_11 
REMARK    4  A    between atoms: N_7  and  C_15 
REMARK       I    between atoms: N_7  and  C_24 
REMARK    5  A    between atoms: P_8  and  C_23 
REMARK    6  A    between atoms: C_11  and  C_14 
REMARK    7  A    between atoms: C_15  and  C_18 
REMARK    8  A    between atoms: C_15  and  C_23 
REMARK    9  A    between atoms: C_21  and  C_26 
REMARK   10  A    between atoms: C_24  and  C_25 
REMARK   11  A    between atoms: C_29  and  C_32 
ROOT
HETATM    1  O   UNL     1      16.522   3.009  93.873  1.00  0.00     0.000 OA
HETATM    2  N   UNL     1      13.915   2.907  92.733  1.00  0.00     0.000 N 
HETATM    3  C   UNL     1      14.706   1.688  92.952  1.00  0.00     0.000 C 
HETATM    4  C   UNL     1      14.808   4.053  92.510  1.00  0.00     0.000 C 
HETATM    5  C   UNL     1      15.662   1.895  94.124  1.00  0.00     0.000 C 
HETATM    6  C   UNL     1      15.762   4.204  93.690  1.00  0.00     0.000 C 
ENDROOT
BRANCH   2   7
HETATM    7  C   UNL     1      12.999   2.735  91.607  1.00  0.00     0.000 C 
BRANCH   7   8
HETATM    8  C   UNL     1      11.910   3.753  91.600  1.00  0.00     0.000 A 
HETATM    9  C   UNL     1      11.500   4.326  90.396  1.00  0.00     0.000 A 
HETATM   10  C   UNL     1      10.482   5.280  90.389  1.00  0.00     0.000 A 
HETATM   11  C   UNL     1       9.874   5.659  91.585  1.00  0.00     0.000 A 
HETATM   12  C   UNL     1      10.283   5.087  92.788  1.00  0.00     0.000 A 
HETATM   13  C   UNL     1      11.301   4.133  92.796  1.00  0.00     0.000 A 
BRANCH  11  14
HETATM   14  C   UNL     1       8.829   6.636  91.577  1.00  0.00     0.000 C 
HETATM   15  C   UNL     1       7.952   7.457  91.571  1.00  0.00     0.000 C 
BRANCH  15  16
HETATM   16  C   UNL     1       6.908   8.434  91.562  1.00  0.00     0.000 A 
HETATM   17  C   UNL     1       6.798   9.346  92.613  1.00  0.00     0.000 A 
HETATM   18  C   UNL     1       5.781  10.300  92.603  1.00  0.00     0.000 A 
HETATM   19  C   UNL     1       4.898  10.323  91.544  1.00  0.00     0.000 A 
HETATM   20  C   UNL     1       4.985   9.433  90.494  1.00  0.00     0.000 A 
HETATM   21  C   UNL     1       6.002   8.478  90.503  1.00  0.00     0.000 A 
BRANCH  19  22
HETATM   22  C   UNL     1       3.814  11.339  91.535  1.00  0.00     0.000 C 
HETATM   23  O   UNL     1       2.648  10.971  91.422  1.00  0.00     0.000 OA
HETATM   24  N   UNL     1       4.217  12.659  91.684  1.00  0.00     0.000 N 
HETATM   25  HN  UNL     1       5.198  12.886  91.798  1.00  0.00     0.000 HD
BRANCH  24  26
HETATM   26  C   UNL     1       3.283  13.755  91.719  1.00  0.00     0.000 C 
BRANCH  26  27
HETATM   27  C   UNL     1       3.586  14.758  92.840  1.00  0.00     0.000 C 
HETATM   28  C   UNL     1       2.334  15.186  93.596  1.00  0.00     0.000 C 
BRANCH  27  29
HETATM   29  O   UNL     1       4.510  14.179  93.761  1.00  0.00     0.000 OA
HETATM   30  H   UNL     1       5.386  14.566  93.598  1.00  0.00     0.000 HD
ENDBRANCH  27  29
ENDBRANCH  26  27
BRANCH  26  31
HETATM   31  C   UNL     1       3.303  14.429  90.351  1.00  0.00     0.000 C 
HETATM   32  O   UNL     1       2.315  14.495  89.622  1.00  0.00     0.000 OA
BRANCH  31  33
HETATM   33  P   UNL     1       4.549  14.909  90.028  1.00  0.00     0.000 P 
HETATM   34  H   UNL     1       4.422  16.251  89.733  1.00  0.00     0.000 HD
BRANCH  33  35
HETATM   35  O   UNL     1       5.178  14.288  88.940  1.00  0.00     0.000 OA
HETATM   36  H   UNL     1       5.105  14.990  88.271  1.00  0.00     0.000 HD
ENDBRANCH  33  35
ENDBRANCH  31  33
ENDBRANCH  26  31
ENDBRANCH  24  26
ENDBRANCH  19  22
ENDBRANCH  15  16
ENDBRANCH  11  14
ENDBRANCH   7   8
ENDBRANCH   2   7
TORSDOF 11
ENDMDL
MODEL 4
REMARK VINA RESULT:      -5.3      3.621     12.308
REMARK  11 active torsions:
REMARK  status: ('A' for Active; 'I' for Inactive)
REMARK    1  A    between atoms: O_2  and  C_18 
REMARK    2  A    between atoms: O_5  and  P_8 
REMARK    3  A    between atoms: N_6  and  C_11 
REMARK    4  A    between atoms: N_7  and  C_15 
REMARK       I    between atoms: N_7  and  C_24 
REMARK    5  A    between atoms: P_8  and  C_23 
REMARK    6  A    between atoms: C_11  and  C_14 
REMARK    7  A    between atoms: C_15  and  C_18 
REMARK    8  A    between atoms: C_15  and  C_23 
REMARK    9  A    between atoms: C_21  and  C_26 
REMARK   10  A    between atoms: C_24  and  C_25 
REMARK   11  A    between atoms: C_29  and  C_32 
ROOT
HETATM    1  O   UNL     1       2.779  14.757  94.061  1.00  0.00     0.000 OA
HETATM    2  N   UNL     1       2.533  14.692  91.226  1.00  0.00     0.000 N 
HETATM    3  C   UNL     1       1.531  14.064  92.098  1.00  0.00     0.000 C 
HETATM    4  C   UNL     1       3.847  14.688  91.884  1.00  0.00     0.000 C 
HETATM    5  C   UNL     1       1.491  14.786  93.443  1.00  0.00     0.000 C 
HETATM    6  C   UNL     1       3.753  15.394  93.232  1.00  0.00     0.000 C 
ENDROOT
BRANCH   2   7
HETATM    7  C   UNL     1       2.596  14.010  89.935  1.00  0.00     0.000 C 
BRANCH   7   8
HETATM    8  C   UNL     1       3.559  12.872  89.940  1.00  0.00     0.000 A 
HETATM    9  C   UNL     1       3.204  11.661  90.534  1.00  0.00     0.000 A 
HETATM   10  C   UNL     1       4.105  10.597  90.542  1.00  0.00     0.000 A 
HETATM   11  C   UNL     1       5.360  10.743  89.953  1.00  0.00     0.000 A 
HETATM   12  C   UNL     1       5.717  11.952  89.359  1.00  0.00     0.000 A 
HETATM   13  C   UNL     1       4.816  13.017  89.352  1.00  0.00     0.000 A 
BRANCH  11  14
HETATM   14  C   UNL     1       6.284   9.651  89.959  1.00  0.00     0.000 C 
HETATM   15  C   UNL     1       7.060   8.732  89.964  1.00  0.00     0.000 C 
BRANCH  15  16
HETATM   16  C   UNL     1       7.982   7.640  89.969  1.00  0.00     0.000 A 
HETATM   17  C   UNL     1       7.688   6.483  90.693  1.00  0.00     0.000 A 
HETATM   18  C   UNL     1       8.587   5.417  90.696  1.00  0.00     0.000 A 
HETATM   19  C   UNL     1       9.758   5.529  89.975  1.00  0.00     0.000 A 
HETATM   20  C   UNL     1      10.071   6.662  89.253  1.00  0.00     0.000 A 
HETATM   21  C   UNL     1       9.173   7.729  89.249  1.00  0.00     0.000 A 
BRANCH  19  22
HETATM   22  C   UNL     1      10.716   4.394  89.981  1.00  0.00     0.000 C 
HETATM   23  O   UNL     1      10.559   3.474  89.181  1.00  0.00     0.000 OA
HETATM   24  N   UNL     1      11.754   4.478  90.898  1.00  0.00     0.000 N 
HETATM   25  HN  UNL     1      11.833   5.281  91.511  1.00  0.00     0.000 HD
BRANCH  24  26
HETATM   26  C   UNL     1      12.775   3.468  91.008  1.00  0.00     0.000 C 
BRANCH  26  27
HETATM   27  C   UNL     1      14.172   4.059  91.234  1.00  0.00     0.000 C 
HETATM   28  C   UNL     1      15.285   3.095  90.838  1.00  0.00     0.000 C 
BRANCH  27  29
HETATM   29  O   UNL     1      14.310   5.262  90.478  1.00  0.00     0.000 OA
HETATM   30  H   UNL     1      14.821   5.897  91.006  1.00  0.00     0.000 HD
ENDBRANCH  27  29
ENDBRANCH  26  27
BRANCH  26  31
HETATM   31  C   UNL     1      12.381   2.527  92.142  1.00  0.00     0.000 C 
HETATM   32  O   UNL     1      11.933   1.398  91.951  1.00  0.00     0.000 OA
BRANCH  31  33
HETATM   33  P   UNL     1      12.549   3.105  93.377  1.00  0.00     0.000 P 
HETATM   34  H   UNL     1      12.355   2.127  94.332  1.00  0.00     0.000 HD
BRANCH  33  35
HETATM   35  O   UNL     1      11.689   4.172  93.674  1.00  0.00     0.000 OA
HETATM   36  H   UNL     1      12.338   4.864  93.889  1.00  0.00     0.000 HD
ENDBRANCH  33  35
ENDBRANCH  31  33
ENDBRANCH  26  31
ENDBRANCH  24  26
ENDBRANCH  19  22
ENDBRANCH  15  16
ENDBRANCH  11  14
ENDBRANCH   7   8
ENDBRANCH   2   7
TORSDOF 11
ENDMDL
MODEL 5
REMARK VINA RESULT:      -4.6      2.027      2.826
REMARK  11 active torsions:
REMARK  status: ('A' for Active; 'I' for Inactive)
REMARK    1  A    between atoms: O_2  and  C_18 
REMARK    2  A    between atoms: O_5  and  P_8 
REMARK    3  A    between atoms: N_6  and  C_11 
REMARK    4  A    between atoms: N_7  and  C_15 
REMARK       I    between atoms: N_7  and  C_24 
REMARK    5  A    between atoms: P_8  and  C_23 
REMARK    6  A    between atoms: C_11  and  C_14 
REMARK    7  A    between atoms: C_15  and  C_18 
REMARK    8  A    between atoms: C_15  and  C_23 
REMARK    9  A    between atoms: C_21  and  C_26 
REMARK   10  A    between atoms: C_24  and  C_25 
REMARK   11  A    between atoms: C_29  and  C_32 
ROOT
HETATM    1  O   UNL     1      16.757   2.857  92.940  1.00  0.00     0.000 OA
HETATM    2  N   UNL     1      13.914   2.912  93.064  1.00  0.00     0.000 N 
HETATM    3  C   UNL     1      14.694   1.889  93.774  1.00  0.00     0.000 C 
HETATM    4  C   UNL     1      14.640   3.358  91.867  1.00  0.00     0.000 C 
HETATM    5  C   UNL     1      16.074   2.441  94.124  1.00  0.00     0.000 C 
HETATM    6  C   UNL     1      16.021   3.874  92.261  1.00  0.00     0.000 C 
ENDROOT
BRANCH   2   7
HETATM    7  C   UNL     1      12.591   2.402  92.710  1.00  0.00     0.000 C 
BRANCH   7   8
HETATM    8  C   UNL     1      11.548   3.467  92.725  1.00  0.00     0.000 A 
HETATM    9  C   UNL     1      10.603   3.531  91.700  1.00  0.00     0.000 A 
HETATM   10  C   UNL     1       9.629   4.529  91.713  1.00  0.00     0.000 A 
HETATM   11  C   UNL     1       9.598   5.460  92.750  1.00  0.00     0.000 A 
HETATM   12  C   UNL     1      10.541   5.396  93.774  1.00  0.00     0.000 A 
HETATM   13  C   UNL     1      11.516   4.399  93.762  1.00  0.00     0.000 A 
BRANCH  11  14
HETATM   14  C   UNL     1       8.597   6.482  92.764  1.00  0.00     0.000 C 
HETATM   15  C   UNL     1       7.756   7.341  92.775  1.00  0.00     0.000 C 
BRANCH  15  16
HETATM   16  C   UNL     1       6.755   8.362  92.788  1.00  0.00     0.000 A 
HETATM   17  C   UNL     1       7.129   9.702  92.901  1.00  0.00     0.000 A 
HETATM   18  C   UNL     1       6.153  10.698  92.910  1.00  0.00     0.000 A 
HETATM   19  C   UNL     1       4.827  10.333  92.806  1.00  0.00     0.000 A 
HETATM   20  C   UNL     1       4.432   9.017  92.694  1.00  0.00     0.000 A 
HETATM   21  C   UNL     1       5.407   8.019  92.684  1.00  0.00     0.000 A 
BRANCH  19  22
HETATM   22  C   UNL     1       3.787  11.395  92.818  1.00  0.00     0.000 C 
HETATM   23  O   UNL     1       2.846  11.303  93.602  1.00  0.00     0.000 OA
HETATM   24  N   UNL     1       3.983  12.447  91.934  1.00  0.00     0.000 N 
HETATM   25  HN  UNL     1       4.798  12.468  91.333  1.00  0.00     0.000 HD
BRANCH  24  26
HETATM   26  C   UNL     1       3.076  13.564  91.845  1.00  0.00     0.000 C 
BRANCH  26  27
HETATM   27  C   UNL     1       3.661  14.852  92.438  1.00  0.00     0.000 C 
HETATM   28  C   UNL     1       4.396  14.609  93.751  1.00  0.00     0.000 C 
BRANCH  27  29
HETATM   29  O   UNL     1       4.564  15.440  91.503  1.00  0.00     0.000 OA
HETATM   30  H   UNL     1       4.522  14.931  90.676  1.00  0.00     0.000 HD
ENDBRANCH  27  29
ENDBRANCH  26  27
BRANCH  26  31
HETATM   31  C   UNL     1       2.706  13.747  90.377  1.00  0.00     0.000 C 
HETATM   32  O   UNL     1       1.827  14.519  89.999  1.00  0.00     0.000 OA
BRANCH  31  33
HETATM   33  P   UNL     1       3.437  12.928  89.551  1.00  0.00     0.000 P 
HETATM   34  H   UNL     1       4.245  13.728  88.769  1.00  0.00     0.000 HD
BRANCH  33  35
HETATM   35  O   UNL     1       2.693  12.102  88.696  1.00  0.00     0.000 OA
HETATM   36  H   UNL     1       2.602  11.311  89.254  1.00  0.00     0.000 HD
ENDBRANCH  33  35
ENDBRANCH  31  33
ENDBRANCH  26  31
ENDBRANCH  24  26
ENDBRANCH  19  22
ENDBRANCH  15  16
ENDBRANCH  11  14
ENDBRANCH   7   8
ENDBRANCH   2   7
TORSDOF 11
ENDMDL
MODEL 6
REMARK VINA RESULT:      -4.1      3.562     12.384
REMARK  11 active torsions:
REMARK  status: ('A' for Active; 'I' for Inactive)
REMARK    1  A    between atoms: O_2  and  C_18 
REMARK    2  A    between atoms: O_5  and  P_8 
REMARK    3  A    between atoms: N_6  and  C_11 
REMARK    4  A    between atoms: N_7  and  C_15 
REMARK       I    between atoms: N_7  and  C_24 
REMARK    5  A    between atoms: P_8  and  C_23 
REMARK    6  A    between atoms: C_11  and  C_14 
REMARK    7  A    between atoms: C_15  and  C_18 
REMARK    8  A    between atoms: C_15  and  C_23 
REMARK    9  A    between atoms: C_21  and  C_26 
REMARK   10  A    between atoms: C_24  and  C_25 
REMARK   11  A    between atoms: C_29  and  C_32 
ROOT
HETATM    1  O   UNL     1       2.013  13.761  94.119  1.00  0.00     0.000 OA
HETATM    2  N   UNL     1       2.119  13.673  91.276  1.00  0.00     0.000 N 
HETATM    3  C   UNL     1       1.860  12.466  92.073  1.00  0.00     0.000 C 
HETATM    4  C   UNL     1       2.937  14.619  92.047  1.00  0.00     0.000 C 
HETATM    5  C   UNL     1       1.190  12.849  93.390  1.00  0.00     0.000 C 
HETATM    6  C   UNL     1       2.243  14.951  93.364  1.00  0.00     0.000 C 
ENDROOT
BRANCH   2   7
HETATM    7  C   UNL     1       2.771  13.331  90.014  1.00  0.00     0.000 C 
BRANCH   7   8
HETATM    8  C   UNL     1       3.824  12.289  90.182  1.00  0.00     0.000 A 
HETATM    9  C   UNL     1       3.960  11.275  89.233  1.00  0.00     0.000 A 
HETATM   10  C   UNL     1       4.943  10.299  89.391  1.00  0.00     0.000 A 
HETATM   11  C   UNL     1       5.791  10.338  90.497  1.00  0.00     0.000 A 
HETATM   12  C   UNL     1       5.657  11.350  91.446  1.00  0.00     0.000 A 
HETATM   13  C   UNL     1       4.673  12.326  91.288  1.00  0.00     0.000 A 
BRANCH  11  14
HETATM   14  C   UNL     1       6.801   9.338  90.658  1.00  0.00     0.000 C 
HETATM   15  C   UNL     1       7.650   8.496  90.793  1.00  0.00     0.000 C 
BRANCH  15  16
HETATM   16  C   UNL     1       8.659   7.496  90.954  1.00  0.00     0.000 A 
HETATM   17  C   UNL     1       9.135   7.185  92.228  1.00  0.00     0.000 A 
HETATM   18  C   UNL     1      10.117   6.207  92.384  1.00  0.00     0.000 A 
HETATM   19  C   UNL     1      10.600   5.562  91.264  1.00  0.00     0.000 A 
HETATM   20  C   UNL     1      10.146   5.852  89.995  1.00  0.00     0.000 A 
HETATM   21  C   UNL     1       9.164   6.830  89.837  1.00  0.00     0.000 A 
BRANCH  19  22
HETATM   22  C   UNL     1      11.648   4.522  91.431  1.00  0.00     0.000 C 
HETATM   23  O   UNL     1      11.915   3.782  90.487  1.00  0.00     0.000 OA
HETATM   24  N   UNL     1      12.276   4.485  92.668  1.00  0.00     0.000 N 
HETATM   25  HN  UNL     1      12.020   5.145  93.394  1.00  0.00     0.000 HD
BRANCH  24  26
HETATM   26  C   UNL     1      13.328   3.550  92.976  1.00  0.00     0.000 C 
BRANCH  26  27
HETATM   27  C   UNL     1      13.186   2.225  92.216  1.00  0.00     0.000 C 
HETATM   28  C   UNL     1      14.193   1.177  92.676  1.00  0.00     0.000 C 
BRANCH  27  29
HETATM   29  O   UNL     1      11.867   1.711  92.396  1.00  0.00     0.000 OA
HETATM   30  H   UNL     1      11.465   2.162  93.157  1.00  0.00     0.000 HD
ENDBRANCH  27  29
ENDBRANCH  26  27
BRANCH  26  31
HETATM   31  C   UNL     1      14.659   4.227  92.666  1.00  0.00     0.000 C 
HETATM   32  O   UNL     1      14.963   4.624  91.542  1.00  0.00     0.000 OA
BRANCH  31  33
HETATM   33  P   UNL     1      15.474   4.302  93.769  1.00  0.00     0.000 P 
HETATM   34  H   UNL     1      14.677   4.199  94.891  1.00  0.00     0.000 HD
BRANCH  33  35
HETATM   35  O   UNL     1      16.235   5.473  93.888  1.00  0.00     0.000 OA
HETATM   36  H   UNL     1      16.434   5.648  92.952  1.00  0.00     0.000 HD
ENDBRANCH  33  35
ENDBRANCH  31  33
ENDBRANCH  26  31
ENDBRANCH  24  26
ENDBRANCH  19  22
ENDBRANCH  15  16
ENDBRANCH  11  14
ENDBRANCH   7   8
ENDBRANCH   2   7
TORSDOF 11
ENDMDL
