MODEL 1
REMARK VINA RESULT:      -7.5      0.000      0.000
REMARK  9 active torsions:
REMARK  status: ('A' for Active; 'I' for Inactive)
REMARK    1  A    between atoms: N_3  and  C_6 
REMARK    2  A    between atoms: C_6  and  C_9 
REMARK    3  A    between atoms: C_14  and  C_17 
REMARK       I    between atoms: N_26  and  C_15 
REMARK    4  A    between atoms: C_15  and  C_16 
REMARK    5  A    between atoms: C_20  and  C_23 
REMARK    6  A    between atoms: OG1_24  and  CB_28 
REMARK    7  A    between atoms: N_26  and  CA_27 
REMARK    8  A    between atoms: CA_27  and  CB_28 
REMARK    9  A    between atoms: CA_27  and  C_30 
ROOT
HETATM    1  O   UNK A   0       1.966   8.112  87.799  1.00  0.00    -0.388 OA
HETATM    2  N   UNK A   0       4.755   7.563  87.657  1.00  0.00     0.096 N 
HETATM    3  C   UNK A   0       4.247   8.939  87.753  1.00  0.00     0.299 C 
HETATM    4  C   UNK A   0       3.768   6.708  86.983  1.00  0.00     0.299 C 
HETATM    5  C   UNK A   0       2.906   8.944  88.482  1.00  0.00     0.198 C 
HETATM    6  C   UNK A   0       2.439   6.767  87.729  1.00  0.00     0.198 C 
ENDROOT
BRANCH   2   7
HETATM    7  C   UNK A   0       6.036   7.533  86.952  1.00  0.00     0.311 C 
BRANCH   7   8
HETATM    8  C   UNK A   0       7.121   6.924  87.773  1.00  0.00    -0.030 A 
HETATM    9  C   UNK A   0       6.897   6.633  89.120  1.00  0.00     0.010 A 
HETATM   10  C   UNK A   0       7.912   6.066  89.889  1.00  0.00     0.021 A 
HETATM   11  C   UNK A   0       9.150   5.787  89.312  1.00  0.00     0.018 A 
HETATM   12  C   UNK A   0       9.376   6.077  87.968  1.00  0.00     0.021 A 
HETATM   13  C   UNK A   0       8.361   6.645  87.198  1.00  0.00     0.010 A 
BRANCH  11  14
HETATM   14  C   UNK A   0      10.191   5.203  90.101  1.00  0.00    -0.061 C 
HETATM   15  C   UNK A   0      11.066   4.712  90.763  1.00  0.00    -0.061 C 
BRANCH  15  16
HETATM   16  C   UNK A   0      12.107   4.129  91.552  1.00  0.00     0.018 A 
HETATM   17  C   UNK A   0      11.858   3.769  92.876  1.00  0.00     0.022 A 
HETATM   18  C   UNK A   0      12.873   3.198  93.645  1.00  0.00     0.018 A 
HETATM   19  C   UNK A   0      14.111   2.999  93.072  1.00  0.00     0.032 A 
HETATM   20  C   UNK A   0      14.382   3.347  91.765  1.00  0.00     0.018 A 
HETATM   21  C   UNK A   0      13.369   3.919  90.996  1.00  0.00     0.022 A 
BRANCH  19  22
HETATM   22  C   UNK A   0      15.192   2.393  93.891  1.00  0.00     0.252 C 
HETATM   23  O   UNK A   0      16.350   2.774  93.734  1.00  0.00    -0.268 OA
ENDBRANCH  19  22
ENDBRANCH  15  16
ENDBRANCH  11  14
ENDBRANCH   7   8
ENDBRANCH   2   7
TORSDOF 9
ENDMDL
MODEL 2
REMARK VINA RESULT:      -7.5      0.510      1.511
REMARK  9 active torsions:
REMARK  status: ('A' for Active; 'I' for Inactive)
REMARK    1  A    between atoms: N_3  and  C_6 
REMARK    2  A    between atoms: C_6  and  C_9 
REMARK    3  A    between atoms: C_14  and  C_17 
REMARK       I    between atoms: N_26  and  C_15 
REMARK    4  A    between atoms: C_15  and  C_16 
REMARK    5  A    between atoms: C_20  and  C_23 
REMARK    6  A    between atoms: OG1_24  and  CB_28 
REMARK    7  A    between atoms: N_26  and  CA_27 
REMARK    8  A    between atoms: CA_27  and  CB_28 
REMARK    9  A    between atoms: CA_27  and  C_30 
ROOT
HETATM    1  O   UNK A   0       1.854   8.903  88.292  1.00  0.00    -0.388 OA
HETATM    2  N   UNK A   0       4.476   7.884  87.859  1.00  0.00     0.096 N 
HETATM    3  C   UNK A   0       4.205   9.328  87.864  1.00  0.00     0.299 C 
HETATM    4  C   UNK A   0       3.283   7.149  87.417  1.00  0.00     0.299 C 
HETATM    5  C   UNK A   0       2.999   9.624  88.752  1.00  0.00     0.198 C 
HETATM    6  C   UNK A   0       2.099   7.496  88.314  1.00  0.00     0.198 C 
ENDROOT
BRANCH   2   7
HETATM    7  C   UNK A   0       5.622   7.575  87.005  1.00  0.00     0.311 C 
BRANCH   7   8
HETATM    8  C   UNK A   0       6.756   6.980  87.769  1.00  0.00    -0.030 A 
HETATM    9  C   UNK A   0       7.997   6.811  87.155  1.00  0.00     0.010 A 
HETATM   10  C   UNK A   0       9.058   6.253  87.868  1.00  0.00     0.021 A 
HETATM   11  C   UNK A   0       8.877   5.866  89.195  1.00  0.00     0.018 A 
HETATM   12  C   UNK A   0       7.638   6.035  89.810  1.00  0.00     0.021 A 
HETATM   13  C   UNK A   0       6.577   6.592  89.097  1.00  0.00     0.010 A 
BRANCH  11  14
HETATM   14  C   UNK A   0       9.965   5.295  89.928  1.00  0.00    -0.061 C 
HETATM   15  C   UNK A   0      10.880   4.814  90.542  1.00  0.00    -0.061 C 
BRANCH  15  16
HETATM   16  C   UNK A   0      11.969   4.244  91.273  1.00  0.00     0.018 A 
HETATM   17  C   UNK A   0      13.212   4.086  90.661  1.00  0.00     0.022 A 
HETATM   18  C   UNK A   0      14.274   3.532  91.375  1.00  0.00     0.018 A 
HETATM   19  C   UNK A   0      14.070   3.149  92.684  1.00  0.00     0.032 A 
HETATM   20  C   UNK A   0      12.851   3.293  93.311  1.00  0.00     0.018 A 
HETATM   21  C   UNK A   0      11.787   3.847  92.598  1.00  0.00     0.022 A 
BRANCH  19  22
HETATM   22  C   UNK A   0      15.202   2.557  93.443  1.00  0.00     0.252 C 
HETATM   23  O   UNK A   0      16.060   3.298  93.916  1.00  0.00    -0.268 OA
ENDBRANCH  19  22
ENDBRANCH  15  16
ENDBRANCH  11  14
ENDBRANCH   7   8
ENDBRANCH   2   7
TORSDOF 9
ENDMDL
MODEL 3
REMARK VINA RESULT:      -6.9      1.516      1.958
REMARK  9 active torsions:
REMARK  status: ('A' for Active; 'I' for Inactive)
REMARK    1  A    between atoms: N_3  and  C_6 
REMARK    2  A    between atoms: C_6  and  C_9 
REMARK    3  A    between atoms: C_14  and  C_17 
REMARK       I    between atoms: N_26  and  C_15 
REMARK    4  A    between atoms: C_15  and  C_16 
REMARK    5  A    between atoms: C_20  and  C_23 
REMARK    6  A    between atoms: OG1_24  and  CB_28 
REMARK    7  A    between atoms: N_26  and  CA_27 
REMARK    8  A    between atoms: CA_27  and  CB_28 
REMARK    9  A    between atoms: CA_27  and  C_30 
ROOT
HETATM    1  O   UNK A   0       3.083  11.366  89.696  1.00  0.00    -0.388 OA
HETATM    2  N   UNK A   0       4.729   9.295  88.646  1.00  0.00     0.096 N 
HETATM    3  C   UNK A   0       3.745   9.993  87.807  1.00  0.00     0.299 C 
HETATM    4  C   UNK A   0       4.281   9.286  90.045  1.00  0.00     0.299 C 
HETATM    5  C   UNK A   0       3.525  11.408  88.338  1.00  0.00     0.198 C 
HETATM    6  C   UNK A   0       4.047  10.715  90.523  1.00  0.00     0.198 C 
ENDROOT
BRANCH   2   7
HETATM    7  C   UNK A   0       4.948   7.933  88.162  1.00  0.00     0.311 C 
BRANCH   7   8
HETATM    8  C   UNK A   0       6.162   7.306  88.757  1.00  0.00    -0.030 A 
HETATM    9  C   UNK A   0       6.039   6.169  89.556  1.00  0.00     0.010 A 
HETATM   10  C   UNK A   0       7.174   5.583  90.116  1.00  0.00     0.021 A 
HETATM   11  C   UNK A   0       8.432   6.134  89.875  1.00  0.00     0.018 A 
HETATM   12  C   UNK A   0       8.557   7.270  89.077  1.00  0.00     0.021 A 
HETATM   13  C   UNK A   0       7.422   7.856  88.518  1.00  0.00     0.010 A 
BRANCH  11  14
HETATM   14  C   UNK A   0       9.597   5.532  90.447  1.00  0.00    -0.061 C 
HETATM   15  C   UNK A   0      10.576   5.025  90.928  1.00  0.00    -0.061 C 
BRANCH  15  16
HETATM   16  C   UNK A   0      11.740   4.423  91.499  1.00  0.00     0.018 A 
HETATM   17  C   UNK A   0      11.711   3.965  92.817  1.00  0.00     0.022 A 
HETATM   18  C   UNK A   0      12.846   3.375  93.373  1.00  0.00     0.018 A 
HETATM   19  C   UNK A   0      13.983   3.255  92.600  1.00  0.00     0.032 A 
HETATM   20  C   UNK A   0      14.036   3.701  91.296  1.00  0.00     0.018 A 
HETATM   21  C   UNK A   0      12.901   4.291  90.739  1.00  0.00     0.022 A 
BRANCH  19  22
HETATM   22  C   UNK A   0      15.192   2.629  93.194  1.00  0.00     0.252 C 
HETATM   23  O   UNK A   0      16.025   3.340  93.749  1.00  0.00    -0.268 OA
ENDBRANCH  19  22
ENDBRANCH  15  16
ENDBRANCH  11  14
ENDBRANCH   7   8
ENDBRANCH   2   7
TORSDOF 9
ENDMDL
MODEL 4
REMARK VINA RESULT:      -6.9      1.662      2.424
REMARK  9 active torsions:
REMARK  status: ('A' for Active; 'I' for Inactive)
REMARK    1  A    between atoms: N_3  and  C_6 
REMARK    2  A    between atoms: C_6  and  C_9 
REMARK    3  A    between atoms: C_14  and  C_17 
REMARK       I    between atoms: N_26  and  C_15 
REMARK    4  A    between atoms: C_15  and  C_16 
REMARK    5  A    between atoms: C_20  and  C_23 
REMARK    6  A    between atoms: OG1_24  and  CB_28 
REMARK    7  A    between atoms: N_26  and  CA_27 
REMARK    8  A    between atoms: CA_27  and  CB_28 
REMARK    9  A    between atoms: CA_27  and  C_30 
ROOT
HETATM    1  O   UNK A   0       2.917  11.529  89.769  1.00  0.00    -0.388 OA
HETATM    2  N   UNK A   0       4.605   9.386  88.955  1.00  0.00     0.096 N 
HETATM    3  C   UNK A   0       3.922  10.241  87.974  1.00  0.00     0.299 C 
HETATM    4  C   UNK A   0       3.821   9.319  90.196  1.00  0.00     0.299 C 
HETATM    5  C   UNK A   0       3.688  11.627  88.570  1.00  0.00     0.198 C 
HETATM    6  C   UNK A   0       3.589  10.725  90.739  1.00  0.00     0.198 C 
ENDROOT
BRANCH   2   7
HETATM    7  C   UNK A   0       4.829   8.049  88.409  1.00  0.00     0.311 C 
BRANCH   7   8
HETATM    8  C   UNK A   0       6.056   7.408  88.963  1.00  0.00    -0.030 A 
HETATM    9  C   UNK A   0       7.273   8.091  88.932  1.00  0.00     0.010 A 
HETATM   10  C   UNK A   0       8.422   7.491  89.447  1.00  0.00     0.021 A 
HETATM   11  C   UNK A   0       8.353   6.211  89.996  1.00  0.00     0.018 A 
HETATM   12  C   UNK A   0       7.139   5.529  90.028  1.00  0.00     0.021 A 
HETATM   13  C   UNK A   0       5.990   6.128  89.512  1.00  0.00     0.010 A 
BRANCH  11  14
HETATM   14  C   UNK A   0       9.531   5.597  90.527  1.00  0.00    -0.061 C 
HETATM   15  C   UNK A   0      10.522   5.082  90.974  1.00  0.00    -0.061 C 
BRANCH  15  16
HETATM   16  C   UNK A   0      11.699   4.469  91.505  1.00  0.00     0.018 A 
HETATM   17  C   UNK A   0      12.781   4.197  90.667  1.00  0.00     0.022 A 
HETATM   18  C   UNK A   0      13.931   3.601  91.187  1.00  0.00     0.018 A 
HETATM   19  C   UNK A   0      13.973   3.293  92.530  1.00  0.00     0.032 A 
HETATM   20  C   UNK A   0      12.917   3.552  93.379  1.00  0.00     0.018 A 
HETATM   21  C   UNK A   0      11.767   4.147  92.860  1.00  0.00     0.022 A 
BRANCH  19  22
HETATM   22  C   UNK A   0      15.197   2.657  93.083  1.00  0.00     0.252 C 
HETATM   23  O   UNK A   0      16.018   3.351  93.676  1.00  0.00    -0.268 OA
ENDBRANCH  19  22
ENDBRANCH  15  16
ENDBRANCH  11  14
ENDBRANCH   7   8
ENDBRANCH   2   7
TORSDOF 9
ENDMDL
MODEL 5
REMARK VINA RESULT:      -6.6      3.927     10.418
REMARK  9 active torsions:
REMARK  status: ('A' for Active; 'I' for Inactive)
REMARK    1  A    between atoms: N_3  and  C_6 
REMARK    2  A    between atoms: C_6  and  C_9 
REMARK    3  A    between atoms: C_14  and  C_17 
REMARK       I    between atoms: N_26  and  C_15 
REMARK    4  A    between atoms: C_15  and  C_16 
REMARK    5  A    between atoms: C_20  and  C_23 
REMARK    6  A    between atoms: OG1_24  and  CB_28 
REMARK    7  A    between atoms: N_26  and  CA_27 
REMARK    8  A    between atoms: CA_27  and  CB_28 
REMARK    9  A    between atoms: CA_27  and  C_30 
ROOT
HETATM    1  O   UNK A   0      14.626   3.359  92.105  1.00  0.00    -0.388 OA
HETATM    2  N   UNK A   0      11.904   4.168  92.297  1.00  0.00     0.096 N 
HETATM    3  C   UNK A   0      12.515   3.285  93.300  1.00  0.00     0.299 C 
HETATM    4  C   UNK A   0      12.560   3.982  90.995  1.00  0.00     0.299 C 
HETATM    5  C   UNK A   0      14.015   3.556  93.381  1.00  0.00     0.198 C 
HETATM    6  C   UNK A   0      14.058   4.235  91.131  1.00  0.00     0.198 C 
ENDROOT
BRANCH   2   7
HETATM    7  C   UNK A   0      10.467   3.918  92.194  1.00  0.00     0.311 C 
BRANCH   7   8
HETATM    8  C   UNK A   0       9.694   5.160  91.906  1.00  0.00    -0.030 A 
HETATM    9  C   UNK A   0       9.952   6.325  92.629  1.00  0.00     0.010 A 
HETATM   10  C   UNK A   0       9.228   7.486  92.361  1.00  0.00     0.021 A 
HETATM   11  C   UNK A   0       8.247   7.482  91.370  1.00  0.00     0.018 A 
HETATM   12  C   UNK A   0       7.989   6.320  90.647  1.00  0.00     0.021 A 
HETATM   13  C   UNK A   0       8.712   5.158  90.915  1.00  0.00     0.010 A 
BRANCH  11  14
HETATM   14  C   UNK A   0       7.506   8.675  91.094  1.00  0.00    -0.061 C 
HETATM   15  C   UNK A   0       6.882   9.676  90.862  1.00  0.00    -0.061 C 
BRANCH  15  16
HETATM   16  C   UNK A   0       6.141  10.868  90.588  1.00  0.00     0.018 A 
HETATM   17  C   UNK A   0       5.272  11.385  91.549  1.00  0.00     0.022 A 
HETATM   18  C   UNK A   0       4.552  12.549  91.282  1.00  0.00     0.018 A 
HETATM   19  C   UNK A   0       4.716  13.169  90.061  1.00  0.00     0.032 A 
HETATM   20  C   UNK A   0       5.569  12.678  89.095  1.00  0.00     0.018 A 
HETATM   21  C   UNK A   0       6.290  11.514  89.361  1.00  0.00     0.022 A 
BRANCH  19  22
HETATM   22  C   UNK A   0       3.947  14.408  89.776  1.00  0.00     0.252 C 
HETATM   23  O   UNK A   0       4.534  15.487  89.756  1.00  0.00    -0.268 OA
ENDBRANCH  19  22
ENDBRANCH  15  16
ENDBRANCH  11  14
ENDBRANCH   7   8
ENDBRANCH   2   7
TORSDOF 9
ENDMDL
MODEL 6
REMARK VINA RESULT:      -6.6      3.533     10.322
REMARK  9 active torsions:
REMARK  status: ('A' for Active; 'I' for Inactive)
REMARK    1  A    between atoms: N_3  and  C_6 
REMARK    2  A    between atoms: C_6  and  C_9 
REMARK    3  A    between atoms: C_14  and  C_17 
REMARK       I    between atoms: N_26  and  C_15 
REMARK    4  A    between atoms: C_15  and  C_16 
REMARK    5  A    between atoms: C_20  and  C_23 
REMARK    6  A    between atoms: OG1_24  and  CB_28 
REMARK    7  A    between atoms: N_26  and  CA_27 
REMARK    8  A    between atoms: CA_27  and  CB_28 
REMARK    9  A    between atoms: CA_27  and  C_30 
ROOT
HETATM    1  O   UNK A   0      16.235   3.161  93.613  1.00  0.00    -0.388 OA
HETATM    2  N   UNK A   0      13.507   2.908  92.844  1.00  0.00     0.096 N 
HETATM    3  C   UNK A   0      14.337   1.729  93.125  1.00  0.00     0.299 C 
HETATM    4  C   UNK A   0      14.345   4.009  92.352  1.00  0.00     0.299 C 
HETATM    5  C   UNK A   0      15.433   2.094  94.124  1.00  0.00     0.198 C 
HETATM    6  C   UNK A   0      15.440   4.321  93.367  1.00  0.00     0.198 C 
ENDROOT
BRANCH   2   7
HETATM    7  C   UNK A   0      12.456   2.583  91.881  1.00  0.00     0.311 C 
BRANCH   7   8
HETATM    8  C   UNK A   0      11.611   3.764  91.542  1.00  0.00    -0.030 A 
HETATM    9  C   UNK A   0      10.898   4.421  92.546  1.00  0.00     0.010 A 
HETATM   10  C   UNK A   0      10.106   5.524  92.230  1.00  0.00     0.021 A 
HETATM   11  C   UNK A   0      10.029   5.971  90.911  1.00  0.00     0.018 A 
HETATM   12  C   UNK A   0      10.740   5.316  89.908  1.00  0.00     0.021 A 
HETATM   13  C   UNK A   0      11.532   4.212  90.224  1.00  0.00     0.010 A 
BRANCH  11  14
HETATM   14  C   UNK A   0       9.217   7.105  90.588  1.00  0.00    -0.061 C 
HETATM   15  C   UNK A   0       8.535   8.057  90.317  1.00  0.00    -0.061 C 
BRANCH  15  16
HETATM   16  C   UNK A   0       7.725   9.190  89.994  1.00  0.00     0.018 A 
HETATM   17  C   UNK A   0       6.349   9.148  90.218  1.00  0.00     0.022 A 
HETATM   18  C   UNK A   0       5.559  10.255  89.906  1.00  0.00     0.018 A 
HETATM   19  C   UNK A   0       6.162  11.377  89.378  1.00  0.00     0.032 A 
HETATM   20  C   UNK A   0       7.520  11.442  89.146  1.00  0.00     0.018 A 
HETATM   21  C   UNK A   0       8.311  10.337  89.458  1.00  0.00     0.022 A 
BRANCH  19  22
HETATM   22  C   UNK A   0       5.320  12.554  89.043  1.00  0.00     0.252 C 
HETATM   23  O   UNK A   0       4.727  12.582  87.968  1.00  0.00    -0.268 OA
ENDBRANCH  19  22
ENDBRANCH  15  16
ENDBRANCH  11  14
ENDBRANCH   7   8
ENDBRANCH   2   7
TORSDOF 9
ENDMDL
MODEL 7
REMARK VINA RESULT:      -6.6      3.912     10.469
REMARK  9 active torsions:
REMARK  status: ('A' for Active; 'I' for Inactive)
REMARK    1  A    between atoms: N_3  and  C_6 
REMARK    2  A    between atoms: C_6  and  C_9 
REMARK    3  A    between atoms: C_14  and  C_17 
REMARK       I    between atoms: N_26  and  C_15 
REMARK    4  A    between atoms: C_15  and  C_16 
REMARK    5  A    between atoms: C_20  and  C_23 
REMARK    6  A    between atoms: OG1_24  and  CB_28 
REMARK    7  A    between atoms: N_26  and  CA_27 
REMARK    8  A    between atoms: CA_27  and  CB_28 
REMARK    9  A    between atoms: CA_27  and  C_30 
ROOT
HETATM    1  O   UNK A   0      14.560   3.298  92.184  1.00  0.00    -0.388 OA
HETATM    2  N   UNK A   0      11.837   4.124  92.258  1.00  0.00     0.096 N 
HETATM    3  C   UNK A   0      12.413   3.281  93.315  1.00  0.00     0.299 C 
HETATM    4  C   UNK A   0      12.532   3.882  90.986  1.00  0.00     0.299 C 
HETATM    5  C   UNK A   0      13.911   3.550  93.431  1.00  0.00     0.198 C 
HETATM    6  C   UNK A   0      14.027   4.135  91.157  1.00  0.00     0.198 C 
ENDROOT
BRANCH   2   7
HETATM    7  C   UNK A   0      10.403   3.875  92.122  1.00  0.00     0.311 C 
BRANCH   7   8
HETATM    8  C   UNK A   0       9.633   5.123  91.853  1.00  0.00    -0.030 A 
HETATM    9  C   UNK A   0       8.617   5.123  90.897  1.00  0.00     0.010 A 
HETATM   10  C   UNK A   0       7.897   6.290  90.644  1.00  0.00     0.021 A 
HETATM   11  C   UNK A   0       8.193   7.457  91.348  1.00  0.00     0.018 A 
HETATM   12  C   UNK A   0       9.207   7.459  92.303  1.00  0.00     0.021 A 
HETATM   13  C   UNK A   0       9.928   6.291  92.556  1.00  0.00     0.010 A 
BRANCH  11  14
HETATM   14  C   UNK A   0       7.453   8.654  91.089  1.00  0.00    -0.061 C 
HETATM   15  C   UNK A   0       6.832   9.661  90.872  1.00  0.00    -0.061 C 
BRANCH  15  16
HETATM   16  C   UNK A   0       6.094  10.857  90.614  1.00  0.00     0.018 A 
HETATM   17  C   UNK A   0       6.178  11.471  89.363  1.00  0.00     0.022 A 
HETATM   18  C   UNK A   0       5.455  12.637  89.110  1.00  0.00     0.018 A 
HETATM   19  C   UNK A   0       4.666  13.162  90.111  1.00  0.00     0.032 A 
HETATM   20  C   UNK A   0       4.567  12.575  91.355  1.00  0.00     0.018 A 
HETATM   21  C   UNK A   0       5.289  11.409  91.610  1.00  0.00     0.022 A 
BRANCH  19  22
HETATM   22  C   UNK A   0       3.898  14.406  89.842  1.00  0.00     0.252 C 
HETATM   23  O   UNK A   0       4.504  15.462  89.684  1.00  0.00    -0.268 OA
ENDBRANCH  19  22
ENDBRANCH  15  16
ENDBRANCH  11  14
ENDBRANCH   7   8
ENDBRANCH   2   7
TORSDOF 9
ENDMDL
MODEL 8
REMARK VINA RESULT:      -6.5      1.360      1.736
REMARK  9 active torsions:
REMARK  status: ('A' for Active; 'I' for Inactive)
REMARK    1  A    between atoms: N_3  and  C_6 
REMARK    2  A    between atoms: C_6  and  C_9 
REMARK    3  A    between atoms: C_14  and  C_17 
REMARK       I    between atoms: N_26  and  C_15 
REMARK    4  A    between atoms: C_15  and  C_16 
REMARK    5  A    between atoms: C_20  and  C_23 
REMARK    6  A    between atoms: OG1_24  and  CB_28 
REMARK    7  A    between atoms: N_26  and  CA_27 
REMARK    8  A    between atoms: CA_27  and  CB_28 
REMARK    9  A    between atoms: CA_27  and  C_30 
ROOT
HETATM    1  O   UNK A   0       1.511   8.731  89.134  1.00  0.00    -0.388 OA
HETATM    2  N   UNK A   0       4.356   8.639  89.077  1.00  0.00     0.096 N 
HETATM    3  C   UNK A   0       3.629   9.218  90.215  1.00  0.00     0.299 C 
HETATM    4  C   UNK A   0       3.566   8.790  87.846  1.00  0.00     0.299 C 
HETATM    5  C   UNK A   0       2.257   8.560  90.341  1.00  0.00     0.198 C 
HETATM    6  C   UNK A   0       2.196   8.144  88.028  1.00  0.00     0.198 C 
ENDROOT
BRANCH   2   7
HETATM    7  C   UNK A   0       5.670   9.262  88.931  1.00  0.00     0.311 C 
BRANCH   7   8
HETATM    8  C   UNK A   0       6.766   8.407  89.470  1.00  0.00    -0.030 A 
HETATM    9  C   UNK A   0       6.736   7.027  89.270  1.00  0.00     0.010 A 
HETATM   10  C   UNK A   0       7.760   6.226  89.776  1.00  0.00     0.021 A 
HETATM   11  C   UNK A   0       8.815   6.807  90.479  1.00  0.00     0.018 A 
HETATM   12  C   UNK A   0       8.847   8.186  90.679  1.00  0.00     0.021 A 
HETATM   13  C   UNK A   0       7.822   8.987  90.174  1.00  0.00     0.010 A 
BRANCH  11  14
HETATM   14  C   UNK A   0       9.866   5.986  90.996  1.00  0.00    -0.061 C 
HETATM   15  C   UNK A   0      10.750   5.296  91.431  1.00  0.00    -0.061 C 
BRANCH  15  16
HETATM   16  C   UNK A   0      11.800   4.475  91.948  1.00  0.00     0.018 A 
HETATM   17  C   UNK A   0      11.713   3.968  93.245  1.00  0.00     0.022 A 
HETATM   18  C   UNK A   0      12.737   3.165  93.748  1.00  0.00     0.018 A 
HETATM   19  C   UNK A   0      13.822   2.886  92.943  1.00  0.00     0.032 A 
HETATM   20  C   UNK A   0      13.931   3.375  91.658  1.00  0.00     0.018 A 
HETATM   21  C   UNK A   0      12.908   4.179  91.155  1.00  0.00     0.022 A 
BRANCH  19  22
HETATM   22  C   UNK A   0      14.913   2.032  93.480  1.00  0.00     0.252 C 
HETATM   23  O   UNK A   0      16.011   2.534  93.708  1.00  0.00    -0.268 OA
ENDBRANCH  19  22
ENDBRANCH  15  16
ENDBRANCH  11  14
ENDBRANCH   7   8
ENDBRANCH   2   7
TORSDOF 9
ENDMDL
MODEL 9
REMARK VINA RESULT:      -6.4      1.779      2.846
REMARK  9 active torsions:
REMARK  status: ('A' for Active; 'I' for Inactive)
REMARK    1  A    between atoms: N_3  and  C_6 
REMARK    2  A    between atoms: C_6  and  C_9 
REMARK    3  A    between atoms: C_14  and  C_17 
REMARK       I    between atoms: N_26  and  C_15 
REMARK    4  A    between atoms: C_15  and  C_16 
REMARK    5  A    between atoms: C_20  and  C_23 
REMARK    6  A    between atoms: OG1_24  and  CB_28 
REMARK    7  A    between atoms: N_26  and  CA_27 
REMARK    8  A    between atoms: CA_27  and  CB_28 
REMARK    9  A    between atoms: CA_27  and  C_30 
ROOT
HETATM    1  O   UNK A   0       2.255   8.786  87.870  1.00  0.00    -0.388 OA
HETATM    2  N   UNK A   0       3.899   7.726  89.938  1.00  0.00     0.096 N 
HETATM    3  C   UNK A   0       2.620   7.099  89.576  1.00  0.00     0.299 C 
HETATM    4  C   UNK A   0       3.851   9.167  89.658  1.00  0.00     0.299 C 
HETATM    5  C   UNK A   0       2.304   7.378  88.109  1.00  0.00     0.198 C 
HETATM    6  C   UNK A   0       3.505   9.399  88.190  1.00  0.00     0.198 C 
ENDROOT
BRANCH   2   7
HETATM    7  C   UNK A   0       4.217   7.480  91.343  1.00  0.00     0.311 C 
BRANCH   7   8
HETATM    8  C   UNK A   0       5.576   6.893  91.524  1.00  0.00    -0.030 A 
HETATM    9  C   UNK A   0       6.263   6.375  90.425  1.00  0.00     0.010 A 
HETATM   10  C   UNK A   0       7.533   5.824  90.594  1.00  0.00     0.021 A 
HETATM   11  C   UNK A   0       8.116   5.794  91.860  1.00  0.00     0.018 A 
HETATM   12  C   UNK A   0       7.431   6.311  92.958  1.00  0.00     0.021 A 
HETATM   13  C   UNK A   0       6.161   6.861  92.790  1.00  0.00     0.010 A 
BRANCH  11  14
HETATM   14  C   UNK A   0       9.420   5.230  92.032  1.00  0.00    -0.061 C 
HETATM   15  C   UNK A   0      10.516   4.758  92.177  1.00  0.00    -0.061 C 
BRANCH  15  16
HETATM   16  C   UNK A   0      11.820   4.196  92.349  1.00  0.00     0.018 A 
HETATM   17  C   UNK A   0      12.743   4.244  91.304  1.00  0.00     0.022 A 
HETATM   18  C   UNK A   0      14.015   3.698  91.474  1.00  0.00     0.018 A 
HETATM   19  C   UNK A   0      14.336   3.118  92.683  1.00  0.00     0.032 A 
HETATM   20  C   UNK A   0      13.441   3.057  93.731  1.00  0.00     0.018 A 
HETATM   21  C   UNK A   0      12.168   3.603  93.563  1.00  0.00     0.022 A 
BRANCH  19  22
HETATM   22  C   UNK A   0      15.691   2.534  92.862  1.00  0.00     0.252 C 
HETATM   23  O   UNK A   0      16.412   2.959  93.762  1.00  0.00    -0.268 OA
ENDBRANCH  19  22
ENDBRANCH  15  16
ENDBRANCH  11  14
ENDBRANCH   7   8
ENDBRANCH   2   7
TORSDOF 9
ENDMDL
