MODEL 1
REMARK VINA RESULT:      -6.8      0.000      0.000
REMARK  10 active torsions:
REMARK  status: ('A' for Active; 'I' for Inactive)
REMARK    1  A    between atoms: O_2  and  C_16 
REMARK    2  A    between atoms: N_5  and  C_9 
REMARK    3  A    between atoms: N_6  and  C_13 
REMARK       I    between atoms: N_6  and  C_22 
REMARK    4  A    between atoms: C_9  and  C_12 
REMARK    5  A    between atoms: C_13  and  C_16 
REMARK    6  A    between atoms: C_13  and  C_21 
REMARK    7  A    between atoms: C_19  and  C_24 
REMARK    8  A    between atoms: C_22  and  C_23 
REMARK    9  A    between atoms: C_27  and  C_30 
REMARK   10  A    between atoms: N_33  and  S_34 
ROOT
HETATM    1  C   UNL     1       5.363  10.490  91.220  1.00  0.00     0.056 A 
HETATM    2  C   UNL     1       5.350   9.437  90.330  1.00  0.00     0.005 A 
HETATM    3  C   UNL     1       6.294  10.586  92.234  1.00  0.00     0.005 A 
HETATM    4  C   UNL     1       7.262   8.506  91.477  1.00  0.00     0.042 A 
HETATM    5  C   UNL     1       6.310   8.433  90.460  1.00  0.00     0.008 A 
HETATM    6  C   UNL     1       7.254   9.583  92.364  1.00  0.00     0.008 A 
ENDROOT
BRANCH   1   7
HETATM    7  C   UNL     1       4.342  11.560  91.081  1.00  0.00     0.254 C 
HETATM    8  O   UNL     1       3.186  11.253  90.801  1.00  0.00    -0.268 OA
HETATM    9  N   UNL     1       4.784  12.856  91.308  1.00  0.00    -0.337 N 
HETATM   10  HN  UNL     1       5.750  13.032  91.559  1.00  0.00     0.164 HD
BRANCH   9  11
HETATM   11  C   UNL     1       3.909  13.998  91.234  1.00  0.00     0.172 C 
BRANCH  11  12
HETATM   12  C   UNL     1       3.711  14.503  89.799  1.00  0.00     0.136 C 
HETATM   13  C   UNL     1       5.020  14.928  89.143  1.00  0.00     0.034 C 
BRANCH  12  14
HETATM   14  O   UNL     1       3.109  13.476  89.011  1.00  0.00    -0.383 OA
HETATM   15  H   UNL     1       3.644  13.355  88.208  1.00  0.00     0.210 HD
ENDBRANCH  12  14
ENDBRANCH  11  12
BRANCH  11  16
HETATM   16  C   UNL     1       2.580  13.609  91.874  1.00  0.00     0.398 A 
HETATM   17  O   UNL     1       1.507  14.114  91.549  1.00  0.00    -0.136 OA
HETATM   18  N   UNL     1       1.609  14.017  93.063  1.00  0.00     0.142 N 
HETATM   19  HN  UNL     1       0.709  14.402  93.004  1.00  0.00     0.338 HD
BRANCH  18  20
HETATM   20  S   UNL     1       2.513  13.904  94.113  1.00  0.00     0.076 SA
HETATM   21  H   UNL     1       3.426  13.161  93.951  1.00  0.00     0.136 HD
ENDBRANCH  18  20
ENDBRANCH  11  16
ENDBRANCH   9  11
ENDBRANCH   1   7
BRANCH   4  22
HETATM   22  C   UNL     1       8.244   7.476  91.612  1.00  0.00    -0.059 C 
HETATM   23  C   UNL     1       9.069   6.609  91.725  1.00  0.00    -0.059 C 
BRANCH  23  24
HETATM   24  C   UNL     1      10.052   5.578  91.858  1.00  0.00     0.042 A 
HETATM   25  C   UNL     1      10.481   5.186  93.126  1.00  0.00     0.008 A 
HETATM   26  C   UNL     1      11.441   4.182  93.257  1.00  0.00    -0.002 A 
HETATM   27  C   UNL     1      11.969   3.570  92.119  1.00  0.00     0.011 A 
HETATM   28  C   UNL     1      11.538   3.963  90.852  1.00  0.00    -0.002 A 
HETATM   29  C   UNL     1      10.579   4.967  90.722  1.00  0.00     0.008 A 
BRANCH  27  30
HETATM   30  C   UNL     1      12.993   2.495  92.260  1.00  0.00     0.277 C 
BRANCH  30  31
HETATM   31  N   UNL     1      14.066   2.866  93.182  1.00  0.00     0.147 N 
HETATM   32  C   UNL     1      15.137   1.860  93.164  1.00  0.00     0.283 C 
HETATM   33  C   UNL     1      16.250   2.273  94.124  1.00  0.00     0.178 C 
HETATM   34  O   UNL     1      16.764   3.557  93.766  1.00  0.00    -0.350 OA
HETATM   35  C   UNL     1      15.735   4.546  93.811  1.00  0.00     0.178 C 
HETATM   36  C   UNL     1      14.610   4.188  92.845  1.00  0.00     0.283 C 
ENDBRANCH  30  31
ENDBRANCH  27  30
ENDBRANCH  23  24
ENDBRANCH   4  22
TORSDOF 10
ENDMDL
