MODEL 1
REMARK VINA RESULT:      -6.9      0.000      0.000
REMARK  10 active torsions:
REMARK  status: ('A' for Active; 'I' for Inactive)
REMARK    1  A    between atoms: O_2  and  C_18 
REMARK    2  A    between atoms: O_5  and  N_8 
REMARK    3  A    between atoms: N_6  and  C_11 
REMARK    4  A    between atoms: N_7  and  C_15 
REMARK       I    between atoms: N_7  and  C_24 
REMARK       I    between atoms: N_8  and  C_23 
REMARK    5  A    between atoms: C_11  and  C_14 
REMARK    6  A    between atoms: C_15  and  C_18 
REMARK    7  A    between atoms: C_15  and  C_23 
REMARK    8  A    between atoms: C_21  and  C_26 
REMARK    9  A    between atoms: C_24  and  C_25 
REMARK   10  A    between atoms: C_29  and  C_32 
ROOT
HETATM    1  O   UNK     0      16.314   4.343  94.004  0.00  0.00    -0.388 OA
HETATM    2  N   UNK     0      14.648   2.536  92.568  0.00  0.00     0.096 N 
HETATM    3  C   UNK     0      14.490   3.991  92.442  0.00  0.00     0.299 C 
HETATM    4  C   UNK     0      15.181   2.200  93.895  0.00  0.00     0.299 C 
HETATM    5  C   UNK     0      15.826   4.681  92.704  0.00  0.00     0.198 C 
HETATM    6  C   UNK     0      16.500   2.932  94.124  0.00  0.00     0.198 C 
ENDROOT
BRANCH   2   7
HETATM    7  C   UNK     0      13.377   1.854  92.331  0.00  0.00     0.311 C 
BRANCH   7   8
HETATM    8  C   UNK     0      12.251   2.809  92.123  0.00  0.00    -0.030 A 
HETATM    9  C   UNK     0      11.814   3.611  93.178  0.00  0.00     0.010 A 
HETATM   10  C   UNK     0      10.759   4.503  92.984  0.00  0.00     0.021 A 
HETATM   11  C   UNK     0      10.144   4.593  91.736  0.00  0.00     0.018 A 
HETATM   12  C   UNK     0      10.580   3.793  90.682  0.00  0.00     0.021 A 
HETATM   13  C   UNK     0      11.634   2.901  90.875  0.00  0.00     0.010 A 
BRANCH  11  14
HETATM   14  C   UNK     0       9.063   5.510  91.538  0.00  0.00    -0.061 C 
HETATM   15  C   UNK     0       8.155   6.280  91.370  0.00  0.00    -0.061 C 
BRANCH  15  16
HETATM   16  C   UNK     0       7.077   7.196  91.171  0.00  0.00     0.018 A 
HETATM   17  C   UNK     0       6.873   8.239  92.076  0.00  0.00     0.022 A 
HETATM   18  C   UNK     0       5.822   9.135  91.881  0.00  0.00     0.018 A 
HETATM   19  C   UNK     0       4.999   8.969  90.787  0.00  0.00     0.032 A 
HETATM   20  C   UNK     0       5.178   7.947  89.879  0.00  0.00     0.018 A 
HETATM   21  C   UNK     0       6.229   7.050  90.074  0.00  0.00     0.022 A 
BRANCH  19  22
HETATM   22  C   UNK     0       3.878   9.923  90.581  0.00  0.00     0.252 C 
HETATM   23  O   UNK     0       2.722   9.520  90.682  0.00  0.00    -0.268 OA
HETATM   24  N   UNK     0       4.238  11.234  90.305  0.00  0.00    -0.341 N 
HETATM   25  H   UNK     0       5.215  11.499  90.261  0.00  0.00     0.163 HD
BRANCH  24  26
HETATM   26  C   UNK     0       3.267  12.280  90.105  0.00  0.00     0.207 C 
BRANCH  26  27
HETATM   27  C   UNK     0       2.914  13.018  91.402  0.00  0.00     0.146 C 
HETATM   28  C   UNK     0       4.130  13.670  92.052  0.00  0.00     0.042 C 
BRANCH  27  29
HETATM   29  O   UNK     0       1.940  14.025  91.129  0.00  0.00    -0.393 OA
HETATM   30  H   UNK     0       1.640  14.397  91.975  0.00  0.00     0.210 HD
ENDBRANCH  27  29
ENDBRANCH  26  27
BRANCH  26  31
HETATM   31  C   UNK     0       3.823  13.237  89.056  0.00  0.00     0.266 C 
HETATM   32  O   UNK     0       3.843  14.457  89.206  0.00  0.00    -0.269 OA
HETATM   33  N   UNK     0       4.253  12.579  87.929  0.00  0.00    -0.236 N 
HETATM   34  H   UNK     0       4.170  11.588  87.736  0.00  0.00     0.197 HD
BRANCH  33  35
HETATM   35  O   UNK     0       4.744  13.392  86.898  0.00  0.00    -0.287 OA
HETATM   36  H   UNK     0       3.943  13.896  86.676  0.00  0.00     0.244 HD
ENDBRANCH  33  35
ENDBRANCH  26  31
ENDBRANCH  24  26
ENDBRANCH  19  22
ENDBRANCH  15  16
ENDBRANCH  11  14
ENDBRANCH   7   8
ENDBRANCH   2   7
TORSDOF 10
ENDMDL
MODEL 2
REMARK VINA RESULT:      -6.5      1.373      2.065
REMARK  10 active torsions:
REMARK  status: ('A' for Active; 'I' for Inactive)
REMARK    1  A    between atoms: O_2  and  C_18 
REMARK    2  A    between atoms: O_5  and  N_8 
REMARK    3  A    between atoms: N_6  and  C_11 
REMARK    4  A    between atoms: N_7  and  C_15 
REMARK       I    between atoms: N_7  and  C_24 
REMARK       I    between atoms: N_8  and  C_23 
REMARK    5  A    between atoms: C_11  and  C_14 
REMARK    6  A    between atoms: C_15  and  C_18 
REMARK    7  A    between atoms: C_15  and  C_23 
REMARK    8  A    between atoms: C_21  and  C_26 
REMARK    9  A    between atoms: C_24  and  C_25 
REMARK   10  A    between atoms: C_29  and  C_32 
ROOT
HETATM    1  O   UNK     0      16.530   3.115  93.743  0.00  0.00    -0.388 OA
HETATM    2  N   UNK     0      13.906   2.872  92.665  0.00  0.00     0.096 N 
HETATM    3  C   UNK     0      14.713   1.689  92.995  0.00  0.00     0.299 C 
HETATM    4  C   UNK     0      14.783   3.996  92.308  0.00  0.00     0.299 C 
HETATM    5  C   UNK     0      15.686   2.026  94.122  0.00  0.00     0.198 C 
HETATM    6  C   UNK     0      15.754   4.278  93.450  0.00  0.00     0.198 C 
ENDROOT
BRANCH   2   7
HETATM    7  C   UNK     0      12.973   2.576  91.580  0.00  0.00     0.311 C 
BRANCH   7   8
HETATM    8  C   UNK     0      11.843   3.547  91.521  0.00  0.00    -0.030 A 
HETATM    9  C   UNK     0      11.564   4.220  90.331  0.00  0.00     0.010 A 
HETATM   10  C   UNK     0      10.508   5.129  90.276  0.00  0.00     0.021 A 
HETATM   11  C   UNK     0       9.731   5.364  91.410  0.00  0.00     0.018 A 
HETATM   12  C   UNK     0      10.009   4.692  92.598  0.00  0.00     0.021 A 
HETATM   13  C   UNK     0      11.065   3.783  92.654  0.00  0.00     0.010 A 
BRANCH  11  14
HETATM   14  C   UNK     0       8.647   6.296  91.352  0.00  0.00    -0.061 C 
HETATM   15  C   UNK     0       7.736   7.079  91.304  0.00  0.00    -0.061 C 
BRANCH  15  16
HETATM   16  C   UNK     0       6.653   8.009  91.248  0.00  0.00     0.018 A 
HETATM   17  C   UNK     0       5.348   7.549  91.068  0.00  0.00     0.022 A 
HETATM   18  C   UNK     0       4.290   8.457  91.015  0.00  0.00     0.018 A 
HETATM   19  C   UNK     0       4.560   9.804  91.144  0.00  0.00     0.032 A 
HETATM   20  C   UNK     0       5.840  10.284  91.323  0.00  0.00     0.018 A 
HETATM   21  C   UNK     0       6.899   9.376  91.375  0.00  0.00     0.022 A 
BRANCH  19  22
HETATM   22  C   UNK     0       3.433  10.770  91.086  0.00  0.00     0.252 C 
HETATM   23  O   UNK     0       2.332  10.385  90.701  0.00  0.00    -0.268 OA
HETATM   24  N   UNK     0       3.718  12.062  91.507  0.00  0.00    -0.341 N 
HETATM   25  H   UNK     0       4.646  12.301  91.836  0.00  0.00     0.163 HD
BRANCH  24  26
HETATM   26  C   UNK     0       2.725  13.106  91.532  0.00  0.00     0.207 C 
BRANCH  26  27
HETATM   27  C   UNK     0       2.604  13.777  92.906  0.00  0.00     0.146 C 
HETATM   28  C   UNK     0       1.756  12.965  93.879  0.00  0.00     0.042 C 
BRANCH  27  29
HETATM   29  O   UNK     0       3.905  13.958  93.465  0.00  0.00    -0.393 OA
HETATM   30  H   UNK     0       4.555  13.918  92.743  0.00  0.00     0.210 HD
ENDBRANCH  27  29
ENDBRANCH  26  27
BRANCH  26  31
HETATM   31  C   UNK     0       3.086  14.119  90.451  0.00  0.00     0.266 C 
HETATM   32  O   UNK     0       2.269  14.554  89.641  0.00  0.00    -0.269 OA
HETATM   33  N   UNK     0       4.421  14.445  90.470  0.00  0.00    -0.236 N 
HETATM   34  H   UNK     0       5.136  14.040  91.063  0.00  0.00     0.197 HD
BRANCH  33  35
HETATM   35  O   UNK     0       4.843  15.344  89.481  0.00  0.00    -0.287 OA
HETATM   36  H   UNK     0       4.075  15.323  88.886  0.00  0.00     0.244 HD
ENDBRANCH  33  35
ENDBRANCH  26  31
ENDBRANCH  24  26
ENDBRANCH  19  22
ENDBRANCH  15  16
ENDBRANCH  11  14
ENDBRANCH   7   8
ENDBRANCH   2   7
TORSDOF 10
ENDMDL
MODEL 3
REMARK VINA RESULT:      -5.5      2.567     12.731
REMARK  10 active torsions:
REMARK  status: ('A' for Active; 'I' for Inactive)
REMARK    1  A    between atoms: O_2  and  C_18 
REMARK    2  A    between atoms: O_5  and  N_8 
REMARK    3  A    between atoms: N_6  and  C_11 
REMARK    4  A    between atoms: N_7  and  C_15 
REMARK       I    between atoms: N_7  and  C_24 
REMARK       I    between atoms: N_8  and  C_23 
REMARK    5  A    between atoms: C_11  and  C_14 
REMARK    6  A    between atoms: C_15  and  C_18 
REMARK    7  A    between atoms: C_15  and  C_23 
REMARK    8  A    between atoms: C_21  and  C_26 
REMARK    9  A    between atoms: C_24  and  C_25 
REMARK   10  A    between atoms: C_29  and  C_32 
ROOT
HETATM    1  O   UNK     0       2.008  15.624  93.203  0.00  0.00    -0.388 OA
HETATM    2  N   UNK     0       3.385  13.520  91.869  0.00  0.00     0.096 N 
HETATM    3  C   UNK     0       3.980  14.856  92.014  0.00  0.00     0.299 C 
HETATM    4  C   UNK     0       1.920  13.622  91.835  0.00  0.00     0.299 C 
HETATM    5  C   UNK     0       3.432  15.532  93.269  0.00  0.00     0.198 C 
HETATM    6  C   UNK     0       1.421  14.327  93.093  0.00  0.00     0.198 C 
ENDROOT
BRANCH   2   7
HETATM    7  C   UNK     0       3.888  12.858  90.667  0.00  0.00     0.311 C 
BRANCH   7   8
HETATM    8  C   UNK     0       4.836  11.751  90.982  0.00  0.00    -0.030 A 
HETATM    9  C   UNK     0       5.941  11.526  90.160  0.00  0.00     0.010 A 
HETATM   10  C   UNK     0       6.828  10.490  90.453  0.00  0.00     0.021 A 
HETATM   11  C   UNK     0       6.609   9.681  91.568  0.00  0.00     0.018 A 
HETATM   12  C   UNK     0       5.506   9.905  92.389  0.00  0.00     0.021 A 
HETATM   13  C   UNK     0       4.619  10.941  92.096  0.00  0.00     0.010 A 
BRANCH  11  14
HETATM   14  C   UNK     0       7.520   8.619  91.869  0.00  0.00    -0.061 C 
HETATM   15  C   UNK     0       8.285   7.727  92.123  0.00  0.00    -0.061 C 
BRANCH  15  16
HETATM   16  C   UNK     0       9.196   6.668  92.424  0.00  0.00     0.018 A 
HETATM   17  C   UNK     0       9.653   6.493  93.731  0.00  0.00     0.022 A 
HETATM   18  C   UNK     0      10.540   5.458  94.025  0.00  0.00     0.018 A 
HETATM   19  C   UNK     0      10.950   4.621  93.008  0.00  0.00     0.032 A 
HETATM   20  C   UNK     0      10.513   4.773  91.709  0.00  0.00     0.018 A 
HETATM   21  C   UNK     0       9.626   5.808  91.414  0.00  0.00     0.022 A 
BRANCH  19  22
HETATM   22  C   UNK     0      11.896   3.519  93.322  0.00  0.00     0.252 C 
HETATM   23  O   UNK     0      11.463   2.378  93.464  0.00  0.00    -0.268 OA
HETATM   24  N   UNK     0      13.235   3.874  93.409  0.00  0.00    -0.341 N 
HETATM   25  H   UNK     0      13.522   4.834  93.255  0.00  0.00     0.163 HD
BRANCH  24  26
HETATM   26  C   UNK     0      14.276   2.916  93.682  0.00  0.00     0.207 C 
BRANCH  26  27
HETATM   27  C   UNK     0      14.381   1.830  92.604  0.00  0.00     0.146 C 
HETATM   28  C   UNK     0      15.204   2.279  91.402  0.00  0.00     0.042 C 
BRANCH  27  29
HETATM   29  O   UNK     0      14.977   0.659  93.162  0.00  0.00    -0.393 OA
HETATM   30  H   UNK     0      15.332   0.121  92.434  0.00  0.00     0.210 HD
ENDBRANCH  27  29
ENDBRANCH  26  27
BRANCH  26  31
HETATM   31  C   UNK     0      15.587   3.681  93.829  0.00  0.00     0.266 C 
HETATM   32  O   UNK     0      16.684   3.128  93.869  0.00  0.00    -0.269 OA
HETATM   33  N   UNK     0      15.388   5.035  93.947  0.00  0.00    -0.236 N 
HETATM   34  H   UNK     0      14.497   5.514  94.007  0.00  0.00     0.197 HD
BRANCH  33  35
HETATM   35  O   UNK     0      16.543   5.809  94.124  0.00  0.00    -0.287 OA
HETATM   36  H   UNK     0      16.440   6.446  93.397  0.00  0.00     0.244 HD
ENDBRANCH  33  35
ENDBRANCH  26  31
ENDBRANCH  24  26
ENDBRANCH  19  22
ENDBRANCH  15  16
ENDBRANCH  11  14
ENDBRANCH   7   8
ENDBRANCH   2   7
TORSDOF 10
ENDMDL
MODEL 4
REMARK VINA RESULT:      -5.4      1.343      2.396
REMARK  10 active torsions:
REMARK  status: ('A' for Active; 'I' for Inactive)
REMARK    1  A    between atoms: O_2  and  C_18 
REMARK    2  A    between atoms: O_5  and  N_8 
REMARK    3  A    between atoms: N_6  and  C_11 
REMARK    4  A    between atoms: N_7  and  C_15 
REMARK       I    between atoms: N_7  and  C_24 
REMARK       I    between atoms: N_8  and  C_23 
REMARK    5  A    between atoms: C_11  and  C_14 
REMARK    6  A    between atoms: C_15  and  C_18 
REMARK    7  A    between atoms: C_15  and  C_23 
REMARK    8  A    between atoms: C_21  and  C_26 
REMARK    9  A    between atoms: C_24  and  C_25 
REMARK   10  A    between atoms: C_29  and  C_32 
ROOT
HETATM    1  O   UNK     0      15.975   4.401  93.410  0.00  0.00    -0.388 OA
HETATM    2  N   UNK     0      14.185   2.472  92.326  0.00  0.00     0.096 N 
HETATM    3  C   UNK     0      14.517   3.705  91.599  0.00  0.00     0.299 C 
HETATM    4  C   UNK     0      14.285   2.699  93.774  0.00  0.00     0.299 C 
HETATM    5  C   UNK     0      15.912   4.181  92.000  0.00  0.00     0.198 C 
HETATM    6  C   UNK     0      15.684   3.199  94.124  0.00  0.00     0.198 C 
ENDROOT
BRANCH   2   7
HETATM    7  C   UNK     0      12.848   2.004  91.965  0.00  0.00     0.311 C 
BRANCH   7   8
HETATM    8  C   UNK     0      11.871   3.122  91.831  0.00  0.00    -0.030 A 
HETATM    9  C   UNK     0      11.379   3.469  90.572  0.00  0.00     0.010 A 
HETATM   10  C   UNK     0      10.466   4.516  90.445  0.00  0.00     0.021 A 
HETATM   11  C   UNK     0      10.045   5.214  91.577  0.00  0.00     0.018 A 
HETATM   12  C   UNK     0      10.536   4.868  92.834  0.00  0.00     0.021 A 
HETATM   13  C   UNK     0      11.449   3.821  92.961  0.00  0.00     0.010 A 
BRANCH  11  14
HETATM   14  C   UNK     0       9.108   6.287  91.446  0.00  0.00    -0.061 C 
HETATM   15  C   UNK     0       8.320   7.189  91.337  0.00  0.00    -0.061 C 
BRANCH  15  16
HETATM   16  C   UNK     0       7.384   8.260  91.208  0.00  0.00     0.018 A 
HETATM   17  C   UNK     0       7.018   9.004  92.331  0.00  0.00     0.022 A 
HETATM   18  C   UNK     0       6.105  10.052  92.205  0.00  0.00     0.018 A 
HETATM   19  C   UNK     0       5.580  10.333  90.961  0.00  0.00     0.032 A 
HETATM   20  C   UNK     0       5.924   9.613  89.837  0.00  0.00     0.018 A 
HETATM   21  C   UNK     0       6.836   8.564  89.962  0.00  0.00     0.022 A 
BRANCH  19  22
HETATM   22  C   UNK     0       4.606  11.447  90.829  0.00  0.00     0.252 C 
HETATM   23  O   UNK     0       3.459  11.201  90.466  0.00  0.00    -0.268 OA
HETATM   24  N   UNK     0       5.079  12.710  91.158  0.00  0.00    -0.341 N 
HETATM   25  H   UNK     0       6.034  12.834  91.474  0.00  0.00     0.163 HD
BRANCH  24  26
HETATM   26  C   UNK     0       4.250  13.887  91.104  0.00  0.00     0.207 C 
BRANCH  26  27
HETATM   27  C   UNK     0       3.883  14.289  89.670  0.00  0.00     0.146 C 
HETATM   28  C   UNK     0       5.067  14.191  88.714  0.00  0.00     0.042 C 
BRANCH  27  29
HETATM   29  O   UNK     0       2.832  13.449  89.193  0.00  0.00    -0.393 OA
HETATM   30  H   UNK     0       2.192  13.322  89.914  0.00  0.00     0.210 HD
ENDBRANCH  27  29
ENDBRANCH  26  27
BRANCH  26  31
HETATM   31  C   UNK     0       3.004  13.618  91.941  0.00  0.00     0.266 C 
HETATM   32  O   UNK     0       1.875  13.958  91.590  0.00  0.00    -0.269 OA
HETATM   33  N   UNK     0       3.301  12.996  93.129  0.00  0.00    -0.236 N 
HETATM   34  H   UNK     0       4.224  12.783  93.488  0.00  0.00     0.197 HD
BRANCH  33  35
HETATM   35  O   UNK     0       2.212  12.747  93.976  0.00  0.00    -0.287 OA
HETATM   36  H   UNK     0       1.474  12.957  93.379  0.00  0.00     0.244 HD
ENDBRANCH  33  35
ENDBRANCH  26  31
ENDBRANCH  24  26
ENDBRANCH  19  22
ENDBRANCH  15  16
ENDBRANCH  11  14
ENDBRANCH   7   8
ENDBRANCH   2   7
TORSDOF 10
ENDMDL
MODEL 5
REMARK VINA RESULT:      -5.3      1.965     12.532
REMARK  10 active torsions:
REMARK  status: ('A' for Active; 'I' for Inactive)
REMARK    1  A    between atoms: O_2  and  C_18 
REMARK    2  A    between atoms: O_5  and  N_8 
REMARK    3  A    between atoms: N_6  and  C_11 
REMARK    4  A    between atoms: N_7  and  C_15 
REMARK       I    between atoms: N_7  and  C_24 
REMARK       I    between atoms: N_8  and  C_23 
REMARK    5  A    between atoms: C_11  and  C_14 
REMARK    6  A    between atoms: C_15  and  C_18 
REMARK    7  A    between atoms: C_15  and  C_23 
REMARK    8  A    between atoms: C_21  and  C_26 
REMARK    9  A    between atoms: C_24  and  C_25 
REMARK   10  A    between atoms: C_29  and  C_32 
ROOT
HETATM    1  O   UNK     0       3.085  13.796  92.280  0.00  0.00    -0.388 OA
HETATM    2  N   UNK     0       3.332  12.813  89.621  0.00  0.00     0.096 N 
HETATM    3  C   UNK     0       3.071  11.911  90.751  0.00  0.00     0.299 C 
HETATM    4  C   UNK     0       4.085  13.988  90.078  0.00  0.00     0.299 C 
HETATM    5  C   UNK     0       2.326  12.664  91.851  0.00  0.00     0.198 C 
HETATM    6  C   UNK     0       3.317  14.693  91.193  0.00  0.00     0.198 C 
ENDROOT
BRANCH   2   7
HETATM    7  C   UNK     0       4.055  12.114  88.559  0.00  0.00     0.311 C 
BRANCH   7   8
HETATM    8  C   UNK     0       5.004  11.096  89.092  0.00  0.00    -0.030 A 
HETATM    9  C   UNK     0       6.137  11.502  89.799  0.00  0.00     0.010 A 
HETATM   10  C   UNK     0       7.026  10.551  90.297  0.00  0.00     0.021 A 
HETATM   11  C   UNK     0       6.782   9.194  90.089  0.00  0.00     0.018 A 
HETATM   12  C   UNK     0       5.652   8.787  89.384  0.00  0.00     0.021 A 
HETATM   13  C   UNK     0       4.762   9.738  88.885  0.00  0.00     0.010 A 
BRANCH  11  14
HETATM   14  C   UNK     0       7.694   8.217  90.602  0.00  0.00    -0.061 C 
HETATM   15  C   UNK     0       8.460   7.397  91.032  0.00  0.00    -0.061 C 
BRANCH  15  16
HETATM   16  C   UNK     0       9.370   6.422  91.545  0.00  0.00     0.018 A 
HETATM   17  C   UNK     0       9.674   6.401  92.907  0.00  0.00     0.022 A 
HETATM   18  C   UNK     0      10.561   5.448  93.409  0.00  0.00     0.018 A 
HETATM   19  C   UNK     0      11.123   4.537  92.539  0.00  0.00     0.032 A 
HETATM   20  C   UNK     0      10.839   4.537  91.190  0.00  0.00     0.018 A 
HETATM   21  C   UNK     0       9.953   5.490  90.687  0.00  0.00     0.022 A 
BRANCH  19  22
HETATM   22  C   UNK     0      12.068   3.524  93.074  0.00  0.00     0.252 C 
HETATM   23  O   UNK     0      11.722   2.346  93.122  0.00  0.00    -0.268 OA
HETATM   24  N   UNK     0      13.312   3.999  93.465  0.00  0.00    -0.341 N 
HETATM   25  H   UNK     0      13.537   4.983  93.373  0.00  0.00     0.163 HD
BRANCH  24  26
HETATM   26  C   UNK     0      14.345   3.137  93.980  0.00  0.00     0.207 C 
BRANCH  26  27
HETATM   27  C   UNK     0      14.385   1.774  93.279  0.00  0.00     0.146 C 
HETATM   28  C   UNK     0      15.118   1.826  91.943  0.00  0.00     0.042 C 
BRANCH  27  29
HETATM   29  O   UNK     0      15.030   0.821  94.124  0.00  0.00    -0.393 OA
HETATM   30  H   UNK     0      15.170   0.006  93.613  0.00  0.00     0.210 HD
ENDBRANCH  27  29
ENDBRANCH  26  27
BRANCH  26  31
HETATM   31  C   UNK     0      15.675   3.871  93.843  0.00  0.00     0.266 C 
HETATM   32  O   UNK     0      15.756   5.062  93.550  0.00  0.00    -0.269 OA
HETATM   33  N   UNK     0      16.750   3.039  94.046  0.00  0.00    -0.236 N 
HETATM   34  H   UNK     0      16.722   2.038  94.200  0.00  0.00     0.197 HD
BRANCH  33  35
HETATM   35  O   UNK     0      18.014   3.628  93.900  0.00  0.00    -0.287 OA
HETATM   36  H   UNK     0      18.580   2.839  93.941  0.00  0.00     0.244 HD
ENDBRANCH  33  35
ENDBRANCH  26  31
ENDBRANCH  24  26
ENDBRANCH  19  22
ENDBRANCH  15  16
ENDBRANCH  11  14
ENDBRANCH   7   8
ENDBRANCH   2   7
TORSDOF 10
ENDMDL
MODEL 6
REMARK VINA RESULT:      -5.0      1.967     12.421
REMARK  10 active torsions:
REMARK  status: ('A' for Active; 'I' for Inactive)
REMARK    1  A    between atoms: O_2  and  C_18 
REMARK    2  A    between atoms: O_5  and  N_8 
REMARK    3  A    between atoms: N_6  and  C_11 
REMARK    4  A    between atoms: N_7  and  C_15 
REMARK       I    between atoms: N_7  and  C_24 
REMARK       I    between atoms: N_8  and  C_23 
REMARK    5  A    between atoms: C_11  and  C_14 
REMARK    6  A    between atoms: C_15  and  C_18 
REMARK    7  A    between atoms: C_15  and  C_23 
REMARK    8  A    between atoms: C_21  and  C_26 
REMARK    9  A    between atoms: C_24  and  C_25 
REMARK   10  A    between atoms: C_29  and  C_32 
ROOT
HETATM    1  O   UNK     0       5.704  14.602  88.561  0.00  0.00    -0.388 OA
HETATM    2  N   UNK     0       3.647  13.193  89.932  0.00  0.00     0.096 N 
HETATM    3  C   UNK     0       4.468  14.205  90.611  0.00  0.00     0.299 C 
HETATM    4  C   UNK     0       4.414  12.568  88.847  0.00  0.00     0.299 C 
HETATM    5  C   UNK     0       4.956  15.238  89.598  0.00  0.00     0.198 C 
HETATM    6  C   UNK     0       4.904  13.638  87.876  0.00  0.00     0.198 C 
ENDROOT
BRANCH   2   7
HETATM    7  C   UNK     0       3.177  12.186  90.882  0.00  0.00     0.311 C 
BRANCH   7   8
HETATM    8  C   UNK     0       4.221  11.169  91.195  0.00  0.00    -0.030 A 
HETATM    9  C   UNK     0       5.055  11.345  92.300  0.00  0.00     0.010 A 
HETATM   10  C   UNK     0       6.034  10.395  92.593  0.00  0.00     0.021 A 
HETATM   11  C   UNK     0       6.177   9.270  91.782  0.00  0.00     0.018 A 
HETATM   12  C   UNK     0       5.344   9.093  90.679  0.00  0.00     0.021 A 
HETATM   13  C   UNK     0       4.366  10.043  90.385  0.00  0.00     0.010 A 
BRANCH  11  14
HETATM   14  C   UNK     0       7.180   8.295  92.084  0.00  0.00    -0.061 C 
HETATM   15  C   UNK     0       8.022   7.475  92.338  0.00  0.00    -0.061 C 
BRANCH  15  16
HETATM   16  C   UNK     0       9.024   6.503  92.640  0.00  0.00     0.018 A 
HETATM   17  C   UNK     0       9.752   6.598  93.827  0.00  0.00     0.022 A 
HETATM   18  C   UNK     0      10.729   5.647  94.123  0.00  0.00     0.018 A 
HETATM   19  C   UNK     0      10.955   4.623  93.228  0.00  0.00     0.032 A 
HETATM   20  C   UNK     0      10.250   4.506  92.049  0.00  0.00     0.018 A 
HETATM   21  C   UNK     0       9.274   5.457  91.751  0.00  0.00     0.022 A 
BRANCH  19  22
HETATM   22  C   UNK     0      11.997   3.612  93.544  0.00  0.00     0.252 C 
HETATM   23  O   UNK     0      11.680   2.427  93.618  0.00  0.00    -0.268 OA
HETATM   24  N   UNK     0      13.286   4.098  93.710  0.00  0.00    -0.341 N 
HETATM   25  H   UNK     0      13.478   5.088  93.609  0.00  0.00     0.163 HD
BRANCH  24  26
HETATM   26  C   UNK     0      14.408   3.241  93.995  0.00  0.00     0.207 C 
BRANCH  26  27
HETATM   27  C   UNK     0      14.325   1.893  93.268  0.00  0.00     0.146 C 
HETATM   28  C   UNK     0      14.777   1.985  91.814  0.00  0.00     0.042 C 
BRANCH  27  29
HETATM   29  O   UNK     0      15.137   0.934  93.945  0.00  0.00    -0.393 OA
HETATM   30  H   UNK     0      14.553   0.339  94.445  0.00  0.00     0.210 HD
ENDBRANCH  27  29
ENDBRANCH  26  27
BRANCH  26  31
HETATM   31  C   UNK     0      15.679   3.996  93.620  0.00  0.00     0.266 C 
HETATM   32  O   UNK     0      15.669   5.057  92.998  0.00  0.00    -0.269 OA
HETATM   33  N   UNK     0      16.814   3.334  94.022  0.00  0.00    -0.236 N 
HETATM   34  H   UNK     0      16.862   2.419  94.455  0.00  0.00     0.197 HD
BRANCH  33  35
HETATM   35  O   UNK     0      18.030   3.944  93.681  0.00  0.00    -0.287 OA
HETATM   36  H   UNK     0      18.135   4.554  94.432  0.00  0.00     0.244 HD
ENDBRANCH  33  35
ENDBRANCH  26  31
ENDBRANCH  24  26
ENDBRANCH  19  22
ENDBRANCH  15  16
ENDBRANCH  11  14
ENDBRANCH   7   8
ENDBRANCH   2   7
TORSDOF 10
ENDMDL
MODEL 7
REMARK VINA RESULT:      -4.8      2.309     12.455
REMARK  10 active torsions:
REMARK  status: ('A' for Active; 'I' for Inactive)
REMARK    1  A    between atoms: O_2  and  C_18 
REMARK    2  A    between atoms: O_5  and  N_8 
REMARK    3  A    between atoms: N_6  and  C_11 
REMARK    4  A    between atoms: N_7  and  C_15 
REMARK       I    between atoms: N_7  and  C_24 
REMARK       I    between atoms: N_8  and  C_23 
REMARK    5  A    between atoms: C_11  and  C_14 
REMARK    6  A    between atoms: C_15  and  C_18 
REMARK    7  A    between atoms: C_15  and  C_23 
REMARK    8  A    between atoms: C_21  and  C_26 
REMARK    9  A    between atoms: C_24  and  C_25 
REMARK   10  A    between atoms: C_29  and  C_32 
ROOT
HETATM    1  O   UNK     0       3.040  14.603  93.270  0.00  0.00    -0.388 OA
HETATM    2  N   UNK     0       3.080  13.743  90.557  0.00  0.00     0.096 N 
HETATM    3  C   UNK     0       2.092  13.224  91.513  0.00  0.00     0.299 C 
HETATM    4  C   UNK     0       4.313  14.119  91.262  0.00  0.00     0.299 C 
HETATM    5  C   UNK     0       1.826  14.265  92.598  0.00  0.00     0.198 C 
HETATM    6  C   UNK     0       3.995  15.138  92.353  0.00  0.00     0.198 C 
ENDROOT
BRANCH   2   7
HETATM    7  C   UNK     0       3.358  12.758  89.514  0.00  0.00     0.311 C 
BRANCH   7   8
HETATM    8  C   UNK     0       4.395  11.769  89.928  0.00  0.00    -0.030 A 
HETATM    9  C   UNK     0       5.655  11.789  89.330  0.00  0.00     0.010 A 
HETATM   10  C   UNK     0       6.625  10.864  89.715  0.00  0.00     0.021 A 
HETATM   11  C   UNK     0       6.334   9.920  90.699  0.00  0.00     0.018 A 
HETATM   12  C   UNK     0       5.076   9.899  91.298  0.00  0.00     0.021 A 
HETATM   13  C   UNK     0       4.106  10.824  90.912  0.00  0.00     0.010 A 
BRANCH  11  14
HETATM   14  C   UNK     0       7.330   8.972  91.096  0.00  0.00    -0.061 C 
HETATM   15  C   UNK     0       8.167   8.175  91.429  0.00  0.00    -0.061 C 
BRANCH  15  16
HETATM   16  C   UNK     0       9.161   7.228  91.823  0.00  0.00     0.018 A 
HETATM   17  C   UNK     0       9.678   6.331  90.888  0.00  0.00     0.022 A 
HETATM   18  C   UNK     0      10.650   5.407  91.272  0.00  0.00     0.018 A 
HETATM   19  C   UNK     0      11.084   5.401  92.582  0.00  0.00     0.032 A 
HETATM   20  C   UNK     0      10.588   6.277  93.525  0.00  0.00     0.018 A 
HETATM   21  C   UNK     0       9.615   7.200  93.141  0.00  0.00     0.022 A 
BRANCH  19  22
HETATM   22  C   UNK     0      12.118   4.416  92.991  0.00  0.00     0.252 C 
HETATM   23  O   UNK     0      11.878   3.645  93.917  0.00  0.00    -0.268 OA
HETATM   24  N   UNK     0      13.295   4.430  92.257  0.00  0.00    -0.341 N 
HETATM   25  H   UNK     0      13.413   5.079  91.488  0.00  0.00     0.163 HD
BRANCH  24  26
HETATM   26  C   UNK     0      14.382   3.520  92.516  0.00  0.00     0.207 C 
BRANCH  26  27
HETATM   27  C   UNK     0      15.155   3.867  93.795  0.00  0.00     0.146 C 
HETATM   28  C   UNK     0      16.272   2.873  94.090  0.00  0.00     0.042 C 
BRANCH  27  29
HETATM   29  O   UNK     0      15.717   5.173  93.673  0.00  0.00    -0.393 OA
HETATM   30  H   UNK     0      15.612   5.465  92.752  0.00  0.00     0.210 HD
ENDBRANCH  27  29
ENDBRANCH  26  27
BRANCH  26  31
HETATM   31  C   UNK     0      13.803   2.110  92.584  0.00  0.00     0.266 C 
HETATM   32  O   UNK     0      14.311   1.209  93.248  0.00  0.00    -0.269 OA
HETATM   33  N   UNK     0      12.688   1.969  91.794  0.00  0.00    -0.236 N 
HETATM   34  H   UNK     0      12.296   2.662  91.167  0.00  0.00     0.197 HD
BRANCH  33  35
HETATM   35  O   UNK     0      12.116   0.689  91.770  0.00  0.00    -0.287 OA
HETATM   36  H   UNK     0      11.171   0.920  91.772  0.00  0.00     0.244 HD
ENDBRANCH  33  35
ENDBRANCH  26  31
ENDBRANCH  24  26
ENDBRANCH  19  22
ENDBRANCH  15  16
ENDBRANCH  11  14
ENDBRANCH   7   8
ENDBRANCH   2   7
TORSDOF 10
ENDMDL
MODEL 8
REMARK VINA RESULT:      -4.7      2.903     12.403
REMARK  10 active torsions:
REMARK  status: ('A' for Active; 'I' for Inactive)
REMARK    1  A    between atoms: O_2  and  C_18 
REMARK    2  A    between atoms: O_5  and  N_8 
REMARK    3  A    between atoms: N_6  and  C_11 
REMARK    4  A    between atoms: N_7  and  C_15 
REMARK       I    between atoms: N_7  and  C_24 
REMARK       I    between atoms: N_8  and  C_23 
REMARK    5  A    between atoms: C_11  and  C_14 
REMARK    6  A    between atoms: C_15  and  C_18 
REMARK    7  A    between atoms: C_15  and  C_23 
REMARK    8  A    between atoms: C_21  and  C_26 
REMARK    9  A    between atoms: C_24  and  C_25 
REMARK   10  A    between atoms: C_29  and  C_32 
ROOT
HETATM    1  O   UNK     0       1.822  13.703  94.124  0.00  0.00    -0.388 OA
HETATM    2  N   UNK     0       1.886  13.921  91.287  0.00  0.00     0.096 N 
HETATM    3  C   UNK     0       1.897  12.613  91.957  0.00  0.00     0.299 C 
HETATM    4  C   UNK     0       2.510  14.933  92.149  0.00  0.00     0.299 C 
HETATM    5  C   UNK     0       1.189  12.717  93.306  0.00  0.00     0.198 C 
HETATM    6  C   UNK     0       1.789  14.983  93.493  0.00  0.00     0.198 C 
ENDROOT
BRANCH   2   7
HETATM    7  C   UNK     0       2.569  13.846  89.996  0.00  0.00     0.311 C 
BRANCH   7   8
HETATM    8  C   UNK     0       3.596  12.767  89.958  0.00  0.00    -0.030 A 
HETATM    9  C   UNK     0       4.876  13.006  90.460  0.00  0.00     0.010 A 
HETATM   10  C   UNK     0       5.839  11.998  90.423  0.00  0.00     0.021 A 
HETATM   11  C   UNK     0       5.521  10.751  89.887  0.00  0.00     0.018 A 
HETATM   12  C   UNK     0       4.243  10.511  89.386  0.00  0.00     0.021 A 
HETATM   13  C   UNK     0       3.280  11.519  89.422  0.00  0.00     0.010 A 
BRANCH  11  14
HETATM   14  C   UNK     0       6.508   9.716  89.851  0.00  0.00    -0.061 C 
HETATM   15  C   UNK     0       7.338   8.846  89.820  0.00  0.00    -0.061 C 
BRANCH  15  16
HETATM   16  C   UNK     0       8.323   7.811  89.786  0.00  0.00     0.018 A 
HETATM   17  C   UNK     0       8.041   6.562  90.341  0.00  0.00     0.022 A 
HETATM   18  C   UNK     0       9.002   5.552  90.305  0.00  0.00     0.018 A 
HETATM   19  C   UNK     0      10.222   5.811  89.715  0.00  0.00     0.032 A 
HETATM   20  C   UNK     0      10.525   7.037  89.161  0.00  0.00     0.018 A 
HETATM   21  C   UNK     0       9.565   8.048  89.197  0.00  0.00     0.022 A 
BRANCH  19  22
HETATM   22  C   UNK     0      11.245   4.735  89.680  0.00  0.00     0.252 C 
HETATM   23  O   UNK     0      11.510   4.195  88.608  0.00  0.00    -0.268 OA
HETATM   24  N   UNK     0      11.855   4.435  90.890  0.00  0.00    -0.341 N 
HETATM   25  H   UNK     0      11.602   4.941  91.731  0.00  0.00     0.163 HD
BRANCH  24  26
HETATM   26  C   UNK     0      12.883   3.433  91.013  0.00  0.00     0.207 C 
BRANCH  26  27
HETATM   27  C   UNK     0      14.141   3.958  91.717  0.00  0.00     0.146 C 
HETATM   28  C   UNK     0      13.955   4.090  93.224  0.00  0.00     0.042 C 
BRANCH  27  29
HETATM   29  O   UNK     0      15.234   3.076  91.461  0.00  0.00    -0.393 OA
HETATM   30  H   UNK     0      15.969   3.598  91.097  0.00  0.00     0.210 HD
ENDBRANCH  27  29
ENDBRANCH  26  27
BRANCH  26  31
HETATM   31  C   UNK     0      12.287   2.243  91.757  0.00  0.00     0.266 C 
HETATM   32  O   UNK     0      12.834   1.143  91.807  0.00  0.00    -0.269 OA
HETATM   33  N   UNK     0      11.069   2.539  92.319  0.00  0.00    -0.236 N 
HETATM   34  H   UNK     0      10.550   3.404  92.222  0.00  0.00     0.197 HD
BRANCH  33  35
HETATM   35  O   UNK     0      10.434   1.485  92.991  0.00  0.00    -0.287 OA
HETATM   36  H   UNK     0      11.206   1.026  93.363  0.00  0.00     0.244 HD
ENDBRANCH  33  35
ENDBRANCH  26  31
ENDBRANCH  24  26
ENDBRANCH  19  22
ENDBRANCH  15  16
ENDBRANCH  11  14
ENDBRANCH   7   8
ENDBRANCH   2   7
TORSDOF 10
ENDMDL
MODEL 9
REMARK VINA RESULT:      -4.4      1.874     12.459
REMARK  10 active torsions:
REMARK  status: ('A' for Active; 'I' for Inactive)
REMARK    1  A    between atoms: O_2  and  C_18 
REMARK    2  A    between atoms: O_5  and  N_8 
REMARK    3  A    between atoms: N_6  and  C_11 
REMARK    4  A    between atoms: N_7  and  C_15 
REMARK       I    between atoms: N_7  and  C_24 
REMARK       I    between atoms: N_8  and  C_23 
REMARK    5  A    between atoms: C_11  and  C_14 
REMARK    6  A    between atoms: C_15  and  C_18 
REMARK    7  A    between atoms: C_15  and  C_23 
REMARK    8  A    between atoms: C_21  and  C_26 
REMARK    9  A    between atoms: C_24  and  C_25 
REMARK   10  A    between atoms: C_29  and  C_32 
ROOT
HETATM    1  O   UNK     0       4.678  14.456  89.690  0.00  0.00    -0.388 OA
HETATM    2  N   UNK     0       3.340  12.248  88.492  0.00  0.00     0.096 N 
HETATM    3  C   UNK     0       3.070  12.648  89.880  0.00  0.00     0.299 C 
HETATM    4  C   UNK     0       4.717  12.603  88.125  0.00  0.00     0.299 C 
HETATM    5  C   UNK     0       3.330  14.144  90.046  0.00  0.00     0.198 C 
HETATM    6  C   UNK     0       4.939  14.098  88.333  0.00  0.00     0.198 C 
ENDROOT
BRANCH   2   7
HETATM    7  C   UNK     0       3.107  10.816  88.313  0.00  0.00     0.311 C 
BRANCH   7   8
HETATM    8  C   UNK     0       4.275   9.993  88.738  0.00  0.00    -0.030 A 
HETATM    9  C   UNK     0       4.812   9.044  87.867  0.00  0.00     0.010 A 
HETATM   10  C   UNK     0       5.904   8.272  88.265  0.00  0.00     0.021 A 
HETATM   11  C   UNK     0       6.459   8.450  89.532  0.00  0.00     0.018 A 
HETATM   12  C   UNK     0       5.923   9.398  90.402  0.00  0.00     0.021 A 
HETATM   13  C   UNK     0       4.831  10.170  90.005  0.00  0.00     0.010 A 
BRANCH  11  14
HETATM   14  C   UNK     0       7.580   7.660  89.939  0.00  0.00    -0.061 C 
HETATM   15  C   UNK     0       8.521   6.995  90.281  0.00  0.00    -0.061 C 
BRANCH  15  16
HETATM   16  C   UNK     0       9.641   6.207  90.688  0.00  0.00     0.018 A 
HETATM   17  C   UNK     0       9.975   6.116  92.040  0.00  0.00     0.022 A 
HETATM   18  C   UNK     0      11.067   5.345  92.438  0.00  0.00     0.018 A 
HETATM   19  C   UNK     0      11.800   4.681  91.477  0.00  0.00     0.032 A 
HETATM   20  C   UNK     0      11.492   4.755  90.135  0.00  0.00     0.018 A 
HETATM   21  C   UNK     0      10.400   5.527  89.736  0.00  0.00     0.022 A 
BRANCH  19  22
HETATM   22  C   UNK     0      12.964   3.861  91.902  0.00  0.00     0.252 C 
HETATM   23  O   UNK     0      13.669   3.333  91.046  0.00  0.00    -0.268 OA
HETATM   24  N   UNK     0      13.182   3.777  93.270  0.00  0.00    -0.341 N 
HETATM   25  H   UNK     0      12.571   4.262  93.917  0.00  0.00     0.163 HD
BRANCH  24  26
HETATM   26  C   UNK     0      14.283   3.040  93.836  0.00  0.00     0.207 C 
BRANCH  26  27
HETATM   27  C   UNK     0      14.492   1.676  93.165  0.00  0.00     0.146 C 
HETATM   28  C   UNK     0      15.058   0.635  94.124  0.00  0.00     0.042 C 
BRANCH  27  29
HETATM   29  O   UNK     0      13.248   1.203  92.649  0.00  0.00    -0.393 OA
HETATM   30  H   UNK     0      12.657   1.965  92.532  0.00  0.00     0.210 HD
ENDBRANCH  27  29
ENDBRANCH  26  27
BRANCH  26  31
HETATM   31  C   UNK     0      15.531   3.909  93.725  0.00  0.00     0.266 C 
HETATM   32  O   UNK     0      15.487   5.125  93.547  0.00  0.00    -0.269 OA
HETATM   33  N   UNK     0      16.687   3.171  93.809  0.00  0.00    -0.236 N 
HETATM   34  H   UNK     0      16.759   2.162  93.866  0.00  0.00     0.197 HD
BRANCH  33  35
HETATM   35  O   UNK     0      17.882   3.892  93.678  0.00  0.00    -0.287 OA
HETATM   36  H   UNK     0      17.652   4.477  92.936  0.00  0.00     0.244 HD
ENDBRANCH  33  35
ENDBRANCH  26  31
ENDBRANCH  24  26
ENDBRANCH  19  22
ENDBRANCH  15  16
ENDBRANCH  11  14
ENDBRANCH   7   8
ENDBRANCH   2   7
TORSDOF 10
ENDMDL
