MODEL 1
REMARK VINA RESULT:      -6.0      0.000      0.000
REMARK  10 active torsions:
REMARK  status: ('A' for Active; 'I' for Inactive)
REMARK    1  A    between atoms: O_2  and  C_18 
REMARK    2  A    between atoms: O_5  and  N_8 
REMARK    3  A    between atoms: N_6  and  C_11 
REMARK    4  A    between atoms: N_7  and  C_15 
REMARK       I    between atoms: N_7  and  C_24 
REMARK       I    between atoms: N_8  and  C_23 
REMARK    5  A    between atoms: C_11  and  C_14 
REMARK    6  A    between atoms: C_15  and  C_18 
REMARK    7  A    between atoms: C_15  and  C_23 
REMARK    8  A    between atoms: C_21  and  C_26 
REMARK    9  A    between atoms: C_24  and  C_25 
REMARK   10  A    between atoms: C_29  and  C_32 
ROOT
HETATM    1  O   UNK     0      16.460   3.184  93.582  0.00  0.00    -0.388 OA
HETATM    2  N   UNK     0      13.746   2.862  92.786  0.00  0.00     0.096 N 
HETATM    3  C   UNK     0      14.589   1.707  93.124  0.00  0.00     0.299 C 
HETATM    4  C   UNK     0      14.576   3.955  92.262  0.00  0.00     0.299 C 
HETATM    5  C   UNK     0      15.665   2.127  94.123  0.00  0.00     0.198 C 
HETATM    6  C   UNK     0      15.652   4.322  93.280  0.00  0.00     0.198 C 
ENDROOT
BRANCH   2   7
HETATM    7  C   UNK     0      12.714   2.485  91.821  0.00  0.00     0.311 C 
BRANCH   7   8
HETATM    8  C   UNK     0      11.646   3.517  91.699  0.00  0.00    -0.030 A 
HETATM    9  C   UNK     0      11.088   3.798  90.452  0.00  0.00     0.010 A 
HETATM   10  C   UNK     0      10.090   4.765  90.336  0.00  0.00     0.021 A 
HETATM   11  C   UNK     0       9.649   5.450  91.469  0.00  0.00     0.018 A 
HETATM   12  C   UNK     0      10.205   5.170  92.715  0.00  0.00     0.021 A 
HETATM   13  C   UNK     0      11.204   4.203  92.831  0.00  0.00     0.010 A 
BRANCH  11  14
HETATM   14  C   UNK     0       8.623   6.440  91.350  0.00  0.00    -0.061 C 
HETATM   15  C   UNK     0       7.761   7.273  91.251  0.00  0.00    -0.061 C 
BRANCH  15  16
HETATM   16  C   UNK     0       6.738   8.262  91.131  0.00  0.00     0.018 A 
HETATM   17  C   UNK     0       7.032   9.603  91.382  0.00  0.00     0.022 A 
HETATM   18  C   UNK     0       6.034  10.570  91.264  0.00  0.00     0.018 A 
HETATM   19  C   UNK     0       4.764  10.176  90.897  0.00  0.00     0.032 A 
HETATM   20  C   UNK     0       4.447   8.857  90.644  0.00  0.00     0.018 A 
HETATM   21  C   UNK     0       5.445   7.890  90.763  0.00  0.00     0.022 A 
BRANCH  19  22
HETATM   22  C   UNK     0       3.700  11.206  90.773  0.00  0.00     0.252 C 
HETATM   23  O   UNK     0       2.807  11.048  89.945  0.00  0.00    -0.268 OA
HETATM   24  N   UNK     0       3.792  12.282  91.645  0.00  0.00    -0.341 N 
HETATM   25  H   UNK     0       4.545  12.332  92.320  0.00  0.00     0.163 HD
BRANCH  24  26
HETATM   26  C   UNK     0       2.823  13.349  91.663  0.00  0.00     0.207 C 
BRANCH  26  27
HETATM   27  C   UNK     0       2.823  14.127  92.985  0.00  0.00     0.146 C 
HETATM   28  C   UNK     0       1.874  13.525  94.016  0.00  0.00     0.042 C 
BRANCH  27  29
HETATM   29  O   UNK     0       4.143  14.148  93.527  0.00  0.00    -0.393 OA
HETATM   30  H   UNK     0       4.774  14.038  92.796  0.00  0.00     0.210 HD
ENDBRANCH  27  29
ENDBRANCH  26  27
BRANCH  26  31
HETATM   31  C   UNK     0       3.117  14.266  90.481  0.00  0.00     0.266 C 
HETATM   32  O   UNK     0       2.285  14.529  89.615  0.00  0.00    -0.269 OA
HETATM   33  N   UNK     0       4.415  14.718  90.484  0.00  0.00    -0.236 N 
HETATM   34  H   UNK     0       5.149  14.450  91.130  0.00  0.00     0.197 HD
BRANCH  33  35
HETATM   35  O   UNK     0       4.778  15.538  89.407  0.00  0.00    -0.287 OA
HETATM   36  H   UNK     0       5.627  15.885  89.730  0.00  0.00     0.244 HD
ENDBRANCH  33  35
ENDBRANCH  26  31
ENDBRANCH  24  26
ENDBRANCH  19  22
ENDBRANCH  15  16
ENDBRANCH  11  14
ENDBRANCH   7   8
ENDBRANCH   2   7
TORSDOF 10
ENDMDL
