MODEL 1
REMARK VINA RESULT:      -6.6      0.000      0.000
REMARK  14 active torsions:
REMARK  status: ('A' for Active; 'I' for Inactive)
REMARK    1  A    between atoms: O_2  and  C_18 
REMARK    2  A    between atoms: C_5  and  C_8 
REMARK    3  A    between atoms: C_5  and  O_35 
REMARK    4  A    between atoms: C_5  and  C_36 
REMARK    5  A    between atoms: N_6  and  C_11 
REMARK    6  A    between atoms: N_7  and  C_15 
REMARK       I    between atoms: N_7  and  C_24 
REMARK    7  A    between atoms: C_8  and  C_23 
REMARK    8  A    between atoms: C_11  and  C_14 
REMARK    9  A    between atoms: C_15  and  C_18 
REMARK   10  A    between atoms: C_15  and  C_23 
REMARK   11  A    between atoms: C_21  and  C_26 
REMARK   12  A    between atoms: C_24  and  C_25 
REMARK   13  A    between atoms: C_29  and  C_32 
REMARK   14  A    between atoms: C_36  and  O_39 
ROOT
HETATM    1  O   UNL     1      16.944   3.848  93.776  1.00  0.00    -0.350 OA
HETATM    2  N   UNL     1      14.382   2.855  93.034  1.00  0.00     0.147 N 
HETATM    3  C   UNL     1      15.558   1.976  93.095  1.00  0.00     0.283 C 
HETATM    4  C   UNL     1      14.796   4.228  92.715  1.00  0.00     0.283 C 
HETATM    5  C   UNL     1      16.554   2.516  94.118  1.00  0.00     0.178 C 
HETATM    6  C   UNL     1      15.810   4.715  93.745  1.00  0.00     0.178 C 
ENDROOT
BRANCH   2   7
HETATM    7  C   UNL     1      13.417   2.361  92.052  1.00  0.00     0.277 C 
BRANCH   7   8
HETATM    8  C   UNL     1      12.282   3.305  91.847  1.00  0.00     0.011 A 
HETATM    9  C   UNL     1      11.914   3.683  90.555  1.00  0.00    -0.002 A 
HETATM   10  C   UNL     1      10.853   4.568  90.363  1.00  0.00     0.008 A 
HETATM   11  C   UNL     1      10.159   5.072  91.462  1.00  0.00     0.042 A 
HETATM   12  C   UNL     1      10.525   4.695  92.753  1.00  0.00     0.008 A 
HETATM   13  C   UNL     1      11.586   3.811  92.946  1.00  0.00    -0.002 A 
BRANCH  11  14
HETATM   14  C   UNL     1       9.069   5.978  91.264  1.00  0.00    -0.059 C 
HETATM   15  C   UNL     1       8.153   6.738  91.099  1.00  0.00    -0.059 C 
BRANCH  15  16
HETATM   16  C   UNL     1       7.064   7.644  90.902  1.00  0.00     0.042 A 
HETATM   17  C   UNL     1       7.137   8.942  91.408  1.00  0.00     0.008 A 
HETATM   18  C   UNL     1       6.076   9.825  91.214  1.00  0.00     0.005 A 
HETATM   19  C   UNL     1       4.967   9.393  90.518  1.00  0.00     0.056 A 
HETATM   20  C   UNL     1       4.870   8.115  90.008  1.00  0.00     0.005 A 
HETATM   21  C   UNL     1       5.931   7.230  90.201  1.00  0.00     0.008 A 
BRANCH  19  22
HETATM   22  C   UNL     1       3.836  10.334  90.313  1.00  0.00     0.254 C 
HETATM   23  O   UNL     1       2.909  10.007  89.575  1.00  0.00    -0.268 OA
HETATM   24  N   UNL     1       3.908  11.532  91.010  1.00  0.00    -0.335 N 
HETATM   25  HN  UNL     1       4.693  11.723  91.621  1.00  0.00     0.164 HD
BRANCH  24  26
HETATM   26  C   UNL     1       2.877  12.536  90.934  1.00  0.00     0.169 C 
BRANCH  26  27
HETATM   27  C   UNL     1       1.947  12.526  92.154  1.00  0.00     0.138 C 
HETATM   28  C   UNL     1       2.527  11.737  93.323  1.00  0.00     0.034 C 
BRANCH  27  29
HETATM   29  O   UNL     1       1.700  13.866  92.577  1.00  0.00    -0.383 OA
HETATM   30  H   UNL     1       2.404  14.434  92.220  1.00  0.00     0.210 HD
ENDBRANCH  27  29
ENDBRANCH  26  27
BRANCH  26  31
HETATM   31  C   UNL     1       3.558  13.891  90.767  1.00  0.00     0.194 C 
HETATM   32  O   UNL     1       4.141  14.465  91.685  1.00  0.00    -0.289 OA
BRANCH  31  33
HETATM   33  C   UNL     1       3.406  14.395  89.499  1.00  0.00     0.053 C 
BRANCH  33  34
HETATM   34  C   UNL     1       4.548  14.358  88.686  1.00  0.00     0.220 C 
BRANCH  34  35
HETATM   35  O   UNL     1       5.515  14.744  89.370  1.00  0.00    -0.371 OA
HETATM   36  H   UNL     1       5.056  14.875  90.186  1.00  0.00     0.211 HD
ENDBRANCH  34  35
BRANCH  34  37
HETATM   37  C   UNL     1       4.778  13.101  88.101  1.00  0.00     0.185 C 
HETATM   38  O   UNL     1       6.047  13.416  88.304  1.00  0.00    -0.647 OA
BRANCH  37  39
HETATM   39  O   UNL     1       4.120  12.227  87.621  1.00  0.00    -0.774 OA
HETATM   40  H   UNL     1       3.766  11.490  88.408  1.00  0.00     0.167 HD
ENDBRANCH  37  39
ENDBRANCH  34  37
ENDBRANCH  33  34
ENDBRANCH  31  33
ENDBRANCH  26  31
ENDBRANCH  24  26
ENDBRANCH  19  22
ENDBRANCH  15  16
ENDBRANCH  11  14
ENDBRANCH   7   8
ENDBRANCH   2   7
TORSDOF 14
ENDMDL
