MODEL 1
REMARK VINA RESULT:      -7.5      0.000      0.000
REMARK  9 active torsions:
REMARK  status: ('A' for Active; 'I' for Inactive)
REMARK    1  A    between atoms: N_3  and  C_6 
REMARK    2  A    between atoms: C_6  and  C_9 
REMARK    3  A    between atoms: C_14  and  C_17 
REMARK       I    between atoms: N_26  and  C_15 
REMARK    4  A    between atoms: C_15  and  C_16 
REMARK    5  A    between atoms: C_20  and  C_23 
REMARK    6  A    between atoms: OG1_24  and  CB_28 
REMARK    7  A    between atoms: N_26  and  CA_27 
REMARK    8  A    between atoms: CA_27  and  CB_28 
REMARK    9  A    between atoms: CA_27  and  C_30 
ROOT
HETATM    1  O   UNK A   0       1.791   7.974  87.841  1.00  0.00    -0.388 OA
HETATM    2  N   UNK A   0       4.600   7.537  87.697  1.00  0.00     0.096 N 
HETATM    3  C   UNK A   0       4.039   8.890  87.816  1.00  0.00     0.299 C 
HETATM    4  C   UNK A   0       3.649   6.656  87.006  1.00  0.00     0.299 C 
HETATM    5  C   UNK A   0       2.696   8.831  88.541  1.00  0.00     0.198 C 
HETATM    6  C   UNK A   0       2.316   6.650  87.748  1.00  0.00     0.198 C 
ENDROOT
BRANCH   2   7
HETATM    7  C   UNK A   0       5.883   7.568  86.996  1.00  0.00     0.311 C 
BRANCH   7   8
HETATM    8  C   UNK A   0       6.984   6.964  87.800  1.00  0.00    -0.030 A 
HETATM    9  C   UNK A   0       6.762   6.611  89.131  1.00  0.00     0.010 A 
HETATM   10  C   UNK A   0       7.792   6.048  89.884  1.00  0.00     0.021 A 
HETATM   11  C   UNK A   0       9.043   5.836  89.305  1.00  0.00     0.018 A 
HETATM   12  C   UNK A   0       9.265   6.188  87.975  1.00  0.00     0.021 A 
HETATM   13  C   UNK A   0       8.236   6.752  87.222  1.00  0.00     0.010 A 
BRANCH  11  14
HETATM   14  C   UNK A   0      10.099   5.256  90.077  1.00  0.00    -0.061 C 
HETATM   15  C   UNK A   0      10.986   4.768  90.725  1.00  0.00    -0.061 C 
BRANCH  15  16
HETATM   16  C   UNK A   0      12.041   4.189  91.496  1.00  0.00     0.018 A 
HETATM   17  C   UNK A   0      13.293   3.979  90.916  1.00  0.00     0.022 A 
HETATM   18  C   UNK A   0      14.323   3.416  91.669  1.00  0.00     0.018 A 
HETATM   19  C   UNK A   0      14.080   3.076  92.983  1.00  0.00     0.032 A 
HETATM   20  C   UNK A   0      12.852   3.273  93.579  1.00  0.00     0.018 A 
HETATM   21  C   UNK A   0      11.820   3.836  92.827  1.00  0.00     0.022 A 
BRANCH  19  22
HETATM   22  C   UNK A   0      15.177   2.475  93.784  1.00  0.00     0.252 C 
HETATM   23  O   UNK A   0      16.288   3.001  93.770  1.00  0.00    -0.268 OA
ENDBRANCH  19  22
ENDBRANCH  15  16
ENDBRANCH  11  14
ENDBRANCH   7   8
ENDBRANCH   2   7
TORSDOF 9
ENDMDL
MODEL 2
REMARK VINA RESULT:      -7.5      0.067      1.010
REMARK  9 active torsions:
REMARK  status: ('A' for Active; 'I' for Inactive)
REMARK    1  A    between atoms: N_3  and  C_6 
REMARK    2  A    between atoms: C_6  and  C_9 
REMARK    3  A    between atoms: C_14  and  C_17 
REMARK       I    between atoms: N_26  and  C_15 
REMARK    4  A    between atoms: C_15  and  C_16 
REMARK    5  A    between atoms: C_20  and  C_23 
REMARK    6  A    between atoms: OG1_24  and  CB_28 
REMARK    7  A    between atoms: N_26  and  CA_27 
REMARK    8  A    between atoms: CA_27  and  CB_28 
REMARK    9  A    between atoms: CA_27  and  C_30 
ROOT
HETATM    1  O   UNK A   0       1.807   8.011  87.828  1.00  0.00    -0.388 OA
HETATM    2  N   UNK A   0       4.609   7.536  87.677  1.00  0.00     0.096 N 
HETATM    3  C   UNK A   0       4.065   8.898  87.769  1.00  0.00     0.299 C 
HETATM    4  C   UNK A   0       3.643   6.651  87.012  1.00  0.00     0.299 C 
HETATM    5  C   UNK A   0       2.727   8.871  88.503  1.00  0.00     0.198 C 
HETATM    6  C   UNK A   0       2.315   6.678  87.762  1.00  0.00     0.198 C 
ENDROOT
BRANCH   2   7
HETATM    7  C   UNK A   0       5.888   7.536  86.968  1.00  0.00     0.311 C 
BRANCH   7   8
HETATM    8  C   UNK A   0       6.986   6.934  87.777  1.00  0.00    -0.030 A 
HETATM    9  C   UNK A   0       6.736   6.505  89.081  1.00  0.00     0.010 A 
HETATM   10  C   UNK A   0       7.763   5.944  89.840  1.00  0.00     0.021 A 
HETATM   11  C   UNK A   0       9.039   5.810  89.293  1.00  0.00     0.018 A 
HETATM   12  C   UNK A   0       9.290   6.237  87.991  1.00  0.00     0.021 A 
HETATM   13  C   UNK A   0       8.263   6.799  87.232  1.00  0.00     0.010 A 
BRANCH  11  14
HETATM   14  C   UNK A   0      10.092   5.232  90.070  1.00  0.00    -0.061 C 
HETATM   15  C   UNK A   0      10.976   4.746  90.724  1.00  0.00    -0.061 C 
BRANCH  15  16
HETATM   16  C   UNK A   0      12.029   4.168  91.500  1.00  0.00     0.018 A 
HETATM   17  C   UNK A   0      11.794   3.795  92.824  1.00  0.00     0.022 A 
HETATM   18  C   UNK A   0      12.820   3.229  93.580  1.00  0.00     0.018 A 
HETATM   19  C   UNK A   0      14.056   3.047  92.996  1.00  0.00     0.032 A 
HETATM   20  C   UNK A   0      14.313   3.407  91.690  1.00  0.00     0.018 A 
HETATM   21  C   UNK A   0      13.288   3.974  90.933  1.00  0.00     0.022 A 
BRANCH  19  22
HETATM   22  C   UNK A   0      15.149   2.445  93.803  1.00  0.00     0.252 C 
HETATM   23  O   UNK A   0      16.301   2.842  93.643  1.00  0.00    -0.268 OA
ENDBRANCH  19  22
ENDBRANCH  15  16
ENDBRANCH  11  14
ENDBRANCH   7   8
ENDBRANCH   2   7
TORSDOF 9
ENDMDL
MODEL 3
REMARK VINA RESULT:      -7.0      0.988      1.824
REMARK  9 active torsions:
REMARK  status: ('A' for Active; 'I' for Inactive)
REMARK    1  A    between atoms: N_3  and  C_6 
REMARK    2  A    between atoms: C_6  and  C_9 
REMARK    3  A    between atoms: C_14  and  C_17 
REMARK       I    between atoms: N_26  and  C_15 
REMARK    4  A    between atoms: C_15  and  C_16 
REMARK    5  A    between atoms: C_20  and  C_23 
REMARK    6  A    between atoms: OG1_24  and  CB_28 
REMARK    7  A    between atoms: N_26  and  CA_27 
REMARK    8  A    between atoms: CA_27  and  CB_28 
REMARK    9  A    between atoms: CA_27  and  C_30 
ROOT
HETATM    1  O   UNK A   0       2.859  10.259  89.142  1.00  0.00    -0.388 OA
HETATM    2  N   UNK A   0       4.648   8.122  88.563  1.00  0.00     0.096 N 
HETATM    3  C   UNK A   0       5.134   9.491  88.789  1.00  0.00     0.299 C 
HETATM    4  C   UNK A   0       3.287   8.156  88.011  1.00  0.00     0.299 C 
HETATM    5  C   UNK A   0       4.170  10.236  89.709  1.00  0.00     0.198 C 
HETATM    6  C   UNK A   0       2.367   8.932  88.948  1.00  0.00     0.198 C 
ENDROOT
BRANCH   2   7
HETATM    7  C   UNK A   0       5.551   7.392  87.675  1.00  0.00     0.311 C 
BRANCH   7   8
HETATM    8  C   UNK A   0       6.713   6.808  88.402  1.00  0.00    -0.030 A 
HETATM    9  C   UNK A   0       8.007   6.998  87.915  1.00  0.00     0.010 A 
HETATM   10  C   UNK A   0       9.095   6.450  88.594  1.00  0.00     0.021 A 
HETATM   11  C   UNK A   0       8.889   5.713  89.760  1.00  0.00     0.018 A 
HETATM   12  C   UNK A   0       7.598   5.522  90.247  1.00  0.00     0.021 A 
HETATM   13  C   UNK A   0       6.509   6.070  89.568  1.00  0.00     0.010 A 
BRANCH  11  14
HETATM   14  C   UNK A   0      10.006   5.152  90.457  1.00  0.00    -0.061 C 
HETATM   15  C   UNK A   0      10.944   4.680  91.042  1.00  0.00    -0.061 C 
BRANCH  15  16
HETATM   16  C   UNK A   0      12.060   4.120  91.738  1.00  0.00     0.018 A 
HETATM   17  C   UNK A   0      11.914   3.688  93.056  1.00  0.00     0.022 A 
HETATM   18  C   UNK A   0      13.002   3.139  93.734  1.00  0.00     0.018 A 
HETATM   19  C   UNK A   0      14.211   3.033  93.079  1.00  0.00     0.032 A 
HETATM   20  C   UNK A   0      14.382   3.453  91.776  1.00  0.00     0.018 A 
HETATM   21  C   UNK A   0      13.294   4.002  91.097  1.00  0.00     0.022 A 
BRANCH  19  22
HETATM   22  C   UNK A   0      15.371   2.450  93.802  1.00  0.00     0.252 C 
HETATM   23  O   UNK A   0      16.480   2.959  93.666  1.00  0.00    -0.268 OA
ENDBRANCH  19  22
ENDBRANCH  15  16
ENDBRANCH  11  14
ENDBRANCH   7   8
ENDBRANCH   2   7
TORSDOF 9
ENDMDL
MODEL 4
REMARK VINA RESULT:      -6.9      1.539      2.178
REMARK  9 active torsions:
REMARK  status: ('A' for Active; 'I' for Inactive)
REMARK    1  A    between atoms: N_3  and  C_6 
REMARK    2  A    between atoms: C_6  and  C_9 
REMARK    3  A    between atoms: C_14  and  C_17 
REMARK       I    between atoms: N_26  and  C_15 
REMARK    4  A    between atoms: C_15  and  C_16 
REMARK    5  A    between atoms: C_20  and  C_23 
REMARK    6  A    between atoms: OG1_24  and  CB_28 
REMARK    7  A    between atoms: N_26  and  CA_27 
REMARK    8  A    between atoms: CA_27  and  CB_28 
REMARK    9  A    between atoms: CA_27  and  C_30 
ROOT
HETATM    1  O   UNK A   0       2.800  11.277  89.661  1.00  0.00    -0.388 OA
HETATM    2  N   UNK A   0       4.585   9.283  88.692  1.00  0.00     0.096 N 
HETATM    3  C   UNK A   0       3.784  10.107  87.776  1.00  0.00     0.299 C 
HETATM    4  C   UNK A   0       3.884   9.130  89.974  1.00  0.00     0.299 C 
HETATM    5  C   UNK A   0       3.488  11.459  88.422  1.00  0.00     0.198 C 
HETATM    6  C   UNK A   0       3.585  10.503  90.568  1.00  0.00     0.198 C 
ENDROOT
BRANCH   2   7
HETATM    7  C   UNK A   0       4.872   7.979  88.098  1.00  0.00     0.311 C 
BRANCH   7   8
HETATM    8  C   UNK A   0       6.087   7.343  88.682  1.00  0.00    -0.030 A 
HETATM    9  C   UNK A   0       5.959   6.231  89.515  1.00  0.00     0.010 A 
HETATM   10  C   UNK A   0       7.094   5.636  90.065  1.00  0.00     0.021 A 
HETATM   11  C   UNK A   0       8.358   6.153  89.779  1.00  0.00     0.018 A 
HETATM   12  C   UNK A   0       8.487   7.264  88.948  1.00  0.00     0.021 A 
HETATM   13  C   UNK A   0       7.351   7.859  88.399  1.00  0.00     0.010 A 
BRANCH  11  14
HETATM   14  C   UNK A   0       9.523   5.542  90.341  1.00  0.00    -0.061 C 
HETATM   15  C   UNK A   0      10.502   5.029  90.814  1.00  0.00    -0.061 C 
BRANCH  15  16
HETATM   16  C   UNK A   0      11.666   4.417  91.376  1.00  0.00     0.018 A 
HETATM   17  C   UNK A   0      11.631   3.919  92.679  1.00  0.00     0.022 A 
HETATM   18  C   UNK A   0      12.765   3.320  93.226  1.00  0.00     0.018 A 
HETATM   19  C   UNK A   0      13.908   3.233  92.459  1.00  0.00     0.032 A 
HETATM   20  C   UNK A   0      13.969   3.718  91.169  1.00  0.00     0.018 A 
HETATM   21  C   UNK A   0      12.834   4.317  90.621  1.00  0.00     0.022 A 
BRANCH  19  22
HETATM   22  C   UNK A   0      15.118   2.596  93.043  1.00  0.00     0.252 C 
HETATM   23  O   UNK A   0      15.029   2.020  94.124  1.00  0.00    -0.268 OA
ENDBRANCH  19  22
ENDBRANCH  15  16
ENDBRANCH  11  14
ENDBRANCH   7   8
ENDBRANCH   2   7
TORSDOF 9
ENDMDL
MODEL 5
REMARK VINA RESULT:      -6.6      3.476     10.401
REMARK  9 active torsions:
REMARK  status: ('A' for Active; 'I' for Inactive)
REMARK    1  A    between atoms: N_3  and  C_6 
REMARK    2  A    between atoms: C_6  and  C_9 
REMARK    3  A    between atoms: C_14  and  C_17 
REMARK       I    between atoms: N_26  and  C_15 
REMARK    4  A    between atoms: C_15  and  C_16 
REMARK    5  A    between atoms: C_20  and  C_23 
REMARK    6  A    between atoms: OG1_24  and  CB_28 
REMARK    7  A    between atoms: N_26  and  CA_27 
REMARK    8  A    between atoms: CA_27  and  CB_28 
REMARK    9  A    between atoms: CA_27  and  C_30 
ROOT
HETATM    1  O   UNK A   0      16.220   3.153  93.576  1.00  0.00    -0.388 OA
HETATM    2  N   UNK A   0      13.489   2.914  92.810  1.00  0.00     0.096 N 
HETATM    3  C   UNK A   0      14.301   1.733  93.137  1.00  0.00     0.299 C 
HETATM    4  C   UNK A   0      14.345   3.983  92.279  1.00  0.00     0.299 C 
HETATM    5  C   UNK A   0      15.399   2.119  94.124  1.00  0.00     0.198 C 
HETATM    6  C   UNK A   0      15.443   4.315  93.285  1.00  0.00     0.198 C 
ENDROOT
BRANCH   2   7
HETATM    7  C   UNK A   0      12.435   2.570  91.857  1.00  0.00     0.311 C 
BRANCH   7   8
HETATM    8  C   UNK A   0      11.572   3.738  91.518  1.00  0.00    -0.030 A 
HETATM    9  C   UNK A   0      11.384   4.101  90.184  1.00  0.00     0.010 A 
HETATM   10  C   UNK A   0      10.579   5.194  89.866  1.00  0.00     0.021 A 
HETATM   11  C   UNK A   0       9.961   5.923  90.882  1.00  0.00     0.018 A 
HETATM   12  C   UNK A   0      10.148   5.561  92.215  1.00  0.00     0.021 A 
HETATM   13  C   UNK A   0      10.954   4.468  92.533  1.00  0.00     0.010 A 
BRANCH  11  14
HETATM   14  C   UNK A   0       9.133   7.043  90.556  1.00  0.00    -0.061 C 
HETATM   15  C   UNK A   0       8.438   7.985  90.281  1.00  0.00    -0.061 C 
BRANCH  15  16
HETATM   16  C   UNK A   0       7.610   9.104  89.954  1.00  0.00     0.018 A 
HETATM   17  C   UNK A   0       6.222   8.968  89.956  1.00  0.00     0.022 A 
HETATM   18  C   UNK A   0       5.415  10.061  89.640  1.00  0.00     0.018 A 
HETATM   19  C   UNK A   0       6.013  11.264  89.330  1.00  0.00     0.032 A 
HETATM   20  C   UNK A   0       7.383  11.424  89.321  1.00  0.00     0.018 A 
HETATM   21  C   UNK A   0       8.191  10.332  89.637  1.00  0.00     0.022 A 
BRANCH  19  22
HETATM   22  C   UNK A   0       5.153  12.427  88.991  1.00  0.00     0.252 C 
HETATM   23  O   UNK A   0       4.568  12.446  87.911  1.00  0.00    -0.268 OA
ENDBRANCH  19  22
ENDBRANCH  15  16
ENDBRANCH  11  14
ENDBRANCH   7   8
ENDBRANCH   2   7
TORSDOF 9
ENDMDL
MODEL 6
REMARK VINA RESULT:      -6.6      3.996     10.457
REMARK  9 active torsions:
REMARK  status: ('A' for Active; 'I' for Inactive)
REMARK    1  A    between atoms: N_3  and  C_6 
REMARK    2  A    between atoms: C_6  and  C_9 
REMARK    3  A    between atoms: C_14  and  C_17 
REMARK       I    between atoms: N_26  and  C_15 
REMARK    4  A    between atoms: C_15  and  C_16 
REMARK    5  A    between atoms: C_20  and  C_23 
REMARK    6  A    between atoms: OG1_24  and  CB_28 
REMARK    7  A    between atoms: N_26  and  CA_27 
REMARK    8  A    between atoms: CA_27  and  CB_28 
REMARK    9  A    between atoms: CA_27  and  C_30 
ROOT
HETATM    1  O   UNK A   0      14.526   3.275  92.116  1.00  0.00    -0.388 OA
HETATM    2  N   UNK A   0      11.823   4.153  92.282  1.00  0.00     0.096 N 
HETATM    3  C   UNK A   0      12.440   3.358  93.353  1.00  0.00     0.299 C 
HETATM    4  C   UNK A   0      12.449   3.830  90.992  1.00  0.00     0.299 C 
HETATM    5  C   UNK A   0      13.946   3.605  93.379  1.00  0.00     0.198 C 
HETATM    6  C   UNK A   0      13.954   4.065  91.073  1.00  0.00     0.198 C 
ENDROOT
BRANCH   2   7
HETATM    7  C   UNK A   0      10.381   3.923  92.232  1.00  0.00     0.311 C 
BRANCH   7   8
HETATM    8  C   UNK A   0       9.617   5.169  91.940  1.00  0.00    -0.030 A 
HETATM    9  C   UNK A   0       8.658   5.178  90.926  1.00  0.00     0.010 A 
HETATM   10  C   UNK A   0       7.944   6.344  90.651  1.00  0.00     0.021 A 
HETATM   11  C   UNK A   0       8.188   7.500  91.392  1.00  0.00     0.018 A 
HETATM   12  C   UNK A   0       9.145   7.493  92.404  1.00  0.00     0.021 A 
HETATM   13  C   UNK A   0       9.860   6.327  92.679  1.00  0.00     0.010 A 
BRANCH  11  14
HETATM   14  C   UNK A   0       7.454   8.696  91.111  1.00  0.00    -0.061 C 
HETATM   15  C   UNK A   0       6.837   9.701  90.875  1.00  0.00    -0.061 C 
BRANCH  15  16
HETATM   16  C   UNK A   0       6.103  10.896  90.595  1.00  0.00     0.018 A 
HETATM   17  C   UNK A   0       5.238  11.422  91.554  1.00  0.00     0.022 A 
HETATM   18  C   UNK A   0       4.524  12.589  91.282  1.00  0.00     0.018 A 
HETATM   19  C   UNK A   0       4.693  13.204  90.059  1.00  0.00     0.032 A 
HETATM   20  C   UNK A   0       5.542  12.703  89.094  1.00  0.00     0.018 A 
HETATM   21  C   UNK A   0       6.256  11.536  89.365  1.00  0.00     0.022 A 
BRANCH  19  22
HETATM   22  C   UNK A   0       3.931  14.446  89.769  1.00  0.00     0.252 C 
HETATM   23  O   UNK A   0       4.523  15.523  89.753  1.00  0.00    -0.268 OA
ENDBRANCH  19  22
ENDBRANCH  15  16
ENDBRANCH  11  14
ENDBRANCH   7   8
ENDBRANCH   2   7
TORSDOF 9
ENDMDL
MODEL 7
REMARK VINA RESULT:      -6.6      3.557     10.302
REMARK  9 active torsions:
REMARK  status: ('A' for Active; 'I' for Inactive)
REMARK    1  A    between atoms: N_3  and  C_6 
REMARK    2  A    between atoms: C_6  and  C_9 
REMARK    3  A    between atoms: C_14  and  C_17 
REMARK       I    between atoms: N_26  and  C_15 
REMARK    4  A    between atoms: C_15  and  C_16 
REMARK    5  A    between atoms: C_20  and  C_23 
REMARK    6  A    between atoms: OG1_24  and  CB_28 
REMARK    7  A    between atoms: N_26  and  CA_27 
REMARK    8  A    between atoms: CA_27  and  CB_28 
REMARK    9  A    between atoms: CA_27  and  C_30 
ROOT
HETATM    1  O   UNK A   0      16.075   2.917  93.594  1.00  0.00    -0.388 OA
HETATM    2  N   UNK A   0      13.383   2.883  92.670  1.00  0.00     0.096 N 
HETATM    3  C   UNK A   0      14.068   1.651  93.085  1.00  0.00     0.299 C 
HETATM    4  C   UNK A   0      14.359   3.854  92.157  1.00  0.00     0.299 C 
HETATM    5  C   UNK A   0      15.137   1.979  94.124  1.00  0.00     0.198 C 
HETATM    6  C   UNK A   0      15.421   4.130  93.217  1.00  0.00     0.198 C 
ENDROOT
BRANCH   2   7
HETATM    7  C   UNK A   0      12.360   2.594  91.666  1.00  0.00     0.311 C 
BRANCH   7   8
HETATM    8  C   UNK A   0      11.522   3.785  91.350  1.00  0.00    -0.030 A 
HETATM    9  C   UNK A   0      10.820   4.433  92.368  1.00  0.00     0.010 A 
HETATM   10  C   UNK A   0      10.034   5.546  92.073  1.00  0.00     0.021 A 
HETATM   11  C   UNK A   0       9.950   6.012  90.761  1.00  0.00     0.018 A 
HETATM   12  C   UNK A   0      10.650   5.366  89.744  1.00  0.00     0.021 A 
HETATM   13  C   UNK A   0      11.437   4.252  90.038  1.00  0.00     0.010 A 
BRANCH  11  14
HETATM   14  C   UNK A   0       9.145   7.156  90.459  1.00  0.00    -0.061 C 
HETATM   15  C   UNK A   0       8.468   8.116  90.206  1.00  0.00    -0.061 C 
BRANCH  15  16
HETATM   16  C   UNK A   0       7.663   9.259  89.905  1.00  0.00     0.018 A 
HETATM   17  C   UNK A   0       8.246  10.390  89.334  1.00  0.00     0.022 A 
HETATM   18  C   UNK A   0       7.460  11.504  89.038  1.00  0.00     0.018 A 
HETATM   19  C   UNK A   0       6.111  11.461  89.318  1.00  0.00     0.032 A 
HETATM   20  C   UNK A   0       5.511  10.355  89.883  1.00  0.00     0.018 A 
HETATM   21  C   UNK A   0       6.295   9.241  90.179  1.00  0.00     0.022 A 
BRANCH  19  22
HETATM   22  C   UNK A   0       5.274  12.649  89.005  1.00  0.00     0.252 C 
HETATM   23  O   UNK A   0       4.650  12.681  87.947  1.00  0.00    -0.268 OA
ENDBRANCH  19  22
ENDBRANCH  15  16
ENDBRANCH  11  14
ENDBRANCH   7   8
ENDBRANCH   2   7
TORSDOF 9
ENDMDL
MODEL 8
REMARK VINA RESULT:      -6.4      1.886      2.587
REMARK  9 active torsions:
REMARK  status: ('A' for Active; 'I' for Inactive)
REMARK    1  A    between atoms: N_3  and  C_6 
REMARK    2  A    between atoms: C_6  and  C_9 
REMARK    3  A    between atoms: C_14  and  C_17 
REMARK       I    between atoms: N_26  and  C_15 
REMARK    4  A    between atoms: C_15  and  C_16 
REMARK    5  A    between atoms: C_20  and  C_23 
REMARK    6  A    between atoms: OG1_24  and  CB_28 
REMARK    7  A    between atoms: N_26  and  CA_27 
REMARK    8  A    between atoms: CA_27  and  CB_28 
REMARK    9  A    between atoms: CA_27  and  C_30 
ROOT
HETATM    1  O   UNK A   0       2.017   9.439  87.867  1.00  0.00    -0.388 OA
HETATM    2  N   UNK A   0       3.551   8.103  89.858  1.00  0.00     0.096 N 
HETATM    3  C   UNK A   0       2.263   7.569  89.395  1.00  0.00     0.299 C 
HETATM    4  C   UNK A   0       3.564   9.567  89.731  1.00  0.00     0.299 C 
HETATM    5  C   UNK A   0       2.007   8.013  87.957  1.00  0.00     0.198 C 
HETATM    6  C   UNK A   0       3.277   9.964  88.287  1.00  0.00     0.198 C 
ENDROOT
BRANCH   2   7
HETATM    7  C   UNK A   0       3.813   7.698  91.238  1.00  0.00     0.311 C 
BRANCH   7   8
HETATM    8  C   UNK A   0       5.172   7.109  91.410  1.00  0.00    -0.030 A 
HETATM    9  C   UNK A   0       5.811   7.181  92.648  1.00  0.00     0.010 A 
HETATM   10  C   UNK A   0       7.082   6.632  92.809  1.00  0.00     0.021 A 
HETATM   11  C   UNK A   0       7.714   6.010  91.733  1.00  0.00     0.018 A 
HETATM   12  C   UNK A   0       7.076   5.937  90.496  1.00  0.00     0.021 A 
HETATM   13  C   UNK A   0       5.805   6.487  90.334  1.00  0.00     0.010 A 
BRANCH  11  14
HETATM   14  C   UNK A   0       9.018   5.444  91.899  1.00  0.00    -0.061 C 
HETATM   15  C   UNK A   0      10.113   4.969  92.038  1.00  0.00    -0.061 C 
BRANCH  15  16
HETATM   16  C   UNK A   0      11.417   4.405  92.203  1.00  0.00     0.018 A 
HETATM   17  C   UNK A   0      12.271   4.292  91.105  1.00  0.00     0.022 A 
HETATM   18  C   UNK A   0      13.543   3.744  91.267  1.00  0.00     0.018 A 
HETATM   19  C   UNK A   0      13.933   3.323  92.521  1.00  0.00     0.032 A 
HETATM   20  C   UNK A   0      13.107   3.424  93.621  1.00  0.00     0.018 A 
HETATM   21  C   UNK A   0      11.834   3.971  93.461  1.00  0.00     0.022 A 
BRANCH  19  22
HETATM   22  C   UNK A   0      15.288   2.738  92.693  1.00  0.00     0.252 C 
HETATM   23  O   UNK A   0      15.773   2.668  93.820  1.00  0.00    -0.268 OA
ENDBRANCH  19  22
ENDBRANCH  15  16
ENDBRANCH  11  14
ENDBRANCH   7   8
ENDBRANCH   2   7
TORSDOF 9
ENDMDL
MODEL 9
REMARK VINA RESULT:      -6.3      1.574      2.358
REMARK  9 active torsions:
REMARK  status: ('A' for Active; 'I' for Inactive)
REMARK    1  A    between atoms: N_3  and  C_6 
REMARK    2  A    between atoms: C_6  and  C_9 
REMARK    3  A    between atoms: C_14  and  C_17 
REMARK       I    between atoms: N_26  and  C_15 
REMARK    4  A    between atoms: C_15  and  C_16 
REMARK    5  A    between atoms: C_20  and  C_23 
REMARK    6  A    between atoms: OG1_24  and  CB_28 
REMARK    7  A    between atoms: N_26  and  CA_27 
REMARK    8  A    between atoms: CA_27  and  CB_28 
REMARK    9  A    between atoms: CA_27  and  C_30 
ROOT
HETATM    1  O   UNK A   0       4.044   6.870  86.649  1.00  0.00    -0.388 OA
HETATM    2  N   UNK A   0       4.529   8.503  88.930  1.00  0.00     0.096 N 
HETATM    3  C   UNK A   0       5.630   7.999  88.098  1.00  0.00     0.299 C 
HETATM    4  C   UNK A   0       3.392   7.573  88.877  1.00  0.00     0.299 C 
HETATM    5  C   UNK A   0       5.142   7.784  86.668  1.00  0.00     0.198 C 
HETATM    6  C   UNK A   0       2.957   7.368  87.430  1.00  0.00     0.198 C 
ENDROOT
BRANCH   2   7
HETATM    7  C   UNK A   0       4.971   8.705  90.308  1.00  0.00     0.311 C 
BRANCH   7   8
HETATM    8  C   UNK A   0       6.216   7.947  90.622  1.00  0.00    -0.030 A 
HETATM    9  C   UNK A   0       7.428   8.625  90.758  1.00  0.00     0.010 A 
HETATM   10  C   UNK A   0       8.594   7.916  91.050  1.00  0.00     0.021 A 
HETATM   11  C   UNK A   0       8.546   6.532  91.208  1.00  0.00     0.018 A 
HETATM   12  C   UNK A   0       7.336   5.854  91.073  1.00  0.00     0.021 A 
HETATM   13  C   UNK A   0       6.170   6.562  90.781  1.00  0.00     0.010 A 
BRANCH  11  14
HETATM   14  C   UNK A   0       9.741   5.805  91.509  1.00  0.00    -0.061 C 
HETATM   15  C   UNK A   0      10.746   5.195  91.762  1.00  0.00    -0.061 C 
BRANCH  15  16
HETATM   16  C   UNK A   0      11.940   4.469  92.062  1.00  0.00     0.018 A 
HETATM   17  C   UNK A   0      12.122   3.921  93.333  1.00  0.00     0.022 A 
HETATM   18  C   UNK A   0      13.286   3.211  93.624  1.00  0.00     0.018 A 
HETATM   19  C   UNK A   0      14.241   3.063  92.641  1.00  0.00     0.032 A 
HETATM   20  C   UNK A   0      14.086   3.595  91.378  1.00  0.00     0.018 A 
HETATM   21  C   UNK A   0      12.922   4.306  91.085  1.00  0.00     0.022 A 
BRANCH  19  22
HETATM   22  C   UNK A   0      15.483   2.308  92.953  1.00  0.00     0.252 C 
HETATM   23  O   UNK A   0      16.291   2.785  93.746  1.00  0.00    -0.268 OA
ENDBRANCH  19  22
ENDBRANCH  15  16
ENDBRANCH  11  14
ENDBRANCH   7   8
ENDBRANCH   2   7
TORSDOF 9
ENDMDL
