MODEL 1
REMARK VINA RESULT:      -6.4      0.000      0.000
REMARK  10 active torsions:
REMARK  status: ('A' for Active; 'I' for Inactive)
REMARK    1  A    between atoms: O_2  and  C_18 
REMARK    2  A    between atoms: O_5  and  N_8 
REMARK    3  A    between atoms: N_6  and  C_11 
REMARK    4  A    between atoms: N_7  and  C_15 
REMARK       I    between atoms: N_7  and  C_24 
REMARK       I    between atoms: N_8  and  C_23 
REMARK    5  A    between atoms: C_11  and  C_14 
REMARK    6  A    between atoms: C_15  and  C_18 
REMARK    7  A    between atoms: C_15  and  C_23 
REMARK    8  A    between atoms: C_21  and  C_26 
REMARK    9  A    between atoms: C_24  and  C_25 
REMARK   10  A    between atoms: C_29  and  C_32 
ROOT
HETATM    1  O   UNK     0      16.751   3.706  93.773  0.00  0.00    -0.388 OA
HETATM    2  N   UNK     0      14.140   2.969  92.915  0.00  0.00     0.096 N 
HETATM    3  C   UNK     0      15.210   1.972  93.062  0.00  0.00     0.299 C 
HETATM    4  C   UNK     0      14.714   4.280  92.587  0.00  0.00     0.299 C 
HETATM    5  C   UNK     0      16.204   2.434  94.124  0.00  0.00     0.198 C 
HETATM    6  C   UNK     0      15.720   4.688  93.659  0.00  0.00     0.198 C 
ENDROOT
BRANCH   2   7
HETATM    7  C   UNK     0      13.180   2.552  91.894  0.00  0.00     0.311 C 
BRANCH   7   8
HETATM    8  C   UNK     0      12.076   3.538  91.715  0.00  0.00    -0.030 A 
HETATM    9  C   UNK     0      11.279   3.895  92.803  0.00  0.00     0.010 A 
HETATM   10  C   UNK     0      10.244   4.816  92.637  0.00  0.00     0.021 A 
HETATM   11  C   UNK     0      10.010   5.380  91.383  0.00  0.00     0.018 A 
HETATM   12  C   UNK     0      10.806   5.024  90.297  0.00  0.00     0.021 A 
HETATM   13  C   UNK     0      11.840   4.103  90.462  0.00  0.00     0.010 A 
BRANCH  11  14
HETATM   14  C   UNK     0       8.950   6.326  91.213  0.00  0.00    -0.061 C 
HETATM   15  C   UNK     0       8.060   7.122  91.070  0.00  0.00    -0.061 C 
BRANCH  15  16
HETATM   16  C   UNK     0       7.002   8.067  90.902  0.00  0.00     0.018 A 
HETATM   17  C   UNK     0       7.245   9.277  90.250  0.00  0.00     0.022 A 
HETATM   18  C   UNK     0       6.211  10.199  90.084  0.00  0.00     0.018 A 
HETATM   19  C   UNK     0       4.959   9.891  90.571  0.00  0.00     0.032 A 
HETATM   20  C   UNK     0       4.692   8.703  91.219  0.00  0.00     0.018 A 
HETATM   21  C   UNK     0       5.725   7.781  91.386  0.00  0.00     0.022 A 
BRANCH  19  22
HETATM   22  C   UNK     0       3.858  10.874  90.395  0.00  0.00     0.252 C 
HETATM   23  O   UNK     0       2.887  10.571  89.706  0.00  0.00    -0.268 OA
HETATM   24  N   UNK     0       4.010  12.082  91.062  0.00  0.00    -0.341 N 
HETATM   25  H   UNK     0       4.829  12.252  91.634  0.00  0.00     0.163 HD
BRANCH  24  26
HETATM   26  C   UNK     0       3.019  13.126  91.010  0.00  0.00     0.207 C 
BRANCH  26  27
HETATM   27  C   UNK     0       2.283  13.314  92.342  0.00  0.00     0.146 C 
HETATM   28  C   UNK     0       1.605  12.035  92.820  0.00  0.00     0.042 C 
BRANCH  27  29
HETATM   29  O   UNK     0       3.207  13.749  93.340  0.00  0.00    -0.393 OA
HETATM   30  H   UNK     0       3.988  14.116  92.893  0.00  0.00     0.210 HD
ENDBRANCH  27  29
ENDBRANCH  26  27
BRANCH  26  31
HETATM   31  C   UNK     0       3.718  14.410  90.576  0.00  0.00     0.266 C 
HETATM   32  O   UNK     0       3.681  15.448  91.235  0.00  0.00    -0.269 OA
HETATM   33  N   UNK     0       4.348  14.275  89.363  0.00  0.00    -0.236 N 
HETATM   34  H   UNK     0       4.324  13.465  88.754  0.00  0.00     0.197 HD
BRANCH  33  35
HETATM   35  O   UNK     0       4.984  15.424  88.874  0.00  0.00    -0.287 OA
HETATM   36  H   UNK     0       5.564  15.029  88.200  0.00  0.00     0.244 HD
ENDBRANCH  33  35
ENDBRANCH  26  31
ENDBRANCH  24  26
ENDBRANCH  19  22
ENDBRANCH  15  16
ENDBRANCH  11  14
ENDBRANCH   7   8
ENDBRANCH   2   7
TORSDOF 10
ENDMDL
