MODEL 1
REMARK VINA RESULT:      -7.0      0.000      0.000
REMARK  10 active torsions:
REMARK  status: ('A' for Active; 'I' for Inactive)
REMARK    1  A    between atoms: O_2  and  C_16 
REMARK    2  A    between atoms: N_5  and  C_9 
REMARK    3  A    between atoms: N_6  and  C_13 
REMARK       I    between atoms: N_6  and  C_22 
REMARK    4  A    between atoms: C_9  and  C_12 
REMARK    5  A    between atoms: C_13  and  C_16 
REMARK    6  A    between atoms: C_13  and  C_21 
REMARK    7  A    between atoms: C_19  and  C_24 
REMARK    8  A    between atoms: C_22  and  C_23 
REMARK    9  A    between atoms: C_27  and  C_30 
REMARK   10  A    between atoms: N_33  and  S_34 
ROOT
HETATM    1  C   UNL     1       5.668  10.874  89.597  1.00  0.00     0.056 A 
HETATM    2  C   UNL     1       5.146   9.662  89.998  1.00  0.00     0.005 A 
HETATM    3  C   UNL     1       7.024  11.081  89.458  1.00  0.00     0.005 A 
HETATM    4  C   UNL     1       7.395   8.794  90.143  1.00  0.00     0.042 A 
HETATM    5  C   UNL     1       6.018   8.610  90.275  1.00  0.00     0.008 A 
HETATM    6  C   UNL     1       7.898  10.030  89.735  1.00  0.00     0.008 A 
ENDROOT
BRANCH   1   7
HETATM    7  C   UNL     1       4.738  11.994  89.300  1.00  0.00     0.254 C 
HETATM    8  O   UNL     1       4.548  12.322  88.131  1.00  0.00    -0.268 OA
HETATM    9  N   UNL     1       4.122  12.579  90.397  1.00  0.00    -0.337 N 
HETATM   10  HN  UNL     1       4.308  12.238  91.333  1.00  0.00     0.164 HD
BRANCH   9  11
HETATM   11  C   UNL     1       3.176  13.659  90.271  1.00  0.00     0.172 C 
BRANCH  11  12
HETATM   12  C   UNL     1       1.933  13.466  91.149  1.00  0.00     0.136 C 
HETATM   13  C   UNL     1       2.131  12.391  92.212  1.00  0.00     0.034 C 
BRANCH  12  14
HETATM   14  O   UNL     1       1.606  14.698  91.791  1.00  0.00    -0.383 OA
HETATM   15  H   UNL     1       2.253  14.854  92.500  1.00  0.00     0.210 HD
ENDBRANCH  12  14
ENDBRANCH  11  12
BRANCH  11  16
HETATM   16  C   UNL     1       3.901  14.956  90.614  1.00  0.00     0.398 A 
HETATM   17  O   UNL     1       5.014  15.238  90.173  1.00  0.00    -0.136 OA
HETATM   18  N   UNL     1       4.937  15.560  91.657  1.00  0.00     0.142 N 
HETATM   19  HN  UNL     1       5.853  15.869  91.490  1.00  0.00     0.338 HD
BRANCH  18  20
HETATM   20  S   UNL     1       4.248  15.262  92.827  1.00  0.00     0.076 SA
HETATM   21  H   UNL     1       4.890  14.821  93.724  1.00  0.00     0.136 HD
ENDBRANCH  18  20
ENDBRANCH  11  16
ENDBRANCH   9  11
ENDBRANCH   1   7
BRANCH   4  22
HETATM   22  C   UNL     1       8.290   7.717  90.430  1.00  0.00    -0.059 C 
HETATM   23  C   UNL     1       9.043   6.811  90.671  1.00  0.00    -0.059 C 
BRANCH  23  24
HETATM   24  C   UNL     1       9.938   5.732  90.958  1.00  0.00     0.042 A 
HETATM   25  C   UNL     1      10.619   5.098  89.920  1.00  0.00     0.008 A 
HETATM   26  C   UNL     1      11.490   4.045  90.199  1.00  0.00    -0.002 A 
HETATM   27  C   UNL     1      11.680   3.628  91.517  1.00  0.00     0.011 A 
HETATM   28  C   UNL     1      10.998   4.264  92.555  1.00  0.00    -0.002 A 
HETATM   29  C   UNL     1      10.127   5.317  92.275  1.00  0.00     0.008 A 
BRANCH  27  30
HETATM   30  C   UNL     1      12.613   2.504  91.815  1.00  0.00     0.277 C 
BRANCH  30  31
HETATM   31  N   UNL     1      13.608   2.859  92.826  1.00  0.00     0.147 N 
HETATM   32  C   UNL     1      14.531   1.740  93.062  1.00  0.00     0.283 C 
HETATM   33  C   UNL     1      15.566   2.137  94.112  1.00  0.00     0.178 C 
HETATM   34  O   UNL     1      16.286   3.296  93.687  1.00  0.00    -0.350 OA
HETATM   35  C   UNL     1      15.400   4.397  93.484  1.00  0.00     0.178 C 
HETATM   36  C   UNL     1      14.361   4.055  92.421  1.00  0.00     0.283 C 
ENDBRANCH  30  31
ENDBRANCH  27  30
ENDBRANCH  23  24
ENDBRANCH   4  22
TORSDOF 10
ENDMDL
MODEL 2
REMARK VINA RESULT:      -6.9      1.473      2.149
REMARK  10 active torsions:
REMARK  status: ('A' for Active; 'I' for Inactive)
REMARK    1  A    between atoms: O_2  and  C_16 
REMARK    2  A    between atoms: N_5  and  C_9 
REMARK    3  A    between atoms: N_6  and  C_13 
REMARK       I    between atoms: N_6  and  C_22 
REMARK    4  A    between atoms: C_9  and  C_12 
REMARK    5  A    between atoms: C_13  and  C_16 
REMARK    6  A    between atoms: C_13  and  C_21 
REMARK    7  A    between atoms: C_19  and  C_24 
REMARK    8  A    between atoms: C_22  and  C_23 
REMARK    9  A    between atoms: C_27  and  C_30 
REMARK   10  A    between atoms: N_33  and  S_34 
ROOT
HETATM    1  C   UNL     1       5.284  10.514  91.003  1.00  0.00     0.056 A 
HETATM    2  C   UNL     1       5.120   9.348  90.284  1.00  0.00     0.005 A 
HETATM    3  C   UNL     1       6.364  10.720  91.835  1.00  0.00     0.005 A 
HETATM    4  C   UNL     1       7.182   8.527  91.237  1.00  0.00     0.042 A 
HETATM    5  C   UNL     1       6.080   8.343  90.402  1.00  0.00     0.008 A 
HETATM    6  C   UNL     1       7.324   9.715  91.954  1.00  0.00     0.008 A 
ENDROOT
BRANCH   1   7
HETATM    7  C   UNL     1       4.262  11.585  90.875  1.00  0.00     0.254 C 
HETATM    8  O   UNL     1       3.213  11.346  90.283  1.00  0.00    -0.268 OA
HETATM    9  N   UNL     1       4.575  12.798  91.473  1.00  0.00    -0.337 N 
HETATM   10  HN  UNL     1       5.452  12.915  91.968  1.00  0.00     0.164 HD
BRANCH   9  11
HETATM   11  C   UNL     1       3.678  13.925  91.457  1.00  0.00     0.172 C 
BRANCH  11  12
HETATM   12  C   UNL     1       3.591  14.595  90.080  1.00  0.00     0.136 C 
HETATM   13  C   UNL     1       4.958  14.761  89.424  1.00  0.00     0.034 C 
BRANCH  12  14
HETATM   14  O   UNL     1       2.757  13.817  89.222  1.00  0.00    -0.383 OA
HETATM   15  H   UNL     1       2.031  13.450  89.754  1.00  0.00     0.210 HD
ENDBRANCH  12  14
ENDBRANCH  11  12
BRANCH  11  16
HETATM   16  C   UNL     1       2.310  13.439  91.924  1.00  0.00     0.398 A 
HETATM   17  O   UNL     1       1.310  14.154  91.928  1.00  0.00    -0.136 OA
HETATM   18  N   UNL     1       1.397  13.361  93.222  1.00  0.00     0.142 N 
HETATM   19  HN  UNL     1       0.553  13.829  93.397  1.00  0.00     0.338 HD
BRANCH  18  20
HETATM   20  S   UNL     1       2.278  12.677  94.051  1.00  0.00     0.076 SA
HETATM   21  H   UNL     1       2.292  11.493  93.950  1.00  0.00     0.136 HD
ENDBRANCH  18  20
ENDBRANCH  11  16
ENDBRANCH   9  11
ENDBRANCH   1   7
BRANCH   4  22
HETATM   22  C   UNL     1       8.164   7.495  91.361  1.00  0.00    -0.059 C 
HETATM   23  C   UNL     1       8.990   6.628  91.465  1.00  0.00    -0.059 C 
BRANCH  23  24
HETATM   24  C   UNL     1       9.973   5.595  91.590  1.00  0.00     0.042 A 
HETATM   25  C   UNL     1      10.350   5.142  92.854  1.00  0.00     0.008 A 
HETATM   26  C   UNL     1      11.309   4.137  92.975  1.00  0.00    -0.002 A 
HETATM   27  C   UNL     1      11.889   3.584  91.832  1.00  0.00     0.011 A 
HETATM   28  C   UNL     1      11.510   4.039  90.569  1.00  0.00    -0.002 A 
HETATM   29  C   UNL     1      10.551   5.045  90.448  1.00  0.00     0.008 A 
BRANCH  27  30
HETATM   30  C   UNL     1      12.912   2.508  91.964  1.00  0.00     0.277 C 
BRANCH  30  31
HETATM   31  N   UNL     1      13.923   2.821  92.973  1.00  0.00     0.147 N 
HETATM   32  C   UNL     1      14.910   1.737  93.073  1.00  0.00     0.283 C 
HETATM   33  C   UNL     1      15.960   2.090  94.124  1.00  0.00     0.178 C 
HETATM   34  O   UNL     1      16.603   3.321  93.789  1.00  0.00    -0.350 OA
HETATM   35  C   UNL     1      15.654   4.386  93.720  1.00  0.00     0.178 C 
HETATM   36  C   UNL     1      14.597   4.088  92.661  1.00  0.00     0.283 C 
ENDBRANCH  30  31
ENDBRANCH  27  30
ENDBRANCH  23  24
ENDBRANCH   4  22
TORSDOF 10
ENDMDL
MODEL 3
REMARK VINA RESULT:      -6.9      1.239      1.765
REMARK  10 active torsions:
REMARK  status: ('A' for Active; 'I' for Inactive)
REMARK    1  A    between atoms: O_2  and  C_16 
REMARK    2  A    between atoms: N_5  and  C_9 
REMARK    3  A    between atoms: N_6  and  C_13 
REMARK       I    between atoms: N_6  and  C_22 
REMARK    4  A    between atoms: C_9  and  C_12 
REMARK    5  A    between atoms: C_13  and  C_16 
REMARK    6  A    between atoms: C_13  and  C_21 
REMARK    7  A    between atoms: C_19  and  C_24 
REMARK    8  A    between atoms: C_22  and  C_23 
REMARK    9  A    between atoms: C_27  and  C_30 
REMARK   10  A    between atoms: N_33  and  S_34 
ROOT
HETATM    1  C   UNL     1       4.799   9.829  90.447  1.00  0.00     0.056 A 
HETATM    2  C   UNL     1       5.818   9.818  89.517  1.00  0.00     0.005 A 
HETATM    3  C   UNL     1       4.780   8.972  91.527  1.00  0.00     0.005 A 
HETATM    4  C   UNL     1       6.868   8.032  90.758  1.00  0.00     0.042 A 
HETATM    5  C   UNL     1       6.865   8.910  89.674  1.00  0.00     0.008 A 
HETATM    6  C   UNL     1       5.826   8.063  91.685  1.00  0.00     0.008 A 
ENDROOT
BRANCH   1   7
HETATM    7  C   UNL     1       3.685  10.798  90.280  1.00  0.00     0.254 C 
HETATM    8  O   UNL     1       2.668  10.447  89.687  1.00  0.00    -0.268 OA
HETATM    9  N   UNL     1       3.880  12.050  90.846  1.00  0.00    -0.337 N 
HETATM   10  HN  UNL     1       4.737  12.261  91.344  1.00  0.00     0.164 HD
BRANCH   9  11
HETATM   11  C   UNL     1       2.883  13.090  90.790  1.00  0.00     0.172 C 
BRANCH  11  12
HETATM   12  C   UNL     1       2.492  13.612  92.178  1.00  0.00     0.136 C 
HETATM   13  C   UNL     1       1.231  14.468  92.146  1.00  0.00     0.034 C 
BRANCH  12  14
HETATM   14  O   UNL     1       2.282  12.510  93.061  1.00  0.00    -0.383 OA
HETATM   15  H   UNL     1       2.083  12.862  93.945  1.00  0.00     0.210 HD
ENDBRANCH  12  14
ENDBRANCH  11  12
BRANCH  11  16
HETATM   16  C   UNL     1       3.427  14.210  89.910  1.00  0.00     0.398 A 
HETATM   17  O   UNL     1       3.989  14.004  88.835  1.00  0.00    -0.136 OA
HETATM   18  N   UNL     1       4.752  15.044  89.640  1.00  0.00     0.142 N 
HETATM   19  HN  UNL     1       5.318  15.040  88.839  1.00  0.00     0.338 HD
BRANCH  18  20
HETATM   20  S   UNL     1       4.957  15.525  90.928  1.00  0.00     0.076 SA
HETATM   21  H   UNL     1       4.548  16.616  91.160  1.00  0.00     0.136 HD
ENDBRANCH  18  20
ENDBRANCH  11  16
ENDBRANCH   9  11
ENDBRANCH   1   7
BRANCH   4  22
HETATM   22  C   UNL     1       7.940   7.099  90.918  1.00  0.00    -0.059 C 
HETATM   23  C   UNL     1       8.841   6.315  91.052  1.00  0.00    -0.059 C 
BRANCH  23  24
HETATM   24  C   UNL     1       9.913   5.381  91.212  1.00  0.00     0.042 A 
HETATM   25  C   UNL     1      10.201   4.862  92.474  1.00  0.00     0.008 A 
HETATM   26  C   UNL     1      11.248   3.953  92.631  1.00  0.00    -0.002 A 
HETATM   27  C   UNL     1      12.004   3.562  91.526  1.00  0.00     0.011 A 
HETATM   28  C   UNL     1      11.713   4.082  90.264  1.00  0.00    -0.002 A 
HETATM   29  C   UNL     1      10.667   4.991  90.108  1.00  0.00     0.008 A 
BRANCH  27  30
HETATM   30  C   UNL     1      13.120   2.589  91.694  1.00  0.00     0.277 C 
BRANCH  30  31
HETATM   31  N   UNL     1      14.019   2.957  92.787  1.00  0.00     0.147 N 
HETATM   32  C   UNL     1      15.045   1.924  92.986  1.00  0.00     0.283 C 
HETATM   33  C   UNL     1      15.978   2.335  94.123  1.00  0.00     0.178 C 
HETATM   34  O   UNL     1      16.588   3.594  93.835  1.00  0.00    -0.350 OA
HETATM   35  C   UNL     1      15.598   4.611  93.670  1.00  0.00     0.178 C 
HETATM   36  C   UNL     1      14.656   4.255  92.524  1.00  0.00     0.283 C 
ENDBRANCH  30  31
ENDBRANCH  27  30
ENDBRANCH  23  24
ENDBRANCH   4  22
TORSDOF 10
ENDMDL
MODEL 4
REMARK VINA RESULT:      -6.6      1.602      1.897
REMARK  10 active torsions:
REMARK  status: ('A' for Active; 'I' for Inactive)
REMARK    1  A    between atoms: O_2  and  C_16 
REMARK    2  A    between atoms: N_5  and  C_9 
REMARK    3  A    between atoms: N_6  and  C_13 
REMARK       I    between atoms: N_6  and  C_22 
REMARK    4  A    between atoms: C_9  and  C_12 
REMARK    5  A    between atoms: C_13  and  C_16 
REMARK    6  A    between atoms: C_13  and  C_21 
REMARK    7  A    between atoms: C_19  and  C_24 
REMARK    8  A    between atoms: C_22  and  C_23 
REMARK    9  A    between atoms: C_27  and  C_30 
REMARK   10  A    between atoms: N_33  and  S_34 
ROOT
HETATM    1  C   UNL     1       4.280   9.806  91.504  1.00  0.00     0.056 A 
HETATM    2  C   UNL     1       4.532   9.030  90.393  1.00  0.00     0.005 A 
HETATM    3  C   UNL     1       5.037   9.715  92.653  1.00  0.00     0.005 A 
HETATM    4  C   UNL     1       6.370   8.009  91.581  1.00  0.00     0.042 A 
HETATM    5  C   UNL     1       5.589   8.121  90.431  1.00  0.00     0.008 A 
HETATM    6  C   UNL     1       6.094   8.806  92.693  1.00  0.00     0.008 A 
ENDROOT
BRANCH   1   7
HETATM    7  C   UNL     1       3.155  10.776  91.462  1.00  0.00     0.254 C 
HETATM    8  O   UNL     1       2.019  10.368  91.234  1.00  0.00    -0.268 OA
HETATM    9  N   UNL     1       3.485  12.101  91.715  1.00  0.00    -0.337 N 
HETATM   10  HN  UNL     1       4.442  12.361  91.921  1.00  0.00     0.164 HD
BRANCH   9  11
HETATM   11  C   UNL     1       2.502  13.154  91.734  1.00  0.00     0.172 C 
BRANCH  11  12
HETATM   12  C   UNL     1       2.462  13.904  93.071  1.00  0.00     0.136 C 
HETATM   13  C   UNL     1       3.779  13.813  93.832  1.00  0.00     0.034 C 
BRANCH  12  14
HETATM   14  O   UNL     1       2.155  15.279  92.839  1.00  0.00    -0.383 OA
HETATM   15  H   UNL     1       2.509  15.527  91.968  1.00  0.00     0.210 HD
ENDBRANCH  12  14
ENDBRANCH  11  12
BRANCH  11  16
HETATM   16  C   UNL     1       2.811  14.100  90.577  1.00  0.00     0.398 A 
HETATM   17  O   UNL     1       2.902  13.723  89.410  1.00  0.00    -0.136 OA
HETATM   18  N   UNL     1       4.031  14.685  89.745  1.00  0.00     0.142 N 
HETATM   19  HN  UNL     1       4.252  14.526  88.802  1.00  0.00     0.338 HD
BRANCH  18  20
HETATM   20  S   UNL     1       4.758  15.225  90.799  1.00  0.00     0.076 SA
HETATM   21  H   UNL     1       5.164  14.459  91.612  1.00  0.00     0.136 HD
ENDBRANCH  18  20
ENDBRANCH  11  16
ENDBRANCH   9  11
ENDBRANCH   1   7
BRANCH   4  22
HETATM   22  C   UNL     1       7.451   7.075  91.622  1.00  0.00    -0.059 C 
HETATM   23  C   UNL     1       8.361   6.289  91.655  1.00  0.00    -0.059 C 
BRANCH  23  24
HETATM   24  C   UNL     1       9.444   5.354  91.695  1.00  0.00     0.042 A 
HETATM   25  C   UNL     1       9.797   4.649  90.545  1.00  0.00     0.008 A 
HETATM   26  C   UNL     1      10.851   3.737  90.584  1.00  0.00    -0.002 A 
HETATM   27  C   UNL     1      11.552   3.532  91.773  1.00  0.00     0.011 A 
HETATM   28  C   UNL     1      11.197   4.238  92.922  1.00  0.00    -0.002 A 
HETATM   29  C   UNL     1      10.143   5.150  92.883  1.00  0.00     0.008 A 
BRANCH  27  30
HETATM   30  C   UNL     1      12.680   2.558  91.813  1.00  0.00     0.277 C 
BRANCH  30  31
HETATM   31  N   UNL     1      13.706   2.933  92.786  1.00  0.00     0.147 N 
HETATM   32  C   UNL     1      14.575   1.788  93.093  1.00  0.00     0.283 C 
HETATM   33  C   UNL     1      15.643   2.206  94.100  1.00  0.00     0.178 C 
HETATM   34  O   UNL     1      16.413   3.294  93.586  1.00  0.00    -0.350 OA
HETATM   35  C   UNL     1      15.580   4.421  93.314  1.00  0.00     0.178 C 
HETATM   36  C   UNL     1      14.511   4.057  92.289  1.00  0.00     0.283 C 
ENDBRANCH  30  31
ENDBRANCH  27  30
ENDBRANCH  23  24
ENDBRANCH   4  22
TORSDOF 10
ENDMDL
MODEL 5
REMARK VINA RESULT:      -6.2      1.517      2.190
REMARK  10 active torsions:
REMARK  status: ('A' for Active; 'I' for Inactive)
REMARK    1  A    between atoms: O_2  and  C_16 
REMARK    2  A    between atoms: N_5  and  C_9 
REMARK    3  A    between atoms: N_6  and  C_13 
REMARK       I    between atoms: N_6  and  C_22 
REMARK    4  A    between atoms: C_9  and  C_12 
REMARK    5  A    between atoms: C_13  and  C_16 
REMARK    6  A    between atoms: C_13  and  C_21 
REMARK    7  A    between atoms: C_19  and  C_24 
REMARK    8  A    between atoms: C_22  and  C_23 
REMARK    9  A    between atoms: C_27  and  C_30 
REMARK   10  A    between atoms: N_33  and  S_34 
ROOT
HETATM    1  C   UNL     1       5.446  10.359  90.778  1.00  0.00     0.056 A 
HETATM    2  C   UNL     1       5.448   9.322  89.869  1.00  0.00     0.005 A 
HETATM    3  C   UNL     1       6.332  10.414  91.834  1.00  0.00     0.005 A 
HETATM    4  C   UNL     1       7.282   8.324  91.083  1.00  0.00     0.042 A 
HETATM    5  C   UNL     1       6.376   8.292  90.023  1.00  0.00     0.008 A 
HETATM    6  C   UNL     1       7.261   9.385  91.989  1.00  0.00     0.008 A 
ENDROOT
BRANCH   1   7
HETATM    7  C   UNL     1       4.459  11.457  90.612  1.00  0.00     0.254 C 
HETATM    8  O   UNL     1       3.580  11.349  89.761  1.00  0.00    -0.268 OA
HETATM    9  N   UNL     1       4.598  12.536  91.474  1.00  0.00    -0.337 N 
HETATM   10  HN  UNL     1       5.335  12.544  92.171  1.00  0.00     0.164 HD
BRANCH   9  11
HETATM   11  C   UNL     1       3.705  13.666  91.454  1.00  0.00     0.172 C 
BRANCH  11  12
HETATM   12  C   UNL     1       3.716  14.407  90.111  1.00  0.00     0.136 C 
HETATM   13  C   UNL     1       5.065  14.317  89.406  1.00  0.00     0.034 C 
BRANCH  12  14
HETATM   14  O   UNL     1       2.710  13.864  89.257  1.00  0.00    -0.383 OA
HETATM   15  H   UNL     1       1.845  14.184  89.564  1.00  0.00     0.210 HD
ENDBRANCH  12  14
ENDBRANCH  11  12
BRANCH  11  16
HETATM   16  C   UNL     1       2.307  13.160  91.796  1.00  0.00     0.398 A 
HETATM   17  O   UNL     1       1.382  13.908  92.108  1.00  0.00    -0.136 OA
HETATM   18  N   UNL     1       1.422  12.703  93.033  1.00  0.00     0.142 N 
HETATM   19  HN  UNL     1       0.632  13.147  93.410  1.00  0.00     0.338 HD
BRANCH  18  20
HETATM   20  S   UNL     1       2.251  11.698  93.518  1.00  0.00     0.076 SA
HETATM   21  H   UNL     1       2.976  11.182  92.731  1.00  0.00     0.136 HD
ENDBRANCH  18  20
ENDBRANCH  11  16
ENDBRANCH   9  11
ENDBRANCH   1   7
BRANCH   4  22
HETATM   22  C   UNL     1       8.232   7.267  91.243  1.00  0.00    -0.059 C 
HETATM   23  C   UNL     1       9.031   6.379  91.378  1.00  0.00    -0.059 C 
BRANCH  23  24
HETATM   24  C   UNL     1       9.982   5.322  91.538  1.00  0.00     0.042 A 
HETATM   25  C   UNL     1      10.433   4.616  90.423  1.00  0.00     0.008 A 
HETATM   26  C   UNL     1      11.357   3.584  90.580  1.00  0.00    -0.002 A 
HETATM   27  C   UNL     1      11.832   3.260  91.852  1.00  0.00     0.011 A 
HETATM   28  C   UNL     1      11.380   3.967  92.965  1.00  0.00    -0.002 A 
HETATM   29  C   UNL     1      10.455   4.999  92.808  1.00  0.00     0.008 A 
BRANCH  27  30
HETATM   30  C   UNL     1      12.823   2.158  92.017  1.00  0.00     0.277 C 
BRANCH  30  31
HETATM   31  N   UNL     1      14.150   2.652  92.379  1.00  0.00     0.147 N 
HETATM   32  C   UNL     1      14.229   4.109  92.204  1.00  0.00     0.283 C 
HETATM   33  C   UNL     1      15.618   4.602  92.598  1.00  0.00     0.178 C 
HETATM   34  O   UNL     1      15.907   4.246  93.951  1.00  0.00    -0.350 OA
HETATM   35  C   UNL     1      15.864   2.829  94.123  1.00  0.00     0.178 C 
HETATM   36  C   UNL     1      14.481   2.293  93.765  1.00  0.00     0.283 C 
ENDBRANCH  30  31
ENDBRANCH  27  30
ENDBRANCH  23  24
ENDBRANCH   4  22
TORSDOF 10
ENDMDL
MODEL 6
REMARK VINA RESULT:      -5.9      2.697      3.668
REMARK  10 active torsions:
REMARK  status: ('A' for Active; 'I' for Inactive)
REMARK    1  A    between atoms: O_2  and  C_16 
REMARK    2  A    between atoms: N_5  and  C_9 
REMARK    3  A    between atoms: N_6  and  C_13 
REMARK       I    between atoms: N_6  and  C_22 
REMARK    4  A    between atoms: C_9  and  C_12 
REMARK    5  A    between atoms: C_13  and  C_16 
REMARK    6  A    between atoms: C_13  and  C_21 
REMARK    7  A    between atoms: C_19  and  C_24 
REMARK    8  A    between atoms: C_22  and  C_23 
REMARK    9  A    between atoms: C_27  and  C_30 
REMARK   10  A    between atoms: N_33  and  S_34 
ROOT
HETATM    1  C   UNL     1       6.156   7.632  88.060  1.00  0.00     0.056 A 
HETATM    2  C   UNL     1       7.379   7.547  87.429  1.00  0.00     0.005 A 
HETATM    3  C   UNL     1       5.910   7.026  89.273  1.00  0.00     0.005 A 
HETATM    4  C   UNL     1       8.179   6.198  89.266  1.00  0.00     0.042 A 
HETATM    5  C   UNL     1       8.403   6.822  88.038  1.00  0.00     0.008 A 
HETATM    6  C   UNL     1       6.933   6.300  89.884  1.00  0.00     0.008 A 
ENDROOT
BRANCH   1   7
HETATM    7  C   UNL     1       5.066   8.407  87.411  1.00  0.00     0.254 C 
HETATM    8  O   UNL     1       5.046   8.504  86.187  1.00  0.00    -0.268 OA
HETATM    9  N   UNL     1       4.118   8.954  88.265  1.00  0.00    -0.337 N 
HETATM   10  HN  UNL     1       4.186   8.812  89.265  1.00  0.00     0.164 HD
BRANCH   9  11
HETATM   11  C   UNL     1       2.989   9.711  87.786  1.00  0.00     0.172 C 
BRANCH  11  12
HETATM   12  C   UNL     1       1.646   9.058  88.136  1.00  0.00     0.136 C 
HETATM   13  C   UNL     1       1.422   7.747  87.390  1.00  0.00     0.034 C 
BRANCH  12  14
HETATM   14  O   UNL     1       1.588   8.808  89.540  1.00  0.00    -0.383 OA
HETATM   15  H   UNL     1       0.658   8.852  89.820  1.00  0.00     0.210 HD
ENDBRANCH  12  14
ENDBRANCH  11  12
BRANCH  11  16
HETATM   16  C   UNL     1       3.090  11.117  88.369  1.00  0.00     0.398 A 
HETATM   17  O   UNL     1       3.601  12.057  87.763  1.00  0.00    -0.136 OA
HETATM   18  N   UNL     1       4.068  12.044  89.210  1.00  0.00     0.142 N 
HETATM   19  HN  UNL     1       4.542  12.850  88.913  1.00  0.00     0.338 HD
BRANCH  18  20
HETATM   20  S   UNL     1       4.217  11.227  90.325  1.00  0.00     0.076 SA
HETATM   21  H   UNL     1       4.090  11.748  91.385  1.00  0.00     0.136 HD
ENDBRANCH  18  20
ENDBRANCH  11  16
ENDBRANCH   9  11
ENDBRANCH   1   7
BRANCH   4  22
HETATM   22  C   UNL     1       9.227   5.452  89.889  1.00  0.00    -0.059 C 
HETATM   23  C   UNL     1      10.109   4.826  90.413  1.00  0.00    -0.059 C 
BRANCH  23  24
HETATM   24  C   UNL     1      11.159   4.080  91.038  1.00  0.00     0.042 A 
HETATM   25  C   UNL     1      10.879   3.275  92.142  1.00  0.00     0.008 A 
HETATM   26  C   UNL     1      11.902   2.550  92.752  1.00  0.00    -0.002 A 
HETATM   27  C   UNL     1      13.204   2.627  92.256  1.00  0.00     0.011 A 
HETATM   28  C   UNL     1      13.481   3.432  91.151  1.00  0.00    -0.002 A 
HETATM   29  C   UNL     1      12.458   4.158  90.541  1.00  0.00     0.008 A 
BRANCH  27  30
HETATM   30  C   UNL     1      14.296   1.850  92.908  1.00  0.00     0.277 C 
BRANCH  30  31
HETATM   31  N   UNL     1      15.221   2.703  93.651  1.00  0.00     0.147 N 
HETATM   32  C   UNL     1      16.614   2.351  93.346  1.00  0.00     0.283 C 
HETATM   33  C   UNL     1      17.560   3.262  94.124  1.00  0.00     0.178 C 
HETATM   34  O   UNL     1      17.310   4.631  93.801  1.00  0.00    -0.350 OA
HETATM   35  C   UNL     1      15.966   4.990  94.124  1.00  0.00     0.178 C 
HETATM   36  C   UNL     1      14.982   4.121  93.347  1.00  0.00     0.283 C 
ENDBRANCH  30  31
ENDBRANCH  27  30
ENDBRANCH  23  24
ENDBRANCH   4  22
TORSDOF 10
ENDMDL
MODEL 7
REMARK VINA RESULT:      -5.6      3.615     12.386
REMARK  10 active torsions:
REMARK  status: ('A' for Active; 'I' for Inactive)
REMARK    1  A    between atoms: O_2  and  C_16 
REMARK    2  A    between atoms: N_5  and  C_9 
REMARK    3  A    between atoms: N_6  and  C_13 
REMARK       I    between atoms: N_6  and  C_22 
REMARK    4  A    between atoms: C_9  and  C_12 
REMARK    5  A    between atoms: C_13  and  C_16 
REMARK    6  A    between atoms: C_13  and  C_21 
REMARK    7  A    between atoms: C_19  and  C_24 
REMARK    8  A    between atoms: C_22  and  C_23 
REMARK    9  A    between atoms: C_27  and  C_30 
REMARK   10  A    between atoms: N_33  and  S_34 
ROOT
HETATM    1  C   UNL     1      10.171   5.753  89.898  1.00  0.00     0.056 A 
HETATM    2  C   UNL     1      10.071   6.572  88.793  1.00  0.00     0.005 A 
HETATM    3  C   UNL     1       9.382   5.926  91.016  1.00  0.00     0.005 A 
HETATM    4  C   UNL     1       8.331   7.807  89.925  1.00  0.00     0.042 A 
HETATM    5  C   UNL     1       9.141   7.611  88.805  1.00  0.00     0.008 A 
HETATM    6  C   UNL     1       8.451   6.965  91.030  1.00  0.00     0.008 A 
ENDROOT
BRANCH   1   7
HETATM    7  C   UNL     1      11.161   4.645  89.884  1.00  0.00     0.254 C 
HETATM    8  O   UNL     1      11.318   3.995  88.853  1.00  0.00    -0.268 OA
HETATM    9  N   UNL     1      11.866   4.444  91.062  1.00  0.00    -0.337 N 
HETATM   10  HN  UNL     1      11.700   5.037  91.867  1.00  0.00     0.164 HD
BRANCH   9  11
HETATM   11  C   UNL     1      12.876   3.425  91.198  1.00  0.00     0.172 C 
BRANCH  11  12
HETATM   12  C   UNL     1      14.301   3.994  91.165  1.00  0.00     0.136 C 
HETATM   13  C   UNL     1      15.305   3.019  90.559  1.00  0.00     0.034 C 
BRANCH  12  14
HETATM   14  O   UNL     1      14.314   5.203  90.407  1.00  0.00    -0.383 OA
HETATM   15  H   UNL     1      13.402   5.531  90.339  1.00  0.00     0.210 HD
ENDBRANCH  12  14
ENDBRANCH  11  12
BRANCH  11  16
HETATM   16  C   UNL     1      12.609   2.674  92.498  1.00  0.00     0.398 A 
HETATM   17  O   UNL     1      11.652   2.920  93.229  1.00  0.00    -0.136 OA
HETATM   18  N   UNL     1      12.915   2.741  94.055  1.00  0.00     0.142 N 
HETATM   19  HN  UNL     1      12.284   2.895  94.790  1.00  0.00     0.338 HD
BRANCH  18  20
HETATM   20  S   UNL     1      14.303   2.780  93.990  1.00  0.00     0.076 SA
HETATM   21  H   UNL     1      14.810   3.850  94.083  1.00  0.00     0.136 HD
ENDBRANCH  18  20
ENDBRANCH  11  16
ENDBRANCH   9  11
ENDBRANCH   1   7
BRANCH   4  22
HETATM   22  C   UNL     1       7.379   8.874  89.939  1.00  0.00    -0.059 C 
HETATM   23  C   UNL     1       6.578   9.770  89.951  1.00  0.00    -0.059 C 
BRANCH  23  24
HETATM   24  C   UNL     1       5.625  10.837  89.966  1.00  0.00     0.042 A 
HETATM   25  C   UNL     1       4.412  10.678  90.634  1.00  0.00     0.008 A 
HETATM   26  C   UNL     1       3.482  11.717  90.647  1.00  0.00    -0.002 A 
HETATM   27  C   UNL     1       3.767  12.917  89.993  1.00  0.00     0.011 A 
HETATM   28  C   UNL     1       4.982  13.075  89.326  1.00  0.00    -0.002 A 
HETATM   29  C   UNL     1       5.911  12.034  89.312  1.00  0.00     0.008 A 
BRANCH  27  30
HETATM   30  C   UNL     1       2.774  14.028  90.010  1.00  0.00     0.277 C 
BRANCH  30  31
HETATM   31  N   UNL     1       2.714  14.702  91.305  1.00  0.00     0.147 N 
HETATM   32  C   UNL     1       1.822  13.983  92.226  1.00  0.00     0.283 C 
HETATM   33  C   UNL     1       1.784  14.699  93.574  1.00  0.00     0.178 C 
HETATM   34  O   UNL     1       3.100  14.792  94.124  1.00  0.00    -0.350 OA
HETATM   35  C   UNL     1       3.965  15.517  93.249  1.00  0.00     0.178 C 
HETATM   36  C   UNL     1       4.055  14.822  91.894  1.00  0.00     0.283 C 
ENDBRANCH  30  31
ENDBRANCH  27  30
ENDBRANCH  23  24
ENDBRANCH   4  22
TORSDOF 10
ENDMDL
MODEL 8
REMARK VINA RESULT:      -5.4      3.587     12.503
REMARK  10 active torsions:
REMARK  status: ('A' for Active; 'I' for Inactive)
REMARK    1  A    between atoms: O_2  and  C_16 
REMARK    2  A    between atoms: N_5  and  C_9 
REMARK    3  A    between atoms: N_6  and  C_13 
REMARK       I    between atoms: N_6  and  C_22 
REMARK    4  A    between atoms: C_9  and  C_12 
REMARK    5  A    between atoms: C_13  and  C_16 
REMARK    6  A    between atoms: C_13  and  C_21 
REMARK    7  A    between atoms: C_19  and  C_24 
REMARK    8  A    between atoms: C_22  and  C_23 
REMARK    9  A    between atoms: C_27  and  C_30 
REMARK   10  A    between atoms: N_33  and  S_34 
ROOT
HETATM    1  C   UNL     1      10.074   5.248  90.623  1.00  0.00     0.056 A 
HETATM    2  C   UNL     1       9.277   5.562  91.704  1.00  0.00     0.005 A 
HETATM    3  C   UNL     1      10.014   5.948  89.436  1.00  0.00     0.005 A 
HETATM    4  C   UNL     1       8.296   7.345  90.403  1.00  0.00     0.042 A 
HETATM    5  C   UNL     1       8.377   6.622  91.593  1.00  0.00     0.008 A 
HETATM    6  C   UNL     1       9.114   7.008  89.324  1.00  0.00     0.008 A 
ENDROOT
BRANCH   1   7
HETATM    7  C   UNL     1      11.034   4.120  90.743  1.00  0.00     0.254 C 
HETATM    8  O   UNL     1      10.866   3.114  90.058  1.00  0.00    -0.268 OA
HETATM    9  N   UNL     1      12.087   4.309  91.627  1.00  0.00    -0.337 N 
HETATM   10  HN  UNL     1      12.176   5.178  92.141  1.00  0.00     0.164 HD
BRANCH   9  11
HETATM   11  C   UNL     1      13.113   3.318  91.834  1.00  0.00     0.172 C 
BRANCH  11  12
HETATM   12  C   UNL     1      14.191   3.342  90.744  1.00  0.00     0.136 C 
HETATM   13  C   UNL     1      14.616   4.759  90.375  1.00  0.00     0.034 C 
BRANCH  12  14
HETATM   14  O   UNL     1      15.337   2.616  91.190  1.00  0.00    -0.383 OA
HETATM   15  H   UNL     1      15.506   2.853  92.117  1.00  0.00     0.210 HD
ENDBRANCH  12  14
ENDBRANCH  11  12
BRANCH  11  16
HETATM   16  C   UNL     1      13.715   3.554  93.216  1.00  0.00     0.398 A 
HETATM   17  O   UNL     1      14.558   4.420  93.440  1.00  0.00    -0.136 OA
HETATM   18  N   UNL     1      14.944   3.119  94.124  1.00  0.00     0.142 N 
HETATM   19  HN  UNL     1      15.693   3.671  94.433  1.00  0.00     0.338 HD
BRANCH  18  20
HETATM   20  S   UNL     1      14.744   1.743  94.095  1.00  0.00     0.076 SA
HETATM   21  H   UNL     1      13.618   1.372  94.017  1.00  0.00     0.136 HD
ENDBRANCH  18  20
ENDBRANCH  11  16
ENDBRANCH   9  11
ENDBRANCH   1   7
BRANCH   4  22
HETATM   22  C   UNL     1       7.372   8.429  90.288  1.00  0.00    -0.059 C 
HETATM   23  C   UNL     1       6.595   9.341  90.190  1.00  0.00    -0.059 C 
BRANCH  23  24
HETATM   24  C   UNL     1       5.669  10.426  90.076  1.00  0.00     0.042 A 
HETATM   25  C   UNL     1       4.378  10.296  90.585  1.00  0.00     0.008 A 
HETATM   26  C   UNL     1       3.474  11.353  90.472  1.00  0.00    -0.002 A 
HETATM   27  C   UNL     1       3.864  12.540  89.850  1.00  0.00     0.011 A 
HETATM   28  C   UNL     1       5.157  12.668  89.341  1.00  0.00    -0.002 A 
HETATM   29  C   UNL     1       6.059  11.611  89.454  1.00  0.00     0.008 A 
BRANCH  27  30
HETATM   30  C   UNL     1       2.899  13.670  89.731  1.00  0.00     0.277 C 
BRANCH  30  31
HETATM   31  N   UNL     1       2.847  14.488  90.942  1.00  0.00     0.147 N 
HETATM   32  C   UNL     1       1.934  13.897  91.930  1.00  0.00     0.283 C 
HETATM   33  C   UNL     1       1.904  14.761  93.188  1.00  0.00     0.178 C 
HETATM   34  O   UNL     1       3.218  14.887  93.735  1.00  0.00    -0.350 OA
HETATM   35  C   UNL     1       4.105  15.489  92.792  1.00  0.00     0.178 C 
HETATM   36  C   UNL     1       4.187  14.644  91.525  1.00  0.00     0.283 C 
ENDBRANCH  30  31
ENDBRANCH  27  30
ENDBRANCH  23  24
ENDBRANCH   4  22
TORSDOF 10
ENDMDL
MODEL 9
REMARK VINA RESULT:      -5.4      3.707     12.599
REMARK  10 active torsions:
REMARK  status: ('A' for Active; 'I' for Inactive)
REMARK    1  A    between atoms: O_2  and  C_16 
REMARK    2  A    between atoms: N_5  and  C_9 
REMARK    3  A    between atoms: N_6  and  C_13 
REMARK       I    between atoms: N_6  and  C_22 
REMARK    4  A    between atoms: C_9  and  C_12 
REMARK    5  A    between atoms: C_13  and  C_16 
REMARK    6  A    between atoms: C_13  and  C_21 
REMARK    7  A    between atoms: C_19  and  C_24 
REMARK    8  A    between atoms: C_22  and  C_23 
REMARK    9  A    between atoms: C_27  and  C_30 
REMARK   10  A    between atoms: N_33  and  S_34 
ROOT
HETATM    1  C   UNL     1      10.646   4.730  92.769  1.00  0.00     0.056 A 
HETATM    2  C   UNL     1      10.171   5.014  91.505  1.00  0.00     0.005 A 
HETATM    3  C   UNL     1      10.171   5.370  93.894  1.00  0.00     0.005 A 
HETATM    4  C   UNL     1       8.681   6.644  92.483  1.00  0.00     0.042 A 
HETATM    5  C   UNL     1       9.178   5.982  91.360  1.00  0.00     0.008 A 
HETATM    6  C   UNL     1       9.178   6.338  93.750  1.00  0.00     0.008 A 
ENDROOT
BRANCH   1   7
HETATM    7  C   UNL     1      11.702   3.696  92.923  1.00  0.00     0.254 C 
HETATM    8  O   UNL     1      11.383   2.510  92.940  1.00  0.00    -0.268 OA
HETATM    9  N   UNL     1      13.005   4.168  93.014  1.00  0.00    -0.337 N 
HETATM   10  HN  UNL     1      13.195   5.162  92.967  1.00  0.00     0.164 HD
BRANCH   9  11
HETATM   11  C   UNL     1      14.140   3.289  93.142  1.00  0.00     0.172 C 
BRANCH  11  12
HETATM   12  C   UNL     1      14.594   2.706  91.798  1.00  0.00     0.136 C 
HETATM   13  C   UNL     1      14.301   3.639  90.628  1.00  0.00     0.034 C 
BRANCH  12  14
HETATM   14  O   UNL     1      15.996   2.443  91.841  1.00  0.00    -0.383 OA
HETATM   15  H   UNL     1      16.209   1.809  91.136  1.00  0.00     0.210 HD
ENDBRANCH  12  14
ENDBRANCH  11  12
BRANCH  11  16
HETATM   16  C   UNL     1      15.262   4.074  93.814  1.00  0.00     0.398 A 
HETATM   17  O   UNL     1      15.723   5.115  93.349  1.00  0.00    -0.136 OA
HETATM   18  N   UNL     1      16.845   4.209  93.829  1.00  0.00     0.142 N 
HETATM   19  HN  UNL     1      17.391   4.968  93.532  1.00  0.00     0.338 HD
BRANCH  18  20
HETATM   20  S   UNL     1      17.160   2.887  94.124  1.00  0.00     0.076 SA
HETATM   21  H   UNL     1      18.241   2.687  94.576  1.00  0.00     0.136 HD
ENDBRANCH  18  20
ENDBRANCH  11  16
ENDBRANCH   9  11
ENDBRANCH   1   7
BRANCH   4  22
HETATM   22  C   UNL     1       7.665   7.639  92.334  1.00  0.00    -0.059 C 
HETATM   23  C   UNL     1       6.810   8.475  92.209  1.00  0.00    -0.059 C 
BRANCH  23  24
HETATM   24  C   UNL     1       5.794   9.471  92.061  1.00  0.00     0.042 A 
HETATM   25  C   UNL     1       5.882  10.667  92.772  1.00  0.00     0.008 A 
HETATM   26  C   UNL     1       4.890  11.637  92.630  1.00  0.00    -0.002 A 
HETATM   27  C   UNL     1       3.811  11.411  91.774  1.00  0.00     0.011 A 
HETATM   28  C   UNL     1       3.725  10.214  91.063  1.00  0.00    -0.002 A 
HETATM   29  C   UNL     1       4.717   9.244  91.207  1.00  0.00     0.008 A 
BRANCH  27  30
HETATM   30  C   UNL     1       2.753  12.449  91.621  1.00  0.00     0.277 C 
BRANCH  30  31
HETATM   31  N   UNL     1       3.234  13.636  90.916  1.00  0.00     0.147 N 
HETATM   32  C   UNL     1       4.167  14.398  91.758  1.00  0.00     0.283 C 
HETATM   33  C   UNL     1       4.665  15.625  90.999  1.00  0.00     0.178 C 
HETATM   34  O   UNL     1       5.300  15.232  89.780  1.00  0.00    -0.350 OA
HETATM   35  C   UNL     1       4.390  14.517  88.943  1.00  0.00     0.178 C 
HETATM   36  C   UNL     1       3.886  13.265  89.652  1.00  0.00     0.283 C 
ENDBRANCH  30  31
ENDBRANCH  27  30
ENDBRANCH  23  24
ENDBRANCH   4  22
TORSDOF 10
ENDMDL
