MODEL 1
REMARK VINA RESULT:      -6.4      0.000      0.000
REMARK  14 active torsions:
REMARK  status: ('A' for Active; 'I' for Inactive)
REMARK    1  A    between atoms: O_2  and  C_18 
REMARK    2  A    between atoms: C_5  and  C_8 
REMARK    3  A    between atoms: C_5  and  O_35 
REMARK    4  A    between atoms: C_5  and  C_36 
REMARK    5  A    between atoms: N_6  and  C_11 
REMARK    6  A    between atoms: N_7  and  C_15 
REMARK       I    between atoms: N_7  and  C_24 
REMARK    7  A    between atoms: C_8  and  C_23 
REMARK    8  A    between atoms: C_11  and  C_14 
REMARK    9  A    between atoms: C_15  and  C_18 
REMARK   10  A    between atoms: C_15  and  C_23 
REMARK   11  A    between atoms: C_21  and  C_26 
REMARK   12  A    between atoms: C_24  and  C_25 
REMARK   13  A    between atoms: C_29  and  C_32 
REMARK   14  A    between atoms: C_36  and  O_39 
ROOT
HETATM    1  O   UNL     1      16.417   2.872  94.027  1.00  0.00    -0.350 OA
HETATM    2  N   UNL     1      13.993   2.965  92.538  1.00  0.00     0.147 N 
HETATM    3  C   UNL     1      14.669   1.693  92.826  1.00  0.00     0.283 C 
HETATM    4  C   UNL     1      14.976   4.055  92.474  1.00  0.00     0.283 C 
HETATM    5  C   UNL     1      15.464   1.812  94.123  1.00  0.00     0.178 C 
HETATM    6  C   UNL     1      15.765   4.118  93.778  1.00  0.00     0.178 C 
ENDROOT
BRANCH   2   7
HETATM    7  C   UNL     1      13.232   2.878  91.292  1.00  0.00     0.277 C 
BRANCH   7   8
HETATM    8  C   UNL     1      12.032   3.762  91.296  1.00  0.00     0.011 A 
HETATM    9  C   UNL     1      11.629   4.394  90.118  1.00  0.00    -0.002 A 
HETATM   10  C   UNL     1      10.508   5.223  90.121  1.00  0.00     0.008 A 
HETATM   11  C   UNL     1       9.790   5.419  91.300  1.00  0.00     0.042 A 
HETATM   12  C   UNL     1      10.191   4.789  92.476  1.00  0.00     0.008 A 
HETATM   13  C   UNL     1      11.313   3.960  92.474  1.00  0.00    -0.002 A 
BRANCH  11  14
HETATM   14  C   UNL     1       8.638   6.268  91.302  1.00  0.00    -0.059 C 
HETATM   15  C   UNL     1       7.671   6.982  91.303  1.00  0.00    -0.059 C 
BRANCH  15  16
HETATM   16  C   UNL     1       6.520   7.831  91.304  1.00  0.00     0.042 A 
HETATM   17  C   UNL     1       6.532   9.020  92.033  1.00  0.00     0.008 A 
HETATM   18  C   UNL     1       5.410   9.849  92.032  1.00  0.00     0.005 A 
HETATM   19  C   UNL     1       4.303   9.471  91.301  1.00  0.00     0.056 A 
HETATM   20  C   UNL     1       4.266   8.301  90.573  1.00  0.00     0.005 A 
HETATM   21  C   UNL     1       5.387   7.471  90.574  1.00  0.00     0.008 A 
BRANCH  19  22
HETATM   22  C   UNL     1       3.108  10.354  91.302  1.00  0.00     0.254 C 
HETATM   23  O   UNL     1       1.990   9.850  91.217  1.00  0.00    -0.268 OA
HETATM   24  N   UNL     1       3.356  11.714  91.425  1.00  0.00    -0.335 N 
HETATM   25  HN  UNL     1       4.305  12.055  91.516  1.00  0.00     0.164 HD
BRANCH  24  26
HETATM   26  C   UNL     1       2.301  12.694  91.466  1.00  0.00     0.169 C 
BRANCH  26  27
HETATM   27  C   UNL     1       2.039  13.226  92.881  1.00  0.00     0.138 C 
HETATM   28  C   UNL     1       3.325  13.440  93.671  1.00  0.00     0.034 C 
BRANCH  27  29
HETATM   29  O   UNL     1       1.331  14.463  92.802  1.00  0.00    -0.383 OA
HETATM   30  H   UNL     1       1.972  15.170  92.618  1.00  0.00     0.210 HD
ENDBRANCH  27  29
ENDBRANCH  26  27
BRANCH  26  31
HETATM   31  C   UNL     1       2.676  13.822  90.510  1.00  0.00     0.194 C 
HETATM   32  O   UNL     1       1.842  14.550  89.974  1.00  0.00    -0.289 OA
BRANCH  31  33
HETATM   33  C   UNL     1       4.031  13.894  90.298  1.00  0.00     0.053 C 
BRANCH  33  34
HETATM   34  C   UNL     1       4.428  14.356  89.036  1.00  0.00     0.220 C 
BRANCH  34  35
HETATM   35  O   UNL     1       5.337  15.189  89.204  1.00  0.00    -0.371 OA
HETATM   36  H   UNL     1       5.666  15.209  88.318  1.00  0.00     0.211 HD
ENDBRANCH  34  35
BRANCH  34  37
HETATM   37  C   UNL     1       4.803  13.327  88.155  1.00  0.00     0.185 C 
HETATM   38  O   UNL     1       6.019  13.612  88.594  1.00  0.00    -0.647 OA
BRANCH  37  39
HETATM   39  O   UNL     1       4.261  12.605  87.373  1.00  0.00    -0.774 OA
HETATM   40  H   UNL     1       4.585  11.525  87.506  1.00  0.00     0.167 HD
ENDBRANCH  37  39
ENDBRANCH  34  37
ENDBRANCH  33  34
ENDBRANCH  31  33
ENDBRANCH  26  31
ENDBRANCH  24  26
ENDBRANCH  19  22
ENDBRANCH  15  16
ENDBRANCH  11  14
ENDBRANCH   7   8
ENDBRANCH   2   7
TORSDOF 14
ENDMDL
