MODEL 1
REMARK VINA RESULT:      -7.2      0.000      0.000
REMARK  9 active torsions:
REMARK  status: ('A' for Active; 'I' for Inactive)
REMARK    1  A    between atoms: O_2  and  C_17 
REMARK    2  A    between atoms: N_5  and  C_10 
REMARK    3  A    between atoms: N_6  and  C_14 
REMARK       I    between atoms: N_6  and  C_23 
REMARK       I    between atoms: N_7  and  C_22 
REMARK    4  A    between atoms: C_10  and  C_13 
REMARK    5  A    between atoms: C_14  and  C_17 
REMARK    6  A    between atoms: C_14  and  C_22 
REMARK    7  A    between atoms: C_20  and  C_25 
REMARK    8  A    between atoms: C_23  and  C_24 
REMARK    9  A    between atoms: C_28  and  C_31 
ROOT
HETATM    1  O   UNL     1      16.587   4.306  93.997  1.00  0.00    -0.388 OA
HETATM    2  N   UNL     1      14.650   2.662  92.713  1.00  0.00     0.096 N 
HETATM    3  C   UNL     1      14.627   4.125  92.577  1.00  0.00     0.299 C 
HETATM    4  C   UNL     1      15.245   2.286  94.003  1.00  0.00     0.299 C 
HETATM    5  C   UNL     1      16.041   4.681  92.731  1.00  0.00     0.198 C 
HETATM    6  C   UNL     1      16.642   2.884  94.124  1.00  0.00     0.198 C 
ENDROOT
BRANCH   2   7
HETATM    7  C   UNL     1      13.304   2.109  92.579  1.00  0.00     0.311 C 
BRANCH   7   8
HETATM    8  C   UNL     1      12.309   3.132  92.148  1.00  0.00    -0.030 A 
HETATM    9  C   UNL     1      11.683   3.938  93.099  1.00  0.00     0.010 A 
HETATM   10  C   UNL     1      10.750   4.894  92.697  1.00  0.00     0.021 A 
HETATM   11  C   UNL     1      10.447   5.045  91.345  1.00  0.00     0.018 A 
HETATM   12  C   UNL     1      11.072   4.241  90.394  1.00  0.00     0.021 A 
HETATM   13  C   UNL     1      12.004   3.284  90.796  1.00  0.00     0.010 A 
BRANCH  11  14
HETATM   14  C   UNL     1       9.492   6.028  90.932  1.00  0.00    -0.061 C 
HETATM   15  C   UNL     1       8.689   6.853  90.586  1.00  0.00    -0.061 C 
BRANCH  15  16
HETATM   16  C   UNL     1       7.735   7.835  90.175  1.00  0.00     0.018 A 
HETATM   17  C   UNL     1       7.596   9.019  90.902  1.00  0.00     0.022 A 
HETATM   18  C   UNL     1       6.667   9.978  90.499  1.00  0.00     0.018 A 
HETATM   19  C   UNL     1       5.899   9.733  89.380  1.00  0.00     0.032 A 
HETATM   20  C   UNL     1       6.017   8.572  88.645  1.00  0.00     0.018 A 
HETATM   21  C   UNL     1       6.946   7.612  89.047  1.00  0.00     0.022 A 
BRANCH  19  22
HETATM   22  C   UNL     1       4.908  10.755  88.952  1.00  0.00     0.252 C 
HETATM   23  O   UNL     1       4.156  10.505  88.013  1.00  0.00    -0.268 OA
HETATM   24  N   UNL     1       4.896  11.934  89.684  1.00  0.00    -0.342 N 
HETATM   25  H   UNL     1       5.530  12.060  90.464  1.00  0.00     0.163 HD
BRANCH  24  26
HETATM   26  C   UNL     1       3.977  13.009  89.408  1.00  0.00     0.199 C 
BRANCH  26  27
HETATM   27  C   UNL     1       3.455  13.686  90.681  1.00  0.00     0.145 C 
HETATM   28  C   UNL     1       2.357  12.878  91.364  1.00  0.00     0.042 C 
BRANCH  27  29
HETATM   29  O   UNL     1       4.532  13.872  91.599  1.00  0.00    -0.393 OA
HETATM   30  H   UNL     1       5.305  13.388  91.263  1.00  0.00     0.210 HD
ENDBRANCH  27  29
ENDBRANCH  26  27
BRANCH  26  31
HETATM   31  C   UNL     1       4.688  14.007  88.500  1.00  0.00     0.220 C 
HETATM   32  O   UNL     1       4.966  15.152  88.853  1.00  0.00    -0.278 OA
HETATM   33  N   UNL     1       4.939  13.488  87.253  1.00  0.00    -0.271 NA
HETATM   34  H   UNL     1       4.645  12.584  86.902  1.00  0.00     0.127 HD
HETATM   35  H   UNL     1       4.319  13.810  86.035  1.00  0.00     0.127 HD
ENDBRANCH  26  31
ENDBRANCH  24  26
ENDBRANCH  19  22
ENDBRANCH  15  16
ENDBRANCH  11  14
ENDBRANCH   7   8
ENDBRANCH   2   7
TORSDOF 9
ENDMDL
