MODEL 1
REMARK VINA RESULT:      -6.2      0.000      0.000
REMARK  10 active torsions:
REMARK  status: ('A' for Active; 'I' for Inactive)
REMARK    1  A    between atoms: O_2  and  C_18 
REMARK    2  A    between atoms: O_5  and  N_8 
REMARK    3  A    between atoms: N_6  and  C_11 
REMARK    4  A    between atoms: N_7  and  C_15 
REMARK       I    between atoms: N_7  and  C_24 
REMARK       I    between atoms: N_8  and  C_23 
REMARK    5  A    between atoms: C_11  and  C_14 
REMARK    6  A    between atoms: C_15  and  C_18 
REMARK    7  A    between atoms: C_15  and  C_23 
REMARK    8  A    between atoms: C_21  and  C_26 
REMARK    9  A    between atoms: C_24  and  C_25 
REMARK   10  A    between atoms: C_29  and  C_32 
ROOT
HETATM    1  O   UNK     0      16.892   3.830  93.845  0.00  0.00    -0.388 OA
HETATM    2  N   UNK     0      14.335   2.980  92.930  0.00  0.00     0.096 N 
HETATM    3  C   UNK     0      15.465   2.046  93.029  0.00  0.00     0.299 C 
HETATM    4  C   UNK     0      14.828   4.340  92.677  0.00  0.00     0.299 C 
HETATM    5  C   UNK     0      16.424   2.509  94.122  0.00  0.00     0.198 C 
HETATM    6  C   UNK     0      15.802   4.751  93.778  0.00  0.00     0.198 C 
ENDROOT
BRANCH   2   7
HETATM    7  C   UNK     0      13.408   2.561  91.880  0.00  0.00     0.311 C 
BRANCH   7   8
HETATM    8  C   UNK     0      12.301   3.539  91.676  0.00  0.00    -0.030 A 
HETATM    9  C   UNK     0      11.533   3.959  92.762  0.00  0.00     0.010 A 
HETATM   10  C   UNK     0      10.497   4.873  92.572  0.00  0.00     0.021 A 
HETATM   11  C   UNK     0      10.231   5.368  91.296  0.00  0.00     0.018 A 
HETATM   12  C   UNK     0      10.998   4.950  90.210  0.00  0.00     0.021 A 
HETATM   13  C   UNK     0      12.034   4.035  90.400  0.00  0.00     0.010 A 
BRANCH  11  14
HETATM   14  C   UNK     0       9.169   6.307  91.101  0.00  0.00    -0.061 C 
HETATM   15  C   UNK     0       8.276   7.095  90.936  0.00  0.00    -0.061 C 
BRANCH  15  16
HETATM   16  C   UNK     0       7.217   8.034  90.742  0.00  0.00     0.018 A 
HETATM   17  C   UNK     0       6.591   8.617  91.844  0.00  0.00     0.022 A 
HETATM   18  C   UNK     0       5.558   9.535  91.654  0.00  0.00     0.018 A 
HETATM   19  C   UNK     0       5.174   9.850  90.368  0.00  0.00     0.032 A 
HETATM   20  C   UNK     0       5.777   9.289  89.262  0.00  0.00     0.018 A 
HETATM   21  C   UNK     0       6.809   8.370  89.451  0.00  0.00     0.022 A 
BRANCH  19  22
HETATM   22  C   UNK     0       4.073  10.827  90.166  0.00  0.00     0.252 C 
HETATM   23  O   UNK     0       3.205  10.588  89.330  0.00  0.00    -0.268 OA
HETATM   24  N   UNK     0       4.100  11.951  90.979  0.00  0.00    -0.341 N 
HETATM   25  H   UNK     0       4.836  12.069  91.666  0.00  0.00     0.163 HD
BRANCH  24  26
HETATM   26  C   UNK     0       3.089  12.976  90.920  0.00  0.00     0.207 C 
BRANCH  26  27
HETATM   27  C   UNK     0       2.299  13.106  92.229  0.00  0.00     0.146 C 
HETATM   28  C   UNK     0       1.499  11.850  92.555  0.00  0.00     0.042 C 
BRANCH  27  29
HETATM   29  O   UNK     0       3.198  13.376  93.304  0.00  0.00    -0.393 OA
HETATM   30  H   UNK     0       2.794  13.052  94.127  0.00  0.00     0.210 HD
ENDBRANCH  27  29
ENDBRANCH  26  27
BRANCH  26  31
HETATM   31  C   UNK     0       3.777  14.288  90.555  0.00  0.00     0.266 C 
HETATM   32  O   UNK     0       3.800  15.263  91.304  0.00  0.00    -0.269 OA
HETATM   33  N   UNK     0       4.320  14.255  89.293  0.00  0.00    -0.236 N 
HETATM   34  H   UNK     0       4.242  13.503  88.618  0.00  0.00     0.197 HD
BRANCH  33  35
HETATM   35  O   UNK     0       4.939  15.438  88.865  0.00  0.00    -0.287 OA
HETATM   36  H   UNK     0       4.645  15.463  87.938  0.00  0.00     0.244 HD
ENDBRANCH  33  35
ENDBRANCH  26  31
ENDBRANCH  24  26
ENDBRANCH  19  22
ENDBRANCH  15  16
ENDBRANCH  11  14
ENDBRANCH   7   8
ENDBRANCH   2   7
TORSDOF 10
ENDMDL
MODEL 2
REMARK VINA RESULT:      -5.8      1.728      2.390
REMARK  10 active torsions:
REMARK  status: ('A' for Active; 'I' for Inactive)
REMARK    1  A    between atoms: O_2  and  C_18 
REMARK    2  A    between atoms: O_5  and  N_8 
REMARK    3  A    between atoms: N_6  and  C_11 
REMARK    4  A    between atoms: N_7  and  C_15 
REMARK       I    between atoms: N_7  and  C_24 
REMARK       I    between atoms: N_8  and  C_23 
REMARK    5  A    between atoms: C_11  and  C_14 
REMARK    6  A    between atoms: C_15  and  C_18 
REMARK    7  A    between atoms: C_15  and  C_23 
REMARK    8  A    between atoms: C_21  and  C_26 
REMARK    9  A    between atoms: C_24  and  C_25 
REMARK   10  A    between atoms: C_29  and  C_32 
ROOT
HETATM    1  O   UNK     0      16.433   4.139  93.992  0.00  0.00    -0.388 OA
HETATM    2  N   UNK     0      14.509   2.605  92.561  0.00  0.00     0.096 N 
HETATM    3  C   UNK     0      14.582   4.067  92.423  0.00  0.00     0.299 C 
HETATM    4  C   UNK     0      14.976   2.201  93.893  0.00  0.00     0.299 C 
HETATM    5  C   UNK     0      16.010   4.539  92.687  0.00  0.00     0.198 C 
HETATM    6  C   UNK     0      16.394   2.718  94.124  0.00  0.00     0.198 C 
ENDROOT
BRANCH   2   7
HETATM    7  C   UNK     0      13.147   2.131  92.322  0.00  0.00     0.311 C 
BRANCH   7   8
HETATM    8  C   UNK     0      12.140   3.227  92.408  0.00  0.00    -0.030 A 
HETATM    9  C   UNK     0      12.010   3.963  93.587  0.00  0.00     0.010 A 
HETATM   10  C   UNK     0      11.068   4.988  93.669  0.00  0.00     0.021 A 
HETATM   11  C   UNK     0      10.257   5.277  92.572  0.00  0.00     0.018 A 
HETATM   12  C   UNK     0      10.386   4.543  91.395  0.00  0.00     0.021 A 
HETATM   13  C   UNK     0      11.328   3.518  91.312  0.00  0.00     0.010 A 
BRANCH  11  14
HETATM   14  C   UNK     0       9.291   6.330  92.656  0.00  0.00    -0.061 C 
HETATM   15  C   UNK     0       8.480   7.214  92.726  0.00  0.00    -0.061 C 
BRANCH  15  16
HETATM   16  C   UNK     0       7.516   8.266  92.809  0.00  0.00     0.018 A 
HETATM   17  C   UNK     0       6.167   7.995  92.577  0.00  0.00     0.022 A 
HETATM   18  C   UNK     0       5.226   9.021  92.660  0.00  0.00     0.018 A 
HETATM   19  C   UNK     0       5.654  10.294  92.973  0.00  0.00     0.032 A 
HETATM   20  C   UNK     0       6.981  10.588  93.207  0.00  0.00     0.018 A 
HETATM   21  C   UNK     0       7.922   9.562  93.123  0.00  0.00     0.022 A 
BRANCH  19  22
HETATM   22  C   UNK     0       4.651  11.387  93.059  0.00  0.00     0.252 C 
HETATM   23  O   UNK     0       4.070  11.586  94.124  0.00  0.00    -0.268 OA
HETATM   24  N   UNK     0       4.463  12.133  91.904  0.00  0.00    -0.341 N 
HETATM   25  H   UNK     0       4.998  11.927  91.068  0.00  0.00     0.163 HD
BRANCH  24  26
HETATM   26  C   UNK     0       3.544  13.241  91.836  0.00  0.00     0.207 C 
BRANCH  26  27
HETATM   27  C   UNK     0       4.185  14.570  92.255  0.00  0.00     0.146 C 
HETATM   28  C   UNK     0       4.845  15.293  91.086  0.00  0.00     0.042 C 
BRANCH  27  29
HETATM   29  O   UNK     0       3.191  15.421  92.824  0.00  0.00    -0.393 OA
HETATM   30  H   UNK     0       2.490  15.555  92.164  0.00  0.00     0.210 HD
ENDBRANCH  27  29
ENDBRANCH  26  27
BRANCH  26  31
HETATM   31  C   UNK     0       3.002  13.310  90.412  0.00  0.00     0.266 C 
HETATM   32  O   UNK     0       2.162  14.134  90.055  0.00  0.00    -0.269 OA
HETATM   33  N   UNK     0       3.532  12.331  89.607  0.00  0.00    -0.236 N 
HETATM   34  H   UNK     0       4.156  11.584  89.890  0.00  0.00     0.197 HD
BRANCH  33  35
HETATM   35  O   UNK     0       3.056  12.302  88.289  0.00  0.00    -0.287 OA
HETATM   36  H   UNK     0       3.577  13.024  87.899  0.00  0.00     0.244 HD
ENDBRANCH  33  35
ENDBRANCH  26  31
ENDBRANCH  24  26
ENDBRANCH  19  22
ENDBRANCH  15  16
ENDBRANCH  11  14
ENDBRANCH   7   8
ENDBRANCH   2   7
TORSDOF 10
ENDMDL
MODEL 3
REMARK VINA RESULT:      -4.8      1.632      2.157
REMARK  10 active torsions:
REMARK  status: ('A' for Active; 'I' for Inactive)
REMARK    1  A    between atoms: O_2  and  C_18 
REMARK    2  A    between atoms: O_5  and  N_8 
REMARK    3  A    between atoms: N_6  and  C_11 
REMARK    4  A    between atoms: N_7  and  C_15 
REMARK       I    between atoms: N_7  and  C_24 
REMARK       I    between atoms: N_8  and  C_23 
REMARK    5  A    between atoms: C_11  and  C_14 
REMARK    6  A    between atoms: C_15  and  C_18 
REMARK    7  A    between atoms: C_15  and  C_23 
REMARK    8  A    between atoms: C_21  and  C_26 
REMARK    9  A    between atoms: C_24  and  C_25 
REMARK   10  A    between atoms: C_29  and  C_32 
ROOT
HETATM    1  O   UNK     0      16.480   3.425  93.518  0.00  0.00    -0.388 OA
HETATM    2  N   UNK     0      14.259   1.887  92.622  0.00  0.00     0.096 N 
HETATM    3  C   UNK     0      14.604   3.172  91.999  0.00  0.00     0.299 C 
HETATM    4  C   UNK     0      14.681   1.880  94.029  0.00  0.00     0.299 C 
HETATM    5  C   UNK     0      16.103   3.430  92.140  0.00  0.00     0.198 C 
HETATM    6  C   UNK     0      16.176   2.168  94.123  0.00  0.00     0.198 C 
ENDROOT
BRANCH   2   7
HETATM    7  C   UNK     0      12.826   1.625  92.508  0.00  0.00     0.311 C 
BRANCH   7   8
HETATM    8  C   UNK     0      12.052   2.846  92.144  0.00  0.00    -0.030 A 
HETATM    9  C   UNK     0      11.783   3.814  93.113  0.00  0.00     0.010 A 
HETATM   10  C   UNK     0      11.057   4.956  92.774  0.00  0.00     0.021 A 
HETATM   11  C   UNK     0      10.604   5.131  91.467  0.00  0.00     0.018 A 
HETATM   12  C   UNK     0      10.872   4.165  90.499  0.00  0.00     0.021 A 
HETATM   13  C   UNK     0      11.597   3.023  90.837  0.00  0.00     0.010 A 
BRANCH  11  14
HETATM   14  C   UNK     0       9.861   6.303  91.120  0.00  0.00    -0.061 C 
HETATM   15  C   UNK     0       9.238   7.289  90.828  0.00  0.00    -0.061 C 
BRANCH  15  16
HETATM   16  C   UNK     0       8.495   8.460  90.482  0.00  0.00     0.018 A 
HETATM   17  C   UNK     0       8.824   9.689  91.056  0.00  0.00     0.022 A 
HETATM   18  C   UNK     0       8.101  10.832  90.716  0.00  0.00     0.018 A 
HETATM   19  C   UNK     0       7.066  10.722  89.811  0.00  0.00     0.032 A 
HETATM   20  C   UNK     0       6.721   9.520  89.230  0.00  0.00     0.018 A 
HETATM   21  C   UNK     0       7.443   8.376  89.570  0.00  0.00     0.022 A 
BRANCH  19  22
HETATM   22  C   UNK     0       6.295  11.940  89.451  0.00  0.00     0.252 C 
HETATM   23  O   UNK     0       6.627  12.590  88.463  0.00  0.00    -0.268 OA
HETATM   24  N   UNK     0       5.215  12.240  90.270  0.00  0.00    -0.341 N 
HETATM   25  H   UNK     0       4.985  11.642  91.055  0.00  0.00     0.163 HD
BRANCH  24  26
HETATM   26  C   UNK     0       4.357  13.374  90.037  0.00  0.00     0.207 C 
BRANCH  26  27
HETATM   27  C   UNK     0       2.928  12.967  89.655  0.00  0.00     0.146 C 
HETATM   28  C   UNK     0       2.879  11.642  88.903  0.00  0.00     0.042 C 
BRANCH  27  29
HETATM   29  O   UNK     0       2.130  12.861  90.834  0.00  0.00    -0.393 OA
HETATM   30  H   UNK     0       1.549  13.639  90.880  0.00  0.00     0.210 HD
ENDBRANCH  27  29
ENDBRANCH  26  27
BRANCH  26  31
HETATM   31  C   UNK     0       4.371  14.234  91.296  0.00  0.00     0.266 C 
HETATM   32  O   UNK     0       4.442  15.462  91.268  0.00  0.00    -0.269 OA
HETATM   33  N   UNK     0       4.334  13.478  92.443  0.00  0.00    -0.236 N 
HETATM   34  H   UNK     0       4.365  12.467  92.504  0.00  0.00     0.197 HD
BRANCH  33  35
HETATM   35  O   UNK     0       4.382  14.194  93.647  0.00  0.00    -0.287 OA
HETATM   36  H   UNK     0       3.623  13.802  94.113  0.00  0.00     0.244 HD
ENDBRANCH  33  35
ENDBRANCH  26  31
ENDBRANCH  24  26
ENDBRANCH  19  22
ENDBRANCH  15  16
ENDBRANCH  11  14
ENDBRANCH   7   8
ENDBRANCH   2   7
TORSDOF 10
ENDMDL
MODEL 4
REMARK VINA RESULT:      -4.5      1.963     12.477
REMARK  10 active torsions:
REMARK  status: ('A' for Active; 'I' for Inactive)
REMARK    1  A    between atoms: O_2  and  C_18 
REMARK    2  A    between atoms: O_5  and  N_8 
REMARK    3  A    between atoms: N_6  and  C_11 
REMARK    4  A    between atoms: N_7  and  C_15 
REMARK       I    between atoms: N_7  and  C_24 
REMARK       I    between atoms: N_8  and  C_23 
REMARK    5  A    between atoms: C_11  and  C_14 
REMARK    6  A    between atoms: C_15  and  C_18 
REMARK    7  A    between atoms: C_15  and  C_23 
REMARK    8  A    between atoms: C_21  and  C_26 
REMARK    9  A    between atoms: C_24  and  C_25 
REMARK   10  A    between atoms: C_29  and  C_32 
ROOT
HETATM    1  O   UNK     0       5.377  14.471  88.637  0.00  0.00    -0.388 OA
HETATM    2  N   UNK     0       3.486  13.152  90.306  0.00  0.00     0.096 N 
HETATM    3  C   UNK     0       4.322  14.250  90.812  0.00  0.00     0.299 C 
HETATM    4  C   UNK     0       4.186  12.442  89.228  0.00  0.00     0.299 C 
HETATM    5  C   UNK     0       4.691  15.188  89.665  0.00  0.00     0.198 C 
HETATM    6  C   UNK     0       4.559  13.422  88.119  0.00  0.00     0.198 C 
ENDROOT
BRANCH   2   7
HETATM    7  C   UNK     0       3.129  12.234  91.386  0.00  0.00     0.311 C 
BRANCH   7   8
HETATM    8  C   UNK     0       4.159  11.177  91.597  0.00  0.00    -0.030 A 
HETATM    9  C   UNK     0       5.375  11.499  92.202  0.00  0.00     0.010 A 
HETATM   10  C   UNK     0       6.340  10.512  92.397  0.00  0.00     0.021 A 
HETATM   11  C   UNK     0       6.088   9.202  91.990  0.00  0.00     0.018 A 
HETATM   12  C   UNK     0       4.875   8.879  91.387  0.00  0.00     0.021 A 
HETATM   13  C   UNK     0       3.910   9.866  91.190  0.00  0.00     0.010 A 
BRANCH  11  14
HETATM   14  C   UNK     0       7.078   8.188  92.193  0.00  0.00    -0.061 C 
HETATM   15  C   UNK     0       7.909   7.336  92.363  0.00  0.00    -0.061 C 
BRANCH  15  16
HETATM   16  C   UNK     0       8.896   6.324  92.566  0.00  0.00     0.018 A 
HETATM   17  C   UNK     0       9.077   5.325  91.609  0.00  0.00     0.022 A 
HETATM   18  C   UNK     0      10.042   4.337  91.806  0.00  0.00     0.018 A 
HETATM   19  C   UNK     0      10.805   4.370  92.955  0.00  0.00     0.032 A 
HETATM   20  C   UNK     0      10.645   5.345  93.917  0.00  0.00     0.018 A 
HETATM   21  C   UNK     0       9.679   6.333  93.720  0.00  0.00     0.022 A 
BRANCH  19  22
HETATM   22  C   UNK     0      11.831   3.317  93.165  0.00  0.00     0.252 C 
HETATM   23  O   UNK     0      11.531   2.140  92.977  0.00  0.00    -0.268 OA
HETATM   24  N   UNK     0      13.090   3.761  93.545  0.00  0.00    -0.341 N 
HETATM   25  H   UNK     0      13.272   4.752  93.657  0.00  0.00     0.163 HD
BRANCH  24  26
HETATM   26  C   UNK     0      14.196   2.865  93.763  0.00  0.00     0.207 C 
BRANCH  26  27
HETATM   27  C   UNK     0      14.355   1.833  92.639  0.00  0.00     0.146 C 
HETATM   28  C   UNK     0      14.954   2.437  91.373  0.00  0.00     0.042 C 
BRANCH  27  29
HETATM   29  O   UNK     0      15.192   0.767  93.085  0.00  0.00    -0.393 OA
HETATM   30  H   UNK     0      16.115   1.071  93.057  0.00  0.00     0.210 HD
ENDBRANCH  27  29
ENDBRANCH  26  27
BRANCH  26  31
HETATM   31  C   UNK     0      15.456   3.709  93.923  0.00  0.00     0.266 C 
HETATM   32  O   UNK     0      16.568   3.222  94.122  0.00  0.00    -0.269 OA
HETATM   33  N   UNK     0      15.190   5.055  93.857  0.00  0.00    -0.236 N 
HETATM   34  H   UNK     0      14.278   5.491  93.784  0.00  0.00     0.197 HD
BRANCH  33  35
HETATM   35  O   UNK     0      16.292   5.904  94.034  0.00  0.00    -0.287 OA
HETATM   36  H   UNK     0      16.456   6.171  93.113  0.00  0.00     0.244 HD
ENDBRANCH  33  35
ENDBRANCH  26  31
ENDBRANCH  24  26
ENDBRANCH  19  22
ENDBRANCH  15  16
ENDBRANCH  11  14
ENDBRANCH   7   8
ENDBRANCH   2   7
TORSDOF 10
ENDMDL
MODEL 5
REMARK VINA RESULT:      -4.5      1.456      1.812
REMARK  10 active torsions:
REMARK  status: ('A' for Active; 'I' for Inactive)
REMARK    1  A    between atoms: O_2  and  C_18 
REMARK    2  A    between atoms: O_5  and  N_8 
REMARK    3  A    between atoms: N_6  and  C_11 
REMARK    4  A    between atoms: N_7  and  C_15 
REMARK       I    between atoms: N_7  and  C_24 
REMARK       I    between atoms: N_8  and  C_23 
REMARK    5  A    between atoms: C_11  and  C_14 
REMARK    6  A    between atoms: C_15  and  C_18 
REMARK    7  A    between atoms: C_15  and  C_23 
REMARK    8  A    between atoms: C_21  and  C_26 
REMARK    9  A    between atoms: C_24  and  C_25 
REMARK   10  A    between atoms: C_29  and  C_32 
ROOT
HETATM    1  O   UNK     0      16.406   2.705  92.241  0.00  0.00    -0.388 OA
HETATM    2  N   UNK     0      13.771   3.066  93.256  0.00  0.00     0.096 N 
HETATM    3  C   UNK     0      14.791   2.326  94.012  0.00  0.00     0.299 C 
HETATM    4  C   UNK     0      14.030   2.949  91.815  0.00  0.00     0.299 C 
HETATM    5  C   UNK     0      16.181   2.839  93.646  0.00  0.00     0.198 C 
HETATM    6  C   UNK     0      15.438   3.447  91.499  0.00  0.00     0.198 C 
ENDROOT
BRANCH   2   7
HETATM    7  C   UNK     0      12.431   2.583  93.584  0.00  0.00     0.311 C 
BRANCH   7   8
HETATM    8  C   UNK     0      11.379   3.606  93.320  0.00  0.00    -0.030 A 
HETATM    9  C   UNK     0      10.481   3.426  92.266  0.00  0.00     0.010 A 
HETATM   10  C   UNK     0       9.498   4.382  92.017  0.00  0.00     0.021 A 
HETATM   11  C   UNK     0       9.411   5.517  92.822  0.00  0.00     0.018 A 
HETATM   12  C   UNK     0      10.306   5.698  93.875  0.00  0.00     0.021 A 
HETATM   13  C   UNK     0      11.290   4.742  94.124  0.00  0.00     0.010 A 
BRANCH  11  14
HETATM   14  C   UNK     0       8.400   6.498  92.568  0.00  0.00    -0.061 C 
HETATM   15  C   UNK     0       7.551   7.322  92.353  0.00  0.00    -0.061 C 
BRANCH  15  16
HETATM   16  C   UNK     0       6.543   8.302  92.100  0.00  0.00     0.018 A 
HETATM   17  C   UNK     0       5.744   8.767  93.146  0.00  0.00     0.022 A 
HETATM   18  C   UNK     0       4.761   9.725  92.900  0.00  0.00     0.018 A 
HETATM   19  C   UNK     0       4.598  10.197  91.614  0.00  0.00     0.032 A 
HETATM   20  C   UNK     0       5.373   9.754  90.563  0.00  0.00     0.018 A 
HETATM   21  C   UNK     0       6.356   8.795  90.809  0.00  0.00     0.022 A 
BRANCH  19  22
HETATM   22  C   UNK     0       3.549  11.216  91.352  0.00  0.00     0.252 C 
HETATM   23  O   UNK     0       2.544  10.895  90.722  0.00  0.00    -0.268 OA
HETATM   24  N   UNK     0       3.785  12.480  91.875  0.00  0.00    -0.341 N 
HETATM   25  H   UNK     0       4.627  12.666  92.407  0.00  0.00     0.163 HD
BRANCH  24  26
HETATM   26  C   UNK     0       2.851  13.567  91.727  0.00  0.00     0.207 C 
BRANCH  26  27
HETATM   27  C   UNK     0       2.860  14.526  92.924  0.00  0.00     0.146 C 
HETATM   28  C   UNK     0       1.792  14.181  93.956  0.00  0.00     0.042 C 
BRANCH  27  29
HETATM   29  O   UNK     0       4.141  14.491  93.554  0.00  0.00    -0.393 OA
HETATM   30  H   UNK     0       4.782  14.921  92.963  0.00  0.00     0.210 HD
ENDBRANCH  27  29
ENDBRANCH  26  27
BRANCH  26  31
HETATM   31  C   UNK     0       3.188  14.297  90.430  0.00  0.00     0.266 C 
HETATM   32  O   UNK     0       2.363  14.501  89.542  0.00  0.00    -0.269 OA
HETATM   33  N   UNK     0       4.513  14.655  90.366  0.00  0.00    -0.236 N 
HETATM   34  H   UNK     0       5.237  14.425  91.037  0.00  0.00     0.197 HD
BRANCH  33  35
HETATM   35  O   UNK     0       4.915  15.298  89.186  0.00  0.00    -0.287 OA
HETATM   36  H   UNK     0       5.648  14.721  88.914  0.00  0.00     0.244 HD
ENDBRANCH  33  35
ENDBRANCH  26  31
ENDBRANCH  24  26
ENDBRANCH  19  22
ENDBRANCH  15  16
ENDBRANCH  11  14
ENDBRANCH   7   8
ENDBRANCH   2   7
TORSDOF 10
ENDMDL
MODEL 6
REMARK VINA RESULT:      -4.3      1.998     12.591
REMARK  10 active torsions:
REMARK  status: ('A' for Active; 'I' for Inactive)
REMARK    1  A    between atoms: O_2  and  C_18 
REMARK    2  A    between atoms: O_5  and  N_8 
REMARK    3  A    between atoms: N_6  and  C_11 
REMARK    4  A    between atoms: N_7  and  C_15 
REMARK       I    between atoms: N_7  and  C_24 
REMARK       I    between atoms: N_8  and  C_23 
REMARK    5  A    between atoms: C_11  and  C_14 
REMARK    6  A    between atoms: C_15  and  C_18 
REMARK    7  A    between atoms: C_15  and  C_23 
REMARK    8  A    between atoms: C_21  and  C_26 
REMARK    9  A    between atoms: C_24  and  C_25 
REMARK   10  A    between atoms: C_29  and  C_32 
ROOT
HETATM    1  O   UNK     0       5.140  14.871  89.227  0.00  0.00    -0.388 OA
HETATM    2  N   UNK     0       3.460  13.853  91.287  0.00  0.00     0.096 N 
HETATM    3  C   UNK     0       4.635  14.681  91.593  0.00  0.00     0.299 C 
HETATM    4  C   UNK     0       3.677  13.113  90.037  0.00  0.00     0.299 C 
HETATM    5  C   UNK     0       4.925  15.620  90.425  0.00  0.00     0.198 C 
HETATM    6  C   UNK     0       3.990  14.088  88.905  0.00  0.00     0.198 C 
ENDROOT
BRANCH   2   7
HETATM    7  C   UNK     0       3.170  12.938  92.389  0.00  0.00     0.311 C 
BRANCH   7   8
HETATM    8  C   UNK     0       4.168  11.834  92.488  0.00  0.00    -0.030 A 
HETATM    9  C   UNK     0       4.331  10.946  91.424  0.00  0.00     0.010 A 
HETATM   10  C   UNK     0       5.263   9.912  91.516  0.00  0.00     0.021 A 
HETATM   11  C   UNK     0       6.031   9.768  92.671  0.00  0.00     0.018 A 
HETATM   12  C   UNK     0       5.869  10.655  93.734  0.00  0.00     0.021 A 
HETATM   13  C   UNK     0       4.937  11.688  93.642  0.00  0.00     0.010 A 
BRANCH  11  14
HETATM   14  C   UNK     0       6.988   8.708  92.765  0.00  0.00    -0.061 C 
HETATM   15  C   UNK     0       7.792   7.818  92.844  0.00  0.00    -0.061 C 
BRANCH  15  16
HETATM   16  C   UNK     0       8.749   6.761  92.936  0.00  0.00     0.018 A 
HETATM   17  C   UNK     0       9.620   6.702  94.025  0.00  0.00     0.022 A 
HETATM   18  C   UNK     0      10.552   5.669  94.116  0.00  0.00     0.018 A 
HETATM   19  C   UNK     0      10.592   4.717  93.119  0.00  0.00     0.032 A 
HETATM   20  C   UNK     0       9.743   4.752  92.033  0.00  0.00     0.018 A 
HETATM   21  C   UNK     0       8.811   5.786  91.940  0.00  0.00     0.022 A 
BRANCH  19  22
HETATM   22  C   UNK     0      11.587   3.617  93.216  0.00  0.00     0.252 C 
HETATM   23  O   UNK     0      11.250   2.475  92.912  0.00  0.00    -0.268 OA
HETATM   24  N   UNK     0      12.860   3.984  93.631  0.00  0.00    -0.341 N 
HETATM   25  H   UNK     0      13.072   4.952  93.841  0.00  0.00     0.163 HD
BRANCH  24  26
HETATM   26  C   UNK     0      13.939   3.036  93.751  0.00  0.00     0.207 C 
BRANCH  26  27
HETATM   27  C   UNK     0      14.027   2.082  92.554  0.00  0.00     0.146 C 
HETATM   28  C   UNK     0      14.521   2.776  91.289  0.00  0.00     0.042 C 
BRANCH  27  29
HETATM   29  O   UNK     0      14.910   1.005  92.866  0.00  0.00    -0.393 OA
HETATM   30  H   UNK     0      14.738   0.279  92.242  0.00  0.00     0.210 HD
ENDBRANCH  27  29
ENDBRANCH  26  27
BRANCH  26  31
HETATM   31  C   UNK     0      15.233   3.824  93.929  0.00  0.00     0.266 C 
HETATM   32  O   UNK     0      15.261   5.048  94.042  0.00  0.00    -0.269 OA
HETATM   33  N   UNK     0      16.342   3.013  93.907  0.00  0.00    -0.236 N 
HETATM   34  H   UNK     0      16.361   2.016  93.726  0.00  0.00     0.197 HD
BRANCH  33  35
HETATM   35  O   UNK     0      17.577   3.666  94.026  0.00  0.00    -0.287 OA
HETATM   36  H   UNK     0      18.134   2.929  94.331  0.00  0.00     0.244 HD
ENDBRANCH  33  35
ENDBRANCH  26  31
ENDBRANCH  24  26
ENDBRANCH  19  22
ENDBRANCH  15  16
ENDBRANCH  11  14
ENDBRANCH   7   8
ENDBRANCH   2   7
TORSDOF 10
ENDMDL
MODEL 7
REMARK VINA RESULT:      -3.8      2.050     12.539
REMARK  10 active torsions:
REMARK  status: ('A' for Active; 'I' for Inactive)
REMARK    1  A    between atoms: O_2  and  C_18 
REMARK    2  A    between atoms: O_5  and  N_8 
REMARK    3  A    between atoms: N_6  and  C_11 
REMARK    4  A    between atoms: N_7  and  C_15 
REMARK       I    between atoms: N_7  and  C_24 
REMARK       I    between atoms: N_8  and  C_23 
REMARK    5  A    between atoms: C_11  and  C_14 
REMARK    6  A    between atoms: C_15  and  C_18 
REMARK    7  A    between atoms: C_15  and  C_23 
REMARK    8  A    between atoms: C_21  and  C_26 
REMARK    9  A    between atoms: C_24  and  C_25 
REMARK   10  A    between atoms: C_29  and  C_32 
ROOT
HETATM    1  O   UNK     0       5.573  14.767  88.277  0.00  0.00    -0.388 OA
HETATM    2  N   UNK     0       3.591  13.333  89.732  0.00  0.00     0.096 N 
HETATM    3  C   UNK     0       4.444  14.338  90.382  0.00  0.00     0.299 C 
HETATM    4  C   UNK     0       4.303  12.725  88.600  0.00  0.00     0.299 C 
HETATM    5  C   UNK     0       4.877  15.387  89.360  0.00  0.00     0.198 C 
HETATM    6  C   UNK     0       4.741  13.810  87.620  0.00  0.00     0.198 C 
ENDROOT
BRANCH   2   7
HETATM    7  C   UNK     0       3.173  12.312  90.691  0.00  0.00     0.311 C 
BRANCH   7   8
HETATM    8  C   UNK     0       4.259  11.336  90.992  0.00  0.00    -0.030 A 
HETATM    9  C   UNK     0       5.176  11.606  92.008  0.00  0.00     0.010 A 
HETATM   10  C   UNK     0       6.193  10.694  92.289  0.00  0.00     0.021 A 
HETATM   11  C   UNK     0       6.292   9.513  91.555  0.00  0.00     0.018 A 
HETATM   12  C   UNK     0       5.377   9.242  90.540  0.00  0.00     0.021 A 
HETATM   13  C   UNK     0       4.360  10.154  90.258  0.00  0.00     0.010 A 
BRANCH  11  14
HETATM   14  C   UNK     0       7.335   8.577  91.845  0.00  0.00    -0.061 C 
HETATM   15  C   UNK     0       8.211   7.791  92.089  0.00  0.00    -0.061 C 
BRANCH  15  16
HETATM   16  C   UNK     0       9.253   6.857  92.379  0.00  0.00     0.018 A 
HETATM   17  C   UNK     0       9.915   6.206  91.337  0.00  0.00     0.022 A 
HETATM   18  C   UNK     0      10.934   5.296  91.620  0.00  0.00     0.018 A 
HETATM   19  C   UNK     0      11.269   5.058  92.936  0.00  0.00     0.032 A 
HETATM   20  C   UNK     0      10.630   5.688  93.984  0.00  0.00     0.018 A 
HETATM   21  C   UNK     0       9.611   6.597  93.702  0.00  0.00     0.022 A 
BRANCH  19  22
HETATM   22  C   UNK     0      12.353   4.087  93.237  0.00  0.00     0.252 C 
HETATM   23  O   UNK     0      12.183   3.253  94.123  0.00  0.00    -0.268 OA
HETATM   24  N   UNK     0      13.494   4.188  92.453  0.00  0.00    -0.341 N 
HETATM   25  H   UNK     0      13.553   4.887  91.721  0.00  0.00     0.163 HD
BRANCH  24  26
HETATM   26  C   UNK     0      14.621   3.303  92.606  0.00  0.00     0.207 C 
BRANCH  26  27
HETATM   27  C   UNK     0      15.469   3.632  93.841  0.00  0.00     0.146 C 
HETATM   28  C   UNK     0      16.905   3.137  93.711  0.00  0.00     0.042 C 
BRANCH  27  29
HETATM   29  O   UNK     0      15.482   5.043  94.050  0.00  0.00    -0.393 OA
HETATM   30  H   UNK     0      16.253   5.413  93.588  0.00  0.00     0.210 HD
ENDBRANCH  27  29
ENDBRANCH  26  27
BRANCH  26  31
HETATM   31  C   UNK     0      14.088   1.875  92.663  0.00  0.00     0.266 C 
HETATM   32  O   UNK     0      14.639   0.980  93.300  0.00  0.00    -0.269 OA
HETATM   33  N   UNK     0      12.959   1.712  91.897  0.00  0.00    -0.236 N 
HETATM   34  H   UNK     0      12.531   2.402  91.292  0.00  0.00     0.197 HD
BRANCH  33  35
HETATM   35  O   UNK     0      12.426   0.415  91.865  0.00  0.00    -0.287 OA
HETATM   36  H   UNK     0      13.237  -0.103  91.720  0.00  0.00     0.244 HD
ENDBRANCH  33  35
ENDBRANCH  26  31
ENDBRANCH  24  26
ENDBRANCH  19  22
ENDBRANCH  15  16
ENDBRANCH  11  14
ENDBRANCH   7   8
ENDBRANCH   2   7
TORSDOF 10
ENDMDL
