MODEL 1
REMARK VINA RESULT:      -6.9      0.000      0.000
REMARK  10 active torsions:
REMARK  status: ('A' for Active; 'I' for Inactive)
REMARK    1  A    between atoms: O_2  and  C_16 
REMARK    2  A    between atoms: N_5  and  C_9 
REMARK    3  A    between atoms: N_6  and  C_13 
REMARK       I    between atoms: N_6  and  C_22 
REMARK    4  A    between atoms: C_9  and  C_12 
REMARK    5  A    between atoms: C_13  and  C_16 
REMARK    6  A    between atoms: C_13  and  C_21 
REMARK    7  A    between atoms: C_19  and  C_24 
REMARK    8  A    between atoms: C_22  and  C_23 
REMARK    9  A    between atoms: C_27  and  C_30 
REMARK   10  A    between atoms: N_33  and  S_34 
ROOT
HETATM    1  C   UNL     1       5.658  11.053  89.671  1.00  0.00     0.056 A 
HETATM    2  C   UNL     1       7.012  11.242  89.491  1.00  0.00     0.005 A 
HETATM    3  C   UNL     1       5.132   9.851  90.097  1.00  0.00     0.005 A 
HETATM    4  C   UNL     1       7.374   8.955  90.179  1.00  0.00     0.042 A 
HETATM    5  C   UNL     1       7.881  10.181  89.747  1.00  0.00     0.008 A 
HETATM    6  C   UNL     1       6.000   8.789  90.354  1.00  0.00     0.008 A 
ENDROOT
BRANCH   1   7
HETATM    7  C   UNL     1       4.733  12.184  89.400  1.00  0.00     0.254 C 
HETATM    8  O   UNL     1       4.547  12.541  88.239  1.00  0.00    -0.268 OA
HETATM    9  N   UNL     1       4.117  12.745  90.509  1.00  0.00    -0.337 N 
HETATM   10  HN  UNL     1       4.300  12.380  91.437  1.00  0.00     0.164 HD
BRANCH   9  11
HETATM   11  C   UNL     1       3.176  13.832  90.408  1.00  0.00     0.172 C 
BRANCH  11  12
HETATM   12  C   UNL     1       1.891  13.582  91.207  1.00  0.00     0.136 C 
HETATM   13  C   UNL     1       2.009  12.384  92.142  1.00  0.00     0.034 C 
BRANCH  12  14
HETATM   14  O   UNL     1       1.574  14.741  91.976  1.00  0.00    -0.383 OA
HETATM   15  H   UNL     1       0.919  14.491  92.649  1.00  0.00     0.210 HD
ENDBRANCH  12  14
ENDBRANCH  11  12
BRANCH  11  16
HETATM   16  C   UNL     1       3.880  15.102  90.873  1.00  0.00     0.398 A 
HETATM   17  O   UNL     1       4.973  15.460  90.438  1.00  0.00    -0.136 OA
HETATM   18  N   UNL     1       4.930  15.616  91.949  1.00  0.00     0.142 N 
HETATM   19  HN  UNL     1       5.833  15.966  91.795  1.00  0.00     0.338 HD
BRANCH  18  20
HETATM   20  S   UNL     1       4.280  15.174  93.096  1.00  0.00     0.076 SA
HETATM   21  H   UNL     1       3.093  15.224  93.087  1.00  0.00     0.136 HD
ENDBRANCH  18  20
ENDBRANCH  11  16
ENDBRANCH   9  11
ENDBRANCH   1   7
BRANCH   4  22
HETATM   22  C   UNL     1       8.264   7.867  90.439  1.00  0.00    -0.059 C 
HETATM   23  C   UNL     1       9.012   6.952  90.659  1.00  0.00    -0.059 C 
BRANCH  23  24
HETATM   24  C   UNL     1       9.902   5.862  90.919  1.00  0.00     0.042 A 
HETATM   25  C   UNL     1      10.135   5.452  92.232  1.00  0.00     0.008 A 
HETATM   26  C   UNL     1      11.004   4.392  92.486  1.00  0.00    -0.002 A 
HETATM   27  C   UNL     1      11.639   3.740  91.428  1.00  0.00     0.011 A 
HETATM   28  C   UNL     1      11.404   4.151  90.116  1.00  0.00    -0.002 A 
HETATM   29  C   UNL     1      10.536   5.213  89.862  1.00  0.00     0.008 A 
BRANCH  27  30
HETATM   30  C   UNL     1      12.566   2.605  91.701  1.00  0.00     0.277 C 
BRANCH  30  31
HETATM   31  N   UNL     1      13.572   2.938  92.708  1.00  0.00     0.147 N 
HETATM   32  C   UNL     1      14.349   1.747  93.080  1.00  0.00     0.283 C 
HETATM   33  C   UNL     1      15.399   2.121  94.123  1.00  0.00     0.178 C 
HETATM   34  O   UNL     1      16.262   3.141  93.617  1.00  0.00    -0.350 OA
HETATM   35  C   UNL     1      15.518   4.313  93.281  1.00  0.00     0.178 C 
HETATM   36  C   UNL     1      14.471   3.993  92.220  1.00  0.00     0.283 C 
ENDBRANCH  30  31
ENDBRANCH  27  30
ENDBRANCH  23  24
ENDBRANCH   4  22
TORSDOF 10
ENDMDL
