MODEL 1
REMARK VINA RESULT:      -7.6      0.000      0.000
REMARK  9 active torsions:
REMARK  status: ('A' for Active; 'I' for Inactive)
REMARK    1  A    between atoms: N_3  and  C_6 
REMARK    2  A    between atoms: C_6  and  C_9 
REMARK    3  A    between atoms: C_14  and  C_17 
REMARK       I    between atoms: N_26  and  C_15 
REMARK    4  A    between atoms: C_15  and  C_16 
REMARK    5  A    between atoms: C_20  and  C_23 
REMARK    6  A    between atoms: OG1_24  and  CB_28 
REMARK    7  A    between atoms: N_26  and  CA_27 
REMARK    8  A    between atoms: CA_27  and  CB_28 
REMARK    9  A    between atoms: CA_27  and  C_30 
ROOT
HETATM    1  O   UNK A   0       1.978   8.091  87.816  1.00  0.00    -0.388 OA
HETATM    2  N   UNK A   0       4.762   7.519  87.659  1.00  0.00     0.096 N 
HETATM    3  C   UNK A   0       4.265   8.899  87.756  1.00  0.00     0.299 C 
HETATM    4  C   UNK A   0       3.764   6.671  86.992  1.00  0.00     0.299 C 
HETATM    5  C   UNK A   0       2.928   8.917  88.492  1.00  0.00     0.198 C 
HETATM    6  C   UNK A   0       2.439   6.741  87.745  1.00  0.00     0.198 C 
ENDROOT
BRANCH   2   7
HETATM    7  C   UNK A   0       6.038   7.477  86.947  1.00  0.00     0.311 C 
BRANCH   7   8
HETATM    8  C   UNK A   0       7.127   6.876  87.769  1.00  0.00    -0.030 A 
HETATM    9  C   UNK A   0       6.896   6.562  89.109  1.00  0.00     0.010 A 
HETATM   10  C   UNK A   0       7.914   6.001  89.879  1.00  0.00     0.021 A 
HETATM   11  C   UNK A   0       9.162   5.752  89.308  1.00  0.00     0.018 A 
HETATM   12  C   UNK A   0       9.394   6.064  87.970  1.00  0.00     0.021 A 
HETATM   13  C   UNK A   0       8.376   6.626  87.200  1.00  0.00     0.010 A 
BRANCH  11  14
HETATM   14  C   UNK A   0      10.206   5.174  90.098  1.00  0.00    -0.061 C 
HETATM   15  C   UNK A   0      11.083   4.689  90.762  1.00  0.00    -0.061 C 
BRANCH  15  16
HETATM   16  C   UNK A   0      12.126   4.112  91.552  1.00  0.00     0.018 A 
HETATM   17  C   UNK A   0      11.872   3.733  92.870  1.00  0.00     0.022 A 
HETATM   18  C   UNK A   0      12.889   3.166  93.640  1.00  0.00     0.018 A 
HETATM   19  C   UNK A   0      14.134   2.992  93.074  1.00  0.00     0.032 A 
HETATM   20  C   UNK A   0      14.410   3.359  91.773  1.00  0.00     0.018 A 
HETATM   21  C   UNK A   0      13.394   3.925  91.003  1.00  0.00     0.022 A 
BRANCH  19  22
HETATM   22  C   UNK A   0      15.217   2.391  93.894  1.00  0.00     0.252 C 
HETATM   23  O   UNK A   0      16.373   2.778  93.739  1.00  0.00    -0.268 OA
ENDBRANCH  19  22
ENDBRANCH  15  16
ENDBRANCH  11  14
ENDBRANCH   7   8
ENDBRANCH   2   7
TORSDOF 9
ENDMDL
MODEL 2
REMARK VINA RESULT:      -7.5      0.143      1.431
REMARK  9 active torsions:
REMARK  status: ('A' for Active; 'I' for Inactive)
REMARK    1  A    between atoms: N_3  and  C_6 
REMARK    2  A    between atoms: C_6  and  C_9 
REMARK    3  A    between atoms: C_14  and  C_17 
REMARK       I    between atoms: N_26  and  C_15 
REMARK    4  A    between atoms: C_15  and  C_16 
REMARK    5  A    between atoms: C_20  and  C_23 
REMARK    6  A    between atoms: OG1_24  and  CB_28 
REMARK    7  A    between atoms: N_26  and  CA_27 
REMARK    8  A    between atoms: CA_27  and  CB_28 
REMARK    9  A    between atoms: CA_27  and  C_30 
ROOT
HETATM    1  O   UNK A   0       1.857   8.088  87.950  1.00  0.00    -0.388 OA
HETATM    2  N   UNK A   0       4.641   7.534  87.745  1.00  0.00     0.096 N 
HETATM    3  C   UNK A   0       4.136   8.912  87.819  1.00  0.00     0.299 C 
HETATM    4  C   UNK A   0       3.636   6.662  87.121  1.00  0.00     0.299 C 
HETATM    5  C   UNK A   0       2.815   8.937  88.584  1.00  0.00     0.198 C 
HETATM    6  C   UNK A   0       2.328   6.741  87.901  1.00  0.00     0.198 C 
ENDROOT
BRANCH   2   7
HETATM    7  C   UNK A   0       5.902   7.484  87.006  1.00  0.00     0.311 C 
BRANCH   7   8
HETATM    8  C   UNK A   0       7.010   6.897  87.813  1.00  0.00    -0.030 A 
HETATM    9  C   UNK A   0       8.247   6.647  87.219  1.00  0.00     0.010 A 
HETATM   10  C   UNK A   0       9.284   6.096  87.972  1.00  0.00     0.021 A 
HETATM   11  C   UNK A   0       9.083   5.798  89.319  1.00  0.00     0.018 A 
HETATM   12  C   UNK A   0       7.848   6.048  89.914  1.00  0.00     0.021 A 
HETATM   13  C   UNK A   0       6.811   6.598  89.161  1.00  0.00     0.010 A 
BRANCH  11  14
HETATM   14  C   UNK A   0      10.147   5.235  90.092  1.00  0.00    -0.061 C 
HETATM   15  C   UNK A   0      11.041   4.761  90.743  1.00  0.00    -0.061 C 
BRANCH  15  16
HETATM   16  C   UNK A   0      12.104   4.198  91.515  1.00  0.00     0.018 A 
HETATM   17  C   UNK A   0      13.341   3.948  90.921  1.00  0.00     0.022 A 
HETATM   18  C   UNK A   0      14.378   3.401  91.675  1.00  0.00     0.018 A 
HETATM   19  C   UNK A   0      14.156   3.117  93.006  1.00  0.00     0.032 A 
HETATM   20  C   UNK A   0      12.943   3.354  93.617  1.00  0.00     0.018 A 
HETATM   21  C   UNK A   0      11.904   3.901  92.864  1.00  0.00     0.022 A 
BRANCH  19  22
HETATM   22  C   UNK A   0      15.261   2.532  93.810  1.00  0.00     0.252 C 
HETATM   23  O   UNK A   0      16.400   2.973  93.674  1.00  0.00    -0.268 OA
ENDBRANCH  19  22
ENDBRANCH  15  16
ENDBRANCH  11  14
ENDBRANCH   7   8
ENDBRANCH   2   7
TORSDOF 9
ENDMDL
MODEL 3
REMARK VINA RESULT:      -6.9      1.610      2.258
REMARK  9 active torsions:
REMARK  status: ('A' for Active; 'I' for Inactive)
REMARK    1  A    between atoms: N_3  and  C_6 
REMARK    2  A    between atoms: C_6  and  C_9 
REMARK    3  A    between atoms: C_14  and  C_17 
REMARK       I    between atoms: N_26  and  C_15 
REMARK    4  A    between atoms: C_15  and  C_16 
REMARK    5  A    between atoms: C_20  and  C_23 
REMARK    6  A    between atoms: OG1_24  and  CB_28 
REMARK    7  A    between atoms: N_26  and  CA_27 
REMARK    8  A    between atoms: CA_27  and  CB_28 
REMARK    9  A    between atoms: CA_27  and  C_30 
ROOT
HETATM    1  O   UNK A   0       2.771  11.326  89.875  1.00  0.00    -0.388 OA
HETATM    2  N   UNK A   0       4.569   9.333  88.927  1.00  0.00     0.096 N 
HETATM    3  C   UNK A   0       3.830  10.204  88.002  1.00  0.00     0.299 C 
HETATM    4  C   UNK A   0       3.801   9.150  90.167  1.00  0.00     0.299 C 
HETATM    5  C   UNK A   0       3.525  11.537  88.680  1.00  0.00     0.198 C 
HETATM    6  C   UNK A   0       3.496  10.506  90.793  1.00  0.00     0.198 C 
ENDROOT
BRANCH   2   7
HETATM    7  C   UNK A   0       4.863   8.045  88.302  1.00  0.00     0.311 C 
BRANCH   7   8
HETATM    8  C   UNK A   0       6.084   7.404  88.869  1.00  0.00    -0.030 A 
HETATM    9  C   UNK A   0       5.984   6.179  89.529  1.00  0.00     0.010 A 
HETATM   10  C   UNK A   0       7.125   5.579  90.062  1.00  0.00     0.021 A 
HETATM   11  C   UNK A   0       8.365   6.204  89.934  1.00  0.00     0.018 A 
HETATM   12  C   UNK A   0       8.465   7.428  89.275  1.00  0.00     0.021 A 
HETATM   13  C   UNK A   0       7.325   8.028  88.742  1.00  0.00     0.010 A 
BRANCH  11  14
HETATM   14  C   UNK A   0       9.535   5.588  90.479  1.00  0.00    -0.061 C 
HETATM   15  C   UNK A   0      10.519   5.070  90.937  1.00  0.00    -0.061 C 
BRANCH  15  16
HETATM   16  C   UNK A   0      11.688   4.453  91.482  1.00  0.00     0.018 A 
HETATM   17  C   UNK A   0      12.839   4.334  90.703  1.00  0.00     0.022 A 
HETATM   18  C   UNK A   0      13.981   3.735  91.236  1.00  0.00     0.018 A 
HETATM   19  C   UNK A   0      13.946   3.270  92.534  1.00  0.00     0.032 A 
HETATM   20  C   UNK A   0      12.820   3.375  93.323  1.00  0.00     0.018 A 
HETATM   21  C   UNK A   0      11.678   3.974  92.792  1.00  0.00     0.022 A 
BRANCH  19  22
HETATM   22  C   UNK A   0      15.161   2.630  93.100  1.00  0.00     0.252 C 
HETATM   23  O   UNK A   0      15.676   3.106  94.109  1.00  0.00    -0.268 OA
ENDBRANCH  19  22
ENDBRANCH  15  16
ENDBRANCH  11  14
ENDBRANCH   7   8
ENDBRANCH   2   7
TORSDOF 9
ENDMDL
MODEL 4
REMARK VINA RESULT:      -6.6      3.958     10.437
REMARK  9 active torsions:
REMARK  status: ('A' for Active; 'I' for Inactive)
REMARK    1  A    between atoms: N_3  and  C_6 
REMARK    2  A    between atoms: C_6  and  C_9 
REMARK    3  A    between atoms: C_14  and  C_17 
REMARK       I    between atoms: N_26  and  C_15 
REMARK    4  A    between atoms: C_15  and  C_16 
REMARK    5  A    between atoms: C_20  and  C_23 
REMARK    6  A    between atoms: OG1_24  and  CB_28 
REMARK    7  A    between atoms: N_26  and  CA_27 
REMARK    8  A    between atoms: CA_27  and  CB_28 
REMARK    9  A    between atoms: CA_27  and  C_30 
ROOT
HETATM    1  O   UNK A   0      14.626   3.409  92.148  1.00  0.00    -0.388 OA
HETATM    2  N   UNK A   0      11.900   4.212  92.316  1.00  0.00     0.096 N 
HETATM    3  C   UNK A   0      12.510   3.346  93.335  1.00  0.00     0.299 C 
HETATM    4  C   UNK A   0      12.563   4.008  91.021  1.00  0.00     0.299 C 
HETATM    5  C   UNK A   0      14.009   3.623  93.419  1.00  0.00     0.198 C 
HETATM    6  C   UNK A   0      14.060   4.269  91.159  1.00  0.00     0.198 C 
ENDROOT
BRANCH   2   7
HETATM    7  C   UNK A   0      10.464   3.956  92.211  1.00  0.00     0.311 C 
BRANCH   7   8
HETATM    8  C   UNK A   0       9.686   5.195  91.927  1.00  0.00    -0.030 A 
HETATM    9  C   UNK A   0       9.907   6.346  92.684  1.00  0.00     0.010 A 
HETATM   10  C   UNK A   0       9.178   7.505  92.420  1.00  0.00     0.021 A 
HETATM   11  C   UNK A   0       8.230   7.513  91.398  1.00  0.00     0.018 A 
HETATM   12  C   UNK A   0       8.008   6.365  90.640  1.00  0.00     0.021 A 
HETATM   13  C   UNK A   0       8.737   5.205  90.905  1.00  0.00     0.010 A 
BRANCH  11  14
HETATM   14  C   UNK A   0       7.483   8.703  91.125  1.00  0.00    -0.061 C 
HETATM   15  C   UNK A   0       6.856   9.703  90.898  1.00  0.00    -0.061 C 
BRANCH  15  16
HETATM   16  C   UNK A   0       6.110  10.892  90.626  1.00  0.00     0.018 A 
HETATM   17  C   UNK A   0       5.265  11.422  91.602  1.00  0.00     0.022 A 
HETATM   18  C   UNK A   0       4.540  12.584  91.338  1.00  0.00     0.018 A 
HETATM   19  C   UNK A   0       4.676  13.190  90.106  1.00  0.00     0.032 A 
HETATM   20  C   UNK A   0       5.505  12.686  89.126  1.00  0.00     0.018 A 
HETATM   21  C   UNK A   0       6.230  11.524  89.388  1.00  0.00     0.022 A 
BRANCH  19  22
HETATM   22  C   UNK A   0       3.902  14.427  89.825  1.00  0.00     0.252 C 
HETATM   23  O   UNK A   0       4.475  15.513  89.858  1.00  0.00    -0.268 OA
ENDBRANCH  19  22
ENDBRANCH  15  16
ENDBRANCH  11  14
ENDBRANCH   7   8
ENDBRANCH   2   7
TORSDOF 9
ENDMDL
MODEL 5
REMARK VINA RESULT:      -6.6      3.935     10.488
REMARK  9 active torsions:
REMARK  status: ('A' for Active; 'I' for Inactive)
REMARK    1  A    between atoms: N_3  and  C_6 
REMARK    2  A    between atoms: C_6  and  C_9 
REMARK    3  A    between atoms: C_14  and  C_17 
REMARK       I    between atoms: N_26  and  C_15 
REMARK    4  A    between atoms: C_15  and  C_16 
REMARK    5  A    between atoms: C_20  and  C_23 
REMARK    6  A    between atoms: OG1_24  and  CB_28 
REMARK    7  A    between atoms: N_26  and  CA_27 
REMARK    8  A    between atoms: CA_27  and  CB_28 
REMARK    9  A    between atoms: CA_27  and  C_30 
ROOT
HETATM    1  O   UNK A   0      14.604   3.343  92.127  1.00  0.00    -0.388 OA
HETATM    2  N   UNK A   0      11.885   4.167  92.298  1.00  0.00     0.096 N 
HETATM    3  C   UNK A   0      12.499   3.325  93.335  1.00  0.00     0.299 C 
HETATM    4  C   UNK A   0      12.535   3.925  91.003  1.00  0.00     0.299 C 
HETATM    5  C   UNK A   0      14.001   3.595  93.397  1.00  0.00     0.198 C 
HETATM    6  C   UNK A   0      14.034   4.179  91.120  1.00  0.00     0.198 C 
ENDROOT
BRANCH   2   7
HETATM    7  C   UNK A   0      10.447   3.917  92.214  1.00  0.00     0.311 C 
BRANCH   7   8
HETATM    8  C   UNK A   0       9.671   5.158  91.932  1.00  0.00    -0.030 A 
HETATM    9  C   UNK A   0       8.751   5.181  90.883  1.00  0.00     0.010 A 
HETATM   10  C   UNK A   0       8.026   6.342  90.616  1.00  0.00     0.021 A 
HETATM   11  C   UNK A   0       8.219   7.479  91.401  1.00  0.00     0.018 A 
HETATM   12  C   UNK A   0       9.137   7.457  92.449  1.00  0.00     0.021 A 
HETATM   13  C   UNK A   0       9.864   6.297  92.715  1.00  0.00     0.010 A 
BRANCH  11  14
HETATM   14  C   UNK A   0       7.474   8.670  91.129  1.00  0.00    -0.061 C 
HETATM   15  C   UNK A   0       6.846   9.670  90.900  1.00  0.00    -0.061 C 
BRANCH  15  16
HETATM   16  C   UNK A   0       6.101  10.859  90.629  1.00  0.00     0.018 A 
HETATM   17  C   UNK A   0       6.188  11.465  89.376  1.00  0.00     0.022 A 
HETATM   18  C   UNK A   0       5.458  12.624  89.111  1.00  0.00     0.018 A 
HETATM   19  C   UNK A   0       4.658  13.150  90.104  1.00  0.00     0.032 A 
HETATM   20  C   UNK A   0       4.555  12.570  91.351  1.00  0.00     0.018 A 
HETATM   21  C   UNK A   0       5.285  11.411  91.617  1.00  0.00     0.022 A 
BRANCH  19  22
HETATM   22  C   UNK A   0       3.882  14.385  89.822  1.00  0.00     0.252 C 
HETATM   23  O   UNK A   0       4.478  15.453  89.699  1.00  0.00    -0.268 OA
ENDBRANCH  19  22
ENDBRANCH  15  16
ENDBRANCH  11  14
ENDBRANCH   7   8
ENDBRANCH   2   7
TORSDOF 9
ENDMDL
MODEL 6
REMARK VINA RESULT:      -6.6      3.446     10.397
REMARK  9 active torsions:
REMARK  status: ('A' for Active; 'I' for Inactive)
REMARK    1  A    between atoms: N_3  and  C_6 
REMARK    2  A    between atoms: C_6  and  C_9 
REMARK    3  A    between atoms: C_14  and  C_17 
REMARK       I    between atoms: N_26  and  C_15 
REMARK    4  A    between atoms: C_15  and  C_16 
REMARK    5  A    between atoms: C_20  and  C_23 
REMARK    6  A    between atoms: OG1_24  and  CB_28 
REMARK    7  A    between atoms: N_26  and  CA_27 
REMARK    8  A    between atoms: CA_27  and  CB_28 
REMARK    9  A    between atoms: CA_27  and  C_30 
ROOT
HETATM    1  O   UNK A   0      16.207   3.187  93.569  1.00  0.00    -0.388 OA
HETATM    2  N   UNK A   0      13.461   2.900  92.877  1.00  0.00     0.096 N 
HETATM    3  C   UNK A   0      14.308   1.733  93.161  1.00  0.00     0.299 C 
HETATM    4  C   UNK A   0      14.279   3.996  92.340  1.00  0.00     0.299 C 
HETATM    5  C   UNK A   0      15.426   2.126  94.122  1.00  0.00     0.198 C 
HETATM    6  C   UNK A   0      15.398   4.336  93.319  1.00  0.00     0.198 C 
ENDROOT
BRANCH   2   7
HETATM    7  C   UNK A   0      12.388   2.548  91.949  1.00  0.00     0.311 C 
BRANCH   7   8
HETATM    8  C   UNK A   0      11.535   3.719  91.597  1.00  0.00    -0.030 A 
HETATM    9  C   UNK A   0      11.513   4.196  90.285  1.00  0.00     0.010 A 
HETATM   10  C   UNK A   0      10.717   5.292  89.955  1.00  0.00     0.021 A 
HETATM   11  C   UNK A   0       9.942   5.910  90.936  1.00  0.00     0.018 A 
HETATM   12  C   UNK A   0       9.963   5.435  92.246  1.00  0.00     0.021 A 
HETATM   13  C   UNK A   0      10.759   4.339  92.576  1.00  0.00     0.010 A 
BRANCH  11  14
HETATM   14  C   UNK A   0       9.124   7.034  90.597  1.00  0.00    -0.061 C 
HETATM   15  C   UNK A   0       8.436   7.978  90.312  1.00  0.00    -0.061 C 
BRANCH  15  16
HETATM   16  C   UNK A   0       7.619   9.102  89.974  1.00  0.00     0.018 A 
HETATM   17  C   UNK A   0       8.213  10.302  89.582  1.00  0.00     0.022 A 
HETATM   18  C   UNK A   0       7.416  11.397  89.249  1.00  0.00     0.018 A 
HETATM   19  C   UNK A   0       6.044  11.267  89.314  1.00  0.00     0.032 A 
HETATM   20  C   UNK A   0       5.433  10.092  89.699  1.00  0.00     0.018 A 
HETATM   21  C   UNK A   0       6.230   8.997  90.033  1.00  0.00     0.022 A 
BRANCH  19  22
HETATM   22  C   UNK A   0       5.195  12.435  88.962  1.00  0.00     0.252 C 
HETATM   23  O   UNK A   0       4.567  12.422  87.906  1.00  0.00    -0.268 OA
ENDBRANCH  19  22
ENDBRANCH  15  16
ENDBRANCH  11  14
ENDBRANCH   7   8
ENDBRANCH   2   7
TORSDOF 9
ENDMDL
MODEL 7
REMARK VINA RESULT:      -6.4      1.755      2.676
REMARK  9 active torsions:
REMARK  status: ('A' for Active; 'I' for Inactive)
REMARK    1  A    between atoms: N_3  and  C_6 
REMARK    2  A    between atoms: C_6  and  C_9 
REMARK    3  A    between atoms: C_14  and  C_17 
REMARK       I    between atoms: N_26  and  C_15 
REMARK    4  A    between atoms: C_15  and  C_16 
REMARK    5  A    between atoms: C_20  and  C_23 
REMARK    6  A    between atoms: OG1_24  and  CB_28 
REMARK    7  A    between atoms: N_26  and  CA_27 
REMARK    8  A    between atoms: CA_27  and  CB_28 
REMARK    9  A    between atoms: CA_27  and  C_30 
ROOT
HETATM    1  O   UNK A   0       2.423   8.751  87.767  1.00  0.00    -0.388 OA
HETATM    2  N   UNK A   0       4.112   7.873  89.883  1.00  0.00     0.096 N 
HETATM    3  C   UNK A   0       2.983   7.058  89.413  1.00  0.00     0.299 C 
HETATM    4  C   UNK A   0       3.828   9.299  89.667  1.00  0.00     0.299 C 
HETATM    5  C   UNK A   0       2.704   7.361  87.943  1.00  0.00     0.198 C 
HETATM    6  C   UNK A   0       3.528   9.549  88.192  1.00  0.00     0.198 C 
ENDROOT
BRANCH   2   7
HETATM    7  C   UNK A   0       4.391   7.607  91.293  1.00  0.00     0.311 C 
BRANCH   7   8
HETATM    8  C   UNK A   0       5.736   6.998  91.501  1.00  0.00    -0.030 A 
HETATM    9  C   UNK A   0       6.262   6.894  92.789  1.00  0.00     0.010 A 
HETATM   10  C   UNK A   0       7.521   6.327  92.984  1.00  0.00     0.021 A 
HETATM   11  C   UNK A   0       8.252   5.861  91.891  1.00  0.00     0.018 A 
HETATM   12  C   UNK A   0       7.727   5.964  90.605  1.00  0.00     0.021 A 
HETATM   13  C   UNK A   0       6.469   6.532  90.409  1.00  0.00     0.010 A 
BRANCH  11  14
HETATM   14  C   UNK A   0       9.542   5.277  92.092  1.00  0.00    -0.061 C 
HETATM   15  C   UNK A   0      10.627   4.785  92.261  1.00  0.00    -0.061 C 
BRANCH  15  16
HETATM   16  C   UNK A   0      11.916   4.200  92.461  1.00  0.00     0.018 A 
HETATM   17  C   UNK A   0      12.867   4.245  91.441  1.00  0.00     0.022 A 
HETATM   18  C   UNK A   0      14.125   3.677  91.638  1.00  0.00     0.018 A 
HETATM   19  C   UNK A   0      14.405   3.078  92.849  1.00  0.00     0.032 A 
HETATM   20  C   UNK A   0      13.482   3.021  93.872  1.00  0.00     0.018 A 
HETATM   21  C   UNK A   0      12.223   3.588  93.677  1.00  0.00     0.022 A 
BRANCH  19  22
HETATM   22  C   UNK A   0      15.745   2.472  93.057  1.00  0.00     0.252 C 
HETATM   23  O   UNK A   0      16.574   3.067  93.741  1.00  0.00    -0.268 OA
ENDBRANCH  19  22
ENDBRANCH  15  16
ENDBRANCH  11  14
ENDBRANCH   7   8
ENDBRANCH   2   7
TORSDOF 9
ENDMDL
MODEL 8
REMARK VINA RESULT:      -6.2      1.259      1.662
REMARK  9 active torsions:
REMARK  status: ('A' for Active; 'I' for Inactive)
REMARK    1  A    between atoms: N_3  and  C_6 
REMARK    2  A    between atoms: C_6  and  C_9 
REMARK    3  A    between atoms: C_14  and  C_17 
REMARK       I    between atoms: N_26  and  C_15 
REMARK    4  A    between atoms: C_15  and  C_16 
REMARK    5  A    between atoms: C_20  and  C_23 
REMARK    6  A    between atoms: OG1_24  and  CB_28 
REMARK    7  A    between atoms: N_26  and  CA_27 
REMARK    8  A    between atoms: CA_27  and  CB_28 
REMARK    9  A    between atoms: CA_27  and  C_30 
ROOT
HETATM    1  O   UNK A   0       2.432   6.600  87.849  1.00  0.00    -0.388 OA
HETATM    2  N   UNK A   0       4.486   8.551  88.127  1.00  0.00     0.096 N 
HETATM    3  C   UNK A   0       4.780   7.113  88.188  1.00  0.00     0.299 C 
HETATM    4  C   UNK A   0       3.116   8.805  88.593  1.00  0.00     0.299 C 
HETATM    5  C   UNK A   0       3.752   6.339  87.366  1.00  0.00     0.198 C 
HETATM    6  C   UNK A   0       2.127   7.992  87.763  1.00  0.00     0.198 C 
ENDROOT
BRANCH   2   7
HETATM    7  C   UNK A   0       5.453   9.311  88.917  1.00  0.00     0.311 C 
BRANCH   7   8
HETATM    8  C   UNK A   0       6.559   8.457  89.437  1.00  0.00    -0.030 A 
HETATM    9  C   UNK A   0       6.446   7.861  90.694  1.00  0.00     0.010 A 
HETATM   10  C   UNK A   0       7.480   7.063  91.183  1.00  0.00     0.021 A 
HETATM   11  C   UNK A   0       8.625   6.859  90.414  1.00  0.00     0.018 A 
HETATM   12  C   UNK A   0       8.739   7.453  89.158  1.00  0.00     0.021 A 
HETATM   13  C   UNK A   0       7.705   8.252  88.669  1.00  0.00     0.010 A 
BRANCH  11  14
HETATM   14  C   UNK A   0       9.685   6.039  90.914  1.00  0.00    -0.061 C 
HETATM   15  C   UNK A   0      10.576   5.349  91.334  1.00  0.00    -0.061 C 
BRANCH  15  16
HETATM   16  C   UNK A   0      11.636   4.530  91.834  1.00  0.00     0.018 A 
HETATM   17  C   UNK A   0      11.627   4.116  93.166  1.00  0.00     0.022 A 
HETATM   18  C   UNK A   0      12.660   3.315  93.653  1.00  0.00     0.018 A 
HETATM   19  C   UNK A   0      13.676   2.945  92.798  1.00  0.00     0.032 A 
HETATM   20  C   UNK A   0      13.708   3.341  91.477  1.00  0.00     0.018 A 
HETATM   21  C   UNK A   0      12.676   4.143  90.989  1.00  0.00     0.022 A 
BRANCH  19  22
HETATM   22  C   UNK A   0      14.777   2.093  93.317  1.00  0.00     0.252 C 
HETATM   23  O   UNK A   0      15.797   2.626  93.746  1.00  0.00    -0.268 OA
ENDBRANCH  19  22
ENDBRANCH  15  16
ENDBRANCH  11  14
ENDBRANCH   7   8
ENDBRANCH   2   7
TORSDOF 9
ENDMDL
MODEL 9
REMARK VINA RESULT:      -6.1      3.381     10.337
REMARK  9 active torsions:
REMARK  status: ('A' for Active; 'I' for Inactive)
REMARK    1  A    between atoms: N_3  and  C_6 
REMARK    2  A    between atoms: C_6  and  C_9 
REMARK    3  A    between atoms: C_14  and  C_17 
REMARK       I    between atoms: N_26  and  C_15 
REMARK    4  A    between atoms: C_15  and  C_16 
REMARK    5  A    between atoms: C_20  and  C_23 
REMARK    6  A    between atoms: OG1_24  and  CB_28 
REMARK    7  A    between atoms: N_26  and  CA_27 
REMARK    8  A    between atoms: CA_27  and  CB_28 
REMARK    9  A    between atoms: CA_27  and  C_30 
ROOT
HETATM    1  O   UNK A   0      16.045   3.078  93.701  1.00  0.00    -0.388 OA
HETATM    2  N   UNK A   0      13.510   3.195  92.413  1.00  0.00     0.096 N 
HETATM    3  C   UNK A   0      14.044   1.933  92.944  1.00  0.00     0.299 C 
HETATM    4  C   UNK A   0      14.612   4.083  92.022  1.00  0.00     0.299 C 
HETATM    5  C   UNK A   0      14.980   2.220  94.115  1.00  0.00     0.198 C 
HETATM    6  C   UNK A   0      15.535   4.319  93.213  1.00  0.00     0.198 C 
ENDROOT
BRANCH   2   7
HETATM    7  C   UNK A   0      12.617   2.944  91.283  1.00  0.00     0.311 C 
BRANCH   7   8
HETATM    8  C   UNK A   0      11.652   4.059  91.063  1.00  0.00    -0.030 A 
HETATM    9  C   UNK A   0      11.109   4.736  92.156  1.00  0.00     0.010 A 
HETATM   10  C   UNK A   0      10.204   5.778  91.951  1.00  0.00     0.021 A 
HETATM   11  C   UNK A   0       9.846   6.144  90.654  1.00  0.00     0.018 A 
HETATM   12  C   UNK A   0      10.388   5.469  89.562  1.00  0.00     0.021 A 
HETATM   13  C   UNK A   0      11.292   4.427  89.766  1.00  0.00     0.010 A 
BRANCH  11  14
HETATM   14  C   UNK A   0       8.920   7.214  90.444  1.00  0.00    -0.061 C 
HETATM   15  C   UNK A   0       8.142   8.113  90.268  1.00  0.00    -0.061 C 
BRANCH  15  16
HETATM   16  C   UNK A   0       7.216   9.182  90.058  1.00  0.00     0.018 A 
HETATM   17  C   UNK A   0       5.865   9.002  90.356  1.00  0.00     0.022 A 
HETATM   18  C   UNK A   0       4.962  10.046  90.154  1.00  0.00     0.018 A 
HETATM   19  C   UNK A   0       5.430  11.245  89.659  1.00  0.00     0.032 A 
HETATM   20  C   UNK A   0       6.760  11.448  89.356  1.00  0.00     0.018 A 
HETATM   21  C   UNK A   0       7.663  10.405  89.558  1.00  0.00     0.022 A 
BRANCH  19  22
HETATM   22  C   UNK A   0       4.467  12.356  89.441  1.00  0.00     0.252 C 
HETATM   23  O   UNK A   0       4.230  12.728  88.295  1.00  0.00    -0.268 OA
ENDBRANCH  19  22
ENDBRANCH  15  16
ENDBRANCH  11  14
ENDBRANCH   7   8
ENDBRANCH   2   7
TORSDOF 9
ENDMDL
