MODEL 1
REMARK VINA RESULT:      -7.6      0.000      0.000
REMARK  9 active torsions:
REMARK  status: ('A' for Active; 'I' for Inactive)
REMARK    1  A    between atoms: N_3  and  C_6 
REMARK    2  A    between atoms: C_6  and  C_9 
REMARK    3  A    between atoms: C_14  and  C_17 
REMARK       I    between atoms: N_26  and  C_15 
REMARK    4  A    between atoms: C_15  and  C_16 
REMARK    5  A    between atoms: C_20  and  C_23 
REMARK    6  A    between atoms: OG1_24  and  CB_28 
REMARK    7  A    between atoms: N_26  and  CA_27 
REMARK    8  A    between atoms: CA_27  and  CB_28 
REMARK    9  A    between atoms: CA_27  and  C_30 
ROOT
HETATM    1  O   UNK A   0       1.908   8.152  87.828  1.00  0.00    -0.388 OA
HETATM    2  N   UNK A   0       4.693   7.589  87.663  1.00  0.00     0.096 N 
HETATM    3  C   UNK A   0       4.193   8.967  87.762  1.00  0.00     0.299 C 
HETATM    4  C   UNK A   0       3.696   6.738  86.999  1.00  0.00     0.299 C 
HETATM    5  C   UNK A   0       2.857   8.980  88.501  1.00  0.00     0.198 C 
HETATM    6  C   UNK A   0       2.373   6.804  87.755  1.00  0.00     0.198 C 
ENDROOT
BRANCH   2   7
HETATM    7  C   UNK A   0       5.968   7.551  86.948  1.00  0.00     0.311 C 
BRANCH   7   8
HETATM    8  C   UNK A   0       7.058   6.941  87.763  1.00  0.00    -0.030 A 
HETATM    9  C   UNK A   0       8.304   6.695  87.185  1.00  0.00     0.010 A 
HETATM   10  C   UNK A   0       9.324   6.122  87.946  1.00  0.00     0.021 A 
HETATM   11  C   UNK A   0       9.097   5.799  89.283  1.00  0.00     0.018 A 
HETATM   12  C   UNK A   0       7.853   6.044  89.860  1.00  0.00     0.021 A 
HETATM   13  C   UNK A   0       6.833   6.616  89.100  1.00  0.00     0.010 A 
BRANCH  11  14
HETATM   14  C   UNK A   0      10.144   5.213  90.063  1.00  0.00    -0.061 C 
HETATM   15  C   UNK A   0      11.024   4.721  90.719  1.00  0.00    -0.061 C 
BRANCH  15  16
HETATM   16  C   UNK A   0      12.070   4.136  91.498  1.00  0.00     0.018 A 
HETATM   17  C   UNK A   0      13.330   3.935  90.933  1.00  0.00     0.022 A 
HETATM   18  C   UNK A   0      14.351   3.367  91.694  1.00  0.00     0.018 A 
HETATM   19  C   UNK A   0      14.091   3.014  93.001  1.00  0.00     0.032 A 
HETATM   20  C   UNK A   0      12.855   3.202  93.583  1.00  0.00     0.018 A 
HETATM   21  C   UNK A   0      11.832   3.770  92.822  1.00  0.00     0.022 A 
BRANCH  19  22
HETATM   22  C   UNK A   0      15.179   2.407  93.811  1.00  0.00     0.252 C 
HETATM   23  O   UNK A   0      16.330   2.812  93.669  1.00  0.00    -0.268 OA
ENDBRANCH  19  22
ENDBRANCH  15  16
ENDBRANCH  11  14
ENDBRANCH   7   8
ENDBRANCH   2   7
TORSDOF 9
ENDMDL
