MODEL 1
REMARK VINA RESULT:      -7.0      0.000      0.000
REMARK  9 active torsions:
REMARK  status: ('A' for Active; 'I' for Inactive)
REMARK    1  A    between atoms: O_2  and  C_17 
REMARK    2  A    between atoms: N_5  and  C_10 
REMARK    3  A    between atoms: N_6  and  C_14 
REMARK       I    between atoms: N_6  and  C_23 
REMARK       I    between atoms: N_7  and  C_22 
REMARK    4  A    between atoms: C_10  and  C_13 
REMARK    5  A    between atoms: C_14  and  C_17 
REMARK    6  A    between atoms: C_14  and  C_22 
REMARK    7  A    between atoms: C_20  and  C_25 
REMARK    8  A    between atoms: C_23  and  C_24 
REMARK    9  A    between atoms: C_28  and  C_31 
ROOT
HETATM    1  O   UNL     1      16.208   4.167  94.093  1.00  0.00    -0.388 OA
HETATM    2  N   UNL     1      14.435   2.630  92.482  1.00  0.00     0.096 N 
HETATM    3  C   UNL     1      14.423   4.099  92.450  1.00  0.00     0.299 C 
HETATM    4  C   UNL     1      14.879   2.159  93.801  1.00  0.00     0.299 C 
HETATM    5  C   UNL     1      15.808   4.635  92.803  1.00  0.00     0.198 C 
HETATM    6  C   UNL     1      16.252   2.740  94.123  1.00  0.00     0.198 C 
ENDROOT
BRANCH   2   7
HETATM    7  C   UNL     1      13.114   2.095  92.157  1.00  0.00     0.311 C 
BRANCH   7   8
HETATM    8  C   UNL     1      12.142   3.164  91.791  1.00  0.00    -0.030 A 
HETATM    9  C   UNL     1      11.265   3.667  92.753  1.00  0.00     0.010 A 
HETATM   10  C   UNL     1      10.353   4.666  92.411  1.00  0.00     0.021 A 
HETATM   11  C   UNL     1      10.321   5.163  91.109  1.00  0.00     0.018 A 
HETATM   12  C   UNL     1      11.197   4.662  90.148  1.00  0.00     0.021 A 
HETATM   13  C   UNL     1      12.108   3.663  90.489  1.00  0.00     0.010 A 
BRANCH  11  14
HETATM   14  C   UNL     1       9.388   6.190  90.759  1.00  0.00    -0.061 C 
HETATM   15  C   UNL     1       8.603   7.052  90.464  1.00  0.00    -0.061 C 
BRANCH  15  16
HETATM   16  C   UNL     1       7.670   8.077  90.115  1.00  0.00     0.018 A 
HETATM   17  C   UNL     1       6.386   7.734  89.690  1.00  0.00     0.022 A 
HETATM   18  C   UNL     1       5.475   8.735  89.352  1.00  0.00     0.018 A 
HETATM   19  C   UNL     1       5.867  10.054  89.447  1.00  0.00     0.032 A 
HETATM   20  C   UNL     1       7.130  10.418  89.863  1.00  0.00     0.018 A 
HETATM   21  C   UNL     1       8.042   9.418  90.202  1.00  0.00     0.022 A 
BRANCH  19  22
HETATM   22  C   UNL     1       4.896  11.119  89.084  1.00  0.00     0.252 C 
HETATM   23  O   UNL     1       4.048  10.890  88.226  1.00  0.00    -0.268 OA
HETATM   24  N   UNL     1       5.015  12.313  89.782  1.00  0.00    -0.342 N 
HETATM   25  H   UNL     1       5.726  12.421  90.497  1.00  0.00     0.163 HD
BRANCH  24  26
HETATM   26  C   UNL     1       4.133  13.431  89.562  1.00  0.00     0.199 C 
BRANCH  26  27
HETATM   27  C   UNL     1       3.484  13.938  90.856  1.00  0.00     0.145 C 
HETATM   28  C   UNL     1       2.342  13.044  91.326  1.00  0.00     0.042 C 
BRANCH  27  29
HETATM   29  O   UNL     1       4.469  14.012  91.887  1.00  0.00    -0.393 OA
HETATM   30  H   UNL     1       5.229  14.513  91.547  1.00  0.00     0.210 HD
ENDBRANCH  27  29
ENDBRANCH  26  27
BRANCH  26  31
HETATM   31  C   UNL     1       4.938  14.530  88.877  1.00  0.00     0.220 C 
HETATM   32  O   UNL     1       5.234  15.588  89.431  1.00  0.00    -0.278 OA
HETATM   33  N   UNL     1       5.249  14.213  87.577  1.00  0.00    -0.271 NA
HETATM   34  H   UNL     1       4.945  13.394  87.063  1.00  0.00     0.127 HD
HETATM   35  H   UNL     1       4.721  14.759  86.396  1.00  0.00     0.127 HD
ENDBRANCH  26  31
ENDBRANCH  24  26
ENDBRANCH  19  22
ENDBRANCH  15  16
ENDBRANCH  11  14
ENDBRANCH   7   8
ENDBRANCH   2   7
TORSDOF 9
ENDMDL
