MODEL 1
REMARK VINA RESULT:      -7.6      0.000      0.000
REMARK  9 active torsions:
REMARK  status: ('A' for Active; 'I' for Inactive)
REMARK    1  A    between atoms: N_3  and  C_6 
REMARK    2  A    between atoms: C_6  and  C_9 
REMARK    3  A    between atoms: C_14  and  C_17 
REMARK       I    between atoms: N_26  and  C_15 
REMARK    4  A    between atoms: C_15  and  C_16 
REMARK    5  A    between atoms: C_20  and  C_23 
REMARK    6  A    between atoms: OG1_24  and  CB_28 
REMARK    7  A    between atoms: N_26  and  CA_27 
REMARK    8  A    between atoms: CA_27  and  CB_28 
REMARK    9  A    between atoms: CA_27  and  C_30 
ROOT
HETATM    1  O   UNK A   0       1.910   8.075  87.835  1.00  0.00    -0.388 OA
HETATM    2  N   UNK A   0       4.701   7.535  87.677  1.00  0.00     0.096 N 
HETATM    3  C   UNK A   0       4.190   8.907  87.801  1.00  0.00     0.299 C 
HETATM    4  C   UNK A   0       3.714   6.691  86.989  1.00  0.00     0.299 C 
HETATM    5  C   UNK A   0       2.849   8.896  88.532  1.00  0.00     0.198 C 
HETATM    6  C   UNK A   0       2.386   6.732  87.738  1.00  0.00     0.198 C 
ENDROOT
BRANCH   2   7
HETATM    7  C   UNK A   0       5.980   7.521  86.970  1.00  0.00     0.311 C 
BRANCH   7   8
HETATM    8  C   UNK A   0       7.073   6.920  87.786  1.00  0.00    -0.030 A 
HETATM    9  C   UNK A   0       6.842   6.582  89.120  1.00  0.00     0.010 A 
HETATM   10  C   UNK A   0       7.864   6.021  89.885  1.00  0.00     0.021 A 
HETATM   11  C   UNK A   0       9.117   5.797  89.315  1.00  0.00     0.018 A 
HETATM   12  C   UNK A   0       9.349   6.133  87.983  1.00  0.00     0.021 A 
HETATM   13  C   UNK A   0       8.327   6.694  87.218  1.00  0.00     0.010 A 
BRANCH  11  14
HETATM   14  C   UNK A   0      10.165   5.219  90.099  1.00  0.00    -0.061 C 
HETATM   15  C   UNK A   0      11.046   4.734  90.759  1.00  0.00    -0.061 C 
BRANCH  15  16
HETATM   16  C   UNK A   0      12.093   4.156  91.542  1.00  0.00     0.018 A 
HETATM   17  C   UNK A   0      11.853   3.794  92.868  1.00  0.00     0.022 A 
HETATM   18  C   UNK A   0      12.874   3.228  93.631  1.00  0.00     0.018 A 
HETATM   19  C   UNK A   0      14.111   3.036  93.052  1.00  0.00     0.032 A 
HETATM   20  C   UNK A   0      14.374   3.386  91.744  1.00  0.00     0.018 A 
HETATM   21  C   UNK A   0      13.353   3.952  90.980  1.00  0.00     0.022 A 
BRANCH  19  22
HETATM   22  C   UNK A   0      15.199   2.435  93.866  1.00  0.00     0.252 C 
HETATM   23  O   UNK A   0      16.350   2.840  93.721  1.00  0.00    -0.268 OA
ENDBRANCH  19  22
ENDBRANCH  15  16
ENDBRANCH  11  14
ENDBRANCH   7   8
ENDBRANCH   2   7
TORSDOF 9
ENDMDL
MODEL 2
REMARK VINA RESULT:      -7.5      0.137      1.017
REMARK  9 active torsions:
REMARK  status: ('A' for Active; 'I' for Inactive)
REMARK    1  A    between atoms: N_3  and  C_6 
REMARK    2  A    between atoms: C_6  and  C_9 
REMARK    3  A    between atoms: C_14  and  C_17 
REMARK       I    between atoms: N_26  and  C_15 
REMARK    4  A    between atoms: C_15  and  C_16 
REMARK    5  A    between atoms: C_20  and  C_23 
REMARK    6  A    between atoms: OG1_24  and  CB_28 
REMARK    7  A    between atoms: N_26  and  CA_27 
REMARK    8  A    between atoms: CA_27  and  CB_28 
REMARK    9  A    between atoms: CA_27  and  C_30 
ROOT
HETATM    1  O   UNK A   0       1.768   7.954  87.804  1.00  0.00    -0.388 OA
HETATM    2  N   UNK A   0       4.583   7.555  87.672  1.00  0.00     0.096 N 
HETATM    3  C   UNK A   0       4.002   8.902  87.759  1.00  0.00     0.299 C 
HETATM    4  C   UNK A   0       3.645   6.644  87.001  1.00  0.00     0.299 C 
HETATM    5  C   UNK A   0       2.660   8.840  88.484  1.00  0.00     0.198 C 
HETATM    6  C   UNK A   0       2.312   6.635  87.742  1.00  0.00     0.198 C 
ENDROOT
BRANCH   2   7
HETATM    7  C   UNK A   0       5.866   7.588  86.972  1.00  0.00     0.311 C 
BRANCH   7   8
HETATM    8  C   UNK A   0       6.966   6.975  87.770  1.00  0.00    -0.030 A 
HETATM    9  C   UNK A   0       6.741   6.607  89.097  1.00  0.00     0.010 A 
HETATM   10  C   UNK A   0       7.769   6.035  89.846  1.00  0.00     0.021 A 
HETATM   11  C   UNK A   0       9.021   5.829  89.266  1.00  0.00     0.018 A 
HETATM   12  C   UNK A   0       9.246   6.196  87.941  1.00  0.00     0.021 A 
HETATM   13  C   UNK A   0       8.218   6.769  87.193  1.00  0.00     0.010 A 
BRANCH  11  14
HETATM   14  C   UNK A   0      10.075   5.240  90.034  1.00  0.00    -0.061 C 
HETATM   15  C   UNK A   0      10.962   4.746  90.678  1.00  0.00    -0.061 C 
BRANCH  15  16
HETATM   16  C   UNK A   0      12.015   4.159  91.446  1.00  0.00     0.018 A 
HETATM   17  C   UNK A   0      13.270   3.959  90.868  1.00  0.00     0.022 A 
HETATM   18  C   UNK A   0      14.298   3.389  91.618  1.00  0.00     0.018 A 
HETATM   19  C   UNK A   0      14.050   3.031  92.927  1.00  0.00     0.032 A 
HETATM   20  C   UNK A   0      12.819   3.217  93.520  1.00  0.00     0.018 A 
HETATM   21  C   UNK A   0      11.790   3.788  92.771  1.00  0.00     0.022 A 
BRANCH  19  22
HETATM   22  C   UNK A   0      15.146   2.421  93.724  1.00  0.00     0.252 C 
HETATM   23  O   UNK A   0      16.248   2.963  93.741  1.00  0.00    -0.268 OA
ENDBRANCH  19  22
ENDBRANCH  15  16
ENDBRANCH  11  14
ENDBRANCH   7   8
ENDBRANCH   2   7
TORSDOF 9
ENDMDL
MODEL 3
REMARK VINA RESULT:      -6.9      1.485      2.088
REMARK  9 active torsions:
REMARK  status: ('A' for Active; 'I' for Inactive)
REMARK    1  A    between atoms: N_3  and  C_6 
REMARK    2  A    between atoms: C_6  and  C_9 
REMARK    3  A    between atoms: C_14  and  C_17 
REMARK       I    between atoms: N_26  and  C_15 
REMARK    4  A    between atoms: C_15  and  C_16 
REMARK    5  A    between atoms: C_20  and  C_23 
REMARK    6  A    between atoms: OG1_24  and  CB_28 
REMARK    7  A    between atoms: N_26  and  CA_27 
REMARK    8  A    between atoms: CA_27  and  CB_28 
REMARK    9  A    between atoms: CA_27  and  C_30 
ROOT
HETATM    1  O   UNK A   0       4.991  11.219  88.648  1.00  0.00    -0.388 OA
HETATM    2  N   UNK A   0       5.320   8.392  88.713  1.00  0.00     0.096 N 
HETATM    3  C   UNK A   0       6.454   9.302  88.925  1.00  0.00     0.299 C 
HETATM    4  C   UNK A   0       4.318   9.030  87.848  1.00  0.00     0.299 C 
HETATM    5  C   UNK A   0       5.957  10.620  89.514  1.00  0.00     0.198 C 
HETATM    6  C   UNK A   0       3.871  10.353  88.462  1.00  0.00     0.198 C 
ENDROOT
BRANCH   2   7
HETATM    7  C   UNK A   0       5.773   7.126  88.138  1.00  0.00     0.311 C 
BRANCH   7   8
HETATM    8  C   UNK A   0       6.962   6.573  88.848  1.00  0.00    -0.030 A 
HETATM    9  C   UNK A   0       8.190   6.493  88.190  1.00  0.00     0.010 A 
HETATM   10  C   UNK A   0       9.302   5.973  88.852  1.00  0.00     0.021 A 
HETATM   11  C   UNK A   0       9.186   5.537  90.172  1.00  0.00     0.018 A 
HETATM   12  C   UNK A   0       7.960   5.617  90.829  1.00  0.00     0.021 A 
HETATM   13  C   UNK A   0       6.848   6.136  90.167  1.00  0.00     0.010 A 
BRANCH  11  14
HETATM   14  C   UNK A   0      10.328   5.006  90.851  1.00  0.00    -0.061 C 
HETATM   15  C   UNK A   0      11.288   4.561  91.422  1.00  0.00    -0.061 C 
BRANCH  15  16
HETATM   16  C   UNK A   0      12.429   4.032  92.102  1.00  0.00     0.018 A 
HETATM   17  C   UNK A   0      12.303   3.559  93.409  1.00  0.00     0.022 A 
HETATM   18  C   UNK A   0      13.416   3.040  94.071  1.00  0.00     0.018 A 
HETATM   19  C   UNK A   0      14.627   3.004  93.412  1.00  0.00     0.032 A 
HETATM   20  C   UNK A   0      14.777   3.466  92.121  1.00  0.00     0.018 A 
HETATM   21  C   UNK A   0      13.665   3.985  91.458  1.00  0.00     0.022 A 
BRANCH  19  22
HETATM   22  C   UNK A   0      15.812   2.453  94.119  1.00  0.00     0.252 C 
HETATM   23  O   UNK A   0      16.936   2.814  93.777  1.00  0.00    -0.268 OA
ENDBRANCH  19  22
ENDBRANCH  15  16
ENDBRANCH  11  14
ENDBRANCH   7   8
ENDBRANCH   2   7
TORSDOF 9
ENDMDL
MODEL 4
REMARK VINA RESULT:      -6.9      1.024      1.851
REMARK  9 active torsions:
REMARK  status: ('A' for Active; 'I' for Inactive)
REMARK    1  A    between atoms: N_3  and  C_6 
REMARK    2  A    between atoms: C_6  and  C_9 
REMARK    3  A    between atoms: C_14  and  C_17 
REMARK       I    between atoms: N_26  and  C_15 
REMARK    4  A    between atoms: C_15  and  C_16 
REMARK    5  A    between atoms: C_20  and  C_23 
REMARK    6  A    between atoms: OG1_24  and  CB_28 
REMARK    7  A    between atoms: N_26  and  CA_27 
REMARK    8  A    between atoms: CA_27  and  CB_28 
REMARK    9  A    between atoms: CA_27  and  C_30 
ROOT
HETATM    1  O   UNK A   0       2.373   9.868  89.249  1.00  0.00    -0.388 OA
HETATM    2  N   UNK A   0       4.609   8.197  88.692  1.00  0.00     0.096 N 
HETATM    3  C   UNK A   0       4.309   9.377  87.869  1.00  0.00     0.299 C 
HETATM    4  C   UNK A   0       3.371   7.657  89.269  1.00  0.00     0.299 C 
HETATM    5  C   UNK A   0       3.576  10.420  88.710  1.00  0.00     0.198 C 
HETATM    6  C   UNK A   0       2.659   8.739  90.075  1.00  0.00     0.198 C 
ENDROOT
BRANCH   2   7
HETATM    7  C   UNK A   0       5.303   7.180  87.904  1.00  0.00     0.311 C 
BRANCH   7   8
HETATM    8  C   UNK A   0       6.502   6.638  88.605  1.00  0.00    -0.030 A 
HETATM    9  C   UNK A   0       7.777   6.882  88.094  1.00  0.00     0.010 A 
HETATM   10  C   UNK A   0       8.899   6.373  88.748  1.00  0.00     0.021 A 
HETATM   11  C   UNK A   0       8.745   5.623  89.914  1.00  0.00     0.018 A 
HETATM   12  C   UNK A   0       7.472   5.379  90.424  1.00  0.00     0.021 A 
HETATM   13  C   UNK A   0       6.350   5.886  89.770  1.00  0.00     0.010 A 
BRANCH  11  14
HETATM   14  C   UNK A   0       9.896   5.103  90.586  1.00  0.00    -0.061 C 
HETATM   15  C   UNK A   0      10.864   4.665  91.150  1.00  0.00    -0.061 C 
BRANCH  15  16
HETATM   16  C   UNK A   0      12.014   4.145  91.820  1.00  0.00     0.018 A 
HETATM   17  C   UNK A   0      13.239   4.083  91.155  1.00  0.00     0.022 A 
HETATM   18  C   UNK A   0      14.362   3.579  91.811  1.00  0.00     0.018 A 
HETATM   19  C   UNK A   0      14.236   3.149  93.115  1.00  0.00     0.032 A 
HETATM   20  C   UNK A   0      13.037   3.200  93.794  1.00  0.00     0.018 A 
HETATM   21  C   UNK A   0      11.913   3.704  93.140  1.00  0.00     0.022 A 
BRANCH  19  22
HETATM   22  C   UNK A   0      15.433   2.610  93.812  1.00  0.00     0.252 C 
HETATM   23  O   UNK A   0      16.547   3.018  93.494  1.00  0.00    -0.268 OA
ENDBRANCH  19  22
ENDBRANCH  15  16
ENDBRANCH  11  14
ENDBRANCH   7   8
ENDBRANCH   2   7
TORSDOF 9
ENDMDL
MODEL 5
REMARK VINA RESULT:      -6.6      3.440     10.348
REMARK  9 active torsions:
REMARK  status: ('A' for Active; 'I' for Inactive)
REMARK    1  A    between atoms: N_3  and  C_6 
REMARK    2  A    between atoms: C_6  and  C_9 
REMARK    3  A    between atoms: C_14  and  C_17 
REMARK       I    between atoms: N_26  and  C_15 
REMARK    4  A    between atoms: C_15  and  C_16 
REMARK    5  A    between atoms: C_20  and  C_23 
REMARK    6  A    between atoms: OG1_24  and  CB_28 
REMARK    7  A    between atoms: N_26  and  CA_27 
REMARK    8  A    between atoms: CA_27  and  CB_28 
REMARK    9  A    between atoms: CA_27  and  C_30 
ROOT
HETATM    1  O   UNK A   0      16.209   3.197  93.658  1.00  0.00    -0.388 OA
HETATM    2  N   UNK A   0      13.518   2.881  92.784  1.00  0.00     0.096 N 
HETATM    3  C   UNK A   0      14.371   1.721  93.078  1.00  0.00     0.299 C 
HETATM    4  C   UNK A   0      14.343   4.013  92.339  1.00  0.00     0.299 C 
HETATM    5  C   UNK A   0      15.418   2.101  94.122  1.00  0.00     0.198 C 
HETATM    6  C   UNK A   0      15.391   4.338  93.399  1.00  0.00     0.198 C 
ENDROOT
BRANCH   2   7
HETATM    7  C   UNK A   0      12.514   2.543  91.777  1.00  0.00     0.311 C 
BRANCH   7   8
HETATM    8  C   UNK A   0      11.625   3.695  91.453  1.00  0.00    -0.030 A 
HETATM    9  C   UNK A   0      11.012   4.413  92.480  1.00  0.00     0.010 A 
HETATM   10  C   UNK A   0      10.178   5.489  92.178  1.00  0.00     0.021 A 
HETATM   11  C   UNK A   0       9.959   5.849  90.849  1.00  0.00     0.018 A 
HETATM   12  C   UNK A   0      10.571   5.133  89.822  1.00  0.00     0.021 A 
HETATM   13  C   UNK A   0      11.404   4.056  90.123  1.00  0.00     0.010 A 
BRANCH  11  14
HETATM   14  C   UNK A   0       9.106   6.954  90.539  1.00  0.00    -0.061 C 
HETATM   15  C   UNK A   0       8.388   7.883  90.279  1.00  0.00    -0.061 C 
BRANCH  15  16
HETATM   16  C   UNK A   0       7.535   8.988  89.970  1.00  0.00     0.018 A 
HETATM   17  C   UNK A   0       8.087  10.199  89.553  1.00  0.00     0.022 A 
HETATM   18  C   UNK A   0       7.255  11.276  89.249  1.00  0.00     0.018 A 
HETATM   19  C   UNK A   0       5.890  11.118  89.369  1.00  0.00     0.032 A 
HETATM   20  C   UNK A   0       5.319   9.932  89.779  1.00  0.00     0.018 A 
HETATM   21  C   UNK A   0       6.151   8.854  90.084  1.00  0.00     0.022 A 
BRANCH  19  22
HETATM   22  C   UNK A   0       5.003  12.267  89.047  1.00  0.00     0.252 C 
HETATM   23  O   UNK A   0       4.759  12.525  87.871  1.00  0.00    -0.268 OA
ENDBRANCH  19  22
ENDBRANCH  15  16
ENDBRANCH  11  14
ENDBRANCH   7   8
ENDBRANCH   2   7
TORSDOF 9
ENDMDL
MODEL 6
REMARK VINA RESULT:      -6.6      3.946     10.410
REMARK  9 active torsions:
REMARK  status: ('A' for Active; 'I' for Inactive)
REMARK    1  A    between atoms: N_3  and  C_6 
REMARK    2  A    between atoms: C_6  and  C_9 
REMARK    3  A    between atoms: C_14  and  C_17 
REMARK       I    between atoms: N_26  and  C_15 
REMARK    4  A    between atoms: C_15  and  C_16 
REMARK    5  A    between atoms: C_20  and  C_23 
REMARK    6  A    between atoms: OG1_24  and  CB_28 
REMARK    7  A    between atoms: N_26  and  CA_27 
REMARK    8  A    between atoms: CA_27  and  CB_28 
REMARK    9  A    between atoms: CA_27  and  C_30 
ROOT
HETATM    1  O   UNK A   0      14.548   3.340  92.119  1.00  0.00    -0.388 OA
HETATM    2  N   UNK A   0      11.832   4.177  92.262  1.00  0.00     0.096 N 
HETATM    3  C   UNK A   0      12.432   3.335  93.306  1.00  0.00     0.299 C 
HETATM    4  C   UNK A   0      12.493   3.929  90.973  1.00  0.00     0.299 C 
HETATM    5  C   UNK A   0      13.934   3.598  93.383  1.00  0.00     0.198 C 
HETATM    6  C   UNK A   0      13.992   4.177  91.104  1.00  0.00     0.198 C 
ENDROOT
BRANCH   2   7
HETATM    7  C   UNK A   0      10.394   3.934  92.164  1.00  0.00     0.311 C 
BRANCH   7   8
HETATM    8  C   UNK A   0       9.625   5.179  91.877  1.00  0.00    -0.030 A 
HETATM    9  C   UNK A   0       9.810   6.311  92.672  1.00  0.00     0.010 A 
HETATM   10  C   UNK A   0       9.090   7.475  92.406  1.00  0.00     0.021 A 
HETATM   11  C   UNK A   0       8.187   7.508  91.344  1.00  0.00     0.018 A 
HETATM   12  C   UNK A   0       8.002   6.378  90.549  1.00  0.00     0.021 A 
HETATM   13  C   UNK A   0       8.721   5.213  90.815  1.00  0.00     0.010 A 
BRANCH  11  14
HETATM   14  C   UNK A   0       7.451   8.703  91.069  1.00  0.00    -0.061 C 
HETATM   15  C   UNK A   0       6.832   9.708  90.838  1.00  0.00    -0.061 C 
BRANCH  15  16
HETATM   16  C   UNK A   0       6.095  10.902  90.563  1.00  0.00     0.018 A 
HETATM   17  C   UNK A   0       5.236  11.428  91.529  1.00  0.00     0.022 A 
HETATM   18  C   UNK A   0       4.520  12.595  91.261  1.00  0.00     0.018 A 
HETATM   19  C   UNK A   0       4.678  13.208  90.036  1.00  0.00     0.032 A 
HETATM   20  C   UNK A   0       5.520  12.708  89.065  1.00  0.00     0.018 A 
HETATM   21  C   UNK A   0       6.237  11.541  89.332  1.00  0.00     0.022 A 
BRANCH  19  22
HETATM   22  C   UNK A   0       3.913  14.450  89.751  1.00  0.00     0.252 C 
HETATM   23  O   UNK A   0       4.498  15.530  89.762  1.00  0.00    -0.268 OA
ENDBRANCH  19  22
ENDBRANCH  15  16
ENDBRANCH  11  14
ENDBRANCH   7   8
ENDBRANCH   2   7
TORSDOF 9
ENDMDL
MODEL 7
REMARK VINA RESULT:      -6.4      4.808     10.227
REMARK  9 active torsions:
REMARK  status: ('A' for Active; 'I' for Inactive)
REMARK    1  A    between atoms: N_3  and  C_6 
REMARK    2  A    between atoms: C_6  and  C_9 
REMARK    3  A    between atoms: C_14  and  C_17 
REMARK       I    between atoms: N_26  and  C_15 
REMARK    4  A    between atoms: C_15  and  C_16 
REMARK    5  A    between atoms: C_20  and  C_23 
REMARK    6  A    between atoms: OG1_24  and  CB_28 
REMARK    7  A    between atoms: N_26  and  CA_27 
REMARK    8  A    between atoms: CA_27  and  CB_28 
REMARK    9  A    between atoms: CA_27  and  C_30 
ROOT
HETATM    1  O   UNK A   0      11.280   3.967  88.789  1.00  0.00    -0.388 OA
HETATM    2  N   UNK A   0       9.356   5.748  87.682  1.00  0.00     0.096 N 
HETATM    3  C   UNK A   0      10.090   4.792  86.842  1.00  0.00     0.299 C 
HETATM    4  C   UNK A   0      10.169   6.122  88.848  1.00  0.00     0.299 C 
HETATM    5  C   UNK A   0      10.485   3.572  87.670  1.00  0.00     0.198 C 
HETATM    6  C   UNK A   0      10.562   4.872  89.628  1.00  0.00     0.198 C 
ENDROOT
BRANCH   2   7
HETATM    7  C   UNK A   0       8.977   6.931  86.912  1.00  0.00     0.311 C 
BRANCH   7   8
HETATM    8  C   UNK A   0       8.213   7.919  87.726  1.00  0.00    -0.030 A 
HETATM    9  C   UNK A   0       6.879   7.672  88.050  1.00  0.00     0.010 A 
HETATM   10  C   UNK A   0       6.163   8.596  88.810  1.00  0.00     0.021 A 
HETATM   11  C   UNK A   0       6.782   9.767  89.247  1.00  0.00     0.018 A 
HETATM   12  C   UNK A   0       8.115  10.014  88.924  1.00  0.00     0.021 A 
HETATM   13  C   UNK A   0       8.831   9.090  88.164  1.00  0.00     0.010 A 
BRANCH  11  14
HETATM   14  C   UNK A   0       6.048  10.714  90.028  1.00  0.00    -0.061 C 
HETATM   15  C   UNK A   0       5.431  11.510  90.685  1.00  0.00    -0.061 C 
BRANCH  15  16
HETATM   16  C   UNK A   0       4.697  12.457  91.466  1.00  0.00     0.018 A 
HETATM   17  C   UNK A   0       4.249  13.642  90.883  1.00  0.00     0.022 A 
HETATM   18  C   UNK A   0       3.530  14.564  91.644  1.00  0.00     0.018 A 
HETATM   19  C   UNK A   0       3.276  14.280  92.969  1.00  0.00     0.032 A 
HETATM   20  C   UNK A   0       3.708  13.115  93.569  1.00  0.00     0.018 A 
HETATM   21  C   UNK A   0       4.427  12.193  92.808  1.00  0.00     0.022 A 
BRANCH  19  22
HETATM   22  C   UNK A   0       2.512  15.263  93.781  1.00  0.00     0.252 C 
HETATM   23  O   UNK A   0       1.402  15.623  93.397  1.00  0.00    -0.268 OA
ENDBRANCH  19  22
ENDBRANCH  15  16
ENDBRANCH  11  14
ENDBRANCH   7   8
ENDBRANCH   2   7
TORSDOF 9
ENDMDL
MODEL 8
REMARK VINA RESULT:      -6.3      1.577      2.154
REMARK  9 active torsions:
REMARK  status: ('A' for Active; 'I' for Inactive)
REMARK    1  A    between atoms: N_3  and  C_6 
REMARK    2  A    between atoms: C_6  and  C_9 
REMARK    3  A    between atoms: C_14  and  C_17 
REMARK       I    between atoms: N_26  and  C_15 
REMARK    4  A    between atoms: C_15  and  C_16 
REMARK    5  A    between atoms: C_20  and  C_23 
REMARK    6  A    between atoms: OG1_24  and  CB_28 
REMARK    7  A    between atoms: N_26  and  CA_27 
REMARK    8  A    between atoms: CA_27  and  CB_28 
REMARK    9  A    between atoms: CA_27  and  C_30 
ROOT
HETATM    1  O   UNK A   0       4.187   6.846  86.639  1.00  0.00    -0.388 OA
HETATM    2  N   UNK A   0       4.700   8.582  88.836  1.00  0.00     0.096 N 
HETATM    3  C   UNK A   0       5.789   8.066  87.994  1.00  0.00     0.299 C 
HETATM    4  C   UNK A   0       3.583   7.628  88.855  1.00  0.00     0.299 C 
HETATM    5  C   UNK A   0       5.265   7.782  86.588  1.00  0.00     0.198 C 
HETATM    6  C   UNK A   0       3.112   7.354  87.430  1.00  0.00     0.198 C 
ENDROOT
BRANCH   2   7
HETATM    7  C   UNK A   0       5.177   8.850  90.191  1.00  0.00     0.311 C 
BRANCH   7   8
HETATM    8  C   UNK A   0       6.397   8.063  90.531  1.00  0.00    -0.030 A 
HETATM    9  C   UNK A   0       7.656   8.660  90.450  1.00  0.00     0.010 A 
HETATM   10  C   UNK A   0       8.797   7.924  90.765  1.00  0.00     0.021 A 
HETATM   11  C   UNK A   0       8.680   6.593  91.163  1.00  0.00     0.018 A 
HETATM   12  C   UNK A   0       7.423   5.996  91.245  1.00  0.00     0.021 A 
HETATM   13  C   UNK A   0       6.281   6.731  90.929  1.00  0.00     0.010 A 
BRANCH  11  14
HETATM   14  C   UNK A   0       9.851   5.838  91.489  1.00  0.00    -0.061 C 
HETATM   15  C   UNK A   0      10.836   5.204  91.762  1.00  0.00    -0.061 C 
BRANCH  15  16
HETATM   16  C   UNK A   0      12.007   4.451  92.086  1.00  0.00     0.018 A 
HETATM   17  C   UNK A   0      12.136   3.875  93.351  1.00  0.00     0.022 A 
HETATM   18  C   UNK A   0      13.278   3.138  93.666  1.00  0.00     0.018 A 
HETATM   19  C   UNK A   0      14.262   2.993  92.712  1.00  0.00     0.032 A 
HETATM   20  C   UNK A   0      14.158   3.552  91.455  1.00  0.00     0.018 A 
HETATM   21  C   UNK A   0      13.017   4.290  91.139  1.00  0.00     0.022 A 
BRANCH  19  22
HETATM   22  C   UNK A   0      15.479   2.209  93.049  1.00  0.00     0.252 C 
HETATM   23  O   UNK A   0      16.424   2.774  93.593  1.00  0.00    -0.268 OA
ENDBRANCH  19  22
ENDBRANCH  15  16
ENDBRANCH  11  14
ENDBRANCH   7   8
ENDBRANCH   2   7
TORSDOF 9
ENDMDL
MODEL 9
REMARK VINA RESULT:      -6.3      2.411      3.159
REMARK  9 active torsions:
REMARK  status: ('A' for Active; 'I' for Inactive)
REMARK    1  A    between atoms: N_3  and  C_6 
REMARK    2  A    between atoms: C_6  and  C_9 
REMARK    3  A    between atoms: C_14  and  C_17 
REMARK       I    between atoms: N_26  and  C_15 
REMARK    4  A    between atoms: C_15  and  C_16 
REMARK    5  A    between atoms: C_20  and  C_23 
REMARK    6  A    between atoms: OG1_24  and  CB_28 
REMARK    7  A    between atoms: N_26  and  CA_27 
REMARK    8  A    between atoms: CA_27  and  CB_28 
REMARK    9  A    between atoms: CA_27  and  C_30 
ROOT
HETATM    1  O   UNK A   0       3.932  13.261  89.703  1.00  0.00    -0.388 OA
HETATM    2  N   UNK A   0       4.842  10.579  89.418  1.00  0.00     0.096 N 
HETATM    3  C   UNK A   0       4.186  11.289  88.311  1.00  0.00     0.299 C 
HETATM    4  C   UNK A   0       4.353  11.093  90.705  1.00  0.00     0.299 C 
HETATM    5  C   UNK A   0       4.425  12.791  88.447  1.00  0.00     0.198 C 
HETATM    6  C   UNK A   0       4.587  12.598  90.785  1.00  0.00     0.198 C 
ENDROOT
BRANCH   2   7
HETATM    7  C   UNK A   0       4.617   9.139  89.314  1.00  0.00     0.311 C 
BRANCH   7   8
HETATM    8  C   UNK A   0       5.807   8.346  89.737  1.00  0.00    -0.030 A 
HETATM    9  C   UNK A   0       5.815   7.713  90.981  1.00  0.00     0.010 A 
HETATM   10  C   UNK A   0       6.928   6.973  91.379  1.00  0.00     0.021 A 
HETATM   11  C   UNK A   0       8.031   6.865  90.533  1.00  0.00     0.018 A 
HETATM   12  C   UNK A   0       8.024   7.497  89.291  1.00  0.00     0.021 A 
HETATM   13  C   UNK A   0       6.912   8.237  88.893  1.00  0.00     0.010 A 
BRANCH  11  14
HETATM   14  C   UNK A   0       9.172   6.104  90.941  1.00  0.00    -0.061 C 
HETATM   15  C   UNK A   0      10.131   5.465  91.284  1.00  0.00    -0.061 C 
BRANCH  15  16
HETATM   16  C   UNK A   0      11.271   4.705  91.693  1.00  0.00     0.018 A 
HETATM   17  C   UNK A   0      12.221   4.312  90.749  1.00  0.00     0.022 A 
HETATM   18  C   UNK A   0      13.334   3.573  91.149  1.00  0.00     0.018 A 
HETATM   19  C   UNK A   0      13.473   3.244  92.481  1.00  0.00     0.032 A 
HETATM   20  C   UNK A   0      12.548   3.620  93.432  1.00  0.00     0.018 A 
HETATM   21  C   UNK A   0      11.435   4.359  93.034  1.00  0.00     0.022 A 
BRANCH  19  22
HETATM   22  C   UNK A   0      14.658   2.454  92.905  1.00  0.00     0.252 C 
HETATM   23  O   UNK A   0      15.658   3.043  93.310  1.00  0.00    -0.268 OA
ENDBRANCH  19  22
ENDBRANCH  15  16
ENDBRANCH  11  14
ENDBRANCH   7   8
ENDBRANCH   2   7
TORSDOF 9
ENDMDL
