MODEL 1
REMARK VINA RESULT:      -6.2      0.000      0.000
REMARK  12 active torsions:
REMARK  status: ('A' for Active; 'I' for Inactive)
REMARK    1  A    between atoms: O_2  and  C_16 
REMARK    2  A    between atoms: N_5  and  C_9 
REMARK    3  A    between atoms: N_6  and  C_13 
REMARK       I    between atoms: N_6  and  C_22 
REMARK    4  A    between atoms: C_9  and  C_12 
REMARK    5  A    between atoms: C_13  and  C_16 
REMARK    6  A    between atoms: C_13  and  C_21 
REMARK    7  A    between atoms: C_19  and  C_24 
REMARK    8  A    between atoms: C_21  and  C_33 
REMARK    9  A    between atoms: C_22  and  C_23 
REMARK   10  A    between atoms: C_27  and  C_30 
REMARK   11  A    between atoms: C_33  and  C_34 
REMARK   12  A    between atoms: C_34  and  C_35 
ROOT
HETATM    1  O   UNL     1      16.801   3.766  93.802  1.00  0.00    -0.350 OA
HETATM    2  N   UNL     1      14.214   3.038  92.865  1.00  0.00     0.147 N 
HETATM    3  C   UNL     1      15.280   2.040  93.030  1.00  0.00     0.283 C 
HETATM    4  C   UNL     1      14.798   4.353  92.567  1.00  0.00     0.283 C 
HETATM    5  C   UNL     1      16.245   2.489  94.124  1.00  0.00     0.178 C 
HETATM    6  C   UNL     1      15.774   4.748  93.671  1.00  0.00     0.178 C 
ENDROOT
BRANCH   2   7
HETATM    7  C   UNL     1      13.283   2.632  91.813  1.00  0.00     0.277 C 
BRANCH   7   8
HETATM    8  C   UNL     1      12.103   3.538  91.719  1.00  0.00     0.011 A 
HETATM    9  C   UNL     1      11.672   3.994  90.473  1.00  0.00    -0.002 A 
HETATM   10  C   UNL     1      10.569   4.842  90.384  1.00  0.00     0.008 A 
HETATM   11  C   UNL     1       9.896   5.233  91.541  1.00  0.00     0.042 A 
HETATM   12  C   UNL     1      10.325   4.778  92.786  1.00  0.00     0.008 A 
HETATM   13  C   UNL     1      11.429   3.930  92.876  1.00  0.00    -0.002 A 
BRANCH  11  14
HETATM   14  C   UNL     1       8.764   6.102  91.449  1.00  0.00    -0.059 C 
HETATM   15  C   UNL     1       7.811   6.832  91.373  1.00  0.00    -0.059 C 
BRANCH  15  16
HETATM   16  C   UNL     1       6.679   7.701  91.282  1.00  0.00     0.042 A 
HETATM   17  C   UNL     1       6.300   8.225  90.046  1.00  0.00     0.008 A 
HETATM   18  C   UNL     1       5.194   9.070  89.957  1.00  0.00     0.005 A 
HETATM   19  C   UNL     1       4.492   9.371  91.105  1.00  0.00     0.056 A 
HETATM   20  C   UNL     1       4.846   8.866  92.339  1.00  0.00     0.005 A 
HETATM   21  C   UNL     1       5.952   8.021  92.428  1.00  0.00     0.008 A 
BRANCH  19  22
HETATM   22  C   UNL     1       3.315  10.273  91.010  1.00  0.00     0.254 C 
HETATM   23  O   UNL     1       2.251   9.829  90.585  1.00  0.00    -0.268 OA
HETATM   24  N   UNL     1       3.511  11.576  91.445  1.00  0.00    -0.335 N 
HETATM   25  HN  UNL     1       4.412  11.866  91.808  1.00  0.00     0.164 HD
BRANCH  24  26
HETATM   26  C   UNL     1       2.461  12.562  91.439  1.00  0.00     0.166 C 
BRANCH  26  27
HETATM   27  C   UNL     1       2.169  13.128  92.835  1.00  0.00     0.138 C 
HETATM   28  C   UNL     1       3.421  13.667  93.519  1.00  0.00     0.034 C 
BRANCH  27  29
HETATM   29  O   UNL     1       1.209  14.179  92.733  1.00  0.00    -0.383 OA
HETATM   30  H   UNL     1       1.082  14.563  93.617  1.00  0.00     0.210 HD
ENDBRANCH  27  29
ENDBRANCH  26  27
BRANCH  26  31
HETATM   31  C   UNL     1       2.863  13.666  90.466  1.00  0.00     0.181 C 
HETATM   32  O   UNL     1       2.274  14.743  90.394  1.00  0.00    -0.294 OA
BRANCH  31  33
HETATM   33  C   UNL     1       4.441  14.021  90.577  1.00  0.00     0.138 C 
BRANCH  33  34
HETATM   34  C   UNL     1       4.759  14.280  89.226  1.00  0.00     0.208 C 
HETATM   35  O   UNL     1       4.950  15.438  88.936  1.00  0.00    -0.289 OA
BRANCH  34  36
HETATM   36  C   UNL     1       5.171  13.433  88.233  1.00  0.00     0.194 C 
HETATM   37  O   UNL     1       4.808  12.109  87.965  1.00  0.00    -0.185 OA
ENDBRANCH  34  36
ENDBRANCH  33  34
ENDBRANCH  31  33
ENDBRANCH  26  31
ENDBRANCH  24  26
ENDBRANCH  19  22
ENDBRANCH  15  16
ENDBRANCH  11  14
ENDBRANCH   7   8
ENDBRANCH   2   7
TORSDOF 12
ENDMDL
MODEL 2
REMARK VINA RESULT:      -5.0      2.779     12.523
REMARK  12 active torsions:
REMARK  status: ('A' for Active; 'I' for Inactive)
REMARK    1  A    between atoms: O_2  and  C_16 
REMARK    2  A    between atoms: N_5  and  C_9 
REMARK    3  A    between atoms: N_6  and  C_13 
REMARK       I    between atoms: N_6  and  C_22 
REMARK    4  A    between atoms: C_9  and  C_12 
REMARK    5  A    between atoms: C_13  and  C_16 
REMARK    6  A    between atoms: C_13  and  C_21 
REMARK    7  A    between atoms: C_19  and  C_24 
REMARK    8  A    between atoms: C_21  and  C_33 
REMARK    9  A    between atoms: C_22  and  C_23 
REMARK   10  A    between atoms: C_27  and  C_30 
REMARK   11  A    between atoms: C_33  and  C_34 
REMARK   12  A    between atoms: C_34  and  C_35 
ROOT
HETATM    1  O   UNL     1       3.357  14.715  93.842  1.00  0.00    -0.350 OA
HETATM    2  N   UNL     1       3.207  14.940  91.009  1.00  0.00     0.147 N 
HETATM    3  C   UNL     1       2.297  14.063  91.759  1.00  0.00     0.283 C 
HETATM    4  C   UNL     1       4.484  15.070  91.723  1.00  0.00     0.283 C 
HETATM    5  C   UNL     1       2.100  14.608  93.171  1.00  0.00     0.178 C 
HETATM    6  C   UNL     1       4.237  15.591  93.136  1.00  0.00     0.178 C 
ENDROOT
BRANCH   2   7
HETATM    7  C   UNL     1       3.418  14.430  89.655  1.00  0.00     0.277 C 
BRANCH   7   8
HETATM    8  C   UNL     1       4.332  13.253  89.628  1.00  0.00     0.011 A 
HETATM    9  C   UNL     1       3.991  12.090  90.318  1.00  0.00    -0.002 A 
HETATM   10  C   UNL     1       4.846  10.988  90.295  1.00  0.00     0.008 A 
HETATM   11  C   UNL     1       6.042  11.051  89.580  1.00  0.00     0.042 A 
HETATM   12  C   UNL     1       6.384  12.212  88.890  1.00  0.00     0.008 A 
HETATM   13  C   UNL     1       5.529  13.313  88.913  1.00  0.00    -0.002 A 
BRANCH  11  14
HETATM   14  C   UNL     1       6.918   9.920  89.554  1.00  0.00    -0.059 C 
HETATM   15  C   UNL     1       7.654   8.970  89.533  1.00  0.00    -0.059 C 
BRANCH  15  16
HETATM   16  C   UNL     1       8.530   7.839  89.508  1.00  0.00     0.042 A 
HETATM   17  C   UNL     1       9.133   7.453  88.311  1.00  0.00     0.008 A 
HETATM   18  C   UNL     1       9.989   6.352  88.286  1.00  0.00     0.005 A 
HETATM   19  C   UNL     1      10.223   5.663  89.458  1.00  0.00     0.056 A 
HETATM   20  C   UNL     1       9.638   6.025  90.654  1.00  0.00     0.005 A 
HETATM   21  C   UNL     1       8.782   7.126  90.679  1.00  0.00     0.008 A 
BRANCH  19  22
HETATM   22  C   UNL     1      11.133   4.489  89.431  1.00  0.00     0.254 C 
HETATM   23  O   UNL     1      11.204   3.809  88.411  1.00  0.00    -0.268 OA
HETATM   24  N   UNL     1      11.869   4.264  90.586  1.00  0.00    -0.335 N 
HETATM   25  HN  UNL     1      11.776   4.884  91.383  1.00  0.00     0.164 HD
BRANCH  24  26
HETATM   26  C   UNL     1      12.812   3.181  90.706  1.00  0.00     0.166 C 
BRANCH  26  27
HETATM   27  C   UNL     1      14.265   3.665  90.780  1.00  0.00     0.138 C 
HETATM   28  C   UNL     1      15.082   3.249  89.561  1.00  0.00     0.034 C 
BRANCH  27  29
HETATM   29  O   UNL     1      14.290   5.087  90.891  1.00  0.00    -0.383 OA
HETATM   30  H   UNL     1      13.622   5.354  91.546  1.00  0.00     0.210 HD
ENDBRANCH  27  29
ENDBRANCH  26  27
BRANCH  26  31
HETATM   31  C   UNL     1      12.434   2.369  91.941  1.00  0.00     0.181 C 
HETATM   32  O   UNL     1      12.120   1.181  91.892  1.00  0.00    -0.294 OA
BRANCH  31  33
HETATM   33  C   UNL     1      13.552   2.493  93.109  1.00  0.00     0.138 C 
BRANCH  33  34
HETATM   34  C   UNL     1      13.079   3.617  93.822  1.00  0.00     0.208 C 
HETATM   35  O   UNL     1      13.876   4.510  93.997  1.00  0.00    -0.289 OA
BRANCH  34  36
HETATM   36  C   UNL     1      11.801   4.011  94.110  1.00  0.00     0.194 C 
HETATM   37  O   UNL     1      11.031   5.047  93.569  1.00  0.00    -0.185 OA
ENDBRANCH  34  36
ENDBRANCH  33  34
ENDBRANCH  31  33
ENDBRANCH  26  31
ENDBRANCH  24  26
ENDBRANCH  19  22
ENDBRANCH  15  16
ENDBRANCH  11  14
ENDBRANCH   7   8
ENDBRANCH   2   7
TORSDOF 12
ENDMDL
MODEL 3
REMARK VINA RESULT:      -3.8      1.956      3.019
REMARK  12 active torsions:
REMARK  status: ('A' for Active; 'I' for Inactive)
REMARK    1  A    between atoms: O_2  and  C_16 
REMARK    2  A    between atoms: N_5  and  C_9 
REMARK    3  A    between atoms: N_6  and  C_13 
REMARK       I    between atoms: N_6  and  C_22 
REMARK    4  A    between atoms: C_9  and  C_12 
REMARK    5  A    between atoms: C_13  and  C_16 
REMARK    6  A    between atoms: C_13  and  C_21 
REMARK    7  A    between atoms: C_19  and  C_24 
REMARK    8  A    between atoms: C_21  and  C_33 
REMARK    9  A    between atoms: C_22  and  C_23 
REMARK   10  A    between atoms: C_27  and  C_30 
REMARK   11  A    between atoms: C_33  and  C_34 
REMARK   12  A    between atoms: C_34  and  C_35 
ROOT
HETATM    1  O   UNL     1      17.347   4.159  93.111  1.00  0.00    -0.350 OA
HETATM    2  N   UNL     1      15.044   2.553  93.577  1.00  0.00     0.147 N 
HETATM    3  C   UNL     1      16.037   2.193  92.555  1.00  0.00     0.283 C 
HETATM    4  C   UNL     1      15.014   4.011  93.758  1.00  0.00     0.283 C 
HETATM    5  C   UNL     1      17.406   2.741  92.950  1.00  0.00     0.178 C 
HETATM    6  C   UNL     1      16.406   4.516  94.124  1.00  0.00     0.178 C 
ENDROOT
BRANCH   2   7
HETATM    7  C   UNL     1      13.721   2.047  93.214  1.00  0.00     0.277 C 
BRANCH   7   8
HETATM    8  C   UNL     1      12.733   3.142  93.001  1.00  0.00     0.011 A 
HETATM    9  C   UNL     1      12.442   3.577  91.708  1.00  0.00    -0.002 A 
HETATM   10  C   UNL     1      11.519   4.603  91.508  1.00  0.00     0.008 A 
HETATM   11  C   UNL     1      10.885   5.192  92.602  1.00  0.00     0.042 A 
HETATM   12  C   UNL     1      11.175   4.759  93.894  1.00  0.00     0.008 A 
HETATM   13  C   UNL     1      12.099   3.733  94.094  1.00  0.00    -0.002 A 
BRANCH  11  14
HETATM   14  C   UNL     1       9.937   6.244  92.397  1.00  0.00    -0.059 C 
HETATM   15  C   UNL     1       9.140   7.127  92.224  1.00  0.00    -0.059 C 
BRANCH  15  16
HETATM   16  C   UNL     1       8.192   8.178  92.018  1.00  0.00     0.042 A 
HETATM   17  C   UNL     1       6.826   7.914  92.125  1.00  0.00     0.008 A 
HETATM   18  C   UNL     1       5.902   8.940  91.927  1.00  0.00     0.005 A 
HETATM   19  C   UNL     1       6.363  10.204  91.627  1.00  0.00     0.056 A 
HETATM   20  C   UNL     1       7.708  10.490  91.515  1.00  0.00     0.005 A 
HETATM   21  C   UNL     1       8.633   9.465  91.712  1.00  0.00     0.008 A 
BRANCH  19  22
HETATM   22  C   UNL     1       5.378  11.296  91.414  1.00  0.00     0.254 C 
HETATM   23  O   UNL     1       4.818  11.797  92.386  1.00  0.00    -0.268 OA
HETATM   24  N   UNL     1       5.182  11.689  90.097  1.00  0.00    -0.335 N 
HETATM   25  HN  UNL     1       5.699  11.246  89.347  1.00  0.00     0.164 HD
BRANCH  24  26
HETATM   26  C   UNL     1       4.278  12.750  89.732  1.00  0.00     0.166 C 
BRANCH  26  27
HETATM   27  C   UNL     1       4.945  13.828  88.869  1.00  0.00     0.138 C 
HETATM   28  C   UNL     1       5.321  15.069  89.671  1.00  0.00     0.034 C 
BRANCH  27  29
HETATM   29  O   UNL     1       6.123  13.294  88.264  1.00  0.00    -0.383 OA
HETATM   30  H   UNL     1       5.869  12.517  87.737  1.00  0.00     0.210 HD
ENDBRANCH  27  29
ENDBRANCH  26  27
BRANCH  26  31
HETATM   31  C   UNL     1       3.089  12.121  89.012  1.00  0.00     0.181 C 
HETATM   32  O   UNL     1       3.084  11.888  87.805  1.00  0.00    -0.294 OA
BRANCH  31  33
HETATM   33  C   UNL     1       2.597  10.758  89.738  1.00  0.00     0.138 C 
BRANCH  33  34
HETATM   34  C   UNL     1       2.823   9.808  88.717  1.00  0.00     0.208 C 
HETATM   35  O   UNL     1       1.835   9.329  88.208  1.00  0.00    -0.289 OA
BRANCH  34  36
HETATM   36  C   UNL     1       3.951   9.533  87.995  1.00  0.00     0.194 C 
HETATM   37  O   UNL     1       5.150   8.925  88.386  1.00  0.00    -0.185 OA
ENDBRANCH  34  36
ENDBRANCH  33  34
ENDBRANCH  31  33
ENDBRANCH  26  31
ENDBRANCH  24  26
ENDBRANCH  19  22
ENDBRANCH  15  16
ENDBRANCH  11  14
ENDBRANCH   7   8
ENDBRANCH   2   7
TORSDOF 12
ENDMDL
MODEL 4
REMARK VINA RESULT:      -3.6      1.673      2.968
REMARK  12 active torsions:
REMARK  status: ('A' for Active; 'I' for Inactive)
REMARK    1  A    between atoms: O_2  and  C_16 
REMARK    2  A    between atoms: N_5  and  C_9 
REMARK    3  A    between atoms: N_6  and  C_13 
REMARK       I    between atoms: N_6  and  C_22 
REMARK    4  A    between atoms: C_9  and  C_12 
REMARK    5  A    between atoms: C_13  and  C_16 
REMARK    6  A    between atoms: C_13  and  C_21 
REMARK    7  A    between atoms: C_19  and  C_24 
REMARK    8  A    between atoms: C_21  and  C_33 
REMARK    9  A    between atoms: C_22  and  C_23 
REMARK   10  A    between atoms: C_27  and  C_30 
REMARK   11  A    between atoms: C_33  and  C_34 
REMARK   12  A    between atoms: C_34  and  C_35 
ROOT
HETATM    1  O   UNL     1      17.044   3.934  93.004  1.00  0.00    -0.350 OA
HETATM    2  N   UNL     1      14.810   2.170  93.014  1.00  0.00     0.147 N 
HETATM    3  C   UNL     1      15.748   2.215  91.884  1.00  0.00     0.283 C 
HETATM    4  C   UNL     1      14.758   3.480  93.678  1.00  0.00     0.283 C 
HETATM    5  C   UNL     1      17.126   2.655  92.372  1.00  0.00     0.178 C 
HETATM    6  C   UNL     1      16.158   3.891  94.123  1.00  0.00     0.178 C 
ENDROOT
BRANCH   2   7
HETATM    7  C   UNL     1      13.480   1.760  92.568  1.00  0.00     0.277 C 
BRANCH   7   8
HETATM    8  C   UNL     1      12.537   2.909  92.464  1.00  0.00     0.011 A 
HETATM    9  C   UNL     1      12.450   3.634  91.275  1.00  0.00    -0.002 A 
HETATM   10  C   UNL     1      11.569   4.711  91.177  1.00  0.00     0.008 A 
HETATM   11  C   UNL     1      10.774   5.061  92.268  1.00  0.00     0.042 A 
HETATM   12  C   UNL     1      10.860   4.338  93.456  1.00  0.00     0.008 A 
HETATM   13  C   UNL     1      11.741   3.261  93.554  1.00  0.00    -0.002 A 
BRANCH  11  14
HETATM   14  C   UNL     1       9.869   6.164  92.167  1.00  0.00    -0.059 C 
HETATM   15  C   UNL     1       9.109   7.092  92.082  1.00  0.00    -0.059 C 
BRANCH  15  16
HETATM   16  C   UNL     1       8.204   8.195  91.980  1.00  0.00     0.042 A 
HETATM   17  C   UNL     1       6.871   7.972  91.637  1.00  0.00     0.008 A 
HETATM   18  C   UNL     1       5.988   9.048  91.540  1.00  0.00     0.005 A 
HETATM   19  C   UNL     1       6.458  10.320  91.790  1.00  0.00     0.056 A 
HETATM   20  C   UNL     1       7.771  10.566  92.130  1.00  0.00     0.005 A 
HETATM   21  C   UNL     1       8.655   9.492  92.227  1.00  0.00     0.008 A 
BRANCH  19  22
HETATM   22  C   UNL     1       5.517  11.466  91.685  1.00  0.00     0.254 C 
HETATM   23  O   UNL     1       4.974  11.891  92.701  1.00  0.00    -0.268 OA
HETATM   24  N   UNL     1       5.342  11.994  90.413  1.00  0.00    -0.335 N 
HETATM   25  HN  UNL     1       5.844  11.606  89.623  1.00  0.00     0.164 HD
BRANCH  24  26
HETATM   26  C   UNL     1       4.482  13.121  90.153  1.00  0.00     0.166 C 
BRANCH  26  27
HETATM   27  C   UNL     1       4.915  13.926  88.922  1.00  0.00     0.138 C 
HETATM   28  C   UNL     1       5.141  15.400  89.238  1.00  0.00     0.034 C 
BRANCH  27  29
HETATM   29  O   UNL     1       6.120  13.376  88.391  1.00  0.00    -0.383 OA
HETATM   30  H   UNL     1       6.711  14.110  88.152  1.00  0.00     0.210 HD
ENDBRANCH  27  29
ENDBRANCH  26  27
BRANCH  26  31
HETATM   31  C   UNL     1       3.059  12.594  89.999  1.00  0.00     0.181 C 
HETATM   32  O   UNL     1       2.676  11.541  90.505  1.00  0.00    -0.294 OA
BRANCH  31  33
HETATM   33  C   UNL     1       1.956  13.714  90.398  1.00  0.00     0.138 C 
BRANCH  33  34
HETATM   34  C   UNL     1       2.009  13.659  91.809  1.00  0.00     0.208 C 
HETATM   35  O   UNL     1       1.788  12.580  92.308  1.00  0.00    -0.289 OA
BRANCH  34  36
HETATM   36  C   UNL     1       2.544  14.537  92.711  1.00  0.00     0.194 C 
HETATM   37  O   UNL     1       3.498  15.545  92.536  1.00  0.00    -0.185 OA
ENDBRANCH  34  36
ENDBRANCH  33  34
ENDBRANCH  31  33
ENDBRANCH  26  31
ENDBRANCH  24  26
ENDBRANCH  19  22
ENDBRANCH  15  16
ENDBRANCH  11  14
ENDBRANCH   7   8
ENDBRANCH   2   7
TORSDOF 12
ENDMDL
MODEL 5
REMARK VINA RESULT:      -3.3      2.453     12.776
REMARK  12 active torsions:
REMARK  status: ('A' for Active; 'I' for Inactive)
REMARK    1  A    between atoms: O_2  and  C_16 
REMARK    2  A    between atoms: N_5  and  C_9 
REMARK    3  A    between atoms: N_6  and  C_13 
REMARK       I    between atoms: N_6  and  C_22 
REMARK    4  A    between atoms: C_9  and  C_12 
REMARK    5  A    between atoms: C_13  and  C_16 
REMARK    6  A    between atoms: C_13  and  C_21 
REMARK    7  A    between atoms: C_19  and  C_24 
REMARK    8  A    between atoms: C_21  and  C_33 
REMARK    9  A    between atoms: C_22  and  C_23 
REMARK   10  A    between atoms: C_27  and  C_30 
REMARK   11  A    between atoms: C_33  and  C_34 
REMARK   12  A    between atoms: C_34  and  C_35 
ROOT
HETATM    1  O   UNL     1       1.995  15.615  93.377  1.00  0.00    -0.350 OA
HETATM    2  N   UNL     1       2.772  13.316  91.889  1.00  0.00     0.147 N 
HETATM    3  C   UNL     1       3.555  14.559  91.847  1.00  0.00     0.283 C 
HETATM    4  C   UNL     1       1.358  13.621  92.151  1.00  0.00     0.283 C 
HETATM    5  C   UNL     1       3.376  15.326  93.155  1.00  0.00     0.178 C 
HETATM    6  C   UNL     1       1.231  14.410  93.449  1.00  0.00     0.178 C 
ENDROOT
BRANCH   2   7
HETATM    7  C   UNL     1       2.920  12.569  90.641  1.00  0.00     0.277 C 
BRANCH   7   8
HETATM    8  C   UNL     1       4.066  11.616  90.682  1.00  0.00     0.011 A 
HETATM    9  C   UNL     1       5.176  11.826  89.863  1.00  0.00    -0.002 A 
HETATM   10  C   UNL     1       6.248  10.935  89.899  1.00  0.00     0.008 A 
HETATM   11  C   UNL     1       6.210   9.835  90.756  1.00  0.00     0.042 A 
HETATM   12  C   UNL     1       5.102   9.624  91.574  1.00  0.00     0.008 A 
HETATM   13  C   UNL     1       4.029  10.515  91.538  1.00  0.00    -0.002 A 
BRANCH  11  14
HETATM   14  C   UNL     1       7.310   8.921  90.794  1.00  0.00    -0.059 C 
HETATM   15  C   UNL     1       8.235   8.154  90.827  1.00  0.00    -0.059 C 
BRANCH  15  16
HETATM   16  C   UNL     1       9.335   7.241  90.866  1.00  0.00     0.042 A 
HETATM   17  C   UNL     1       9.860   6.732  89.678  1.00  0.00     0.008 A 
HETATM   18  C   UNL     1      10.934   5.843  89.717  1.00  0.00     0.005 A 
HETATM   19  C   UNL     1      11.459   5.484  90.941  1.00  0.00     0.056 A 
HETATM   20  C   UNL     1      10.958   5.973  92.129  1.00  0.00     0.005 A 
HETATM   21  C   UNL     1       9.884   6.862  92.092  1.00  0.00     0.008 A 
BRANCH  19  22
HETATM   22  C   UNL     1      12.603   4.536  90.981  1.00  0.00     0.254 C 
HETATM   23  O   UNL     1      12.928   3.944  89.955  1.00  0.00    -0.268 OA
HETATM   24  N   UNL     1      13.245   4.410  92.205  1.00  0.00    -0.335 N 
HETATM   25  HN  UNL     1      12.936   4.950  93.005  1.00  0.00     0.164 HD
BRANCH  24  26
HETATM   26  C   UNL     1      14.384   3.549  92.398  1.00  0.00     0.166 C 
BRANCH  26  27
HETATM   27  C   UNL     1      15.415   4.137  93.370  1.00  0.00     0.138 C 
HETATM   28  C   UNL     1      16.620   3.224  93.565  1.00  0.00     0.034 C 
BRANCH  27  29
HETATM   29  O   UNL     1      15.864   5.401  92.882  1.00  0.00    -0.383 OA
HETATM   30  H   UNL     1      15.764   6.055  93.594  1.00  0.00     0.210 HD
ENDBRANCH  27  29
ENDBRANCH  26  27
BRANCH  26  31
HETATM   31  C   UNL     1      13.870   2.198  92.885  1.00  0.00     0.181 C 
HETATM   32  O   UNL     1      14.551   1.425  93.557  1.00  0.00    -0.294 OA
BRANCH  31  33
HETATM   33  C   UNL     1      12.450   2.336  93.655  1.00  0.00     0.138 C 
BRANCH  33  34
HETATM   34  C   UNL     1      11.543   2.067  92.606  1.00  0.00     0.208 C 
HETATM   35  O   UNL     1      11.924   1.291  91.759  1.00  0.00    -0.289 OA
BRANCH  34  36
HETATM   36  C   UNL     1      10.199   2.301  92.514  1.00  0.00     0.194 C 
HETATM   37  O   UNL     1       9.468   3.014  91.557  1.00  0.00    -0.185 OA
ENDBRANCH  34  36
ENDBRANCH  33  34
ENDBRANCH  31  33
ENDBRANCH  26  31
ENDBRANCH  24  26
ENDBRANCH  19  22
ENDBRANCH  15  16
ENDBRANCH  11  14
ENDBRANCH   7   8
ENDBRANCH   2   7
TORSDOF 12
ENDMDL
