MODEL 1
REMARK VINA RESULT:      -6.2      0.000      0.000
REMARK  12 active torsions:
REMARK  status: ('A' for Active; 'I' for Inactive)
REMARK    1  A    between atoms: O_2  and  C_16 
REMARK    2  A    between atoms: N_5  and  C_9 
REMARK    3  A    between atoms: N_6  and  C_13 
REMARK       I    between atoms: N_6  and  C_22 
REMARK    4  A    between atoms: C_9  and  C_12 
REMARK    5  A    between atoms: C_13  and  C_16 
REMARK    6  A    between atoms: C_13  and  C_21 
REMARK    7  A    between atoms: C_19  and  C_24 
REMARK    8  A    between atoms: C_21  and  C_33 
REMARK    9  A    between atoms: C_22  and  C_23 
REMARK   10  A    between atoms: C_27  and  C_30 
REMARK   11  A    between atoms: C_33  and  C_34 
REMARK   12  A    between atoms: C_34  and  C_35 
ROOT
HETATM    1  O   UNL     1      16.595   3.186  93.952  1.00  0.00    -0.350 OA
HETATM    2  N   UNL     1      14.096   3.126  92.590  1.00  0.00     0.147 N 
HETATM    3  C   UNL     1      14.846   1.895  92.873  1.00  0.00     0.283 C 
HETATM    4  C   UNL     1      15.022   4.258  92.449  1.00  0.00     0.283 C 
HETATM    5  C   UNL     1      15.700   2.085  94.124  1.00  0.00     0.178 C 
HETATM    6  C   UNL     1      15.872   4.393  93.708  1.00  0.00     0.178 C 
ENDROOT
BRANCH   2   7
HETATM    7  C   UNL     1      13.278   2.970  91.389  1.00  0.00     0.277 C 
BRANCH   7   8
HETATM    8  C   UNL     1      12.086   3.865  91.393  1.00  0.00     0.011 A 
HETATM    9  C   UNL     1      11.474   4.204  92.600  1.00  0.00    -0.002 A 
HETATM   10  C   UNL     1      10.357   5.040  92.605  1.00  0.00     0.008 A 
HETATM   11  C   UNL     1       9.855   5.538  91.403  1.00  0.00     0.042 A 
HETATM   12  C   UNL     1      10.465   5.200  90.197  1.00  0.00     0.008 A 
HETATM   13  C   UNL     1      11.582   4.364  90.192  1.00  0.00    -0.002 A 
BRANCH  11  14
HETATM   14  C   UNL     1       8.711   6.397  91.409  1.00  0.00    -0.059 C 
HETATM   15  C   UNL     1       7.749   7.118  91.412  1.00  0.00    -0.059 C 
BRANCH  15  16
HETATM   16  C   UNL     1       6.605   7.976  91.418  1.00  0.00     0.042 A 
HETATM   17  C   UNL     1       6.727   9.297  91.849  1.00  0.00     0.008 A 
HETATM   18  C   UNL     1       5.611  10.134  91.851  1.00  0.00     0.005 A 
HETATM   19  C   UNL     1       4.400   9.632  91.423  1.00  0.00     0.056 A 
HETATM   20  C   UNL     1       4.253   8.330  90.993  1.00  0.00     0.005 A 
HETATM   21  C   UNL     1       5.368   7.492  90.990  1.00  0.00     0.008 A 
BRANCH  19  22
HETATM   22  C   UNL     1       3.212  10.524  91.428  1.00  0.00     0.254 C 
HETATM   23  O   UNL     1       2.096  10.037  91.263  1.00  0.00    -0.268 OA
HETATM   24  N   UNL     1       3.463  11.871  91.649  1.00  0.00    -0.335 N 
HETATM   25  HN  UNL     1       4.410  12.198  91.802  1.00  0.00     0.164 HD
BRANCH  24  26
HETATM   26  C   UNL     1       2.414  12.857  91.707  1.00  0.00     0.166 C 
BRANCH  26  27
HETATM   27  C   UNL     1       2.373  13.603  93.046  1.00  0.00     0.138 C 
HETATM   28  C   UNL     1       3.756  14.049  93.508  1.00  0.00     0.034 C 
BRANCH  27  29
HETATM   29  O   UNL     1       1.531  14.749  92.928  1.00  0.00    -0.383 OA
HETATM   30  H   UNL     1       2.047  15.467  92.524  1.00  0.00     0.210 HD
ENDBRANCH  27  29
ENDBRANCH  26  27
BRANCH  26  31
HETATM   31  C   UNL     1       2.615  13.820  90.541  1.00  0.00     0.181 C 
HETATM   32  O   UNL     1       1.757  14.624  90.182  1.00  0.00    -0.294 OA
BRANCH  31  33
HETATM   33  C   UNL     1       3.992  14.662  90.687  1.00  0.00     0.138 C 
BRANCH  33  34
HETATM   34  C   UNL     1       4.637  14.344  89.471  1.00  0.00     0.208 C 
HETATM   35  O   UNL     1       5.041  15.281  88.822  1.00  0.00    -0.289 OA
BRANCH  34  36
HETATM   36  C   UNL     1       5.147  13.157  89.022  1.00  0.00     0.194 C 
HETATM   37  O   UNL     1       4.634  12.248  88.089  1.00  0.00    -0.185 OA
ENDBRANCH  34  36
ENDBRANCH  33  34
ENDBRANCH  31  33
ENDBRANCH  26  31
ENDBRANCH  24  26
ENDBRANCH  19  22
ENDBRANCH  15  16
ENDBRANCH  11  14
ENDBRANCH   7   8
ENDBRANCH   2   7
TORSDOF 12
ENDMDL
