MODEL 1
REMARK VINA RESULT:      -7.4      0.000      0.000
REMARK  9 active torsions:
REMARK  status: ('A' for Active; 'I' for Inactive)
REMARK    1  A    between atoms: O_2  and  C_17 
REMARK    2  A    between atoms: N_5  and  C_10 
REMARK    3  A    between atoms: N_6  and  C_14 
REMARK       I    between atoms: N_6  and  C_23 
REMARK       I    between atoms: N_7  and  C_22 
REMARK    4  A    between atoms: C_10  and  C_13 
REMARK    5  A    between atoms: C_14  and  C_17 
REMARK    6  A    between atoms: C_14  and  C_22 
REMARK    7  A    between atoms: C_20  and  C_25 
REMARK    8  A    between atoms: C_23  and  C_24 
REMARK    9  A    between atoms: C_28  and  C_31 
ROOT
HETATM    1  O   UNL     1      15.835   3.757  94.124  1.00  0.00    -0.388 OA
HETATM    2  N   UNL     1      14.006   2.565  92.298  1.00  0.00     0.096 N 
HETATM    3  C   UNL     1      14.100   4.024  92.449  1.00  0.00     0.299 C 
HETATM    4  C   UNL     1      14.376   1.904  93.557  1.00  0.00     0.299 C 
HETATM    5  C   UNL     1      15.509   4.408  92.895  1.00  0.00     0.198 C 
HETATM    6  C   UNL     1      15.776   2.338  93.978  1.00  0.00     0.198 C 
ENDROOT
BRANCH   2   7
HETATM    7  C   UNL     1      12.661   2.174  91.881  1.00  0.00     0.311 C 
BRANCH   7   8
HETATM    8  C   UNL     1      11.793   3.349  91.585  1.00  0.00    -0.030 A 
HETATM    9  C   UNL     1      11.048   3.940  92.607  1.00  0.00     0.010 A 
HETATM   10  C   UNL     1      10.234   5.038  92.330  1.00  0.00     0.021 A 
HETATM   11  C   UNL     1      10.168   5.547  91.033  1.00  0.00     0.018 A 
HETATM   12  C   UNL     1      10.911   4.958  90.013  1.00  0.00     0.021 A 
HETATM   13  C   UNL     1      11.725   3.859  90.288  1.00  0.00     0.010 A 
BRANCH  11  14
HETATM   14  C   UNL     1       9.335   6.675  90.751  1.00  0.00    -0.061 C 
HETATM   15  C   UNL     1       8.635   7.624  90.513  1.00  0.00    -0.061 C 
BRANCH  15  16
HETATM   16  C   UNL     1       7.803   8.752  90.230  1.00  0.00     0.018 A 
HETATM   17  C   UNL     1       8.354   9.896  89.653  1.00  0.00     0.022 A 
HETATM   18  C   UNL     1       7.542  10.995  89.375  1.00  0.00     0.018 A 
HETATM   19  C   UNL     1       6.199  10.926  89.679  1.00  0.00     0.032 A 
HETATM   20  C   UNL     1       5.630   9.806  90.250  1.00  0.00     0.018 A 
HETATM   21  C   UNL     1       6.441   8.707  90.529  1.00  0.00     0.022 A 
BRANCH  19  22
HETATM   22  C   UNL     1       5.334  12.098  89.384  1.00  0.00     0.252 C 
HETATM   23  O   UNL     1       5.254  12.508  88.229  1.00  0.00    -0.268 OA
HETATM   24  N   UNL     1       4.649  12.635  90.464  1.00  0.00    -0.342 N 
HETATM   25  H   UNL     1       4.745  12.227  91.387  1.00  0.00     0.163 HD
BRANCH  24  26
HETATM   26  C   UNL     1       3.754  13.757  90.335  1.00  0.00     0.199 C 
BRANCH  26  27
HETATM   27  C   UNL     1       2.487  13.607  91.188  1.00  0.00     0.145 C 
HETATM   28  C   UNL     1       2.639  12.552  92.278  1.00  0.00     0.042 C 
BRANCH  27  29
HETATM   29  O   UNL     1       2.170  14.859  91.795  1.00  0.00    -0.393 OA
HETATM   30  H   UNL     1       1.388  15.225  91.350  1.00  0.00     0.210 HD
ENDBRANCH  27  29
ENDBRANCH  26  27
BRANCH  26  31
HETATM   31  C   UNL     1       4.528  15.016  90.709  1.00  0.00     0.220 C 
HETATM   32  O   UNL     1       4.601  15.441  91.860  1.00  0.00    -0.278 OA
HETATM   33  N   UNL     1       5.090  15.625  89.612  1.00  0.00    -0.271 NA
HETATM   34  H   UNL     1       4.975  15.353  88.643  1.00  0.00     0.127 HD
HETATM   35  H   UNL     1       4.709  16.825  88.991  1.00  0.00     0.127 HD
ENDBRANCH  26  31
ENDBRANCH  24  26
ENDBRANCH  19  22
ENDBRANCH  15  16
ENDBRANCH  11  14
ENDBRANCH   7   8
ENDBRANCH   2   7
TORSDOF 9
ENDMDL
MODEL 2
REMARK VINA RESULT:      -6.8      1.968      2.906
REMARK  9 active torsions:
REMARK  status: ('A' for Active; 'I' for Inactive)
REMARK    1  A    between atoms: O_2  and  C_17 
REMARK    2  A    between atoms: N_5  and  C_10 
REMARK    3  A    between atoms: N_6  and  C_14 
REMARK       I    between atoms: N_6  and  C_23 
REMARK       I    between atoms: N_7  and  C_22 
REMARK    4  A    between atoms: C_10  and  C_13 
REMARK    5  A    between atoms: C_14  and  C_17 
REMARK    6  A    between atoms: C_14  and  C_22 
REMARK    7  A    between atoms: C_20  and  C_25 
REMARK    8  A    between atoms: C_23  and  C_24 
REMARK    9  A    between atoms: C_28  and  C_31 
ROOT
HETATM    1  O   UNL     1      16.661   2.984  93.689  1.00  0.00    -0.388 OA
HETATM    2  N   UNL     1      13.866   2.881  93.159  1.00  0.00     0.096 N 
HETATM    3  C   UNL     1      14.686   1.662  93.195  1.00  0.00     0.299 C 
HETATM    4  C   UNL     1      14.685   4.027  92.743  1.00  0.00     0.299 C 
HETATM    5  C   UNL     1      15.879   1.869  94.124  1.00  0.00     0.198 C 
HETATM    6  C   UNL     1      15.878   4.179  93.681  1.00  0.00     0.198 C 
ENDROOT
BRANCH   2   7
HETATM    7  C   UNL     1      12.721   2.709  92.266  1.00  0.00     0.311 C 
BRANCH   7   8
HETATM    8  C   UNL     1      11.765   3.849  92.342  1.00  0.00    -0.030 A 
HETATM    9  C   UNL     1      11.207   4.370  91.174  1.00  0.00     0.010 A 
HETATM   10  C   UNL     1      10.314   5.439  91.244  1.00  0.00     0.021 A 
HETATM   11  C   UNL     1       9.976   5.984  92.482  1.00  0.00     0.018 A 
HETATM   12  C   UNL     1      10.532   5.465  93.649  1.00  0.00     0.021 A 
HETATM   13  C   UNL     1      11.426   4.397  93.580  1.00  0.00     0.010 A 
BRANCH  11  14
HETATM   14  C   UNL     1       9.058   7.079  92.554  1.00  0.00    -0.061 C 
HETATM   15  C   UNL     1       8.286   7.999  92.615  1.00  0.00    -0.061 C 
BRANCH  15  16
HETATM   16  C   UNL     1       7.369   9.093  92.687  1.00  0.00     0.018 A 
HETATM   17  C   UNL     1       6.438   9.290  91.666  1.00  0.00     0.022 A 
HETATM   18  C   UNL     1       5.542  10.357  91.739  1.00  0.00     0.018 A 
HETATM   19  C   UNL     1       5.595  11.200  92.828  1.00  0.00     0.032 A 
HETATM   20  C   UNL     1       6.506  11.027  93.850  1.00  0.00     0.018 A 
HETATM   21  C   UNL     1       7.403   9.961  93.779  1.00  0.00     0.022 A 
BRANCH  19  22
HETATM   22  C   UNL     1       4.641  12.337  92.904  1.00  0.00     0.252 C 
HETATM   23  O   UNL     1       4.116  12.609  93.981  1.00  0.00    -0.268 OA
HETATM   24  N   UNL     1       4.432  13.035  91.722  1.00  0.00    -0.342 N 
HETATM   25  H   UNL     1       4.921  12.768  90.876  1.00  0.00     0.163 HD
BRANCH  24  26
HETATM   26  C   UNL     1       3.556  14.175  91.640  1.00  0.00     0.199 C 
BRANCH  26  27
HETATM   27  C   UNL     1       3.589  14.851  90.263  1.00  0.00     0.145 C 
HETATM   28  C   UNL     1       4.939  15.490  89.959  1.00  0.00     0.042 C 
BRANCH  27  29
HETATM   29  O   UNL     1       3.293  13.888  89.252  1.00  0.00    -0.393 OA
HETATM   30  H   UNL     1       2.663  13.245  89.617  1.00  0.00     0.210 HD
ENDBRANCH  27  29
ENDBRANCH  26  27
BRANCH  26  31
HETATM   31  C   UNL     1       2.148  13.707  91.994  1.00  0.00     0.220 C 
HETATM   32  O   UNL     1       1.604  12.748  91.451  1.00  0.00    -0.278 OA
HETATM   33  N   UNL     1       1.563  14.502  92.950  1.00  0.00    -0.271 NA
HETATM   34  H   UNL     1       1.946  15.349  93.353  1.00  0.00     0.127 HD
HETATM   35  H   UNL     1       0.517  15.425  92.795  1.00  0.00     0.127 HD
ENDBRANCH  26  31
ENDBRANCH  24  26
ENDBRANCH  19  22
ENDBRANCH  15  16
ENDBRANCH  11  14
ENDBRANCH   7   8
ENDBRANCH   2   7
TORSDOF 9
ENDMDL
MODEL 3
REMARK VINA RESULT:      -6.2      2.124     12.259
REMARK  9 active torsions:
REMARK  status: ('A' for Active; 'I' for Inactive)
REMARK    1  A    between atoms: O_2  and  C_17 
REMARK    2  A    between atoms: N_5  and  C_10 
REMARK    3  A    between atoms: N_6  and  C_14 
REMARK       I    between atoms: N_6  and  C_23 
REMARK       I    between atoms: N_7  and  C_22 
REMARK    4  A    between atoms: C_10  and  C_13 
REMARK    5  A    between atoms: C_14  and  C_17 
REMARK    6  A    between atoms: C_14  and  C_22 
REMARK    7  A    between atoms: C_20  and  C_25 
REMARK    8  A    between atoms: C_23  and  C_24 
REMARK    9  A    between atoms: C_28  and  C_31 
ROOT
HETATM    1  O   UNL     1       2.904  14.647  93.900  1.00  0.00    -0.388 OA
HETATM    2  N   UNL     1       2.721  14.612  91.060  1.00  0.00     0.096 N 
HETATM    3  C   UNL     1       1.769  13.873  91.900  1.00  0.00     0.299 C 
HETATM    4  C   UNL     1       4.016  14.723  91.745  1.00  0.00     0.299 C 
HETATM    5  C   UNL     1       1.632  14.562  93.255  1.00  0.00     0.198 C 
HETATM    6  C   UNL     1       3.827  15.391  93.103  1.00  0.00     0.198 C 
ENDROOT
BRANCH   2   7
HETATM    7  C   UNL     1       2.876  13.963  89.759  1.00  0.00     0.311 C 
BRANCH   7   8
HETATM    8  C   UNL     1       3.885  12.866  89.787  1.00  0.00    -0.030 A 
HETATM    9  C   UNL     1       5.136  13.056  89.199  1.00  0.00     0.010 A 
HETATM   10  C   UNL     1       6.081  12.030  89.223  1.00  0.00     0.021 A 
HETATM   11  C   UNL     1       5.774  10.816  89.838  1.00  0.00     0.018 A 
HETATM   12  C   UNL     1       4.526  10.626  90.426  1.00  0.00     0.021 A 
HETATM   13  C   UNL     1       3.581  11.651  90.401  1.00  0.00     0.010 A 
BRANCH  11  14
HETATM   14  C   UNL     1       6.744   9.764  89.865  1.00  0.00    -0.061 C 
HETATM   15  C   UNL     1       7.559   8.880  89.887  1.00  0.00    -0.061 C 
BRANCH  15  16
HETATM   16  C   UNL     1       8.527   7.829  89.913  1.00  0.00     0.018 A 
HETATM   17  C   UNL     1       9.247   7.516  88.759  1.00  0.00     0.022 A 
HETATM   18  C   UNL     1      10.194   6.493  88.786  1.00  0.00     0.018 A 
HETATM   19  C   UNL     1      10.400   5.806  89.963  1.00  0.00     0.032 A 
HETATM   20  C   UNL     1       9.702   6.095  91.117  1.00  0.00     0.018 A 
HETATM   21  C   UNL     1       8.755   7.119  91.092  1.00  0.00     0.022 A 
BRANCH  19  22
HETATM   22  C   UNL     1      11.408   4.714  89.990  1.00  0.00     0.252 C 
HETATM   23  O   UNL     1      11.646   4.091  88.958  1.00  0.00    -0.268 OA
HETATM   24  N   UNL     1      12.035   4.495  91.209  1.00  0.00    -0.342 N 
HETATM   25  H   UNL     1      11.805   5.066  92.014  1.00  0.00     0.163 HD
BRANCH  24  26
HETATM   26  C   UNL     1      13.051   3.489  91.389  1.00  0.00     0.199 C 
BRANCH  26  27
HETATM   27  C   UNL     1      14.225   3.978  92.247  1.00  0.00     0.145 C 
HETATM   28  C   UNL     1      13.839   4.168  93.710  1.00  0.00     0.042 C 
BRANCH  27  29
HETATM   29  O   UNL     1      15.297   3.039  92.168  1.00  0.00    -0.393 OA
HETATM   30  H   UNL     1      15.408   2.781  91.238  1.00  0.00     0.210 HD
ENDBRANCH  27  29
ENDBRANCH  26  27
BRANCH  26  31
HETATM   31  C   UNL     1      12.387   2.262  92.005  1.00  0.00     0.220 C 
HETATM   32  O   UNL     1      12.896   1.142  91.980  1.00  0.00    -0.278 OA
HETATM   33  N   UNL     1      11.158   2.552  92.545  1.00  0.00    -0.271 NA
HETATM   34  H   UNL     1      10.672   3.440  92.504  1.00  0.00     0.127 HD
HETATM   35  H   UNL     1       9.888   2.194  92.064  1.00  0.00     0.127 HD
ENDBRANCH  26  31
ENDBRANCH  24  26
ENDBRANCH  19  22
ENDBRANCH  15  16
ENDBRANCH  11  14
ENDBRANCH   7   8
ENDBRANCH   2   7
TORSDOF 9
ENDMDL
MODEL 4
REMARK VINA RESULT:      -5.9      2.098      2.877
REMARK  9 active torsions:
REMARK  status: ('A' for Active; 'I' for Inactive)
REMARK    1  A    between atoms: O_2  and  C_17 
REMARK    2  A    between atoms: N_5  and  C_10 
REMARK    3  A    between atoms: N_6  and  C_14 
REMARK       I    between atoms: N_6  and  C_23 
REMARK       I    between atoms: N_7  and  C_22 
REMARK    4  A    between atoms: C_10  and  C_13 
REMARK    5  A    between atoms: C_14  and  C_17 
REMARK    6  A    between atoms: C_14  and  C_22 
REMARK    7  A    between atoms: C_20  and  C_25 
REMARK    8  A    between atoms: C_23  and  C_24 
REMARK    9  A    between atoms: C_28  and  C_31 
ROOT
HETATM    1  O   UNL     1      16.677   2.474  92.818  1.00  0.00    -0.388 OA
HETATM    2  N   UNL     1      13.886   2.934  93.137  1.00  0.00     0.096 N 
HETATM    3  C   UNL     1      14.637   2.086  94.074  1.00  0.00     0.299 C 
HETATM    4  C   UNL     1      14.511   2.890  91.808  1.00  0.00     0.299 C 
HETATM    5  C   UNL     1      16.095   2.535  94.121  1.00  0.00     0.198 C 
HETATM    6  C   UNL     1      15.971   3.319  91.908  1.00  0.00     0.198 C 
ENDROOT
BRANCH   2   7
HETATM    7  C   UNL     1      12.487   2.515  93.067  1.00  0.00     0.311 C 
BRANCH   7   8
HETATM    8  C   UNL     1      11.548   3.672  93.047  1.00  0.00    -0.030 A 
HETATM    9  C   UNL     1      11.512   4.559  94.124  1.00  0.00     0.010 A 
HETATM   10  C   UNL     1      10.633   5.642  94.106  1.00  0.00     0.021 A 
HETATM   11  C   UNL     1       9.791   5.837  93.012  1.00  0.00     0.018 A 
HETATM   12  C   UNL     1       9.826   4.953  91.936  1.00  0.00     0.021 A 
HETATM   13  C   UNL     1      10.705   3.870  91.953  1.00  0.00     0.010 A 
BRANCH  11  14
HETATM   14  C   UNL     1       8.890   6.949  92.994  1.00  0.00    -0.061 C 
HETATM   15  C   UNL     1       8.133   7.882  92.979  1.00  0.00    -0.061 C 
BRANCH  15  16
HETATM   16  C   UNL     1       7.232   8.993  92.961  1.00  0.00     0.018 A 
HETATM   17  C   UNL     1       7.394  10.035  93.875  1.00  0.00     0.022 A 
HETATM   18  C   UNL     1       6.518  11.120  93.856  1.00  0.00     0.018 A 
HETATM   19  C   UNL     1       5.501  11.139  92.925  1.00  0.00     0.032 A 
HETATM   20  C   UNL     1       5.319  10.121  92.012  1.00  0.00     0.018 A 
HETATM   21  C   UNL     1       6.195   9.036  92.030  1.00  0.00     0.022 A 
BRANCH  19  22
HETATM   22  C   UNL     1       4.566  12.294  92.906  1.00  0.00     0.252 C 
HETATM   23  O   UNL     1       3.994  12.619  93.944  1.00  0.00    -0.268 OA
HETATM   24  N   UNL     1       4.429  12.946  91.689  1.00  0.00    -0.342 N 
HETATM   25  H   UNL     1       4.953  12.635  90.879  1.00  0.00     0.163 HD
BRANCH  24  26
HETATM   26  C   UNL     1       3.579  14.096  91.516  1.00  0.00     0.199 C 
BRANCH  26  27
HETATM   27  C   UNL     1       3.625  14.660  90.091  1.00  0.00     0.145 C 
HETATM   28  C   UNL     1       5.040  15.014  89.648  1.00  0.00     0.042 C 
BRANCH  27  29
HETATM   29  O   UNL     1       3.081  13.704  89.181  1.00  0.00    -0.393 OA
HETATM   30  H   UNL     1       3.078  12.836  89.617  1.00  0.00     0.210 HD
ENDBRANCH  27  29
ENDBRANCH  26  27
BRANCH  26  31
HETATM   31  C   UNL     1       2.161  13.691  91.907  1.00  0.00     0.220 C 
HETATM   32  O   UNL     1       1.590  12.711  91.433  1.00  0.00    -0.278 OA
HETATM   33  N   UNL     1       1.601  14.565  92.807  1.00  0.00    -0.271 NA
HETATM   34  H   UNL     1       2.008  15.428  93.149  1.00  0.00     0.127 HD
HETATM   35  H   UNL     1       0.579  15.503  92.591  1.00  0.00     0.127 HD
ENDBRANCH  26  31
ENDBRANCH  24  26
ENDBRANCH  19  22
ENDBRANCH  15  16
ENDBRANCH  11  14
ENDBRANCH   7   8
ENDBRANCH   2   7
TORSDOF 9
ENDMDL
MODEL 5
REMARK VINA RESULT:      -5.4      1.653     12.300
REMARK  9 active torsions:
REMARK  status: ('A' for Active; 'I' for Inactive)
REMARK    1  A    between atoms: O_2  and  C_17 
REMARK    2  A    between atoms: N_5  and  C_10 
REMARK    3  A    between atoms: N_6  and  C_14 
REMARK       I    between atoms: N_6  and  C_23 
REMARK       I    between atoms: N_7  and  C_22 
REMARK    4  A    between atoms: C_10  and  C_13 
REMARK    5  A    between atoms: C_14  and  C_17 
REMARK    6  A    between atoms: C_14  and  C_22 
REMARK    7  A    between atoms: C_20  and  C_25 
REMARK    8  A    between atoms: C_23  and  C_24 
REMARK    9  A    between atoms: C_28  and  C_31 
ROOT
HETATM    1  O   UNL     1       3.432  13.903  92.067  1.00  0.00    -0.388 OA
HETATM    2  N   UNL     1       3.515  12.735  89.473  1.00  0.00     0.096 N 
HETATM    3  C   UNL     1       2.815  12.081  90.588  1.00  0.00     0.299 C 
HETATM    4  C   UNL     1       4.625  13.551  89.984  1.00  0.00     0.299 C 
HETATM    5  C   UNL     1       2.331  13.133  91.582  1.00  0.00     0.198 C 
HETATM    6  C   UNL     1       4.099  14.567  90.993  1.00  0.00     0.198 C 
ENDROOT
BRANCH   2   7
HETATM    7  C   UNL     1       3.997  11.745  88.512  1.00  0.00     0.311 C 
BRANCH   7   8
HETATM    8  C   UNL     1       4.994  10.811  89.111  1.00  0.00    -0.030 A 
HETATM    9  C   UNL     1       4.628   9.497  89.405  1.00  0.00     0.010 A 
HETATM   10  C   UNL     1       5.559   8.624  89.967  1.00  0.00     0.021 A 
HETATM   11  C   UNL     1       6.855   9.064  90.232  1.00  0.00     0.018 A 
HETATM   12  C   UNL     1       7.221  10.376  89.939  1.00  0.00     0.021 A 
HETATM   13  C   UNL     1       6.291  11.250  89.378  1.00  0.00     0.010 A 
BRANCH  11  14
HETATM   14  C   UNL     1       7.811   8.168  90.807  1.00  0.00    -0.061 C 
HETATM   15  C   UNL     1       8.614   7.414  91.289  1.00  0.00    -0.061 C 
BRANCH  15  16
HETATM   16  C   UNL     1       9.569   6.518  91.863  1.00  0.00     0.018 A 
HETATM   17  C   UNL     1       9.803   6.537  93.238  1.00  0.00     0.022 A 
HETATM   18  C   UNL     1      10.733   5.661  93.798  1.00  0.00     0.018 A 
HETATM   19  C   UNL     1      11.408   4.787  92.971  1.00  0.00     0.032 A 
HETATM   20  C   UNL     1      11.195   4.749  91.609  1.00  0.00     0.018 A 
HETATM   21  C   UNL     1      10.265   5.625  91.048  1.00  0.00     0.022 A 
BRANCH  19  22
HETATM   22  C   UNL     1      12.400   3.855  93.568  1.00  0.00     0.252 C 
HETATM   23  O   UNL     1      12.006   2.820  94.099  1.00  0.00    -0.268 OA
HETATM   24  N   UNL     1      13.731   4.230  93.452  1.00  0.00    -0.342 N 
HETATM   25  H   UNL     1      13.983   5.089  92.977  1.00  0.00     0.163 HD
BRANCH  24  26
HETATM   26  C   UNL     1      14.811   3.421  93.958  1.00  0.00     0.199 C 
BRANCH  26  27
HETATM   27  C   UNL     1      14.997   2.118  93.170  1.00  0.00     0.145 C 
HETATM   28  C   UNL     1      14.645   0.883  93.992  1.00  0.00     0.042 C 
BRANCH  27  29
HETATM   29  O   UNL     1      14.178   2.147  92.001  1.00  0.00    -0.393 OA
HETATM   30  H   UNL     1      13.989   1.230  91.739  1.00  0.00     0.210 HD
ENDBRANCH  27  29
ENDBRANCH  26  27
BRANCH  26  31
HETATM   31  C   UNL     1      16.079   4.269  93.935  1.00  0.00     0.220 C 
HETATM   32  O   UNL     1      16.067   5.486  93.763  1.00  0.00    -0.278 OA
HETATM   33  N   UNL     1      17.214   3.510  94.088  1.00  0.00    -0.271 NA
HETATM   34  H   UNL     1      17.265   2.499  94.142  1.00  0.00     0.127 HD
HETATM   35  H   UNL     1      18.186   3.192  93.126  1.00  0.00     0.127 HD
ENDBRANCH  26  31
ENDBRANCH  24  26
ENDBRANCH  19  22
ENDBRANCH  15  16
ENDBRANCH  11  14
ENDBRANCH   7   8
ENDBRANCH   2   7
TORSDOF 9
ENDMDL
MODEL 6
REMARK VINA RESULT:      -5.4      1.973     12.331
REMARK  9 active torsions:
REMARK  status: ('A' for Active; 'I' for Inactive)
REMARK    1  A    between atoms: O_2  and  C_17 
REMARK    2  A    between atoms: N_5  and  C_10 
REMARK    3  A    between atoms: N_6  and  C_14 
REMARK       I    between atoms: N_6  and  C_23 
REMARK       I    between atoms: N_7  and  C_22 
REMARK    4  A    between atoms: C_10  and  C_13 
REMARK    5  A    between atoms: C_14  and  C_17 
REMARK    6  A    between atoms: C_14  and  C_22 
REMARK    7  A    between atoms: C_20  and  C_25 
REMARK    8  A    between atoms: C_23  and  C_24 
REMARK    9  A    between atoms: C_28  and  C_31 
ROOT
HETATM    1  O   UNL     1       5.448  14.572  88.678  1.00  0.00    -0.388 OA
HETATM    2  N   UNL     1       3.563  13.068  90.190  1.00  0.00     0.096 N 
HETATM    3  C   UNL     1       4.225  14.255  90.750  1.00  0.00     0.299 C 
HETATM    4  C   UNL     1       4.433  12.430  89.193  1.00  0.00     0.299 C 
HETATM    5  C   UNL     1       4.596  15.218  89.626  1.00  0.00     0.198 C 
HETATM    6  C   UNL     1       4.800  13.436  88.106  1.00  0.00     0.198 C 
ENDROOT
BRANCH   2   7
HETATM    7  C   UNL     1       3.207  12.126  91.249  1.00  0.00     0.311 C 
BRANCH   7   8
HETATM    8  C   UNL     1       4.275  11.114  91.491  1.00  0.00    -0.030 A 
HETATM    9  C   UNL     1       4.324   9.954  90.718  1.00  0.00     0.010 A 
HETATM   10  C   UNL     1       5.322   9.006  90.945  1.00  0.00     0.021 A 
HETATM   11  C   UNL     1       6.271   9.220  91.944  1.00  0.00     0.018 A 
HETATM   12  C   UNL     1       6.223  10.378  92.717  1.00  0.00     0.021 A 
HETATM   13  C   UNL     1       5.225  11.326  92.490  1.00  0.00     0.010 A 
BRANCH  11  14
HETATM   14  C   UNL     1       7.295   8.248  92.175  1.00  0.00    -0.061 C 
HETATM   15  C   UNL     1       8.156   7.432  92.370  1.00  0.00    -0.061 C 
BRANCH  15  16
HETATM   16  C   UNL     1       9.180   6.460  92.602  1.00  0.00     0.018 A 
HETATM   17  C   UNL     1       9.727   5.757  91.529  1.00  0.00     0.022 A 
HETATM   18  C   UNL     1      10.727   4.811  91.755  1.00  0.00     0.018 A 
HETATM   19  C   UNL     1      11.157   4.591  93.047  1.00  0.00     0.032 A 
HETATM   20  C   UNL     1      10.632   5.273  94.124  1.00  0.00     0.018 A 
HETATM   21  C   UNL     1       9.631   6.219  93.899  1.00  0.00     0.022 A 
BRANCH  19  22
HETATM   22  C   UNL     1      12.221   3.582  93.287  1.00  0.00     0.252 C 
HETATM   23  O   UNL     1      11.903   2.431  93.575  1.00  0.00    -0.268 OA
HETATM   24  N   UNL     1      13.527   4.028  93.138  1.00  0.00    -0.342 N 
HETATM   25  H   UNL     1      13.714   4.988  92.873  1.00  0.00     0.163 HD
BRANCH  24  26
HETATM   26  C   UNL     1      14.667   3.164  93.313  1.00  0.00     0.199 C 
BRANCH  26  27
HETATM   27  C   UNL     1      15.079   2.454  92.017  1.00  0.00     0.145 C 
HETATM   28  C   UNL     1      14.853   3.318  90.781  1.00  0.00     0.042 C 
BRANCH  27  29
HETATM   29  O   UNL     1      16.458   2.096  92.087  1.00  0.00    -0.393 OA
HETATM   30  H   UNL     1      16.980   2.911  92.179  1.00  0.00     0.210 HD
ENDBRANCH  27  29
ENDBRANCH  26  27
BRANCH  26  31
HETATM   31  C   UNL     1      15.809   4.007  93.871  1.00  0.00     0.220 C 
HETATM   32  O   UNL     1      16.930   3.552  94.094  1.00  0.00    -0.278 OA
HETATM   33  N   UNL     1      15.424   5.301  94.123  1.00  0.00    -0.271 NA
HETATM   34  H   UNL     1      14.490   5.685  94.035  1.00  0.00     0.127 HD
HETATM   35  H   UNL     1      15.221   5.924  95.365  1.00  0.00     0.127 HD
ENDBRANCH  26  31
ENDBRANCH  24  26
ENDBRANCH  19  22
ENDBRANCH  15  16
ENDBRANCH  11  14
ENDBRANCH   7   8
ENDBRANCH   2   7
TORSDOF 9
ENDMDL
MODEL 7
REMARK VINA RESULT:      -5.2      1.970      2.507
REMARK  9 active torsions:
REMARK  status: ('A' for Active; 'I' for Inactive)
REMARK    1  A    between atoms: O_2  and  C_17 
REMARK    2  A    between atoms: N_5  and  C_10 
REMARK    3  A    between atoms: N_6  and  C_14 
REMARK       I    between atoms: N_6  and  C_23 
REMARK       I    between atoms: N_7  and  C_22 
REMARK    4  A    between atoms: C_10  and  C_13 
REMARK    5  A    between atoms: C_14  and  C_17 
REMARK    6  A    between atoms: C_14  and  C_22 
REMARK    7  A    between atoms: C_20  and  C_25 
REMARK    8  A    between atoms: C_23  and  C_24 
REMARK    9  A    between atoms: C_28  and  C_31 
ROOT
HETATM    1  O   UNL     1      16.900   2.707  93.417  1.00  0.00    -0.388 OA
HETATM    2  N   UNL     1      14.150   2.910  92.714  1.00  0.00     0.096 N 
HETATM    3  C   UNL     1      14.601   3.070  94.103  1.00  0.00     0.299 C 
HETATM    4  C   UNL     1      15.065   2.021  91.986  1.00  0.00     0.299 C 
HETATM    5  C   UNL     1      16.034   3.596  94.124  1.00  0.00     0.198 C 
HETATM    6  C   UNL     1      16.486   2.571  92.057  1.00  0.00     0.198 C 
ENDROOT
BRANCH   2   7
HETATM    7  C   UNL     1      12.782   2.396  92.670  1.00  0.00     0.311 C 
BRANCH   7   8
HETATM    8  C   UNL     1      11.766   3.487  92.644  1.00  0.00    -0.030 A 
HETATM    9  C   UNL     1      10.998   3.696  91.498  1.00  0.00     0.010 A 
HETATM   10  C   UNL     1      10.049   4.717  91.471  1.00  0.00     0.021 A 
HETATM   11  C   UNL     1       9.866   5.528  92.591  1.00  0.00     0.018 A 
HETATM   12  C   UNL     1      10.632   5.320  93.736  1.00  0.00     0.021 A 
HETATM   13  C   UNL     1      11.582   4.299  93.763  1.00  0.00     0.010 A 
BRANCH  11  14
HETATM   14  C   UNL     1       8.891   6.574  92.564  1.00  0.00    -0.061 C 
HETATM   15  C   UNL     1       8.072   7.454  92.543  1.00  0.00    -0.061 C 
BRANCH  15  16
HETATM   16  C   UNL     1       7.098   8.500  92.516  1.00  0.00     0.018 A 
HETATM   17  C   UNL     1       5.991   8.400  91.672  1.00  0.00     0.022 A 
HETATM   18  C   UNL     1       5.040   9.420  91.648  1.00  0.00     0.018 A 
HETATM   19  C   UNL     1       5.215  10.515  92.468  1.00  0.00     0.032 A 
HETATM   20  C   UNL     1       6.300  10.637  93.311  1.00  0.00     0.018 A 
HETATM   21  C   UNL     1       7.253   9.618  93.335  1.00  0.00     0.022 A 
BRANCH  19  22
HETATM   22  C   UNL     1       4.202  11.602  92.441  1.00  0.00     0.252 C 
HETATM   23  O   UNL     1       3.153  11.460  93.065  1.00  0.00    -0.268 OA
HETATM   24  N   UNL     1       4.543  12.732  91.712  1.00  0.00    -0.342 N 
HETATM   25  H   UNL     1       5.440  12.789  91.242  1.00  0.00     0.163 HD
BRANCH  24  26
HETATM   26  C   UNL     1       3.678  13.880  91.610  1.00  0.00     0.199 C 
BRANCH  26  27
HETATM   27  C   UNL     1       3.820  14.838  92.799  1.00  0.00     0.145 C 
HETATM   28  C   UNL     1       2.472  15.273  93.363  1.00  0.00     0.042 C 
BRANCH  27  29
HETATM   29  O   UNL     1       4.574  14.206  93.834  1.00  0.00    -0.393 OA
HETATM   30  H   UNL     1       4.470  14.727  94.648  1.00  0.00     0.210 HD
ENDBRANCH  27  29
ENDBRANCH  26  27
BRANCH  26  31
HETATM   31  C   UNL     1       3.988  14.582  90.292  1.00  0.00     0.220 C 
HETATM   32  O   UNL     1       4.635  15.625  90.225  1.00  0.00    -0.278 OA
HETATM   33  N   UNL     1       3.429  13.935  89.216  1.00  0.00    -0.271 NA
HETATM   34  H   UNL     1       2.818  13.128  89.244  1.00  0.00     0.127 HD
HETATM   35  H   UNL     1       2.340  14.338  88.427  1.00  0.00     0.127 HD
ENDBRANCH  26  31
ENDBRANCH  24  26
ENDBRANCH  19  22
ENDBRANCH  15  16
ENDBRANCH  11  14
ENDBRANCH   7   8
ENDBRANCH   2   7
TORSDOF 9
ENDMDL
MODEL 8
REMARK VINA RESULT:      -5.1      2.791      3.548
REMARK  9 active torsions:
REMARK  status: ('A' for Active; 'I' for Inactive)
REMARK    1  A    between atoms: O_2  and  C_17 
REMARK    2  A    between atoms: N_5  and  C_10 
REMARK    3  A    between atoms: N_6  and  C_14 
REMARK       I    between atoms: N_6  and  C_23 
REMARK       I    between atoms: N_7  and  C_22 
REMARK    4  A    between atoms: C_10  and  C_13 
REMARK    5  A    between atoms: C_14  and  C_17 
REMARK    6  A    between atoms: C_14  and  C_22 
REMARK    7  A    between atoms: C_20  and  C_25 
REMARK    8  A    between atoms: C_23  and  C_24 
REMARK    9  A    between atoms: C_28  and  C_31 
ROOT
HETATM    1  O   UNL     1      17.924   4.085  94.123  1.00  0.00    -0.388 OA
HETATM    2  N   UNL     1      15.348   3.036  93.519  1.00  0.00     0.096 N 
HETATM    3  C   UNL     1      15.529   4.432  93.942  1.00  0.00     0.299 C 
HETATM    4  C   UNL     1      16.404   2.194  94.096  1.00  0.00     0.299 C 
HETATM    5  C   UNL     1      16.919   4.918  93.541  1.00  0.00     0.198 C 
HETATM    6  C   UNL     1      17.773   2.732  93.693  1.00  0.00     0.198 C 
ENDROOT
BRANCH   2   7
HETATM    7  C   UNL     1      14.025   2.547  93.903  1.00  0.00     0.311 C 
BRANCH   7   8
HETATM    8  C   UNL     1      12.929   3.216  93.144  1.00  0.00    -0.030 A 
HETATM    9  C   UNL     1      12.082   4.115  93.793  1.00  0.00     0.010 A 
HETATM   10  C   UNL     1      11.055   4.740  93.085  1.00  0.00     0.021 A 
HETATM   11  C   UNL     1      10.878   4.466  91.729  1.00  0.00     0.018 A 
HETATM   12  C   UNL     1      11.724   3.569  91.080  1.00  0.00     0.021 A 
HETATM   13  C   UNL     1      12.750   2.943  91.788  1.00  0.00     0.010 A 
BRANCH  11  14
HETATM   14  C   UNL     1       9.827   5.109  91.002  1.00  0.00    -0.061 C 
HETATM   15  C   UNL     1       8.943   5.650  90.392  1.00  0.00    -0.061 C 
BRANCH  15  16
HETATM   16  C   UNL     1       7.892   6.292  89.666  1.00  0.00     0.018 A 
HETATM   17  C   UNL     1       8.198   7.119  88.584  1.00  0.00     0.022 A 
HETATM   18  C   UNL     1       7.173   7.744  87.874  1.00  0.00     0.018 A 
HETATM   19  C   UNL     1       5.867   7.528  88.260  1.00  0.00     0.032 A 
HETATM   20  C   UNL     1       5.539   6.716  89.325  1.00  0.00     0.018 A 
HETATM   21  C   UNL     1       6.563   6.090  90.036  1.00  0.00     0.022 A 
BRANCH  19  22
HETATM   22  C   UNL     1       4.775   8.195  87.504  1.00  0.00     0.252 C 
HETATM   23  O   UNL     1       4.587   7.892  86.329  1.00  0.00    -0.268 OA
HETATM   24  N   UNL     1       4.019   9.117  88.215  1.00  0.00    -0.342 N 
HETATM   25  H   UNL     1       4.217   9.298  89.192  1.00  0.00     0.163 HD
BRANCH  24  26
HETATM   26  C   UNL     1       2.912   9.828  87.629  1.00  0.00     0.199 C 
BRANCH  26  27
HETATM   27  C   UNL     1       1.554   9.212  87.988  1.00  0.00     0.145 C 
HETATM   28  C   UNL     1       1.277   7.923  87.222  1.00  0.00     0.042 C 
BRANCH  27  29
HETATM   29  O   UNL     1       1.509   8.938  89.388  1.00  0.00    -0.393 OA
HETATM   30  H   UNL     1       2.398   9.077  89.754  1.00  0.00     0.210 HD
ENDBRANCH  27  29
ENDBRANCH  26  27
BRANCH  26  31
HETATM   31  C   UNL     1       2.998  11.282  88.084  1.00  0.00     0.220 C 
HETATM   32  O   UNL     1       2.214  11.779  88.889  1.00  0.00    -0.278 OA
HETATM   33  N   UNL     1       4.019  11.960  87.462  1.00  0.00    -0.271 NA
HETATM   34  H   UNL     1       4.625  11.607  86.731  1.00  0.00     0.127 HD
HETATM   35  H   UNL     1       3.930  12.952  86.473  1.00  0.00     0.127 HD
ENDBRANCH  26  31
ENDBRANCH  24  26
ENDBRANCH  19  22
ENDBRANCH  15  16
ENDBRANCH  11  14
ENDBRANCH   7   8
ENDBRANCH   2   7
TORSDOF 9
ENDMDL
MODEL 9
REMARK VINA RESULT:      -5.0      2.341     12.471
REMARK  9 active torsions:
REMARK  status: ('A' for Active; 'I' for Inactive)
REMARK    1  A    between atoms: O_2  and  C_17 
REMARK    2  A    between atoms: N_5  and  C_10 
REMARK    3  A    between atoms: N_6  and  C_14 
REMARK       I    between atoms: N_6  and  C_23 
REMARK       I    between atoms: N_7  and  C_22 
REMARK    4  A    between atoms: C_10  and  C_13 
REMARK    5  A    between atoms: C_14  and  C_17 
REMARK    6  A    between atoms: C_14  and  C_22 
REMARK    7  A    between atoms: C_20  and  C_25 
REMARK    8  A    between atoms: C_23  and  C_24 
REMARK    9  A    between atoms: C_28  and  C_31 
ROOT
HETATM    1  O   UNL     1       3.213  14.389  89.630  1.00  0.00    -0.388 OA
HETATM    2  N   UNL     1       3.133  14.038  92.454  1.00  0.00     0.096 N 
HETATM    3  C   UNL     1       4.390  13.923  91.701  1.00  0.00     0.299 C 
HETATM    4  C   UNL     1       1.999  13.661  91.600  1.00  0.00     0.299 C 
HETATM    5  C   UNL     1       4.320  14.785  90.443  1.00  0.00     0.198 C 
HETATM    6  C   UNL     1       1.984  14.528  90.345  1.00  0.00     0.198 C 
ENDROOT
BRANCH   2   7
HETATM    7  C   UNL     1       3.175  13.212  93.659  1.00  0.00     0.311 C 
BRANCH   7   8
HETATM    8  C   UNL     1       4.160  12.098  93.550  1.00  0.00    -0.030 A 
HETATM    9  C   UNL     1       3.815  10.927  92.875  1.00  0.00     0.010 A 
HETATM   10  C   UNL     1       4.735   9.883  92.774  1.00  0.00     0.021 A 
HETATM   11  C   UNL     1       6.000  10.013  93.348  1.00  0.00     0.018 A 
HETATM   12  C   UNL     1       6.345  11.182  94.022  1.00  0.00     0.021 A 
HETATM   13  C   UNL     1       5.425  12.225  94.124  1.00  0.00     0.010 A 
BRANCH  11  14
HETATM   14  C   UNL     1       6.944   8.943  93.243  1.00  0.00    -0.061 C 
HETATM   15  C   UNL     1       7.738   8.045  93.155  1.00  0.00    -0.061 C 
BRANCH  15  16
HETATM   16  C   UNL     1       8.682   6.976  93.051  1.00  0.00     0.018 A 
HETATM   17  C   UNL     1       8.579   6.055  92.009  1.00  0.00     0.022 A 
HETATM   18  C   UNL     1       9.502   5.013  91.906  1.00  0.00     0.018 A 
HETATM   19  C   UNL     1      10.506   4.917  92.847  1.00  0.00     0.032 A 
HETATM   20  C   UNL     1      10.629   5.815  93.887  1.00  0.00     0.018 A 
HETATM   21  C   UNL     1       9.707   6.856  93.990  1.00  0.00     0.022 A 
BRANCH  19  22
HETATM   22  C   UNL     1      11.487   3.807  92.738  1.00  0.00     0.252 C 
HETATM   23  O   UNL     1      11.078   2.657  92.591  1.00  0.00    -0.268 OA
HETATM   24  N   UNL     1      12.825   4.171  92.789  1.00  0.00    -0.342 N 
HETATM   25  H   UNL     1      13.089   5.144  92.887  1.00  0.00     0.163 HD
BRANCH  24  26
HETATM   26  C   UNL     1      13.895   3.212  92.673  1.00  0.00     0.199 C 
BRANCH  26  27
HETATM   27  C   UNL     1      14.385   3.042  91.229  1.00  0.00     0.145 C 
HETATM   28  C   UNL     1      14.096   4.265  90.366  1.00  0.00     0.042 C 
BRANCH  27  29
HETATM   29  O   UNL     1      15.792   2.797  91.229  1.00  0.00    -0.393 OA
HETATM   30  H   UNL     1      16.248   3.638  91.401  1.00  0.00     0.210 HD
ENDBRANCH  27  29
ENDBRANCH  26  27
BRANCH  26  31
HETATM   31  C   UNL     1      15.025   3.662  93.593  1.00  0.00     0.220 C 
HETATM   32  O   UNL     1      15.277   4.844  93.816  1.00  0.00    -0.278 OA
HETATM   33  N   UNL     1      15.736   2.600  94.099  1.00  0.00    -0.271 NA
HETATM   34  H   UNL     1      15.613   1.622  93.866  1.00  0.00     0.127 HD
HETATM   35  H   UNL     1      17.037   2.188  93.772  1.00  0.00     0.127 HD
ENDBRANCH  26  31
ENDBRANCH  24  26
ENDBRANCH  19  22
ENDBRANCH  15  16
ENDBRANCH  11  14
ENDBRANCH   7   8
ENDBRANCH   2   7
TORSDOF 9
ENDMDL
