MODEL 1
REMARK VINA RESULT:      -6.5      0.000      0.000
REMARK  14 active torsions:
REMARK  status: ('A' for Active; 'I' for Inactive)
REMARK    1  A    between atoms: O_2  and  C_18 
REMARK    2  A    between atoms: C_5  and  C_8 
REMARK    3  A    between atoms: C_5  and  O_35 
REMARK    4  A    between atoms: C_5  and  C_36 
REMARK    5  A    between atoms: N_6  and  C_11 
REMARK    6  A    between atoms: N_7  and  C_15 
REMARK       I    between atoms: N_7  and  C_24 
REMARK    7  A    between atoms: C_8  and  C_23 
REMARK    8  A    between atoms: C_11  and  C_14 
REMARK    9  A    between atoms: C_15  and  C_18 
REMARK   10  A    between atoms: C_15  and  C_23 
REMARK   11  A    between atoms: C_21  and  C_26 
REMARK   12  A    between atoms: C_24  and  C_25 
REMARK   13  A    between atoms: C_29  and  C_32 
REMARK   14  A    between atoms: C_36  and  O_39 
ROOT
HETATM    1  O   UNL     1      16.409   3.073  93.769  1.00  0.00    -0.350 OA
HETATM    2  N   UNL     1      13.762   2.729  92.781  1.00  0.00     0.147 N 
HETATM    3  C   UNL     1      14.649   1.581  93.018  1.00  0.00     0.283 C 
HETATM    4  C   UNL     1      14.558   3.920  92.450  1.00  0.00     0.283 C 
HETATM    5  C   UNL     1      15.647   1.918  94.123  1.00  0.00     0.178 C 
HETATM    6  C   UNL     1      15.557   4.201  93.567  1.00  0.00     0.178 C 
ENDROOT
BRANCH   2   7
HETATM    7  C   UNL     1      12.804   2.432  91.717  1.00  0.00     0.277 C 
BRANCH   7   8
HETATM    8  C   UNL     1      11.668   3.397  91.691  1.00  0.00     0.011 A 
HETATM    9  C   UNL     1      11.388   4.174  92.815  1.00  0.00    -0.002 A 
HETATM   10  C   UNL     1      10.324   5.075  92.792  1.00  0.00     0.008 A 
HETATM   11  C   UNL     1       9.542   5.201  91.644  1.00  0.00     0.042 A 
HETATM   12  C   UNL     1       9.822   4.426  90.521  1.00  0.00     0.008 A 
HETATM   13  C   UNL     1      10.885   3.524  90.543  1.00  0.00    -0.002 A 
BRANCH  11  14
HETATM   14  C   UNL     1       8.452   6.127  91.620  1.00  0.00    -0.059 C 
HETATM   15  C   UNL     1       7.536   6.905  91.600  1.00  0.00    -0.059 C 
BRANCH  15  16
HETATM   16  C   UNL     1       6.446   7.830  91.576  1.00  0.00     0.042 A 
HETATM   17  C   UNL     1       6.106   8.536  92.731  1.00  0.00     0.008 A 
HETATM   18  C   UNL     1       5.045   9.441  92.707  1.00  0.00     0.005 A 
HETATM   19  C   UNL     1       4.348   9.620  91.531  1.00  0.00     0.056 A 
HETATM   20  C   UNL     1       4.664   8.935  90.376  1.00  0.00     0.005 A 
HETATM   21  C   UNL     1       5.725   8.030  90.399  1.00  0.00     0.008 A 
BRANCH  19  22
HETATM   22  C   UNL     1       3.216  10.582  91.506  1.00  0.00     0.254 C 
HETATM   23  O   UNL     1       2.084  10.170  91.269  1.00  0.00    -0.268 OA
HETATM   24  N   UNL     1       3.536  11.904  91.785  1.00  0.00    -0.335 N 
HETATM   25  HN  UNL     1       4.491  12.167  91.997  1.00  0.00     0.164 HD
BRANCH  24  26
HETATM   26  C   UNL     1       2.546  12.950  91.823  1.00  0.00     0.169 C 
BRANCH  26  27
HETATM   27  C   UNL     1       2.526  13.700  93.161  1.00  0.00     0.138 C 
HETATM   28  C   UNL     1       3.773  13.434  93.998  1.00  0.00     0.034 C 
BRANCH  27  29
HETATM   29  O   UNL     1       2.421  15.103  92.920  1.00  0.00    -0.383 OA
HETATM   30  H   UNL     1       1.478  15.330  92.849  1.00  0.00     0.210 HD
ENDBRANCH  27  29
ENDBRANCH  26  27
BRANCH  26  31
HETATM   31  C   UNL     1       2.823  13.897  90.661  1.00  0.00     0.194 C 
HETATM   32  O   UNL     1       1.942  14.550  90.104  1.00  0.00    -0.289 OA
BRANCH  31  33
HETATM   33  C   UNL     1       4.148  13.898  90.296  1.00  0.00     0.053 C 
BRANCH  33  34
HETATM   34  C   UNL     1       4.401  13.879  88.918  1.00  0.00     0.220 C 
BRANCH  34  35
HETATM   35  O   UNL     1       5.422  14.562  88.710  1.00  0.00    -0.371 OA
HETATM   36  H   UNL     1       6.015  13.856  88.504  1.00  0.00     0.211 HD
ENDBRANCH  34  35
BRANCH  34  37
HETATM   37  C   UNL     1       4.509  12.583  88.385  1.00  0.00     0.185 C 
HETATM   38  O   UNL     1       5.567  12.518  89.178  1.00  0.00    -0.647 OA
BRANCH  37  39
HETATM   39  O   UNL     1       3.933  11.920  87.575  1.00  0.00    -0.774 OA
HETATM   40  H   UNL     1       3.385  11.052  88.058  1.00  0.00     0.167 HD
ENDBRANCH  37  39
ENDBRANCH  34  37
ENDBRANCH  33  34
ENDBRANCH  31  33
ENDBRANCH  26  31
ENDBRANCH  24  26
ENDBRANCH  19  22
ENDBRANCH  15  16
ENDBRANCH  11  14
ENDBRANCH   7   8
ENDBRANCH   2   7
TORSDOF 14
ENDMDL
MODEL 2
REMARK VINA RESULT:      -6.1      1.409      2.137
REMARK  14 active torsions:
REMARK  status: ('A' for Active; 'I' for Inactive)
REMARK    1  A    between atoms: O_2  and  C_18 
REMARK    2  A    between atoms: C_5  and  C_8 
REMARK    3  A    between atoms: C_5  and  O_35 
REMARK    4  A    between atoms: C_5  and  C_36 
REMARK    5  A    between atoms: N_6  and  C_11 
REMARK    6  A    between atoms: N_7  and  C_15 
REMARK       I    between atoms: N_7  and  C_24 
REMARK    7  A    between atoms: C_8  and  C_23 
REMARK    8  A    between atoms: C_11  and  C_14 
REMARK    9  A    between atoms: C_15  and  C_18 
REMARK   10  A    between atoms: C_15  and  C_23 
REMARK   11  A    between atoms: C_21  and  C_26 
REMARK   12  A    between atoms: C_24  and  C_25 
REMARK   13  A    between atoms: C_29  and  C_32 
REMARK   14  A    between atoms: C_36  and  O_39 
ROOT
HETATM    1  O   UNL     1      16.476   4.232  94.123  1.00  0.00    -0.350 OA
HETATM    2  N   UNL     1      14.647   2.783  92.494  1.00  0.00     0.147 N 
HETATM    3  C   UNL     1      14.666   4.252  92.507  1.00  0.00     0.283 C 
HETATM    4  C   UNL     1      15.100   2.262  93.791  1.00  0.00     0.283 C 
HETATM    5  C   UNL     1      16.068   4.748  92.855  1.00  0.00     0.178 C 
HETATM    6  C   UNL     1      16.490   2.804  94.109  1.00  0.00     0.178 C 
ENDROOT
BRANCH   2   7
HETATM    7  C   UNL     1      13.310   2.286  92.173  1.00  0.00     0.277 C 
BRANCH   7   8
HETATM    8  C   UNL     1      12.278   3.361  92.217  1.00  0.00     0.011 A 
HETATM    9  C   UNL     1      11.663   3.786  91.039  1.00  0.00    -0.002 A 
HETATM   10  C   UNL     1      10.699   4.793  91.079  1.00  0.00     0.008 A 
HETATM   11  C   UNL     1      10.350   5.374  92.297  1.00  0.00     0.042 A 
HETATM   12  C   UNL     1      10.963   4.951  93.475  1.00  0.00     0.008 A 
HETATM   13  C   UNL     1      11.928   3.944  93.435  1.00  0.00    -0.002 A 
BRANCH  11  14
HETATM   14  C   UNL     1       9.360   6.406  92.338  1.00  0.00    -0.059 C 
HETATM   15  C   UNL     1       8.528   7.273  92.372  1.00  0.00    -0.059 C 
BRANCH  15  16
HETATM   16  C   UNL     1       7.538   8.304  92.413  1.00  0.00     0.042 A 
HETATM   17  C   UNL     1       7.911   9.618  92.697  1.00  0.00     0.008 A 
HETATM   18  C   UNL     1       6.945  10.623  92.734  1.00  0.00     0.005 A 
HETATM   19  C   UNL     1       5.630  10.294  92.485  1.00  0.00     0.056 A 
HETATM   20  C   UNL     1       5.235   9.003  92.202  1.00  0.00     0.005 A 
HETATM   21  C   UNL     1       6.200   7.996  92.165  1.00  0.00     0.008 A 
BRANCH  19  22
HETATM   22  C   UNL     1       4.601  11.365  92.527  1.00  0.00     0.254 C 
HETATM   23  O   UNL     1       3.787  11.380  93.447  1.00  0.00    -0.268 OA
HETATM   24  N   UNL     1       4.660  12.304  91.506  1.00  0.00    -0.335 N 
HETATM   25  HN  UNL     1       5.377  12.242  90.793  1.00  0.00     0.164 HD
BRANCH  24  26
HETATM   26  C   UNL     1       3.747  13.416  91.422  1.00  0.00     0.169 C 
BRANCH  26  27
HETATM   27  C   UNL     1       4.406  14.753  91.784  1.00  0.00     0.138 C 
HETATM   28  C   UNL     1       5.028  15.444  90.576  1.00  0.00     0.034 C 
BRANCH  27  29
HETATM   29  O   UNL     1       3.434  15.622  92.365  1.00  0.00    -0.383 OA
HETATM   30  H   UNL     1       2.682  15.692  91.753  1.00  0.00     0.210 HD
ENDBRANCH  27  29
ENDBRANCH  26  27
BRANCH  26  31
HETATM   31  C   UNL     1       3.177  13.444  90.008  1.00  0.00     0.194 C 
HETATM   32  O   UNL     1       2.160  14.068  89.708  1.00  0.00    -0.289 OA
BRANCH  31  33
HETATM   33  C   UNL     1       3.905  12.669  89.139  1.00  0.00     0.053 C 
BRANCH  33  34
HETATM   34  C   UNL     1       3.347  11.424  88.816  1.00  0.00     0.220 C 
BRANCH  34  35
HETATM   35  O   UNL     1       2.374  11.626  88.066  1.00  0.00    -0.371 OA
HETATM   36  H   UNL     1       1.927  12.267  88.598  1.00  0.00     0.211 HD
ENDBRANCH  34  35
BRANCH  34  37
HETATM   37  C   UNL     1       4.271  10.523  88.261  1.00  0.00     0.185 C 
HETATM   38  O   UNL     1       5.124  11.512  88.478  1.00  0.00    -0.647 OA
BRANCH  37  39
HETATM   39  O   UNL     1       4.247   9.426  87.788  1.00  0.00    -0.774 OA
HETATM   40  H   UNL     1       4.536   9.436  86.691  1.00  0.00     0.167 HD
ENDBRANCH  37  39
ENDBRANCH  34  37
ENDBRANCH  33  34
ENDBRANCH  31  33
ENDBRANCH  26  31
ENDBRANCH  24  26
ENDBRANCH  19  22
ENDBRANCH  15  16
ENDBRANCH  11  14
ENDBRANCH   7   8
ENDBRANCH   2   7
TORSDOF 14
ENDMDL
MODEL 3
REMARK VINA RESULT:      -5.0      1.433      1.876
REMARK  14 active torsions:
REMARK  status: ('A' for Active; 'I' for Inactive)
REMARK    1  A    between atoms: O_2  and  C_18 
REMARK    2  A    between atoms: C_5  and  C_8 
REMARK    3  A    between atoms: C_5  and  O_35 
REMARK    4  A    between atoms: C_5  and  C_36 
REMARK    5  A    between atoms: N_6  and  C_11 
REMARK    6  A    between atoms: N_7  and  C_15 
REMARK       I    between atoms: N_7  and  C_24 
REMARK    7  A    between atoms: C_8  and  C_23 
REMARK    8  A    between atoms: C_11  and  C_14 
REMARK    9  A    between atoms: C_15  and  C_18 
REMARK   10  A    between atoms: C_15  and  C_23 
REMARK   11  A    between atoms: C_21  and  C_26 
REMARK   12  A    between atoms: C_24  and  C_25 
REMARK   13  A    between atoms: C_29  and  C_32 
REMARK   14  A    between atoms: C_36  and  O_39 
ROOT
HETATM    1  O   UNL     1      16.732   2.668  92.820  1.00  0.00    -0.350 OA
HETATM    2  N   UNL     1      13.918   2.897  93.181  1.00  0.00     0.147 N 
HETATM    3  C   UNL     1      14.733   2.023  94.036  1.00  0.00     0.283 C 
HETATM    4  C   UNL     1      14.536   3.020  91.853  1.00  0.00     0.283 C 
HETATM    5  C   UNL     1      16.157   2.568  94.124  1.00  0.00     0.178 C 
HETATM    6  C   UNL     1      15.963   3.540  91.992  1.00  0.00     0.178 C 
ENDROOT
BRANCH   2   7
HETATM    7  C   UNL     1      12.552   2.388  93.074  1.00  0.00     0.277 C 
BRANCH   7   8
HETATM    8  C   UNL     1      11.538   3.480  93.070  1.00  0.00     0.011 A 
HETATM    9  C   UNL     1      10.587   3.545  92.051  1.00  0.00    -0.002 A 
HETATM   10  C   UNL     1       9.639   4.568  92.045  1.00  0.00     0.008 A 
HETATM   11  C   UNL     1       9.640   5.524  93.060  1.00  0.00     0.042 A 
HETATM   12  C   UNL     1      10.589   5.461  94.079  1.00  0.00     0.008 A 
HETATM   13  C   UNL     1      11.538   4.438  94.084  1.00  0.00    -0.002 A 
BRANCH  11  14
HETATM   14  C   UNL     1       8.666   6.572  93.055  1.00  0.00    -0.059 C 
HETATM   15  C   UNL     1       7.848   7.453  93.052  1.00  0.00    -0.059 C 
BRANCH  15  16
HETATM   16  C   UNL     1       6.875   8.500  93.048  1.00  0.00     0.042 A 
HETATM   17  C   UNL     1       7.197   9.752  93.573  1.00  0.00     0.008 A 
HETATM   18  C   UNL     1       6.249  10.775  93.566  1.00  0.00     0.005 A 
HETATM   19  C   UNL     1       5.001  10.524  93.035  1.00  0.00     0.056 A 
HETATM   20  C   UNL     1       4.658   9.295  92.510  1.00  0.00     0.005 A 
HETATM   21  C   UNL     1       5.606   8.271  92.517  1.00  0.00     0.008 A 
BRANCH  19  22
HETATM   22  C   UNL     1       3.990  11.613  93.030  1.00  0.00     0.254 C 
HETATM   23  O   UNL     1       3.105  11.614  93.882  1.00  0.00    -0.268 OA
HETATM   24  N   UNL     1       4.146  12.583  92.049  1.00  0.00    -0.335 N 
HETATM   25  HN  UNL     1       4.917  12.530  91.394  1.00  0.00     0.164 HD
BRANCH  24  26
HETATM   26  C   UNL     1       3.262  13.714  91.930  1.00  0.00     0.169 C 
BRANCH  26  27
HETATM   27  C   UNL     1       3.929  15.034  92.337  1.00  0.00     0.138 C 
HETATM   28  C   UNL     1       4.565  14.965  93.721  1.00  0.00     0.034 C 
BRANCH  27  29
HETATM   29  O   UNL     1       4.934  15.376  91.383  1.00  0.00    -0.383 OA
HETATM   30  H   UNL     1       5.800  15.325  91.821  1.00  0.00     0.210 HD
ENDBRANCH  27  29
ENDBRANCH  26  27
BRANCH  26  31
HETATM   31  C   UNL     1       2.764  13.766  90.489  1.00  0.00     0.194 C 
HETATM   32  O   UNL     1       2.245  14.765  89.996  1.00  0.00    -0.289 OA
BRANCH  31  33
HETATM   33  C   UNL     1       2.930  12.567  89.839  1.00  0.00     0.053 C 
BRANCH  33  34
HETATM   34  C   UNL     1       3.826  12.577  88.761  1.00  0.00     0.220 C 
BRANCH  34  35
HETATM   35  O   UNL     1       4.251  13.740  88.630  1.00  0.00    -0.371 OA
HETATM   36  H   UNL     1       4.799  13.769  89.400  1.00  0.00     0.211 HD
ENDBRANCH  34  35
BRANCH  34  37
HETATM   37  C   UNL     1       4.866  11.640  88.888  1.00  0.00     0.185 C 
HETATM   38  O   UNL     1       4.331  11.136  87.787  1.00  0.00    -0.647 OA
BRANCH  37  39
HETATM   39  O   UNL     1       5.751  11.416  89.659  1.00  0.00    -0.774 OA
HETATM   40  H   UNL     1       6.208  10.392  89.484  1.00  0.00     0.167 HD
ENDBRANCH  37  39
ENDBRANCH  34  37
ENDBRANCH  33  34
ENDBRANCH  31  33
ENDBRANCH  26  31
ENDBRANCH  24  26
ENDBRANCH  19  22
ENDBRANCH  15  16
ENDBRANCH  11  14
ENDBRANCH   7   8
ENDBRANCH   2   7
TORSDOF 14
ENDMDL
MODEL 4
REMARK VINA RESULT:      -4.9      2.889     12.501
REMARK  14 active torsions:
REMARK  status: ('A' for Active; 'I' for Inactive)
REMARK    1  A    between atoms: O_2  and  C_18 
REMARK    2  A    between atoms: C_5  and  C_8 
REMARK    3  A    between atoms: C_5  and  O_35 
REMARK    4  A    between atoms: C_5  and  C_36 
REMARK    5  A    between atoms: N_6  and  C_11 
REMARK    6  A    between atoms: N_7  and  C_15 
REMARK       I    between atoms: N_7  and  C_24 
REMARK    7  A    between atoms: C_8  and  C_23 
REMARK    8  A    between atoms: C_11  and  C_14 
REMARK    9  A    between atoms: C_15  and  C_18 
REMARK   10  A    between atoms: C_15  and  C_23 
REMARK   11  A    between atoms: C_21  and  C_26 
REMARK   12  A    between atoms: C_24  and  C_25 
REMARK   13  A    between atoms: C_29  and  C_32 
REMARK   14  A    between atoms: C_36  and  O_39 
ROOT
HETATM    1  O   UNL     1       3.165  14.581  94.054  1.00  0.00    -0.350 OA
HETATM    2  N   UNL     1       2.861  14.656  91.225  1.00  0.00     0.147 N 
HETATM    3  C   UNL     1       1.850  14.032  92.090  1.00  0.00     0.283 C 
HETATM    4  C   UNL     1       4.186  14.565  91.854  1.00  0.00     0.283 C 
HETATM    5  C   UNL     1       1.868  14.692  93.466  1.00  0.00     0.178 C 
HETATM    6  C   UNL     1       4.149  15.212  93.235  1.00  0.00     0.178 C 
ENDROOT
BRANCH   2   7
HETATM    7  C   UNL     1       2.869  14.031  89.904  1.00  0.00     0.277 C 
BRANCH   7   8
HETATM    8  C   UNL     1       3.824  12.888  89.821  1.00  0.00     0.011 A 
HETATM    9  C   UNL     1       3.440  11.626  90.276  1.00  0.00    -0.002 A 
HETATM   10  C   UNL     1       4.333  10.557  90.202  1.00  0.00     0.008 A 
HETATM   11  C   UNL     1       5.607  10.751  89.671  1.00  0.00     0.042 A 
HETATM   12  C   UNL     1       5.991  12.010  89.216  1.00  0.00     0.008 A 
HETATM   13  C   UNL     1       5.099  13.080  89.291  1.00  0.00    -0.002 A 
BRANCH  11  14
HETATM   14  C   UNL     1       6.522   9.653  89.592  1.00  0.00    -0.059 C 
HETATM   15  C   UNL     1       7.291   8.731  89.527  1.00  0.00    -0.059 C 
BRANCH  15  16
HETATM   16  C   UNL     1       8.204   7.634  89.448  1.00  0.00     0.042 A 
HETATM   17  C   UNL     1       8.414   6.989  88.229  1.00  0.00     0.008 A 
HETATM   18  C   UNL     1       9.308   5.920  88.152  1.00  0.00     0.005 A 
HETATM   19  C   UNL     1       9.971   5.522  89.293  1.00  0.00     0.056 A 
HETATM   20  C   UNL     1       9.780   6.143  90.510  1.00  0.00     0.005 A 
HETATM   21  C   UNL     1       8.887   7.211  90.588  1.00  0.00     0.008 A 
BRANCH  19  22
HETATM   22  C   UNL     1      10.921   4.382  89.211  1.00  0.00     0.254 C 
HETATM   23  O   UNL     1      11.058   3.792  88.142  1.00  0.00    -0.268 OA
HETATM   24  N   UNL     1      11.615   4.084  90.375  1.00  0.00    -0.335 N 
HETATM   25  HN  UNL     1      11.469   4.633  91.214  1.00  0.00     0.164 HD
BRANCH  24  26
HETATM   26  C   UNL     1      12.589   3.024  90.448  1.00  0.00     0.169 C 
BRANCH  26  27
HETATM   27  C   UNL     1      14.031   3.545  90.495  1.00  0.00     0.138 C 
HETATM   28  C   UNL     1      14.101   5.047  90.744  1.00  0.00     0.034 C 
BRANCH  27  29
HETATM   29  O   UNL     1      14.748   2.870  91.528  1.00  0.00    -0.383 OA
HETATM   30  H   UNL     1      14.134   2.267  91.982  1.00  0.00     0.210 HD
ENDBRANCH  27  29
ENDBRANCH  26  27
BRANCH  26  31
HETATM   31  C   UNL     1      12.264   2.177  91.674  1.00  0.00     0.194 C 
HETATM   32  O   UNL     1      12.727   1.052  91.852  1.00  0.00    -0.289 OA
BRANCH  31  33
HETATM   33  C   UNL     1      11.376   2.802  92.516  1.00  0.00     0.053 C 
BRANCH  33  34
HETATM   34  C   UNL     1      11.887   3.188  93.764  1.00  0.00     0.220 C 
BRANCH  34  35
HETATM   35  O   UNL     1      13.039   2.725  93.862  1.00  0.00    -0.371 OA
HETATM   36  H   UNL     1      13.363   3.315  94.526  1.00  0.00     0.211 HD
ENDBRANCH  34  35
BRANCH  34  37
HETATM   37  C   UNL     1      11.849   4.576  93.979  1.00  0.00     0.185 C 
HETATM   38  O   UNL     1      13.167   4.446  94.004  1.00  0.00    -0.647 OA
BRANCH  37  39
HETATM   39  O   UNL     1      11.012   5.417  94.116  1.00  0.00    -0.774 OA
HETATM   40  H   UNL     1       9.972   5.007  93.922  1.00  0.00     0.167 HD
ENDBRANCH  37  39
ENDBRANCH  34  37
ENDBRANCH  33  34
ENDBRANCH  31  33
ENDBRANCH  26  31
ENDBRANCH  24  26
ENDBRANCH  19  22
ENDBRANCH  15  16
ENDBRANCH  11  14
ENDBRANCH   7   8
ENDBRANCH   2   7
TORSDOF 14
ENDMDL
MODEL 5
REMARK VINA RESULT:      -4.9      2.647     12.929
REMARK  14 active torsions:
REMARK  status: ('A' for Active; 'I' for Inactive)
REMARK    1  A    between atoms: O_2  and  C_18 
REMARK    2  A    between atoms: C_5  and  C_8 
REMARK    3  A    between atoms: C_5  and  O_35 
REMARK    4  A    between atoms: C_5  and  C_36 
REMARK    5  A    between atoms: N_6  and  C_11 
REMARK    6  A    between atoms: N_7  and  C_15 
REMARK       I    between atoms: N_7  and  C_24 
REMARK    7  A    between atoms: C_8  and  C_23 
REMARK    8  A    between atoms: C_11  and  C_14 
REMARK    9  A    between atoms: C_15  and  C_18 
REMARK   10  A    between atoms: C_15  and  C_23 
REMARK   11  A    between atoms: C_21  and  C_26 
REMARK   12  A    between atoms: C_24  and  C_25 
REMARK   13  A    between atoms: C_29  and  C_32 
REMARK   14  A    between atoms: C_36  and  O_39 
ROOT
HETATM    1  O   UNL     1       3.077  14.676  93.867  1.00  0.00    -0.350 OA
HETATM    2  N   UNL     1       2.783  14.585  91.037  1.00  0.00     0.147 N 
HETATM    3  C   UNL     1       1.859  13.869  91.928  1.00  0.00     0.283 C 
HETATM    4  C   UNL     1       4.104  14.701  91.669  1.00  0.00     0.283 C 
HETATM    5  C   UNL     1       1.780  14.586  93.274  1.00  0.00     0.178 C 
HETATM    6  C   UNL     1       3.972  15.397  93.020  1.00  0.00     0.178 C 
ENDROOT
BRANCH   2   7
HETATM    7  C   UNL     1       2.882  13.909  89.745  1.00  0.00     0.277 C 
BRANCH   7   8
HETATM    8  C   UNL     1       3.820  12.750  89.780  1.00  0.00     0.011 A 
HETATM    9  C   UNL     1       3.415  11.544  90.352  1.00  0.00    -0.002 A 
HETATM   10  C   UNL     1       4.292  10.460  90.388  1.00  0.00     0.008 A 
HETATM   11  C   UNL     1       5.572  10.583  89.851  1.00  0.00     0.042 A 
HETATM   12  C   UNL     1       5.978  11.787  89.279  1.00  0.00     0.008 A 
HETATM   13  C   UNL     1       5.102  12.871  89.244  1.00  0.00    -0.002 A 
BRANCH  11  14
HETATM   14  C   UNL     1       6.471   9.470  89.886  1.00  0.00    -0.059 C 
HETATM   15  C   UNL     1       7.226   8.535  89.916  1.00  0.00    -0.059 C 
BRANCH  15  16
HETATM   16  C   UNL     1       8.123   7.422  89.951  1.00  0.00     0.042 A 
HETATM   17  C   UNL     1       7.686   6.162  89.543  1.00  0.00     0.008 A 
HETATM   18  C   UNL     1       8.563   5.077  89.575  1.00  0.00     0.005 A 
HETATM   19  C   UNL     1       9.855   5.277  90.013  1.00  0.00     0.056 A 
HETATM   20  C   UNL     1      10.311   6.512  90.422  1.00  0.00     0.005 A 
HETATM   21  C   UNL     1       9.435   7.598  90.391  1.00  0.00     0.008 A 
BRANCH  19  22
HETATM   22  C   UNL     1      10.788   4.121  90.048  1.00  0.00     0.254 C 
HETATM   23  O   UNL     1      10.542   3.131  89.363  1.00  0.00    -0.268 OA
HETATM   24  N   UNL     1      11.906   4.266  90.858  1.00  0.00    -0.335 N 
HETATM   25  HN  UNL     1      12.056   5.124  91.376  1.00  0.00     0.164 HD
BRANCH  24  26
HETATM   26  C   UNL     1      12.914   3.244  90.979  1.00  0.00     0.169 C 
BRANCH  26  27
HETATM   27  C   UNL     1      14.337   3.791  90.812  1.00  0.00     0.138 C 
HETATM   28  C   UNL     1      15.125   3.051  89.736  1.00  0.00     0.034 C 
BRANCH  27  29
HETATM   29  O   UNL     1      14.280   5.176  90.474  1.00  0.00    -0.383 OA
HETATM   30  H   UNL     1      14.122   5.682  91.289  1.00  0.00     0.210 HD
ENDBRANCH  27  29
ENDBRANCH  26  27
BRANCH  26  31
HETATM   31  C   UNL     1      12.734   2.570  92.335  1.00  0.00     0.194 C 
HETATM   32  O   UNL     1      11.991   1.607  92.511  1.00  0.00    -0.289 OA
BRANCH  31  33
HETATM   33  C   UNL     1      13.463   3.189  93.322  1.00  0.00     0.053 C 
BRANCH  33  34
HETATM   34  C   UNL     1      14.488   2.423  93.894  1.00  0.00     0.220 C 
BRANCH  34  35
HETATM   35  O   UNL     1      14.551   1.346  93.272  1.00  0.00    -0.371 OA
HETATM   36  H   UNL     1      15.407   1.463  92.889  1.00  0.00     0.211 HD
ENDBRANCH  34  35
BRANCH  34  37
HETATM   37  C   UNL     1      15.726   3.088  93.937  1.00  0.00     0.185 C 
HETATM   38  O   UNL     1      14.963   4.169  93.973  1.00  0.00    -0.647 OA
BRANCH  37  39
HETATM   39  O   UNL     1      16.881   2.786  93.904  1.00  0.00    -0.774 OA
HETATM   40  H   UNL     1      17.018   1.666  93.789  1.00  0.00     0.167 HD
ENDBRANCH  37  39
ENDBRANCH  34  37
ENDBRANCH  33  34
ENDBRANCH  31  33
ENDBRANCH  26  31
ENDBRANCH  24  26
ENDBRANCH  19  22
ENDBRANCH  15  16
ENDBRANCH  11  14
ENDBRANCH   7   8
ENDBRANCH   2   7
TORSDOF 14
ENDMDL
