MODEL 1
REMARK VINA RESULT:      -6.9      0.000      0.000
REMARK  10 active torsions:
REMARK  status: ('A' for Active; 'I' for Inactive)
REMARK    1  A    between atoms: O_2  and  C_18 
REMARK    2  A    between atoms: O_5  and  N_8 
REMARK    3  A    between atoms: N_6  and  C_11 
REMARK    4  A    between atoms: N_7  and  C_15 
REMARK       I    between atoms: N_7  and  C_24 
REMARK       I    between atoms: N_8  and  C_23 
REMARK    5  A    between atoms: C_11  and  C_14 
REMARK    6  A    between atoms: C_15  and  C_18 
REMARK    7  A    between atoms: C_15  and  C_23 
REMARK    8  A    between atoms: C_21  and  C_26 
REMARK    9  A    between atoms: C_24  and  C_25 
REMARK   10  A    between atoms: C_29  and  C_32 
ROOT
HETATM    1  O   UNK     0      16.732   4.314  94.115  0.00  0.00    -0.388 OA
HETATM    2  N   UNK     0      14.847   2.659  92.771  0.00  0.00     0.096 N 
HETATM    3  C   UNK     0      14.723   4.123  92.768  0.00  0.00     0.299 C 
HETATM    4  C   UNK     0      15.524   2.214  93.996  0.00  0.00     0.299 C 
HETATM    5  C   UNK     0      16.103   4.759  92.912  0.00  0.00     0.198 C 
HETATM    6  C   UNK     0      16.885   2.894  94.112  0.00  0.00     0.198 C 
ENDROOT
BRANCH   2   7
HETATM    7  C   UNK     0      13.534   2.028  92.644  0.00  0.00     0.311 C 
BRANCH   7   8
HETATM    8  C   UNK     0      12.446   3.022  92.421  0.00  0.00    -0.030 A 
HETATM    9  C   UNK     0      11.941   3.226  91.137  0.00  0.00     0.010 A 
HETATM   10  C   UNK     0      10.924   4.157  90.927  0.00  0.00     0.021 A 
HETATM   11  C   UNK     0      10.411   4.882  92.002  0.00  0.00     0.018 A 
HETATM   12  C   UNK     0      10.914   4.679  93.286  0.00  0.00     0.021 A 
HETATM   13  C   UNK     0      11.932   3.748  93.496  0.00  0.00     0.010 A 
BRANCH  11  14
HETATM   14  C   UNK     0       9.366   5.836  91.787  0.00  0.00    -0.061 C 
HETATM   15  C   UNK     0       8.488   6.637  91.607  0.00  0.00    -0.061 C 
BRANCH  15  16
HETATM   16  C   UNK     0       7.444   7.588  91.392  0.00  0.00     0.018 A 
HETATM   17  C   UNK     0       7.736   8.953  91.383  0.00  0.00     0.022 A 
HETATM   18  C   UNK     0       6.717   9.882  91.170  0.00  0.00     0.018 A 
HETATM   19  C   UNK     0       5.431   9.427  90.971  0.00  0.00     0.032 A 
HETATM   20  C   UNK     0       5.116   8.084  90.975  0.00  0.00     0.018 A 
HETATM   21  C   UNK     0       6.134   7.155  91.189  0.00  0.00     0.022 A 
BRANCH  19  22
HETATM   22  C   UNK     0       4.346  10.417  90.746  0.00  0.00     0.252 C 
HETATM   23  O   UNK     0       3.185  10.102  90.996  0.00  0.00    -0.268 OA
HETATM   24  N   UNK     0       4.746  11.662  90.282  0.00  0.00    -0.341 N 
HETATM   25  H   UNK     0       5.727  11.859  90.121  0.00  0.00     0.163 HD
BRANCH  24  26
HETATM   26  C   UNK     0       3.815  12.735  90.039  0.00  0.00     0.207 C 
BRANCH  26  27
HETATM   27  C   UNK     0       3.571  13.602  91.281  0.00  0.00     0.146 C 
HETATM   28  C   UNK     0       2.141  13.491  91.798  0.00  0.00     0.042 C 
BRANCH  27  29
HETATM   29  O   UNK     0       4.471  13.213  92.319  0.00  0.00    -0.393 OA
HETATM   30  H   UNK     0       4.040  13.381  93.174  0.00  0.00     0.210 HD
ENDBRANCH  27  29
ENDBRANCH  26  27
BRANCH  26  31
HETATM   31  C   UNK     0       4.355  13.567  88.880  0.00  0.00     0.266 C 
HETATM   32  O   UNK     0       4.655  14.754  88.990  0.00  0.00    -0.269 OA
HETATM   33  N   UNK     0       4.425  12.846  87.712  0.00  0.00    -0.236 N 
HETATM   34  H   UNK     0       4.104  11.896  87.566  0.00  0.00     0.197 HD
BRANCH  33  35
HETATM   35  O   UNK     0       4.877  13.550  86.587  0.00  0.00    -0.287 OA
HETATM   36  H   UNK     0       5.831  13.582  86.772  0.00  0.00     0.244 HD
ENDBRANCH  33  35
ENDBRANCH  26  31
ENDBRANCH  24  26
ENDBRANCH  19  22
ENDBRANCH  15  16
ENDBRANCH  11  14
ENDBRANCH   7   8
ENDBRANCH   2   7
TORSDOF 10
ENDMDL
MODEL 2
REMARK VINA RESULT:      -6.7      1.425      1.959
REMARK  10 active torsions:
REMARK  status: ('A' for Active; 'I' for Inactive)
REMARK    1  A    between atoms: O_2  and  C_18 
REMARK    2  A    between atoms: O_5  and  N_8 
REMARK    3  A    between atoms: N_6  and  C_11 
REMARK    4  A    between atoms: N_7  and  C_15 
REMARK       I    between atoms: N_7  and  C_24 
REMARK       I    between atoms: N_8  and  C_23 
REMARK    5  A    between atoms: C_11  and  C_14 
REMARK    6  A    between atoms: C_15  and  C_18 
REMARK    7  A    between atoms: C_15  and  C_23 
REMARK    8  A    between atoms: C_21  and  C_26 
REMARK    9  A    between atoms: C_24  and  C_25 
REMARK   10  A    between atoms: C_29  and  C_32 
ROOT
HETATM    1  O   UNK     0      16.520   3.262  93.834  0.00  0.00    -0.388 OA
HETATM    2  N   UNK     0      13.927   3.018  92.686  0.00  0.00     0.096 N 
HETATM    3  C   UNK     0      14.762   1.839  92.955  0.00  0.00     0.299 C 
HETATM    4  C   UNK     0      14.777   4.186  92.422  0.00  0.00     0.299 C 
HETATM    5  C   UNK     0      15.702   2.127  94.123  0.00  0.00     0.198 C 
HETATM    6  C   UNK     0      15.717   4.420  93.601  0.00  0.00     0.198 C 
ENDROOT
BRANCH   2   7
HETATM    7  C   UNK     0      13.025   2.768  91.563  0.00  0.00     0.311 C 
BRANCH   7   8
HETATM    8  C   UNK     0      11.878   3.720  91.533  0.00  0.00    -0.030 A 
HETATM    9  C   UNK     0      11.365   4.155  90.311  0.00  0.00     0.010 A 
HETATM   10  C   UNK     0      10.293   5.047  90.282  0.00  0.00     0.021 A 
HETATM   11  C   UNK     0       9.734   5.502  91.475  0.00  0.00     0.018 A 
HETATM   12  C   UNK     0      10.245   5.068  92.697  0.00  0.00     0.021 A 
HETATM   13  C   UNK     0      11.317   4.176  92.726  0.00  0.00     0.010 A 
BRANCH  11  14
HETATM   14  C   UNK     0       8.633   6.415  91.445  0.00  0.00    -0.061 C 
HETATM   15  C   UNK     0       7.708   7.183  91.420  0.00  0.00    -0.061 C 
BRANCH  15  16
HETATM   16  C   UNK     0       6.609   8.096  91.391  0.00  0.00     0.018 A 
HETATM   17  C   UNK     0       5.896   8.365  92.560  0.00  0.00     0.022 A 
HETATM   18  C   UNK     0       4.825   9.258  92.532  0.00  0.00     0.018 A 
HETATM   19  C   UNK     0       4.491   9.862  91.338  0.00  0.00     0.032 A 
HETATM   20  C   UNK     0       5.179   9.613  90.170  0.00  0.00     0.018 A 
HETATM   21  C   UNK     0       6.250   8.720  90.196  0.00  0.00     0.022 A 
BRANCH  19  22
HETATM   22  C   UNK     0       3.348  10.812  91.310  0.00  0.00     0.252 C 
HETATM   23  O   UNK     0       2.237  10.403  90.980  0.00  0.00    -0.268 OA
HETATM   24  N   UNK     0       3.631  12.116  91.692  0.00  0.00    -0.341 N 
HETATM   25  H   UNK     0       4.569  12.375  91.976  0.00  0.00     0.163 HD
BRANCH  24  26
HETATM   26  C   UNK     0       2.625  13.146  91.739  0.00  0.00     0.207 C 
BRANCH  26  27
HETATM   27  C   UNK     0       2.588  13.878  93.086  0.00  0.00     0.146 C 
HETATM   28  C   UNK     0       3.774  13.524  93.976  0.00  0.00     0.042 C 
BRANCH  27  29
HETATM   29  O   UNK     0       2.580  15.288  92.863  0.00  0.00    -0.393 OA
HETATM   30  H   UNK     0       2.505  15.445  91.907  0.00  0.00     0.210 HD
ENDBRANCH  27  29
ENDBRANCH  26  27
BRANCH  26  31
HETATM   31  C   UNK     0       2.894  14.112  90.590  0.00  0.00     0.266 C 
HETATM   32  O   UNK     0       2.004  14.555  89.866  0.00  0.00    -0.269 OA
HETATM   33  N   UNK     0       4.232  14.388  90.445  0.00  0.00    -0.236 N 
HETATM   34  H   UNK     0       4.996  13.972  90.965  0.00  0.00     0.197 HD
BRANCH  33  35
HETATM   35  O   UNK     0       4.568  15.241  89.384  0.00  0.00    -0.287 OA
HETATM   36  H   UNK     0       4.744  14.588  88.685  0.00  0.00     0.244 HD
ENDBRANCH  33  35
ENDBRANCH  26  31
ENDBRANCH  24  26
ENDBRANCH  19  22
ENDBRANCH  15  16
ENDBRANCH  11  14
ENDBRANCH   7   8
ENDBRANCH   2   7
TORSDOF 10
ENDMDL
MODEL 3
REMARK VINA RESULT:      -5.8      1.597      2.236
REMARK  10 active torsions:
REMARK  status: ('A' for Active; 'I' for Inactive)
REMARK    1  A    between atoms: O_2  and  C_18 
REMARK    2  A    between atoms: O_5  and  N_8 
REMARK    3  A    between atoms: N_6  and  C_11 
REMARK    4  A    between atoms: N_7  and  C_15 
REMARK       I    between atoms: N_7  and  C_24 
REMARK       I    between atoms: N_8  and  C_23 
REMARK    5  A    between atoms: C_11  and  C_14 
REMARK    6  A    between atoms: C_15  and  C_18 
REMARK    7  A    between atoms: C_15  and  C_23 
REMARK    8  A    between atoms: C_21  and  C_26 
REMARK    9  A    between atoms: C_24  and  C_25 
REMARK   10  A    between atoms: C_29  and  C_32 
ROOT
HETATM    1  O   UNK     0      17.238   3.006  93.936  0.00  0.00    -0.388 OA
HETATM    2  N   UNK     0      14.698   2.929  92.654  0.00  0.00     0.096 N 
HETATM    3  C   UNK     0      14.871   3.540  93.979  0.00  0.00     0.299 C 
HETATM    4  C   UNK     0      15.690   1.864  92.458  0.00  0.00     0.299 C 
HETATM    5  C   UNK     0      16.297   4.065  94.124  0.00  0.00     0.198 C 
HETATM    6  C   UNK     0      17.097   2.427  92.638  0.00  0.00     0.198 C 
ENDROOT
BRANCH   2   7
HETATM    7  C   UNK     0      13.341   2.409  92.497  0.00  0.00     0.311 C 
BRANCH   7   8
HETATM    8  C   UNK     0      12.366   3.472  92.120  0.00  0.00    -0.030 A 
HETATM    9  C   UNK     0      12.185   3.806  90.777  0.00  0.00     0.010 A 
HETATM   10  C   UNK     0      11.275   4.802  90.423  0.00  0.00     0.021 A 
HETATM   11  C   UNK     0      10.544   5.461  91.411  0.00  0.00     0.018 A 
HETATM   12  C   UNK     0      10.724   5.127  92.752  0.00  0.00     0.021 A 
HETATM   13  C   UNK     0      11.634   4.132  93.107  0.00  0.00     0.010 A 
BRANCH  11  14
HETATM   14  C   UNK     0       9.609   6.481  91.047  0.00  0.00    -0.061 C 
HETATM   15  C   UNK     0       8.823   7.338  90.741  0.00  0.00    -0.061 C 
BRANCH  15  16
HETATM   16  C   UNK     0       7.890   8.357  90.379  0.00  0.00     0.018 A 
HETATM   17  C   UNK     0       6.533   8.189  90.656  0.00  0.00     0.022 A 
HETATM   18  C   UNK     0       5.622   9.185  90.304  0.00  0.00     0.018 A 
HETATM   19  C   UNK     0       6.087  10.326  89.684  0.00  0.00     0.032 A 
HETATM   20  C   UNK     0       7.423  10.515  89.398  0.00  0.00     0.018 A 
HETATM   21  C   UNK     0       8.334   9.519  89.749  0.00  0.00     0.022 A 
BRANCH  19  22
HETATM   22  C   UNK     0       5.116  11.385  89.307  0.00  0.00     0.252 C 
HETATM   23  O   UNK     0       4.445  11.249  88.286  0.00  0.00    -0.268 OA
HETATM   24  N   UNK     0       5.024  12.463  90.177  0.00  0.00    -0.341 N 
HETATM   25  H   UNK     0       5.592  12.495  91.015  0.00  0.00     0.163 HD
BRANCH  24  26
HETATM   26  C   UNK     0       4.112  13.557  89.962  0.00  0.00     0.207 C 
BRANCH  26  27
HETATM   27  C   UNK     0       2.653  13.178  90.247  0.00  0.00     0.146 C 
HETATM   28  C   UNK     0       2.518  12.214  91.420  0.00  0.00     0.042 C 
BRANCH  27  29
HETATM   29  O   UNK     0       1.899  14.358  90.528  0.00  0.00    -0.393 OA
HETATM   30  H   UNK     0       0.961  14.111  90.596  0.00  0.00     0.210 HD
ENDBRANCH  27  29
ENDBRANCH  26  27
BRANCH  26  31
HETATM   31  C   UNK     0       4.564  14.720  90.840  0.00  0.00     0.266 C 
HETATM   32  O   UNK     0       5.293  15.622  90.433  0.00  0.00    -0.269 OA
HETATM   33  N   UNK     0       4.095  14.611  92.127  0.00  0.00    -0.236 N 
HETATM   34  H   UNK     0       3.569  13.838  92.518  0.00  0.00     0.197 HD
BRANCH  33  35
HETATM   35  O   UNK     0       4.498  15.623  93.010  0.00  0.00    -0.287 OA
HETATM   36  H   UNK     0       4.981  15.096  93.670  0.00  0.00     0.244 HD
ENDBRANCH  33  35
ENDBRANCH  26  31
ENDBRANCH  24  26
ENDBRANCH  19  22
ENDBRANCH  15  16
ENDBRANCH  11  14
ENDBRANCH   7   8
ENDBRANCH   2   7
TORSDOF 10
ENDMDL
MODEL 4
REMARK VINA RESULT:      -5.8      1.648      2.162
REMARK  10 active torsions:
REMARK  status: ('A' for Active; 'I' for Inactive)
REMARK    1  A    between atoms: O_2  and  C_18 
REMARK    2  A    between atoms: O_5  and  N_8 
REMARK    3  A    between atoms: N_6  and  C_11 
REMARK    4  A    between atoms: N_7  and  C_15 
REMARK       I    between atoms: N_7  and  C_24 
REMARK       I    between atoms: N_8  and  C_23 
REMARK    5  A    between atoms: C_11  and  C_14 
REMARK    6  A    between atoms: C_15  and  C_18 
REMARK    7  A    between atoms: C_15  and  C_23 
REMARK    8  A    between atoms: C_21  and  C_26 
REMARK    9  A    between atoms: C_24  and  C_25 
REMARK   10  A    between atoms: C_29  and  C_32 
ROOT
HETATM    1  O   UNK     0      17.074   3.387  93.566  0.00  0.00    -0.388 OA
HETATM    2  N   UNK     0      14.267   2.963  93.365  0.00  0.00     0.096 N 
HETATM    3  C   UNK     0      15.216   1.841  93.345  0.00  0.00     0.299 C 
HETATM    4  C   UNK     0      14.902   4.170  92.821  0.00  0.00     0.299 C 
HETATM    5  C   UNK     0      16.475   2.215  94.123  0.00  0.00     0.198 C 
HETATM    6  C   UNK     0      16.168   4.490  93.611  0.00  0.00     0.198 C 
ENDROOT
BRANCH   2   7
HETATM    7  C   UNK     0      13.057   2.630  92.615  0.00  0.00     0.311 C 
BRANCH   7   8
HETATM    8  C   UNK     0      12.040   3.719  92.667  0.00  0.00    -0.030 A 
HETATM    9  C   UNK     0      11.352   4.085  91.509  0.00  0.00     0.010 A 
HETATM   10  C   UNK     0      10.402   5.105  91.555  0.00  0.00     0.021 A 
HETATM   11  C   UNK     0      10.139   5.757  92.759  0.00  0.00     0.018 A 
HETATM   12  C   UNK     0      10.824   5.392  93.916  0.00  0.00     0.021 A 
HETATM   13  C   UNK     0      11.775   4.373  93.870  0.00  0.00     0.010 A 
BRANCH  11  14
HETATM   14  C   UNK     0       9.162   6.802  92.807  0.00  0.00    -0.061 C 
HETATM   15  C   UNK     0       8.342   7.680  92.847  0.00  0.00    -0.061 C 
BRANCH  15  16
HETATM   16  C   UNK     0       7.368   8.724  92.894  0.00  0.00     0.018 A 
HETATM   17  C   UNK     0       6.561   8.975  91.783  0.00  0.00     0.022 A 
HETATM   18  C   UNK     0       5.609   9.993  91.829  0.00  0.00     0.018 A 
HETATM   19  C   UNK     0       5.483  10.737  92.983  0.00  0.00     0.032 A 
HETATM   20  C   UNK     0       6.268  10.509  94.094  0.00  0.00     0.018 A 
HETATM   21  C   UNK     0       7.221   9.492  94.049  0.00  0.00     0.022 A 
BRANCH  19  22
HETATM   22  C   UNK     0       4.470  11.822  93.031  0.00  0.00     0.252 C 
HETATM   23  O   UNK     0       4.106  12.256  94.122  0.00  0.00    -0.268 OA
HETATM   24  N   UNK     0       4.020  12.289  91.804  0.00  0.00    -0.341 N 
HETATM   25  H   UNK     0       4.385  11.900  90.942  0.00  0.00     0.163 HD
BRANCH  24  26
HETATM   26  C   UNK     0       3.057  13.354  91.684  0.00  0.00     0.207 C 
BRANCH  26  27
HETATM   27  C   UNK     0       3.293  14.483  92.696  0.00  0.00     0.146 C 
HETATM   28  C   UNK     0       4.294  15.517  92.193  0.00  0.00     0.042 C 
BRANCH  27  29
HETATM   29  O   UNK     0       2.055  15.136  92.979  0.00  0.00    -0.393 OA
HETATM   30  H   UNK     0       1.342  14.637  92.547  0.00  0.00     0.210 HD
ENDBRANCH  27  29
ENDBRANCH  26  27
BRANCH  26  31
HETATM   31  C   UNK     0       3.111  13.873  90.251  0.00  0.00     0.266 C 
HETATM   32  O   UNK     0       2.183  14.483  89.724  0.00  0.00    -0.269 OA
HETATM   33  N   UNK     0       4.289  13.544  89.625  0.00  0.00    -0.236 N 
HETATM   34  H   UNK     0       5.035  12.969  89.998  0.00  0.00     0.197 HD
BRANCH  33  35
HETATM   35  O   UNK     0       4.404  13.953  88.288  0.00  0.00    -0.287 OA
HETATM   36  H   UNK     0       4.930  13.219  87.926  0.00  0.00     0.244 HD
ENDBRANCH  33  35
ENDBRANCH  26  31
ENDBRANCH  24  26
ENDBRANCH  19  22
ENDBRANCH  15  16
ENDBRANCH  11  14
ENDBRANCH   7   8
ENDBRANCH   2   7
TORSDOF 10
ENDMDL
MODEL 5
REMARK VINA RESULT:      -5.7      1.460      2.541
REMARK  10 active torsions:
REMARK  status: ('A' for Active; 'I' for Inactive)
REMARK    1  A    between atoms: O_2  and  C_18 
REMARK    2  A    between atoms: O_5  and  N_8 
REMARK    3  A    between atoms: N_6  and  C_11 
REMARK    4  A    between atoms: N_7  and  C_15 
REMARK       I    between atoms: N_7  and  C_24 
REMARK       I    between atoms: N_8  and  C_23 
REMARK    5  A    between atoms: C_11  and  C_14 
REMARK    6  A    between atoms: C_15  and  C_18 
REMARK    7  A    between atoms: C_15  and  C_23 
REMARK    8  A    between atoms: C_21  and  C_26 
REMARK    9  A    between atoms: C_24  and  C_25 
REMARK   10  A    between atoms: C_29  and  C_32 
ROOT
HETATM    1  O   UNK     0      16.949   3.430  93.301  0.00  0.00    -0.388 OA
HETATM    2  N   UNK     0      14.157   2.892  93.435  0.00  0.00     0.096 N 
HETATM    3  C   UNK     0      15.152   1.816  93.544  0.00  0.00     0.299 C 
HETATM    4  C   UNK     0      14.689   3.989  92.616  0.00  0.00     0.299 C 
HETATM    5  C   UNK     0      16.452   2.371  94.122  0.00  0.00     0.198 C 
HETATM    6  C   UNK     0      15.999   4.493  93.215  0.00  0.00     0.198 C 
ENDROOT
BRANCH   2   7
HETATM    7  C   UNK     0      12.906   2.385  92.873  0.00  0.00     0.311 C 
BRANCH   7   8
HETATM    8  C   UNK     0      11.907   3.467  92.641  0.00  0.00    -0.030 A 
HETATM    9  C   UNK     0      11.255   3.560  91.411  0.00  0.00     0.010 A 
HETATM   10  C   UNK     0      10.322   4.574  91.192  0.00  0.00     0.021 A 
HETATM   11  C   UNK     0      10.040   5.491  92.204  0.00  0.00     0.018 A 
HETATM   12  C   UNK     0      10.691   5.399  93.432  0.00  0.00     0.021 A 
HETATM   13  C   UNK     0      11.625   4.386  93.651  0.00  0.00     0.010 A 
BRANCH  11  14
HETATM   14  C   UNK     0       9.082   6.530  91.980  0.00  0.00    -0.061 C 
HETATM   15  C   UNK     0       8.276   7.402  91.793  0.00  0.00    -0.061 C 
BRANCH  15  16
HETATM   16  C   UNK     0       7.318   8.438  91.569  0.00  0.00     0.018 A 
HETATM   17  C   UNK     0       6.572   8.939  92.638  0.00  0.00     0.022 A 
HETATM   18  C   UNK     0       5.638   9.952  92.420  0.00  0.00     0.018 A 
HETATM   19  C   UNK     0       5.470  10.441  91.142  0.00  0.00     0.032 A 
HETATM   20  C   UNK     0       6.193   9.963  90.070  0.00  0.00     0.018 A 
HETATM   21  C   UNK     0       7.127   8.950  90.286  0.00  0.00     0.022 A 
BRANCH  19  22
HETATM   22  C   UNK     0       4.473  11.519  90.911  0.00  0.00     0.252 C 
HETATM   23  O   UNK     0       3.441  11.260  90.297  0.00  0.00    -0.268 OA
HETATM   24  N   UNK     0       4.786  12.761  91.445  0.00  0.00    -0.341 N 
HETATM   25  H   UNK     0       5.647  12.895  91.963  0.00  0.00     0.163 HD
BRANCH  24  26
HETATM   26  C   UNK     0       3.910  13.899  91.326  0.00  0.00     0.207 C 
BRANCH  26  27
HETATM   27  C   UNK     0       3.830  14.439  89.892  0.00  0.00     0.146 C 
HETATM   28  C   UNK     0       5.205  14.658  89.273  0.00  0.00     0.042 C 
BRANCH  27  29
HETATM   29  O   UNK     0       3.095  13.526  89.079  0.00  0.00    -0.393 OA
HETATM   30  H   UNK     0       2.711  14.020  88.335  0.00  0.00     0.210 HD
ENDBRANCH  27  29
ENDBRANCH  26  27
BRANCH  26  31
HETATM   31  C   UNK     0       2.536  13.485  91.840  0.00  0.00     0.266 C 
HETATM   32  O   UNK     0       1.500  14.069  91.528  0.00  0.00    -0.269 OA
HETATM   33  N   UNK     0       2.605  12.423  92.710  0.00  0.00    -0.236 N 
HETATM   34  H   UNK     0       3.446  11.978  93.057  0.00  0.00     0.197 HD
BRANCH  33  35
HETATM   35  O   UNK     0       1.385  12.004  93.259  0.00  0.00    -0.287 OA
HETATM   36  H   UNK     0       1.100  11.366  92.583  0.00  0.00     0.244 HD
ENDBRANCH  33  35
ENDBRANCH  26  31
ENDBRANCH  24  26
ENDBRANCH  19  22
ENDBRANCH  15  16
ENDBRANCH  11  14
ENDBRANCH   7   8
ENDBRANCH   2   7
TORSDOF 10
ENDMDL
MODEL 6
REMARK VINA RESULT:      -5.3      2.607     12.439
REMARK  10 active torsions:
REMARK  status: ('A' for Active; 'I' for Inactive)
REMARK    1  A    between atoms: O_2  and  C_18 
REMARK    2  A    between atoms: O_5  and  N_8 
REMARK    3  A    between atoms: N_6  and  C_11 
REMARK    4  A    between atoms: N_7  and  C_15 
REMARK       I    between atoms: N_7  and  C_24 
REMARK       I    between atoms: N_8  and  C_23 
REMARK    5  A    between atoms: C_11  and  C_14 
REMARK    6  A    between atoms: C_15  and  C_18 
REMARK    7  A    between atoms: C_15  and  C_23 
REMARK    8  A    between atoms: C_21  and  C_26 
REMARK    9  A    between atoms: C_24  and  C_25 
REMARK   10  A    between atoms: C_29  and  C_32 
ROOT
HETATM    1  O   UNK     0       2.811  14.993  93.979  0.00  0.00    -0.388 OA
HETATM    2  N   UNK     0       2.636  14.543  91.174  0.00  0.00     0.096 N 
HETATM    3  C   UNK     0       1.640  13.992  92.104  0.00  0.00     0.299 C 
HETATM    4  C   UNK     0       3.933  14.682  91.850  0.00  0.00     0.299 C 
HETATM    5  C   UNK     0       1.539  14.883  93.339  0.00  0.00     0.198 C 
HETATM    6  C   UNK     0       3.778  15.556  93.092  0.00  0.00     0.198 C 
ENDROOT
BRANCH   2   7
HETATM    7  C   UNK     0       2.758  13.698  89.987  0.00  0.00     0.311 C 
BRANCH   7   8
HETATM    8  C   UNK     0       3.783  12.629  90.153  0.00  0.00    -0.030 A 
HETATM    9  C   UNK     0       3.518  11.531  90.972  0.00  0.00     0.010 A 
HETATM   10  C   UNK     0       4.477  10.531  91.130  0.00  0.00     0.021 A 
HETATM   11  C   UNK     0       5.700  10.628  90.467  0.00  0.00     0.018 A 
HETATM   12  C   UNK     0       5.966  11.724  89.649  0.00  0.00     0.021 A 
HETATM   13  C   UNK     0       5.007  12.725  89.491  0.00  0.00     0.010 A 
BRANCH  11  14
HETATM   14  C   UNK     0       6.683   9.601  90.627  0.00  0.00    -0.061 C 
HETATM   15  C   UNK     0       7.510   8.738  90.762  0.00  0.00    -0.061 C 
BRANCH  15  16
HETATM   16  C   UNK     0       8.492   7.713  90.921  0.00  0.00     0.018 A 
HETATM   17  C   UNK     0       9.007   7.432  92.187  0.00  0.00     0.022 A 
HETATM   18  C   UNK     0       9.964   6.429  92.343  0.00  0.00     0.018 A 
HETATM   19  C   UNK     0      10.385   5.730  91.231  0.00  0.00     0.032 A 
HETATM   20  C   UNK     0       9.892   5.989  89.969  0.00  0.00     0.018 A 
HETATM   21  C   UNK     0       8.935   6.992  89.813  0.00  0.00     0.022 A 
BRANCH  19  22
HETATM   22  C   UNK     0      11.406   4.664  91.397  0.00  0.00     0.252 C 
HETATM   23  O   UNK     0      11.725   3.983  90.426  0.00  0.00    -0.268 OA
HETATM   24  N   UNK     0      11.950   4.536  92.668  0.00  0.00    -0.341 N 
HETATM   25  H   UNK     0      11.655   5.151  93.417  0.00  0.00     0.163 HD
BRANCH  24  26
HETATM   26  C   UNK     0      12.968   3.565  92.981  0.00  0.00     0.207 C 
BRANCH  26  27
HETATM   27  C   UNK     0      12.833   2.277  92.160  0.00  0.00     0.146 C 
HETATM   28  C   UNK     0      13.895   1.243  92.516  0.00  0.00     0.042 C 
BRANCH  27  29
HETATM   29  O   UNK     0      11.542   1.707  92.374  0.00  0.00    -0.393 OA
HETATM   30  H   UNK     0      11.439   1.533  93.325  0.00  0.00     0.210 HD
ENDBRANCH  27  29
ENDBRANCH  26  27
BRANCH  26  31
HETATM   31  C   UNK     0      14.325   4.225  92.760  0.00  0.00     0.266 C 
HETATM   32  O   UNK     0      14.711   4.608  91.657  0.00  0.00    -0.269 OA
HETATM   33  N   UNK     0      15.061   4.299  93.917  0.00  0.00    -0.236 N 
HETATM   34  H   UNK     0      14.812   3.914  94.820  0.00  0.00     0.197 HD
BRANCH  33  35
HETATM   35  O   UNK     0      16.340   4.859  93.791  0.00  0.00    -0.287 OA
HETATM   36  H   UNK     0      16.623   4.858  94.721  0.00  0.00     0.244 HD
ENDBRANCH  33  35
ENDBRANCH  26  31
ENDBRANCH  24  26
ENDBRANCH  19  22
ENDBRANCH  15  16
ENDBRANCH  11  14
ENDBRANCH   7   8
ENDBRANCH   2   7
TORSDOF 10
ENDMDL
MODEL 7
REMARK VINA RESULT:      -5.3      2.054     12.551
REMARK  10 active torsions:
REMARK  status: ('A' for Active; 'I' for Inactive)
REMARK    1  A    between atoms: O_2  and  C_18 
REMARK    2  A    between atoms: O_5  and  N_8 
REMARK    3  A    between atoms: N_6  and  C_11 
REMARK    4  A    between atoms: N_7  and  C_15 
REMARK       I    between atoms: N_7  and  C_24 
REMARK       I    between atoms: N_8  and  C_23 
REMARK    5  A    between atoms: C_11  and  C_14 
REMARK    6  A    between atoms: C_15  and  C_18 
REMARK    7  A    between atoms: C_15  and  C_23 
REMARK    8  A    between atoms: C_21  and  C_26 
REMARK    9  A    between atoms: C_24  and  C_25 
REMARK   10  A    between atoms: C_29  and  C_32 
ROOT
HETATM    1  O   UNK     0       2.948  14.201  92.387  0.00  0.00    -0.388 OA
HETATM    2  N   UNK     0       3.881  14.003  89.705  0.00  0.00     0.096 N 
HETATM    3  C   UNK     0       2.786  13.158  90.201  0.00  0.00     0.299 C 
HETATM    4  C   UNK     0       4.784  14.356  90.809  0.00  0.00     0.299 C 
HETATM    5  C   UNK     0       2.047  13.878  91.326  0.00  0.00     0.198 C 
HETATM    6  C   UNK     0       3.999  15.047  91.920  0.00  0.00     0.198 C 
ENDROOT
BRANCH   2   7
HETATM    7  C   UNK     0       4.611  13.328  88.633  0.00  0.00     0.311 C 
BRANCH   7   8
HETATM    8  C   UNK     0       5.461  12.213  89.139  0.00  0.00    -0.030 A 
HETATM    9  C   UNK     0       4.894  11.205  89.921  0.00  0.00     0.010 A 
HETATM   10  C   UNK     0       5.689  10.162  90.397  0.00  0.00     0.021 A 
HETATM   11  C   UNK     0       7.049  10.127  90.088  0.00  0.00     0.018 A 
HETATM   12  C   UNK     0       7.615  11.132  89.308  0.00  0.00     0.021 A 
HETATM   13  C   UNK     0       6.821  12.176  88.832  0.00  0.00     0.010 A 
BRANCH  11  14
HETATM   14  C   UNK     0       7.863   9.056  90.575  0.00  0.00    -0.061 C 
HETATM   15  C   UNK     0       8.548   8.155  90.983  0.00  0.00    -0.061 C 
BRANCH  15  16
HETATM   16  C   UNK     0       9.360   7.086  91.470  0.00  0.00     0.018 A 
HETATM   17  C   UNK     0       9.878   6.144  90.580  0.00  0.00     0.022 A 
HETATM   18  C   UNK     0      10.673   5.100  91.054  0.00  0.00     0.018 A 
HETATM   19  C   UNK     0      10.933   5.022  92.406  0.00  0.00     0.032 A 
HETATM   20  C   UNK     0      10.434   5.940  93.306  0.00  0.00     0.018 A 
HETATM   21  C   UNK     0       9.638   6.983  92.833  0.00  0.00     0.022 A 
BRANCH  19  22
HETATM   22  C   UNK     0      11.779   3.909  92.911  0.00  0.00     0.252 C 
HETATM   23  O   UNK     0      11.287   2.790  93.034  0.00  0.00    -0.268 OA
HETATM   24  N   UNK     0      13.101   4.228  93.189  0.00  0.00    -0.341 N 
HETATM   25  H   UNK     0      13.444   5.170  93.040  0.00  0.00     0.163 HD
BRANCH  24  26
HETATM   26  C   UNK     0      14.051   3.253  93.662  0.00  0.00     0.207 C 
BRANCH  26  27
HETATM   27  C   UNK     0      14.112   2.004  92.774  0.00  0.00     0.146 C 
HETATM   28  C   UNK     0      14.893   2.242  91.486  0.00  0.00     0.042 C 
BRANCH  27  29
HETATM   29  O   UNK     0      14.722   0.935  93.495  0.00  0.00    -0.393 OA
HETATM   30  H   UNK     0      15.670   1.129  93.585  0.00  0.00     0.210 HD
ENDBRANCH  27  29
ENDBRANCH  26  27
BRANCH  26  31
HETATM   31  C   UNK     0      15.411   3.936  93.755  0.00  0.00     0.266 C 
HETATM   32  O   UNK     0      15.574   5.136  93.546  0.00  0.00    -0.269 OA
HETATM   33  N   UNK     0      16.417   3.049  94.057  0.00  0.00    -0.236 N 
HETATM   34  H   UNK     0      16.332   2.043  94.147  0.00  0.00     0.197 HD
BRANCH  33  35
HETATM   35  O   UNK     0      17.708   3.591  94.123  0.00  0.00    -0.287 OA
HETATM   36  H   UNK     0      18.197   2.943  93.588  0.00  0.00     0.244 HD
ENDBRANCH  33  35
ENDBRANCH  26  31
ENDBRANCH  24  26
ENDBRANCH  19  22
ENDBRANCH  15  16
ENDBRANCH  11  14
ENDBRANCH   7   8
ENDBRANCH   2   7
TORSDOF 10
ENDMDL
MODEL 8
REMARK VINA RESULT:      -5.0      1.905      2.407
REMARK  10 active torsions:
REMARK  status: ('A' for Active; 'I' for Inactive)
REMARK    1  A    between atoms: O_2  and  C_18 
REMARK    2  A    between atoms: O_5  and  N_8 
REMARK    3  A    between atoms: N_6  and  C_11 
REMARK    4  A    between atoms: N_7  and  C_15 
REMARK       I    between atoms: N_7  and  C_24 
REMARK       I    between atoms: N_8  and  C_23 
REMARK    5  A    between atoms: C_11  and  C_14 
REMARK    6  A    between atoms: C_15  and  C_18 
REMARK    7  A    between atoms: C_15  and  C_23 
REMARK    8  A    between atoms: C_21  and  C_26 
REMARK    9  A    between atoms: C_24  and  C_25 
REMARK   10  A    between atoms: C_29  and  C_32 
ROOT
HETATM    1  O   UNK     0      17.106   3.463  93.790  0.00  0.00    -0.388 OA
HETATM    2  N   UNK     0      14.446   3.153  92.825  0.00  0.00     0.096 N 
HETATM    3  C   UNK     0      14.766   4.096  93.906  0.00  0.00     0.299 C 
HETATM    4  C   UNK     0      15.393   2.031  92.840  0.00  0.00     0.299 C 
HETATM    5  C   UNK     0      16.209   4.575  93.764  0.00  0.00     0.198 C 
HETATM    6  C   UNK     0      16.821   2.557  92.724  0.00  0.00     0.198 C 
ENDROOT
BRANCH   2   7
HETATM    7  C   UNK     0      13.070   2.674  92.947  0.00  0.00     0.311 C 
BRANCH   7   8
HETATM    8  C   UNK     0      12.076   3.785  92.917  0.00  0.00    -0.030 A 
HETATM    9  C   UNK     0      11.654   4.374  94.109  0.00  0.00     0.010 A 
HETATM   10  C   UNK     0      10.723   5.412  94.082  0.00  0.00     0.021 A 
HETATM   11  C   UNK     0      10.216   5.861  92.863  0.00  0.00     0.018 A 
HETATM   12  C   UNK     0      10.637   5.273  91.672  0.00  0.00     0.021 A 
HETATM   13  C   UNK     0      11.568   4.235  91.699  0.00  0.00     0.010 A 
BRANCH  11  14
HETATM   14  C   UNK     0       9.262   6.927  92.836  0.00  0.00    -0.061 C 
HETATM   15  C   UNK     0       8.461   7.823  92.812  0.00  0.00    -0.061 C 
BRANCH  15  16
HETATM   16  C   UNK     0       7.509   8.888  92.783  0.00  0.00     0.018 A 
HETATM   17  C   UNK     0       7.405   9.699  91.652  0.00  0.00     0.022 A 
HETATM   18  C   UNK     0       6.474  10.738  91.623  0.00  0.00     0.018 A 
HETATM   19  C   UNK     0       5.669  10.943  92.724  0.00  0.00     0.032 A 
HETATM   20  C   UNK     0       5.753  10.156  93.854  0.00  0.00     0.018 A 
HETATM   21  C   UNK     0       6.683   9.118  93.884  0.00  0.00     0.022 A 
BRANCH  19  22
HETATM   22  C   UNK     0       4.680  12.051  92.693  0.00  0.00     0.252 C 
HETATM   23  O   UNK     0       4.801  12.986  93.481  0.00  0.00    -0.268 OA
HETATM   24  N   UNK     0       3.682  11.949  91.733  0.00  0.00    -0.341 N 
HETATM   25  H   UNK     0       3.660  11.159  91.099  0.00  0.00     0.163 HD
BRANCH  24  26
HETATM   26  C   UNK     0       2.665  12.955  91.562  0.00  0.00     0.207 C 
BRANCH  26  27
HETATM   27  C   UNK     0       1.570  12.879  92.634  0.00  0.00     0.146 C 
HETATM   28  C   UNK     0       1.332  11.456  93.127  0.00  0.00     0.042 C 
BRANCH  27  29
HETATM   29  O   UNK     0       1.931  13.700  93.744  0.00  0.00    -0.393 OA
HETATM   30  H   UNK     0       1.818  14.630  93.485  0.00  0.00     0.210 HD
ENDBRANCH  27  29
ENDBRANCH  26  27
BRANCH  26  31
HETATM   31  C   UNK     0       3.351  14.317  91.566  0.00  0.00     0.266 C 
HETATM   32  O   UNK     0       2.985  15.249  92.280  0.00  0.00    -0.269 OA
HETATM   33  N   UNK     0       4.382  14.381  90.661  0.00  0.00    -0.236 N 
HETATM   34  H   UNK     0       4.652  13.665  89.997  0.00  0.00     0.197 HD
BRANCH  33  35
HETATM   35  O   UNK     0       5.042  15.615  90.574  0.00  0.00    -0.287 OA
HETATM   36  H   UNK     0       5.938  15.353  90.847  0.00  0.00     0.244 HD
ENDBRANCH  33  35
ENDBRANCH  26  31
ENDBRANCH  24  26
ENDBRANCH  19  22
ENDBRANCH  15  16
ENDBRANCH  11  14
ENDBRANCH   7   8
ENDBRANCH   2   7
TORSDOF 10
ENDMDL
MODEL 9
REMARK VINA RESULT:      -4.9      2.797     12.381
REMARK  10 active torsions:
REMARK  status: ('A' for Active; 'I' for Inactive)
REMARK    1  A    between atoms: O_2  and  C_18 
REMARK    2  A    between atoms: O_5  and  N_8 
REMARK    3  A    between atoms: N_6  and  C_11 
REMARK    4  A    between atoms: N_7  and  C_15 
REMARK       I    between atoms: N_7  and  C_24 
REMARK       I    between atoms: N_8  and  C_23 
REMARK    5  A    between atoms: C_11  and  C_14 
REMARK    6  A    between atoms: C_15  and  C_18 
REMARK    7  A    between atoms: C_15  and  C_23 
REMARK    8  A    between atoms: C_21  and  C_26 
REMARK    9  A    between atoms: C_24  and  C_25 
REMARK   10  A    between atoms: C_29  and  C_32 
ROOT
HETATM    1  O   UNK     0       3.361  14.924  93.680  0.00  0.00    -0.388 OA
HETATM    2  N   UNK     0       2.867  14.626  90.892  0.00  0.00     0.096 N 
HETATM    3  C   UNK     0       1.995  14.003  91.898  0.00  0.00     0.299 C 
HETATM    4  C   UNK     0       4.231  14.757  91.421  0.00  0.00     0.299 C 
HETATM    5  C   UNK     0       2.024  14.821  93.186  0.00  0.00     0.198 C 
HETATM    6  C   UNK     0       4.208  15.557  92.721  0.00  0.00     0.198 C 
ENDROOT
BRANCH   2   7
HETATM    7  C   UNK     0       2.864  13.852  89.653  0.00  0.00     0.311 C 
BRANCH   7   8
HETATM    8  C   UNK     0       3.796  12.690  89.706  0.00  0.00    -0.030 A 
HETATM    9  C   UNK     0       3.356  11.467  90.214  0.00  0.00     0.010 A 
HETATM   10  C   UNK     0       4.228  10.379  90.266  0.00  0.00     0.021 A 
HETATM   11  C   UNK     0       5.539  10.515  89.808  0.00  0.00     0.018 A 
HETATM   12  C   UNK     0       5.978  11.736  89.300  0.00  0.00     0.021 A 
HETATM   13  C   UNK     0       5.107  12.824  89.248  0.00  0.00     0.010 A 
BRANCH  11  14
HETATM   14  C   UNK     0       6.432   9.399  89.860  0.00  0.00    -0.061 C 
HETATM   15  C   UNK     0       7.184   8.461  89.903  0.00  0.00    -0.061 C 
BRANCH  15  16
HETATM   16  C   UNK     0       8.077   7.348  89.954  0.00  0.00     0.018 A 
HETATM   17  C   UNK     0       9.449   7.547  89.798  0.00  0.00     0.022 A 
HETATM   18  C   UNK     0      10.322   6.460  89.849  0.00  0.00     0.018 A 
HETATM   19  C   UNK     0       9.804   5.199  90.056  0.00  0.00     0.032 A 
HETATM   20  C   UNK     0       8.453   4.975  90.213  0.00  0.00     0.018 A 
HETATM   21  C   UNK     0       7.580   6.061  90.161  0.00  0.00     0.022 A 
BRANCH  19  22
HETATM   22  C   UNK     0      10.734   4.041  90.109  0.00  0.00     0.252 C 
HETATM   23  O   UNK     0      10.416   2.991  89.557  0.00  0.00    -0.268 OA
HETATM   24  N   UNK     0      11.933   4.254  90.775  0.00  0.00    -0.341 N 
HETATM   25  H   UNK     0      12.139   5.158  91.185  0.00  0.00     0.163 HD
BRANCH  24  26
HETATM   26  C   UNK     0      12.947   3.237  90.890  0.00  0.00     0.207 C 
BRANCH  26  27
HETATM   27  C   UNK     0      14.364   3.785  90.677  0.00  0.00     0.146 C 
HETATM   28  C   UNK     0      15.060   3.153  89.477  0.00  0.00     0.042 C 
BRANCH  27  29
HETATM   29  O   UNK     0      14.306   5.199  90.488  0.00  0.00    -0.393 OA
HETATM   30  H   UNK     0      13.373   5.455  90.392  0.00  0.00     0.210 HD
ENDBRANCH  27  29
ENDBRANCH  26  27
BRANCH  26  31
HETATM   31  C   UNK     0      12.804   2.590  92.264  0.00  0.00     0.266 C 
HETATM   32  O   UNK     0      11.716   2.407  92.808  0.00  0.00    -0.269 OA
HETATM   33  N   UNK     0      14.021   2.280  92.822  0.00  0.00    -0.236 N 
HETATM   34  H   UNK     0      14.935   2.498  92.442  0.00  0.00     0.197 HD
BRANCH  33  35
HETATM   35  O   UNK     0      13.978   1.715  94.104  0.00  0.00    -0.287 OA
HETATM   36  H   UNK     0      14.602   0.978  93.990  0.00  0.00     0.244 HD
ENDBRANCH  33  35
ENDBRANCH  26  31
ENDBRANCH  24  26
ENDBRANCH  19  22
ENDBRANCH  15  16
ENDBRANCH  11  14
ENDBRANCH   7   8
ENDBRANCH   2   7
TORSDOF 10
ENDMDL
