MODEL 1
REMARK VINA RESULT:      -7.6      0.000      0.000
REMARK  9 active torsions:
REMARK  status: ('A' for Active; 'I' for Inactive)
REMARK    1  A    between atoms: N_3  and  C_6 
REMARK    2  A    between atoms: C_6  and  C_9 
REMARK    3  A    between atoms: C_14  and  C_17 
REMARK       I    between atoms: N_26  and  C_15 
REMARK    4  A    between atoms: C_15  and  C_16 
REMARK    5  A    between atoms: C_20  and  C_23 
REMARK    6  A    between atoms: OG1_24  and  CB_28 
REMARK    7  A    between atoms: N_26  and  CA_27 
REMARK    8  A    between atoms: CA_27  and  CB_28 
REMARK    9  A    between atoms: CA_27  and  C_30 
ROOT
HETATM    1  O   UNK A   0       1.886   8.324  87.931  1.00  0.00    -0.388 OA
HETATM    2  N   UNK A   0       4.636   7.631  87.692  1.00  0.00     0.096 N 
HETATM    3  C   UNK A   0       4.200   9.033  87.760  1.00  0.00     0.299 C 
HETATM    4  C   UNK A   0       3.580   6.804  87.091  1.00  0.00     0.299 C 
HETATM    5  C   UNK A   0       2.894   9.130  88.543  1.00  0.00     0.198 C 
HETATM    6  C   UNK A   0       2.289   6.954  87.889  1.00  0.00     0.198 C 
ENDROOT
BRANCH   2   7
HETATM    7  C   UNK A   0       5.882   7.513  86.936  1.00  0.00     0.311 C 
BRANCH   7   8
HETATM    8  C   UNK A   0       6.985   6.922  87.747  1.00  0.00    -0.030 A 
HETATM    9  C   UNK A   0       6.759   6.573  89.079  1.00  0.00     0.010 A 
HETATM   10  C   UNK A   0       7.791   6.023  89.840  1.00  0.00     0.021 A 
HETATM   11  C   UNK A   0       9.046   5.820  89.268  1.00  0.00     0.018 A 
HETATM   12  C   UNK A   0       9.272   6.168  87.938  1.00  0.00     0.021 A 
HETATM   13  C   UNK A   0       8.241   6.719  87.177  1.00  0.00     0.010 A 
BRANCH  11  14
HETATM   14  C   UNK A   0      10.103   5.253  90.047  1.00  0.00    -0.061 C 
HETATM   15  C   UNK A   0      10.992   4.777  90.703  1.00  0.00    -0.061 C 
BRANCH  15  16
HETATM   16  C   UNK A   0      12.048   4.211  91.483  1.00  0.00     0.018 A 
HETATM   17  C   UNK A   0      11.830   3.895  92.825  1.00  0.00     0.022 A 
HETATM   18  C   UNK A   0      12.860   3.340  93.584  1.00  0.00     0.018 A 
HETATM   19  C   UNK A   0      14.082   3.113  92.987  1.00  0.00     0.032 A 
HETATM   20  C   UNK A   0      14.322   3.417  91.663  1.00  0.00     0.018 A 
HETATM   21  C   UNK A   0      13.293   3.972  90.902  1.00  0.00     0.022 A 
BRANCH  19  22
HETATM   22  C   UNK A   0      15.179   2.523  93.798  1.00  0.00     0.252 C 
HETATM   23  O   UNK A   0      16.326   2.936  93.645  1.00  0.00    -0.268 OA
ENDBRANCH  19  22
ENDBRANCH  15  16
ENDBRANCH  11  14
ENDBRANCH   7   8
ENDBRANCH   2   7
TORSDOF 9
ENDMDL
