MODEL 1
REMARK VINA RESULT:      -6.3      0.000      0.000
REMARK  12 active torsions:
REMARK  status: ('A' for Active; 'I' for Inactive)
REMARK    1  A    between atoms: O_2  and  C_16 
REMARK    2  A    between atoms: N_5  and  C_9 
REMARK    3  A    between atoms: N_6  and  C_13 
REMARK       I    between atoms: N_6  and  C_22 
REMARK    4  A    between atoms: C_9  and  C_12 
REMARK    5  A    between atoms: C_13  and  C_16 
REMARK    6  A    between atoms: C_13  and  C_21 
REMARK    7  A    between atoms: C_19  and  C_24 
REMARK    8  A    between atoms: C_21  and  C_33 
REMARK    9  A    between atoms: C_22  and  C_23 
REMARK   10  A    between atoms: C_27  and  C_30 
REMARK   11  A    between atoms: C_33  and  C_34 
REMARK   12  A    between atoms: C_34  and  C_35 
ROOT
HETATM    1  O   UNL     1      16.153   4.341  93.988  1.00  0.00    -0.350 OA
HETATM    2  N   UNL     1      14.439   2.653  92.467  1.00  0.00     0.147 N 
HETATM    3  C   UNL     1      14.269   4.112  92.475  1.00  0.00     0.283 C 
HETATM    4  C   UNL     1      15.027   2.207  93.739  1.00  0.00     0.283 C 
HETATM    5  C   UNL     1      15.612   4.788  92.743  1.00  0.00     0.178 C 
HETATM    6  C   UNL     1      16.350   2.927  93.978  1.00  0.00     0.178 C 
ENDROOT
BRANCH   2   7
HETATM    7  C   UNL     1      13.162   1.984  92.223  1.00  0.00     0.277 C 
BRANCH   7   8
HETATM    8  C   UNL     1      12.038   2.949  92.060  1.00  0.00     0.011 A 
HETATM    9  C   UNL     1      11.585   3.682  93.158  1.00  0.00    -0.002 A 
HETATM   10  C   UNL     1      10.531   4.583  93.008  1.00  0.00     0.008 A 
HETATM   11  C   UNL     1       9.933   4.754  91.760  1.00  0.00     0.042 A 
HETATM   12  C   UNL     1      10.385   4.023  90.663  1.00  0.00     0.008 A 
HETATM   13  C   UNL     1      11.438   3.121  90.813  1.00  0.00    -0.002 A 
BRANCH  11  14
HETATM   14  C   UNL     1       8.854   5.680  91.606  1.00  0.00    -0.059 C 
HETATM   15  C   UNL     1       7.947   6.459  91.475  1.00  0.00    -0.059 C 
BRANCH  15  16
HETATM   16  C   UNL     1       6.868   7.384  91.321  1.00  0.00     0.042 A 
HETATM   17  C   UNL     1       6.019   7.650  92.396  1.00  0.00     0.008 A 
HETATM   18  C   UNL     1       4.968   8.555  92.246  1.00  0.00     0.005 A 
HETATM   19  C   UNL     1       4.790   9.173  91.026  1.00  0.00     0.056 A 
HETATM   20  C   UNL     1       5.614   8.926  89.948  1.00  0.00     0.005 A 
HETATM   21  C   UNL     1       6.666   8.022  90.097  1.00  0.00     0.008 A 
BRANCH  19  22
HETATM   22  C   UNL     1       3.669  10.135  90.866  1.00  0.00     0.254 C 
HETATM   23  O   UNL     1       2.679   9.801  90.220  1.00  0.00    -0.268 OA
HETATM   24  N   UNL     1       3.825  11.360  91.499  1.00  0.00    -0.335 N 
HETATM   25  HN  UNL     1       4.660  11.557  92.037  1.00  0.00     0.164 HD
BRANCH  24  26
HETATM   26  C   UNL     1       2.816  12.389  91.457  1.00  0.00     0.166 C 
BRANCH  26  27
HETATM   27  C   UNL     1       2.675  13.136  92.789  1.00  0.00     0.138 C 
HETATM   28  C   UNL     1       1.220  13.317  93.206  1.00  0.00     0.034 C 
BRANCH  27  29
HETATM   29  O   UNL     1       3.365  12.421  93.814  1.00  0.00    -0.383 OA
HETATM   30  H   UNL     1       3.213  12.876  94.659  1.00  0.00     0.210 HD
ENDBRANCH  27  29
ENDBRANCH  26  27
BRANCH  26  31
HETATM   31  C   UNL     1       3.169  13.342  90.321  1.00  0.00     0.181 C 
HETATM   32  O   UNL     1       2.367  14.142  89.844  1.00  0.00    -0.294 OA
BRANCH  31  33
HETATM   33  C   UNL     1       4.515  14.188  90.640  1.00  0.00     0.138 C 
BRANCH  33  34
HETATM   34  C   UNL     1       4.985  14.457  89.336  1.00  0.00     0.208 C 
HETATM   35  O   UNL     1       5.170  15.622  89.067  1.00  0.00    -0.289 OA
BRANCH  34  36
HETATM   36  C   UNL     1       5.543  13.625  88.404  1.00  0.00     0.194 C 
HETATM   37  O   UNL     1       5.475  12.233  88.278  1.00  0.00    -0.185 OA
ENDBRANCH  34  36
ENDBRANCH  33  34
ENDBRANCH  31  33
ENDBRANCH  26  31
ENDBRANCH  24  26
ENDBRANCH  19  22
ENDBRANCH  15  16
ENDBRANCH  11  14
ENDBRANCH   7   8
ENDBRANCH   2   7
TORSDOF 12
ENDMDL
