MODEL 1
REMARK VINA RESULT:      -7.3      0.000      0.000
REMARK  9 active torsions:
REMARK  status: ('A' for Active; 'I' for Inactive)
REMARK    1  A    between atoms: O_2  and  C_17 
REMARK    2  A    between atoms: N_5  and  C_10 
REMARK    3  A    between atoms: N_6  and  C_14 
REMARK       I    between atoms: N_6  and  C_23 
REMARK       I    between atoms: N_7  and  C_22 
REMARK    4  A    between atoms: C_10  and  C_13 
REMARK    5  A    between atoms: C_14  and  C_17 
REMARK    6  A    between atoms: C_14  and  C_22 
REMARK    7  A    between atoms: C_20  and  C_25 
REMARK    8  A    between atoms: C_23  and  C_24 
REMARK    9  A    between atoms: C_28  and  C_31 
ROOT
HETATM    1  O   UNL     1      16.068   4.077  94.083  1.00  0.00    -0.388 OA
HETATM    2  N   UNL     1      14.273   2.665  92.385  1.00  0.00     0.096 N 
HETATM    3  C   UNL     1      14.376   4.130  92.344  1.00  0.00     0.299 C 
HETATM    4  C   UNL     1      14.606   2.174  93.729  1.00  0.00     0.299 C 
HETATM    5  C   UNL     1      15.777   4.561  92.771  1.00  0.00     0.198 C 
HETATM    6  C   UNL     1      16.000   2.651  94.124  1.00  0.00     0.198 C 
ENDROOT
BRANCH   2   7
HETATM    7  C   UNL     1      12.934   2.229  91.990  1.00  0.00     0.311 C 
BRANCH   7   8
HETATM    8  C   UNL     1      12.034   3.375  91.676  1.00  0.00    -0.030 A 
HETATM    9  C   UNL     1      11.306   3.989  92.697  1.00  0.00     0.010 A 
HETATM   10  C   UNL     1      10.462   5.059  92.404  1.00  0.00     0.021 A 
HETATM   11  C   UNL     1      10.347   5.517  91.092  1.00  0.00     0.018 A 
HETATM   12  C   UNL     1      11.072   4.905  90.072  1.00  0.00     0.021 A 
HETATM   13  C   UNL     1      11.917   3.833  90.364  1.00  0.00     0.010 A 
BRANCH  11  14
HETATM   14  C   UNL     1       9.482   6.616  90.792  1.00  0.00    -0.061 C 
HETATM   15  C   UNL     1       8.755   7.541  90.541  1.00  0.00    -0.061 C 
BRANCH  15  16
HETATM   16  C   UNL     1       7.892   8.640  90.242  1.00  0.00     0.018 A 
HETATM   17  C   UNL     1       6.514   8.513  90.422  1.00  0.00     0.022 A 
HETATM   18  C   UNL     1       5.672   9.587  90.132  1.00  0.00     0.018 A 
HETATM   19  C   UNL     1       6.226  10.762  89.670  1.00  0.00     0.032 A 
HETATM   20  C   UNL     1       7.584  10.913  89.483  1.00  0.00     0.018 A 
HETATM   21  C   UNL     1       8.427   9.840  89.773  1.00  0.00     0.022 A 
BRANCH  19  22
HETATM   22  C   UNL     1       5.328  11.905  89.360  1.00  0.00     0.252 C 
HETATM   23  O   UNL     1       5.154  12.230  88.188  1.00  0.00    -0.268 OA
HETATM   24  N   UNL     1       4.723  12.516  90.449  1.00  0.00    -0.342 N 
HETATM   25  H   UNL     1       4.895  12.177  91.389  1.00  0.00     0.163 HD
BRANCH  24  26
HETATM   26  C   UNL     1       3.808  13.620  90.310  1.00  0.00     0.199 C 
BRANCH  26  27
HETATM   27  C   UNL     1       2.610  13.523  91.263  1.00  0.00     0.145 C 
HETATM   28  C   UNL     1       2.752  12.383  92.265  1.00  0.00     0.042 C 
BRANCH  27  29
HETATM   29  O   UNL     1       2.466  14.751  91.975  1.00  0.00    -0.393 OA
HETATM   30  H   UNL     1       1.519  14.905  92.130  1.00  0.00     0.210 HD
ENDBRANCH  27  29
ENDBRANCH  26  27
BRANCH  26  31
HETATM   31  C   UNL     1       4.594  14.908  90.537  1.00  0.00     0.220 C 
HETATM   32  O   UNL     1       4.882  15.328  91.656  1.00  0.00    -0.278 OA
HETATM   33  N   UNL     1       4.898  15.544  89.358  1.00  0.00    -0.271 NA
HETATM   34  H   UNL     1       4.601  15.274  88.428  1.00  0.00     0.127 HD
HETATM   35  H   UNL     1       4.355  16.732  88.844  1.00  0.00     0.127 HD
ENDBRANCH  26  31
ENDBRANCH  24  26
ENDBRANCH  19  22
ENDBRANCH  15  16
ENDBRANCH  11  14
ENDBRANCH   7   8
ENDBRANCH   2   7
TORSDOF 9
ENDMDL
