MODEL 1
REMARK VINA RESULT:      -7.3      0.000      0.000
REMARK  9 active torsions:
REMARK  status: ('A' for Active; 'I' for Inactive)
REMARK    1  A    between atoms: O_2  and  C_17 
REMARK    2  A    between atoms: N_5  and  C_10 
REMARK    3  A    between atoms: N_6  and  C_14 
REMARK       I    between atoms: N_6  and  C_23 
REMARK       I    between atoms: N_7  and  C_22 
REMARK    4  A    between atoms: C_10  and  C_13 
REMARK    5  A    between atoms: C_14  and  C_17 
REMARK    6  A    between atoms: C_14  and  C_22 
REMARK    7  A    between atoms: C_20  and  C_25 
REMARK    8  A    between atoms: C_23  and  C_24 
REMARK    9  A    between atoms: C_28  and  C_31 
ROOT
HETATM    1  O   UNL     1      16.129   4.015  94.124  1.00  0.00    -0.388 OA
HETATM    2  N   UNL     1      14.305   2.672  92.400  1.00  0.00     0.096 N 
HETATM    3  C   UNL     1      14.358   4.139  92.468  1.00  0.00     0.299 C 
HETATM    4  C   UNL     1      14.716   2.093  93.686  1.00  0.00     0.299 C 
HETATM    5  C   UNL     1      15.762   4.587  92.867  1.00  0.00     0.198 C 
HETATM    6  C   UNL     1      16.109   2.589  94.057  1.00  0.00     0.198 C 
ENDROOT
BRANCH   2   7
HETATM    7  C   UNL     1      12.965   2.220  92.029  1.00  0.00     0.311 C 
BRANCH   7   8
HETATM    8  C   UNL     1      12.048   3.354  91.721  1.00  0.00    -0.030 A 
HETATM    9  C   UNL     1      11.844   3.744  90.397  1.00  0.00     0.010 A 
HETATM   10  C   UNL     1      10.988   4.807  90.108  1.00  0.00     0.021 A 
HETATM   11  C   UNL     1      10.334   5.475  91.142  1.00  0.00     0.018 A 
HETATM   12  C   UNL     1      10.536   5.086  92.464  1.00  0.00     0.021 A 
HETATM   13  C   UNL     1      11.393   4.024  92.754  1.00  0.00     0.010 A 
BRANCH  11  14
HETATM   14  C   UNL     1       9.454   6.564  90.845  1.00  0.00    -0.061 C 
HETATM   15  C   UNL     1       8.714   7.478  90.595  1.00  0.00    -0.061 C 
BRANCH  15  16
HETATM   16  C   UNL     1       7.835   8.566  90.298  1.00  0.00     0.018 A 
HETATM   17  C   UNL     1       6.455   8.365  90.293  1.00  0.00     0.022 A 
HETATM   18  C   UNL     1       5.598   9.427  90.005  1.00  0.00     0.018 A 
HETATM   19  C   UNL     1       6.139  10.665  89.731  1.00  0.00     0.032 A 
HETATM   20  C   UNL     1       7.500  10.890  89.730  1.00  0.00     0.018 A 
HETATM   21  C   UNL     1       8.358   9.828  90.017  1.00  0.00     0.022 A 
BRANCH  19  22
HETATM   22  C   UNL     1       5.225  11.796  89.423  1.00  0.00     0.252 C 
HETATM   23  O   UNL     1       4.882  11.990  88.260  1.00  0.00    -0.268 OA
HETATM   24  N   UNL     1       4.802  12.549  90.510  1.00  0.00    -0.342 N 
HETATM   25  H   UNL     1       5.108  12.314  91.447  1.00  0.00     0.163 HD
BRANCH  24  26
HETATM   26  C   UNL     1       3.897  13.662  90.376  1.00  0.00     0.199 C 
BRANCH  26  27
HETATM   27  C   UNL     1       2.970  13.821  91.588  1.00  0.00     0.145 C 
HETATM   28  C   UNL     1       2.277  12.517  91.969  1.00  0.00     0.042 C 
BRANCH  27  29
HETATM   29  O   UNL     1       3.723  14.290  92.707  1.00  0.00    -0.393 OA
HETATM   30  H   UNL     1       3.292  15.090  93.050  1.00  0.00     0.210 HD
ENDBRANCH  27  29
ENDBRANCH  26  27
BRANCH  26  31
HETATM   31  C   UNL     1       4.732  14.917  90.148  1.00  0.00     0.220 C 
HETATM   32  O   UNL     1       5.143  15.624  91.066  1.00  0.00    -0.278 OA
HETATM   33  N   UNL     1       4.930  15.173  88.813  1.00  0.00    -0.271 NA
HETATM   34  H   UNL     1       4.533  14.664  88.032  1.00  0.00     0.127 HD
HETATM   35  H   UNL     1       4.365  16.191  88.028  1.00  0.00     0.127 HD
ENDBRANCH  26  31
ENDBRANCH  24  26
ENDBRANCH  19  22
ENDBRANCH  15  16
ENDBRANCH  11  14
ENDBRANCH   7   8
ENDBRANCH   2   7
TORSDOF 9
ENDMDL
