MODEL 1
REMARK VINA RESULT:      -5.8      0.000      0.000
REMARK  12 active torsions:
REMARK  status: ('A' for Active; 'I' for Inactive)
REMARK    1  A    between atoms: O_2  and  C_16 
REMARK    2  A    between atoms: N_5  and  C_9 
REMARK    3  A    between atoms: N_6  and  C_13 
REMARK       I    between atoms: N_6  and  C_22 
REMARK    4  A    between atoms: C_9  and  C_12 
REMARK    5  A    between atoms: C_13  and  C_16 
REMARK    6  A    between atoms: C_13  and  C_21 
REMARK    7  A    between atoms: C_19  and  C_24 
REMARK    8  A    between atoms: C_21  and  C_33 
REMARK    9  A    between atoms: C_22  and  C_23 
REMARK   10  A    between atoms: C_27  and  C_30 
REMARK   11  A    between atoms: C_33  and  C_34 
REMARK   12  A    between atoms: C_34  and  C_35 
ROOT
HETATM    1  O   UNL     1      16.354   2.917  93.946  1.00  0.00    -0.350 OA
HETATM    2  N   UNL     1      13.830   2.883  92.630  1.00  0.00     0.147 N 
HETATM    3  C   UNL     1      14.580   1.645  92.885  1.00  0.00     0.283 C 
HETATM    4  C   UNL     1      14.759   4.012  92.483  1.00  0.00     0.283 C 
HETATM    5  C   UNL     1      15.457   1.818  94.123  1.00  0.00     0.178 C 
HETATM    6  C   UNL     1      15.632   4.130  93.728  1.00  0.00     0.178 C 
ENDROOT
BRANCH   2   7
HETATM    7  C   UNL     1      12.990   2.743  91.442  1.00  0.00     0.277 C 
BRANCH   7   8
HETATM    8  C   UNL     1      11.834   3.685  91.449  1.00  0.00     0.011 A 
HETATM    9  C   UNL     1      11.472   4.352  90.279  1.00  0.00    -0.002 A 
HETATM   10  C   UNL     1      10.392   5.235  90.285  1.00  0.00     0.008 A 
HETATM   11  C   UNL     1       9.675   5.449  91.462  1.00  0.00     0.042 A 
HETATM   12  C   UNL     1      10.036   4.783  92.631  1.00  0.00     0.008 A 
HETATM   13  C   UNL     1      11.116   3.900  92.625  1.00  0.00    -0.002 A 
BRANCH  11  14
HETATM   14  C   UNL     1       8.566   6.353  91.468  1.00  0.00    -0.059 C 
HETATM   15  C   UNL     1       7.634   7.112  91.473  1.00  0.00    -0.059 C 
BRANCH  15  16
HETATM   16  C   UNL     1       6.526   8.016  91.480  1.00  0.00     0.042 A 
HETATM   17  C   UNL     1       5.409   7.755  90.685  1.00  0.00     0.008 A 
HETATM   18  C   UNL     1       4.328   8.636  90.694  1.00  0.00     0.005 A 
HETATM   19  C   UNL     1       4.386   9.755  91.497  1.00  0.00     0.056 A 
HETATM   20  C   UNL     1       5.478  10.035  92.292  1.00  0.00     0.005 A 
HETATM   21  C   UNL     1       6.560   9.156  92.283  1.00  0.00     0.008 A 
BRANCH  19  22
HETATM   22  C   UNL     1       3.234  10.694  91.505  1.00  0.00     0.254 C 
HETATM   23  O   UNL     1       2.126  10.286  91.165  1.00  0.00    -0.268 OA
HETATM   24  N   UNL     1       3.506  11.987  91.930  1.00  0.00    -0.335 N 
HETATM   25  HN  UNL     1       4.442  12.245  92.220  1.00  0.00     0.164 HD
BRANCH  24  26
HETATM   26  C   UNL     1       2.489  13.004  92.016  1.00  0.00     0.166 C 
BRANCH  26  27
HETATM   27  C   UNL     1       2.625  13.874  93.273  1.00  0.00     0.138 C 
HETATM   28  C   UNL     1       1.320  13.977  94.055  1.00  0.00     0.034 C 
BRANCH  27  29
HETATM   29  O   UNL     1       3.633  13.329  94.124  1.00  0.00    -0.383 OA
HETATM   30  H   UNL     1       3.315  12.476  94.466  1.00  0.00     0.210 HD
ENDBRANCH  27  29
ENDBRANCH  26  27
BRANCH  26  31
HETATM   31  C   UNL     1       2.567  13.848  90.748  1.00  0.00     0.181 C 
HETATM   32  O   UNL     1       1.751  14.728  90.478  1.00  0.00    -0.294 OA
BRANCH  31  33
HETATM   33  C   UNL     1       4.032  14.515  90.556  1.00  0.00     0.138 C 
BRANCH  33  34
HETATM   34  C   UNL     1       4.322  14.157  89.220  1.00  0.00     0.208 C 
HETATM   35  O   UNL     1       4.995  14.942  88.594  1.00  0.00    -0.289 OA
BRANCH  34  36
HETATM   36  C   UNL     1       4.222  12.951  88.583  1.00  0.00     0.194 C 
HETATM   37  O   UNL     1       5.085  11.849  88.593  1.00  0.00    -0.185 OA
ENDBRANCH  34  36
ENDBRANCH  33  34
ENDBRANCH  31  33
ENDBRANCH  26  31
ENDBRANCH  24  26
ENDBRANCH  19  22
ENDBRANCH  15  16
ENDBRANCH  11  14
ENDBRANCH   7   8
ENDBRANCH   2   7
TORSDOF 12
ENDMDL
MODEL 2
REMARK VINA RESULT:      -5.5      1.129      1.855
REMARK  12 active torsions:
REMARK  status: ('A' for Active; 'I' for Inactive)
REMARK    1  A    between atoms: O_2  and  C_16 
REMARK    2  A    between atoms: N_5  and  C_9 
REMARK    3  A    between atoms: N_6  and  C_13 
REMARK       I    between atoms: N_6  and  C_22 
REMARK    4  A    between atoms: C_9  and  C_12 
REMARK    5  A    between atoms: C_13  and  C_16 
REMARK    6  A    between atoms: C_13  and  C_21 
REMARK    7  A    between atoms: C_19  and  C_24 
REMARK    8  A    between atoms: C_21  and  C_33 
REMARK    9  A    between atoms: C_22  and  C_23 
REMARK   10  A    between atoms: C_27  and  C_30 
REMARK   11  A    between atoms: C_33  and  C_34 
REMARK   12  A    between atoms: C_34  and  C_35 
ROOT
HETATM    1  O   UNL     1      16.270   4.437  94.101  1.00  0.00    -0.350 OA
HETATM    2  N   UNL     1      14.617   2.719  92.546  1.00  0.00     0.147 N 
HETATM    3  C   UNL     1      14.447   4.179  92.520  1.00  0.00     0.283 C 
HETATM    4  C   UNL     1      15.154   2.298  93.847  1.00  0.00     0.283 C 
HETATM    5  C   UNL     1      15.778   4.860  92.827  1.00  0.00     0.178 C 
HETATM    6  C   UNL     1      16.467   3.023  94.124  1.00  0.00     0.178 C 
ENDROOT
BRANCH   2   7
HETATM    7  C   UNL     1      13.350   2.046  92.264  1.00  0.00     0.277 C 
BRANCH   7   8
HETATM    8  C   UNL     1      12.207   2.998  92.180  1.00  0.00     0.011 A 
HETATM    9  C   UNL     1      11.774   3.670  93.324  1.00  0.00    -0.002 A 
HETATM   10  C   UNL     1      10.702   4.560  93.246  1.00  0.00     0.008 A 
HETATM   11  C   UNL     1      10.066   4.779  92.025  1.00  0.00     0.042 A 
HETATM   12  C   UNL     1      10.498   4.109  90.882  1.00  0.00     0.008 A 
HETATM   13  C   UNL     1      11.569   3.219  90.959  1.00  0.00    -0.002 A 
BRANCH  11  14
HETATM   14  C   UNL     1       8.969   5.694  91.945  1.00  0.00    -0.059 C 
HETATM   15  C   UNL     1       8.047   6.463  91.878  1.00  0.00    -0.059 C 
BRANCH  15  16
HETATM   16  C   UNL     1       6.950   7.376  91.797  1.00  0.00     0.042 A 
HETATM   17  C   UNL     1       7.125   8.709  92.172  1.00  0.00     0.008 A 
HETATM   18  C   UNL     1       6.056   9.601  92.090  1.00  0.00     0.005 A 
HETATM   19  C   UNL     1       4.838   9.141  91.637  1.00  0.00     0.056 A 
HETATM   20  C   UNL     1       4.639   7.829  91.261  1.00  0.00     0.005 A 
HETATM   21  C   UNL     1       5.708   6.936  91.342  1.00  0.00     0.008 A 
BRANCH  19  22
HETATM   22  C   UNL     1       3.698  10.091  91.552  1.00  0.00     0.254 C 
HETATM   23  O   UNL     1       2.567   9.655  91.355  1.00  0.00    -0.268 OA
HETATM   24  N   UNL     1       4.010  11.432  91.732  1.00  0.00    -0.335 N 
HETATM   25  HN  UNL     1       4.965  11.716  91.916  1.00  0.00     0.164 HD
BRANCH  24  26
HETATM   26  C   UNL     1       3.012  12.471  91.703  1.00  0.00     0.166 C 
BRANCH  26  27
HETATM   27  C   UNL     1       3.217  13.522  92.801  1.00  0.00     0.138 C 
HETATM   28  C   UNL     1       4.567  13.385  93.495  1.00  0.00     0.034 C 
BRANCH  27  29
HETATM   29  O   UNL     1       3.117  14.829  92.236  1.00  0.00    -0.383 OA
HETATM   30  H   UNL     1       4.005  15.108  91.956  1.00  0.00     0.210 HD
ENDBRANCH  27  29
ENDBRANCH  26  27
BRANCH  26  31
HETATM   31  C   UNL     1       3.040  13.105  90.316  1.00  0.00     0.181 C 
HETATM   32  O   UNL     1       2.408  14.121  90.031  1.00  0.00    -0.294 OA
BRANCH  31  33
HETATM   33  C   UNL     1       4.556  13.355  89.799  1.00  0.00     0.138 C 
BRANCH  33  34
HETATM   34  C   UNL     1       4.504  12.781  88.510  1.00  0.00     0.208 C 
HETATM   35  O   UNL     1       5.044  13.406  87.626  1.00  0.00    -0.289 OA
BRANCH  34  36
HETATM   36  C   UNL     1       4.202  11.505  88.119  1.00  0.00     0.194 C 
HETATM   37  O   UNL     1       4.896  10.308  88.324  1.00  0.00    -0.185 OA
ENDBRANCH  34  36
ENDBRANCH  33  34
ENDBRANCH  31  33
ENDBRANCH  26  31
ENDBRANCH  24  26
ENDBRANCH  19  22
ENDBRANCH  15  16
ENDBRANCH  11  14
ENDBRANCH   7   8
ENDBRANCH   2   7
TORSDOF 12
ENDMDL
MODEL 3
REMARK VINA RESULT:      -4.0      1.606      2.042
REMARK  12 active torsions:
REMARK  status: ('A' for Active; 'I' for Inactive)
REMARK    1  A    between atoms: O_2  and  C_16 
REMARK    2  A    between atoms: N_5  and  C_9 
REMARK    3  A    between atoms: N_6  and  C_13 
REMARK       I    between atoms: N_6  and  C_22 
REMARK    4  A    between atoms: C_9  and  C_12 
REMARK    5  A    between atoms: C_13  and  C_16 
REMARK    6  A    between atoms: C_13  and  C_21 
REMARK    7  A    between atoms: C_19  and  C_24 
REMARK    8  A    between atoms: C_21  and  C_33 
REMARK    9  A    between atoms: C_22  and  C_23 
REMARK   10  A    between atoms: C_27  and  C_30 
REMARK   11  A    between atoms: C_33  and  C_34 
REMARK   12  A    between atoms: C_34  and  C_35 
ROOT
HETATM    1  O   UNL     1      15.907   2.593  91.473  1.00  0.00    -0.350 OA
HETATM    2  N   UNL     1      13.461   3.017  92.865  1.00  0.00     0.147 N 
HETATM    3  C   UNL     1      14.489   2.103  93.381  1.00  0.00     0.283 C 
HETATM    4  C   UNL     1      13.531   3.077  91.399  1.00  0.00     0.283 C 
HETATM    5  C   UNL     1      15.867   2.552  92.901  1.00  0.00     0.178 C 
HETATM    6  C   UNL     1      14.930   3.502  90.965  1.00  0.00     0.178 C 
ENDROOT
BRANCH   2   7
HETATM    7  C   UNL     1      12.130   2.600  93.305  1.00  0.00     0.277 C 
BRANCH   7   8
HETATM    8  C   UNL     1      11.139   3.712  93.248  1.00  0.00     0.011 A 
HETATM    9  C   UNL     1      11.262   4.799  94.114  1.00  0.00    -0.002 A 
HETATM   10  C   UNL     1      10.333   5.839  94.064  1.00  0.00     0.008 A 
HETATM   11  C   UNL     1       9.284   5.792  93.146  1.00  0.00     0.042 A 
HETATM   12  C   UNL     1       9.161   4.707  92.281  1.00  0.00     0.008 A 
HETATM   13  C   UNL     1      10.088   3.666  92.332  1.00  0.00    -0.002 A 
BRANCH  11  14
HETATM   14  C   UNL     1       8.333   6.859  93.093  1.00  0.00    -0.059 C 
HETATM   15  C   UNL     1       7.535   7.757  93.049  1.00  0.00    -0.059 C 
BRANCH  15  16
HETATM   16  C   UNL     1       6.585   8.825  92.996  1.00  0.00     0.042 A 
HETATM   17  C   UNL     1       5.406   8.672  92.267  1.00  0.00     0.008 A 
HETATM   18  C   UNL     1       4.478   9.713  92.218  1.00  0.00     0.005 A 
HETATM   19  C   UNL     1       4.750  10.881  92.898  1.00  0.00     0.056 A 
HETATM   20  C   UNL     1       5.909  11.057  93.625  1.00  0.00     0.005 A 
HETATM   21  C   UNL     1       6.837  10.017  93.675  1.00  0.00     0.008 A 
BRANCH  19  22
HETATM   22  C   UNL     1       3.763  11.990  92.843  1.00  0.00     0.254 C 
HETATM   23  O   UNL     1       2.702  11.879  93.453  1.00  0.00    -0.268 OA
HETATM   24  N   UNL     1       4.140  13.104  92.106  1.00  0.00    -0.335 N 
HETATM   25  HN  UNL     1       5.044  13.135  91.649  1.00  0.00     0.164 HD
BRANCH  24  26
HETATM   26  C   UNL     1       3.302  14.269  91.978  1.00  0.00     0.166 C 
BRANCH  26  27
HETATM   27  C   UNL     1       3.612  15.341  93.031  1.00  0.00     0.138 C 
HETATM   28  C   UNL     1       2.552  15.411  94.124  1.00  0.00     0.034 C 
BRANCH  27  29
HETATM   29  O   UNL     1       4.879  15.069  93.631  1.00  0.00    -0.383 OA
HETATM   30  H   UNL     1       4.723  14.660  94.498  1.00  0.00     0.210 HD
ENDBRANCH  27  29
ENDBRANCH  26  27
BRANCH  26  31
HETATM   31  C   UNL     1       3.475  14.814  90.564  1.00  0.00     0.181 C 
HETATM   32  O   UNL     1       4.531  15.294  90.156  1.00  0.00    -0.294 OA
BRANCH  31  33
HETATM   33  C   UNL     1       3.002  13.742  89.444  1.00  0.00     0.138 C 
BRANCH  33  34
HETATM   34  C   UNL     1       4.240  13.182  89.061  1.00  0.00     0.208 C 
HETATM   35  O   UNL     1       4.372  11.996  89.259  1.00  0.00    -0.289 OA
BRANCH  34  36
HETATM   36  C   UNL     1       5.222  13.673  88.245  1.00  0.00     0.194 C 
HETATM   37  O   UNL     1       6.579  13.340  88.160  1.00  0.00    -0.185 OA
ENDBRANCH  34  36
ENDBRANCH  33  34
ENDBRANCH  31  33
ENDBRANCH  26  31
ENDBRANCH  24  26
ENDBRANCH  19  22
ENDBRANCH  15  16
ENDBRANCH  11  14
ENDBRANCH   7   8
ENDBRANCH   2   7
TORSDOF 12
ENDMDL
MODEL 4
REMARK VINA RESULT:      -3.1      2.368     12.617
REMARK  12 active torsions:
REMARK  status: ('A' for Active; 'I' for Inactive)
REMARK    1  A    between atoms: O_2  and  C_16 
REMARK    2  A    between atoms: N_5  and  C_9 
REMARK    3  A    between atoms: N_6  and  C_13 
REMARK       I    between atoms: N_6  and  C_22 
REMARK    4  A    between atoms: C_9  and  C_12 
REMARK    5  A    between atoms: C_13  and  C_16 
REMARK    6  A    between atoms: C_13  and  C_21 
REMARK    7  A    between atoms: C_19  and  C_24 
REMARK    8  A    between atoms: C_21  and  C_33 
REMARK    9  A    between atoms: C_22  and  C_23 
REMARK   10  A    between atoms: C_27  and  C_30 
REMARK   11  A    between atoms: C_33  and  C_34 
REMARK   12  A    between atoms: C_34  and  C_35 
ROOT
HETATM    1  O   UNL     1       5.122  15.565  90.760  1.00  0.00    -0.350 OA
HETATM    2  N   UNL     1       3.366  13.551  89.777  1.00  0.00     0.147 N 
HETATM    3  C   UNL     1       3.568  13.757  91.218  1.00  0.00     0.283 C 
HETATM    4  C   UNL     1       4.573  13.947  89.038  1.00  0.00     0.283 C 
HETATM    5  C   UNL     1       3.941  15.213  91.484  1.00  0.00     0.178 C 
HETATM    6  C   UNL     1       4.923  15.397  89.356  1.00  0.00     0.178 C 
ENDROOT
BRANCH   2   7
HETATM    7  C   UNL     1       3.018  12.159  89.497  1.00  0.00     0.277 C 
BRANCH   7   8
HETATM    8  C   UNL     1       4.179  11.238  89.665  1.00  0.00     0.011 A 
HETATM    9  C   UNL     1       4.384  10.203  88.752  1.00  0.00    -0.002 A 
HETATM   10  C   UNL     1       5.468   9.340  88.910  1.00  0.00     0.008 A 
HETATM   11  C   UNL     1       6.348   9.514  89.978  1.00  0.00     0.042 A 
HETATM   12  C   UNL     1       6.144  10.548  90.890  1.00  0.00     0.008 A 
HETATM   13  C   UNL     1       5.059  11.411  90.733  1.00  0.00    -0.002 A 
BRANCH  11  14
HETATM   14  C   UNL     1       7.461   8.629  90.138  1.00  0.00    -0.059 C 
HETATM   15  C   UNL     1       8.397   7.887  90.272  1.00  0.00    -0.059 C 
BRANCH  15  16
HETATM   16  C   UNL     1       9.510   7.004  90.432  1.00  0.00     0.042 A 
HETATM   17  C   UNL     1      10.166   6.500  89.308  1.00  0.00     0.008 A 
HETATM   18  C   UNL     1      11.254   5.640  89.465  1.00  0.00     0.005 A 
HETATM   19  C   UNL     1      11.661   5.306  90.739  1.00  0.00     0.056 A 
HETATM   20  C   UNL     1      11.029   5.790  91.865  1.00  0.00     0.005 A 
HETATM   21  C   UNL     1       9.941   6.649  91.710  1.00  0.00     0.008 A 
BRANCH  19  22
HETATM   22  C   UNL     1      12.818   4.389  90.905  1.00  0.00     0.254 C 
HETATM   23  O   UNL     1      13.196   3.720  89.946  1.00  0.00    -0.268 OA
HETATM   24  N   UNL     1      13.412   4.379  92.160  1.00  0.00    -0.335 N 
HETATM   25  HN  UNL     1      13.060   4.978  92.898  1.00  0.00     0.164 HD
BRANCH  24  26
HETATM   26  C   UNL     1      14.557   3.562  92.470  1.00  0.00     0.166 C 
BRANCH  26  27
HETATM   27  C   UNL     1      15.503   4.225  93.479  1.00  0.00     0.138 C 
HETATM   28  C   UNL     1      16.656   3.314  93.884  1.00  0.00     0.034 C 
BRANCH  27  29
HETATM   29  O   UNL     1      16.036   5.425  92.918  1.00  0.00    -0.383 OA
HETATM   30  H   UNL     1      16.690   5.787  93.539  1.00  0.00     0.210 HD
ENDBRANCH  27  29
ENDBRANCH  26  27
BRANCH  26  31
HETATM   31  C   UNL     1      14.047   2.221  92.986  1.00  0.00     0.181 C 
HETATM   32  O   UNL     1      14.726   1.469  93.682  1.00  0.00    -0.294 OA
BRANCH  31  33
HETATM   33  C   UNL     1      12.620   2.370  93.740  1.00  0.00     0.138 C 
BRANCH  33  34
HETATM   34  C   UNL     1      11.724   2.041  92.698  1.00  0.00     0.208 C 
HETATM   35  O   UNL     1      12.145   1.283  91.854  1.00  0.00    -0.289 OA
BRANCH  34  36
HETATM   36  C   UNL     1      10.368   2.195  92.612  1.00  0.00     0.194 C 
HETATM   37  O   UNL     1       9.604   3.044  91.804  1.00  0.00    -0.185 OA
ENDBRANCH  34  36
ENDBRANCH  33  34
ENDBRANCH  31  33
ENDBRANCH  26  31
ENDBRANCH  24  26
ENDBRANCH  19  22
ENDBRANCH  15  16
ENDBRANCH  11  14
ENDBRANCH   7   8
ENDBRANCH   2   7
TORSDOF 12
ENDMDL
