MODEL 1
REMARK VINA RESULT:      -5.9      0.000      0.000
REMARK  9 active torsions:
REMARK  status: ('A' for Active; 'I' for Inactive)
REMARK    1  A    between atoms: O_2  and  C_17 
REMARK    2  A    between atoms: N_5  and  C_10 
REMARK    3  A    between atoms: N_6  and  C_14 
REMARK       I    between atoms: N_6  and  C_23 
REMARK       I    between atoms: N_7  and  C_22 
REMARK    4  A    between atoms: C_10  and  C_13 
REMARK    5  A    between atoms: C_14  and  C_17 
REMARK    6  A    between atoms: C_14  and  C_22 
REMARK    7  A    between atoms: C_20  and  C_25 
REMARK    8  A    between atoms: C_23  and  C_24 
REMARK    9  A    between atoms: C_28  and  C_31 
ROOT
HETATM    1  O   UNL     1      16.232   2.917  93.829  1.00  0.00    -0.388 OA
HETATM    2  N   UNL     1      13.601   2.805  92.747  1.00  0.00     0.096 N 
HETATM    3  C   UNL     1      14.389   1.587  92.978  1.00  0.00     0.299 C 
HETATM    4  C   UNL     1      14.496   3.939  92.477  1.00  0.00     0.299 C 
HETATM    5  C   UNL     1      15.371   1.815  94.124  1.00  0.00     0.198 C 
HETATM    6  C   UNL     1      15.475   4.113  93.634  1.00  0.00     0.198 C 
ENDROOT
BRANCH   2   7
HETATM    7  C   UNL     1      12.660   2.613  91.645  1.00  0.00     0.311 C 
BRANCH   7   8
HETATM    8  C   UNL     1      11.601   3.661  91.613  1.00  0.00    -0.030 A 
HETATM    9  C   UNL     1      11.377   4.459  92.735  1.00  0.00     0.010 A 
HETATM   10  C   UNL     1      10.384   5.439  92.707  1.00  0.00     0.021 A 
HETATM   11  C   UNL     1       9.618   5.621  91.556  1.00  0.00     0.018 A 
HETATM   12  C   UNL     1       9.841   4.824  90.435  1.00  0.00     0.021 A 
HETATM   13  C   UNL     1      10.833   3.844  90.462  1.00  0.00     0.010 A 
BRANCH  11  14
HETATM   14  C   UNL     1       8.601   6.627  91.526  1.00  0.00    -0.061 C 
HETATM   15  C   UNL     1       7.748   7.473  91.502  1.00  0.00    -0.061 C 
BRANCH  15  16
HETATM   16  C   UNL     1       6.732   8.479  91.471  1.00  0.00     0.018 A 
HETATM   17  C   UNL     1       5.555   8.259  90.755  1.00  0.00     0.022 A 
HETATM   18  C   UNL     1       4.563   9.239  90.728  1.00  0.00     0.018 A 
HETATM   19  C   UNL     1       4.770  10.416  91.417  1.00  0.00     0.032 A 
HETATM   20  C   UNL     1       5.924  10.657  92.132  1.00  0.00     0.018 A 
HETATM   21  C   UNL     1       6.917   9.678  92.160  1.00  0.00     0.022 A 
BRANCH  19  22
HETATM   22  C   UNL     1       3.714  11.461  91.386  1.00  0.00     0.252 C 
HETATM   23  O   UNL     1       2.535  11.121  91.312  1.00  0.00    -0.268 OA
HETATM   24  N   UNL     1       4.155  12.774  91.471  1.00  0.00    -0.342 N 
HETATM   25  H   UNL     1       5.144  12.978  91.555  1.00  0.00     0.163 HD
BRANCH  24  26
HETATM   26  C   UNL     1       3.252  13.897  91.478  1.00  0.00     0.199 C 
BRANCH  26  27
HETATM   27  C   UNL     1       3.793  15.089  92.277  1.00  0.00     0.145 C 
HETATM   28  C   UNL     1       4.175  14.711  93.704  1.00  0.00     0.042 C 
BRANCH  27  29
HETATM   29  O   UNL     1       4.940  15.625  91.617  1.00  0.00    -0.393 OA
HETATM   30  H   UNL     1       5.229  14.987  90.943  1.00  0.00     0.210 HD
ENDBRANCH  27  29
ENDBRANCH  26  27
BRANCH  26  31
HETATM   31  C   UNL     1       2.975  14.281  90.028  1.00  0.00     0.220 C 
HETATM   32  O   UNL     1       3.862  14.400  89.186  1.00  0.00    -0.278 OA
HETATM   33  N   UNL     1       1.640  14.509  89.798  1.00  0.00    -0.271 NA
HETATM   34  H   UNL     1       0.896  14.507  90.487  1.00  0.00     0.127 HD
HETATM   35  H   UNL     1       0.992  15.734  89.567  1.00  0.00     0.127 HD
ENDBRANCH  26  31
ENDBRANCH  24  26
ENDBRANCH  19  22
ENDBRANCH  15  16
ENDBRANCH  11  14
ENDBRANCH   7   8
ENDBRANCH   2   7
TORSDOF 9
ENDMDL
