MODEL 1
REMARK VINA RESULT:      -7.0      0.000      0.000
REMARK  10 active torsions:
REMARK  status: ('A' for Active; 'I' for Inactive)
REMARK    1  A    between atoms: O_2  and  C_16 
REMARK    2  A    between atoms: N_5  and  C_9 
REMARK    3  A    between atoms: N_6  and  C_13 
REMARK       I    between atoms: N_6  and  C_22 
REMARK    4  A    between atoms: C_9  and  C_12 
REMARK    5  A    between atoms: C_13  and  C_16 
REMARK    6  A    between atoms: C_13  and  C_21 
REMARK    7  A    between atoms: C_19  and  C_24 
REMARK    8  A    between atoms: C_22  and  C_23 
REMARK    9  A    between atoms: C_27  and  C_30 
REMARK   10  A    between atoms: N_33  and  S_34 
ROOT
HETATM    1  C   UNL     1       5.626  10.842  89.521  1.00  0.00     0.056 A 
HETATM    2  C   UNL     1       6.978  11.107  89.580  1.00  0.00     0.005 A 
HETATM    3  C   UNL     1       5.112   9.582  89.743  1.00  0.00     0.005 A 
HETATM    4  C   UNL     1       7.362   8.779  90.101  1.00  0.00     0.042 A 
HETATM    5  C   UNL     1       7.857  10.064  89.873  1.00  0.00     0.008 A 
HETATM    6  C   UNL     1       5.990   8.538  90.036  1.00  0.00     0.008 A 
ENDROOT
BRANCH   1   7
HETATM    7  C   UNL     1       4.690  11.954  89.211  1.00  0.00     0.254 C 
HETATM    8  O   UNL     1       4.488  12.258  88.038  1.00  0.00    -0.268 OA
HETATM    9  N   UNL     1       4.085  12.561  90.303  1.00  0.00    -0.337 N 
HETATM   10  HN  UNL     1       4.282  12.240  91.243  1.00  0.00     0.164 HD
BRANCH   9  11
HETATM   11  C   UNL     1       3.136  13.637  90.164  1.00  0.00     0.172 C 
BRANCH  11  12
HETATM   12  C   UNL     1       1.959  13.519  91.141  1.00  0.00     0.136 C 
HETATM   13  C   UNL     1       2.147  12.391  92.149  1.00  0.00     0.034 C 
BRANCH  12  14
HETATM   14  O   UNL     1       1.800  14.750  91.847  1.00  0.00    -0.383 OA
HETATM   15  H   UNL     1       2.384  14.733  92.624  1.00  0.00     0.210 HD
ENDBRANCH  12  14
ENDBRANCH  11  12
BRANCH  11  16
HETATM   16  C   UNL     1       3.888  14.949  90.357  1.00  0.00     0.398 A 
HETATM   17  O   UNL     1       4.932  15.216  89.765  1.00  0.00    -0.136 OA
HETATM   18  N   UNL     1       5.043  15.600  91.231  1.00  0.00     0.142 N 
HETATM   19  HN  UNL     1       5.928  15.906  90.935  1.00  0.00     0.338 HD
BRANCH  18  20
HETATM   20  S   UNL     1       4.512  15.350  92.491  1.00  0.00     0.076 SA
HETATM   21  H   UNL     1       3.347  15.122  92.541  1.00  0.00     0.136 HD
ENDBRANCH  18  20
ENDBRANCH  11  16
ENDBRANCH   9  11
ENDBRANCH   1   7
BRANCH   4  22
HETATM   22  C   UNL     1       8.263   7.710  90.398  1.00  0.00    -0.059 C 
HETATM   23  C   UNL     1       9.021   6.810  90.648  1.00  0.00    -0.059 C 
BRANCH  23  24
HETATM   24  C   UNL     1       9.923   5.740  90.946  1.00  0.00     0.042 A 
HETATM   25  C   UNL     1      10.654   5.141  89.921  1.00  0.00     0.008 A 
HETATM   26  C   UNL     1      11.532   4.097  90.211  1.00  0.00    -0.002 A 
HETATM   27  C   UNL     1      11.679   3.654  91.526  1.00  0.00     0.011 A 
HETATM   28  C   UNL     1      10.947   4.255  92.550  1.00  0.00    -0.002 A 
HETATM   29  C   UNL     1      10.069   5.299  92.259  1.00  0.00     0.008 A 
BRANCH  27  30
HETATM   30  C   UNL     1      12.619   2.539  91.835  1.00  0.00     0.277 C 
BRANCH  30  31
HETATM   31  N   UNL     1      13.636   2.922  92.813  1.00  0.00     0.147 N 
HETATM   32  C   UNL     1      14.525   1.791  93.110  1.00  0.00     0.283 C 
HETATM   33  C   UNL     1      15.584   2.218  94.124  1.00  0.00     0.178 C 
HETATM   34  O   UNL     1      16.335   3.325  93.622  1.00  0.00    -0.350 OA
HETATM   35  C   UNL     1      15.481   4.440  93.361  1.00  0.00     0.178 C 
HETATM   36  C   UNL     1      14.421   4.067  92.330  1.00  0.00     0.283 C 
ENDBRANCH  30  31
ENDBRANCH  27  30
ENDBRANCH  23  24
ENDBRANCH   4  22
TORSDOF 10
ENDMDL
