MODEL 1
REMARK VINA RESULT:      -6.1      0.000      0.000
REMARK  12 active torsions:
REMARK  status: ('A' for Active; 'I' for Inactive)
REMARK    1  A    between atoms: O_2  and  C_16 
REMARK    2  A    between atoms: N_5  and  C_9 
REMARK    3  A    between atoms: N_6  and  C_13 
REMARK       I    between atoms: N_6  and  C_22 
REMARK    4  A    between atoms: C_9  and  C_12 
REMARK    5  A    between atoms: C_13  and  C_16 
REMARK    6  A    between atoms: C_13  and  C_21 
REMARK    7  A    between atoms: C_19  and  C_24 
REMARK    8  A    between atoms: C_21  and  C_33 
REMARK    9  A    between atoms: C_22  and  C_23 
REMARK   10  A    between atoms: C_27  and  C_30 
REMARK   11  A    between atoms: C_33  and  C_34 
REMARK   12  A    between atoms: C_34  and  C_35 
ROOT
HETATM    1  O   UNL     1      16.161   4.355  93.801  1.00  0.00    -0.350 OA
HETATM    2  N   UNL     1      14.373   2.589  92.464  1.00  0.00     0.147 N 
HETATM    3  C   UNL     1      14.349   4.037  92.217  1.00  0.00     0.283 C 
HETATM    4  C   UNL     1      14.844   2.318  93.830  1.00  0.00     0.283 C 
HETATM    5  C   UNL     1      15.736   4.627  92.464  1.00  0.00     0.178 C 
HETATM    6  C   UNL     1      16.217   2.948  94.039  1.00  0.00     0.178 C 
ENDROOT
BRANCH   2   7
HETATM    7  C   UNL     1      13.052   2.004  92.244  1.00  0.00     0.277 C 
BRANCH   7   8
HETATM    8  C   UNL     1      11.977   3.036  92.189  1.00  0.00     0.011 A 
HETATM    9  C   UNL     1      11.280   3.253  91.000  1.00  0.00    -0.002 A 
HETATM   10  C   UNL     1      10.275   4.220  90.947  1.00  0.00     0.008 A 
HETATM   11  C   UNL     1       9.967   4.966  92.084  1.00  0.00     0.042 A 
HETATM   12  C   UNL     1      10.662   4.749  93.272  1.00  0.00     0.008 A 
HETATM   13  C   UNL     1      11.667   3.784  93.325  1.00  0.00    -0.002 A 
BRANCH  11  14
HETATM   14  C   UNL     1       8.935   5.956  92.030  1.00  0.00    -0.059 C 
HETATM   15  C   UNL     1       8.067   6.787  91.985  1.00  0.00    -0.059 C 
BRANCH  15  16
HETATM   16  C   UNL     1       7.036   7.775  91.932  1.00  0.00     0.042 A 
HETATM   17  C   UNL     1       7.000   8.795  92.883  1.00  0.00     0.008 A 
HETATM   18  C   UNL     1       5.995   9.761  92.830  1.00  0.00     0.005 A 
HETATM   19  C   UNL     1       5.050   9.686  91.827  1.00  0.00     0.056 A 
HETATM   20  C   UNL     1       5.064   8.688  90.876  1.00  0.00     0.005 A 
HETATM   21  C   UNL     1       6.068   7.721  90.929  1.00  0.00     0.008 A 
BRANCH  19  22
HETATM   22  C   UNL     1       3.979  10.715  91.772  1.00  0.00     0.254 C 
HETATM   23  O   UNL     1       2.805  10.364  91.869  1.00  0.00    -0.268 OA
HETATM   24  N   UNL     1       4.404  12.029  91.636  1.00  0.00    -0.335 N 
HETATM   25  HN  UNL     1       5.393  12.245  91.587  1.00  0.00     0.164 HD
BRANCH  24  26
HETATM   26  C   UNL     1       3.488  13.140  91.591  1.00  0.00     0.166 C 
BRANCH  26  27
HETATM   27  C   UNL     1       3.942  14.319  92.461  1.00  0.00     0.138 C 
HETATM   28  C   UNL     1       2.771  15.146  92.980  1.00  0.00     0.034 C 
BRANCH  27  29
HETATM   29  O   UNL     1       4.693  13.831  93.572  1.00  0.00    -0.383 OA
HETATM   30  H   UNL     1       4.849  12.881  93.441  1.00  0.00     0.210 HD
ENDBRANCH  27  29
ENDBRANCH  26  27
BRANCH  26  31
HETATM   31  C   UNL     1       3.329  13.555  90.132  1.00  0.00     0.181 C 
HETATM   32  O   UNL     1       2.337  14.144  89.708  1.00  0.00    -0.294 OA
BRANCH  31  33
HETATM   33  C   UNL     1       4.613  14.390  89.601  1.00  0.00     0.138 C 
BRANCH  33  34
HETATM   34  C   UNL     1       5.226  13.441  88.754  1.00  0.00     0.208 C 
HETATM   35  O   UNL     1       4.931  13.505  87.582  1.00  0.00    -0.289 OA
BRANCH  34  36
HETATM   36  C   UNL     1       6.313  12.637  88.961  1.00  0.00     0.194 C 
HETATM   37  O   UNL     1       6.424  11.242  88.936  1.00  0.00    -0.185 OA
ENDBRANCH  34  36
ENDBRANCH  33  34
ENDBRANCH  31  33
ENDBRANCH  26  31
ENDBRANCH  24  26
ENDBRANCH  19  22
ENDBRANCH  15  16
ENDBRANCH  11  14
ENDBRANCH   7   8
ENDBRANCH   2   7
TORSDOF 12
ENDMDL
MODEL 2
REMARK VINA RESULT:      -5.4      2.495     12.642
REMARK  12 active torsions:
REMARK  status: ('A' for Active; 'I' for Inactive)
REMARK    1  A    between atoms: O_2  and  C_16 
REMARK    2  A    between atoms: N_5  and  C_9 
REMARK    3  A    between atoms: N_6  and  C_13 
REMARK       I    between atoms: N_6  and  C_22 
REMARK    4  A    between atoms: C_9  and  C_12 
REMARK    5  A    between atoms: C_13  and  C_16 
REMARK    6  A    between atoms: C_13  and  C_21 
REMARK    7  A    between atoms: C_19  and  C_24 
REMARK    8  A    between atoms: C_21  and  C_33 
REMARK    9  A    between atoms: C_22  and  C_23 
REMARK   10  A    between atoms: C_27  and  C_30 
REMARK   11  A    between atoms: C_33  and  C_34 
REMARK   12  A    between atoms: C_34  and  C_35 
ROOT
HETATM    1  O   UNL     1       2.823  14.451  93.840  1.00  0.00    -0.350 OA
HETATM    2  N   UNL     1       2.790  14.325  90.997  1.00  0.00     0.147 N 
HETATM    3  C   UNL     1       1.759  13.662  91.807  1.00  0.00     0.283 C 
HETATM    4  C   UNL     1       4.051  14.399  91.749  1.00  0.00     0.283 C 
HETATM    5  C   UNL     1       1.585  14.403  93.130  1.00  0.00     0.178 C 
HETATM    6  C   UNL     1       3.823  15.122  93.072  1.00  0.00     0.178 C 
ENDROOT
BRANCH   2   7
HETATM    7  C   UNL     1       2.982  13.625  89.728  1.00  0.00     0.277 C 
BRANCH   7   8
HETATM    8  C   UNL     1       3.966  12.510  89.838  1.00  0.00     0.011 A 
HETATM    9  C   UNL     1       5.255  12.666  89.327  1.00  0.00    -0.002 A 
HETATM   10  C   UNL     1       6.176  11.623  89.427  1.00  0.00     0.008 A 
HETATM   11  C   UNL     1       5.807  10.426  90.039  1.00  0.00     0.042 A 
HETATM   12  C   UNL     1       4.520  10.269  90.550  1.00  0.00     0.008 A 
HETATM   13  C   UNL     1       3.599  11.311  90.449  1.00  0.00    -0.002 A 
BRANCH  11  14
HETATM   14  C   UNL     1       6.752   9.357  90.144  1.00  0.00    -0.059 C 
HETATM   15  C   UNL     1       7.547   8.459  90.232  1.00  0.00    -0.059 C 
BRANCH  15  16
HETATM   16  C   UNL     1       8.492   7.391  90.337  1.00  0.00     0.042 A 
HETATM   17  C   UNL     1       8.535   6.400  89.356  1.00  0.00     0.008 A 
HETATM   18  C   UNL     1       9.458   5.359  89.457  1.00  0.00     0.005 A 
HETATM   19  C   UNL     1      10.318   5.334  90.535  1.00  0.00     0.056 A 
HETATM   20  C   UNL     1      10.296   6.301  91.518  1.00  0.00     0.005 A 
HETATM   21  C   UNL     1       9.372   7.342  91.418  1.00  0.00     0.008 A 
BRANCH  19  22
HETATM   22  C   UNL     1      11.301   4.224  90.644  1.00  0.00     0.254 C 
HETATM   23  O   UNL     1      11.168   3.234  89.929  1.00  0.00    -0.268 OA
HETATM   24  N   UNL     1      12.332   4.413  91.553  1.00  0.00    -0.335 N 
HETATM   25  HN  UNL     1      12.391   5.269  92.091  1.00  0.00     0.164 HD
BRANCH  24  26
HETATM   26  C   UNL     1      13.375   3.439  91.755  1.00  0.00     0.166 C 
BRANCH  26  27
HETATM   27  C   UNL     1      14.701   3.846  91.099  1.00  0.00     0.138 C 
HETATM   28  C   UNL     1      15.211   2.800  90.114  1.00  0.00     0.034 C 
BRANCH  27  29
HETATM   29  O   UNL     1      14.534   5.086  90.414  1.00  0.00    -0.383 OA
HETATM   30  H   UNL     1      14.491   4.904  89.460  1.00  0.00     0.210 HD
ENDBRANCH  27  29
ENDBRANCH  26  27
BRANCH  26  31
HETATM   31  C   UNL     1      13.539   3.236  93.257  1.00  0.00     0.181 C 
HETATM   32  O   UNL     1      12.599   2.967  94.003  1.00  0.00    -0.294 OA
BRANCH  31  33
HETATM   33  C   UNL     1      14.706   2.164  93.597  1.00  0.00     0.138 C 
BRANCH  33  34
HETATM   34  C   UNL     1      15.777   3.023  93.932  1.00  0.00     0.208 C 
HETATM   35  O   UNL     1      16.889   2.569  93.787  1.00  0.00    -0.289 OA
BRANCH  34  36
HETATM   36  C   UNL     1      15.801   4.377  94.124  1.00  0.00     0.194 C 
HETATM   37  O   UNL     1      16.077   5.413  93.224  1.00  0.00    -0.185 OA
ENDBRANCH  34  36
ENDBRANCH  33  34
ENDBRANCH  31  33
ENDBRANCH  26  31
ENDBRANCH  24  26
ENDBRANCH  19  22
ENDBRANCH  15  16
ENDBRANCH  11  14
ENDBRANCH   7   8
ENDBRANCH   2   7
TORSDOF 12
ENDMDL
MODEL 3
REMARK VINA RESULT:      -4.6      1.700      2.482
REMARK  12 active torsions:
REMARK  status: ('A' for Active; 'I' for Inactive)
REMARK    1  A    between atoms: O_2  and  C_16 
REMARK    2  A    between atoms: N_5  and  C_9 
REMARK    3  A    between atoms: N_6  and  C_13 
REMARK       I    between atoms: N_6  and  C_22 
REMARK    4  A    between atoms: C_9  and  C_12 
REMARK    5  A    between atoms: C_13  and  C_16 
REMARK    6  A    between atoms: C_13  and  C_21 
REMARK    7  A    between atoms: C_19  and  C_24 
REMARK    8  A    between atoms: C_21  and  C_33 
REMARK    9  A    between atoms: C_22  and  C_23 
REMARK   10  A    between atoms: C_27  and  C_30 
REMARK   11  A    between atoms: C_33  and  C_34 
REMARK   12  A    between atoms: C_34  and  C_35 
ROOT
HETATM    1  O   UNL     1      16.870   3.743  93.033  1.00  0.00    -0.350 OA
HETATM    2  N   UNL     1      14.803   1.797  92.823  1.00  0.00     0.147 N 
HETATM    3  C   UNL     1      15.129   2.695  91.706  1.00  0.00     0.283 C 
HETATM    4  C   UNL     1      15.118   2.450  94.102  1.00  0.00     0.283 C 
HETATM    5  C   UNL     1      16.597   3.105  91.784  1.00  0.00     0.178 C 
HETATM    6  C   UNL     1      16.585   2.866  94.123  1.00  0.00     0.178 C 
ENDROOT
BRANCH   2   7
HETATM    7  C   UNL     1      13.397   1.400  92.775  1.00  0.00     0.277 C 
BRANCH   7   8
HETATM    8  C   UNL     1      12.482   2.567  92.621  1.00  0.00     0.011 A 
HETATM    9  C   UNL     1      11.886   2.826  91.386  1.00  0.00    -0.002 A 
HETATM   10  C   UNL     1      11.031   3.918  91.240  1.00  0.00     0.008 A 
HETATM   11  C   UNL     1      10.772   4.750  92.329  1.00  0.00     0.042 A 
HETATM   12  C   UNL     1      11.366   4.491  93.563  1.00  0.00     0.008 A 
HETATM   13  C   UNL     1      12.222   3.400  93.709  1.00  0.00    -0.002 A 
BRANCH  11  14
HETATM   14  C   UNL     1       9.893   5.869  92.180  1.00  0.00    -0.059 C 
HETATM   15  C   UNL     1       9.155   6.810  92.055  1.00  0.00    -0.059 C 
BRANCH  15  16
HETATM   16  C   UNL     1       8.278   7.929  91.906  1.00  0.00     0.042 A 
HETATM   17  C   UNL     1       8.208   8.897  92.908  1.00  0.00     0.008 A 
HETATM   18  C   UNL     1       7.354   9.990  92.761  1.00  0.00     0.005 A 
HETATM   19  C   UNL     1       6.591  10.092  91.616  1.00  0.00     0.056 A 
HETATM   20  C   UNL     1       6.643   9.148  90.612  1.00  0.00     0.005 A 
HETATM   21  C   UNL     1       7.496   8.054  90.758  1.00  0.00     0.008 A 
BRANCH  19  22
HETATM   22  C   UNL     1       5.681  11.255  91.461  1.00  0.00     0.254 C 
HETATM   23  O   UNL     1       5.239  11.810  92.465  1.00  0.00    -0.268 OA
HETATM   24  N   UNL     1       5.413  11.649  90.157  1.00  0.00    -0.335 N 
HETATM   25  HN  UNL     1       5.834  11.158  89.377  1.00  0.00     0.164 HD
BRANCH  24  26
HETATM   26  C   UNL     1       4.569  12.773  89.844  1.00  0.00     0.166 C 
BRANCH  26  27
HETATM   27  C   UNL     1       5.182  13.699  88.785  1.00  0.00     0.138 C 
HETATM   28  C   UNL     1       5.253  15.150  89.248  1.00  0.00     0.034 C 
BRANCH  27  29
HETATM   29  O   UNL     1       6.498  13.250  88.463  1.00  0.00    -0.383 OA
HETATM   30  H   UNL     1       6.473  12.840  87.582  1.00  0.00     0.210 HD
ENDBRANCH  27  29
ENDBRANCH  26  27
BRANCH  26  31
HETATM   31  C   UNL     1       3.218  12.230  89.391  1.00  0.00     0.181 C 
HETATM   32  O   UNL     1       2.237  12.947  89.201  1.00  0.00    -0.294 OA
BRANCH  31  33
HETATM   33  C   UNL     1       3.356  11.295  88.073  1.00  0.00     0.138 C 
BRANCH  33  34
HETATM   34  C   UNL     1       2.504  10.221  88.410  1.00  0.00     0.208 C 
HETATM   35  O   UNL     1       1.621   9.975  87.621  1.00  0.00    -0.289 OA
BRANCH  34  36
HETATM   36  C   UNL     1       2.660   9.218  89.327  1.00  0.00     0.194 C 
HETATM   37  O   UNL     1       2.992   9.277  90.685  1.00  0.00    -0.185 OA
ENDBRANCH  34  36
ENDBRANCH  33  34
ENDBRANCH  31  33
ENDBRANCH  26  31
ENDBRANCH  24  26
ENDBRANCH  19  22
ENDBRANCH  15  16
ENDBRANCH  11  14
ENDBRANCH   7   8
ENDBRANCH   2   7
TORSDOF 12
ENDMDL
MODEL 4
REMARK VINA RESULT:      -4.5      2.801     12.262
REMARK  12 active torsions:
REMARK  status: ('A' for Active; 'I' for Inactive)
REMARK    1  A    between atoms: O_2  and  C_16 
REMARK    2  A    between atoms: N_5  and  C_9 
REMARK    3  A    between atoms: N_6  and  C_13 
REMARK       I    between atoms: N_6  and  C_22 
REMARK    4  A    between atoms: C_9  and  C_12 
REMARK    5  A    between atoms: C_13  and  C_16 
REMARK    6  A    between atoms: C_13  and  C_21 
REMARK    7  A    between atoms: C_19  and  C_24 
REMARK    8  A    between atoms: C_21  and  C_33 
REMARK    9  A    between atoms: C_22  and  C_23 
REMARK   10  A    between atoms: C_27  and  C_30 
REMARK   11  A    between atoms: C_33  and  C_34 
REMARK   12  A    between atoms: C_34  and  C_35 
ROOT
HETATM    1  O   UNL     1       3.112  14.806  93.784  1.00  0.00    -0.350 OA
HETATM    2  N   UNL     1       2.792  14.778  90.956  1.00  0.00     0.147 N 
HETATM    3  C   UNL     1       1.889  14.027  91.838  1.00  0.00     0.283 C 
HETATM    4  C   UNL     1       4.117  14.900  91.578  1.00  0.00     0.283 C 
HETATM    5  C   UNL     1       1.811  14.710  93.201  1.00  0.00     0.178 C 
HETATM    6  C   UNL     1       3.988  15.562  92.946  1.00  0.00     0.178 C 
ENDROOT
BRANCH   2   7
HETATM    7  C   UNL     1       2.890  14.135  89.647  1.00  0.00     0.277 C 
BRANCH   7   8
HETATM    8  C   UNL     1       3.874  13.016  89.636  1.00  0.00     0.011 A 
HETATM    9  C   UNL     1       5.185  13.244  89.214  1.00  0.00    -0.002 A 
HETATM   10  C   UNL     1       6.106  12.197  89.201  1.00  0.00     0.008 A 
HETATM   11  C   UNL     1       5.717  10.923  89.613  1.00  0.00     0.042 A 
HETATM   12  C   UNL     1       4.409  10.693  90.035  1.00  0.00     0.008 A 
HETATM   13  C   UNL     1       3.487  11.740  90.047  1.00  0.00    -0.002 A 
BRANCH  11  14
HETATM   14  C   UNL     1       6.663   9.850  89.602  1.00  0.00    -0.059 C 
HETATM   15  C   UNL     1       7.459   8.948  89.592  1.00  0.00    -0.059 C 
BRANCH  15  16
HETATM   16  C   UNL     1       8.404   7.876  89.582  1.00  0.00     0.042 A 
HETATM   17  C   UNL     1       8.872   7.371  88.369  1.00  0.00     0.008 A 
HETATM   18  C   UNL     1       9.796   6.326  88.359  1.00  0.00     0.005 A 
HETATM   19  C   UNL     1      10.233   5.811  89.562  1.00  0.00     0.056 A 
HETATM   20  C   UNL     1       9.786   6.293  90.774  1.00  0.00     0.005 A 
HETATM   21  C   UNL     1       8.861   7.337  90.785  1.00  0.00     0.008 A 
BRANCH  19  22
HETATM   22  C   UNL     1      11.216   4.698  89.551  1.00  0.00     0.254 C 
HETATM   23  O   UNL     1      11.362   4.036  88.526  1.00  0.00    -0.268 OA
HETATM   24  N   UNL     1      11.929   4.504  90.726  1.00  0.00    -0.335 N 
HETATM   25  HN  UNL     1      11.773   5.107  91.526  1.00  0.00     0.164 HD
BRANCH  24  26
HETATM   26  C   UNL     1      12.934   3.482  90.864  1.00  0.00     0.166 C 
BRANCH  26  27
HETATM   27  C   UNL     1      14.328   4.054  91.155  1.00  0.00     0.138 C 
HETATM   28  C   UNL     1      15.441   3.049  90.879  1.00  0.00     0.034 C 
BRANCH  27  29
HETATM   29  O   UNL     1      14.543   5.215  90.353  1.00  0.00    -0.383 OA
HETATM   30  H   UNL     1      13.887   5.886  90.605  1.00  0.00     0.210 HD
ENDBRANCH  27  29
ENDBRANCH  26  27
BRANCH  26  31
HETATM   31  C   UNL     1      12.484   2.532  91.969  1.00  0.00     0.181 C 
HETATM   32  O   UNL     1      12.928   1.392  92.095  1.00  0.00    -0.294 OA
BRANCH  31  33
HETATM   33  C   UNL     1      12.583   3.221  93.433  1.00  0.00     0.138 C 
BRANCH  33  34
HETATM   34  C   UNL     1      11.314   3.832  93.535  1.00  0.00     0.208 C 
HETATM   35  O   UNL     1      11.312   5.016  93.785  1.00  0.00    -0.289 OA
BRANCH  34  36
HETATM   36  C   UNL     1      10.085   3.398  93.122  1.00  0.00     0.194 C 
HETATM   37  O   UNL     1       9.605   3.130  91.835  1.00  0.00    -0.185 OA
ENDBRANCH  34  36
ENDBRANCH  33  34
ENDBRANCH  31  33
ENDBRANCH  26  31
ENDBRANCH  24  26
ENDBRANCH  19  22
ENDBRANCH  15  16
ENDBRANCH  11  14
ENDBRANCH   7   8
ENDBRANCH   2   7
TORSDOF 12
ENDMDL
MODEL 5
REMARK VINA RESULT:      -4.2      1.568      2.001
REMARK  12 active torsions:
REMARK  status: ('A' for Active; 'I' for Inactive)
REMARK    1  A    between atoms: O_2  and  C_16 
REMARK    2  A    between atoms: N_5  and  C_9 
REMARK    3  A    between atoms: N_6  and  C_13 
REMARK       I    between atoms: N_6  and  C_22 
REMARK    4  A    between atoms: C_9  and  C_12 
REMARK    5  A    between atoms: C_13  and  C_16 
REMARK    6  A    between atoms: C_13  and  C_21 
REMARK    7  A    between atoms: C_19  and  C_24 
REMARK    8  A    between atoms: C_21  and  C_33 
REMARK    9  A    between atoms: C_22  and  C_23 
REMARK   10  A    between atoms: C_27  and  C_30 
REMARK   11  A    between atoms: C_33  and  C_34 
REMARK   12  A    between atoms: C_34  and  C_35 
ROOT
HETATM    1  O   UNL     1      15.581   3.730  91.034  1.00  0.00    -0.350 OA
HETATM    2  N   UNL     1      13.414   2.700  92.567  1.00  0.00     0.147 N 
HETATM    3  C   UNL     1      13.219   3.780  91.590  1.00  0.00     0.283 C 
HETATM    4  C   UNL     1      14.781   2.750  93.104  1.00  0.00     0.283 C 
HETATM    5  C   UNL     1      14.264   3.670  90.483  1.00  0.00     0.178 C 
HETATM    6  C   UNL     1      15.789   2.665  91.963  1.00  0.00     0.178 C 
ENDROOT
BRANCH   2   7
HETATM    7  C   UNL     1      12.429   2.792  93.644  1.00  0.00     0.277 C 
BRANCH   7   8
HETATM    8  C   UNL     1      11.347   3.772  93.342  1.00  0.00     0.011 A 
HETATM    9  C   UNL     1      10.465   3.532  92.288  1.00  0.00    -0.002 A 
HETATM   10  C   UNL     1       9.453   4.449  92.003  1.00  0.00     0.008 A 
HETATM   11  C   UNL     1       9.324   5.604  92.773  1.00  0.00     0.042 A 
HETATM   12  C   UNL     1      10.204   5.845  93.826  1.00  0.00     0.008 A 
HETATM   13  C   UNL     1      11.216   4.928  94.111  1.00  0.00    -0.002 A 
BRANCH  11  14
HETATM   14  C   UNL     1       8.285   6.544  92.482  1.00  0.00    -0.059 C 
HETATM   15  C   UNL     1       7.412   7.333  92.238  1.00  0.00    -0.059 C 
BRANCH  15  16
HETATM   16  C   UNL     1       6.374   8.273  91.947  1.00  0.00     0.042 A 
HETATM   17  C   UNL     1       5.875   8.381  90.648  1.00  0.00     0.008 A 
HETATM   18  C   UNL     1       4.861   9.295  90.366  1.00  0.00     0.005 A 
HETATM   19  C   UNL     1       4.368  10.081  91.387  1.00  0.00     0.056 A 
HETATM   20  C   UNL     1       4.844   9.993  92.678  1.00  0.00     0.005 A 
HETATM   21  C   UNL     1       5.858   9.079  92.962  1.00  0.00     0.008 A 
BRANCH  19  22
HETATM   22  C   UNL     1       3.289  11.056  91.084  1.00  0.00     0.254 C 
HETATM   23  O   UNL     1       2.423  10.759  90.265  1.00  0.00    -0.268 OA
HETATM   24  N   UNL     1       3.333  12.250  91.791  1.00  0.00    -0.335 N 
HETATM   25  HN  UNL     1       4.065  12.416  92.471  1.00  0.00     0.164 HD
BRANCH  24  26
HETATM   26  C   UNL     1       2.345  13.286  91.627  1.00  0.00     0.166 C 
BRANCH  26  27
HETATM   27  C   UNL     1       1.287  13.277  92.738  1.00  0.00     0.138 C 
HETATM   28  C   UNL     1       1.580  12.239  93.815  1.00  0.00     0.034 C 
BRANCH  27  29
HETATM   29  O   UNL     1       1.220  14.567  93.343  1.00  0.00    -0.383 OA
HETATM   30  H   UNL     1       0.928  15.205  92.671  1.00  0.00     0.210 HD
ENDBRANCH  27  29
ENDBRANCH  26  27
BRANCH  26  31
HETATM   31  C   UNL     1       3.076  14.623  91.568  1.00  0.00     0.181 C 
HETATM   32  O   UNL     1       3.027  15.453  92.474  1.00  0.00    -0.294 OA
BRANCH  31  33
HETATM   33  C   UNL     1       4.646  14.436  91.210  1.00  0.00     0.138 C 
BRANCH  33  34
HETATM   34  C   UNL     1       4.628  14.600  89.807  1.00  0.00     0.208 C 
HETATM   35  O   UNL     1       5.229  15.556  89.376  1.00  0.00    -0.289 OA
BRANCH  34  36
HETATM   36  C   UNL     1       4.294  13.719  88.815  1.00  0.00     0.194 C 
HETATM   37  O   UNL     1       5.055  12.718  88.201  1.00  0.00    -0.185 OA
ENDBRANCH  34  36
ENDBRANCH  33  34
ENDBRANCH  31  33
ENDBRANCH  26  31
ENDBRANCH  24  26
ENDBRANCH  19  22
ENDBRANCH  15  16
ENDBRANCH  11  14
ENDBRANCH   7   8
ENDBRANCH   2   7
TORSDOF 12
ENDMDL
MODEL 6
REMARK VINA RESULT:      -3.5      2.626     12.490
REMARK  12 active torsions:
REMARK  status: ('A' for Active; 'I' for Inactive)
REMARK    1  A    between atoms: O_2  and  C_16 
REMARK    2  A    between atoms: N_5  and  C_9 
REMARK    3  A    between atoms: N_6  and  C_13 
REMARK       I    between atoms: N_6  and  C_22 
REMARK    4  A    between atoms: C_9  and  C_12 
REMARK    5  A    between atoms: C_13  and  C_16 
REMARK    6  A    between atoms: C_13  and  C_21 
REMARK    7  A    between atoms: C_19  and  C_24 
REMARK    8  A    between atoms: C_21  and  C_33 
REMARK    9  A    between atoms: C_22  and  C_23 
REMARK   10  A    between atoms: C_27  and  C_30 
REMARK   11  A    between atoms: C_33  and  C_34 
REMARK   12  A    between atoms: C_34  and  C_35 
ROOT
HETATM    1  O   UNL     1       1.836  15.625  93.598  1.00  0.00    -0.350 OA
HETATM    2  N   UNL     1       2.949  13.659  91.865  1.00  0.00     0.147 N 
HETATM    3  C   UNL     1       3.608  14.955  92.080  1.00  0.00     0.283 C 
HETATM    4  C   UNL     1       1.497  13.799  92.037  1.00  0.00     0.283 C 
HETATM    5  C   UNL     1       3.253  15.493  93.464  1.00  0.00     0.178 C 
HETATM    6  C   UNL     1       1.191  14.363  93.421  1.00  0.00     0.178 C 
ENDROOT
BRANCH   2   7
HETATM    7  C   UNL     1       3.267  13.131  90.540  1.00  0.00     0.277 C 
BRANCH   7   8
HETATM    8  C   UNL     1       4.365  12.123  90.579  1.00  0.00     0.011 A 
HETATM    9  C   UNL     1       5.213  11.973  89.481  1.00  0.00    -0.002 A 
HETATM   10  C   UNL     1       6.239  11.029  89.516  1.00  0.00     0.008 A 
HETATM   11  C   UNL     1       6.418  10.236  90.650  1.00  0.00     0.042 A 
HETATM   12  C   UNL     1       5.572  10.385  91.747  1.00  0.00     0.008 A 
HETATM   13  C   UNL     1       4.545  11.329  91.712  1.00  0.00    -0.002 A 
BRANCH  11  14
HETATM   14  C   UNL     1       7.472   9.269  90.686  1.00  0.00    -0.059 C 
HETATM   15  C   UNL     1       8.357   8.456  90.717  1.00  0.00    -0.059 C 
BRANCH  15  16
HETATM   16  C   UNL     1       9.409   7.489  90.752  1.00  0.00     0.042 A 
HETATM   17  C   UNL     1       9.789   6.918  91.967  1.00  0.00     0.008 A 
HETATM   18  C   UNL     1      10.814   5.973  92.001  1.00  0.00     0.005 A 
HETATM   19  C   UNL     1      11.436   5.620  90.821  1.00  0.00     0.056 A 
HETATM   20  C   UNL     1      11.079   6.171  89.608  1.00  0.00     0.005 A 
HETATM   21  C   UNL     1      10.054   7.116  89.573  1.00  0.00     0.008 A 
BRANCH  19  22
HETATM   22  C   UNL     1      12.529   4.615  90.859  1.00  0.00     0.254 C 
HETATM   23  O   UNL     1      12.767   3.950  89.853  1.00  0.00    -0.268 OA
HETATM   24  N   UNL     1      13.230   4.523  92.053  1.00  0.00    -0.335 N 
HETATM   25  HN  UNL     1      12.994   5.123  92.834  1.00  0.00     0.164 HD
BRANCH  24  26
HETATM   26  C   UNL     1      14.333   3.613  92.237  1.00  0.00     0.166 C 
BRANCH  26  27
HETATM   27  C   UNL     1      15.363   4.127  93.250  1.00  0.00     0.138 C 
HETATM   28  C   UNL     1      16.493   3.132  93.490  1.00  0.00     0.034 C 
BRANCH  27  29
HETATM   29  O   UNL     1      15.920   5.356  92.783  1.00  0.00    -0.383 OA
HETATM   30  H   UNL     1      15.795   6.029  93.473  1.00  0.00     0.210 HD
ENDBRANCH  27  29
ENDBRANCH  26  27
BRANCH  26  31
HETATM   31  C   UNL     1      13.759   2.266  92.665  1.00  0.00     0.181 C 
HETATM   32  O   UNL     1      14.417   1.418  93.265  1.00  0.00    -0.294 OA
BRANCH  31  33
HETATM   33  C   UNL     1      12.376   2.436  93.494  1.00  0.00     0.138 C 
BRANCH  33  34
HETATM   34  C   UNL     1      11.420   2.257  92.470  1.00  0.00     0.208 C 
HETATM   35  O   UNL     1      11.701   1.450  91.614  1.00  0.00    -0.289 OA
BRANCH  34  36
HETATM   36  C   UNL     1      10.102   2.619  92.413  1.00  0.00     0.194 C 
HETATM   37  O   UNL     1       9.310   2.987  91.319  1.00  0.00    -0.185 OA
ENDBRANCH  34  36
ENDBRANCH  33  34
ENDBRANCH  31  33
ENDBRANCH  26  31
ENDBRANCH  24  26
ENDBRANCH  19  22
ENDBRANCH  15  16
ENDBRANCH  11  14
ENDBRANCH   7   8
ENDBRANCH   2   7
TORSDOF 12
ENDMDL
MODEL 7
REMARK VINA RESULT:      -3.2      2.009     12.597
REMARK  12 active torsions:
REMARK  status: ('A' for Active; 'I' for Inactive)
REMARK    1  A    between atoms: O_2  and  C_16 
REMARK    2  A    between atoms: N_5  and  C_9 
REMARK    3  A    between atoms: N_6  and  C_13 
REMARK       I    between atoms: N_6  and  C_22 
REMARK    4  A    between atoms: C_9  and  C_12 
REMARK    5  A    between atoms: C_13  and  C_16 
REMARK    6  A    between atoms: C_13  and  C_21 
REMARK    7  A    between atoms: C_19  and  C_24 
REMARK    8  A    between atoms: C_21  and  C_33 
REMARK    9  A    between atoms: C_22  and  C_23 
REMARK   10  A    between atoms: C_27  and  C_30 
REMARK   11  A    between atoms: C_33  and  C_34 
REMARK   12  A    between atoms: C_34  and  C_35 
ROOT
HETATM    1  O   UNL     1       4.032  14.927  90.083  1.00  0.00    -0.350 OA
HETATM    2  N   UNL     1       2.991  13.797  92.480  1.00  0.00     0.147 N 
HETATM    3  C   UNL     1       4.276  14.510  92.462  1.00  0.00     0.283 C 
HETATM    4  C   UNL     1       2.735  13.187  91.168  1.00  0.00     0.283 C 
HETATM    5  C   UNL     1       4.275  15.551  91.346  1.00  0.00     0.178 C 
HETATM    6  C   UNL     1       2.770  14.258  90.083  1.00  0.00     0.178 C 
ENDROOT
BRANCH   2   7
HETATM    7  C   UNL     1       2.974  12.786  93.535  1.00  0.00     0.277 C 
BRANCH   7   8
HETATM    8  C   UNL     1       3.948  11.686  93.284  1.00  0.00     0.011 A 
HETATM    9  C   UNL     1       3.576  10.592  92.502  1.00  0.00    -0.002 A 
HETATM   10  C   UNL     1       4.485   9.560  92.268  1.00  0.00     0.008 A 
HETATM   11  C   UNL     1       5.767   9.626  92.813  1.00  0.00     0.042 A 
HETATM   12  C   UNL     1       6.140  10.718  93.593  1.00  0.00     0.008 A 
HETATM   13  C   UNL     1       5.231  11.749  93.829  1.00  0.00    -0.002 A 
BRANCH  11  14
HETATM   14  C   UNL     1       6.701   8.569  92.571  1.00  0.00    -0.059 C 
HETATM   15  C   UNL     1       7.485   7.680  92.367  1.00  0.00    -0.059 C 
BRANCH  15  16
HETATM   16  C   UNL     1       8.417   6.624  92.125  1.00  0.00     0.042 A 
HETATM   17  C   UNL     1       8.520   6.064  90.851  1.00  0.00     0.008 A 
HETATM   18  C   UNL     1       9.431   5.035  90.614  1.00  0.00     0.005 A 
HETATM   19  C   UNL     1      10.219   4.590  91.654  1.00  0.00     0.056 A 
HETATM   20  C   UNL     1      10.136   5.126  92.922  1.00  0.00     0.005 A 
HETATM   21  C   UNL     1       9.225   6.155  93.160  1.00  0.00     0.008 A 
BRANCH  19  22
HETATM   22  C   UNL     1      11.189   3.493  91.401  1.00  0.00     0.254 C 
HETATM   23  O   UNL     1      10.957   2.681  90.509  1.00  0.00    -0.268 OA
HETATM   24  N   UNL     1      12.323   3.487  92.202  1.00  0.00    -0.335 N 
HETATM   25  HN  UNL     1      12.459   4.205  92.903  1.00  0.00     0.164 HD
BRANCH  24  26
HETATM   26  C   UNL     1      13.365   2.502  92.062  1.00  0.00     0.166 C 
BRANCH  26  27
HETATM   27  C   UNL     1      14.348   2.834  90.932  1.00  0.00     0.138 C 
HETATM   28  C   UNL     1      14.350   4.317  90.577  1.00  0.00     0.034 C 
BRANCH  27  29
HETATM   29  O   UNL     1      15.666   2.447  91.316  1.00  0.00    -0.383 OA
HETATM   30  H   UNL     1      16.113   2.071  90.539  1.00  0.00     0.210 HD
ENDBRANCH  27  29
ENDBRANCH  26  27
BRANCH  26  31
HETATM   31  C   UNL     1      14.082   2.389  93.404  1.00  0.00     0.181 C 
HETATM   32  O   UNL     1      15.148   1.793  93.545  1.00  0.00    -0.294 OA
BRANCH  31  33
HETATM   33  C   UNL     1      14.277   3.837  94.106  1.00  0.00     0.138 C 
BRANCH  33  34
HETATM   34  C   UNL     1      15.667   4.033  93.947  1.00  0.00     0.208 C 
HETATM   35  O   UNL     1      16.066   5.165  94.103  1.00  0.00    -0.289 OA
BRANCH  34  36
HETATM   36  C   UNL     1      16.694   3.130  93.928  1.00  0.00     0.194 C 
HETATM   37  O   UNL     1      18.053   3.312  93.646  1.00  0.00    -0.185 OA
ENDBRANCH  34  36
ENDBRANCH  33  34
ENDBRANCH  31  33
ENDBRANCH  26  31
ENDBRANCH  24  26
ENDBRANCH  19  22
ENDBRANCH  15  16
ENDBRANCH  11  14
ENDBRANCH   7   8
ENDBRANCH   2   7
TORSDOF 12
ENDMDL
