MODEL 1
REMARK VINA RESULT:      -7.5      0.000      0.000
REMARK  9 active torsions:
REMARK  status: ('A' for Active; 'I' for Inactive)
REMARK    1  A    between atoms: N_3  and  C_6 
REMARK    2  A    between atoms: C_6  and  C_9 
REMARK    3  A    between atoms: C_14  and  C_17 
REMARK       I    between atoms: N_26  and  C_15 
REMARK    4  A    between atoms: C_15  and  C_16 
REMARK    5  A    between atoms: C_20  and  C_23 
REMARK    6  A    between atoms: OG1_24  and  CB_28 
REMARK    7  A    between atoms: N_26  and  CA_27 
REMARK    8  A    between atoms: CA_27  and  CB_28 
REMARK    9  A    between atoms: CA_27  and  C_30 
ROOT
HETATM    1  O   UNK A   0       1.931   8.009  87.843  1.00  0.00    -0.388 OA
HETATM    2  N   UNK A   0       4.730   7.518  87.688  1.00  0.00     0.096 N 
HETATM    3  C   UNK A   0       4.193   8.884  87.757  1.00  0.00     0.299 C 
HETATM    4  C   UNK A   0       3.757   6.626  87.044  1.00  0.00     0.299 C 
HETATM    5  C   UNK A   0       2.858   8.877  88.497  1.00  0.00     0.198 C 
HETATM    6  C   UNK A   0       2.433   6.673  87.800  1.00  0.00     0.198 C 
ENDROOT
BRANCH   2   7
HETATM    7  C   UNK A   0       6.005   7.499  86.973  1.00  0.00     0.311 C 
BRANCH   7   8
HETATM    8  C   UNK A   0       7.104   6.905  87.787  1.00  0.00    -0.030 A 
HETATM    9  C   UNK A   0       6.925   6.702  89.155  1.00  0.00     0.010 A 
HETATM   10  C   UNK A   0       7.954   6.148  89.918  1.00  0.00     0.021 A 
HETATM   11  C   UNK A   0       9.159   5.797  89.311  1.00  0.00     0.018 A 
HETATM   12  C   UNK A   0       9.338   5.999  87.945  1.00  0.00     0.021 A 
HETATM   13  C   UNK A   0       8.311   6.553  87.181  1.00  0.00     0.010 A 
BRANCH  11  14
HETATM   14  C   UNK A   0      10.213   5.227  90.094  1.00  0.00    -0.061 C 
HETATM   15  C   UNK A   0      11.098   4.747  90.750  1.00  0.00    -0.061 C 
BRANCH  15  16
HETATM   16  C   UNK A   0      12.152   4.178  91.531  1.00  0.00     0.018 A 
HETATM   17  C   UNK A   0      11.931   3.858  92.871  1.00  0.00     0.022 A 
HETATM   18  C   UNK A   0      12.959   3.300  93.632  1.00  0.00     0.018 A 
HETATM   19  C   UNK A   0      14.182   3.074  93.037  1.00  0.00     0.032 A 
HETATM   20  C   UNK A   0      14.425   3.382  91.715  1.00  0.00     0.018 A 
HETATM   21  C   UNK A   0      13.399   3.940  90.953  1.00  0.00     0.022 A 
BRANCH  19  22
HETATM   22  C   UNK A   0      15.277   2.482  93.848  1.00  0.00     0.252 C 
HETATM   23  O   UNK A   0      16.402   2.972  93.787  1.00  0.00    -0.268 OA
ENDBRANCH  19  22
ENDBRANCH  15  16
ENDBRANCH  11  14
ENDBRANCH   7   8
ENDBRANCH   2   7
TORSDOF 9
ENDMDL
MODEL 2
REMARK VINA RESULT:      -7.5      0.127      1.015
REMARK  9 active torsions:
REMARK  status: ('A' for Active; 'I' for Inactive)
REMARK    1  A    between atoms: N_3  and  C_6 
REMARK    2  A    between atoms: C_6  and  C_9 
REMARK    3  A    between atoms: C_14  and  C_17 
REMARK       I    between atoms: N_26  and  C_15 
REMARK    4  A    between atoms: C_15  and  C_16 
REMARK    5  A    between atoms: C_20  and  C_23 
REMARK    6  A    between atoms: OG1_24  and  CB_28 
REMARK    7  A    between atoms: N_26  and  CA_27 
REMARK    8  A    between atoms: CA_27  and  CB_28 
REMARK    9  A    between atoms: CA_27  and  C_30 
ROOT
HETATM    1  O   UNK A   0       1.828   8.013  87.842  1.00  0.00    -0.388 OA
HETATM    2  N   UNK A   0       4.628   7.526  87.676  1.00  0.00     0.096 N 
HETATM    3  C   UNK A   0       4.092   8.888  87.812  1.00  0.00     0.299 C 
HETATM    4  C   UNK A   0       3.656   6.670  86.982  1.00  0.00     0.299 C 
HETATM    5  C   UNK A   0       2.753   8.845  88.545  1.00  0.00     0.198 C 
HETATM    6  C   UNK A   0       2.328   6.680  87.732  1.00  0.00     0.198 C 
ENDROOT
BRANCH   2   7
HETATM    7  C   UNK A   0       5.906   7.542  86.967  1.00  0.00     0.311 C 
BRANCH   7   8
HETATM    8  C   UNK A   0       7.007   6.937  87.769  1.00  0.00    -0.030 A 
HETATM    9  C   UNK A   0       6.813   6.661  89.123  1.00  0.00     0.010 A 
HETATM   10  C   UNK A   0       7.843   6.096  89.875  1.00  0.00     0.021 A 
HETATM   11  C   UNK A   0       9.067   5.806  89.272  1.00  0.00     0.018 A 
HETATM   12  C   UNK A   0       9.262   6.081  87.920  1.00  0.00     0.021 A 
HETATM   13  C   UNK A   0       8.232   6.646  87.168  1.00  0.00     0.010 A 
BRANCH  11  14
HETATM   14  C   UNK A   0      10.123   5.225  90.042  1.00  0.00    -0.061 C 
HETATM   15  C   UNK A   0      11.010   4.736  90.690  1.00  0.00    -0.061 C 
BRANCH  15  16
HETATM   16  C   UNK A   0      12.066   4.155  91.460  1.00  0.00     0.018 A 
HETATM   17  C   UNK A   0      13.322   3.964  90.885  1.00  0.00     0.022 A 
HETATM   18  C   UNK A   0      14.353   3.400  91.637  1.00  0.00     0.018 A 
HETATM   19  C   UNK A   0      14.104   3.040  92.945  1.00  0.00     0.032 A 
HETATM   20  C   UNK A   0      12.870   3.218  93.535  1.00  0.00     0.018 A 
HETATM   21  C   UNK A   0      11.839   3.782  92.785  1.00  0.00     0.022 A 
BRANCH  19  22
HETATM   22  C   UNK A   0      15.202   2.437  93.745  1.00  0.00     0.252 C 
HETATM   23  O   UNK A   0      16.351   2.843  93.588  1.00  0.00    -0.268 OA
ENDBRANCH  19  22
ENDBRANCH  15  16
ENDBRANCH  11  14
ENDBRANCH   7   8
ENDBRANCH   2   7
TORSDOF 9
ENDMDL
MODEL 3
REMARK VINA RESULT:      -7.1      1.119      1.856
REMARK  9 active torsions:
REMARK  status: ('A' for Active; 'I' for Inactive)
REMARK    1  A    between atoms: N_3  and  C_6 
REMARK    2  A    between atoms: C_6  and  C_9 
REMARK    3  A    between atoms: C_14  and  C_17 
REMARK       I    between atoms: N_26  and  C_15 
REMARK    4  A    between atoms: C_15  and  C_16 
REMARK    5  A    between atoms: C_20  and  C_23 
REMARK    6  A    between atoms: OG1_24  and  CB_28 
REMARK    7  A    between atoms: N_26  and  CA_27 
REMARK    8  A    between atoms: CA_27  and  CB_28 
REMARK    9  A    between atoms: CA_27  and  C_30 
ROOT
HETATM    1  O   UNK A   0       1.969   7.041  86.822  1.00  0.00    -0.388 OA
HETATM    2  N   UNK A   0       4.129   7.942  88.443  1.00  0.00     0.096 N 
HETATM    3  C   UNK A   0       2.922   8.758  88.248  1.00  0.00     0.299 C 
HETATM    4  C   UNK A   0       4.353   7.088  87.269  1.00  0.00     0.299 C 
HETATM    5  C   UNK A   0       1.725   7.852  87.972  1.00  0.00     0.198 C 
HETATM    6  C   UNK A   0       3.123   6.222  87.015  1.00  0.00     0.198 C 
ENDROOT
BRANCH   2   7
HETATM    7  C   UNK A   0       5.291   8.791  88.698  1.00  0.00     0.311 C 
BRANCH   7   8
HETATM    8  C   UNK A   0       6.451   8.019  89.230  1.00  0.00    -0.030 A 
HETATM    9  C   UNK A   0       7.703   8.139  88.625  1.00  0.00     0.010 A 
HETATM   10  C   UNK A   0       8.789   7.416  89.120  1.00  0.00     0.021 A 
HETATM   11  C   UNK A   0       8.622   6.576  90.221  1.00  0.00     0.018 A 
HETATM   12  C   UNK A   0       7.372   6.456  90.825  1.00  0.00     0.021 A 
HETATM   13  C   UNK A   0       6.287   7.178  90.330  1.00  0.00     0.010 A 
BRANCH  11  14
HETATM   14  C   UNK A   0       9.736   5.837  90.730  1.00  0.00    -0.061 C 
HETATM   15  C   UNK A   0      10.673   5.216  91.157  1.00  0.00    -0.061 C 
BRANCH  15  16
HETATM   16  C   UNK A   0      11.786   4.477  91.666  1.00  0.00     0.018 A 
HETATM   17  C   UNK A   0      12.886   4.223  90.847  1.00  0.00     0.022 A 
HETATM   18  C   UNK A   0      13.973   3.505  91.345  1.00  0.00     0.018 A 
HETATM   19  C   UNK A   0      13.937   3.059  92.650  1.00  0.00     0.032 A 
HETATM   20  C   UNK A   0      12.861   3.297  93.479  1.00  0.00     0.018 A 
HETATM   21  C   UNK A   0      11.773   4.015  92.982  1.00  0.00     0.022 A 
BRANCH  19  22
HETATM   22  C   UNK A   0      15.094   2.292  93.179  1.00  0.00     0.252 C 
HETATM   23  O   UNK A   0      16.024   2.898  93.706  1.00  0.00    -0.268 OA
ENDBRANCH  19  22
ENDBRANCH  15  16
ENDBRANCH  11  14
ENDBRANCH   7   8
ENDBRANCH   2   7
TORSDOF 9
ENDMDL
MODEL 4
REMARK VINA RESULT:      -6.9      1.511      1.908
REMARK  9 active torsions:
REMARK  status: ('A' for Active; 'I' for Inactive)
REMARK    1  A    between atoms: N_3  and  C_6 
REMARK    2  A    between atoms: C_6  and  C_9 
REMARK    3  A    between atoms: C_14  and  C_17 
REMARK       I    between atoms: N_26  and  C_15 
REMARK    4  A    between atoms: C_15  and  C_16 
REMARK    5  A    between atoms: C_20  and  C_23 
REMARK    6  A    between atoms: OG1_24  and  CB_28 
REMARK    7  A    between atoms: N_26  and  CA_27 
REMARK    8  A    between atoms: CA_27  and  CB_28 
REMARK    9  A    between atoms: CA_27  and  C_30 
ROOT
HETATM    1  O   UNK A   0       2.879  11.182  89.738  1.00  0.00    -0.388 OA
HETATM    2  N   UNK A   0       4.686   9.237  88.711  1.00  0.00     0.096 N 
HETATM    3  C   UNK A   0       3.812  10.017  87.824  1.00  0.00     0.299 C 
HETATM    4  C   UNK A   0       4.055   9.080  90.029  1.00  0.00     0.299 C 
HETATM    5  C   UNK A   0       3.499  11.367  88.464  1.00  0.00     0.198 C 
HETATM    6  C   UNK A   0       3.736  10.451  90.617  1.00  0.00     0.198 C 
ENDROOT
BRANCH   2   7
HETATM    7  C   UNK A   0       4.990   7.934  88.122  1.00  0.00     0.311 C 
BRANCH   7   8
HETATM    8  C   UNK A   0       6.199   7.305  88.728  1.00  0.00    -0.030 A 
HETATM    9  C   UNK A   0       6.071   6.146  89.494  1.00  0.00     0.010 A 
HETATM   10  C   UNK A   0       7.201   5.559  90.063  1.00  0.00     0.021 A 
HETATM   11  C   UNK A   0       8.458   6.129  89.863  1.00  0.00     0.018 A 
HETATM   12  C   UNK A   0       8.586   7.286  89.097  1.00  0.00     0.021 A 
HETATM   13  C   UNK A   0       7.457   7.874  88.529  1.00  0.00     0.010 A 
BRANCH  11  14
HETATM   14  C   UNK A   0       9.617   5.525  90.444  1.00  0.00    -0.061 C 
HETATM   15  C   UNK A   0      10.591   5.017  90.932  1.00  0.00    -0.061 C 
BRANCH  15  16
HETATM   16  C   UNK A   0      11.750   4.413  91.513  1.00  0.00     0.018 A 
HETATM   17  C   UNK A   0      11.708   3.944  92.826  1.00  0.00     0.022 A 
HETATM   18  C   UNK A   0      12.838   3.353  93.391  1.00  0.00     0.018 A 
HETATM   19  C   UNK A   0      13.983   3.243  92.631  1.00  0.00     0.032 A 
HETATM   20  C   UNK A   0      14.051   3.699  91.331  1.00  0.00     0.018 A 
HETATM   21  C   UNK A   0      12.922   4.291  90.765  1.00  0.00     0.022 A 
BRANCH  19  22
HETATM   22  C   UNK A   0      15.187   2.615  93.234  1.00  0.00     0.252 C 
HETATM   23  O   UNK A   0      15.994   3.320  93.835  1.00  0.00    -0.268 OA
ENDBRANCH  19  22
ENDBRANCH  15  16
ENDBRANCH  11  14
ENDBRANCH   7   8
ENDBRANCH   2   7
TORSDOF 9
ENDMDL
MODEL 5
REMARK VINA RESULT:      -6.6      3.941     10.407
REMARK  9 active torsions:
REMARK  status: ('A' for Active; 'I' for Inactive)
REMARK    1  A    between atoms: N_3  and  C_6 
REMARK    2  A    between atoms: C_6  and  C_9 
REMARK    3  A    between atoms: C_14  and  C_17 
REMARK       I    between atoms: N_26  and  C_15 
REMARK    4  A    between atoms: C_15  and  C_16 
REMARK    5  A    between atoms: C_20  and  C_23 
REMARK    6  A    between atoms: OG1_24  and  CB_28 
REMARK    7  A    between atoms: N_26  and  CA_27 
REMARK    8  A    between atoms: CA_27  and  CB_28 
REMARK    9  A    between atoms: CA_27  and  C_30 
ROOT
HETATM    1  O   UNK A   0      14.632   3.374  92.196  1.00  0.00    -0.388 OA
HETATM    2  N   UNK A   0      11.905   4.184  92.290  1.00  0.00     0.096 N 
HETATM    3  C   UNK A   0      12.495   3.349  93.346  1.00  0.00     0.299 C 
HETATM    4  C   UNK A   0      12.592   3.942  91.014  1.00  0.00     0.299 C 
HETATM    5  C   UNK A   0      13.993   3.627  93.449  1.00  0.00     0.198 C 
HETATM    6  C   UNK A   0      14.086   4.205  91.171  1.00  0.00     0.198 C 
ENDROOT
BRANCH   2   7
HETATM    7  C   UNK A   0      10.472   3.927  92.167  1.00  0.00     0.311 C 
BRANCH   7   8
HETATM    8  C   UNK A   0       9.694   5.167  91.883  1.00  0.00    -0.030 A 
HETATM    9  C   UNK A   0       9.898   6.309  92.658  1.00  0.00     0.010 A 
HETATM   10  C   UNK A   0       9.169   7.469  92.395  1.00  0.00     0.021 A 
HETATM   11  C   UNK A   0       8.240   7.487  91.355  1.00  0.00     0.018 A 
HETATM   12  C   UNK A   0       8.036   6.347  90.581  1.00  0.00     0.021 A 
HETATM   13  C   UNK A   0       8.764   5.186  90.844  1.00  0.00     0.010 A 
BRANCH  11  14
HETATM   14  C   UNK A   0       7.494   8.677  91.084  1.00  0.00    -0.061 C 
HETATM   15  C   UNK A   0       6.868   9.678  90.855  1.00  0.00    -0.061 C 
BRANCH  15  16
HETATM   16  C   UNK A   0       6.122  10.867  90.584  1.00  0.00     0.018 A 
HETATM   17  C   UNK A   0       5.300  11.414  91.569  1.00  0.00     0.022 A 
HETATM   18  C   UNK A   0       4.575  12.576  91.305  1.00  0.00     0.018 A 
HETATM   19  C   UNK A   0       4.689  13.164  90.063  1.00  0.00     0.032 A 
HETATM   20  C   UNK A   0       5.494  12.643  89.072  1.00  0.00     0.018 A 
HETATM   21  C   UNK A   0       6.220  11.482  89.335  1.00  0.00     0.022 A 
BRANCH  19  22
HETATM   22  C   UNK A   0       3.914  14.401  89.781  1.00  0.00     0.252 C 
HETATM   23  O   UNK A   0       4.499  15.481  89.753  1.00  0.00    -0.268 OA
ENDBRANCH  19  22
ENDBRANCH  15  16
ENDBRANCH  11  14
ENDBRANCH   7   8
ENDBRANCH   2   7
TORSDOF 9
ENDMDL
MODEL 6
REMARK VINA RESULT:      -6.6      3.942     10.447
REMARK  9 active torsions:
REMARK  status: ('A' for Active; 'I' for Inactive)
REMARK    1  A    between atoms: N_3  and  C_6 
REMARK    2  A    between atoms: C_6  and  C_9 
REMARK    3  A    between atoms: C_14  and  C_17 
REMARK       I    between atoms: N_26  and  C_15 
REMARK    4  A    between atoms: C_15  and  C_16 
REMARK    5  A    between atoms: C_20  and  C_23 
REMARK    6  A    between atoms: OG1_24  and  CB_28 
REMARK    7  A    between atoms: N_26  and  CA_27 
REMARK    8  A    between atoms: CA_27  and  CB_28 
REMARK    9  A    between atoms: CA_27  and  C_30 
ROOT
HETATM    1  O   UNK A   0      14.535   3.256  92.123  1.00  0.00    -0.388 OA
HETATM    2  N   UNK A   0      11.819   4.104  92.212  1.00  0.00     0.096 N 
HETATM    3  C   UNK A   0      12.400   3.276  93.278  1.00  0.00     0.299 C 
HETATM    4  C   UNK A   0      12.498   3.833  90.938  1.00  0.00     0.299 C 
HETATM    5  C   UNK A   0      13.902   3.536  93.373  1.00  0.00     0.198 C 
HETATM    6  C   UNK A   0      13.996   4.079  91.087  1.00  0.00     0.198 C 
ENDROOT
BRANCH   2   7
HETATM    7  C   UNK A   0      10.381   3.863  92.096  1.00  0.00     0.311 C 
BRANCH   7   8
HETATM    8  C   UNK A   0       9.615   5.115  91.834  1.00  0.00    -0.030 A 
HETATM    9  C   UNK A   0       8.683   5.156  90.796  1.00  0.00     0.010 A 
HETATM   10  C   UNK A   0       7.968   6.327  90.548  1.00  0.00     0.021 A 
HETATM   11  C   UNK A   0       8.183   7.455  91.340  1.00  0.00     0.018 A 
HETATM   12  C   UNK A   0       9.113   7.415  92.376  1.00  0.00     0.021 A 
HETATM   13  C   UNK A   0       9.830   6.244  92.624  1.00  0.00     0.010 A 
BRANCH  11  14
HETATM   14  C   UNK A   0       7.447   8.656  91.087  1.00  0.00    -0.061 C 
HETATM   15  C   UNK A   0       6.829   9.665  90.875  1.00  0.00    -0.061 C 
BRANCH  15  16
HETATM   16  C   UNK A   0       6.094  10.866  90.622  1.00  0.00     0.018 A 
HETATM   17  C   UNK A   0       6.223  11.516  89.394  1.00  0.00     0.022 A 
HETATM   18  C   UNK A   0       5.505  12.685  89.147  1.00  0.00     0.018 A 
HETATM   19  C   UNK A   0       4.673  13.178  90.131  1.00  0.00     0.032 A 
HETATM   20  C   UNK A   0       4.529  12.554  91.353  1.00  0.00     0.018 A 
HETATM   21  C   UNK A   0       5.247  11.384  91.601  1.00  0.00     0.022 A 
BRANCH  19  22
HETATM   22  C   UNK A   0       3.909  14.425  89.868  1.00  0.00     0.252 C 
HETATM   23  O   UNK A   0       4.514  15.490  89.772  1.00  0.00    -0.268 OA
ENDBRANCH  19  22
ENDBRANCH  15  16
ENDBRANCH  11  14
ENDBRANCH   7   8
ENDBRANCH   2   7
TORSDOF 9
ENDMDL
MODEL 7
REMARK VINA RESULT:      -6.6      3.350     10.353
REMARK  9 active torsions:
REMARK  status: ('A' for Active; 'I' for Inactive)
REMARK    1  A    between atoms: N_3  and  C_6 
REMARK    2  A    between atoms: C_6  and  C_9 
REMARK    3  A    between atoms: C_14  and  C_17 
REMARK       I    between atoms: N_26  and  C_15 
REMARK    4  A    between atoms: C_15  and  C_16 
REMARK    5  A    between atoms: C_20  and  C_23 
REMARK    6  A    between atoms: OG1_24  and  CB_28 
REMARK    7  A    between atoms: N_26  and  CA_27 
REMARK    8  A    between atoms: CA_27  and  CB_28 
REMARK    9  A    between atoms: CA_27  and  C_30 
ROOT
HETATM    1  O   UNK A   0      16.203   3.080  93.613  1.00  0.00    -0.388 OA
HETATM    2  N   UNK A   0      13.536   2.927  92.630  1.00  0.00     0.096 N 
HETATM    3  C   UNK A   0      14.267   1.726  93.058  1.00  0.00     0.299 C 
HETATM    4  C   UNK A   0      14.479   3.942  92.140  1.00  0.00     0.299 C 
HETATM    5  C   UNK A   0      15.297   2.099  94.121  1.00  0.00     0.198 C 
HETATM    6  C   UNK A   0      15.504   4.263  93.223  1.00  0.00     0.198 C 
ENDROOT
BRANCH   2   7
HETATM    7  C   UNK A   0      12.550   2.595  91.603  1.00  0.00     0.311 C 
BRANCH   7   8
HETATM    8  C   UNK A   0      11.650   3.741  91.288  1.00  0.00    -0.030 A 
HETATM    9  C   UNK A   0      11.466   4.138  89.963  1.00  0.00     0.010 A 
HETATM   10  C   UNK A   0      10.626   5.211  89.667  1.00  0.00     0.021 A 
HETATM   11  C   UNK A   0       9.969   5.885  90.695  1.00  0.00     0.018 A 
HETATM   12  C   UNK A   0      10.151   5.489  92.019  1.00  0.00     0.021 A 
HETATM   13  C   UNK A   0      10.992   4.416  92.315  1.00  0.00     0.010 A 
BRANCH  11  14
HETATM   14  C   UNK A   0       9.105   6.984  90.391  1.00  0.00    -0.061 C 
HETATM   15  C   UNK A   0       8.380   7.909  90.135  1.00  0.00    -0.061 C 
BRANCH  15  16
HETATM   16  C   UNK A   0       7.517   9.007  89.831  1.00  0.00     0.018 A 
HETATM   17  C   UNK A   0       6.150   8.791  89.655  1.00  0.00     0.022 A 
HETATM   18  C   UNK A   0       5.308   9.864  89.360  1.00  0.00     0.018 A 
HETATM   19  C   UNK A   0       5.851  11.127  89.249  1.00  0.00     0.032 A 
HETATM   20  C   UNK A   0       7.199  11.366  89.418  1.00  0.00     0.018 A 
HETATM   21  C   UNK A   0       8.042  10.294  89.712  1.00  0.00     0.022 A 
BRANCH  19  22
HETATM   22  C   UNK A   0       4.954  12.268  88.933  1.00  0.00     0.252 C 
HETATM   23  O   UNK A   0       4.805  12.607  87.762  1.00  0.00    -0.268 OA
ENDBRANCH  19  22
ENDBRANCH  15  16
ENDBRANCH  11  14
ENDBRANCH   7   8
ENDBRANCH   2   7
TORSDOF 9
ENDMDL
MODEL 8
REMARK VINA RESULT:      -6.3      3.367      4.234
REMARK  9 active torsions:
REMARK  status: ('A' for Active; 'I' for Inactive)
REMARK    1  A    between atoms: N_3  and  C_6 
REMARK    2  A    between atoms: C_6  and  C_9 
REMARK    3  A    between atoms: C_14  and  C_17 
REMARK       I    between atoms: N_26  and  C_15 
REMARK    4  A    between atoms: C_15  and  C_16 
REMARK    5  A    between atoms: C_20  and  C_23 
REMARK    6  A    between atoms: OG1_24  and  CB_28 
REMARK    7  A    between atoms: N_26  and  CA_27 
REMARK    8  A    between atoms: CA_27  and  CB_28 
REMARK    9  A    between atoms: CA_27  and  C_30 
ROOT
HETATM    1  O   UNK A   0       4.192  15.041  90.020  1.00  0.00    -0.388 OA
HETATM    2  N   UNK A   0       4.882  12.327  89.509  1.00  0.00     0.096 N 
HETATM    3  C   UNK A   0       4.830  13.323  88.429  1.00  0.00     0.299 C 
HETATM    4  C   UNK A   0       3.942  12.693  90.577  1.00  0.00     0.299 C 
HETATM    5  C   UNK A   0       5.127  14.710  88.991  1.00  0.00     0.198 C 
HETATM    6  C   UNK A   0       4.259  14.095  91.088  1.00  0.00     0.198 C 
ENDROOT
BRANCH   2   7
HETATM    7  C   UNK A   0       4.590  10.990  88.994  1.00  0.00     0.311 C 
BRANCH   7   8
HETATM    8  C   UNK A   0       5.625   9.992  89.387  1.00  0.00    -0.030 A 
HETATM    9  C   UNK A   0       5.296   8.637  89.454  1.00  0.00     0.010 A 
HETATM   10  C   UNK A   0       6.263   7.702  89.823  1.00  0.00     0.021 A 
HETATM   11  C   UNK A   0       7.558   8.122  90.124  1.00  0.00     0.018 A 
HETATM   12  C   UNK A   0       7.888   9.474  90.057  1.00  0.00     0.021 A 
HETATM   13  C   UNK A   0       6.921  10.410  89.689  1.00  0.00     0.010 A 
BRANCH  11  14
HETATM   14  C   UNK A   0       8.551   7.163  90.501  1.00  0.00    -0.061 C 
HETATM   15  C   UNK A   0       9.385   6.357  90.818  1.00  0.00    -0.061 C 
BRANCH  15  16
HETATM   16  C   UNK A   0      10.376   5.398  91.196  1.00  0.00     0.018 A 
HETATM   17  C   UNK A   0      10.595   5.117  92.544  1.00  0.00     0.022 A 
HETATM   18  C   UNK A   0      11.560   4.179  92.912  1.00  0.00     0.018 A 
HETATM   19  C   UNK A   0      12.282   3.544  91.924  1.00  0.00     0.032 A 
HETATM   20  C   UNK A   0      12.085   3.804  90.584  1.00  0.00     0.018 A 
HETATM   21  C   UNK A   0      11.120   4.742  90.215  1.00  0.00     0.022 A 
BRANCH  19  22
HETATM   22  C   UNK A   0      13.312   2.546  92.316  1.00  0.00     0.252 C 
HETATM   23  O   UNK A   0      14.411   2.938  92.701  1.00  0.00    -0.268 OA
ENDBRANCH  19  22
ENDBRANCH  15  16
ENDBRANCH  11  14
ENDBRANCH   7   8
ENDBRANCH   2   7
TORSDOF 9
ENDMDL
MODEL 9
REMARK VINA RESULT:      -6.3      2.046      2.885
REMARK  9 active torsions:
REMARK  status: ('A' for Active; 'I' for Inactive)
REMARK    1  A    between atoms: N_3  and  C_6 
REMARK    2  A    between atoms: C_6  and  C_9 
REMARK    3  A    between atoms: C_14  and  C_17 
REMARK       I    between atoms: N_26  and  C_15 
REMARK    4  A    between atoms: C_15  and  C_16 
REMARK    5  A    between atoms: C_20  and  C_23 
REMARK    6  A    between atoms: OG1_24  and  CB_28 
REMARK    7  A    between atoms: N_26  and  CA_27 
REMARK    8  A    between atoms: CA_27  and  CB_28 
REMARK    9  A    between atoms: CA_27  and  C_30 
ROOT
HETATM    1  O   UNK A   0       2.279  10.119  87.880  1.00  0.00    -0.388 OA
HETATM    2  N   UNK A   0       3.883   8.962  89.927  1.00  0.00     0.096 N 
HETATM    3  C   UNK A   0       2.554   8.427  89.599  1.00  0.00     0.299 C 
HETATM    4  C   UNK A   0       3.934  10.400  89.631  1.00  0.00     0.299 C 
HETATM    5  C   UNK A   0       2.230   8.714  88.135  1.00  0.00     0.198 C 
HETATM    6  C   UNK A   0       3.577  10.640  88.168  1.00  0.00     0.198 C 
ENDROOT
BRANCH   2   7
HETATM    7  C   UNK A   0       4.211   8.708  91.329  1.00  0.00     0.311 C 
BRANCH   7   8
HETATM    8  C   UNK A   0       5.501   7.979  91.488  1.00  0.00    -0.030 A 
HETATM    9  C   UNK A   0       5.912   7.070  90.512  1.00  0.00     0.010 A 
HETATM   10  C   UNK A   0       7.119   6.386  90.660  1.00  0.00     0.021 A 
HETATM   11  C   UNK A   0       7.914   6.612  91.783  1.00  0.00     0.018 A 
HETATM   12  C   UNK A   0       7.505   7.520  92.758  1.00  0.00     0.021 A 
HETATM   13  C   UNK A   0       6.298   8.204  92.610  1.00  0.00     0.010 A 
BRANCH  11  14
HETATM   14  C   UNK A   0       9.153   5.912  91.934  1.00  0.00    -0.061 C 
HETATM   15  C   UNK A   0      10.194   5.324  92.060  1.00  0.00    -0.061 C 
BRANCH  15  16
HETATM   16  C   UNK A   0      11.432   4.625  92.211  1.00  0.00     0.018 A 
HETATM   17  C   UNK A   0      11.805   4.131  93.462  1.00  0.00     0.022 A 
HETATM   18  C   UNK A   0      13.011   3.447  93.608  1.00  0.00     0.018 A 
HETATM   19  C   UNK A   0      13.816   3.271  92.503  1.00  0.00     0.032 A 
HETATM   20  C   UNK A   0      13.470   3.749  91.256  1.00  0.00     0.018 A 
HETATM   21  C   UNK A   0      12.264   4.434  91.108  1.00  0.00     0.022 A 
BRANCH  19  22
HETATM   22  C   UNK A   0      15.102   2.543  92.660  1.00  0.00     0.252 C 
HETATM   23  O   UNK A   0      15.583   2.411  93.783  1.00  0.00    -0.268 OA
ENDBRANCH  19  22
ENDBRANCH  15  16
ENDBRANCH  11  14
ENDBRANCH   7   8
ENDBRANCH   2   7
TORSDOF 9
ENDMDL
