MODEL 1
REMARK VINA RESULT:      -6.8      0.000      0.000
REMARK  14 active torsions:
REMARK  status: ('A' for Active; 'I' for Inactive)
REMARK    1  A    between atoms: O_2  and  C_18 
REMARK    2  A    between atoms: C_5  and  C_8 
REMARK    3  A    between atoms: C_5  and  O_35 
REMARK    4  A    between atoms: C_5  and  C_36 
REMARK    5  A    between atoms: N_6  and  C_11 
REMARK    6  A    between atoms: N_7  and  C_15 
REMARK       I    between atoms: N_7  and  C_24 
REMARK    7  A    between atoms: C_8  and  C_23 
REMARK    8  A    between atoms: C_11  and  C_14 
REMARK    9  A    between atoms: C_15  and  C_18 
REMARK   10  A    between atoms: C_15  and  C_23 
REMARK   11  A    between atoms: C_21  and  C_26 
REMARK   12  A    between atoms: C_24  and  C_25 
REMARK   13  A    between atoms: C_29  and  C_32 
REMARK   14  A    between atoms: C_36  and  O_39 
ROOT
HETATM    1  O   UNL     1      16.455   3.245  93.730  1.00  0.00    -0.350 OA
HETATM    2  N   UNL     1      13.793   2.794  92.829  1.00  0.00     0.147 N 
HETATM    3  C   UNL     1      14.727   1.681  93.055  1.00  0.00     0.283 C 
HETATM    4  C   UNL     1      14.536   4.006  92.457  1.00  0.00     0.283 C 
HETATM    5  C   UNL     1      15.745   2.070  94.124  1.00  0.00     0.178 C 
HETATM    6  C   UNL     1      15.558   4.340  93.539  1.00  0.00     0.178 C 
ENDROOT
BRANCH   2   7
HETATM    7  C   UNL     1      12.815   2.447  91.800  1.00  0.00     0.277 C 
BRANCH   7   8
HETATM    8  C   UNL     1      11.675   3.407  91.754  1.00  0.00     0.011 A 
HETATM    9  C   UNL     1      10.900   3.513  90.599  1.00  0.00    -0.002 A 
HETATM   10  C   UNL     1       9.834   4.413  90.554  1.00  0.00     0.008 A 
HETATM   11  C   UNL     1       9.544   5.203  91.665  1.00  0.00     0.042 A 
HETATM   12  C   UNL     1      10.317   5.098  92.819  1.00  0.00     0.008 A 
HETATM   13  C   UNL     1      11.383   4.200  92.864  1.00  0.00    -0.002 A 
BRANCH  11  14
HETATM   14  C   UNL     1       8.450   6.124  91.619  1.00  0.00    -0.059 C 
HETATM   15  C   UNL     1       7.531   6.899  91.582  1.00  0.00    -0.059 C 
BRANCH  15  16
HETATM   16  C   UNL     1       6.438   7.819  91.536  1.00  0.00     0.042 A 
HETATM   17  C   UNL     1       5.560   7.912  92.616  1.00  0.00     0.008 A 
HETATM   18  C   UNL     1       4.495   8.813  92.572  1.00  0.00     0.005 A 
HETATM   19  C   UNL     1       4.333   9.600  91.451  1.00  0.00     0.056 A 
HETATM   20  C   UNL     1       5.187   9.526  90.371  1.00  0.00     0.005 A 
HETATM   21  C   UNL     1       6.252   8.626  90.413  1.00  0.00     0.008 A 
BRANCH  19  22
HETATM   22  C   UNL     1       3.198  10.557  91.404  1.00  0.00     0.254 C 
HETATM   23  O   UNL     1       2.070  10.139  91.153  1.00  0.00    -0.268 OA
HETATM   24  N   UNL     1       3.508  11.882  91.680  1.00  0.00    -0.335 N 
HETATM   25  HN  UNL     1       4.459  12.150  91.904  1.00  0.00     0.164 HD
BRANCH  24  26
HETATM   26  C   UNL     1       2.513  12.924  91.697  1.00  0.00     0.169 C 
BRANCH  26  27
HETATM   27  C   UNL     1       2.460  13.672  93.035  1.00  0.00     0.138 C 
HETATM   28  C   UNL     1       3.829  14.175  93.477  1.00  0.00     0.034 C 
BRANCH  27  29
HETATM   29  O   UNL     1       1.571  14.783  92.926  1.00  0.00    -0.383 OA
HETATM   30  H   UNL     1       2.090  15.565  92.676  1.00  0.00     0.210 HD
ENDBRANCH  27  29
ENDBRANCH  26  27
BRANCH  26  31
HETATM   31  C   UNL     1       2.813  13.874  90.542  1.00  0.00     0.194 C 
HETATM   32  O   UNL     1       1.942  14.519  89.962  1.00  0.00    -0.289 OA
BRANCH  31  33
HETATM   33  C   UNL     1       4.148  13.887  90.215  1.00  0.00     0.053 C 
BRANCH  33  34
HETATM   34  C   UNL     1       4.441  14.106  88.861  1.00  0.00     0.220 C 
BRANCH  34  35
HETATM   35  O   UNL     1       5.346  14.960  88.802  1.00  0.00    -0.371 OA
HETATM   36  H   UNL     1       5.259  15.307  89.677  1.00  0.00     0.211 HD
ENDBRANCH  34  35
BRANCH  34  37
HETATM   37  C   UNL     1       4.769  12.931  88.163  1.00  0.00     0.185 C 
HETATM   38  O   UNL     1       6.004  13.261  88.509  1.00  0.00    -0.647 OA
BRANCH  37  39
HETATM   39  O   UNL     1       4.190  12.098  87.534  1.00  0.00    -0.774 OA
HETATM   40  H   UNL     1       3.219  11.794  88.037  1.00  0.00     0.167 HD
ENDBRANCH  37  39
ENDBRANCH  34  37
ENDBRANCH  33  34
ENDBRANCH  31  33
ENDBRANCH  26  31
ENDBRANCH  24  26
ENDBRANCH  19  22
ENDBRANCH  15  16
ENDBRANCH  11  14
ENDBRANCH   7   8
ENDBRANCH   2   7
TORSDOF 14
ENDMDL
