MODEL 1
REMARK VINA RESULT:      -7.1      0.000      0.000
REMARK  10 active torsions:
REMARK  status: ('A' for Active; 'I' for Inactive)
REMARK    1  A    between atoms: O_2  and  C_18 
REMARK    2  A    between atoms: O_5  and  N_8 
REMARK    3  A    between atoms: N_6  and  C_11 
REMARK    4  A    between atoms: N_7  and  C_15 
REMARK       I    between atoms: N_7  and  C_24 
REMARK       I    between atoms: N_8  and  C_23 
REMARK    5  A    between atoms: C_11  and  C_14 
REMARK    6  A    between atoms: C_15  and  C_18 
REMARK    7  A    between atoms: C_15  and  C_23 
REMARK    8  A    between atoms: C_21  and  C_26 
REMARK    9  A    between atoms: C_24  and  C_25 
REMARK   10  A    between atoms: C_29  and  C_32 
ROOT
HETATM    1  O   UNK     0      17.352   4.646  93.767  0.00  0.00    -0.388 OA
HETATM    2  N   UNK     0      15.307   2.668  93.717  0.00  0.00     0.096 N 
HETATM    3  C   UNK     0      16.700   2.341  93.382  0.00  0.00     0.299 C 
HETATM    4  C   UNK     0      15.026   4.071  93.387  0.00  0.00     0.299 C 
HETATM    5  C   UNK     0      17.644   3.291  94.114  0.00  0.00     0.198 C 
HETATM    6  C   UNK     0      16.009   4.982  94.118  0.00  0.00     0.198 C 
ENDROOT
BRANCH   2   7
HETATM    7  C   UNK     0      14.383   1.776  93.019  0.00  0.00     0.311 C 
BRANCH   7   8
HETATM    8  C   UNK     0      13.270   2.515  92.358  0.00  0.00    -0.030 A 
HETATM    9  C   UNK     0      13.517   3.263  91.206  0.00  0.00     0.010 A 
HETATM   10  C   UNK     0      12.477   3.957  90.589  0.00  0.00     0.021 A 
HETATM   11  C   UNK     0      11.189   3.900  91.122  0.00  0.00     0.018 A 
HETATM   12  C   UNK     0      10.941   3.153  92.271  0.00  0.00     0.021 A 
HETATM   13  C   UNK     0      11.981   2.460  92.890  0.00  0.00     0.010 A 
BRANCH  11  14
HETATM   14  C   UNK     0      10.121   4.610  90.487  0.00  0.00    -0.061 C 
HETATM   15  C   UNK     0       9.225   5.206  89.953  0.00  0.00    -0.061 C 
BRANCH  15  16
HETATM   16  C   UNK     0       8.159   5.916  89.319  0.00  0.00     0.018 A 
HETATM   17  C   UNK     0       6.871   5.863  89.854  0.00  0.00     0.022 A 
HETATM   18  C   UNK     0       5.831   6.558  89.236  0.00  0.00     0.018 A 
HETATM   19  C   UNK     0       6.101   7.290  88.099  0.00  0.00     0.032 A 
HETATM   20  C   UNK     0       7.364   7.358  87.550  0.00  0.00     0.018 A 
HETATM   21  C   UNK     0       8.405   6.663  88.167  0.00  0.00     0.022 A 
BRANCH  19  22
HETATM   22  C   UNK     0       4.992   8.029  87.441  0.00  0.00     0.252 C 
HETATM   23  O   UNK     0       4.820   7.898  86.231  0.00  0.00    -0.268 OA
HETATM   24  N   UNK     0       4.203   8.809  88.274  0.00  0.00    -0.341 N 
HETATM   25  H   UNK     0       4.390   8.849  89.269  0.00  0.00     0.163 HD
BRANCH  24  26
HETATM   26  C   UNK     0       3.076   9.565  87.789  0.00  0.00     0.207 C 
BRANCH  26  27
HETATM   27  C   UNK     0       1.731   8.913  88.135  0.00  0.00     0.146 C 
HETATM   28  C   UNK     0       1.523   7.585  87.415  0.00  0.00     0.042 C 
BRANCH  27  29
HETATM   29  O   UNK     0       1.655   8.693  89.544  0.00  0.00    -0.393 OA
HETATM   30  H   UNK     0       0.962   8.033  89.712  0.00  0.00     0.210 HD
ENDBRANCH  27  29
ENDBRANCH  26  27
BRANCH  26  31
HETATM   31  C   UNK     0       3.175  10.972  88.369  0.00  0.00     0.266 C 
HETATM   32  O   UNK     0       2.582  11.320  89.388  0.00  0.00    -0.269 OA
HETATM   33  N   UNK     0       3.963  11.795  87.601  0.00  0.00    -0.236 N 
HETATM   34  H   UNK     0       4.392  11.568  86.712  0.00  0.00     0.197 HD
BRANCH  33  35
HETATM   35  O   UNK     0       4.076  13.120  88.045  0.00  0.00    -0.287 OA
HETATM   36  H   UNK     0       5.043  13.203  88.105  0.00  0.00     0.244 HD
ENDBRANCH  33  35
ENDBRANCH  26  31
ENDBRANCH  24  26
ENDBRANCH  19  22
ENDBRANCH  15  16
ENDBRANCH  11  14
ENDBRANCH   7   8
ENDBRANCH   2   7
TORSDOF 10
ENDMDL
MODEL 2
REMARK VINA RESULT:      -7.0      2.225      3.101
REMARK  10 active torsions:
REMARK  status: ('A' for Active; 'I' for Inactive)
REMARK    1  A    between atoms: O_2  and  C_18 
REMARK    2  A    between atoms: O_5  and  N_8 
REMARK    3  A    between atoms: N_6  and  C_11 
REMARK    4  A    between atoms: N_7  and  C_15 
REMARK       I    between atoms: N_7  and  C_24 
REMARK       I    between atoms: N_8  and  C_23 
REMARK    5  A    between atoms: C_11  and  C_14 
REMARK    6  A    between atoms: C_15  and  C_18 
REMARK    7  A    between atoms: C_15  and  C_23 
REMARK    8  A    between atoms: C_21  and  C_26 
REMARK    9  A    between atoms: C_24  and  C_25 
REMARK   10  A    between atoms: C_29  and  C_32 
ROOT
HETATM    1  O   UNK     0      16.773   4.263  94.039  0.00  0.00    -0.388 OA
HETATM    2  N   UNK     0      14.762   2.632  92.857  0.00  0.00     0.096 N 
HETATM    3  C   UNK     0      14.712   4.098  92.768  0.00  0.00     0.299 C 
HETATM    4  C   UNK     0      15.457   2.225  94.085  0.00  0.00     0.299 C 
HETATM    5  C   UNK     0      16.127   4.668  92.831  0.00  0.00     0.198 C 
HETATM    6  C   UNK     0      16.853   2.839  94.119  0.00  0.00     0.198 C 
ENDROOT
BRANCH   2   7
HETATM    7  C   UNK     0      13.416   2.064  92.809  0.00  0.00     0.311 C 
BRANCH   7   8
HETATM    8  C   UNK     0      12.386   3.074  92.433  0.00  0.00    -0.030 A 
HETATM    9  C   UNK     0      12.016   3.228  91.097  0.00  0.00     0.010 A 
HETATM   10  C   UNK     0      11.054   4.174  90.744  0.00  0.00     0.021 A 
HETATM   11  C   UNK     0      10.462   4.965  91.729  0.00  0.00     0.018 A 
HETATM   12  C   UNK     0      10.831   4.813  93.063  0.00  0.00     0.021 A 
HETATM   13  C   UNK     0      11.793   3.867  93.416  0.00  0.00     0.010 A 
BRANCH  11  14
HETATM   14  C   UNK     0       9.474   5.935  91.367  0.00  0.00    -0.061 C 
HETATM   15  C   UNK     0       8.643   6.749  91.063  0.00  0.00    -0.061 C 
BRANCH  15  16
HETATM   16  C   UNK     0       7.657   7.717  90.700  0.00  0.00     0.018 A 
HETATM   17  C   UNK     0       6.301   7.423  90.858  0.00  0.00     0.022 A 
HETATM   18  C   UNK     0       5.338   8.368  90.506  0.00  0.00     0.018 A 
HETATM   19  C   UNK     0       5.750   9.586  90.006  0.00  0.00     0.032 A 
HETATM   20  C   UNK     0       7.082   9.901  89.840  0.00  0.00     0.018 A 
HETATM   21  C   UNK     0       8.046   8.955  90.191  0.00  0.00     0.022 A 
BRANCH  19  22
HETATM   22  C   UNK     0       4.723  10.592  89.629  0.00  0.00     0.252 C 
HETATM   23  O   UNK     0       3.837  10.277  88.838  0.00  0.00    -0.268 OA
HETATM   24  N   UNK     0       4.837  11.834  90.238  0.00  0.00    -0.341 N 
HETATM   25  H   UNK     0       5.582  12.014  90.901  0.00  0.00     0.163 HD
BRANCH  24  26
HETATM   26  C   UNK     0       3.905  12.905  89.994  0.00  0.00     0.207 C 
BRANCH  26  27
HETATM   27  C   UNK     0       3.667  13.778  91.233  0.00  0.00     0.146 C 
HETATM   28  C   UNK     0       2.186  13.935  91.561  0.00  0.00     0.042 C 
BRANCH  27  29
HETATM   29  O   UNK     0       4.332  13.203  92.357  0.00  0.00    -0.393 OA
HETATM   30  H   UNK     0       4.517  13.911  92.997  0.00  0.00     0.210 HD
ENDBRANCH  27  29
ENDBRANCH  26  27
BRANCH  26  31
HETATM   31  C   UNK     0       4.439  13.731  88.828  0.00  0.00     0.266 C 
HETATM   32  O   UNK     0       4.779  14.907  88.941  0.00  0.00    -0.269 OA
HETATM   33  N   UNK     0       4.453  13.021  87.653  0.00  0.00    -0.236 N 
HETATM   34  H   UNK     0       4.098  12.083  87.506  0.00  0.00     0.197 HD
BRANCH  33  35
HETATM   35  O   UNK     0       4.896  13.721  86.522  0.00  0.00    -0.287 OA
HETATM   36  H   UNK     0       5.754  13.290  86.374  0.00  0.00     0.244 HD
ENDBRANCH  33  35
ENDBRANCH  26  31
ENDBRANCH  24  26
ENDBRANCH  19  22
ENDBRANCH  15  16
ENDBRANCH  11  14
ENDBRANCH   7   8
ENDBRANCH   2   7
TORSDOF 10
ENDMDL
MODEL 3
REMARK VINA RESULT:      -6.6      3.018      3.947
REMARK  10 active torsions:
REMARK  status: ('A' for Active; 'I' for Inactive)
REMARK    1  A    between atoms: O_2  and  C_18 
REMARK    2  A    between atoms: O_5  and  N_8 
REMARK    3  A    between atoms: N_6  and  C_11 
REMARK    4  A    between atoms: N_7  and  C_15 
REMARK       I    between atoms: N_7  and  C_24 
REMARK       I    between atoms: N_8  and  C_23 
REMARK    5  A    between atoms: C_11  and  C_14 
REMARK    6  A    between atoms: C_15  and  C_18 
REMARK    7  A    between atoms: C_15  and  C_23 
REMARK    8  A    between atoms: C_21  and  C_26 
REMARK    9  A    between atoms: C_24  and  C_25 
REMARK   10  A    between atoms: C_29  and  C_32 
ROOT
HETATM    1  O   UNK     0      16.088   4.203  94.040  0.00  0.00    -0.388 OA
HETATM    2  N   UNK     0      14.406   2.659  92.341  0.00  0.00     0.096 N 
HETATM    3  C   UNK     0      14.441   4.126  92.259  0.00  0.00     0.299 C 
HETATM    4  C   UNK     0      14.727   2.223  93.706  0.00  0.00     0.299 C 
HETATM    5  C   UNK     0      15.809   4.636  92.707  0.00  0.00     0.198 C 
HETATM    6  C   UNK     0      16.087   2.777  94.121  0.00  0.00     0.198 C 
ENDROOT
BRANCH   2   7
HETATM    7  C   UNK     0      13.100   2.149  91.926  0.00  0.00     0.311 C 
BRANCH   7   8
HETATM    8  C   UNK     0      12.085   3.232  91.787  0.00  0.00    -0.030 A 
HETATM    9  C   UNK     0      11.692   3.659  90.518  0.00  0.00     0.010 A 
HETATM   10  C   UNK     0      10.744   4.674  90.387  0.00  0.00     0.021 A 
HETATM   11  C   UNK     0      10.189   5.259  91.524  0.00  0.00     0.018 A 
HETATM   12  C   UNK     0      10.580   4.833  92.792  0.00  0.00     0.021 A 
HETATM   13  C   UNK     0      11.528   3.818  92.924  0.00  0.00     0.010 A 
BRANCH  11  14
HETATM   14  C   UNK     0       9.215   6.298  91.389  0.00  0.00    -0.061 C 
HETATM   15  C   UNK     0       8.397   7.172  91.276  0.00  0.00    -0.061 C 
BRANCH  15  16
HETATM   16  C   UNK     0       7.424   8.210  91.142  0.00  0.00     0.018 A 
HETATM   17  C   UNK     0       7.827   9.503  90.807  0.00  0.00     0.022 A 
HETATM   18  C   UNK     0       6.877  10.517  90.674  0.00  0.00     0.018 A 
HETATM   19  C   UNK     0       5.547  10.215  90.880  0.00  0.00     0.032 A 
HETATM   20  C   UNK     0       5.123   8.945  91.213  0.00  0.00     0.018 A 
HETATM   21  C   UNK     0       6.072   7.932  91.346  0.00  0.00     0.022 A 
BRANCH  19  22
HETATM   22  C   UNK     0       4.536  11.295  90.741  0.00  0.00     0.252 C 
HETATM   23  O   UNK     0       3.717  11.236  89.827  0.00  0.00    -0.268 OA
HETATM   24  N   UNK     0       4.585  12.301  91.696  0.00  0.00    -0.341 N 
HETATM   25  H   UNK     0       5.275  12.270  92.438  0.00  0.00     0.163 HD
BRANCH  24  26
HETATM   26  C   UNK     0       3.658  13.403  91.710  0.00  0.00     0.207 C 
BRANCH  26  27
HETATM   27  C   UNK     0       3.230  13.801  93.128  0.00  0.00     0.146 C 
HETATM   28  C   UNK     0       2.142  12.890  93.687  0.00  0.00     0.042 C 
BRANCH  27  29
HETATM   29  O   UNK     0       4.361  13.759  93.998  0.00  0.00    -0.393 OA
HETATM   30  H   UNK     0       4.144  13.188  94.754  0.00  0.00     0.210 HD
ENDBRANCH  27  29
ENDBRANCH  26  27
BRANCH  26  31
HETATM   31  C   UNK     0       4.312  14.571  90.980  0.00  0.00     0.266 C 
HETATM   32  O   UNK     0       4.694  15.590  91.553  0.00  0.00    -0.269 OA
HETATM   33  N   UNK     0       4.384  14.362  89.624  0.00  0.00    -0.236 N 
HETATM   34  H   UNK     0       4.001  13.577  89.111  0.00  0.00     0.197 HD
BRANCH  33  35
HETATM   35  O   UNK     0       4.939  15.408  88.874  0.00  0.00    -0.287 OA
HETATM   36  H   UNK     0       5.445  15.869  89.565  0.00  0.00     0.244 HD
ENDBRANCH  33  35
ENDBRANCH  26  31
ENDBRANCH  24  26
ENDBRANCH  19  22
ENDBRANCH  15  16
ENDBRANCH  11  14
ENDBRANCH   7   8
ENDBRANCH   2   7
TORSDOF 10
ENDMDL
MODEL 4
REMARK VINA RESULT:      -6.4      3.142      4.235
REMARK  10 active torsions:
REMARK  status: ('A' for Active; 'I' for Inactive)
REMARK    1  A    between atoms: O_2  and  C_18 
REMARK    2  A    between atoms: O_5  and  N_8 
REMARK    3  A    between atoms: N_6  and  C_11 
REMARK    4  A    between atoms: N_7  and  C_15 
REMARK       I    between atoms: N_7  and  C_24 
REMARK       I    between atoms: N_8  and  C_23 
REMARK    5  A    between atoms: C_11  and  C_14 
REMARK    6  A    between atoms: C_15  and  C_18 
REMARK    7  A    between atoms: C_15  and  C_23 
REMARK    8  A    between atoms: C_21  and  C_26 
REMARK    9  A    between atoms: C_24  and  C_25 
REMARK   10  A    between atoms: C_29  and  C_32 
ROOT
HETATM    1  O   UNK     0      16.627   4.262  94.124  0.00  0.00    -0.388 OA
HETATM    2  N   UNK     0      14.766   2.772  92.569  0.00  0.00     0.096 N 
HETATM    3  C   UNK     0      14.766   4.242  92.566  0.00  0.00     0.299 C 
HETATM    4  C   UNK     0      15.267   2.271  93.855  0.00  0.00     0.299 C 
HETATM    5  C   UNK     0      16.171   4.759  92.864  0.00  0.00     0.198 C 
HETATM    6  C   UNK     0      16.660   2.835  94.124  0.00  0.00     0.198 C 
ENDROOT
BRANCH   2   7
HETATM    7  C   UNK     0      13.427   2.254  92.296  0.00  0.00     0.311 C 
BRANCH   7   8
HETATM    8  C   UNK     0      12.391   3.326  92.301  0.00  0.00    -0.030 A 
HETATM    9  C   UNK     0      12.038   3.947  93.500  0.00  0.00     0.010 A 
HETATM   10  C   UNK     0      11.067   4.948  93.507  0.00  0.00     0.021 A 
HETATM   11  C   UNK     0      10.452   5.330  92.315  0.00  0.00     0.018 A 
HETATM   12  C   UNK     0      10.804   4.710  91.118  0.00  0.00     0.021 A 
HETATM   13  C   UNK     0      11.774   3.708  91.110  0.00  0.00     0.010 A 
BRANCH  11  14
HETATM   14  C   UNK     0       9.458   6.359  92.322  0.00  0.00    -0.061 C 
HETATM   15  C   UNK     0       8.623   7.223  92.328  0.00  0.00    -0.061 C 
BRANCH  15  16
HETATM   16  C   UNK     0       7.631   8.252  92.335  0.00  0.00     0.018 A 
HETATM   17  C   UNK     0       7.359   8.949  93.513  0.00  0.00     0.022 A 
HETATM   18  C   UNK     0       6.392   9.954  93.520  0.00  0.00     0.018 A 
HETATM   19  C   UNK     0       5.720  10.241  92.350  0.00  0.00     0.032 A 
HETATM   20  C   UNK     0       5.970   9.567  91.173  0.00  0.00     0.018 A 
HETATM   21  C   UNK     0       6.936   8.561  91.166  0.00  0.00     0.022 A 
BRANCH  19  22
HETATM   22  C   UNK     0       4.689  11.311  92.359  0.00  0.00     0.252 C 
HETATM   23  O   UNK     0       3.795  11.276  93.201  0.00  0.00    -0.268 OA
HETATM   24  N   UNK     0       4.836  12.306  91.402  0.00  0.00    -0.341 N 
HETATM   25  H   UNK     0       5.615  12.282  90.754  0.00  0.00     0.163 HD
BRANCH  24  26
HETATM   26  C   UNK     0       3.932  13.423  91.299  0.00  0.00     0.207 C 
BRANCH  26  27
HETATM   27  C   UNK     0       4.555  14.738  91.784  0.00  0.00     0.146 C 
HETATM   28  C   UNK     0       5.057  15.605  90.635  0.00  0.00     0.042 C 
BRANCH  27  29
HETATM   29  O   UNK     0       3.590  15.475  92.534  0.00  0.00    -0.393 OA
HETATM   30  H   UNK     0       3.867  15.479  93.466  0.00  0.00     0.210 HD
ENDBRANCH  27  29
ENDBRANCH  26  27
BRANCH  26  31
HETATM   31  C   UNK     0       3.483  13.525  89.845  0.00  0.00     0.266 C 
HETATM   32  O   UNK     0       2.367  13.923  89.515  0.00  0.00    -0.269 OA
HETATM   33  N   UNK     0       4.449  13.089  88.971  0.00  0.00    -0.236 N 
HETATM   34  H   UNK     0       5.342  12.673  89.211  0.00  0.00     0.197 HD
BRANCH  33  35
HETATM   35  O   UNK     0       4.101  13.115  87.613  0.00  0.00    -0.287 OA
HETATM   36  H   UNK     0       4.984  13.122  87.207  0.00  0.00     0.244 HD
ENDBRANCH  33  35
ENDBRANCH  26  31
ENDBRANCH  24  26
ENDBRANCH  19  22
ENDBRANCH  15  16
ENDBRANCH  11  14
ENDBRANCH   7   8
ENDBRANCH   2   7
TORSDOF 10
ENDMDL
MODEL 5
REMARK VINA RESULT:      -6.1      3.392      4.461
REMARK  10 active torsions:
REMARK  status: ('A' for Active; 'I' for Inactive)
REMARK    1  A    between atoms: O_2  and  C_18 
REMARK    2  A    between atoms: O_5  and  N_8 
REMARK    3  A    between atoms: N_6  and  C_11 
REMARK    4  A    between atoms: N_7  and  C_15 
REMARK       I    between atoms: N_7  and  C_24 
REMARK       I    between atoms: N_8  and  C_23 
REMARK    5  A    between atoms: C_11  and  C_14 
REMARK    6  A    between atoms: C_15  and  C_18 
REMARK    7  A    between atoms: C_15  and  C_23 
REMARK    8  A    between atoms: C_21  and  C_26 
REMARK    9  A    between atoms: C_24  and  C_25 
REMARK   10  A    between atoms: C_29  and  C_32 
ROOT
HETATM    1  O   UNK     0      16.172   4.180  94.105  0.00  0.00    -0.388 OA
HETATM    2  N   UNK     0      14.320   2.702  92.527  0.00  0.00     0.096 N 
HETATM    3  C   UNK     0      14.346   4.171  92.506  0.00  0.00     0.299 C 
HETATM    4  C   UNK     0      14.783   2.210  93.831  0.00  0.00     0.299 C 
HETATM    5  C   UNK     0      15.753   4.668  92.829  0.00  0.00     0.198 C 
HETATM    6  C   UNK     0      16.179   2.752  94.124  0.00  0.00     0.198 C 
ENDROOT
BRANCH   2   7
HETATM    7  C   UNK     0      12.978   2.204  92.231  0.00  0.00     0.311 C 
BRANCH   7   8
HETATM    8  C   UNK     0      11.943   3.274  92.316  0.00  0.00    -0.030 A 
HETATM    9  C   UNK     0      11.193   3.609  91.187  0.00  0.00     0.010 A 
HETATM   10  C   UNK     0      10.227   4.612  91.265  0.00  0.00     0.021 A 
HETATM   11  C   UNK     0      10.009   5.277  92.471  0.00  0.00     0.018 A 
HETATM   12  C   UNK     0      10.756   4.943  93.598  0.00  0.00     0.021 A 
HETATM   13  C   UNK     0      11.724   3.941  93.521  0.00  0.00     0.010 A 
BRANCH  11  14
HETATM   14  C   UNK     0       9.015   6.303  92.551  0.00  0.00    -0.061 C 
HETATM   15  C   UNK     0       8.181   7.166  92.618  0.00  0.00    -0.061 C 
BRANCH  15  16
HETATM   16  C   UNK     0       7.189   8.192  92.696  0.00  0.00     0.018 A 
HETATM   17  C   UNK     0       5.846   7.880  92.483  0.00  0.00     0.022 A 
HETATM   18  C   UNK     0       4.877   8.881  92.561  0.00  0.00     0.018 A 
HETATM   19  C   UNK     0       5.272  10.170  92.852  0.00  0.00     0.032 A 
HETATM   20  C   UNK     0       6.593  10.504  93.067  0.00  0.00     0.018 A 
HETATM   21  C   UNK     0       7.562   9.504  92.988  0.00  0.00     0.022 A 
BRANCH  19  22
HETATM   22  C   UNK     0       4.241  11.236  92.934  0.00  0.00     0.252 C 
HETATM   23  O   UNK     0       3.348  11.143  93.773  0.00  0.00    -0.268 OA
HETATM   24  N   UNK     0       4.387  12.293  92.046  0.00  0.00    -0.341 N 
HETATM   25  H   UNK     0       5.165  12.314  91.397  0.00  0.00     0.163 HD
BRANCH  24  26
HETATM   26  C   UNK     0       3.482  13.414  92.019  0.00  0.00     0.207 C 
BRANCH  26  27
HETATM   27  C   UNK     0       4.155  14.730  92.427  0.00  0.00     0.146 C 
HETATM   28  C   UNK     0       4.869  15.406  91.263  0.00  0.00     0.042 C 
BRANCH  27  29
HETATM   29  O   UNK     0       3.174  15.625  92.952  0.00  0.00    -0.393 OA
HETATM   30  H   UNK     0       2.655  15.977  92.209  0.00  0.00     0.210 HD
ENDBRANCH  27  29
ENDBRANCH  26  27
BRANCH  26  31
HETATM   31  C   UNK     0       2.894  13.504  90.615  0.00  0.00     0.266 C 
HETATM   32  O   UNK     0       2.008  14.300  90.309  0.00  0.00    -0.269 OA
HETATM   33  N   UNK     0       3.440  12.574  89.763  0.00  0.00    -0.236 N 
HETATM   34  H   UNK     0       4.103  11.847  90.003  0.00  0.00     0.197 HD
BRANCH  33  35
HETATM   35  O   UNK     0       2.925  12.565  88.459  0.00  0.00    -0.287 OA
HETATM   36  H   UNK     0       3.411  11.811  88.085  0.00  0.00     0.244 HD
ENDBRANCH  33  35
ENDBRANCH  26  31
ENDBRANCH  24  26
ENDBRANCH  19  22
ENDBRANCH  15  16
ENDBRANCH  11  14
ENDBRANCH   7   8
ENDBRANCH   2   7
TORSDOF 10
ENDMDL
MODEL 6
REMARK VINA RESULT:      -5.3      3.784     12.448
REMARK  10 active torsions:
REMARK  status: ('A' for Active; 'I' for Inactive)
REMARK    1  A    between atoms: O_2  and  C_18 
REMARK    2  A    between atoms: O_5  and  N_8 
REMARK    3  A    between atoms: N_6  and  C_11 
REMARK    4  A    between atoms: N_7  and  C_15 
REMARK       I    between atoms: N_7  and  C_24 
REMARK       I    between atoms: N_8  and  C_23 
REMARK    5  A    between atoms: C_11  and  C_14 
REMARK    6  A    between atoms: C_15  and  C_18 
REMARK    7  A    between atoms: C_15  and  C_23 
REMARK    8  A    between atoms: C_21  and  C_26 
REMARK    9  A    between atoms: C_24  and  C_25 
REMARK   10  A    between atoms: C_29  and  C_32 
ROOT
HETATM    1  O   UNK     0       2.719  14.957  94.002  0.00  0.00    -0.388 OA
HETATM    2  N   UNK     0       2.647  14.576  91.182  0.00  0.00     0.096 N 
HETATM    3  C   UNK     0       1.602  14.028  92.058  0.00  0.00     0.299 C 
HETATM    4  C   UNK     0       3.918  14.669  91.912  0.00  0.00     0.299 C 
HETATM    5  C   UNK     0       1.471  14.892  93.309  0.00  0.00     0.198 C 
HETATM    6  C   UNK     0       3.733  15.517  93.167  0.00  0.00     0.198 C 
ENDROOT
BRANCH   2   7
HETATM    7  C   UNK     0       2.798  13.757  89.980  0.00  0.00     0.311 C 
BRANCH   7   8
HETATM    8  C   UNK     0       3.812  12.678  90.152  0.00  0.00    -0.030 A 
HETATM    9  C   UNK     0       5.021  12.742  89.458  0.00  0.00     0.010 A 
HETATM   10  C   UNK     0       5.970  11.732  89.616  0.00  0.00     0.021 A 
HETATM   11  C   UNK     0       5.710  10.660  90.469  0.00  0.00     0.018 A 
HETATM   12  C   UNK     0       4.503  10.594  91.161  0.00  0.00     0.021 A 
HETATM   13  C   UNK     0       3.554  11.604  91.003  0.00  0.00     0.010 A 
BRANCH  11  14
HETATM   14  C   UNK     0       6.685   9.625  90.632  0.00  0.00    -0.061 C 
HETATM   15  C   UNK     0       7.504   8.755  90.769  0.00  0.00    -0.061 C 
BRANCH  15  16
HETATM   16  C   UNK     0       8.476   7.721  90.931  0.00  0.00     0.018 A 
HETATM   17  C   UNK     0       9.040   7.113  89.809  0.00  0.00     0.022 A 
HETATM   18  C   UNK     0       9.991   6.104  89.967  0.00  0.00     0.018 A 
HETATM   19  C   UNK     0      10.357   5.727  91.242  0.00  0.00     0.032 A 
HETATM   20  C   UNK     0       9.815   6.312  92.367  0.00  0.00     0.018 A 
HETATM   21  C   UNK     0       8.863   7.320  92.210  0.00  0.00     0.022 A 
BRANCH  19  22
HETATM   22  C   UNK     0      11.369   4.652  91.410  0.00  0.00     0.252 C 
HETATM   23  O   UNK     0      11.648   3.936  90.451  0.00  0.00    -0.268 OA
HETATM   24  N   UNK     0      11.951   4.555  92.666  0.00  0.00    -0.341 N 
HETATM   25  H   UNK     0      11.688   5.198  93.404  0.00  0.00     0.163 HD
BRANCH  24  26
HETATM   26  C   UNK     0      12.964   3.580  92.979  0.00  0.00     0.207 C 
BRANCH  26  27
HETATM   27  C   UNK     0      12.815   2.288  92.166  0.00  0.00     0.146 C 
HETATM   28  C   UNK     0      13.887   1.258  92.505  0.00  0.00     0.042 C 
BRANCH  27  29
HETATM   29  O   UNK     0      11.530   1.717  92.409  0.00  0.00    -0.393 OA
HETATM   30  H   UNK     0      11.227   1.289  91.590  0.00  0.00     0.210 HD
ENDBRANCH  27  29
ENDBRANCH  26  27
BRANCH  26  31
HETATM   31  C   UNK     0      14.324   4.230  92.743  0.00  0.00     0.266 C 
HETATM   32  O   UNK     0      14.701   4.610  91.636  0.00  0.00    -0.269 OA
HETATM   33  N   UNK     0      15.073   4.298  93.892  0.00  0.00    -0.236 N 
HETATM   34  H   UNK     0      14.830   3.915  94.799  0.00  0.00     0.197 HD
BRANCH  33  35
HETATM   35  O   UNK     0      16.355   4.849  93.754  0.00  0.00    -0.287 OA
HETATM   36  H   UNK     0      16.257   5.306  92.901  0.00  0.00     0.244 HD
ENDBRANCH  33  35
ENDBRANCH  26  31
ENDBRANCH  24  26
ENDBRANCH  19  22
ENDBRANCH  15  16
ENDBRANCH  11  14
ENDBRANCH   7   8
ENDBRANCH   2   7
TORSDOF 10
ENDMDL
MODEL 7
REMARK VINA RESULT:      -5.1      3.079     12.526
REMARK  10 active torsions:
REMARK  status: ('A' for Active; 'I' for Inactive)
REMARK    1  A    between atoms: O_2  and  C_18 
REMARK    2  A    between atoms: O_5  and  N_8 
REMARK    3  A    between atoms: N_6  and  C_11 
REMARK    4  A    between atoms: N_7  and  C_15 
REMARK       I    between atoms: N_7  and  C_24 
REMARK       I    between atoms: N_8  and  C_23 
REMARK    5  A    between atoms: C_11  and  C_14 
REMARK    6  A    between atoms: C_15  and  C_18 
REMARK    7  A    between atoms: C_15  and  C_23 
REMARK    8  A    between atoms: C_21  and  C_26 
REMARK    9  A    between atoms: C_24  and  C_25 
REMARK   10  A    between atoms: C_29  and  C_32 
ROOT
HETATM    1  O   UNK     0       3.514  14.246  92.181  0.00  0.00    -0.388 OA
HETATM    2  N   UNK     0       3.701  13.350  89.486  0.00  0.00     0.096 N 
HETATM    3  C   UNK     0       3.107  12.510  90.535  0.00  0.00     0.299 C 
HETATM    4  C   UNK     0       4.708  14.246  90.069  0.00  0.00     0.299 C 
HETATM    5  C   UNK     0       2.510  13.393  91.628  0.00  0.00     0.198 C 
HETATM    6  C   UNK     0       4.075  15.088  91.173  0.00  0.00     0.198 C 
ENDROOT
BRANCH   2   7
HETATM    7  C   UNK     0       4.288  12.525  88.432  0.00  0.00     0.311 C 
BRANCH   7   8
HETATM    8  C   UNK     0       5.195  11.473  88.974  0.00  0.00    -0.030 A 
HETATM    9  C   UNK     0       6.498  11.803  89.348  0.00  0.00     0.010 A 
HETATM   10  C   UNK     0       7.349  10.819  89.853  0.00  0.00     0.021 A 
HETATM   11  C   UNK     0       6.895   9.507  89.985  0.00  0.00     0.018 A 
HETATM   12  C   UNK     0       5.594   9.177  89.612  0.00  0.00     0.021 A 
HETATM   13  C   UNK     0       4.743  10.160  89.106  0.00  0.00     0.010 A 
BRANCH  11  14
HETATM   14  C   UNK     0       7.766   8.499  90.505  0.00  0.00    -0.061 C 
HETATM   15  C   UNK     0       8.499   7.651  90.942  0.00  0.00    -0.061 C 
BRANCH  15  16
HETATM   16  C   UNK     0       9.369   6.645  91.462  0.00  0.00     0.018 A 
HETATM   17  C   UNK     0       9.594   6.561  92.837  0.00  0.00     0.022 A 
HETATM   18  C   UNK     0      10.442   5.578  93.346  0.00  0.00     0.018 A 
HETATM   19  C   UNK     0      11.046   4.700  92.470  0.00  0.00     0.032 A 
HETATM   20  C   UNK     0      10.841   4.761  91.108  0.00  0.00     0.018 A 
HETATM   21  C   UNK     0       9.993   5.745  90.598  0.00  0.00     0.022 A 
BRANCH  19  22
HETATM   22  C   UNK     0      11.951   3.653  93.012  0.00  0.00     0.252 C 
HETATM   23  O   UNK     0      11.505   2.530  93.232  0.00  0.00    -0.268 OA
HETATM   24  N   UNK     0      13.271   4.034  93.210  0.00  0.00    -0.341 N 
HETATM   25  H   UNK     0      13.573   4.974  92.982  0.00  0.00     0.163 HD
BRANCH  24  26
HETATM   26  C   UNK     0      14.274   3.127  93.706  0.00  0.00     0.207 C 
BRANCH  26  27
HETATM   27  C   UNK     0      14.341   1.820  92.905  0.00  0.00     0.146 C 
HETATM   28  C   UNK     0      15.109   1.976  91.597  0.00  0.00     0.042 C 
BRANCH  27  29
HETATM   29  O   UNK     0      14.969   0.809  93.693  0.00  0.00    -0.393 OA
HETATM   30  H   UNK     0      15.783   1.180  94.073  0.00  0.00     0.210 HD
ENDBRANCH  27  29
ENDBRANCH  26  27
BRANCH  26  31
HETATM   31  C   UNK     0      15.613   3.857  93.689  0.00  0.00     0.266 C 
HETATM   32  O   UNK     0      15.739   5.015  93.295  0.00  0.00    -0.269 OA
HETATM   33  N   UNK     0      16.644   3.060  94.124  0.00  0.00    -0.236 N 
HETATM   34  H   UNK     0      16.591   2.079  94.370  0.00  0.00     0.197 HD
BRANCH  33  35
HETATM   35  O   UNK     0      17.918   3.646  94.103  0.00  0.00    -0.287 OA
HETATM   36  H   UNK     0      17.832   4.223  93.325  0.00  0.00     0.244 HD
ENDBRANCH  33  35
ENDBRANCH  26  31
ENDBRANCH  24  26
ENDBRANCH  19  22
ENDBRANCH  15  16
ENDBRANCH  11  14
ENDBRANCH   7   8
ENDBRANCH   2   7
TORSDOF 10
ENDMDL
MODEL 8
REMARK VINA RESULT:      -5.0      3.347     12.439
REMARK  10 active torsions:
REMARK  status: ('A' for Active; 'I' for Inactive)
REMARK    1  A    between atoms: O_2  and  C_18 
REMARK    2  A    between atoms: O_5  and  N_8 
REMARK    3  A    between atoms: N_6  and  C_11 
REMARK    4  A    between atoms: N_7  and  C_15 
REMARK       I    between atoms: N_7  and  C_24 
REMARK       I    between atoms: N_8  and  C_23 
REMARK    5  A    between atoms: C_11  and  C_14 
REMARK    6  A    between atoms: C_15  and  C_18 
REMARK    7  A    between atoms: C_15  and  C_23 
REMARK    8  A    between atoms: C_21  and  C_26 
REMARK    9  A    between atoms: C_24  and  C_25 
REMARK   10  A    between atoms: C_29  and  C_32 
ROOT
HETATM    1  O   UNK     0       5.539  14.898  88.884  0.00  0.00    -0.388 OA
HETATM    2  N   UNK     0       3.666  13.403  90.418  0.00  0.00     0.096 N 
HETATM    3  C   UNK     0       4.301  14.616  90.952  0.00  0.00     0.299 C 
HETATM    4  C   UNK     0       4.557  12.753  89.449  0.00  0.00     0.299 C 
HETATM    5  C   UNK     0       4.666  15.555  89.804  0.00  0.00     0.198 C 
HETATM    6  C   UNK     0       4.918  13.734  88.338  0.00  0.00     0.198 C 
ENDROOT
BRANCH   2   7
HETATM    7  C   UNK     0       3.316  12.483  91.500  0.00  0.00     0.311 C 
BRANCH   7   8
HETATM    8  C   UNK     0       4.332  11.407  91.681  0.00  0.00    -0.030 A 
HETATM    9  C   UNK     0       5.223  11.463  92.753  0.00  0.00     0.010 A 
HETATM   10  C   UNK     0       6.175  10.457  92.922  0.00  0.00     0.021 A 
HETATM   11  C   UNK     0       6.233   9.395  92.020  0.00  0.00     0.018 A 
HETATM   12  C   UNK     0       5.343   9.338  90.949  0.00  0.00     0.021 A 
HETATM   13  C   UNK     0       4.392  10.344  90.779  0.00  0.00     0.010 A 
BRANCH  11  14
HETATM   14  C   UNK     0       7.208   8.363  92.194  0.00  0.00    -0.061 C 
HETATM   15  C   UNK     0       8.027   7.495  92.341  0.00  0.00    -0.061 C 
BRANCH  15  16
HETATM   16  C   UNK     0       9.000   6.464  92.517  0.00  0.00     0.018 A 
HETATM   17  C   UNK     0       9.321   5.620  91.453  0.00  0.00     0.022 A 
HETATM   18  C   UNK     0      10.272   4.614  91.623  0.00  0.00     0.018 A 
HETATM   19  C   UNK     0      10.883   4.476  92.852  0.00  0.00     0.032 A 
HETATM   20  C   UNK     0      10.584   5.297  93.919  0.00  0.00     0.018 A 
HETATM   21  C   UNK     0       9.632   6.302  93.750  0.00  0.00     0.022 A 
BRANCH  19  22
HETATM   22  C   UNK     0      11.896   3.403  93.034  0.00  0.00     0.252 C 
HETATM   23  O   UNK     0      11.618   2.254  92.701  0.00  0.00    -0.268 OA
HETATM   24  N   UNK     0      13.117   3.803  93.558  0.00  0.00    -0.341 N 
HETATM   25  H   UNK     0      13.283   4.776  93.787  0.00  0.00     0.163 HD
BRANCH  24  26
HETATM   26  C   UNK     0      14.207   2.885  93.770  0.00  0.00     0.207 C 
BRANCH  26  27
HETATM   27  C   UNK     0      14.329   1.840  92.654  0.00  0.00     0.146 C 
HETATM   28  C   UNK     0      14.814   2.442  91.341  0.00  0.00     0.042 C 
BRANCH  27  29
HETATM   29  O   UNK     0      15.237   0.815  93.058  0.00  0.00    -0.393 OA
HETATM   30  H   UNK     0      15.204   0.102  92.398  0.00  0.00     0.210 HD
ENDBRANCH  27  29
ENDBRANCH  26  27
BRANCH  26  31
HETATM   31  C   UNK     0      15.487   3.705  93.904  0.00  0.00     0.266 C 
HETATM   32  O   UNK     0      16.603   3.196  93.985  0.00  0.00    -0.269 OA
HETATM   33  N   UNK     0      15.235   5.054  93.961  0.00  0.00    -0.236 N 
HETATM   34  H   UNK     0      14.326   5.502  93.987  0.00  0.00     0.197 HD
BRANCH  33  35
HETATM   35  O   UNK     0      16.358   5.878  94.122  0.00  0.00    -0.287 OA
HETATM   36  H   UNK     0      16.351   5.995  95.088  0.00  0.00     0.244 HD
ENDBRANCH  33  35
ENDBRANCH  26  31
ENDBRANCH  24  26
ENDBRANCH  19  22
ENDBRANCH  15  16
ENDBRANCH  11  14
ENDBRANCH   7   8
ENDBRANCH   2   7
TORSDOF 10
ENDMDL
MODEL 9
REMARK VINA RESULT:      -4.8      3.877     12.852
REMARK  10 active torsions:
REMARK  status: ('A' for Active; 'I' for Inactive)
REMARK    1  A    between atoms: O_2  and  C_18 
REMARK    2  A    between atoms: O_5  and  N_8 
REMARK    3  A    between atoms: N_6  and  C_11 
REMARK    4  A    between atoms: N_7  and  C_15 
REMARK       I    between atoms: N_7  and  C_24 
REMARK       I    between atoms: N_8  and  C_23 
REMARK    5  A    between atoms: C_11  and  C_14 
REMARK    6  A    between atoms: C_15  and  C_18 
REMARK    7  A    between atoms: C_15  and  C_23 
REMARK    8  A    between atoms: C_21  and  C_26 
REMARK    9  A    between atoms: C_24  and  C_25 
REMARK   10  A    between atoms: C_29  and  C_32 
ROOT
HETATM    1  O   UNK     0       1.828  15.611  93.359  0.00  0.00    -0.388 OA
HETATM    2  N   UNK     0       3.144  13.487  91.997  0.00  0.00     0.096 N 
HETATM    3  C   UNK     0       3.692  14.851  92.004  0.00  0.00     0.299 C 
HETATM    4  C   UNK     0       1.681  13.532  92.118  0.00  0.00     0.299 C 
HETATM    5  C   UNK     0       3.254  15.577  93.274  0.00  0.00     0.198 C 
HETATM    6  C   UNK     0       1.289  14.289  93.384  0.00  0.00     0.198 C 
ENDROOT
BRANCH   2   7
HETATM    7  C   UNK     0       3.543  12.776  90.783  0.00  0.00     0.311 C 
BRANCH   7   8
HETATM    8  C   UNK     0       4.517  11.682  91.061  0.00  0.00    -0.030 A 
HETATM    9  C   UNK     0       4.574  10.570  90.219  0.00  0.00     0.010 A 
HETATM   10  C   UNK     0       5.483   9.545  90.479  0.00  0.00     0.021 A 
HETATM   11  C   UNK     0       6.337   9.634  91.578  0.00  0.00     0.018 A 
HETATM   12  C   UNK     0       6.282  10.744  92.418  0.00  0.00     0.021 A 
HETATM   13  C   UNK     0       5.372  11.769  92.160  0.00  0.00     0.010 A 
BRANCH  11  14
HETATM   14  C   UNK     0       7.272   8.583  91.843  0.00  0.00    -0.061 C 
HETATM   15  C   UNK     0       8.057   7.700  92.065  0.00  0.00    -0.061 C 
BRANCH  15  16
HETATM   16  C   UNK     0       8.989   6.651  92.331  0.00  0.00     0.018 A 
HETATM   17  C   UNK     0       9.343   5.760  91.317  0.00  0.00     0.022 A 
HETATM   18  C   UNK     0      10.255   4.737  91.575  0.00  0.00     0.018 A 
HETATM   19  C   UNK     0      10.793   4.627  92.841  0.00  0.00     0.032 A 
HETATM   20  C   UNK     0      10.460   5.493  93.860  0.00  0.00     0.018 A 
HETATM   21  C   UNK     0       9.547   6.516  93.602  0.00  0.00     0.022 A 
BRANCH  19  22
HETATM   22  C   UNK     0      11.763   3.535  93.116  0.00  0.00     0.252 C 
HETATM   23  O   UNK     0      11.383   2.368  93.064  0.00  0.00    -0.268 OA
HETATM   24  N   UNK     0      13.064   3.933  93.393  0.00  0.00    -0.341 N 
HETATM   25  H   UNK     0      13.310   4.916  93.394  0.00  0.00     0.163 HD
BRANCH  24  26
HETATM   26  C   UNK     0      14.123   2.993  93.657  0.00  0.00     0.207 C 
BRANCH  26  27
HETATM   27  C   UNK     0      14.284   1.952  92.542  0.00  0.00     0.146 C 
HETATM   28  C   UNK     0      15.098   2.478  91.365  0.00  0.00     0.042 C 
BRANCH  27  29
HETATM   29  O   UNK     0      14.924   0.788  93.064  0.00  0.00    -0.393 OA
HETATM   30  H   UNK     0      15.371   0.331  92.332  0.00  0.00     0.210 HD
ENDBRANCH  27  29
ENDBRANCH  26  27
BRANCH  26  31
HETATM   31  C   UNK     0      15.409   3.786  93.865  0.00  0.00     0.266 C 
HETATM   32  O   UNK     0      15.420   4.988  94.124  0.00  0.00    -0.269 OA
HETATM   33  N   UNK     0      16.531   3.012  93.690  0.00  0.00    -0.236 N 
HETATM   34  H   UNK     0      16.559   2.044  93.389  0.00  0.00     0.197 HD
BRANCH  33  35
HETATM   35  O   UNK     0      17.758   3.676  93.826  0.00  0.00    -0.287 OA
HETATM   36  H   UNK     0      18.134   3.194  94.582  0.00  0.00     0.244 HD
ENDBRANCH  33  35
ENDBRANCH  26  31
ENDBRANCH  24  26
ENDBRANCH  19  22
ENDBRANCH  15  16
ENDBRANCH  11  14
ENDBRANCH   7   8
ENDBRANCH   2   7
TORSDOF 10
ENDMDL
