MODEL 1
REMARK VINA RESULT:      -7.5      0.000      0.000
REMARK  9 active torsions:
REMARK  status: ('A' for Active; 'I' for Inactive)
REMARK    1  A    between atoms: N_3  and  C_6 
REMARK    2  A    between atoms: C_6  and  C_9 
REMARK    3  A    between atoms: C_14  and  C_17 
REMARK       I    between atoms: N_26  and  C_15 
REMARK    4  A    between atoms: C_15  and  C_16 
REMARK    5  A    between atoms: C_20  and  C_23 
REMARK    6  A    between atoms: OG1_24  and  CB_28 
REMARK    7  A    between atoms: N_26  and  CA_27 
REMARK    8  A    between atoms: CA_27  and  CB_28 
REMARK    9  A    between atoms: CA_27  and  C_30 
ROOT
HETATM    1  O   UNK A   0       1.958   8.075  87.877  1.00  0.00    -0.388 OA
HETATM    2  N   UNK A   0       4.753   7.569  87.702  1.00  0.00     0.096 N 
HETATM    3  C   UNK A   0       4.224   8.937  87.780  1.00  0.00     0.299 C 
HETATM    4  C   UNK A   0       3.770   6.685  87.060  1.00  0.00     0.299 C 
HETATM    5  C   UNK A   0       2.894   8.935  88.529  1.00  0.00     0.198 C 
HETATM    6  C   UNK A   0       2.451   6.736  87.824  1.00  0.00     0.198 C 
ENDROOT
BRANCH   2   7
HETATM    7  C   UNK A   0       6.023   7.546  86.979  1.00  0.00     0.311 C 
BRANCH   7   8
HETATM    8  C   UNK A   0       7.124   6.944  87.784  1.00  0.00    -0.030 A 
HETATM    9  C   UNK A   0       6.936   6.692  89.144  1.00  0.00     0.010 A 
HETATM   10  C   UNK A   0       7.966   6.131  89.898  1.00  0.00     0.021 A 
HETATM   11  C   UNK A   0       9.183   5.820  89.293  1.00  0.00     0.018 A 
HETATM   12  C   UNK A   0       9.372   6.071  87.935  1.00  0.00     0.021 A 
HETATM   13  C   UNK A   0       8.343   6.632  87.180  1.00  0.00     0.010 A 
BRANCH  11  14
HETATM   14  C   UNK A   0      10.239   5.242  90.066  1.00  0.00    -0.061 C 
HETATM   15  C   UNK A   0      11.126   4.758  90.717  1.00  0.00    -0.061 C 
BRANCH  15  16
HETATM   16  C   UNK A   0      12.181   4.181  91.491  1.00  0.00     0.018 A 
HETATM   17  C   UNK A   0      11.956   3.830  92.822  1.00  0.00     0.022 A 
HETATM   18  C   UNK A   0      12.985   3.265  93.576  1.00  0.00     0.018 A 
HETATM   19  C   UNK A   0      14.214   3.064  92.983  1.00  0.00     0.032 A 
HETATM   20  C   UNK A   0      14.461   3.402  91.669  1.00  0.00     0.018 A 
HETATM   21  C   UNK A   0      13.433   3.967  90.914  1.00  0.00     0.022 A 
BRANCH  19  22
HETATM   22  C   UNK A   0      15.309   2.464  93.787  1.00  0.00     0.252 C 
HETATM   23  O   UNK A   0      16.453   2.894  93.658  1.00  0.00    -0.268 OA
ENDBRANCH  19  22
ENDBRANCH  15  16
ENDBRANCH  11  14
ENDBRANCH   7   8
ENDBRANCH   2   7
TORSDOF 9
ENDMDL
MODEL 2
REMARK VINA RESULT:      -7.5      0.088      1.011
REMARK  9 active torsions:
REMARK  status: ('A' for Active; 'I' for Inactive)
REMARK    1  A    between atoms: N_3  and  C_6 
REMARK    2  A    between atoms: C_6  and  C_9 
REMARK    3  A    between atoms: C_14  and  C_17 
REMARK       I    between atoms: N_26  and  C_15 
REMARK    4  A    between atoms: C_15  and  C_16 
REMARK    5  A    between atoms: C_20  and  C_23 
REMARK    6  A    between atoms: OG1_24  and  CB_28 
REMARK    7  A    between atoms: N_26  and  CA_27 
REMARK    8  A    between atoms: CA_27  and  CB_28 
REMARK    9  A    between atoms: CA_27  and  C_30 
ROOT
HETATM    1  O   UNK A   0       1.952   8.047  87.811  1.00  0.00    -0.388 OA
HETATM    2  N   UNK A   0       4.748   7.533  87.672  1.00  0.00     0.096 N 
HETATM    3  C   UNK A   0       4.222   8.902  87.765  1.00  0.00     0.299 C 
HETATM    4  C   UNK A   0       3.772   6.664  87.000  1.00  0.00     0.299 C 
HETATM    5  C   UNK A   0       2.880   8.893  88.492  1.00  0.00     0.198 C 
HETATM    6  C   UNK A   0       2.441   6.707  87.744  1.00  0.00     0.198 C 
ENDROOT
BRANCH   2   7
HETATM    7  C   UNK A   0       6.029   7.516  86.969  1.00  0.00     0.311 C 
BRANCH   7   8
HETATM    8  C   UNK A   0       7.118   6.910  87.787  1.00  0.00    -0.030 A 
HETATM    9  C   UNK A   0       6.899   6.621  89.135  1.00  0.00     0.010 A 
HETATM   10  C   UNK A   0       7.917   6.056  89.901  1.00  0.00     0.021 A 
HETATM   11  C   UNK A   0       9.154   5.779  89.320  1.00  0.00     0.018 A 
HETATM   12  C   UNK A   0       9.374   6.066  87.975  1.00  0.00     0.021 A 
HETATM   13  C   UNK A   0       8.356   6.632  87.208  1.00  0.00     0.010 A 
BRANCH  11  14
HETATM   14  C   UNK A   0      10.198   5.197  90.106  1.00  0.00    -0.061 C 
HETATM   15  C   UNK A   0      11.076   4.708  90.766  1.00  0.00    -0.061 C 
BRANCH  15  16
HETATM   16  C   UNK A   0      12.120   4.127  91.552  1.00  0.00     0.018 A 
HETATM   17  C   UNK A   0      13.380   3.916  90.990  1.00  0.00     0.022 A 
HETATM   18  C   UNK A   0      14.399   3.352  91.757  1.00  0.00     0.018 A 
HETATM   19  C   UNK A   0      14.137   3.013  93.068  1.00  0.00     0.032 A 
HETATM   20  C   UNK A   0      12.901   3.211  93.646  1.00  0.00     0.018 A 
HETATM   21  C   UNK A   0      11.880   3.775  92.880  1.00  0.00     0.022 A 
BRANCH  19  22
HETATM   22  C   UNK A   0      15.222   2.410  93.884  1.00  0.00     0.252 C 
HETATM   23  O   UNK A   0      16.372   2.825  93.753  1.00  0.00    -0.268 OA
ENDBRANCH  19  22
ENDBRANCH  15  16
ENDBRANCH  11  14
ENDBRANCH   7   8
ENDBRANCH   2   7
TORSDOF 9
ENDMDL
MODEL 3
REMARK VINA RESULT:      -7.5      0.122      1.014
REMARK  9 active torsions:
REMARK  status: ('A' for Active; 'I' for Inactive)
REMARK    1  A    between atoms: N_3  and  C_6 
REMARK    2  A    between atoms: C_6  and  C_9 
REMARK    3  A    between atoms: C_14  and  C_17 
REMARK       I    between atoms: N_26  and  C_15 
REMARK    4  A    between atoms: C_15  and  C_16 
REMARK    5  A    between atoms: C_20  and  C_23 
REMARK    6  A    between atoms: OG1_24  and  CB_28 
REMARK    7  A    between atoms: N_26  and  CA_27 
REMARK    8  A    between atoms: CA_27  and  CB_28 
REMARK    9  A    between atoms: CA_27  and  C_30 
ROOT
HETATM    1  O   UNK A   0       1.852   7.997  87.814  1.00  0.00    -0.388 OA
HETATM    2  N   UNK A   0       4.651   7.504  87.660  1.00  0.00     0.096 N 
HETATM    3  C   UNK A   0       4.116   8.869  87.769  1.00  0.00     0.299 C 
HETATM    4  C   UNK A   0       3.679   6.636  86.981  1.00  0.00     0.299 C 
HETATM    5  C   UNK A   0       2.777   8.841  88.501  1.00  0.00     0.198 C 
HETATM    6  C   UNK A   0       2.351   6.661  87.731  1.00  0.00     0.198 C 
ENDROOT
BRANCH   2   7
HETATM    7  C   UNK A   0       5.930   7.505  86.952  1.00  0.00     0.311 C 
BRANCH   7   8
HETATM    8  C   UNK A   0       7.029   6.907  87.763  1.00  0.00    -0.030 A 
HETATM    9  C   UNK A   0       8.265   6.640  87.172  1.00  0.00     0.010 A 
HETATM   10  C   UNK A   0       9.293   6.079  87.930  1.00  0.00     0.021 A 
HETATM   11  C   UNK A   0       9.085   5.788  89.278  1.00  0.00     0.018 A 
HETATM   12  C   UNK A   0       7.851   6.054  89.868  1.00  0.00     0.021 A 
HETATM   13  C   UNK A   0       6.823   6.615  89.111  1.00  0.00     0.010 A 
BRANCH  11  14
HETATM   14  C   UNK A   0      10.140   5.214  90.055  1.00  0.00    -0.061 C 
HETATM   15  C   UNK A   0      11.027   4.733  90.709  1.00  0.00    -0.061 C 
BRANCH  15  16
HETATM   16  C   UNK A   0      12.081   4.159  91.487  1.00  0.00     0.018 A 
HETATM   17  C   UNK A   0      11.843   3.776  92.807  1.00  0.00     0.022 A 
HETATM   18  C   UNK A   0      12.871   3.215  93.565  1.00  0.00     0.018 A 
HETATM   19  C   UNK A   0      14.111   3.048  92.986  1.00  0.00     0.032 A 
HETATM   20  C   UNK A   0      14.372   3.419  91.683  1.00  0.00     0.018 A 
HETATM   21  C   UNK A   0      13.345   3.981  90.925  1.00  0.00     0.022 A 
BRANCH  19  22
HETATM   22  C   UNK A   0      15.206   2.452  93.794  1.00  0.00     0.252 C 
HETATM   23  O   UNK A   0      16.370   2.762  93.549  1.00  0.00    -0.268 OA
ENDBRANCH  19  22
ENDBRANCH  15  16
ENDBRANCH  11  14
ENDBRANCH   7   8
ENDBRANCH   2   7
TORSDOF 9
ENDMDL
MODEL 4
REMARK VINA RESULT:      -7.5      0.108      1.429
REMARK  9 active torsions:
REMARK  status: ('A' for Active; 'I' for Inactive)
REMARK    1  A    between atoms: N_3  and  C_6 
REMARK    2  A    between atoms: C_6  and  C_9 
REMARK    3  A    between atoms: C_14  and  C_17 
REMARK       I    between atoms: N_26  and  C_15 
REMARK    4  A    between atoms: C_15  and  C_16 
REMARK    5  A    between atoms: C_20  and  C_23 
REMARK    6  A    between atoms: OG1_24  and  CB_28 
REMARK    7  A    between atoms: N_26  and  CA_27 
REMARK    8  A    between atoms: CA_27  and  CB_28 
REMARK    9  A    between atoms: CA_27  and  C_30 
ROOT
HETATM    1  O   UNK A   0       1.884   7.985  87.797  1.00  0.00    -0.388 OA
HETATM    2  N   UNK A   0       4.695   7.552  87.684  1.00  0.00     0.096 N 
HETATM    3  C   UNK A   0       4.129   8.906  87.765  1.00  0.00     0.299 C 
HETATM    4  C   UNK A   0       3.751   6.652  87.008  1.00  0.00     0.299 C 
HETATM    5  C   UNK A   0       2.782   8.861  88.482  1.00  0.00     0.198 C 
HETATM    6  C   UNK A   0       2.413   6.660  87.741  1.00  0.00     0.198 C 
ENDROOT
BRANCH   2   7
HETATM    7  C   UNK A   0       5.982   7.570  86.991  1.00  0.00     0.311 C 
BRANCH   7   8
HETATM    8  C   UNK A   0       7.073   6.957  87.803  1.00  0.00    -0.030 A 
HETATM    9  C   UNK A   0       8.295   6.647  87.206  1.00  0.00     0.010 A 
HETATM   10  C   UNK A   0       9.315   6.071  87.964  1.00  0.00     0.021 A 
HETATM   11  C   UNK A   0       9.112   5.809  89.318  1.00  0.00     0.018 A 
HETATM   12  C   UNK A   0       7.892   6.120  89.916  1.00  0.00     0.021 A 
HETATM   13  C   UNK A   0       6.872   6.694  89.158  1.00  0.00     0.010 A 
BRANCH  11  14
HETATM   14  C   UNK A   0      10.159   5.221  90.096  1.00  0.00    -0.061 C 
HETATM   15  C   UNK A   0      11.039   4.727  90.750  1.00  0.00    -0.061 C 
BRANCH  15  16
HETATM   16  C   UNK A   0      12.085   4.139  91.528  1.00  0.00     0.018 A 
HETATM   17  C   UNK A   0      13.340   3.924  90.958  1.00  0.00     0.022 A 
HETATM   18  C   UNK A   0      14.360   3.353  91.718  1.00  0.00     0.018 A 
HETATM   19  C   UNK A   0      14.104   3.011  93.029  1.00  0.00     0.032 A 
HETATM   20  C   UNK A   0      12.872   3.213  93.616  1.00  0.00     0.018 A 
HETATM   21  C   UNK A   0      11.851   3.784  92.857  1.00  0.00     0.022 A 
BRANCH  19  22
HETATM   22  C   UNK A   0      15.191   2.401  93.838  1.00  0.00     0.252 C 
HETATM   23  O   UNK A   0      16.314   2.898  93.806  1.00  0.00    -0.268 OA
ENDBRANCH  19  22
ENDBRANCH  15  16
ENDBRANCH  11  14
ENDBRANCH   7   8
ENDBRANCH   2   7
TORSDOF 9
ENDMDL
MODEL 5
REMARK VINA RESULT:      -6.9      1.376      1.679
REMARK  9 active torsions:
REMARK  status: ('A' for Active; 'I' for Inactive)
REMARK    1  A    between atoms: N_3  and  C_6 
REMARK    2  A    between atoms: C_6  and  C_9 
REMARK    3  A    between atoms: C_14  and  C_17 
REMARK       I    between atoms: N_26  and  C_15 
REMARK    4  A    between atoms: C_15  and  C_16 
REMARK    5  A    between atoms: C_20  and  C_23 
REMARK    6  A    between atoms: OG1_24  and  CB_28 
REMARK    7  A    between atoms: N_26  and  CA_27 
REMARK    8  A    between atoms: CA_27  and  CB_28 
REMARK    9  A    between atoms: CA_27  and  C_30 
ROOT
HETATM    1  O   UNK A   0       4.710  11.015  88.727  1.00  0.00    -0.388 OA
HETATM    2  N   UNK A   0       5.327   8.239  88.606  1.00  0.00     0.096 N 
HETATM    3  C   UNK A   0       6.368   9.247  88.849  1.00  0.00     0.299 C 
HETATM    4  C   UNK A   0       4.240   8.820  87.806  1.00  0.00     0.299 C 
HETATM    5  C   UNK A   0       5.756  10.468  89.532  1.00  0.00     0.198 C 
HETATM    6  C   UNK A   0       3.679  10.051  88.512  1.00  0.00     0.198 C 
ENDROOT
BRANCH   2   7
HETATM    7  C   UNK A   0       5.889   7.063  87.944  1.00  0.00     0.311 C 
BRANCH   7   8
HETATM    8  C   UNK A   0       7.067   6.510  88.671  1.00  0.00    -0.030 A 
HETATM    9  C   UNK A   0       6.903   5.952  89.939  1.00  0.00     0.010 A 
HETATM   10  C   UNK A   0       8.005   5.436  90.622  1.00  0.00     0.021 A 
HETATM   11  C   UNK A   0       9.269   5.477  90.034  1.00  0.00     0.018 A 
HETATM   12  C   UNK A   0       9.434   6.033  88.767  1.00  0.00     0.021 A 
HETATM   13  C   UNK A   0       8.332   6.550  88.085  1.00  0.00     0.010 A 
BRANCH  11  14
HETATM   14  C   UNK A   0      10.399   4.945  90.733  1.00  0.00    -0.061 C 
HETATM   15  C   UNK A   0      11.348   4.499  91.321  1.00  0.00    -0.061 C 
BRANCH  15  16
HETATM   16  C   UNK A   0      12.476   3.967  92.020  1.00  0.00     0.018 A 
HETATM   17  C   UNK A   0      12.397   3.730  93.392  1.00  0.00     0.022 A 
HETATM   18  C   UNK A   0      13.497   3.209  94.073  1.00  0.00     0.018 A 
HETATM   19  C   UNK A   0      14.650   2.936  93.367  1.00  0.00     0.032 A 
HETATM   20  C   UNK A   0      14.753   3.161  92.011  1.00  0.00     0.018 A 
HETATM   21  C   UNK A   0      13.654   3.683  91.329  1.00  0.00     0.022 A 
BRANCH  19  22
HETATM   22  C   UNK A   0      15.822   2.382  94.093  1.00  0.00     0.252 C 
HETATM   23  O   UNK A   0      16.949   2.776  93.802  1.00  0.00    -0.268 OA
ENDBRANCH  19  22
ENDBRANCH  15  16
ENDBRANCH  11  14
ENDBRANCH   7   8
ENDBRANCH   2   7
TORSDOF 9
ENDMDL
MODEL 6
REMARK VINA RESULT:      -6.6      1.863      2.383
REMARK  9 active torsions:
REMARK  status: ('A' for Active; 'I' for Inactive)
REMARK    1  A    between atoms: N_3  and  C_6 
REMARK    2  A    between atoms: C_6  and  C_9 
REMARK    3  A    between atoms: C_14  and  C_17 
REMARK       I    between atoms: N_26  and  C_15 
REMARK    4  A    between atoms: C_15  and  C_16 
REMARK    5  A    between atoms: C_20  and  C_23 
REMARK    6  A    between atoms: OG1_24  and  CB_28 
REMARK    7  A    between atoms: N_26  and  CA_27 
REMARK    8  A    between atoms: CA_27  and  CB_28 
REMARK    9  A    between atoms: CA_27  and  C_30 
ROOT
HETATM    1  O   UNK A   0       3.874  12.273  89.597  1.00  0.00    -0.388 OA
HETATM    2  N   UNK A   0       4.898   9.716  88.879  1.00  0.00     0.096 N 
HETATM    3  C   UNK A   0       3.822  10.356  88.109  1.00  0.00     0.299 C 
HETATM    4  C   UNK A   0       4.846  10.158  90.280  1.00  0.00     0.299 C 
HETATM    5  C   UNK A   0       3.936  11.874  88.226  1.00  0.00     0.198 C 
HETATM    6  C   UNK A   0       4.934  11.679  90.346  1.00  0.00     0.198 C 
ENDROOT
BRANCH   2   7
HETATM    7  C   UNK A   0       4.802   8.260  88.790  1.00  0.00     0.311 C 
BRANCH   7   8
HETATM    8  C   UNK A   0       6.032   7.578  89.285  1.00  0.00    -0.030 A 
HETATM    9  C   UNK A   0       5.972   6.772  90.423  1.00  0.00     0.010 A 
HETATM   10  C   UNK A   0       7.122   6.136  90.889  1.00  0.00     0.021 A 
HETATM   11  C   UNK A   0       8.332   6.304  90.216  1.00  0.00     0.018 A 
HETATM   12  C   UNK A   0       8.393   7.109  89.079  1.00  0.00     0.021 A 
HETATM   13  C   UNK A   0       7.243   7.746  88.614  1.00  0.00     0.010 A 
BRANCH  11  14
HETATM   14  C   UNK A   0       9.512   5.650  90.692  1.00  0.00    -0.061 C 
HETATM   15  C   UNK A   0      10.503   5.101  91.093  1.00  0.00    -0.061 C 
BRANCH  15  16
HETATM   16  C   UNK A   0      11.682   4.447  91.571  1.00  0.00     0.018 A 
HETATM   17  C   UNK A   0      11.700   3.891  92.850  1.00  0.00     0.022 A 
HETATM   18  C   UNK A   0      12.849   3.251  93.314  1.00  0.00     0.018 A 
HETATM   19  C   UNK A   0      13.952   3.180  92.490  1.00  0.00     0.032 A 
HETATM   20  C   UNK A   0      13.959   3.722  91.222  1.00  0.00     0.018 A 
HETATM   21  C   UNK A   0      12.811   4.362  90.756  1.00  0.00     0.022 A 
BRANCH  19  22
HETATM   22  C   UNK A   0      15.176   2.500  92.986  1.00  0.00     0.252 C 
HETATM   23  O   UNK A   0      15.922   3.096  93.759  1.00  0.00    -0.268 OA
ENDBRANCH  19  22
ENDBRANCH  15  16
ENDBRANCH  11  14
ENDBRANCH   7   8
ENDBRANCH   2   7
TORSDOF 9
ENDMDL
MODEL 7
REMARK VINA RESULT:      -6.6      3.916     10.418
REMARK  9 active torsions:
REMARK  status: ('A' for Active; 'I' for Inactive)
REMARK    1  A    between atoms: N_3  and  C_6 
REMARK    2  A    between atoms: C_6  and  C_9 
REMARK    3  A    between atoms: C_14  and  C_17 
REMARK       I    between atoms: N_26  and  C_15 
REMARK    4  A    between atoms: C_15  and  C_16 
REMARK    5  A    between atoms: C_20  and  C_23 
REMARK    6  A    between atoms: OG1_24  and  CB_28 
REMARK    7  A    between atoms: N_26  and  CA_27 
REMARK    8  A    between atoms: CA_27  and  CB_28 
REMARK    9  A    between atoms: CA_27  and  C_30 
ROOT
HETATM    1  O   UNK A   0      14.580   3.355  92.113  1.00  0.00    -0.388 OA
HETATM    2  N   UNK A   0      11.860   4.185  92.231  1.00  0.00     0.096 N 
HETATM    3  C   UNK A   0      12.437   3.298  93.251  1.00  0.00     0.299 C 
HETATM    4  C   UNK A   0      12.550   3.993  90.949  1.00  0.00     0.299 C 
HETATM    5  C   UNK A   0      13.937   3.558  93.373  1.00  0.00     0.198 C 
HETATM    6  C   UNK A   0      14.046   4.235  91.124  1.00  0.00     0.198 C 
ENDROOT
BRANCH   2   7
HETATM    7  C   UNK A   0      10.425   3.945  92.090  1.00  0.00     0.311 C 
BRANCH   7   8
HETATM    8  C   UNK A   0       9.666   5.196  91.799  1.00  0.00    -0.030 A 
HETATM    9  C   UNK A   0       8.759   5.229  90.739  1.00  0.00     0.010 A 
HETATM   10  C   UNK A   0       8.051   6.398  90.464  1.00  0.00     0.021 A 
HETATM   11  C   UNK A   0       8.249   7.533  91.250  1.00  0.00     0.018 A 
HETATM   12  C   UNK A   0       9.154   7.501  92.309  1.00  0.00     0.021 A 
HETATM   13  C   UNK A   0       9.863   6.332  92.583  1.00  0.00     0.010 A 
BRANCH  11  14
HETATM   14  C   UNK A   0       7.520   8.732  90.969  1.00  0.00    -0.061 C 
HETATM   15  C   UNK A   0       6.908   9.740  90.734  1.00  0.00    -0.061 C 
BRANCH  15  16
HETATM   16  C   UNK A   0       6.181  10.939  90.454  1.00  0.00     0.018 A 
HETATM   17  C   UNK A   0       5.271  11.436  91.388  1.00  0.00     0.022 A 
HETATM   18  C   UNK A   0       4.564  12.607  91.116  1.00  0.00     0.018 A 
HETATM   19  C   UNK A   0       4.782  13.254  89.918  1.00  0.00     0.032 A 
HETATM   20  C   UNK A   0       5.674  12.783  88.978  1.00  0.00     0.018 A 
HETATM   21  C   UNK A   0       6.382  11.612  89.249  1.00  0.00     0.022 A 
BRANCH  19  22
HETATM   22  C   UNK A   0       4.026  14.500  89.628  1.00  0.00     0.252 C 
HETATM   23  O   UNK A   0       4.631  15.568  89.566  1.00  0.00    -0.268 OA
ENDBRANCH  19  22
ENDBRANCH  15  16
ENDBRANCH  11  14
ENDBRANCH   7   8
ENDBRANCH   2   7
TORSDOF 9
ENDMDL
MODEL 8
REMARK VINA RESULT:      -6.4      1.872      2.627
REMARK  9 active torsions:
REMARK  status: ('A' for Active; 'I' for Inactive)
REMARK    1  A    between atoms: N_3  and  C_6 
REMARK    2  A    between atoms: C_6  and  C_9 
REMARK    3  A    between atoms: C_14  and  C_17 
REMARK       I    between atoms: N_26  and  C_15 
REMARK    4  A    between atoms: C_15  and  C_16 
REMARK    5  A    between atoms: C_20  and  C_23 
REMARK    6  A    between atoms: OG1_24  and  CB_28 
REMARK    7  A    between atoms: N_26  and  CA_27 
REMARK    8  A    between atoms: CA_27  and  CB_28 
REMARK    9  A    between atoms: CA_27  and  C_30 
ROOT
HETATM    1  O   UNK A   0       2.189   9.235  88.053  1.00  0.00    -0.388 OA
HETATM    2  N   UNK A   0       3.830   8.067  90.064  1.00  0.00     0.096 N 
HETATM    3  C   UNK A   0       2.650   7.369  89.534  1.00  0.00     0.299 C 
HETATM    4  C   UNK A   0       3.634   9.521  89.979  1.00  0.00     0.299 C 
HETATM    5  C   UNK A   0       2.383   7.820  88.101  1.00  0.00     0.198 C 
HETATM    6  C   UNK A   0       3.343   9.922  88.537  1.00  0.00     0.198 C 
ENDROOT
BRANCH   2   7
HETATM    7  C   UNK A   0       4.099   7.658  91.441  1.00  0.00     0.311 C 
BRANCH   7   8
HETATM    8  C   UNK A   0       5.452   7.053  91.600  1.00  0.00    -0.030 A 
HETATM    9  C   UNK A   0       5.987   6.867  92.875  1.00  0.00     0.010 A 
HETATM   10  C   UNK A   0       7.254   6.303  93.025  1.00  0.00     0.021 A 
HETATM   11  C   UNK A   0       7.984   5.923  91.899  1.00  0.00     0.018 A 
HETATM   12  C   UNK A   0       7.451   6.108  90.625  1.00  0.00     0.021 A 
HETATM   13  C   UNK A   0       6.185   6.673  90.475  1.00  0.00     0.010 A 
BRANCH  11  14
HETATM   14  C   UNK A   0       9.282   5.342  92.053  1.00  0.00    -0.061 C 
HETATM   15  C   UNK A   0      10.374   4.854  92.181  1.00  0.00    -0.061 C 
BRANCH  15  16
HETATM   16  C   UNK A   0      11.672   4.274  92.334  1.00  0.00     0.018 A 
HETATM   17  C   UNK A   0      12.080   3.800  93.581  1.00  0.00     0.022 A 
HETATM   18  C   UNK A   0      13.345   3.232  93.730  1.00  0.00     0.018 A 
HETATM   19  C   UNK A   0      14.172   3.150  92.629  1.00  0.00     0.032 A 
HETATM   20  C   UNK A   0      13.792   3.611  91.386  1.00  0.00     0.018 A 
HETATM   21  C   UNK A   0      12.527   4.179  91.237  1.00  0.00     0.022 A 
BRANCH  19  22
HETATM   22  C   UNK A   0      15.521   2.546  92.788  1.00  0.00     0.252 C 
HETATM   23  O   UNK A   0      16.224   2.890  93.736  1.00  0.00    -0.268 OA
ENDBRANCH  19  22
ENDBRANCH  15  16
ENDBRANCH  11  14
ENDBRANCH   7   8
ENDBRANCH   2   7
TORSDOF 9
ENDMDL
MODEL 9
REMARK VINA RESULT:      -6.4      4.834     10.260
REMARK  9 active torsions:
REMARK  status: ('A' for Active; 'I' for Inactive)
REMARK    1  A    between atoms: N_3  and  C_6 
REMARK    2  A    between atoms: C_6  and  C_9 
REMARK    3  A    between atoms: C_14  and  C_17 
REMARK       I    between atoms: N_26  and  C_15 
REMARK    4  A    between atoms: C_15  and  C_16 
REMARK    5  A    between atoms: C_20  and  C_23 
REMARK    6  A    between atoms: OG1_24  and  CB_28 
REMARK    7  A    between atoms: N_26  and  CA_27 
REMARK    8  A    between atoms: CA_27  and  CB_28 
REMARK    9  A    between atoms: CA_27  and  C_30 
ROOT
HETATM    1  O   UNK A   0      11.326   4.009  88.920  1.00  0.00    -0.388 OA
HETATM    2  N   UNK A   0       9.435   5.813  87.792  1.00  0.00     0.096 N 
HETATM    3  C   UNK A   0      10.178   4.858  86.958  1.00  0.00     0.299 C 
HETATM    4  C   UNK A   0      10.229   6.172  88.975  1.00  0.00     0.299 C 
HETATM    5  C   UNK A   0      10.548   3.629  87.783  1.00  0.00     0.198 C 
HETATM    6  C   UNK A   0      10.598   4.912  89.753  1.00  0.00     0.198 C 
ENDROOT
BRANCH   2   7
HETATM    7  C   UNK A   0       9.079   7.004  87.024  1.00  0.00     0.311 C 
BRANCH   7   8
HETATM    8  C   UNK A   0       8.300   7.988  87.829  1.00  0.00    -0.030 A 
HETATM    9  C   UNK A   0       8.905   9.168  88.263  1.00  0.00     0.010 A 
HETATM   10  C   UNK A   0       8.177  10.087  89.018  1.00  0.00     0.021 A 
HETATM   11  C   UNK A   0       6.845   9.827  89.337  1.00  0.00     0.018 A 
HETATM   12  C   UNK A   0       6.239   8.649  88.904  1.00  0.00     0.021 A 
HETATM   13  C   UNK A   0       6.967   7.729  88.149  1.00  0.00     0.010 A 
BRANCH  11  14
HETATM   14  C   UNK A   0       6.098  10.772  90.110  1.00  0.00    -0.061 C 
HETATM   15  C   UNK A   0       5.471  11.565  90.760  1.00  0.00    -0.061 C 
BRANCH  15  16
HETATM   16  C   UNK A   0       4.725  12.510  91.533  1.00  0.00     0.018 A 
HETATM   17  C   UNK A   0       4.473  12.260  92.882  1.00  0.00     0.022 A 
HETATM   18  C   UNK A   0       3.748  13.183  93.636  1.00  0.00     0.018 A 
HETATM   19  C   UNK A   0       3.293  14.333  93.025  1.00  0.00     0.032 A 
HETATM   20  C   UNK A   0       3.529  14.602  91.694  1.00  0.00     0.018 A 
HETATM   21  C   UNK A   0       4.254  13.680  90.938  1.00  0.00     0.022 A 
BRANCH  19  22
HETATM   22  C   UNK A   0       2.519  15.315  93.829  1.00  0.00     0.252 C 
HETATM   23  O   UNK A   0       1.387  15.625  93.468  1.00  0.00    -0.268 OA
ENDBRANCH  19  22
ENDBRANCH  15  16
ENDBRANCH  11  14
ENDBRANCH   7   8
ENDBRANCH   2   7
TORSDOF 9
ENDMDL
