MODEL 1
REMARK VINA RESULT:      -6.7      0.000      0.000
REMARK  11 active torsions:
REMARK  status: ('A' for Active; 'I' for Inactive)
REMARK    1  A    between atoms: O_2  and  C_18 
REMARK    2  A    between atoms: O_5  and  P_8 
REMARK    3  A    between atoms: N_6  and  C_11 
REMARK    4  A    between atoms: N_7  and  C_15 
REMARK       I    between atoms: N_7  and  C_24 
REMARK    5  A    between atoms: P_8  and  C_23 
REMARK    6  A    between atoms: C_11  and  C_14 
REMARK    7  A    between atoms: C_15  and  C_18 
REMARK    8  A    between atoms: C_15  and  C_23 
REMARK    9  A    between atoms: C_21  and  C_26 
REMARK   10  A    between atoms: C_24  and  C_25 
REMARK   11  A    between atoms: C_29  and  C_32 
ROOT
HETATM    1  O   UNL     1      16.499   4.304  94.124  1.00  0.00     0.000 OA
HETATM    2  N   UNL     1      14.756   2.714  92.532  1.00  0.00     0.000 N 
HETATM    3  C   UNL     1      14.672   4.181  92.532  1.00  0.00     0.000 C 
HETATM    4  C   UNL     1      15.261   2.239  93.827  1.00  0.00     0.000 C 
HETATM    5  C   UNL     1      16.039   4.777  92.857  1.00  0.00     0.000 C 
HETATM    6  C   UNL     1      16.613   2.880  94.122  1.00  0.00     0.000 C 
ENDROOT
BRANCH   2   7
HETATM    7  C   UNL     1      13.453   2.121  92.233  1.00  0.00     0.000 C 
BRANCH   7   8
HETATM    8  C   UNL     1      12.411   3.150  91.955  1.00  0.00     0.000 A 
HETATM    9  C   UNL     1      11.565   3.580  92.978  1.00  0.00     0.000 A 
HETATM   10  C   UNL     1      10.589   4.541  92.718  1.00  0.00     0.000 A 
HETATM   11  C   UNL     1      10.460   5.073  91.436  1.00  0.00     0.000 A 
HETATM   12  C   UNL     1      11.304   4.645  90.413  1.00  0.00     0.000 A 
HETATM   13  C   UNL     1      12.280   3.683  90.673  1.00  0.00     0.000 A 
BRANCH  11  14
HETATM   14  C   UNL     1       9.459   6.061  91.170  1.00  0.00     0.000 C 
HETATM   15  C   UNL     1       8.619   6.891  90.946  1.00  0.00     0.000 C 
BRANCH  15  16
HETATM   16  C   UNL     1       7.619   7.878  90.679  1.00  0.00     0.000 A 
HETATM   17  C   UNL     1       7.870   8.892  89.754  1.00  0.00     0.000 A 
HETATM   18  C   UNL     1       6.894   9.852  89.492  1.00  0.00     0.000 A 
HETATM   19  C   UNL     1       5.689   9.777  90.159  1.00  0.00     0.000 A 
HETATM   20  C   UNL     1       5.416   8.785  91.077  1.00  0.00     0.000 A 
HETATM   21  C   UNL     1       6.392   7.824  91.340  1.00  0.00     0.000 A 
BRANCH  19  22
HETATM   22  C   UNL     1       4.650  10.802  89.881  1.00  0.00     0.000 C 
HETATM   23  O   UNL     1       3.521  10.440  89.557  1.00  0.00     0.000 OA
HETATM   24  N   UNL     1       5.042  12.124  90.037  1.00  0.00     0.000 N 
HETATM   25  HN  UNL     1       5.986  12.348  90.332  1.00  0.00     0.000 HD
BRANCH  24  26
HETATM   26  C   UNL     1       4.143  13.231  89.828  1.00  0.00     0.000 C 
BRANCH  26  27
HETATM   27  C   UNL     1       3.475  13.705  91.125  1.00  0.00     0.000 C 
HETATM   28  C   UNL     1       2.287  12.836  91.522  1.00  0.00     0.000 C 
BRANCH  27  29
HETATM   29  O   UNL     1       4.430  13.698  92.185  1.00  0.00     0.000 OA
HETATM   30  H   UNL     1       5.320  13.678  91.793  1.00  0.00     0.000 HD
ENDBRANCH  27  29
ENDBRANCH  26  27
BRANCH  26  31
HETATM   31  C   UNL     1       4.933  14.355  89.167  1.00  0.00     0.000 C 
HETATM   32  O   UNL     1       5.168  15.426  89.725  1.00  0.00     0.000 OA
BRANCH  31  33
HETATM   33  P   UNL     1       5.308  14.041  87.883  1.00  0.00     0.000 P 
HETATM   34  H   UNL     1       5.161  15.176  87.111  1.00  0.00     0.000 HD
BRANCH  33  35
HETATM   35  O   UNL     1       4.584  13.008  87.272  1.00  0.00     0.000 OA
HETATM   36  H   UNL     1       5.105  12.238  87.558  1.00  0.00     0.000 HD
ENDBRANCH  33  35
ENDBRANCH  31  33
ENDBRANCH  26  31
ENDBRANCH  24  26
ENDBRANCH  19  22
ENDBRANCH  15  16
ENDBRANCH  11  14
ENDBRANCH   7   8
ENDBRANCH   2   7
TORSDOF 11
ENDMDL
MODEL 2
REMARK VINA RESULT:      -6.4      2.019      2.959
REMARK  11 active torsions:
REMARK  status: ('A' for Active; 'I' for Inactive)
REMARK    1  A    between atoms: O_2  and  C_18 
REMARK    2  A    between atoms: O_5  and  P_8 
REMARK    3  A    between atoms: N_6  and  C_11 
REMARK    4  A    between atoms: N_7  and  C_15 
REMARK       I    between atoms: N_7  and  C_24 
REMARK    5  A    between atoms: P_8  and  C_23 
REMARK    6  A    between atoms: C_11  and  C_14 
REMARK    7  A    between atoms: C_15  and  C_18 
REMARK    8  A    between atoms: C_15  and  C_23 
REMARK    9  A    between atoms: C_21  and  C_26 
REMARK   10  A    between atoms: C_24  and  C_25 
REMARK   11  A    between atoms: C_29  and  C_32 
ROOT
HETATM    1  O   UNL     1      16.015   4.152  93.826  1.00  0.00     0.000 OA
HETATM    2  N   UNL     1      14.051   2.660  92.406  1.00  0.00     0.000 N 
HETATM    3  C   UNL     1      14.310   4.074  92.100  1.00  0.00     0.000 C 
HETATM    4  C   UNL     1      14.352   2.387  93.818  1.00  0.00     0.000 C 
HETATM    5  C   UNL     1      15.756   4.421  92.447  1.00  0.00     0.000 C 
HETATM    6  C   UNL     1      15.795   2.773  94.124  1.00  0.00     0.000 C 
ENDROOT
BRANCH   2   7
HETATM    7  C   UNL     1      12.667   2.308  92.091  1.00  0.00     0.000 C 
BRANCH   7   8
HETATM    8  C   UNL     1      11.750   3.481  92.176  1.00  0.00     0.000 A 
HETATM    9  C   UNL     1      11.138   3.971  91.022  1.00  0.00     0.000 A 
HETATM   10  C   UNL     1      10.282   5.069  91.099  1.00  0.00     0.000 A 
HETATM   11  C   UNL     1      10.035   5.674  92.331  1.00  0.00     0.000 A 
HETATM   12  C   UNL     1      10.645   5.185  93.484  1.00  0.00     0.000 A 
HETATM   13  C   UNL     1      11.503   4.088  93.407  1.00  0.00     0.000 A 
BRANCH  11  14
HETATM   14  C   UNL     1       9.155   6.799  92.411  1.00  0.00     0.000 C 
HETATM   15  C   UNL     1       8.414   7.744  92.477  1.00  0.00     0.000 C 
BRANCH  15  16
HETATM   16  C   UNL     1       7.534   8.867  92.557  1.00  0.00     0.000 A 
HETATM   17  C   UNL     1       6.787   9.247  91.441  1.00  0.00     0.000 A 
HETATM   18  C   UNL     1       5.926  10.342  91.520  1.00  0.00     0.000 A 
HETATM   19  C   UNL     1       5.830  11.030  92.712  1.00  0.00     0.000 A 
HETATM   20  C   UNL     1       6.558  10.675  93.828  1.00  0.00     0.000 A 
HETATM   21  C   UNL     1       7.419   9.581  93.750  1.00  0.00     0.000 A 
BRANCH  19  22
HETATM   22  C   UNL     1       4.914  12.197  92.794  1.00  0.00     0.000 C 
HETATM   23  O   UNL     1       4.623  12.655  93.897  1.00  0.00     0.000 OA
HETATM   24  N   UNL     1       4.466  12.706  91.583  1.00  0.00     0.000 N 
HETATM   25  HN  UNL     1       4.769  12.291  90.710  1.00  0.00     0.000 HD
BRANCH  24  26
HETATM   26  C   UNL     1       3.593  13.849  91.497  1.00  0.00     0.000 C 
BRANCH  26  27
HETATM   27  C   UNL     1       3.589  14.490  90.104  1.00  0.00     0.000 C 
HETATM   28  C   UNL     1       4.911  15.173  89.771  1.00  0.00     0.000 C 
BRANCH  27  29
HETATM   29  O   UNL     1       3.323  13.490  89.120  1.00  0.00     0.000 OA
HETATM   30  H   UNL     1       3.360  12.620  89.552  1.00  0.00     0.000 HD
ENDBRANCH  27  29
ENDBRANCH  26  27
BRANCH  26  31
HETATM   31  C   UNL     1       2.194  13.398  91.905  1.00  0.00     0.000 C 
HETATM   32  O   UNL     1       1.685  12.353  91.506  1.00  0.00     0.000 OA
BRANCH  31  33
HETATM   33  P   UNL     1       1.574  14.309  92.725  1.00  0.00     0.000 P 
HETATM   34  H   UNL     1       1.290  15.431  91.973  1.00  0.00     0.000 HD
BRANCH  33  35
HETATM   35  O   UNL     1       2.308  14.718  93.848  1.00  0.00     0.000 OA
HETATM   36  H   UNL     1       2.793  15.473  93.473  1.00  0.00     0.000 HD
ENDBRANCH  33  35
ENDBRANCH  31  33
ENDBRANCH  26  31
ENDBRANCH  24  26
ENDBRANCH  19  22
ENDBRANCH  15  16
ENDBRANCH  11  14
ENDBRANCH   7   8
ENDBRANCH   2   7
TORSDOF 11
ENDMDL
MODEL 3
REMARK VINA RESULT:      -6.1      1.273      1.767
REMARK  11 active torsions:
REMARK  status: ('A' for Active; 'I' for Inactive)
REMARK    1  A    between atoms: O_2  and  C_18 
REMARK    2  A    between atoms: O_5  and  P_8 
REMARK    3  A    between atoms: N_6  and  C_11 
REMARK    4  A    between atoms: N_7  and  C_15 
REMARK       I    between atoms: N_7  and  C_24 
REMARK    5  A    between atoms: P_8  and  C_23 
REMARK    6  A    between atoms: C_11  and  C_14 
REMARK    7  A    between atoms: C_15  and  C_18 
REMARK    8  A    between atoms: C_15  and  C_23 
REMARK    9  A    between atoms: C_21  and  C_26 
REMARK   10  A    between atoms: C_24  and  C_25 
REMARK   11  A    between atoms: C_29  and  C_32 
ROOT
HETATM    1  O   UNL     1      16.206   3.268  93.954  1.00  0.00     0.000 OA
HETATM    2  N   UNL     1      13.950   2.945  92.249  1.00  0.00     0.000 N 
HETATM    3  C   UNL     1      13.941   3.905  93.361  1.00  0.00     0.000 C 
HETATM    4  C   UNL     1      14.845   1.822  92.561  1.00  0.00     0.000 C 
HETATM    5  C   UNL     1      15.364   4.380  93.646  1.00  0.00     0.000 C 
HETATM    6  C   UNL     1      16.245   2.344  92.866  1.00  0.00     0.000 C 
ENDROOT
BRANCH   2   7
HETATM    7  C   UNL     1      12.598   2.468  91.965  1.00  0.00     0.000 C 
BRANCH   7   8
HETATM    8  C   UNL     1      11.640   3.586  91.729  1.00  0.00     0.000 A 
HETATM    9  C   UNL     1      11.498   4.124  90.450  1.00  0.00     0.000 A 
HETATM   10  C   UNL     1      10.603   5.171  90.229  1.00  0.00     0.000 A 
HETATM   11  C   UNL     1       9.850   5.678  91.287  1.00  0.00     0.000 A 
HETATM   12  C   UNL     1       9.991   5.142  92.565  1.00  0.00     0.000 A 
HETATM   13  C   UNL     1      10.885   4.095  92.787  1.00  0.00     0.000 A 
BRANCH  11  14
HETATM   14  C   UNL     1       8.931   6.751  91.060  1.00  0.00     0.000 C 
HETATM   15  C   UNL     1       8.159   7.653  90.869  1.00  0.00     0.000 C 
BRANCH  15  16
HETATM   16  C   UNL     1       7.241   8.725  90.641  1.00  0.00     0.000 A 
HETATM   17  C   UNL     1       7.406   9.559  89.535  1.00  0.00     0.000 A 
HETATM   18  C   UNL     1       6.508  10.604  89.312  1.00  0.00     0.000 A 
HETATM   19  C   UNL     1       5.468  10.790  90.197  1.00  0.00     0.000 A 
HETATM   20  C   UNL     1       5.284   9.979  91.298  1.00  0.00     0.000 A 
HETATM   21  C   UNL     1       6.181   8.934  91.522  1.00  0.00     0.000 A 
BRANCH  19  22
HETATM   22  C   UNL     1       4.513  11.904  89.960  1.00  0.00     0.000 C 
HETATM   23  O   UNL     1       3.976  12.009  88.860  1.00  0.00     0.000 OA
HETATM   24  N   UNL     1       4.281  12.746  91.038  1.00  0.00     0.000 N 
HETATM   25  HN  UNL     1       4.743  12.582  91.925  1.00  0.00     0.000 HD
BRANCH  24  26
HETATM   26  C   UNL     1       3.365  13.856  90.972  1.00  0.00     0.000 C 
BRANCH  26  27
HETATM   27  C   UNL     1       2.095  13.627  91.801  1.00  0.00     0.000 C 
HETATM   28  C   UNL     1       2.290  12.579  92.891  1.00  0.00     0.000 C 
BRANCH  27  29
HETATM   29  O   UNL     1       1.691  14.855  92.405  1.00  0.00     0.000 OA
HETATM   30  H   UNL     1       1.337  14.658  93.289  1.00  0.00     0.000 HD
ENDBRANCH  27  29
ENDBRANCH  26  27
BRANCH  26  31
HETATM   31  C   UNL     1       4.111  15.104  91.434  1.00  0.00     0.000 C 
HETATM   32  O   UNL     1       3.971  15.591  92.554  1.00  0.00     0.000 OA
BRANCH  31  33
HETATM   33  P   UNL     1       4.912  15.625  90.446  1.00  0.00     0.000 P 
HETATM   34  H   UNL     1       4.574  16.953  90.285  1.00  0.00     0.000 HD
BRANCH  33  35
HETATM   35  O   UNL     1       4.818  15.002  89.194  1.00  0.00     0.000 OA
HETATM   36  H   UNL     1       4.456  14.138  89.454  1.00  0.00     0.000 HD
ENDBRANCH  33  35
ENDBRANCH  31  33
ENDBRANCH  26  31
ENDBRANCH  24  26
ENDBRANCH  19  22
ENDBRANCH  15  16
ENDBRANCH  11  14
ENDBRANCH   7   8
ENDBRANCH   2   7
TORSDOF 11
ENDMDL
MODEL 4
REMARK VINA RESULT:      -5.8      1.788      2.376
REMARK  11 active torsions:
REMARK  status: ('A' for Active; 'I' for Inactive)
REMARK    1  A    between atoms: O_2  and  C_18 
REMARK    2  A    between atoms: O_5  and  P_8 
REMARK    3  A    between atoms: N_6  and  C_11 
REMARK    4  A    between atoms: N_7  and  C_15 
REMARK       I    between atoms: N_7  and  C_24 
REMARK    5  A    between atoms: P_8  and  C_23 
REMARK    6  A    between atoms: C_11  and  C_14 
REMARK    7  A    between atoms: C_15  and  C_18 
REMARK    8  A    between atoms: C_15  and  C_23 
REMARK    9  A    between atoms: C_21  and  C_26 
REMARK   10  A    between atoms: C_24  and  C_25 
REMARK   11  A    between atoms: C_29  and  C_32 
ROOT
HETATM    1  O   UNL     1      16.321   4.043  94.002  1.00  0.00     0.000 OA
HETATM    2  N   UNL     1      14.368   2.621  92.496  1.00  0.00     0.000 N 
HETATM    3  C   UNL     1      14.524   4.077  92.371  1.00  0.00     0.000 C 
HETATM    4  C   UNL     1      14.769   2.186  93.841  1.00  0.00     0.000 C 
HETATM    5  C   UNL     1      15.964   4.472  92.687  1.00  0.00     0.000 C 
HETATM    6  C   UNL     1      16.202   2.625  94.122  1.00  0.00     0.000 C 
ENDROOT
BRANCH   2   7
HETATM    7  C   UNL     1      12.992   2.221  92.208  1.00  0.00     0.000 C 
BRANCH   7   8
HETATM    8  C   UNL     1      12.038   3.363  92.300  1.00  0.00     0.000 A 
HETATM    9  C   UNL     1      11.337   3.778  91.167  1.00  0.00     0.000 A 
HETATM   10  C   UNL     1      10.446   4.847  91.251  1.00  0.00     0.000 A 
HETATM   11  C   UNL     1      10.254   5.500  92.469  1.00  0.00     0.000 A 
HETATM   12  C   UNL     1      10.952   5.086  93.601  1.00  0.00     0.000 A 
HETATM   13  C   UNL     1      11.845   4.017  93.517  1.00  0.00     0.000 A 
BRANCH  11  14
HETATM   14  C   UNL     1       9.338   6.595  92.555  1.00  0.00     0.000 C 
HETATM   15  C   UNL     1       8.567   7.515  92.628  1.00  0.00     0.000 C 
BRANCH  15  16
HETATM   16  C   UNL     1       7.651   8.610  92.715  1.00  0.00     0.000 A 
HETATM   17  C   UNL     1       7.707   9.479  93.805  1.00  0.00     0.000 A 
HETATM   18  C   UNL     1       6.815  10.548  93.889  1.00  0.00     0.000 A 
HETATM   19  C   UNL     1       5.890  10.725  92.882  1.00  0.00     0.000 A 
HETATM   20  C   UNL     1       5.814   9.879  91.795  1.00  0.00     0.000 A 
HETATM   21  C   UNL     1       6.705   8.810  91.710  1.00  0.00     0.000 A 
BRANCH  19  22
HETATM   22  C   UNL     1       4.939  11.863  92.972  1.00  0.00     0.000 C 
HETATM   23  O   UNL     1       4.846  12.484  94.028  1.00  0.00     0.000 OA
HETATM   24  N   UNL     1       4.229  12.156  91.816  1.00  0.00     0.000 N 
HETATM   25  HN  UNL     1       4.377  11.614  90.973  1.00  0.00     0.000 HD
BRANCH  24  26
HETATM   26  C   UNL     1       3.288  13.244  91.738  1.00  0.00     0.000 C 
BRANCH  26  27
HETATM   27  C   UNL     1       3.800  14.521  92.418  1.00  0.00     0.000 C 
HETATM   28  C   UNL     1       4.702  15.346  91.507  1.00  0.00     0.000 C 
BRANCH  27  29
HETATM   29  O   UNL     1       2.691  15.324  92.822  1.00  0.00     0.000 OA
HETATM   30  H   UNL     1       1.875  14.817  92.667  1.00  0.00     0.000 HD
ENDBRANCH  27  29
ENDBRANCH  26  27
BRANCH  26  31
HETATM   31  C   UNL     1       2.977  13.487  90.265  1.00  0.00     0.000 C 
HETATM   32  O   UNL     1       2.269  14.413  89.874  1.00  0.00     0.000 OA
BRANCH  31  33
HETATM   33  P   UNL     1       3.544  12.536  89.451  1.00  0.00     0.000 P 
HETATM   34  H   UNL     1       4.515  13.155  88.691  1.00  0.00     0.000 HD
BRANCH  33  35
HETATM   35  O   UNL     1       2.667  11.880  88.577  1.00  0.00     0.000 OA
HETATM   36  H   UNL     1       3.209  11.858  87.770  1.00  0.00     0.000 HD
ENDBRANCH  33  35
ENDBRANCH  31  33
ENDBRANCH  26  31
ENDBRANCH  24  26
ENDBRANCH  19  22
ENDBRANCH  15  16
ENDBRANCH  11  14
ENDBRANCH   7   8
ENDBRANCH   2   7
TORSDOF 11
ENDMDL
MODEL 5
REMARK VINA RESULT:      -5.6      3.658     12.249
REMARK  11 active torsions:
REMARK  status: ('A' for Active; 'I' for Inactive)
REMARK    1  A    between atoms: O_2  and  C_18 
REMARK    2  A    between atoms: O_5  and  P_8 
REMARK    3  A    between atoms: N_6  and  C_11 
REMARK    4  A    between atoms: N_7  and  C_15 
REMARK       I    between atoms: N_7  and  C_24 
REMARK    5  A    between atoms: P_8  and  C_23 
REMARK    6  A    between atoms: C_11  and  C_14 
REMARK    7  A    between atoms: C_15  and  C_18 
REMARK    8  A    between atoms: C_15  and  C_23 
REMARK    9  A    between atoms: C_21  and  C_26 
REMARK   10  A    between atoms: C_24  and  C_25 
REMARK   11  A    between atoms: C_29  and  C_32 
ROOT
HETATM    1  O   UNL     1       3.057  14.941  94.100  1.00  0.00     0.000 OA
HETATM    2  N   UNL     1       2.568  14.715  91.305  1.00  0.00     0.000 N 
HETATM    3  C   UNL     1       1.682  14.084  92.292  1.00  0.00     0.000 C 
HETATM    4  C   UNL     1       3.933  14.812  91.841  1.00  0.00     0.000 C 
HETATM    5  C   UNL     1       1.720  14.873  93.599  1.00  0.00     0.000 C 
HETATM    6  C   UNL     1       3.919  15.581  93.158  1.00  0.00     0.000 C 
ENDROOT
BRANCH   2   7
HETATM    7  C   UNL     1       2.556  13.970  90.047  1.00  0.00     0.000 C 
BRANCH   7   8
HETATM    8  C   UNL     1       3.570  12.877  90.024  1.00  0.00     0.000 A 
HETATM    9  C   UNL     1       3.322  11.683  90.702  1.00  0.00     0.000 A 
HETATM   10  C   UNL     1       4.271  10.661  90.683  1.00  0.00     0.000 A 
HETATM   11  C   UNL     1       5.466  10.833  89.985  1.00  0.00     0.000 A 
HETATM   12  C   UNL     1       5.714  12.025  89.307  1.00  0.00     0.000 A 
HETATM   13  C   UNL     1       4.766  13.048  89.327  1.00  0.00     0.000 A 
BRANCH  11  14
HETATM   14  C   UNL     1       6.438   9.784  89.963  1.00  0.00     0.000 C 
HETATM   15  C   UNL     1       7.255   8.902  89.945  1.00  0.00     0.000 C 
BRANCH  15  16
HETATM   16  C   UNL     1       8.227   7.853  89.923  1.00  0.00     0.000 A 
HETATM   17  C   UNL     1       8.678   7.297  91.120  1.00  0.00     0.000 A 
HETATM   18  C   UNL     1       9.625   6.272  91.098  1.00  0.00     0.000 A 
HETATM   19  C   UNL     1      10.097   5.827  89.881  1.00  0.00     0.000 A 
HETATM   20  C   UNL     1       9.667   6.361  88.685  1.00  0.00     0.000 A 
HETATM   21  C   UNL     1       8.721   7.386  88.705  1.00  0.00     0.000 A 
BRANCH  19  22
HETATM   22  C   UNL     1      11.107   4.737  89.859  1.00  0.00     0.000 C 
HETATM   23  O   UNL     1      11.257   4.080  88.832  1.00  0.00     0.000 OA
HETATM   24  N   UNL     1      11.837   4.560  91.026  1.00  0.00     0.000 N 
HETATM   25  HN  UNL     1      11.675   5.158  91.828  1.00  0.00     0.000 HD
BRANCH  24  26
HETATM   26  C   UNL     1      12.868   3.561  91.152  1.00  0.00     0.000 C 
BRANCH  26  27
HETATM   27  C   UNL     1      14.240   4.163  91.480  1.00  0.00     0.000 C 
HETATM   28  C   UNL     1      15.352   3.120  91.470  1.00  0.00     0.000 C 
BRANCH  27  29
HETATM   29  O   UNL     1      14.553   5.183  90.532  1.00  0.00     0.000 OA
HETATM   30  H   UNL     1      14.684   6.017  91.015  1.00  0.00     0.000 HD
ENDBRANCH  27  29
ENDBRANCH  26  27
BRANCH  26  31
HETATM   31  C   UNL     1      12.427   2.569  92.223  1.00  0.00     0.000 C 
HETATM   32  O   UNL     1      11.946   1.469  91.960  1.00  0.00     0.000 OA
BRANCH  31  33
HETATM   33  P   UNL     1      12.595   3.068  93.493  1.00  0.00     0.000 P 
HETATM   34  H   UNL     1      12.408   2.029  94.383  1.00  0.00     0.000 HD
BRANCH  33  35
HETATM   35  O   UNL     1      11.729   4.108  93.859  1.00  0.00     0.000 OA
HETATM   36  H   UNL     1      11.662   4.585  93.014  1.00  0.00     0.000 HD
ENDBRANCH  33  35
ENDBRANCH  31  33
ENDBRANCH  26  31
ENDBRANCH  24  26
ENDBRANCH  19  22
ENDBRANCH  15  16
ENDBRANCH  11  14
ENDBRANCH   7   8
ENDBRANCH   2   7
TORSDOF 11
ENDMDL
MODEL 6
REMARK VINA RESULT:      -4.7      3.526     12.412
REMARK  11 active torsions:
REMARK  status: ('A' for Active; 'I' for Inactive)
REMARK    1  A    between atoms: O_2  and  C_18 
REMARK    2  A    between atoms: O_5  and  P_8 
REMARK    3  A    between atoms: N_6  and  C_11 
REMARK    4  A    between atoms: N_7  and  C_15 
REMARK       I    between atoms: N_7  and  C_24 
REMARK    5  A    between atoms: P_8  and  C_23 
REMARK    6  A    between atoms: C_11  and  C_14 
REMARK    7  A    between atoms: C_15  and  C_18 
REMARK    8  A    between atoms: C_15  and  C_23 
REMARK    9  A    between atoms: C_21  and  C_26 
REMARK   10  A    between atoms: C_24  and  C_25 
REMARK   11  A    between atoms: C_29  and  C_32 
ROOT
HETATM    1  O   UNL     1       3.006  14.299  92.345  1.00  0.00     0.000 OA
HETATM    2  N   UNL     1       3.922  14.114  89.656  1.00  0.00     0.000 N 
HETATM    3  C   UNL     1       2.841  13.256  90.160  1.00  0.00     0.000 C 
HETATM    4  C   UNL     1       4.829  14.478  90.754  1.00  0.00     0.000 C 
HETATM    5  C   UNL     1       2.101  13.966  91.290  1.00  0.00     0.000 C 
HETATM    6  C   UNL     1       4.043  15.159  91.871  1.00  0.00     0.000 C 
ENDROOT
BRANCH   2   7
HETATM    7  C   UNL     1       4.652  13.449  88.579  1.00  0.00     0.000 C 
BRANCH   7   8
HETATM    8  C   UNL     1       5.508  12.334  89.076  1.00  0.00     0.000 A 
HETATM    9  C   UNL     1       4.926  11.252  89.739  1.00  0.00     0.000 A 
HETATM   10  C   UNL     1       5.726  10.210  90.207  1.00  0.00     0.000 A 
HETATM   11  C   UNL     1       7.106  10.248  90.009  1.00  0.00     0.000 A 
HETATM   12  C   UNL     1       7.687  11.327  89.347  1.00  0.00     0.000 A 
HETATM   13  C   UNL     1       6.888  12.371  88.880  1.00  0.00     0.000 A 
BRANCH  11  14
HETATM   14  C   UNL     1       7.926   9.177  90.487  1.00  0.00     0.000 C 
HETATM   15  C   UNL     1       8.615   8.278  90.889  1.00  0.00     0.000 C 
BRANCH  15  16
HETATM   16  C   UNL     1       9.434   7.208  91.367  1.00  0.00     0.000 A 
HETATM   17  C   UNL     1       9.812   7.167  92.710  1.00  0.00     0.000 A 
HETATM   18  C   UNL     1      10.609   6.122  93.177  1.00  0.00     0.000 A 
HETATM   19  C   UNL     1      11.010   5.143  92.293  1.00  0.00     0.000 A 
HETATM   20  C   UNL     1      10.651   5.161  90.961  1.00  0.00     0.000 A 
HETATM   21  C   UNL     1       9.854   6.206  90.493  1.00  0.00     0.000 A 
BRANCH  19  22
HETATM   22  C   UNL     1      11.860   4.031  92.790  1.00  0.00     0.000 C 
HETATM   23  O   UNL     1      11.346   2.939  93.020  1.00  0.00     0.000 OA
HETATM   24  N   UNL     1      13.210   4.317  92.937  1.00  0.00     0.000 N 
HETATM   25  HN  UNL     1      13.568   5.236  92.704  1.00  0.00     0.000 HD
BRANCH  24  26
HETATM   26  C   UNL     1      14.167   3.337  93.386  1.00  0.00     0.000 C 
BRANCH  26  27
HETATM   27  C   UNL     1      14.436   2.248  92.340  1.00  0.00     0.000 C 
HETATM   28  C   UNL     1      13.806   0.911  92.713  1.00  0.00     0.000 C 
BRANCH  27  29
HETATM   29  O   UNL     1      13.925   2.665  91.075  1.00  0.00     0.000 OA
HETATM   30  H   UNL     1      13.879   3.635  91.069  1.00  0.00     0.000 HD
ENDBRANCH  27  29
ENDBRANCH  26  27
BRANCH  26  31
HETATM   31  C   UNL     1      15.448   4.074  93.762  1.00  0.00     0.000 C 
HETATM   32  O   UNL     1      15.557   5.298  93.708  1.00  0.00     0.000 OA
BRANCH  31  33
HETATM   33  P   UNL     1      16.455   3.213  94.124  1.00  0.00     0.000 P 
HETATM   34  H   UNL     1      16.845   3.533  95.409  1.00  0.00     0.000 HD
BRANCH  33  35
HETATM   35  O   UNL     1      17.597   3.234  93.311  1.00  0.00     0.000 OA
HETATM   36  H   UNL     1      18.292   3.135  93.983  1.00  0.00     0.000 HD
ENDBRANCH  33  35
ENDBRANCH  31  33
ENDBRANCH  26  31
ENDBRANCH  24  26
ENDBRANCH  19  22
ENDBRANCH  15  16
ENDBRANCH  11  14
ENDBRANCH   7   8
ENDBRANCH   2   7
TORSDOF 11
ENDMDL
MODEL 7
REMARK VINA RESULT:      -4.4      3.695     12.432
REMARK  11 active torsions:
REMARK  status: ('A' for Active; 'I' for Inactive)
REMARK    1  A    between atoms: O_2  and  C_18 
REMARK    2  A    between atoms: O_5  and  P_8 
REMARK    3  A    between atoms: N_6  and  C_11 
REMARK    4  A    between atoms: N_7  and  C_15 
REMARK       I    between atoms: N_7  and  C_24 
REMARK    5  A    between atoms: P_8  and  C_23 
REMARK    6  A    between atoms: C_11  and  C_14 
REMARK    7  A    between atoms: C_15  and  C_18 
REMARK    8  A    between atoms: C_15  and  C_23 
REMARK    9  A    between atoms: C_21  and  C_26 
REMARK   10  A    between atoms: C_24  and  C_25 
REMARK   11  A    between atoms: C_29  and  C_32 
ROOT
HETATM    1  O   UNL     1       4.335  14.571  89.234  1.00  0.00     0.000 OA
HETATM    2  N   UNL     1       3.239  13.938  91.783  1.00  0.00     0.000 N 
HETATM    3  C   UNL     1       4.547  14.594  91.651  1.00  0.00     0.000 C 
HETATM    4  C   UNL     1       2.973  13.104  90.603  1.00  0.00     0.000 C 
HETATM    5  C   UNL     1       4.589  15.410  90.362  1.00  0.00     0.000 C 
HETATM    6  C   UNL     1       3.052  13.954  89.339  1.00  0.00     0.000 C 
ENDROOT
BRANCH   2   7
HETATM    7  C   UNL     1       3.181  13.141  93.007  1.00  0.00     0.000 C 
BRANCH   7   8
HETATM    8  C   UNL     1       4.171  12.026  93.007  1.00  0.00     0.000 A 
HETATM    9  C   UNL     1       4.230  11.148  91.924  1.00  0.00     0.000 A 
HETATM   10  C   UNL     1       5.154  10.103  91.923  1.00  0.00     0.000 A 
HETATM   11  C   UNL     1       6.019   9.939  93.004  1.00  0.00     0.000 A 
HETATM   12  C   UNL     1       5.961  10.815  94.086  1.00  0.00     0.000 A 
HETATM   13  C   UNL     1       5.037  11.860  94.087  1.00  0.00     0.000 A 
BRANCH  11  14
HETATM   14  C   UNL     1       6.969   8.868  93.002  1.00  0.00     0.000 C 
HETATM   15  C   UNL     1       7.767   7.969  93.001  1.00  0.00     0.000 C 
BRANCH  15  16
HETATM   16  C   UNL     1       8.716   6.900  93.000  1.00  0.00     0.000 A 
HETATM   17  C   UNL     1       8.575   5.844  92.098  1.00  0.00     0.000 A 
HETATM   18  C   UNL     1       9.503   4.803  92.096  1.00  0.00     0.000 A 
HETATM   19  C   UNL     1      10.550   4.840  92.993  1.00  0.00     0.000 A 
HETATM   20  C   UNL     1      10.711   5.872  93.894  1.00  0.00     0.000 A 
HETATM   21  C   UNL     1       9.784   6.914  93.897  1.00  0.00     0.000 A 
BRANCH  19  22
HETATM   22  C   UNL     1      11.536   3.729  92.991  1.00  0.00     0.000 C 
HETATM   23  O   UNL     1      11.134   2.569  93.048  1.00  0.00     0.000 OA
HETATM   24  N   UNL     1      12.870   4.101  92.897  1.00  0.00     0.000 N 
HETATM   25  HN  UNL     1      13.126   5.079  92.827  1.00  0.00     0.000 HD
BRANCH  24  26
HETATM   26  C   UNL     1      13.943   3.139  92.859  1.00  0.00     0.000 C 
BRANCH  26  27
HETATM   27  C   UNL     1      14.402   2.818  91.431  1.00  0.00     0.000 C 
HETATM   28  C   UNL     1      13.532   3.489  90.373  1.00  0.00     0.000 C 
BRANCH  27  29
HETATM   29  O   UNL     1      15.753   3.243  91.257  1.00  0.00     0.000 OA
HETATM   30  H   UNL     1      15.940   3.281  90.304  1.00  0.00     0.000 HD
ENDBRANCH  27  29
ENDBRANCH  26  27
BRANCH  26  31
HETATM   31  C   UNL     1      15.090   3.687  93.700  1.00  0.00     0.000 C 
HETATM   32  O   UNL     1      15.238   4.886  93.932  1.00  0.00     0.000 OA
BRANCH  31  33
HETATM   33  P   UNL     1      15.943   2.697  94.124  1.00  0.00     0.000 P 
HETATM   34  H   UNL     1      15.643   2.416  95.442  1.00  0.00     0.000 HD
BRANCH  33  35
HETATM   35  O   UNL     1      17.310   2.995  94.049  1.00  0.00     0.000 OA
HETATM   36  H   UNL     1      17.677   2.267  94.578  1.00  0.00     0.000 HD
ENDBRANCH  33  35
ENDBRANCH  31  33
ENDBRANCH  26  31
ENDBRANCH  24  26
ENDBRANCH  19  22
ENDBRANCH  15  16
ENDBRANCH  11  14
ENDBRANCH   7   8
ENDBRANCH   2   7
TORSDOF 11
ENDMDL
