MODEL 1
REMARK VINA RESULT:      -7.1      0.000      0.000
REMARK  10 active torsions:
REMARK  status: ('A' for Active; 'I' for Inactive)
REMARK    1  A    between atoms: O_2  and  C_16 
REMARK    2  A    between atoms: N_5  and  C_9 
REMARK    3  A    between atoms: N_6  and  C_13 
REMARK       I    between atoms: N_6  and  C_22 
REMARK    4  A    between atoms: C_9  and  C_12 
REMARK    5  A    between atoms: C_13  and  C_16 
REMARK    6  A    between atoms: C_13  and  C_21 
REMARK    7  A    between atoms: C_19  and  C_24 
REMARK    8  A    between atoms: C_22  and  C_23 
REMARK    9  A    between atoms: C_27  and  C_30 
REMARK   10  A    between atoms: N_33  and  S_34 
ROOT
HETATM    1  C   UNL     1       5.836  10.966  89.528  1.00  0.00     0.056 A 
HETATM    2  C   UNL     1       7.195  11.197  89.558  1.00  0.00     0.005 A 
HETATM    3  C   UNL     1       5.295   9.724  89.784  1.00  0.00     0.005 A 
HETATM    4  C   UNL     1       7.530   8.872  90.118  1.00  0.00     0.042 A 
HETATM    5  C   UNL     1       8.053  10.138  89.856  1.00  0.00     0.008 A 
HETATM    6  C   UNL     1       6.151   8.664  90.082  1.00  0.00     0.008 A 
ENDROOT
BRANCH   1   7
HETATM    7  C   UNL     1       4.923  12.096  89.213  1.00  0.00     0.254 C 
HETATM    8  O   UNL     1       4.795  12.456  88.046  1.00  0.00    -0.268 OA
HETATM    9  N   UNL     1       4.250  12.653  90.292  1.00  0.00    -0.337 N 
HETATM   10  HN  UNL     1       4.387  12.286  91.227  1.00  0.00     0.164 HD
BRANCH   9  11
HETATM   11  C   UNL     1       3.313  13.737  90.145  1.00  0.00     0.172 C 
BRANCH  11  12
HETATM   12  C   UNL     1       2.049  13.549  90.994  1.00  0.00     0.136 C 
HETATM   13  C   UNL     1       2.135  12.331  91.907  1.00  0.00     0.034 C 
BRANCH  12  14
HETATM   14  O   UNL     1       1.832  14.712  91.792  1.00  0.00    -0.383 OA
HETATM   15  H   UNL     1       0.932  14.669  92.155  1.00  0.00     0.210 HD
ENDBRANCH  12  14
ENDBRANCH  11  12
BRANCH  11  16
HETATM   16  C   UNL     1       4.036  15.030  90.507  1.00  0.00     0.398 A 
HETATM   17  O   UNL     1       5.150  15.319  90.073  1.00  0.00    -0.136 OA
HETATM   18  N   UNL     1       5.068  15.621  91.561  1.00  0.00     0.142 N 
HETATM   19  HN  UNL     1       5.985  15.934  91.401  1.00  0.00     0.338 HD
BRANCH  18  20
HETATM   20  S   UNL     1       4.376  15.307  92.725  1.00  0.00     0.076 SA
HETATM   21  H   UNL     1       3.825  14.255  92.747  1.00  0.00     0.136 HD
ENDBRANCH  18  20
ENDBRANCH  11  16
ENDBRANCH   9  11
ENDBRANCH   1   7
BRANCH   4  22
HETATM   22  C   UNL     1       8.409   7.785  90.420  1.00  0.00    -0.059 C 
HETATM   23  C   UNL     1       9.147   6.871  90.674  1.00  0.00    -0.059 C 
BRANCH  23  24
HETATM   24  C   UNL     1      10.026   5.783  90.976  1.00  0.00     0.042 A 
HETATM   25  C   UNL     1      10.698   5.125  89.946  1.00  0.00     0.008 A 
HETATM   26  C   UNL     1      11.553   4.063  90.240  1.00  0.00    -0.002 A 
HETATM   27  C   UNL     1      11.738   3.662  91.564  1.00  0.00     0.011 A 
HETATM   28  C   UNL     1      11.066   4.322  92.592  1.00  0.00    -0.002 A 
HETATM   29  C   UNL     1      10.210   5.383  92.298  1.00  0.00     0.008 A 
BRANCH  27  30
HETATM   30  C   UNL     1      12.655   2.528  91.877  1.00  0.00     0.277 C 
BRANCH  30  31
HETATM   31  N   UNL     1      13.668   2.889  92.867  1.00  0.00     0.147 N 
HETATM   32  C   UNL     1      14.592   1.769  93.096  1.00  0.00     0.283 C 
HETATM   33  C   UNL     1      15.647   2.172  94.124  1.00  0.00     0.178 C 
HETATM   34  O   UNL     1      16.362   3.325  93.676  1.00  0.00    -0.350 OA
HETATM   35  C   UNL     1      15.475   4.427  93.480  1.00  0.00     0.178 C 
HETATM   36  C   UNL     1      14.416   4.079  92.439  1.00  0.00     0.283 C 
ENDBRANCH  30  31
ENDBRANCH  27  30
ENDBRANCH  23  24
ENDBRANCH   4  22
TORSDOF 10
ENDMDL
MODEL 2
REMARK VINA RESULT:      -6.9      1.209      1.553
REMARK  10 active torsions:
REMARK  status: ('A' for Active; 'I' for Inactive)
REMARK    1  A    between atoms: O_2  and  C_16 
REMARK    2  A    between atoms: N_5  and  C_9 
REMARK    3  A    between atoms: N_6  and  C_13 
REMARK       I    between atoms: N_6  and  C_22 
REMARK    4  A    between atoms: C_9  and  C_12 
REMARK    5  A    between atoms: C_13  and  C_16 
REMARK    6  A    between atoms: C_13  and  C_21 
REMARK    7  A    between atoms: C_19  and  C_24 
REMARK    8  A    between atoms: C_22  and  C_23 
REMARK    9  A    between atoms: C_27  and  C_30 
REMARK   10  A    between atoms: N_33  and  S_34 
ROOT
HETATM    1  C   UNL     1       5.409   9.862  89.558  1.00  0.00     0.056 A 
HETATM    2  C   UNL     1       6.176  10.042  90.690  1.00  0.00     0.005 A 
HETATM    3  C   UNL     1       5.575   8.778  88.721  1.00  0.00     0.005 A 
HETATM    4  C   UNL     1       7.342   7.992  90.168  1.00  0.00     0.042 A 
HETATM    5  C   UNL     1       7.154   9.097  90.999  1.00  0.00     0.008 A 
HETATM    6  C   UNL     1       6.553   7.833  89.030  1.00  0.00     0.008 A 
ENDROOT
BRANCH   1   7
HETATM    7  C   UNL     1       4.366  10.868  89.231  1.00  0.00     0.254 C 
HETATM    8  O   UNL     1       3.643  10.687  88.254  1.00  0.00    -0.268 OA
HETATM    9  N   UNL     1       4.273  11.951  90.094  1.00  0.00    -0.337 N 
HETATM   10  HN  UNL     1       4.888  12.022  90.896  1.00  0.00     0.164 HD
BRANCH   9  11
HETATM   11  C   UNL     1       3.297  12.997  89.924  1.00  0.00     0.172 C 
BRANCH  11  12
HETATM   12  C   UNL     1       2.642  13.419  91.245  1.00  0.00     0.136 C 
HETATM   13  C   UNL     1       1.529  14.441  91.045  1.00  0.00     0.034 C 
BRANCH  12  14
HETATM   14  O   UNL     1       2.105  12.270  91.900  1.00  0.00    -0.383 OA
HETATM   15  H   UNL     1       1.141  12.377  91.962  1.00  0.00     0.210 HD
ENDBRANCH  12  14
ENDBRANCH  11  12
BRANCH  11  16
HETATM   16  C   UNL     1       3.989  14.175  89.247  1.00  0.00     0.398 A 
HETATM   17  O   UNL     1       4.893  14.039  88.424  1.00  0.00    -0.136 OA
HETATM   18  N   UNL     1       5.240  15.141  89.412  1.00  0.00     0.142 N 
HETATM   19  HN  UNL     1       6.037  15.201  88.843  1.00  0.00     0.338 HD
BRANCH  18  20
HETATM   20  S   UNL     1       4.960  15.625  90.684  1.00  0.00     0.076 SA
HETATM   21  H   UNL     1       5.345  16.721  90.932  1.00  0.00     0.136 HD
ENDBRANCH  18  20
ENDBRANCH  11  16
ENDBRANCH   9  11
ENDBRANCH   1   7
BRANCH   4  22
HETATM   22  C   UNL     1       8.346   7.025  90.483  1.00  0.00    -0.059 C 
HETATM   23  C   UNL     1       9.191   6.211  90.748  1.00  0.00    -0.059 C 
BRANCH  23  24
HETATM   24  C   UNL     1      10.197   5.244  91.063  1.00  0.00     0.042 A 
HETATM   25  C   UNL     1      10.263   4.701  92.345  1.00  0.00     0.008 A 
HETATM   26  C   UNL     1      11.245   3.759  92.653  1.00  0.00    -0.002 A 
HETATM   27  C   UNL     1      12.159   3.360  91.677  1.00  0.00     0.011 A 
HETATM   28  C   UNL     1      12.091   3.904  90.395  1.00  0.00    -0.002 A 
HETATM   29  C   UNL     1      11.110   4.846  90.088  1.00  0.00     0.008 A 
BRANCH  27  30
HETATM   30  C   UNL     1      13.207   2.351  92.007  1.00  0.00     0.277 C 
BRANCH  30  31
HETATM   31  N   UNL     1      14.145   2.834  93.018  1.00  0.00     0.147 N 
HETATM   32  C   UNL     1      15.340   1.980  93.069  1.00  0.00     0.283 C 
HETATM   33  C   UNL     1      16.309   2.509  94.123  1.00  0.00     0.178 C 
HETATM   34  O   UNL     1      16.673   3.860  93.831  1.00  0.00    -0.350 OA
HETATM   35  C   UNL     1      15.520   4.702  93.810  1.00  0.00     0.178 C 
HETATM   36  C   UNL     1      14.532   4.226  92.750  1.00  0.00     0.283 C 
ENDBRANCH  30  31
ENDBRANCH  27  30
ENDBRANCH  23  24
ENDBRANCH   4  22
TORSDOF 10
ENDMDL
MODEL 3
REMARK VINA RESULT:      -6.9      1.498      2.297
REMARK  10 active torsions:
REMARK  status: ('A' for Active; 'I' for Inactive)
REMARK    1  A    between atoms: O_2  and  C_16 
REMARK    2  A    between atoms: N_5  and  C_9 
REMARK    3  A    between atoms: N_6  and  C_13 
REMARK       I    between atoms: N_6  and  C_22 
REMARK    4  A    between atoms: C_9  and  C_12 
REMARK    5  A    between atoms: C_13  and  C_16 
REMARK    6  A    between atoms: C_13  and  C_21 
REMARK    7  A    between atoms: C_19  and  C_24 
REMARK    8  A    between atoms: C_22  and  C_23 
REMARK    9  A    between atoms: C_27  and  C_30 
REMARK   10  A    between atoms: N_33  and  S_34 
ROOT
HETATM    1  C   UNL     1       5.386  10.455  90.930  1.00  0.00     0.056 A 
HETATM    2  C   UNL     1       4.984   9.216  91.383  1.00  0.00     0.005 A 
HETATM    3  C   UNL     1       6.699  10.731  90.611  1.00  0.00     0.005 A 
HETATM    4  C   UNL     1       7.272   8.462  91.209  1.00  0.00     0.042 A 
HETATM    5  C   UNL     1       5.937   8.207  91.525  1.00  0.00     0.008 A 
HETATM    6  C   UNL     1       7.653   9.723  90.753  1.00  0.00     0.008 A 
ENDROOT
BRANCH   1   7
HETATM    7  C   UNL     1       4.370  11.528  90.777  1.00  0.00     0.254 C 
HETATM    8  O   UNL     1       3.362  11.309  90.110  1.00  0.00    -0.268 OA
HETATM    9  N   UNL     1       4.638  12.718  91.439  1.00  0.00    -0.337 N 
HETATM   10  HN  UNL     1       5.481  12.818  91.993  1.00  0.00     0.164 HD
BRANCH   9  11
HETATM   11  C   UNL     1       3.739  13.843  91.408  1.00  0.00     0.172 C 
BRANCH  11  12
HETATM   12  C   UNL     1       3.702  14.535  90.039  1.00  0.00     0.136 C 
HETATM   13  C   UNL     1       5.051  14.501  89.331  1.00  0.00     0.034 C 
BRANCH  12  14
HETATM   14  O   UNL     1       2.727  13.902  89.210  1.00  0.00    -0.383 OA
HETATM   15  H   UNL     1       2.108  13.418  89.783  1.00  0.00     0.210 HD
ENDBRANCH  12  14
ENDBRANCH  11  12
BRANCH  11  16
HETATM   16  C   UNL     1       2.356  13.345  91.815  1.00  0.00     0.398 A 
HETATM   17  O   UNL     1       1.328  13.994  91.627  1.00  0.00    -0.136 OA
HETATM   18  N   UNL     1       1.326  13.393  93.024  1.00  0.00     0.142 N 
HETATM   19  HN  UNL     1       0.448  13.830  93.054  1.00  0.00     0.338 HD
BRANCH  18  20
HETATM   20  S   UNL     1       2.153  12.882  94.018  1.00  0.00     0.076 SA
HETATM   21  H   UNL     1       2.198  11.699  94.115  1.00  0.00     0.136 HD
ENDBRANCH  18  20
ENDBRANCH  11  16
ENDBRANCH   9  11
ENDBRANCH   1   7
BRANCH   4  22
HETATM   22  C   UNL     1       8.249   7.429  91.357  1.00  0.00    -0.059 C 
HETATM   23  C   UNL     1       9.071   6.560  91.481  1.00  0.00    -0.059 C 
BRANCH  23  24
HETATM   24  C   UNL     1      10.050   5.527  91.628  1.00  0.00     0.042 A 
HETATM   25  C   UNL     1      10.480   5.152  92.901  1.00  0.00     0.008 A 
HETATM   26  C   UNL     1      11.436   4.146  93.044  1.00  0.00    -0.002 A 
HETATM   27  C   UNL     1      11.958   3.514  91.915  1.00  0.00     0.011 A 
HETATM   28  C   UNL     1      11.526   3.890  90.644  1.00  0.00    -0.002 A 
HETATM   29  C   UNL     1      10.571   4.897  90.500  1.00  0.00     0.008 A 
BRANCH  27  30
HETATM   30  C   UNL     1      12.978   2.438  92.070  1.00  0.00     0.277 C 
BRANCH  30  31
HETATM   31  N   UNL     1      14.020   2.792  93.032  1.00  0.00     0.147 N 
HETATM   32  C   UNL     1      15.028   1.726  93.123  1.00  0.00     0.283 C 
HETATM   33  C   UNL     1      16.111   2.123  94.124  1.00  0.00     0.178 C 
HETATM   34  O   UNL     1      16.721   3.355  93.734  1.00  0.00    -0.350 OA
HETATM   35  C   UNL     1      15.753   4.403  93.673  1.00  0.00     0.178 C 
HETATM   36  C   UNL     1      14.662   4.061  92.663  1.00  0.00     0.283 C 
ENDBRANCH  30  31
ENDBRANCH  27  30
ENDBRANCH  23  24
ENDBRANCH   4  22
TORSDOF 10
ENDMDL
MODEL 4
REMARK VINA RESULT:      -6.6      1.041      1.424
REMARK  10 active torsions:
REMARK  status: ('A' for Active; 'I' for Inactive)
REMARK    1  A    between atoms: O_2  and  C_16 
REMARK    2  A    between atoms: N_5  and  C_9 
REMARK    3  A    between atoms: N_6  and  C_13 
REMARK       I    between atoms: N_6  and  C_22 
REMARK    4  A    between atoms: C_9  and  C_12 
REMARK    5  A    between atoms: C_13  and  C_16 
REMARK    6  A    between atoms: C_13  and  C_21 
REMARK    7  A    between atoms: C_19  and  C_24 
REMARK    8  A    between atoms: C_22  and  C_23 
REMARK    9  A    between atoms: C_27  and  C_30 
REMARK   10  A    between atoms: N_33  and  S_34 
ROOT
HETATM    1  C   UNL     1       4.877   9.944  89.932  1.00  0.00     0.056 A 
HETATM    2  C   UNL     1       5.966   9.890  89.087  1.00  0.00     0.005 A 
HETATM    3  C   UNL     1       4.735   9.089  91.004  1.00  0.00     0.005 A 
HETATM    4  C   UNL     1       6.836   8.061  90.403  1.00  0.00     0.042 A 
HETATM    5  C   UNL     1       6.957   8.937  89.324  1.00  0.00     0.008 A 
HETATM    6  C   UNL     1       5.725   8.136  91.243  1.00  0.00     0.008 A 
ENDROOT
BRANCH   1   7
HETATM    7  C   UNL     1       3.823  10.960  89.680  1.00  0.00     0.254 C 
HETATM    8  O   UNL     1       2.959  10.732  88.837  1.00  0.00    -0.268 OA
HETATM    9  N   UNL     1       3.887  12.109  90.456  1.00  0.00    -0.337 N 
HETATM   10  HN  UNL     1       4.616  12.217  91.152  1.00  0.00     0.164 HD
BRANCH   9  11
HETATM   11  C   UNL     1       2.924  13.174  90.347  1.00  0.00     0.172 C 
BRANCH  11  12
HETATM   12  C   UNL     1       2.321  13.571  91.700  1.00  0.00     0.136 C 
HETATM   13  C   UNL     1       3.117  13.020  92.878  1.00  0.00     0.034 C 
BRANCH  12  14
HETATM   14  O   UNL     1       2.270  14.994  91.801  1.00  0.00    -0.383 OA
HETATM   15  H   UNL     1       3.175  15.338  91.722  1.00  0.00     0.210 HD
ENDBRANCH  12  14
ENDBRANCH  11  12
BRANCH  11  16
HETATM   16  C   UNL     1       3.613  14.359  89.678  1.00  0.00     0.398 A 
HETATM   17  O   UNL     1       4.396  14.235  88.737  1.00  0.00    -0.136 OA
HETATM   18  N   UNL     1       4.943  15.225  89.753  1.00  0.00     0.142 N 
HETATM   19  HN  UNL     1       5.666  15.283  89.092  1.00  0.00     0.338 HD
BRANCH  18  20
HETATM   20  S   UNL     1       4.857  15.617  91.084  1.00  0.00     0.076 SA
HETATM   21  H   UNL     1       4.299  16.643  91.301  1.00  0.00     0.136 HD
ENDBRANCH  18  20
ENDBRANCH  11  16
ENDBRANCH   9  11
ENDBRANCH   1   7
BRANCH   4  22
HETATM   22  C   UNL     1       7.850   7.082  90.645  1.00  0.00    -0.059 C 
HETATM   23  C   UNL     1       8.702   6.259  90.848  1.00  0.00    -0.059 C 
BRANCH  23  24
HETATM   24  C   UNL     1       9.717   5.279  91.089  1.00  0.00     0.042 A 
HETATM   25  C   UNL     1       9.876   4.742  92.367  1.00  0.00     0.008 A 
HETATM   26  C   UNL     1      10.866   3.789  92.602  1.00  0.00    -0.002 A 
HETATM   27  C   UNL     1      11.695   3.372  91.560  1.00  0.00     0.011 A 
HETATM   28  C   UNL     1      11.534   3.910  90.284  1.00  0.00    -0.002 A 
HETATM   29  C   UNL     1      10.544   4.864  90.048  1.00  0.00     0.008 A 
BRANCH  27  30
HETATM   30  C   UNL     1      12.752   2.351  91.813  1.00  0.00     0.277 C 
BRANCH  30  31
HETATM   31  N   UNL     1      13.703   2.776  92.839  1.00  0.00     0.147 N 
HETATM   32  C   UNL     1      14.730   1.747  93.055  1.00  0.00     0.283 C 
HETATM   33  C   UNL     1      15.717   2.218  94.120  1.00  0.00     0.178 C 
HETATM   34  O   UNL     1      16.322   3.451  93.727  1.00  0.00    -0.350 OA
HETATM   35  C   UNL     1      15.333   4.465  93.545  1.00  0.00     0.178 C 
HETATM   36  C   UNL     1      14.336   4.049  92.468  1.00  0.00     0.283 C 
ENDBRANCH  30  31
ENDBRANCH  27  30
ENDBRANCH  23  24
ENDBRANCH   4  22
TORSDOF 10
ENDMDL
MODEL 5
REMARK VINA RESULT:      -6.6      1.179      1.455
REMARK  10 active torsions:
REMARK  status: ('A' for Active; 'I' for Inactive)
REMARK    1  A    between atoms: O_2  and  C_16 
REMARK    2  A    between atoms: N_5  and  C_9 
REMARK    3  A    between atoms: N_6  and  C_13 
REMARK       I    between atoms: N_6  and  C_22 
REMARK    4  A    between atoms: C_9  and  C_12 
REMARK    5  A    between atoms: C_13  and  C_16 
REMARK    6  A    between atoms: C_13  and  C_21 
REMARK    7  A    between atoms: C_19  and  C_24 
REMARK    8  A    between atoms: C_22  and  C_23 
REMARK    9  A    between atoms: C_27  and  C_30 
REMARK   10  A    between atoms: N_33  and  S_34 
ROOT
HETATM    1  C   UNL     1       5.836  10.219  90.096  1.00  0.00     0.056 A 
HETATM    2  C   UNL     1       5.465   8.895  89.988  1.00  0.00     0.005 A 
HETATM    3  C   UNL     1       7.111  10.600  90.459  1.00  0.00     0.005 A 
HETATM    4  C   UNL     1       7.708   8.266  90.628  1.00  0.00     0.042 A 
HETATM    5  C   UNL     1       6.412   7.906  90.258  1.00  0.00     0.008 A 
HETATM    6  C   UNL     1       8.058   9.612  90.729  1.00  0.00     0.008 A 
ENDROOT
BRANCH   1   7
HETATM    7  C   UNL     1       4.828  11.273  89.807  1.00  0.00     0.254 C 
HETATM    8  O   UNL     1       4.467  11.455  88.647  1.00  0.00    -0.268 OA
HETATM    9  N   UNL     1       4.345  11.969  90.906  1.00  0.00    -0.337 N 
HETATM   10  HN  UNL     1       4.672  11.747  91.838  1.00  0.00     0.164 HD
BRANCH   9  11
HETATM   11  C   UNL     1       3.347  13.003  90.791  1.00  0.00     0.172 C 
BRANCH  11  12
HETATM   12  C   UNL     1       2.230  12.868  91.834  1.00  0.00     0.136 C 
HETATM   13  C   UNL     1       1.974  11.418  92.231  1.00  0.00     0.034 C 
BRANCH  12  14
HETATM   14  O   UNL     1       2.574  13.614  93.001  1.00  0.00    -0.383 OA
HETATM   15  H   UNL     1       2.968  13.004  93.647  1.00  0.00     0.210 HD
ENDBRANCH  12  14
ENDBRANCH  11  12
BRANCH  11  16
HETATM   16  C   UNL     1       4.055  14.349  90.908  1.00  0.00     0.398 A 
HETATM   17  O   UNL     1       3.462  15.398  91.152  1.00  0.00    -0.136 OA
HETATM   18  N   UNL     1       4.473  15.610  90.037  1.00  0.00     0.142 N 
HETATM   19  HN  UNL     1       4.138  16.530  90.104  1.00  0.00     0.338 HD
BRANCH  18  20
HETATM   20  S   UNL     1       5.206  14.949  89.058  1.00  0.00     0.076 SA
HETATM   21  H   UNL     1       4.791  13.893  88.706  1.00  0.00     0.136 HD
ENDBRANCH  18  20
ENDBRANCH  11  16
ENDBRANCH   9  11
ENDBRANCH   1   7
BRANCH   4  22
HETATM   22  C   UNL     1       8.677   7.252  90.907  1.00  0.00    -0.059 C 
HETATM   23  C   UNL     1       9.492   6.400  91.142  1.00  0.00    -0.059 C 
BRANCH  23  24
HETATM   24  C   UNL     1      10.461   5.385  91.422  1.00  0.00     0.042 A 
HETATM   25  C   UNL     1      11.176   4.799  90.378  1.00  0.00     0.008 A 
HETATM   26  C   UNL     1      12.120   3.809  90.650  1.00  0.00    -0.002 A 
HETATM   27  C   UNL     1      12.349   3.406  91.966  1.00  0.00     0.011 A 
HETATM   28  C   UNL     1      11.632   3.994  93.009  1.00  0.00    -0.002 A 
HETATM   29  C   UNL     1      10.689   4.984  92.736  1.00  0.00     0.008 A 
BRANCH  27  30
HETATM   30  C   UNL     1      13.359   2.349  92.256  1.00  0.00     0.277 C 
BRANCH  30  31
HETATM   31  N   UNL     1      14.401   2.810  93.171  1.00  0.00     0.147 N 
HETATM   32  C   UNL     1      15.547   1.890  93.161  1.00  0.00     0.283 C 
HETATM   33  C   UNL     1      16.626   2.398  94.115  1.00  0.00     0.178 C 
HETATM   34  O   UNL     1      17.039   3.714  93.743  1.00  0.00    -0.350 OA
HETATM   35  C   UNL     1      15.936   4.621  93.781  1.00  0.00     0.178 C 
HETATM   36  C   UNL     1      14.841   4.167  92.821  1.00  0.00     0.283 C 
ENDBRANCH  30  31
ENDBRANCH  27  30
ENDBRANCH  23  24
ENDBRANCH   4  22
TORSDOF 10
ENDMDL
MODEL 6
REMARK VINA RESULT:      -6.0      2.131      2.511
REMARK  10 active torsions:
REMARK  status: ('A' for Active; 'I' for Inactive)
REMARK    1  A    between atoms: O_2  and  C_16 
REMARK    2  A    between atoms: N_5  and  C_9 
REMARK    3  A    between atoms: N_6  and  C_13 
REMARK       I    between atoms: N_6  and  C_22 
REMARK    4  A    between atoms: C_9  and  C_12 
REMARK    5  A    between atoms: C_13  and  C_16 
REMARK    6  A    between atoms: C_13  and  C_21 
REMARK    7  A    between atoms: C_19  and  C_24 
REMARK    8  A    between atoms: C_22  and  C_23 
REMARK    9  A    between atoms: C_27  and  C_30 
REMARK   10  A    between atoms: N_33  and  S_34 
ROOT
HETATM    1  C   UNL     1       5.181  10.569  92.796  1.00  0.00     0.056 A 
HETATM    2  C   UNL     1       5.664  10.150  91.575  1.00  0.00     0.005 A 
HETATM    3  C   UNL     1       5.650  10.059  93.988  1.00  0.00     0.005 A 
HETATM    4  C   UNL     1       7.153   8.643  92.735  1.00  0.00     0.042 A 
HETATM    5  C   UNL     1       6.662   9.175  91.543  1.00  0.00     0.008 A 
HETATM    6  C   UNL     1       6.647   9.085  93.958  1.00  0.00     0.008 A 
ENDROOT
BRANCH   1   7
HETATM    7  C   UNL     1       4.119  11.609  92.829  1.00  0.00     0.254 C 
HETATM    8  O   UNL     1       3.358  11.658  93.792  1.00  0.00    -0.268 OA
HETATM    9  N   UNL     1       4.089  12.481  91.750  1.00  0.00    -0.337 N 
HETATM   10  HN  UNL     1       4.767  12.396  91.002  1.00  0.00     0.164 HD
BRANCH   9  11
HETATM   11  C   UNL     1       3.136  13.557  91.648  1.00  0.00     0.172 C 
BRANCH  11  12
HETATM   12  C   UNL     1       3.446  14.717  92.602  1.00  0.00     0.136 C 
HETATM   13  C   UNL     1       2.362  14.912  93.657  1.00  0.00     0.034 C 
BRANCH  12  14
HETATM   14  O   UNL     1       4.691  14.477  93.257  1.00  0.00    -0.383 OA
HETATM   15  H   UNL     1       4.762  15.086  94.011  1.00  0.00     0.210 HD
ENDBRANCH  12  14
ENDBRANCH  11  12
BRANCH  11  16
HETATM   16  C   UNL     1       3.112  14.024  90.197  1.00  0.00     0.398 A 
HETATM   17  O   UNL     1       3.054  13.248  89.245  1.00  0.00    -0.136 OA
HETATM   18  N   UNL     1       4.082  14.335  88.978  1.00  0.00     0.142 N 
HETATM   19  HN  UNL     1       4.159  13.852  88.127  1.00  0.00     0.338 HD
BRANCH  18  20
HETATM   20  S   UNL     1       4.899  15.272  89.600  1.00  0.00     0.076 SA
HETATM   21  H   UNL     1       5.950  15.485  89.086  1.00  0.00     0.136 HD
ENDBRANCH  18  20
ENDBRANCH  11  16
ENDBRANCH   9  11
ENDBRANCH   1   7
BRANCH   4  22
HETATM   22  C   UNL     1       8.173   7.642  92.703  1.00  0.00    -0.059 C 
HETATM   23  C   UNL     1       9.032   6.801  92.676  1.00  0.00    -0.059 C 
BRANCH  23  24
HETATM   24  C   UNL     1      10.053   5.799  92.645  1.00  0.00     0.042 A 
HETATM   25  C   UNL     1      10.428   5.225  91.431  1.00  0.00     0.008 A 
HETATM   26  C   UNL     1      11.422   4.247  91.400  1.00  0.00    -0.002 A 
HETATM   27  C   UNL     1      12.042   3.845  92.584  1.00  0.00     0.011 A 
HETATM   28  C   UNL     1      11.665   4.421  93.798  1.00  0.00    -0.002 A 
HETATM   29  C   UNL     1      10.671   5.398  93.828  1.00  0.00     0.008 A 
BRANCH  27  30
HETATM   30  C   UNL     1      13.106   2.801  92.550  1.00  0.00     0.277 C 
BRANCH  30  31
HETATM   31  N   UNL     1      14.268   3.164  93.359  1.00  0.00     0.147 N 
HETATM   32  C   UNL     1      15.304   2.126  93.276  1.00  0.00     0.283 C 
HETATM   33  C   UNL     1      16.511   2.531  94.119  1.00  0.00     0.178 C 
HETATM   34  O   UNL     1      17.027   3.788  93.676  1.00  0.00    -0.350 OA
HETATM   35  C   UNL     1      16.035   4.809  93.783  1.00  0.00     0.178 C 
HETATM   36  C   UNL     1      14.817   4.459  92.934  1.00  0.00     0.283 C 
ENDBRANCH  30  31
ENDBRANCH  27  30
ENDBRANCH  23  24
ENDBRANCH   4  22
TORSDOF 10
ENDMDL
MODEL 7
REMARK VINA RESULT:      -5.7      3.648     12.377
REMARK  10 active torsions:
REMARK  status: ('A' for Active; 'I' for Inactive)
REMARK    1  A    between atoms: O_2  and  C_16 
REMARK    2  A    between atoms: N_5  and  C_9 
REMARK    3  A    between atoms: N_6  and  C_13 
REMARK       I    between atoms: N_6  and  C_22 
REMARK    4  A    between atoms: C_9  and  C_12 
REMARK    5  A    between atoms: C_13  and  C_16 
REMARK    6  A    between atoms: C_13  and  C_21 
REMARK    7  A    between atoms: C_19  and  C_24 
REMARK    8  A    between atoms: C_22  and  C_23 
REMARK    9  A    between atoms: C_27  and  C_30 
REMARK   10  A    between atoms: N_33  and  S_34 
ROOT
HETATM    1  C   UNL     1      10.169   5.725  89.947  1.00  0.00     0.056 A 
HETATM    2  C   UNL     1       9.997   6.476  88.804  1.00  0.00     0.005 A 
HETATM    3  C   UNL     1       9.449   5.962  91.099  1.00  0.00     0.005 A 
HETATM    4  C   UNL     1       8.323   7.773  89.965  1.00  0.00     0.042 A 
HETATM    5  C   UNL     1       9.064   7.513  88.812  1.00  0.00     0.008 A 
HETATM    6  C   UNL     1       8.515   6.999  91.109  1.00  0.00     0.008 A 
ENDROOT
BRANCH   1   7
HETATM    7  C   UNL     1      11.161   4.619  89.937  1.00  0.00     0.254 C 
HETATM    8  O   UNL     1      11.333   3.976  88.904  1.00  0.00    -0.268 OA
HETATM    9  N   UNL     1      11.852   4.411  91.123  1.00  0.00    -0.337 N 
HETATM   10  HN  UNL     1      11.675   4.999  91.930  1.00  0.00     0.164 HD
BRANCH   9  11
HETATM   11  C   UNL     1      12.863   3.394  91.264  1.00  0.00     0.172 C 
BRANCH  11  12
HETATM   12  C   UNL     1      14.287   3.950  91.133  1.00  0.00     0.136 C 
HETATM   13  C   UNL     1      15.214   3.007  90.376  1.00  0.00     0.034 C 
BRANCH  12  14
HETATM   14  O   UNL     1      14.248   5.206  90.455  1.00  0.00    -0.383 OA
HETATM   15  H   UNL     1      14.236   5.035  89.498  1.00  0.00     0.210 HD
ENDBRANCH  12  14
ENDBRANCH  11  12
BRANCH  11  16
HETATM   16  C   UNL     1      12.655   2.715  92.614  1.00  0.00     0.398 A 
HETATM   17  O   UNL     1      11.837   3.108  93.443  1.00  0.00    -0.136 OA
HETATM   18  N   UNL     1      13.155   2.770  94.121  1.00  0.00     0.142 N 
HETATM   19  HN  UNL     1      12.644   3.026  94.918  1.00  0.00     0.338 HD
BRANCH  18  20
HETATM   20  S   UNL     1      14.517   2.612  93.891  1.00  0.00     0.076 SA
HETATM   21  H   UNL     1      15.224   2.649  94.846  1.00  0.00     0.136 HD
ENDBRANCH  18  20
ENDBRANCH  11  16
ENDBRANCH   9  11
ENDBRANCH   1   7
BRANCH   4  22
HETATM   22  C   UNL     1       7.368   8.838  89.974  1.00  0.00    -0.059 C 
HETATM   23  C   UNL     1       6.566   9.733  89.982  1.00  0.00    -0.059 C 
BRANCH  23  24
HETATM   24  C   UNL     1       5.611  10.799  89.991  1.00  0.00     0.042 A 
HETATM   25  C   UNL     1       4.394  10.637  90.652  1.00  0.00     0.008 A 
HETATM   26  C   UNL     1       3.462  11.674  90.659  1.00  0.00    -0.002 A 
HETATM   27  C   UNL     1       3.748  12.874  90.006  1.00  0.00     0.011 A 
HETATM   28  C   UNL     1       4.966  13.033  89.345  1.00  0.00    -0.002 A 
HETATM   29  C   UNL     1       5.898  11.995  89.337  1.00  0.00     0.008 A 
BRANCH  27  30
HETATM   30  C   UNL     1       2.752  13.983  90.015  1.00  0.00     0.277 C 
BRANCH  30  31
HETATM   31  N   UNL     1       2.729  14.699  91.289  1.00  0.00     0.147 N 
HETATM   32  C   UNL     1       1.804  14.055  92.232  1.00  0.00     0.283 C 
HETATM   33  C   UNL     1       1.805  14.814  93.557  1.00  0.00     0.178 C 
HETATM   34  O   UNL     1       3.125  14.858  94.103  1.00  0.00    -0.350 OA
HETATM   35  C   UNL     1       4.024  15.510  93.206  1.00  0.00     0.178 C 
HETATM   36  C   UNL     1       4.075  14.770  91.874  1.00  0.00     0.283 C 
ENDBRANCH  30  31
ENDBRANCH  27  30
ENDBRANCH  23  24
ENDBRANCH   4  22
TORSDOF 10
ENDMDL
MODEL 8
REMARK VINA RESULT:      -5.6      3.597     12.535
REMARK  10 active torsions:
REMARK  status: ('A' for Active; 'I' for Inactive)
REMARK    1  A    between atoms: O_2  and  C_16 
REMARK    2  A    between atoms: N_5  and  C_9 
REMARK    3  A    between atoms: N_6  and  C_13 
REMARK       I    between atoms: N_6  and  C_22 
REMARK    4  A    between atoms: C_9  and  C_12 
REMARK    5  A    between atoms: C_13  and  C_16 
REMARK    6  A    between atoms: C_13  and  C_21 
REMARK    7  A    between atoms: C_19  and  C_24 
REMARK    8  A    between atoms: C_22  and  C_23 
REMARK    9  A    between atoms: C_27  and  C_30 
REMARK   10  A    between atoms: N_33  and  S_34 
ROOT
HETATM    1  C   UNL     1      10.419   5.054  92.035  1.00  0.00     0.056 A 
HETATM    2  C   UNL     1       9.924   5.147  90.751  1.00  0.00     0.005 A 
HETATM    3  C   UNL     1      10.065   5.944  93.027  1.00  0.00     0.005 A 
HETATM    4  C   UNL     1       8.659   7.089  91.430  1.00  0.00     0.042 A 
HETATM    5  C   UNL     1       9.033   6.176  90.445  1.00  0.00     0.008 A 
HETATM    6  C   UNL     1       9.174   6.974  92.721  1.00  0.00     0.008 A 
ENDROOT
BRANCH   1   7
HETATM    7  C   UNL     1      11.366   3.957  92.362  1.00  0.00     0.254 C 
HETATM    8  O   UNL     1      10.979   2.792  92.298  1.00  0.00    -0.268 OA
HETATM    9  N   UNL     1      12.655   4.346  92.698  1.00  0.00    -0.337 N 
HETATM   10  HN  UNL     1      12.910   5.327  92.705  1.00  0.00     0.164 HD
BRANCH   9  11
HETATM   11  C   UNL     1      13.693   3.398  93.016  1.00  0.00     0.172 C 
BRANCH  11  12
HETATM   12  C   UNL     1      14.195   2.632  91.786  1.00  0.00     0.136 C 
HETATM   13  C   UNL     1      14.173   3.481  90.520  1.00  0.00     0.034 C 
BRANCH  12  14
HETATM   14  O   UNL     1      15.529   2.179  92.017  1.00  0.00    -0.383 OA
HETATM   15  H   UNL     1      15.745   2.332  92.952  1.00  0.00     0.210 HD
ENDBRANCH  12  14
ENDBRANCH  11  12
BRANCH  11  16
HETATM   16  C   UNL     1      14.827   4.160  93.696  1.00  0.00     0.398 A 
HETATM   17  O   UNL     1      15.351   5.158  93.206  1.00  0.00    -0.136 OA
HETATM   18  N   UNL     1      16.412   4.224  93.764  1.00  0.00     0.142 N 
HETATM   19  HN  UNL     1      17.003   4.944  93.456  1.00  0.00     0.338 HD
BRANCH  18  20
HETATM   20  S   UNL     1      16.656   2.903  94.124  1.00  0.00     0.076 SA
HETATM   21  H   UNL     1      16.221   2.066  93.401  1.00  0.00     0.136 HD
ENDBRANCH  18  20
ENDBRANCH  11  16
ENDBRANCH   9  11
ENDBRANCH   1   7
BRANCH   4  22
HETATM   22  C   UNL     1       7.749   8.146  91.116  1.00  0.00    -0.059 C 
HETATM   23  C   UNL     1       6.983   9.034  90.850  1.00  0.00    -0.059 C 
BRANCH  23  24
HETATM   24  C   UNL     1       6.071  10.091  90.536  1.00  0.00     0.042 A 
HETATM   25  C   UNL     1       6.462  11.113  89.672  1.00  0.00     0.008 A 
HETATM   26  C   UNL     1       5.575  12.145  89.367  1.00  0.00    -0.002 A 
HETATM   27  C   UNL     1       4.295  12.152  89.924  1.00  0.00     0.011 A 
HETATM   28  C   UNL     1       3.905  11.127  90.787  1.00  0.00    -0.002 A 
HETATM   29  C   UNL     1       4.794  10.097  91.093  1.00  0.00     0.008 A 
BRANCH  27  30
HETATM   30  C   UNL     1       3.346  13.253  89.595  1.00  0.00     0.277 C 
BRANCH  30  31
HETATM   31  N   UNL     1       3.154  14.175  90.713  1.00  0.00     0.147 N 
HETATM   32  C   UNL     1       2.328  13.558  91.760  1.00  0.00     0.283 C 
HETATM   33  C   UNL     1       2.150  14.534  92.920  1.00  0.00     0.178 C 
HETATM   34  O   UNL     1       3.422  14.915  93.448  1.00  0.00    -0.350 OA
HETATM   35  C   UNL     1       4.220  15.544  92.445  1.00  0.00     0.178 C 
HETATM   36  C   UNL     1       4.446  14.594  91.273  1.00  0.00     0.283 C 
ENDBRANCH  30  31
ENDBRANCH  27  30
ENDBRANCH  23  24
ENDBRANCH   4  22
TORSDOF 10
ENDMDL
MODEL 9
REMARK VINA RESULT:      -5.6      2.823      3.812
REMARK  10 active torsions:
REMARK  status: ('A' for Active; 'I' for Inactive)
REMARK    1  A    between atoms: O_2  and  C_16 
REMARK    2  A    between atoms: N_5  and  C_9 
REMARK    3  A    between atoms: N_6  and  C_13 
REMARK       I    between atoms: N_6  and  C_22 
REMARK    4  A    between atoms: C_9  and  C_12 
REMARK    5  A    between atoms: C_13  and  C_16 
REMARK    6  A    between atoms: C_13  and  C_21 
REMARK    7  A    between atoms: C_19  and  C_24 
REMARK    8  A    between atoms: C_22  and  C_23 
REMARK    9  A    between atoms: C_27  and  C_30 
REMARK   10  A    between atoms: N_33  and  S_34 
ROOT
HETATM    1  C   UNL     1       6.078   7.287  88.297  1.00  0.00     0.056 A 
HETATM    2  C   UNL     1       7.391   7.613  88.027  1.00  0.00     0.005 A 
HETATM    3  C   UNL     1       5.734   6.326  89.224  1.00  0.00     0.005 A 
HETATM    4  C   UNL     1       8.084   5.969  89.656  1.00  0.00     0.042 A 
HETATM    5  C   UNL     1       8.406   6.946  88.713  1.00  0.00     0.008 A 
HETATM    6  C   UNL     1       6.748   5.659  89.912  1.00  0.00     0.008 A 
ENDROOT
BRANCH   1   7
HETATM    7  C   UNL     1       4.997   7.999  87.567  1.00  0.00     0.254 C 
HETATM    8  O   UNL     1       4.989   7.978  86.339  1.00  0.00    -0.268 OA
HETATM    9  N   UNL     1       4.043   8.627  88.355  1.00  0.00    -0.337 N 
HETATM   10  HN  UNL     1       4.100   8.580  89.365  1.00  0.00     0.164 HD
BRANCH   9  11
HETATM   11  C   UNL     1       2.921   9.337  87.795  1.00  0.00     0.172 C 
BRANCH  11  12
HETATM   12  C   UNL     1       1.577   8.671  88.117  1.00  0.00     0.136 C 
HETATM   13  C   UNL     1       1.247   7.530  87.162  1.00  0.00     0.034 C 
BRANCH  12  14
HETATM   14  O   UNL     1       1.602   8.166  89.452  1.00  0.00    -0.383 OA
HETATM   15  H   UNL     1       1.204   7.279  89.450  1.00  0.00     0.210 HD
ENDBRANCH  12  14
ENDBRANCH  11  12
BRANCH  11  16
HETATM   16  C   UNL     1       2.969  10.769  88.317  1.00  0.00     0.398 A 
HETATM   17  O   UNL     1       3.674  11.642  87.813  1.00  0.00    -0.136 OA
HETATM   18  N   UNL     1       3.770  11.695  89.329  1.00  0.00     0.142 N 
HETATM   19  HN  UNL     1       4.355  12.455  89.122  1.00  0.00     0.338 HD
BRANCH  18  20
HETATM   20  S   UNL     1       3.587  10.942  90.484  1.00  0.00     0.076 SA
HETATM   21  H   UNL     1       2.658  10.201  90.493  1.00  0.00     0.136 HD
ENDBRANCH  18  20
ENDBRANCH  11  16
ENDBRANCH   9  11
ENDBRANCH   1   7
BRANCH   4  22
HETATM   22  C   UNL     1       9.124   5.284  90.358  1.00  0.00    -0.059 C 
HETATM   23  C   UNL     1       9.998   4.707  90.948  1.00  0.00    -0.059 C 
BRANCH  23  24
HETATM   24  C   UNL     1      11.040   4.021  91.649  1.00  0.00     0.042 A 
HETATM   25  C   UNL     1      11.516   4.528  92.858  1.00  0.00     0.008 A 
HETATM   26  C   UNL     1      12.533   3.861  93.541  1.00  0.00    -0.002 A 
HETATM   27  C   UNL     1      13.071   2.686  93.016  1.00  0.00     0.011 A 
HETATM   28  C   UNL     1      12.593   2.180  91.807  1.00  0.00    -0.002 A 
HETATM   29  C   UNL     1      11.577   2.848  91.124  1.00  0.00     0.008 A 
BRANCH  27  30
HETATM   30  C   UNL     1      14.156   1.972  93.748  1.00  0.00     0.277 C 
BRANCH  30  31
HETATM   31  N   UNL     1      15.266   2.856  94.098  1.00  0.00     0.147 N 
HETATM   32  C   UNL     1      16.498   2.440  93.412  1.00  0.00     0.283 C 
HETATM   33  C   UNL     1      17.640   3.383  93.784  1.00  0.00     0.178 C 
HETATM   34  O   UNL     1      17.306   4.728  93.438  1.00  0.00    -0.350 OA
HETATM   35  C   UNL     1      16.127   5.150  94.124  1.00  0.00     0.178 C 
HETATM   36  C   UNL     1      14.950   4.251  93.762  1.00  0.00     0.283 C 
ENDBRANCH  30  31
ENDBRANCH  27  30
ENDBRANCH  23  24
ENDBRANCH   4  22
TORSDOF 10
ENDMDL
