MODEL 1
REMARK VINA RESULT:      -4.5      0.000      0.000
REMARK  14 active torsions:
REMARK  status: ('A' for Active; 'I' for Inactive)
REMARK    1  A    between atoms: O_2  and  C_18 
REMARK    2  A    between atoms: C_5  and  C_8 
REMARK    3  A    between atoms: C_5  and  O_35 
REMARK    4  A    between atoms: C_5  and  C_36 
REMARK    5  A    between atoms: N_6  and  C_11 
REMARK    6  A    between atoms: N_7  and  C_15 
REMARK       I    between atoms: N_7  and  C_24 
REMARK    7  A    between atoms: C_8  and  C_23 
REMARK    8  A    between atoms: C_11  and  C_14 
REMARK    9  A    between atoms: C_15  and  C_18 
REMARK   10  A    between atoms: C_15  and  C_23 
REMARK   11  A    between atoms: C_21  and  C_26 
REMARK   12  A    between atoms: C_24  and  C_25 
REMARK   13  A    between atoms: C_29  and  C_32 
REMARK   14  A    between atoms: C_36  and  O_39 
ROOT
HETATM    1  O   UNL     1       3.281  14.778  93.887  1.00  0.00    -0.350 OA
HETATM    2  N   UNL     1       2.963  14.679  91.060  1.00  0.00     0.147 N 
HETATM    3  C   UNL     1       2.024  13.998  91.963  1.00  0.00     0.283 C 
HETATM    4  C   UNL     1       4.292  14.757  91.682  1.00  0.00     0.283 C 
HETATM    5  C   UNL     1       1.978  14.726  93.304  1.00  0.00     0.178 C 
HETATM    6  C   UNL     1       4.193  15.465  93.029  1.00  0.00     0.178 C 
ENDROOT
BRANCH   2   7
HETATM    7  C   UNL     1       3.031  13.992  89.771  1.00  0.00     0.277 C 
BRANCH   7   8
HETATM    8  C   UNL     1       3.971  12.835  89.793  1.00  0.00     0.011 A 
HETATM    9  C   UNL     1       3.688  11.723  90.587  1.00  0.00    -0.002 A 
HETATM   10  C   UNL     1       4.567  10.641  90.610  1.00  0.00     0.008 A 
HETATM   11  C   UNL     1       5.728  10.671  89.838  1.00  0.00     0.042 A 
HETATM   12  C   UNL     1       6.012  11.781  89.045  1.00  0.00     0.008 A 
HETATM   13  C   UNL     1       5.133  12.863  89.022  1.00  0.00    -0.002 A 
BRANCH  11  14
HETATM   14  C   UNL     1       6.630   9.559  89.860  1.00  0.00    -0.059 C 
HETATM   15  C   UNL     1       7.387   8.626  89.880  1.00  0.00    -0.059 C 
BRANCH  15  16
HETATM   16  C   UNL     1       8.287   7.516  89.903  1.00  0.00     0.042 A 
HETATM   17  C   UNL     1       8.287   6.597  88.852  1.00  0.00     0.008 A 
HETATM   18  C   UNL     1       9.168   5.515  88.874  1.00  0.00     0.005 A 
HETATM   19  C   UNL     1      10.028   5.377  89.943  1.00  0.00     0.056 A 
HETATM   20  C   UNL     1      10.047   6.271  90.993  1.00  0.00     0.005 A 
HETATM   21  C   UNL     1       9.167   7.353  90.973  1.00  0.00     0.008 A 
BRANCH  19  22
HETATM   22  C   UNL     1      10.964   4.223  89.966  1.00  0.00     0.254 C 
HETATM   23  O   UNL     1      10.838   3.332  89.130  1.00  0.00    -0.268 OA
HETATM   24  N   UNL     1      11.948   4.258  90.944  1.00  0.00    -0.335 N 
HETATM   25  HN  UNL     1      12.006   5.040  91.586  1.00  0.00     0.164 HD
BRANCH  24  26
HETATM   26  C   UNL     1      12.944   3.226  91.080  1.00  0.00     0.169 C 
BRANCH  26  27
HETATM   27  C   UNL     1      14.361   3.724  90.770  1.00  0.00     0.138 C 
HETATM   28  C   UNL     1      14.973   3.028  89.559  1.00  0.00     0.034 C 
BRANCH  27  29
HETATM   29  O   UNL     1      14.331   5.131  90.529  1.00  0.00    -0.383 OA
HETATM   30  H   UNL     1      13.506   5.486  90.901  1.00  0.00     0.210 HD
ENDBRANCH  27  29
ENDBRANCH  26  27
BRANCH  26  31
HETATM   31  C   UNL     1      12.849   2.671  92.497  1.00  0.00     0.194 C 
HETATM   32  O   UNL     1      12.136   1.715  92.796  1.00  0.00    -0.289 OA
BRANCH  31  33
HETATM   33  C   UNL     1      13.616   3.384  93.386  1.00  0.00     0.053 C 
BRANCH  33  34
HETATM   34  C   UNL     1      14.547   2.639  94.124  1.00  0.00     0.220 C 
BRANCH  34  35
HETATM   35  O   UNL     1      14.474   1.455  93.743  1.00  0.00    -0.371 OA
HETATM   36  H   UNL     1      14.531   1.611  92.813  1.00  0.00     0.211 HD
ENDBRANCH  34  35
BRANCH  34  37
HETATM   37  C   UNL     1      15.856   3.145  94.047  1.00  0.00     0.185 C 
HETATM   38  O   UNL     1      15.232   4.311  93.996  1.00  0.00    -0.647 OA
BRANCH  37  39
HETATM   39  O   UNL     1      16.964   2.700  94.001  1.00  0.00    -0.774 OA
HETATM   40  H   UNL     1      17.553   3.132  93.134  1.00  0.00     0.167 HD
ENDBRANCH  37  39
ENDBRANCH  34  37
ENDBRANCH  33  34
ENDBRANCH  31  33
ENDBRANCH  26  31
ENDBRANCH  24  26
ENDBRANCH  19  22
ENDBRANCH  15  16
ENDBRANCH  11  14
ENDBRANCH   7   8
ENDBRANCH   2   7
TORSDOF 14
ENDMDL
MODEL 2
REMARK VINA RESULT:      -4.4      2.710     13.013
REMARK  14 active torsions:
REMARK  status: ('A' for Active; 'I' for Inactive)
REMARK    1  A    between atoms: O_2  and  C_18 
REMARK    2  A    between atoms: C_5  and  C_8 
REMARK    3  A    between atoms: C_5  and  O_35 
REMARK    4  A    between atoms: C_5  and  C_36 
REMARK    5  A    between atoms: N_6  and  C_11 
REMARK    6  A    between atoms: N_7  and  C_15 
REMARK       I    between atoms: N_7  and  C_24 
REMARK    7  A    between atoms: C_8  and  C_23 
REMARK    8  A    between atoms: C_11  and  C_14 
REMARK    9  A    between atoms: C_15  and  C_18 
REMARK   10  A    between atoms: C_15  and  C_23 
REMARK   11  A    between atoms: C_21  and  C_26 
REMARK   12  A    between atoms: C_24  and  C_25 
REMARK   13  A    between atoms: C_29  and  C_32 
REMARK   14  A    between atoms: C_36  and  O_39 
ROOT
HETATM    1  O   UNL     1      16.524   2.760  92.438  1.00  0.00    -0.350 OA
HETATM    2  N   UNL     1      13.804   2.981  93.246  1.00  0.00     0.147 N 
HETATM    3  C   UNL     1      14.762   2.152  93.991  1.00  0.00     0.283 C 
HETATM    4  C   UNL     1      14.194   3.052  91.831  1.00  0.00     0.283 C 
HETATM    5  C   UNL     1      16.172   2.712  93.822  1.00  0.00     0.178 C 
HETATM    6  C   UNL     1      15.617   3.589  91.712  1.00  0.00     0.178 C 
ENDROOT
BRANCH   2   7
HETATM    7  C   UNL     1      12.447   2.457  93.386  1.00  0.00     0.277 C 
BRANCH   7   8
HETATM    8  C   UNL     1      11.410   3.518  93.237  1.00  0.00     0.011 A 
HETATM    9  C   UNL     1      11.397   4.607  94.110  1.00  0.00    -0.002 A 
HETATM   10  C   UNL     1      10.426   5.599  93.973  1.00  0.00     0.008 A 
HETATM   11  C   UNL     1       9.471   5.503  92.962  1.00  0.00     0.042 A 
HETATM   12  C   UNL     1       9.483   4.416  92.089  1.00  0.00     0.008 A 
HETATM   13  C   UNL     1      10.453   3.424  92.227  1.00  0.00    -0.002 A 
BRANCH  11  14
HETATM   14  C   UNL     1       8.476   6.521  92.820  1.00  0.00    -0.059 C 
HETATM   15  C   UNL     1       7.641   7.378  92.700  1.00  0.00    -0.059 C 
BRANCH  15  16
HETATM   16  C   UNL     1       6.647   8.396  92.558  1.00  0.00     0.042 A 
HETATM   17  C   UNL     1       5.298   8.080  92.722  1.00  0.00     0.008 A 
HETATM   18  C   UNL     1       4.329   9.074  92.585  1.00  0.00     0.005 A 
HETATM   19  C   UNL     1       4.730  10.360  92.289  1.00  0.00     0.056 A 
HETATM   20  C   UNL     1       6.057  10.697  92.121  1.00  0.00     0.005 A 
HETATM   21  C   UNL     1       7.027   9.704  92.257  1.00  0.00     0.008 A 
BRANCH  19  22
HETATM   22  C   UNL     1       3.697  11.418  92.141  1.00  0.00     0.254 C 
HETATM   23  O   UNL     1       2.511  11.100  92.125  1.00  0.00    -0.268 OA
HETATM   24  N   UNL     1       4.169  12.721  92.056  1.00  0.00    -0.335 N 
HETATM   25  HN  UNL     1       5.163  12.910  92.102  1.00  0.00     0.164 HD
BRANCH  24  26
HETATM   26  C   UNL     1       3.291  13.857  91.935  1.00  0.00     0.169 C 
BRANCH  26  27
HETATM   27  C   UNL     1       3.516  14.901  93.036  1.00  0.00     0.138 C 
HETATM   28  C   UNL     1       2.261  15.155  93.864  1.00  0.00     0.034 C 
BRANCH  27  29
HETATM   29  O   UNL     1       4.562  14.462  93.903  1.00  0.00    -0.383 OA
HETATM   30  H   UNL     1       4.212  13.753  94.468  1.00  0.00     0.210 HD
ENDBRANCH  27  29
ENDBRANCH  26  27
BRANCH  26  31
HETATM   31  C   UNL     1       3.498  14.460  90.549  1.00  0.00     0.194 C 
HETATM   32  O   UNL     1       3.861  15.621  90.372  1.00  0.00    -0.289 OA
BRANCH  31  33
HETATM   33  C   UNL     1       3.197  13.571  89.546  1.00  0.00     0.053 C 
BRANCH  33  34
HETATM   34  C   UNL     1       4.279  13.141  88.765  1.00  0.00     0.220 C 
BRANCH  34  35
HETATM   35  O   UNL     1       5.326  13.500  89.337  1.00  0.00    -0.371 OA
HETATM   36  H   UNL     1       5.543  14.227  88.775  1.00  0.00     0.211 HD
ENDBRANCH  34  35
BRANCH  34  37
HETATM   37  C   UNL     1       4.263  11.762  88.496  1.00  0.00     0.185 C 
HETATM   38  O   UNL     1       2.955  11.954  88.423  1.00  0.00    -0.647 OA
BRANCH  37  39
HETATM   39  O   UNL     1       5.061  10.876  88.427  1.00  0.00    -0.774 OA
HETATM   40  H   UNL     1       4.597   9.927  88.013  1.00  0.00     0.167 HD
ENDBRANCH  37  39
ENDBRANCH  34  37
ENDBRANCH  33  34
ENDBRANCH  31  33
ENDBRANCH  26  31
ENDBRANCH  24  26
ENDBRANCH  19  22
ENDBRANCH  15  16
ENDBRANCH  11  14
ENDBRANCH   7   8
ENDBRANCH   2   7
TORSDOF 14
ENDMDL
MODEL 3
REMARK VINA RESULT:      -3.4      1.478      2.082
REMARK  14 active torsions:
REMARK  status: ('A' for Active; 'I' for Inactive)
REMARK    1  A    between atoms: O_2  and  C_18 
REMARK    2  A    between atoms: C_5  and  C_8 
REMARK    3  A    between atoms: C_5  and  O_35 
REMARK    4  A    between atoms: C_5  and  C_36 
REMARK    5  A    between atoms: N_6  and  C_11 
REMARK    6  A    between atoms: N_7  and  C_15 
REMARK       I    between atoms: N_7  and  C_24 
REMARK    7  A    between atoms: C_8  and  C_23 
REMARK    8  A    between atoms: C_11  and  C_14 
REMARK    9  A    between atoms: C_15  and  C_18 
REMARK   10  A    between atoms: C_15  and  C_23 
REMARK   11  A    between atoms: C_21  and  C_26 
REMARK   12  A    between atoms: C_24  and  C_25 
REMARK   13  A    between atoms: C_29  and  C_32 
REMARK   14  A    between atoms: C_36  and  O_39 
ROOT
HETATM    1  O   UNL     1       3.127  14.771  93.877  1.00  0.00    -0.350 OA
HETATM    2  N   UNL     1       2.778  14.744  91.053  1.00  0.00     0.147 N 
HETATM    3  C   UNL     1       1.824  14.079  91.951  1.00  0.00     0.283 C 
HETATM    4  C   UNL     1       4.115  14.761  91.662  1.00  0.00     0.283 C 
HETATM    5  C   UNL     1       1.817  14.779  93.307  1.00  0.00     0.178 C 
HETATM    6  C   UNL     1       4.055  15.443  93.025  1.00  0.00     0.178 C 
ENDROOT
BRANCH   2   7
HETATM    7  C   UNL     1       2.810  14.083  89.749  1.00  0.00     0.277 C 
BRANCH   7   8
HETATM    8  C   UNL     1       3.790  12.960  89.705  1.00  0.00     0.011 A 
HETATM    9  C   UNL     1       3.463  11.728  90.271  1.00  0.00    -0.002 A 
HETATM   10  C   UNL     1       4.380  10.677  90.232  1.00  0.00     0.008 A 
HETATM   11  C   UNL     1       5.622  10.860  89.625  1.00  0.00     0.042 A 
HETATM   12  C   UNL     1       5.949  12.090  89.059  1.00  0.00     0.008 A 
HETATM   13  C   UNL     1       5.033  13.141  89.099  1.00  0.00    -0.002 A 
BRANCH  11  14
HETATM   14  C   UNL     1       6.561   9.782  89.583  1.00  0.00    -0.059 C 
HETATM   15  C   UNL     1       7.351   8.876  89.549  1.00  0.00    -0.059 C 
BRANCH  15  16
HETATM   16  C   UNL     1       8.289   7.798  89.507  1.00  0.00     0.042 A 
HETATM   17  C   UNL     1       8.259   6.888  88.450  1.00  0.00     0.008 A 
HETATM   18  C   UNL     1       9.176   5.838  88.408  1.00  0.00     0.005 A 
HETATM   19  C   UNL     1      10.103   5.722  89.423  1.00  0.00     0.056 A 
HETATM   20  C   UNL     1      10.153   6.607  90.479  1.00  0.00     0.005 A 
HETATM   21  C   UNL     1       9.236   7.658  90.522  1.00  0.00     0.008 A 
BRANCH  19  22
HETATM   22  C   UNL     1      11.078   4.602  89.379  1.00  0.00     0.254 C 
HETATM   23  O   UNL     1      11.254   4.001  88.322  1.00  0.00    -0.268 OA
HETATM   24  N   UNL     1      11.749   4.333  90.564  1.00  0.00    -0.335 N 
HETATM   25  HN  UNL     1      11.570   4.889  91.392  1.00  0.00     0.164 HD
BRANCH  24  26
HETATM   26  C   UNL     1      12.742   3.295  90.675  1.00  0.00     0.169 C 
BRANCH  26  27
HETATM   27  C   UNL     1      14.170   3.847  90.772  1.00  0.00     0.138 C 
HETATM   28  C   UNL     1      15.152   3.086  89.888  1.00  0.00     0.034 C 
BRANCH  27  29
HETATM   29  O   UNL     1      14.176   5.223  90.392  1.00  0.00    -0.383 OA
HETATM   30  H   UNL     1      13.714   5.731  91.080  1.00  0.00     0.210 HD
ENDBRANCH  27  29
ENDBRANCH  26  27
BRANCH  26  31
HETATM   31  C   UNL     1      12.393   2.444  91.891  1.00  0.00     0.194 C 
HETATM   32  O   UNL     1      12.445   1.216  91.887  1.00  0.00    -0.289 OA
BRANCH  31  33
HETATM   33  C   UNL     1      11.985   3.207  92.958  1.00  0.00     0.053 C 
BRANCH  33  34
HETATM   34  C   UNL     1      10.872   4.029  92.730  1.00  0.00     0.220 C 
BRANCH  34  35
HETATM   35  O   UNL     1       9.885   3.291  92.550  1.00  0.00    -0.371 OA
HETATM   36  H   UNL     1       9.216   3.959  92.557  1.00  0.00     0.211 HD
ENDBRANCH  34  35
BRANCH  34  37
HETATM   37  C   UNL     1      10.654   4.972  93.749  1.00  0.00     0.185 C 
HETATM   38  O   UNL     1      11.872   4.613  94.123  1.00  0.00    -0.647 OA
BRANCH  37  39
HETATM   39  O   UNL     1       9.767   5.691  94.100  1.00  0.00    -0.774 OA
HETATM   40  H   UNL     1      10.038   6.785  93.968  1.00  0.00     0.167 HD
ENDBRANCH  37  39
ENDBRANCH  34  37
ENDBRANCH  33  34
ENDBRANCH  31  33
ENDBRANCH  26  31
ENDBRANCH  24  26
ENDBRANCH  19  22
ENDBRANCH  15  16
ENDBRANCH  11  14
ENDBRANCH   7   8
ENDBRANCH   2   7
TORSDOF 14
ENDMDL
MODEL 4
REMARK VINA RESULT:      -1.6      2.159      4.108
REMARK  14 active torsions:
REMARK  status: ('A' for Active; 'I' for Inactive)
REMARK    1  A    between atoms: O_2  and  C_18 
REMARK    2  A    between atoms: C_5  and  C_8 
REMARK    3  A    between atoms: C_5  and  O_35 
REMARK    4  A    between atoms: C_5  and  C_36 
REMARK    5  A    between atoms: N_6  and  C_11 
REMARK    6  A    between atoms: N_7  and  C_15 
REMARK       I    between atoms: N_7  and  C_24 
REMARK    7  A    between atoms: C_8  and  C_23 
REMARK    8  A    between atoms: C_11  and  C_14 
REMARK    9  A    between atoms: C_15  and  C_18 
REMARK   10  A    between atoms: C_15  and  C_23 
REMARK   11  A    between atoms: C_21  and  C_26 
REMARK   12  A    between atoms: C_24  and  C_25 
REMARK   13  A    between atoms: C_29  and  C_32 
REMARK   14  A    between atoms: C_36  and  O_39 
ROOT
HETATM    1  O   UNL     1       3.360  15.625  92.942  1.00  0.00    -0.350 OA
HETATM    2  N   UNL     1       1.518  13.461  92.778  1.00  0.00     0.147 N 
HETATM    3  C   UNL     1       2.148  13.838  94.051  1.00  0.00     0.283 C 
HETATM    4  C   UNL     1       2.404  13.803  91.657  1.00  0.00     0.283 C 
HETATM    5  C   UNL     1       2.492  15.326  94.037  1.00  0.00     0.178 C 
HETATM    6  C   UNL     1       2.742  15.290  91.699  1.00  0.00     0.178 C 
ENDROOT
BRANCH   2   7
HETATM    7  C   UNL     1       1.189  12.037  92.765  1.00  0.00     0.277 C 
BRANCH   7   8
HETATM    8  C   UNL     1       2.404  11.173  92.804  1.00  0.00     0.011 A 
HETATM    9  C   UNL     1       3.220  11.170  93.936  1.00  0.00    -0.002 A 
HETATM   10  C   UNL     1       4.358  10.365  93.973  1.00  0.00     0.008 A 
HETATM   11  C   UNL     1       4.678   9.561  92.879  1.00  0.00     0.042 A 
HETATM   12  C   UNL     1       3.864   9.563  91.749  1.00  0.00     0.008 A 
HETATM   13  C   UNL     1       2.726  10.369  91.711  1.00  0.00    -0.002 A 
BRANCH  11  14
HETATM   14  C   UNL     1       5.844   8.733  92.918  1.00  0.00    -0.059 C 
HETATM   15  C   UNL     1       6.824   8.037  92.950  1.00  0.00    -0.059 C 
BRANCH  15  16
HETATM   16  C   UNL     1       7.990   7.210  92.988  1.00  0.00     0.042 A 
HETATM   17  C   UNL     1       8.879   7.309  94.059  1.00  0.00     0.008 A 
HETATM   18  C   UNL     1      10.015   6.501  94.097  1.00  0.00     0.005 A 
HETATM   19  C   UNL     1      10.236   5.611  93.066  1.00  0.00     0.056 A 
HETATM   20  C   UNL     1       9.372   5.495  91.997  1.00  0.00     0.005 A 
HETATM   21  C   UNL     1       8.236   6.303  91.958  1.00  0.00     0.008 A 
BRANCH  19  22
HETATM   22  C   UNL     1      11.447   4.751  93.107  1.00  0.00     0.254 C 
HETATM   23  O   UNL     1      11.690   4.105  94.123  1.00  0.00    -0.268 OA
HETATM   24  N   UNL     1      12.215   4.729  91.951  1.00  0.00    -0.335 N 
HETATM   25  HN  UNL     1      11.938   5.270  91.141  1.00  0.00     0.164 HD
BRANCH  24  26
HETATM   26  C   UNL     1      13.405   3.925  91.827  1.00  0.00     0.169 C 
BRANCH  26  27
HETATM   27  C   UNL     1      13.436   2.753  92.816  1.00  0.00     0.138 C 
HETATM   28  C   UNL     1      12.924   1.456  92.200  1.00  0.00     0.034 C 
BRANCH  27  29
HETATM   29  O   UNL     1      14.772   2.552  93.275  1.00  0.00    -0.383 OA
HETATM   30  H   UNL     1      14.753   2.478  94.244  1.00  0.00     0.210 HD
ENDBRANCH  27  29
ENDBRANCH  26  27
BRANCH  26  31
HETATM   31  C   UNL     1      13.488   3.436  90.384  1.00  0.00     0.194 C 
HETATM   32  O   UNL     1      14.511   3.519  89.707  1.00  0.00    -0.289 OA
BRANCH  31  33
HETATM   33  C   UNL     1      12.289   2.939  89.935  1.00  0.00     0.053 C 
BRANCH  33  34
HETATM   34  C   UNL     1      11.372   3.889  89.464  1.00  0.00     0.220 C 
BRANCH  34  35
HETATM   35  O   UNL     1      12.002   4.933  89.210  1.00  0.00    -0.371 OA
HETATM   36  H   UNL     1      11.572   5.502  89.830  1.00  0.00     0.211 HD
ENDBRANCH  34  35
BRANCH  34  37
HETATM   37  C   UNL     1      10.616   3.442  88.367  1.00  0.00     0.185 C 
HETATM   38  O   UNL     1       9.750   3.099  89.307  1.00  0.00    -0.647 OA
BRANCH  37  39
HETATM   39  O   UNL     1      10.750   3.378  87.181  1.00  0.00    -0.774 OA
HETATM   40  H   UNL     1      11.822   3.577  86.870  1.00  0.00     0.167 HD
ENDBRANCH  37  39
ENDBRANCH  34  37
ENDBRANCH  33  34
ENDBRANCH  31  33
ENDBRANCH  26  31
ENDBRANCH  24  26
ENDBRANCH  19  22
ENDBRANCH  15  16
ENDBRANCH  11  14
ENDBRANCH   7   8
ENDBRANCH   2   7
TORSDOF 14
ENDMDL
MODEL 5
REMARK VINA RESULT:      -1.5      1.507      2.707
REMARK  14 active torsions:
REMARK  status: ('A' for Active; 'I' for Inactive)
REMARK    1  A    between atoms: O_2  and  C_18 
REMARK    2  A    between atoms: C_5  and  C_8 
REMARK    3  A    between atoms: C_5  and  O_35 
REMARK    4  A    between atoms: C_5  and  C_36 
REMARK    5  A    between atoms: N_6  and  C_11 
REMARK    6  A    between atoms: N_7  and  C_15 
REMARK       I    between atoms: N_7  and  C_24 
REMARK    7  A    between atoms: C_8  and  C_23 
REMARK    8  A    between atoms: C_11  and  C_14 
REMARK    9  A    between atoms: C_15  and  C_18 
REMARK   10  A    between atoms: C_15  and  C_23 
REMARK   11  A    between atoms: C_21  and  C_26 
REMARK   12  A    between atoms: C_24  and  C_25 
REMARK   13  A    between atoms: C_29  and  C_32 
REMARK   14  A    between atoms: C_36  and  O_39 
ROOT
HETATM    1  O   UNL     1       4.522  15.583  92.443  1.00  0.00    -0.350 OA
HETATM    2  N   UNL     1       3.096  13.879  90.664  1.00  0.00     0.147 N 
HETATM    3  C   UNL     1       2.836  13.869  92.111  1.00  0.00     0.283 C 
HETATM    4  C   UNL     1       4.490  14.267  90.406  1.00  0.00     0.283 C 
HETATM    5  C   UNL     1       3.160  15.239  92.703  1.00  0.00     0.178 C 
HETATM    6  C   UNL     1       4.775  15.625  91.038  1.00  0.00     0.178 C 
ENDROOT
BRANCH   2   7
HETATM    7  C   UNL     1       2.803  12.573  90.077  1.00  0.00     0.277 C 
BRANCH   7   8
HETATM    8  C   UNL     1       3.958  11.635  90.170  1.00  0.00     0.011 A 
HETATM    9  C   UNL     1       4.617  11.461  91.388  1.00  0.00    -0.002 A 
HETATM   10  C   UNL     1       5.699  10.586  91.476  1.00  0.00     0.008 A 
HETATM   11  C   UNL     1       6.121   9.884  90.347  1.00  0.00     0.042 A 
HETATM   12  C   UNL     1       5.464  10.058  89.131  1.00  0.00     0.008 A 
HETATM   13  C   UNL     1       4.382  10.933  89.042  1.00  0.00    -0.002 A 
BRANCH  11  14
HETATM   14  C   UNL     1       7.230   8.985  90.439  1.00  0.00    -0.059 C 
HETATM   15  C   UNL     1       8.162   8.229  90.516  1.00  0.00    -0.059 C 
BRANCH  15  16
HETATM   16  C   UNL     1       9.270   7.330  90.607  1.00  0.00     0.042 A 
HETATM   17  C   UNL     1       9.854   6.824  89.446  1.00  0.00     0.008 A 
HETATM   18  C   UNL     1      10.936   5.949  89.535  1.00  0.00     0.005 A 
HETATM   19  C   UNL     1      11.411   5.601  90.783  1.00  0.00     0.056 A 
HETATM   20  C   UNL     1      10.851   6.087  91.945  1.00  0.00     0.005 A 
HETATM   21  C   UNL     1       9.768   6.962  91.857  1.00  0.00     0.008 A 
BRANCH  19  22
HETATM   22  C   UNL     1      12.563   4.667  90.877  1.00  0.00     0.254 C 
HETATM   23  O   UNL     1      12.933   4.067  89.871  1.00  0.00    -0.268 OA
HETATM   24  N   UNL     1      13.160   4.563  92.126  1.00  0.00    -0.335 N 
HETATM   25  HN  UNL     1      12.815   5.108  92.907  1.00  0.00     0.164 HD
BRANCH  24  26
HETATM   26  C   UNL     1      14.301   3.718  92.372  1.00  0.00     0.169 C 
BRANCH  26  27
HETATM   27  C   UNL     1      15.294   4.336  93.364  1.00  0.00     0.138 C 
HETATM   28  C   UNL     1      16.242   3.302  93.961  1.00  0.00     0.034 C 
BRANCH  27  29
HETATM   29  O   UNL     1      16.061   5.344  92.707  1.00  0.00    -0.383 OA
HETATM   30  H   UNL     1      15.606   5.584  91.882  1.00  0.00     0.210 HD
ENDBRANCH  27  29
ENDBRANCH  26  27
BRANCH  26  31
HETATM   31  C   UNL     1      13.785   2.371  92.869  1.00  0.00     0.194 C 
HETATM   32  O   UNL     1      14.501   1.377  92.973  1.00  0.00    -0.289 OA
BRANCH  31  33
HETATM   33  C   UNL     1      12.439   2.400  93.142  1.00  0.00     0.053 C 
BRANCH  33  34
HETATM   34  C   UNL     1      11.590   2.203  92.044  1.00  0.00     0.220 C 
BRANCH  34  35
HETATM   35  O   UNL     1      11.795   1.056  91.605  1.00  0.00    -0.371 OA
HETATM   36  H   UNL     1      10.900   0.831  91.399  1.00  0.00     0.211 HD
ENDBRANCH  34  35
BRANCH  34  37
HETATM   37  C   UNL     1      10.234   2.429  92.337  1.00  0.00     0.185 C 
HETATM   38  O   UNL     1      10.298   1.196  92.817  1.00  0.00    -0.647 OA
BRANCH  37  39
HETATM   39  O   UNL     1       9.437   3.303  92.172  1.00  0.00    -0.774 OA
HETATM   40  H   UNL     1       9.688   4.220  92.791  1.00  0.00     0.167 HD
ENDBRANCH  37  39
ENDBRANCH  34  37
ENDBRANCH  33  34
ENDBRANCH  31  33
ENDBRANCH  26  31
ENDBRANCH  24  26
ENDBRANCH  19  22
ENDBRANCH  15  16
ENDBRANCH  11  14
ENDBRANCH   7   8
ENDBRANCH   2   7
TORSDOF 14
ENDMDL
