MODEL 1
REMARK VINA RESULT:      -7.0      0.000      0.000
REMARK  10 active torsions:
REMARK  status: ('A' for Active; 'I' for Inactive)
REMARK    1  A    between atoms: O_2  and  C_16 
REMARK    2  A    between atoms: N_5  and  C_9 
REMARK    3  A    between atoms: N_6  and  C_13 
REMARK       I    between atoms: N_6  and  C_22 
REMARK    4  A    between atoms: C_9  and  C_12 
REMARK    5  A    between atoms: C_13  and  C_16 
REMARK    6  A    between atoms: C_13  and  C_21 
REMARK    7  A    between atoms: C_19  and  C_24 
REMARK    8  A    between atoms: C_22  and  C_23 
REMARK    9  A    between atoms: C_27  and  C_30 
REMARK   10  A    between atoms: N_33  and  S_34 
ROOT
HETATM    1  C   UNL     1       5.655  10.782  89.511  1.00  0.00     0.056 A 
HETATM    2  C   UNL     1       5.169   9.492  89.561  1.00  0.00     0.005 A 
HETATM    3  C   UNL     1       6.982  11.078  89.739  1.00  0.00     0.005 A 
HETATM    4  C   UNL     1       7.397   8.724  90.089  1.00  0.00     0.042 A 
HETATM    5  C   UNL     1       6.049   8.451  89.854  1.00  0.00     0.008 A 
HETATM    6  C   UNL     1       7.864  10.037  90.032  1.00  0.00     0.008 A 
ENDROOT
BRANCH   1   7
HETATM    7  C   UNL     1       4.717  11.890  89.196  1.00  0.00     0.254 C 
HETATM    8  O   UNL     1       4.500  12.178  88.022  1.00  0.00    -0.268 OA
HETATM    9  N   UNL     1       4.125  12.513  90.286  1.00  0.00    -0.337 N 
HETATM   10  HN  UNL     1       4.333  12.205  91.229  1.00  0.00     0.164 HD
BRANCH   9  11
HETATM   11  C   UNL     1       3.176  13.588  90.144  1.00  0.00     0.172 C 
BRANCH  11  12
HETATM   12  C   UNL     1       1.988  13.462  91.107  1.00  0.00     0.136 C 
HETATM   13  C   UNL     1       2.284  12.535  92.281  1.00  0.00     0.034 C 
BRANCH  12  14
HETATM   14  O   UNL     1       1.642  14.752  91.610  1.00  0.00    -0.383 OA
HETATM   15  H   UNL     1       1.037  14.634  92.362  1.00  0.00     0.210 HD
ENDBRANCH  12  14
ENDBRANCH  11  12
BRANCH  11  16
HETATM   16  C   UNL     1       3.923  14.901  90.355  1.00  0.00     0.398 A 
HETATM   17  O   UNL     1       5.005  15.148  89.825  1.00  0.00    -0.136 OA
HETATM   18  N   UNL     1       5.024  15.566  91.287  1.00  0.00     0.142 N 
HETATM   19  HN  UNL     1       5.928  15.859  91.042  1.00  0.00     0.338 HD
BRANCH  18  20
HETATM   20  S   UNL     1       4.411  15.348  92.516  1.00  0.00     0.076 SA
HETATM   21  H   UNL     1       5.062  15.581  93.482  1.00  0.00     0.136 HD
ENDBRANCH  18  20
ENDBRANCH  11  16
ENDBRANCH   9  11
ENDBRANCH   1   7
BRANCH   4  22
HETATM   22  C   UNL     1       8.299   7.657  90.393  1.00  0.00    -0.059 C 
HETATM   23  C   UNL     1       9.059   6.760  90.647  1.00  0.00    -0.059 C 
BRANCH  23  24
HETATM   24  C   UNL     1       9.962   5.693  90.951  1.00  0.00     0.042 A 
HETATM   25  C   UNL     1      10.044   5.200  92.253  1.00  0.00     0.008 A 
HETATM   26  C   UNL     1      10.926   4.161  92.549  1.00  0.00    -0.002 A 
HETATM   27  C   UNL     1      11.725   3.615  91.544  1.00  0.00     0.011 A 
HETATM   28  C   UNL     1      11.641   4.110  90.242  1.00  0.00    -0.002 A 
HETATM   29  C   UNL     1      10.759   5.149  89.946  1.00  0.00     0.008 A 
BRANCH  27  30
HETATM   30  C   UNL     1      12.666   2.503  91.861  1.00  0.00     0.277 C 
BRANCH  30  31
HETATM   31  N   UNL     1      13.685   2.897  92.832  1.00  0.00     0.147 N 
HETATM   32  C   UNL     1      14.593   1.777  93.117  1.00  0.00     0.283 C 
HETATM   33  C   UNL     1      15.654   2.214  94.123  1.00  0.00     0.178 C 
HETATM   34  O   UNL     1      16.385   3.334  93.620  1.00  0.00    -0.350 OA
HETATM   35  C   UNL     1      15.514   4.437  93.370  1.00  0.00     0.178 C 
HETATM   36  C   UNL     1      14.450   4.054  92.347  1.00  0.00     0.283 C 
ENDBRANCH  30  31
ENDBRANCH  27  30
ENDBRANCH  23  24
ENDBRANCH   4  22
TORSDOF 10
ENDMDL
