MODEL 1
REMARK VINA RESULT:      -7.1      0.000      0.000
REMARK  10 active torsions:
REMARK  status: ('A' for Active; 'I' for Inactive)
REMARK    1  A    between atoms: O_2  and  C_18 
REMARK    2  A    between atoms: O_5  and  N_8 
REMARK    3  A    between atoms: N_6  and  C_11 
REMARK    4  A    between atoms: N_7  and  C_15 
REMARK       I    between atoms: N_7  and  C_24 
REMARK       I    between atoms: N_8  and  C_23 
REMARK    5  A    between atoms: C_11  and  C_14 
REMARK    6  A    between atoms: C_15  and  C_18 
REMARK    7  A    between atoms: C_15  and  C_23 
REMARK    8  A    between atoms: C_21  and  C_26 
REMARK    9  A    between atoms: C_24  and  C_25 
REMARK   10  A    between atoms: C_29  and  C_32 
ROOT
HETATM    1  O   UNK     0      16.677   4.343  94.078  0.00  0.00    -0.388 OA
HETATM    2  N   UNK     0      14.822   2.620  92.778  0.00  0.00     0.096 N 
HETATM    3  C   UNK     0      14.678   4.082  92.726  0.00  0.00     0.299 C 
HETATM    4  C   UNK     0      15.497   2.224  94.020  0.00  0.00     0.299 C 
HETATM    5  C   UNK     0      16.049   4.740  92.857  0.00  0.00     0.198 C 
HETATM    6  C   UNK     0      16.848   2.926  94.122  0.00  0.00     0.198 C 
ENDROOT
BRANCH   2   7
HETATM    7  C   UNK     0      13.518   1.968  92.664  0.00  0.00     0.311 C 
BRANCH   7   8
HETATM    8  C   UNK     0      12.435   2.924  92.297  0.00  0.00    -0.030 A 
HETATM    9  C   UNK     0      12.042   3.054  90.965  0.00  0.00     0.010 A 
HETATM   10  C   UNK     0      11.030   3.950  90.621  0.00  0.00     0.021 A 
HETATM   11  C   UNK     0      10.410   4.713  91.609  0.00  0.00     0.018 A 
HETATM   12  C   UNK     0      10.801   4.585  92.940  0.00  0.00     0.021 A 
HETATM   13  C   UNK     0      11.814   3.690  93.285  0.00  0.00     0.010 A 
BRANCH  11  14
HETATM   14  C   UNK     0       9.370   5.631  91.256  0.00  0.00    -0.061 C 
HETATM   15  C   UNK     0       8.496   6.402  90.960  0.00  0.00    -0.061 C 
BRANCH  15  16
HETATM   16  C   UNK     0       7.457   7.317  90.607  0.00  0.00     0.018 A 
HETATM   17  C   UNK     0       7.331   8.526  91.293  0.00  0.00     0.022 A 
HETATM   18  C   UNK     0       6.318   9.420  90.947  0.00  0.00     0.018 A 
HETATM   19  C   UNK     0       5.455   9.087  89.925  0.00  0.00     0.032 A 
HETATM   20  C   UNK     0       5.557   7.899  89.232  0.00  0.00     0.018 A 
HETATM   21  C   UNK     0       6.570   7.004  89.578  0.00  0.00     0.022 A 
BRANCH  19  22
HETATM   22  C   UNK     0       4.374  10.040  89.559  0.00  0.00     0.252 C 
HETATM   23  O   UNK     0       3.478   9.669  88.806  0.00  0.00    -0.268 OA
HETATM   24  N   UNK     0       4.455  11.300  90.134  0.00  0.00    -0.341 N 
HETATM   25  H   UNK     0       5.212  11.528  90.767  0.00  0.00     0.163 HD
BRANCH  24  26
HETATM   26  C   UNK     0       3.471  12.325  89.896  0.00  0.00     0.207 C 
BRANCH  26  27
HETATM   27  C   UNK     0       3.023  13.029  91.183  0.00  0.00     0.146 C 
HETATM   28  C   UNK     0       2.253  12.103  92.118  0.00  0.00     0.042 C 
BRANCH  27  29
HETATM   29  O   UNK     0       4.166  13.536  91.872  0.00  0.00    -0.393 OA
HETATM   30  H   UNK     0       4.192  14.500  91.751  0.00  0.00     0.210 HD
ENDBRANCH  27  29
ENDBRANCH  26  27
BRANCH  26  31
HETATM   31  C   UNK     0       4.062  13.317  88.899  0.00  0.00     0.266 C 
HETATM   32  O   UNK     0       4.258  14.500  89.168  0.00  0.00    -0.269 OA
HETATM   33  N   UNK     0       4.306  12.740  87.676  0.00  0.00    -0.236 N 
HETATM   34  H   UNK     0       4.074  11.795  87.394  0.00  0.00     0.197 HD
BRANCH  33  35
HETATM   35  O   UNK     0       4.816  13.595  86.689  0.00  0.00    -0.287 OA
HETATM   36  H   UNK     0       5.612  13.925  87.139  0.00  0.00     0.244 HD
ENDBRANCH  33  35
ENDBRANCH  26  31
ENDBRANCH  24  26
ENDBRANCH  19  22
ENDBRANCH  15  16
ENDBRANCH  11  14
ENDBRANCH   7   8
ENDBRANCH   2   7
TORSDOF 10
ENDMDL
MODEL 2
REMARK VINA RESULT:      -6.4      0.979      1.531
REMARK  10 active torsions:
REMARK  status: ('A' for Active; 'I' for Inactive)
REMARK    1  A    between atoms: O_2  and  C_18 
REMARK    2  A    between atoms: O_5  and  N_8 
REMARK    3  A    between atoms: N_6  and  C_11 
REMARK    4  A    between atoms: N_7  and  C_15 
REMARK       I    between atoms: N_7  and  C_24 
REMARK       I    between atoms: N_8  and  C_23 
REMARK    5  A    between atoms: C_11  and  C_14 
REMARK    6  A    between atoms: C_15  and  C_18 
REMARK    7  A    between atoms: C_15  and  C_23 
REMARK    8  A    between atoms: C_21  and  C_26 
REMARK    9  A    between atoms: C_24  and  C_25 
REMARK   10  A    between atoms: C_29  and  C_32 
ROOT
HETATM    1  O   UNK     0      17.096   3.951  93.676  0.00  0.00    -0.388 OA
HETATM    2  N   UNK     0      14.524   2.731  93.696  0.00  0.00     0.096 N 
HETATM    3  C   UNK     0      15.741   1.952  93.429  0.00  0.00     0.299 C 
HETATM    4  C   UNK     0      14.711   4.122  93.263  0.00  0.00     0.299 C 
HETATM    5  C   UNK     0      16.934   2.603  94.123  0.00  0.00     0.198 C 
HETATM    6  C   UNK     0      15.928   4.723  93.960  0.00  0.00     0.198 C 
ENDROOT
BRANCH   2   7
HETATM    7  C   UNK     0      13.368   2.131  93.031  0.00  0.00     0.311 C 
BRANCH   7   8
HETATM    8  C   UNK     0      12.332   3.141  92.672  0.00  0.00    -0.030 A 
HETATM    9  C   UNK     0      11.735   3.912  93.671  0.00  0.00     0.010 A 
HETATM   10  C   UNK     0      10.764   4.855  93.336  0.00  0.00     0.021 A 
HETATM   11  C   UNK     0      10.392   5.029  92.003  0.00  0.00     0.018 A 
HETATM   12  C   UNK     0      10.987   4.260  91.006  0.00  0.00     0.021 A 
HETATM   13  C   UNK     0      11.958   3.316  91.340  0.00  0.00     0.010 A 
BRANCH  11  14
HETATM   14  C   UNK     0       9.397   5.998  91.660  0.00  0.00    -0.061 C 
HETATM   15  C   UNK     0       8.561   6.813  91.372  0.00  0.00    -0.061 C 
BRANCH  15  16
HETATM   16  C   UNK     0       7.567   7.781  91.030  0.00  0.00     0.018 A 
HETATM   17  C   UNK     0       6.472   7.982  91.872  0.00  0.00     0.022 A 
HETATM   18  C   UNK     0       5.503   8.928  91.540  0.00  0.00     0.018 A 
HETATM   19  C   UNK     0       5.649   9.653  90.376  0.00  0.00     0.032 A 
HETATM   20  C   UNK     0       6.721   9.473  89.527  0.00  0.00     0.018 A 
HETATM   21  C   UNK     0       7.691   8.526  89.858  0.00  0.00     0.022 A 
BRANCH  19  22
HETATM   22  C   UNK     0       4.615  10.660  90.022  0.00  0.00     0.252 C 
HETATM   23  O   UNK     0       3.536  10.279  89.575  0.00  0.00    -0.268 OA
HETATM   24  N   UNK     0       4.953  11.986  90.254  0.00  0.00    -0.341 N 
HETATM   25  H   UNK     0       5.855  12.223  90.650  0.00  0.00     0.163 HD
BRANCH  24  26
HETATM   26  C   UNK     0       4.049  13.075  89.985  0.00  0.00     0.207 C 
BRANCH  26  27
HETATM   27  C   UNK     0       3.886  14.020  91.182  0.00  0.00     0.146 C 
HETATM   28  C   UNK     0       4.060  13.306  92.518  0.00  0.00     0.042 C 
BRANCH  27  29
HETATM   29  O   UNK     0       4.845  15.074  91.092  0.00  0.00    -0.393 OA
HETATM   30  H   UNK     0       5.363  14.946  90.280  0.00  0.00     0.210 HD
ENDBRANCH  27  29
ENDBRANCH  26  27
BRANCH  26  31
HETATM   31  C   UNK     0       4.567  13.818  88.758  0.00  0.00     0.266 C 
HETATM   32  O   UNK     0       4.979  14.975  88.801  0.00  0.00    -0.269 OA
HETATM   33  N   UNK     0       4.478  13.059  87.616  0.00  0.00    -0.236 N 
HETATM   34  H   UNK     0       4.062  12.139  87.530  0.00  0.00     0.197 HD
BRANCH  33  35
HETATM   35  O   UNK     0       4.899  13.684  86.434  0.00  0.00    -0.287 OA
HETATM   36  H   UNK     0       4.129  14.250  86.252  0.00  0.00     0.244 HD
ENDBRANCH  33  35
ENDBRANCH  26  31
ENDBRANCH  24  26
ENDBRANCH  19  22
ENDBRANCH  15  16
ENDBRANCH  11  14
ENDBRANCH   7   8
ENDBRANCH   2   7
TORSDOF 10
ENDMDL
MODEL 3
REMARK VINA RESULT:      -6.4      1.458      2.105
REMARK  10 active torsions:
REMARK  status: ('A' for Active; 'I' for Inactive)
REMARK    1  A    between atoms: O_2  and  C_18 
REMARK    2  A    between atoms: O_5  and  N_8 
REMARK    3  A    between atoms: N_6  and  C_11 
REMARK    4  A    between atoms: N_7  and  C_15 
REMARK       I    between atoms: N_7  and  C_24 
REMARK       I    between atoms: N_8  and  C_23 
REMARK    5  A    between atoms: C_11  and  C_14 
REMARK    6  A    between atoms: C_15  and  C_18 
REMARK    7  A    between atoms: C_15  and  C_23 
REMARK    8  A    between atoms: C_21  and  C_26 
REMARK    9  A    between atoms: C_24  and  C_25 
REMARK   10  A    between atoms: C_29  and  C_32 
ROOT
HETATM    1  O   UNK     0      16.911   3.625  93.882  0.00  0.00    -0.388 OA
HETATM    2  N   UNK     0      14.373   3.107  92.702  0.00  0.00     0.096 N 
HETATM    3  C   UNK     0      15.348   2.031  92.929  0.00  0.00     0.299 C 
HETATM    4  C   UNK     0      15.071   4.383  92.494  0.00  0.00     0.299 C 
HETATM    5  C   UNK     0      16.241   2.385  94.116  0.00  0.00     0.198 C 
HETATM    6  C   UNK     0      15.971   4.682  93.690  0.00  0.00     0.198 C 
ENDROOT
BRANCH   2   7
HETATM    7  C   UNK     0      13.513   2.794  91.562  0.00  0.00     0.311 C 
BRANCH   7   8
HETATM    8  C   UNK     0      12.339   3.708  91.468  0.00  0.00    -0.030 A 
HETATM    9  C   UNK     0      11.567   3.969  92.601  0.00  0.00     0.010 A 
HETATM   10  C   UNK     0      10.467   4.822  92.514  0.00  0.00     0.021 A 
HETATM   11  C   UNK     0      10.141   5.415  91.295  0.00  0.00     0.018 A 
HETATM   12  C   UNK     0      10.912   5.156  90.163  0.00  0.00     0.021 A 
HETATM   13  C   UNK     0      12.011   4.302  90.250  0.00  0.00     0.010 A 
BRANCH  11  14
HETATM   14  C   UNK     0       9.014   6.292  91.206  0.00  0.00    -0.061 C 
HETATM   15  C   UNK     0       8.067   7.029  91.132  0.00  0.00    -0.061 C 
BRANCH  15  16
HETATM   16  C   UNK     0       6.941   7.904  91.045  0.00  0.00     0.018 A 
HETATM   17  C   UNK     0       5.668   7.380  90.817  0.00  0.00     0.022 A 
HETATM   18  C   UNK     0       4.568   8.233  90.733  0.00  0.00     0.018 A 
HETATM   19  C   UNK     0       4.764   9.591  90.880  0.00  0.00     0.032 A 
HETATM   20  C   UNK     0       6.012  10.134  91.106  0.00  0.00     0.018 A 
HETATM   21  C   UNK     0       7.112   9.281  91.189  0.00  0.00     0.022 A 
BRANCH  19  22
HETATM   22  C   UNK     0       3.592  10.500  90.790  0.00  0.00     0.252 C 
HETATM   23  O   UNK     0       2.598  10.136  90.166  0.00  0.00    -0.268 OA
HETATM   24  N   UNK     0       3.709  11.711  91.456  0.00  0.00    -0.341 N 
HETATM   25  H   UNK     0       4.553  11.933  91.973  0.00  0.00     0.163 HD
BRANCH  24  26
HETATM   26  C   UNK     0       2.650  12.688  91.482  0.00  0.00     0.207 C 
BRANCH  26  27
HETATM   27  C   UNK     0       2.298  13.145  92.903  0.00  0.00     0.146 C 
HETATM   28  C   UNK     0       3.325  12.688  93.934  0.00  0.00     0.042 C 
BRANCH  27  29
HETATM   29  O   UNK     0       2.208  14.569  92.938  0.00  0.00    -0.393 OA
HETATM   30  H   UNK     0       1.300  14.823  92.702  0.00  0.00     0.210 HD
ENDBRANCH  27  29
ENDBRANCH  26  27
BRANCH  26  31
HETATM   31  C   UNK     0       3.081  13.864  90.612  0.00  0.00     0.266 C 
HETATM   32  O   UNK     0       2.312  14.453  89.854  0.00  0.00    -0.269 OA
HETATM   33  N   UNK     0       4.417  14.151  90.750  0.00  0.00    -0.236 N 
HETATM   34  H   UNK     0       5.096  13.632  91.295  0.00  0.00     0.197 HD
BRANCH  33  35
HETATM   35  O   UNK     0       4.902  15.198  89.954  0.00  0.00    -0.287 OA
HETATM   36  H   UNK     0       5.343  15.741  90.629  0.00  0.00     0.244 HD
ENDBRANCH  33  35
ENDBRANCH  26  31
ENDBRANCH  24  26
ENDBRANCH  19  22
ENDBRANCH  15  16
ENDBRANCH  11  14
ENDBRANCH   7   8
ENDBRANCH   2   7
TORSDOF 10
ENDMDL
MODEL 4
REMARK VINA RESULT:      -6.3      1.737      2.395
REMARK  10 active torsions:
REMARK  status: ('A' for Active; 'I' for Inactive)
REMARK    1  A    between atoms: O_2  and  C_18 
REMARK    2  A    between atoms: O_5  and  N_8 
REMARK    3  A    between atoms: N_6  and  C_11 
REMARK    4  A    between atoms: N_7  and  C_15 
REMARK       I    between atoms: N_7  and  C_24 
REMARK       I    between atoms: N_8  and  C_23 
REMARK    5  A    between atoms: C_11  and  C_14 
REMARK    6  A    between atoms: C_15  and  C_18 
REMARK    7  A    between atoms: C_15  and  C_23 
REMARK    8  A    between atoms: C_21  and  C_26 
REMARK    9  A    between atoms: C_24  and  C_25 
REMARK   10  A    between atoms: C_29  and  C_32 
ROOT
HETATM    1  O   UNK     0      16.491   4.293  94.107  0.00  0.00    -0.388 OA
HETATM    2  N   UNK     0      14.567   2.787  92.649  0.00  0.00     0.096 N 
HETATM    3  C   UNK     0      14.568   4.256  92.628  0.00  0.00     0.299 C 
HETATM    4  C   UNK     0      15.120   2.301  93.920  0.00  0.00     0.299 C 
HETATM    5  C   UNK     0      15.984   4.775  92.862  0.00  0.00     0.198 C 
HETATM    6  C   UNK     0      16.523   2.866  94.124  0.00  0.00     0.198 C 
ENDROOT
BRANCH   2   7
HETATM    7  C   UNK     0      13.217   2.267  92.438  0.00  0.00     0.311 C 
BRANCH   7   8
HETATM    8  C   UNK     0      12.181   3.338  92.492  0.00  0.00    -0.030 A 
HETATM    9  C   UNK     0      11.988   4.061  93.670  0.00  0.00     0.010 A 
HETATM   10  C   UNK     0      11.018   5.061  93.723  0.00  0.00     0.021 A 
HETATM   11  C   UNK     0      10.243   5.339  92.597  0.00  0.00     0.018 A 
HETATM   12  C   UNK     0      10.434   4.618  91.421  0.00  0.00     0.021 A 
HETATM   13  C   UNK     0      11.404   3.617  91.368  0.00  0.00     0.010 A 
BRANCH  11  14
HETATM   14  C   UNK     0       9.249   6.367  92.651  0.00  0.00    -0.061 C 
HETATM   15  C   UNK     0       8.413   7.231  92.696  0.00  0.00    -0.061 C 
BRANCH  15  16
HETATM   16  C   UNK     0       7.420   8.257  92.749  0.00  0.00     0.018 A 
HETATM   17  C   UNK     0       7.732   9.500  93.300  0.00  0.00     0.022 A 
HETATM   18  C   UNK     0       6.763  10.503  93.350  0.00  0.00     0.018 A 
HETATM   19  C   UNK     0       5.506  10.240  92.847  0.00  0.00     0.032 A 
HETATM   20  C   UNK     0       5.172   9.020  92.298  0.00  0.00     0.018 A 
HETATM   21  C   UNK     0       6.141   8.017  92.249  0.00  0.00     0.022 A 
BRANCH  19  22
HETATM   22  C   UNK     0       4.474  11.308  92.902  0.00  0.00     0.252 C 
HETATM   23  O   UNK     0       3.686  11.333  93.845  0.00  0.00    -0.268 OA
HETATM   24  N   UNK     0       4.499  12.232  91.867  0.00  0.00    -0.341 N 
HETATM   25  H   UNK     0       5.195  12.162  91.134  0.00  0.00     0.163 HD
BRANCH  24  26
HETATM   26  C   UNK     0       3.579  13.338  91.792  0.00  0.00     0.207 C 
BRANCH  26  27
HETATM   27  C   UNK     0       4.249  14.687  92.082  0.00  0.00     0.146 C 
HETATM   28  C   UNK     0       4.968  15.256  90.864  0.00  0.00     0.042 C 
BRANCH  27  29
HETATM   29  O   UNK     0       3.265  15.625  92.518  0.00  0.00    -0.393 OA
HETATM   30  H   UNK     0       2.389  15.288  92.264  0.00  0.00     0.210 HD
ENDBRANCH  27  29
ENDBRANCH  26  27
BRANCH  26  31
HETATM   31  C   UNK     0       2.942  13.322  90.407  0.00  0.00     0.266 C 
HETATM   32  O   UNK     0       2.179  14.201  90.010  0.00  0.00    -0.269 OA
HETATM   33  N   UNK     0       3.289  12.203  89.689  0.00  0.00    -0.236 N 
HETATM   34  H   UNK     0       3.841  11.419  90.017  0.00  0.00     0.197 HD
BRANCH  33  35
HETATM   35  O   UNK     0       2.713  12.092  88.415  0.00  0.00    -0.287 OA
HETATM   36  H   UNK     0       3.414  11.605  87.949  0.00  0.00     0.244 HD
ENDBRANCH  33  35
ENDBRANCH  26  31
ENDBRANCH  24  26
ENDBRANCH  19  22
ENDBRANCH  15  16
ENDBRANCH  11  14
ENDBRANCH   7   8
ENDBRANCH   2   7
TORSDOF 10
ENDMDL
MODEL 5
REMARK VINA RESULT:      -5.9      1.651      2.813
REMARK  10 active torsions:
REMARK  status: ('A' for Active; 'I' for Inactive)
REMARK    1  A    between atoms: O_2  and  C_18 
REMARK    2  A    between atoms: O_5  and  N_8 
REMARK    3  A    between atoms: N_6  and  C_11 
REMARK    4  A    between atoms: N_7  and  C_15 
REMARK       I    between atoms: N_7  and  C_24 
REMARK       I    between atoms: N_8  and  C_23 
REMARK    5  A    between atoms: C_11  and  C_14 
REMARK    6  A    between atoms: C_15  and  C_18 
REMARK    7  A    between atoms: C_15  and  C_23 
REMARK    8  A    between atoms: C_21  and  C_26 
REMARK    9  A    between atoms: C_24  and  C_25 
REMARK   10  A    between atoms: C_29  and  C_32 
ROOT
HETATM    1  O   UNK     0      15.543   4.202  93.870  0.00  0.00    -0.388 OA
HETATM    2  N   UNK     0      13.837   2.608  92.241  0.00  0.00     0.096 N 
HETATM    3  C   UNK     0      14.023   4.043  91.984  0.00  0.00     0.299 C 
HETATM    4  C   UNK     0      14.017   2.325  93.671  0.00  0.00     0.299 C 
HETATM    5  C   UNK     0      15.401   4.482  92.476  0.00  0.00     0.198 C 
HETATM    6  C   UNK     0      15.394   2.804  94.124  0.00  0.00     0.198 C 
ENDROOT
BRANCH   2   7
HETATM    7  C   UNK     0      12.519   2.168  91.787  0.00  0.00     0.311 C 
BRANCH   7   8
HETATM    8  C   UNK     0      11.546   3.294  91.692  0.00  0.00    -0.030 A 
HETATM    9  C   UNK     0      11.078   3.910  92.853  0.00  0.00     0.010 A 
HETATM   10  C   UNK     0      10.166   4.961  92.766  0.00  0.00     0.021 A 
HETATM   11  C   UNK     0       9.724   5.398  91.517  0.00  0.00     0.018 A 
HETATM   12  C   UNK     0      10.191   4.784  90.357  0.00  0.00     0.021 A 
HETATM   13  C   UNK     0      11.102   3.732  90.444  0.00  0.00     0.010 A 
BRANCH  11  14
HETATM   14  C   UNK     0       8.790   6.478  91.427  0.00  0.00    -0.061 C 
HETATM   15  C   UNK     0       8.005   7.386  91.352  0.00  0.00    -0.061 C 
BRANCH  15  16
HETATM   16  C   UNK     0       7.073   8.465  91.261  0.00  0.00     0.018 A 
HETATM   17  C   UNK     0       7.109   9.326  90.163  0.00  0.00     0.022 A 
HETATM   18  C   UNK     0       6.198  10.378  90.073  0.00  0.00     0.018 A 
HETATM   19  C   UNK     0       5.272  10.546  91.081  0.00  0.00     0.032 A 
HETATM   20  C   UNK     0       5.215   9.710  92.176  0.00  0.00     0.018 A 
HETATM   21  C   UNK     0       6.127   8.658  92.267  0.00  0.00     0.022 A 
BRANCH  19  22
HETATM   22  C   UNK     0       4.302  11.668  90.985  0.00  0.00     0.252 C 
HETATM   23  O   UNK     0       3.212  11.475  90.454  0.00  0.00    -0.268 OA
HETATM   24  N   UNK     0       4.710  12.873  91.542  0.00  0.00    -0.341 N 
HETATM   25  H   UNK     0       5.617  12.951  91.987  0.00  0.00     0.163 HD
BRANCH  24  26
HETATM   26  C   UNK     0       3.874  14.046  91.550  0.00  0.00     0.207 C 
BRANCH  26  27
HETATM   27  C   UNK     0       3.726  14.679  90.161  0.00  0.00     0.146 C 
HETATM   28  C   UNK     0       5.051  14.760  89.412  0.00  0.00     0.042 C 
BRANCH  27  29
HETATM   29  O   UNK     0       2.801  13.917  89.385  0.00  0.00    -0.393 OA
HETATM   30  H   UNK     0       3.305  13.303  88.826  0.00  0.00     0.210 HD
ENDBRANCH  27  29
ENDBRANCH  26  27
BRANCH  26  31
HETATM   31  C   UNK     0       2.518  13.648  92.125  0.00  0.00     0.266 C 
HETATM   32  O   UNK     0       1.454  14.099  91.706  0.00  0.00    -0.269 OA
HETATM   33  N   UNK     0       2.638  12.769  93.175  0.00  0.00    -0.236 N 
HETATM   34  H   UNK     0       3.499  12.448  93.602  0.00  0.00     0.197 HD
BRANCH  33  35
HETATM   35  O   UNK     0       1.437  12.382  93.786  0.00  0.00    -0.287 OA
HETATM   36  H   UNK     0       1.654  12.549  94.719  0.00  0.00     0.244 HD
ENDBRANCH  33  35
ENDBRANCH  26  31
ENDBRANCH  24  26
ENDBRANCH  19  22
ENDBRANCH  15  16
ENDBRANCH  11  14
ENDBRANCH   7   8
ENDBRANCH   2   7
TORSDOF 10
ENDMDL
MODEL 6
REMARK VINA RESULT:      -5.2      1.681      2.595
REMARK  10 active torsions:
REMARK  status: ('A' for Active; 'I' for Inactive)
REMARK    1  A    between atoms: O_2  and  C_18 
REMARK    2  A    between atoms: O_5  and  N_8 
REMARK    3  A    between atoms: N_6  and  C_11 
REMARK    4  A    between atoms: N_7  and  C_15 
REMARK       I    between atoms: N_7  and  C_24 
REMARK       I    between atoms: N_8  and  C_23 
REMARK    5  A    between atoms: C_11  and  C_14 
REMARK    6  A    between atoms: C_15  and  C_18 
REMARK    7  A    between atoms: C_15  and  C_23 
REMARK    8  A    between atoms: C_21  and  C_26 
REMARK    9  A    between atoms: C_24  and  C_25 
REMARK   10  A    between atoms: C_29  and  C_32 
ROOT
HETATM    1  O   UNK     0      17.100   4.455  92.988  0.00  0.00    -0.388 OA
HETATM    2  N   UNK     0      15.132   2.741  94.124  0.00  0.00     0.096 N 
HETATM    3  C   UNK     0      15.958   2.314  92.986  0.00  0.00     0.299 C 
HETATM    4  C   UNK     0      14.960   4.200  94.102  0.00  0.00     0.299 C 
HETATM    5  C   UNK     0      17.300   3.041  93.019  0.00  0.00     0.198 C 
HETATM    6  C   UNK     0      16.325   4.883  94.108  0.00  0.00     0.198 C 
ENDROOT
BRANCH   2   7
HETATM    7  C   UNK     0      13.836   2.065  94.106  0.00  0.00     0.311 C 
BRANCH   7   8
HETATM    8  C   UNK     0      12.804   2.835  93.354  0.00  0.00    -0.030 A 
HETATM    9  C   UNK     0      12.116   3.874  93.983  0.00  0.00     0.010 A 
HETATM   10  C   UNK     0      11.148   4.594  93.281  0.00  0.00     0.021 A 
HETATM   11  C   UNK     0      10.872   4.276  91.952  0.00  0.00     0.018 A 
HETATM   12  C   UNK     0      11.559   3.239  91.324  0.00  0.00     0.021 A 
HETATM   13  C   UNK     0      12.526   2.519  92.025  0.00  0.00     0.010 A 
BRANCH  11  14
HETATM   14  C   UNK     0       9.881   5.016  91.232  0.00  0.00    -0.061 C 
HETATM   15  C   UNK     0       9.049   5.637  90.627  0.00  0.00    -0.061 C 
BRANCH  15  16
HETATM   16  C   UNK     0       8.060   6.377  89.908  0.00  0.00     0.018 A 
HETATM   17  C   UNK     0       6.997   5.710  89.299  0.00  0.00     0.022 A 
HETATM   18  C   UNK     0       6.030   6.432  88.599  0.00  0.00     0.018 A 
HETATM   19  C   UNK     0       6.147   7.804  88.524  0.00  0.00     0.032 A 
HETATM   20  C   UNK     0       7.188   8.487  89.117  0.00  0.00     0.018 A 
HETATM   21  C   UNK     0       8.156   7.766  89.816  0.00  0.00     0.022 A 
BRANCH  19  22
HETATM   22  C   UNK     0       5.118   8.573  87.777  0.00  0.00     0.252 C 
HETATM   23  O   UNK     0       4.956   8.351  86.580  0.00  0.00    -0.268 OA
HETATM   24  N   UNK     0       4.386   9.489  88.519  0.00  0.00    -0.341 N 
HETATM   25  H   UNK     0       4.559   9.601  89.511  0.00  0.00     0.163 HD
BRANCH  24  26
HETATM   26  C   UNK     0       3.338  10.292  87.943  0.00  0.00     0.207 C 
BRANCH  26  27
HETATM   27  C   UNK     0       1.936   9.770  88.282  0.00  0.00     0.146 C 
HETATM   28  C   UNK     0       1.492   8.645  87.355  0.00  0.00     0.042 C 
BRANCH  27  29
HETATM   29  O   UNK     0       1.916   9.297  89.629  0.00  0.00    -0.393 OA
HETATM   30  H   UNK     0       1.409   9.928  90.166  0.00  0.00     0.210 HD
ENDBRANCH  27  29
ENDBRANCH  26  27
BRANCH  26  31
HETATM   31  C   UNK     0       3.528  11.726  88.429  0.00  0.00     0.266 C 
HETATM   32  O   UNK     0       2.798  12.252  89.267  0.00  0.00    -0.269 OA
HETATM   33  N   UNK     0       4.573  12.354  87.796  0.00  0.00    -0.236 N 
HETATM   34  H   UNK     0       5.137  11.981  87.040  0.00  0.00     0.197 HD
BRANCH  33  35
HETATM   35  O   UNK     0       4.792  13.690  88.159  0.00  0.00    -0.287 OA
HETATM   36  H   UNK     0       5.552  13.903  87.590  0.00  0.00     0.244 HD
ENDBRANCH  33  35
ENDBRANCH  26  31
ENDBRANCH  24  26
ENDBRANCH  19  22
ENDBRANCH  15  16
ENDBRANCH  11  14
ENDBRANCH   7   8
ENDBRANCH   2   7
TORSDOF 10
ENDMDL
MODEL 7
REMARK VINA RESULT:      -5.0      1.967     12.447
REMARK  10 active torsions:
REMARK  status: ('A' for Active; 'I' for Inactive)
REMARK    1  A    between atoms: O_2  and  C_18 
REMARK    2  A    between atoms: O_5  and  N_8 
REMARK    3  A    between atoms: N_6  and  C_11 
REMARK    4  A    between atoms: N_7  and  C_15 
REMARK       I    between atoms: N_7  and  C_24 
REMARK       I    between atoms: N_8  and  C_23 
REMARK    5  A    between atoms: C_11  and  C_14 
REMARK    6  A    between atoms: C_15  and  C_18 
REMARK    7  A    between atoms: C_15  and  C_23 
REMARK    8  A    between atoms: C_21  and  C_26 
REMARK    9  A    between atoms: C_24  and  C_25 
REMARK   10  A    between atoms: C_29  and  C_32 
ROOT
HETATM    1  O   UNK     0       3.962  14.669  91.829  0.00  0.00    -0.388 OA
HETATM    2  N   UNK     0       3.860  13.395  89.285  0.00  0.00     0.096 N 
HETATM    3  C   UNK     0       3.104  12.877  90.434  0.00  0.00     0.299 C 
HETATM    4  C   UNK     0       5.069  14.089  89.749  0.00  0.00     0.299 C 
HETATM    5  C   UNK     0       2.767  14.019  91.389  0.00  0.00     0.198 C 
HETATM    6  C   UNK     0       4.686  15.202  90.720  0.00  0.00     0.198 C 
ENDROOT
BRANCH   2   7
HETATM    7  C   UNK     0       4.203  12.315  88.362  0.00  0.00     0.311 C 
BRANCH   7   8
HETATM    8  C   UNK     0       5.139  11.326  88.968  0.00  0.00    -0.030 A 
HETATM    9  C   UNK     0       4.692  10.040  89.272  0.00  0.00     0.010 A 
HETATM   10  C   UNK     0       5.566   9.114  89.841  0.00  0.00     0.021 A 
HETATM   11  C   UNK     0       6.888   9.474  90.103  0.00  0.00     0.018 A 
HETATM   12  C   UNK     0       7.336  10.758  89.799  0.00  0.00     0.021 A 
HETATM   13  C   UNK     0       6.461  11.685  89.231  0.00  0.00     0.010 A 
BRANCH  11  14
HETATM   14  C   UNK     0       7.785   8.524  90.684  0.00  0.00    -0.061 C 
HETATM   15  C   UNK     0       8.540   7.725  91.173  0.00  0.00    -0.061 C 
BRANCH  15  16
HETATM   16  C   UNK     0       9.437   6.776  91.753  0.00  0.00     0.018 A 
HETATM   17  C   UNK     0       9.787   6.881  93.100  0.00  0.00     0.022 A 
HETATM   18  C   UNK     0      10.661   5.954  93.667  0.00  0.00     0.018 A 
HETATM   19  C   UNK     0      11.165   4.943  92.876  0.00  0.00     0.032 A 
HETATM   20  C   UNK     0      10.836   4.818  91.543  0.00  0.00     0.018 A 
HETATM   21  C   UNK     0       9.962   5.745  90.975  0.00  0.00     0.022 A 
BRANCH  19  22
HETATM   22  C   UNK     0      12.098   3.956  93.480  0.00  0.00     0.252 C 
HETATM   23  O   UNK     0      11.641   3.015  94.124  0.00  0.00    -0.268 OA
HETATM   24  N   UNK     0      13.448   4.171  93.241  0.00  0.00    -0.341 N 
HETATM   25  H   UNK     0      13.751   4.957  92.678  0.00  0.00     0.163 HD
BRANCH  24  26
HETATM   26  C   UNK     0      14.474   3.289  93.738  0.00  0.00     0.207 C 
BRANCH  26  27
HETATM   27  C   UNK     0      14.552   1.971  92.959  0.00  0.00     0.146 C 
HETATM   28  C   UNK     0      14.807   0.771  93.865  0.00  0.00     0.042 C 
BRANCH  27  29
HETATM   29  O   UNK     0      13.332   1.763  92.247  0.00  0.00    -0.393 OA
HETATM   30  H   UNK     0      13.143   0.810  92.239  0.00  0.00     0.210 HD
ENDBRANCH  27  29
ENDBRANCH  26  27
BRANCH  26  31
HETATM   31  C   UNK     0      15.799   4.042  93.690  0.00  0.00     0.266 C 
HETATM   32  O   UNK     0      15.872   5.261  93.545  0.00  0.00    -0.269 OA
HETATM   33  N   UNK     0      16.879   3.198  93.786  0.00  0.00    -0.236 N 
HETATM   34  H   UNK     0      16.857   2.186  93.817  0.00  0.00     0.197 HD
BRANCH  33  35
HETATM   35  O   UNK     0      18.139   3.809  93.711  0.00  0.00    -0.287 OA
HETATM   36  H   UNK     0      18.698   3.102  94.077  0.00  0.00     0.244 HD
ENDBRANCH  33  35
ENDBRANCH  26  31
ENDBRANCH  24  26
ENDBRANCH  19  22
ENDBRANCH  15  16
ENDBRANCH  11  14
ENDBRANCH   7   8
ENDBRANCH   2   7
TORSDOF 10
ENDMDL
MODEL 8
REMARK VINA RESULT:      -4.6      2.414     12.411
REMARK  10 active torsions:
REMARK  status: ('A' for Active; 'I' for Inactive)
REMARK    1  A    between atoms: O_2  and  C_18 
REMARK    2  A    between atoms: O_5  and  N_8 
REMARK    3  A    between atoms: N_6  and  C_11 
REMARK    4  A    between atoms: N_7  and  C_15 
REMARK       I    between atoms: N_7  and  C_24 
REMARK       I    between atoms: N_8  and  C_23 
REMARK    5  A    between atoms: C_11  and  C_14 
REMARK    6  A    between atoms: C_15  and  C_18 
REMARK    7  A    between atoms: C_15  and  C_23 
REMARK    8  A    between atoms: C_21  and  C_26 
REMARK    9  A    between atoms: C_24  and  C_25 
REMARK   10  A    between atoms: C_29  and  C_32 
ROOT
HETATM    1  O   UNK     0       3.350  14.907  93.181  0.00  0.00    -0.388 OA
HETATM    2  N   UNK     0       3.004  13.711  90.621  0.00  0.00     0.096 N 
HETATM    3  C   UNK     0       2.139  13.359  91.756  0.00  0.00     0.299 C 
HETATM    4  C   UNK     0       4.329  14.119  91.106  0.00  0.00     0.299 C 
HETATM    5  C   UNK     0       2.048  14.539  92.721  0.00  0.00     0.198 C 
HETATM    6  C   UNK     0       4.187  15.280  92.086  0.00  0.00     0.198 C 
ENDROOT
BRANCH   2   7
HETATM    7  C   UNK     0       3.114  12.591  89.688  0.00  0.00     0.311 C 
BRANCH   7   8
HETATM    8  C   UNK     0       4.179  11.625  90.084  0.00  0.00    -0.030 A 
HETATM    9  C   UNK     0       3.920  10.666  91.063  0.00  0.00     0.010 A 
HETATM   10  C   UNK     0       4.916   9.763  91.436  0.00  0.00     0.021 A 
HETATM   11  C   UNK     0       6.169   9.819  90.826  0.00  0.00     0.018 A 
HETATM   12  C   UNK     0       6.429  10.776  89.848  0.00  0.00     0.021 A 
HETATM   13  C   UNK     0       5.433  11.680  89.476  0.00  0.00     0.010 A 
BRANCH  11  14
HETATM   14  C   UNK     0       7.190   8.892  91.207  0.00  0.00    -0.061 C 
HETATM   15  C   UNK     0       8.048   8.112  91.527  0.00  0.00    -0.061 C 
BRANCH  15  16
HETATM   16  C   UNK     0       9.067   7.186  91.908  0.00  0.00     0.018 A 
HETATM   17  C   UNK     0       9.529   7.162  93.224  0.00  0.00     0.022 A 
HETATM   18  C   UNK     0      10.523   6.257  93.597  0.00  0.00     0.018 A 
HETATM   19  C   UNK     0      11.033   5.397  92.647  0.00  0.00     0.032 A 
HETATM   20  C   UNK     0      10.594   5.402  91.339  0.00  0.00     0.018 A 
HETATM   21  C   UNK     0       9.601   6.307  90.966  0.00  0.00     0.022 A 
BRANCH  19  22
HETATM   22  C   UNK     0      12.093   4.435  93.044  0.00  0.00     0.252 C 
HETATM   23  O   UNK     0      11.905   3.702  94.012  0.00  0.00    -0.268 OA
HETATM   24  N   UNK     0      13.233   4.426  92.252  0.00  0.00    -0.341 N 
HETATM   25  H   UNK     0      13.307   5.043  91.453  0.00  0.00     0.163 HD
BRANCH  24  26
HETATM   26  C   UNK     0      14.338   3.533  92.495  0.00  0.00     0.207 C 
BRANCH  26  27
HETATM   27  C   UNK     0      15.112   3.879  93.773  0.00  0.00     0.146 C 
HETATM   28  C   UNK     0      16.209   2.867  94.083  0.00  0.00     0.042 C 
BRANCH  27  29
HETATM   29  O   UNK     0      15.699   5.173  93.639  0.00  0.00    -0.393 OA
HETATM   30  H   UNK     0      16.366   5.134  92.933  0.00  0.00     0.210 HD
ENDBRANCH  27  29
ENDBRANCH  26  27
BRANCH  26  31
HETATM   31  C   UNK     0      13.786   2.112  92.549  0.00  0.00     0.266 C 
HETATM   32  O   UNK     0      14.332   1.205  93.173  0.00  0.00    -0.269 OA
HETATM   33  N   UNK     0      12.646   1.969  91.795  0.00  0.00    -0.236 N 
HETATM   34  H   UNK     0      12.221   2.670  91.199  0.00  0.00     0.197 HD
BRANCH  33  35
HETATM   35  O   UNK     0      12.095   0.680  91.760  0.00  0.00    -0.287 OA
HETATM   36  H   UNK     0      12.494   0.299  92.561  0.00  0.00     0.244 HD
ENDBRANCH  33  35
ENDBRANCH  26  31
ENDBRANCH  24  26
ENDBRANCH  19  22
ENDBRANCH  15  16
ENDBRANCH  11  14
ENDBRANCH   7   8
ENDBRANCH   2   7
TORSDOF 10
ENDMDL
MODEL 9
REMARK VINA RESULT:      -4.2      2.373     12.469
REMARK  10 active torsions:
REMARK  status: ('A' for Active; 'I' for Inactive)
REMARK    1  A    between atoms: O_2  and  C_18 
REMARK    2  A    between atoms: O_5  and  N_8 
REMARK    3  A    between atoms: N_6  and  C_11 
REMARK    4  A    between atoms: N_7  and  C_15 
REMARK       I    between atoms: N_7  and  C_24 
REMARK       I    between atoms: N_8  and  C_23 
REMARK    5  A    between atoms: C_11  and  C_14 
REMARK    6  A    between atoms: C_15  and  C_18 
REMARK    7  A    between atoms: C_15  and  C_23 
REMARK    8  A    between atoms: C_21  and  C_26 
REMARK    9  A    between atoms: C_24  and  C_25 
REMARK   10  A    between atoms: C_29  and  C_32 
ROOT
HETATM    1  O   UNK     0       3.519  14.569  89.634  0.00  0.00    -0.388 OA
HETATM    2  N   UNK     0       2.803  13.962  92.322  0.00  0.00     0.096 N 
HETATM    3  C   UNK     0       4.093  14.584  91.992  0.00  0.00     0.299 C 
HETATM    4  C   UNK     0       2.342  13.136  91.199  0.00  0.00     0.299 C 
HETATM    5  C   UNK     0       3.961  15.400  90.709  0.00  0.00     0.198 C 
HETATM    6  C   UNK     0       2.251  13.985  89.934  0.00  0.00     0.198 C 
ENDROOT
BRANCH   2   7
HETATM    7  C   UNK     0       2.909  13.166  93.543  0.00  0.00     0.311 C 
BRANCH   7   8
HETATM    8  C   UNK     0       3.891  12.052  93.411  0.00  0.00    -0.030 A 
HETATM    9  C   UNK     0       5.192  12.210  93.891  0.00  0.00     0.010 A 
HETATM   10  C   UNK     0       6.112  11.169  93.766  0.00  0.00     0.021 A 
HETATM   11  C   UNK     0       5.731   9.971  93.164  0.00  0.00     0.018 A 
HETATM   12  C   UNK     0       4.432   9.812  92.686  0.00  0.00     0.021 A 
HETATM   13  C   UNK     0       3.512  10.853  92.809  0.00  0.00     0.010 A 
BRANCH  11  14
HETATM   14  C   UNK     0       6.674   8.902  93.039  0.00  0.00    -0.061 C 
HETATM   15  C   UNK     0       7.466   8.004  92.933  0.00  0.00    -0.061 C 
BRANCH  15  16
HETATM   16  C   UNK     0       8.409   6.937  92.809  0.00  0.00     0.018 A 
HETATM   17  C   UNK     0       9.545   6.914  93.619  0.00  0.00     0.022 A 
HETATM   18  C   UNK     0      10.464   5.871  93.500  0.00  0.00     0.018 A 
HETATM   19  C   UNK     0      10.227   4.876  92.575  0.00  0.00     0.032 A 
HETATM   20  C   UNK     0       9.112   4.877  91.762  0.00  0.00     0.018 A 
HETATM   21  C   UNK     0       8.193   5.919  91.881  0.00  0.00     0.022 A 
BRANCH  19  22
HETATM   22  C   UNK     0      11.207   3.767  92.446  0.00  0.00     0.252 C 
HETATM   23  O   UNK     0      10.809   2.649  92.129  0.00  0.00    -0.268 OA
HETATM   24  N   UNK     0      12.535   4.099  92.679  0.00  0.00    -0.341 N 
HETATM   25  H   UNK     0      12.792   5.050  92.913  0.00  0.00     0.163 HD
BRANCH  24  26
HETATM   26  C   UNK     0      13.604   3.139  92.570  0.00  0.00     0.207 C 
BRANCH  26  27
HETATM   27  C   UNK     0      14.063   2.924  91.122  0.00  0.00     0.146 C 
HETATM   28  C   UNK     0      13.811   4.143  90.243  0.00  0.00     0.042 C 
BRANCH  27  29
HETATM   29  O   UNK     0      15.457   2.619  91.104  0.00  0.00    -0.393 OA
HETATM   30  H   UNK     0      15.917   3.258  91.674  0.00  0.00     0.210 HD
ENDBRANCH  27  29
ENDBRANCH  26  27
BRANCH  26  31
HETATM   31  C   UNK     0      14.753   3.621  93.450  0.00  0.00     0.266 C 
HETATM   32  O   UNK     0      14.698   4.651  94.119  0.00  0.00    -0.269 OA
HETATM   33  N   UNK     0      15.849   2.796  93.371  0.00  0.00    -0.236 N 
HETATM   34  H   UNK     0      15.960   1.992  92.765  0.00  0.00     0.197 HD
BRANCH  33  35
HETATM   35  O   UNK     0      16.965   3.190  94.123  0.00  0.00    -0.287 OA
HETATM   36  H   UNK     0      16.942   2.524  94.831  0.00  0.00     0.244 HD
ENDBRANCH  33  35
ENDBRANCH  26  31
ENDBRANCH  24  26
ENDBRANCH  19  22
ENDBRANCH  15  16
ENDBRANCH  11  14
ENDBRANCH   7   8
ENDBRANCH   2   7
TORSDOF 10
ENDMDL
