MODEL 1
REMARK VINA RESULT:      -7.4      0.000      0.000
REMARK  9 active torsions:
REMARK  status: ('A' for Active; 'I' for Inactive)
REMARK    1  A    between atoms: O_2  and  C_17 
REMARK    2  A    between atoms: N_5  and  C_10 
REMARK    3  A    between atoms: N_6  and  C_14 
REMARK       I    between atoms: N_6  and  C_23 
REMARK       I    between atoms: N_7  and  C_22 
REMARK    4  A    between atoms: C_10  and  C_13 
REMARK    5  A    between atoms: C_14  and  C_17 
REMARK    6  A    between atoms: C_14  and  C_22 
REMARK    7  A    between atoms: C_20  and  C_25 
REMARK    8  A    between atoms: C_23  and  C_24 
REMARK    9  A    between atoms: C_28  and  C_31 
ROOT
HETATM    1  O   UNL     1      16.154   3.955  94.111  1.00  0.00    -0.388 OA
HETATM    2  N   UNL     1      14.210   2.613  92.523  1.00  0.00     0.096 N 
HETATM    3  C   UNL     1      14.310   4.079  92.537  1.00  0.00     0.299 C 
HETATM    4  C   UNL     1      14.664   2.065  93.809  1.00  0.00     0.299 C 
HETATM    5  C   UNL     1      15.745   4.495  92.853  1.00  0.00     0.198 C 
HETATM    6  C   UNL     1      16.088   2.528  94.096  1.00  0.00     0.198 C 
ENDROOT
BRANCH   2   7
HETATM    7  C   UNL     1      12.840   2.191  92.233  1.00  0.00     0.311 C 
BRANCH   7   8
HETATM    8  C   UNL     1      11.946   3.341  91.918  1.00  0.00    -0.030 A 
HETATM    9  C   UNL     1      11.734   3.716  90.591  1.00  0.00     0.010 A 
HETATM   10  C   UNL     1      10.899   4.793  90.295  1.00  0.00     0.021 A 
HETATM   11  C   UNL     1      10.276   5.494  91.327  1.00  0.00     0.018 A 
HETATM   12  C   UNL     1      10.487   5.121  92.653  1.00  0.00     0.021 A 
HETATM   13  C   UNL     1      11.322   4.044  92.949  1.00  0.00     0.010 A 
BRANCH  11  14
HETATM   14  C   UNL     1       9.418   6.599  91.024  1.00  0.00    -0.061 C 
HETATM   15  C   UNL     1       8.698   7.527  90.769  1.00  0.00    -0.061 C 
BRANCH  15  16
HETATM   16  C   UNL     1       7.841   8.631  90.465  1.00  0.00     0.018 A 
HETATM   17  C   UNL     1       8.331   9.712  89.733  1.00  0.00     0.022 A 
HETATM   18  C   UNL     1       7.495  10.787  89.434  1.00  0.00     0.018 A 
HETATM   19  C   UNL     1       6.188  10.757  89.874  1.00  0.00     0.032 A 
HETATM   20  C   UNL     1       5.679   9.700  90.600  1.00  0.00     0.018 A 
HETATM   21  C   UNL     1       6.515   8.624  90.899  1.00  0.00     0.022 A 
BRANCH  19  22
HETATM   22  C   UNL     1       5.297  11.904  89.557  1.00  0.00     0.252 C 
HETATM   23  O   UNL     1       5.064  12.175  88.382  1.00  0.00    -0.268 OA
HETATM   24  N   UNL     1       4.767  12.581  90.647  1.00  0.00    -0.342 N 
HETATM   25  H   UNL     1       4.985  12.284  91.590  1.00  0.00     0.163 HD
BRANCH  24  26
HETATM   26  C   UNL     1       3.868  13.698  90.503  1.00  0.00     0.199 C 
BRANCH  26  27
HETATM   27  C   UNL     1       2.838  13.781  91.637  1.00  0.00     0.145 C 
HETATM   28  C   UNL     1       1.995  12.516  91.753  1.00  0.00     0.042 C 
BRANCH  27  29
HETATM   29  O   UNL     1       3.510  14.005  92.876  1.00  0.00    -0.393 OA
HETATM   30  H   UNL     1       4.447  14.179  92.688  1.00  0.00     0.210 HD
ENDBRANCH  27  29
ENDBRANCH  26  27
BRANCH  26  31
HETATM   31  C   UNL     1       4.711  14.967  90.426  1.00  0.00     0.220 C 
HETATM   32  O   UNL     1       5.023  15.624  91.417  1.00  0.00    -0.278 OA
HETATM   33  N   UNL     1       5.037  15.295  89.132  1.00  0.00    -0.271 NA
HETATM   34  H   UNL     1       4.723  14.828  88.290  1.00  0.00     0.127 HD
HETATM   35  H   UNL     1       4.543  16.352  88.351  1.00  0.00     0.127 HD
ENDBRANCH  26  31
ENDBRANCH  24  26
ENDBRANCH  19  22
ENDBRANCH  15  16
ENDBRANCH  11  14
ENDBRANCH   7   8
ENDBRANCH   2   7
TORSDOF 9
ENDMDL
