MODEL 1
REMARK VINA RESULT:      -6.2      0.000      0.000
REMARK  12 active torsions:
REMARK  status: ('A' for Active; 'I' for Inactive)
REMARK    1  A    between atoms: O_2  and  C_16 
REMARK    2  A    between atoms: N_5  and  C_9 
REMARK    3  A    between atoms: N_6  and  C_13 
REMARK       I    between atoms: N_6  and  C_22 
REMARK    4  A    between atoms: C_9  and  C_12 
REMARK    5  A    between atoms: C_13  and  C_16 
REMARK    6  A    between atoms: C_13  and  C_21 
REMARK    7  A    between atoms: C_19  and  C_24 
REMARK    8  A    between atoms: C_21  and  C_33 
REMARK    9  A    between atoms: C_22  and  C_23 
REMARK   10  A    between atoms: C_27  and  C_30 
REMARK   11  A    between atoms: C_33  and  C_34 
REMARK   12  A    between atoms: C_34  and  C_35 
ROOT
HETATM    1  O   UNL     1      16.593   3.265  94.044  1.00  0.00    -0.350 OA
HETATM    2  N   UNL     1      14.145   3.093  92.601  1.00  0.00     0.147 N 
HETATM    3  C   UNL     1      14.984   1.909  92.835  1.00  0.00     0.283 C 
HETATM    4  C   UNL     1      14.981   4.301  92.556  1.00  0.00     0.283 C 
HETATM    5  C   UNL     1      15.785   2.089  94.122  1.00  0.00     0.178 C 
HETATM    6  C   UNL     1      15.783   4.425  93.848  1.00  0.00     0.178 C 
ENDROOT
BRANCH   2   7
HETATM    7  C   UNL     1      13.376   2.947  91.367  1.00  0.00     0.277 C 
BRANCH   7   8
HETATM    8  C   UNL     1      12.179   3.836  91.335  1.00  0.00     0.011 A 
HETATM    9  C   UNL     1      11.403   3.999  92.483  1.00  0.00    -0.002 A 
HETATM   10  C   UNL     1      10.282   4.828  92.453  1.00  0.00     0.008 A 
HETATM   11  C   UNL     1       9.939   5.494  91.277  1.00  0.00     0.042 A 
HETATM   12  C   UNL     1      10.713   5.332  90.130  1.00  0.00     0.008 A 
HETATM   13  C   UNL     1      11.834   4.502  90.159  1.00  0.00    -0.002 A 
BRANCH  11  14
HETATM   14  C   UNL     1       8.789   6.346  91.248  1.00  0.00    -0.059 C 
HETATM   15  C   UNL     1       7.824   7.063  91.224  1.00  0.00    -0.059 C 
BRANCH  15  16
HETATM   16  C   UNL     1       6.676   7.915  91.195  1.00  0.00     0.042 A 
HETATM   17  C   UNL     1       5.581   7.580  90.399  1.00  0.00     0.008 A 
HETATM   18  C   UNL     1       4.460   8.410  90.372  1.00  0.00     0.005 A 
HETATM   19  C   UNL     1       4.460   9.555  91.142  1.00  0.00     0.056 A 
HETATM   20  C   UNL     1       5.530   9.908  91.937  1.00  0.00     0.005 A 
HETATM   21  C   UNL     1       6.652   9.078  91.964  1.00  0.00     0.008 A 
BRANCH  19  22
HETATM   22  C   UNL     1       3.266  10.439  91.112  1.00  0.00     0.254 C 
HETATM   23  O   UNL     1       2.187   9.978  90.751  1.00  0.00    -0.268 OA
HETATM   24  N   UNL     1       3.469  11.748  91.529  1.00  0.00    -0.335 N 
HETATM   25  HN  UNL     1       4.385  12.051  91.838  1.00  0.00     0.164 HD
BRANCH  24  26
HETATM   26  C   UNL     1       2.406  12.719  91.580  1.00  0.00     0.166 C 
BRANCH  26  27
HETATM   27  C   UNL     1       2.208  13.309  92.982  1.00  0.00     0.138 C 
HETATM   28  C   UNL     1       3.518  13.445  93.749  1.00  0.00     0.034 C 
BRANCH  27  29
HETATM   29  O   UNL     1       1.598  14.595  92.876  1.00  0.00    -0.383 OA
HETATM   30  H   UNL     1       2.070  15.102  92.194  1.00  0.00     0.210 HD
ENDBRANCH  27  29
ENDBRANCH  26  27
BRANCH  26  31
HETATM   31  C   UNL     1       2.720  13.807  90.559  1.00  0.00     0.181 C 
HETATM   32  O   UNL     1       1.926  14.698  90.264  1.00  0.00    -0.294 OA
BRANCH  31  33
HETATM   33  C   UNL     1       4.128  14.545  90.880  1.00  0.00     0.138 C 
BRANCH  33  34
HETATM   34  C   UNL     1       4.744  14.522  89.609  1.00  0.00     0.208 C 
HETATM   35  O   UNL     1       5.261  15.555  89.249  1.00  0.00    -0.289 OA
BRANCH  34  36
HETATM   36  C   UNL     1       5.117  13.466  88.823  1.00  0.00     0.194 C 
HETATM   37  O   UNL     1       5.187  13.357  87.430  1.00  0.00    -0.185 OA
ENDBRANCH  34  36
ENDBRANCH  33  34
ENDBRANCH  31  33
ENDBRANCH  26  31
ENDBRANCH  24  26
ENDBRANCH  19  22
ENDBRANCH  15  16
ENDBRANCH  11  14
ENDBRANCH   7   8
ENDBRANCH   2   7
TORSDOF 12
ENDMDL
MODEL 2
REMARK VINA RESULT:      -5.6      1.056      1.537
REMARK  12 active torsions:
REMARK  status: ('A' for Active; 'I' for Inactive)
REMARK    1  A    between atoms: O_2  and  C_16 
REMARK    2  A    between atoms: N_5  and  C_9 
REMARK    3  A    between atoms: N_6  and  C_13 
REMARK       I    between atoms: N_6  and  C_22 
REMARK    4  A    between atoms: C_9  and  C_12 
REMARK    5  A    between atoms: C_13  and  C_16 
REMARK    6  A    between atoms: C_13  and  C_21 
REMARK    7  A    between atoms: C_19  and  C_24 
REMARK    8  A    between atoms: C_21  and  C_33 
REMARK    9  A    between atoms: C_22  and  C_23 
REMARK   10  A    between atoms: C_27  and  C_30 
REMARK   11  A    between atoms: C_33  and  C_34 
REMARK   12  A    between atoms: C_34  and  C_35 
ROOT
HETATM    1  O   UNL     1      16.818   2.988  93.866  1.00  0.00    -0.350 OA
HETATM    2  N   UNL     1      14.202   3.021  92.745  1.00  0.00     0.147 N 
HETATM    3  C   UNL     1      14.931   1.762  92.958  1.00  0.00     0.283 C 
HETATM    4  C   UNL     1      15.150   4.119  92.515  1.00  0.00     0.283 C 
HETATM    5  C   UNL     1      15.905   1.920  94.123  1.00  0.00     0.178 C 
HETATM    6  C   UNL     1      16.119   4.221  93.689  1.00  0.00     0.178 C 
ENDROOT
BRANCH   2   7
HETATM    7  C   UNL     1      13.270   2.896  91.626  1.00  0.00     0.277 C 
BRANCH   7   8
HETATM    8  C   UNL     1      12.146   3.872  91.711  1.00  0.00     0.011 A 
HETATM    9  C   UNL     1      11.645   4.250  92.958  1.00  0.00    -0.002 A 
HETATM   10  C   UNL     1      10.592   5.161  93.039  1.00  0.00     0.008 A 
HETATM   11  C   UNL     1      10.043   5.695  91.874  1.00  0.00     0.042 A 
HETATM   12  C   UNL     1      10.543   5.319  90.629  1.00  0.00     0.008 A 
HETATM   13  C   UNL     1      11.595   4.407  90.547  1.00  0.00    -0.002 A 
BRANCH  11  14
HETATM   14  C   UNL     1       8.964   6.632  91.957  1.00  0.00    -0.059 C 
HETATM   15  C   UNL     1       8.058   7.419  92.028  1.00  0.00    -0.059 C 
BRANCH  15  16
HETATM   16  C   UNL     1       6.981   8.355  92.112  1.00  0.00     0.042 A 
HETATM   17  C   UNL     1       7.084   9.461  92.956  1.00  0.00     0.008 A 
HETATM   18  C   UNL     1       6.034  10.376  93.036  1.00  0.00     0.005 A 
HETATM   19  C   UNL     1       4.906  10.165  92.270  1.00  0.00     0.056 A 
HETATM   20  C   UNL     1       4.780   9.080  91.428  1.00  0.00     0.005 A 
HETATM   21  C   UNL     1       5.829   8.164  91.348  1.00  0.00     0.008 A 
BRANCH  19  22
HETATM   22  C   UNL     1       3.787  11.139  92.357  1.00  0.00     0.254 C 
HETATM   23  O   UNL     1       2.635  10.722  92.447  1.00  0.00    -0.268 OA
HETATM   24  N   UNL     1       4.146  12.480  92.352  1.00  0.00    -0.335 N 
HETATM   25  HN  UNL     1       5.122  12.749  92.300  1.00  0.00     0.164 HD
BRANCH  24  26
HETATM   26  C   UNL     1       3.178  13.542  92.454  1.00  0.00     0.166 C 
BRANCH  26  27
HETATM   27  C   UNL     1       3.210  14.245  93.817  1.00  0.00     0.138 C 
HETATM   28  C   UNL     1       4.570  14.863  94.124  1.00  0.00     0.034 C 
BRANCH  27  29
HETATM   29  O   UNL     1       2.218  15.270  93.849  1.00  0.00    -0.383 OA
HETATM   30  H   UNL     1       2.594  16.045  94.299  1.00  0.00     0.210 HD
ENDBRANCH  27  29
ENDBRANCH  26  27
BRANCH  26  31
HETATM   31  C   UNL     1       3.443  14.524  91.318  1.00  0.00     0.181 C 
HETATM   32  O   UNL     1       4.570  14.910  91.015  1.00  0.00    -0.294 OA
BRANCH  31  33
HETATM   33  C   UNL     1       2.741  14.049  89.936  1.00  0.00     0.138 C 
BRANCH  33  34
HETATM   34  C   UNL     1       3.822  13.413  89.285  1.00  0.00     0.208 C 
HETATM   35  O   UNL     1       3.765  12.206  89.214  1.00  0.00    -0.289 OA
BRANCH  34  36
HETATM   36  C   UNL     1       4.790  13.925  88.466  1.00  0.00     0.194 C 
HETATM   37  O   UNL     1       5.984  13.354  88.010  1.00  0.00    -0.185 OA
ENDBRANCH  34  36
ENDBRANCH  33  34
ENDBRANCH  31  33
ENDBRANCH  26  31
ENDBRANCH  24  26
ENDBRANCH  19  22
ENDBRANCH  15  16
ENDBRANCH  11  14
ENDBRANCH   7   8
ENDBRANCH   2   7
TORSDOF 12
ENDMDL
MODEL 3
REMARK VINA RESULT:      -5.4      2.440     12.914
REMARK  12 active torsions:
REMARK  status: ('A' for Active; 'I' for Inactive)
REMARK    1  A    between atoms: O_2  and  C_16 
REMARK    2  A    between atoms: N_5  and  C_9 
REMARK    3  A    between atoms: N_6  and  C_13 
REMARK       I    between atoms: N_6  and  C_22 
REMARK    4  A    between atoms: C_9  and  C_12 
REMARK    5  A    between atoms: C_13  and  C_16 
REMARK    6  A    between atoms: C_13  and  C_21 
REMARK    7  A    between atoms: C_19  and  C_24 
REMARK    8  A    between atoms: C_21  and  C_33 
REMARK    9  A    between atoms: C_22  and  C_23 
REMARK   10  A    between atoms: C_27  and  C_30 
REMARK   11  A    between atoms: C_33  and  C_34 
REMARK   12  A    between atoms: C_34  and  C_35 
ROOT
HETATM    1  O   UNL     1       2.689  14.660  94.119  1.00  0.00    -0.350 OA
HETATM    2  N   UNL     1       2.786  14.734  91.275  1.00  0.00     0.147 N 
HETATM    3  C   UNL     1       1.657  14.122  91.989  1.00  0.00     0.283 C 
HETATM    4  C   UNL     1       4.009  14.631  92.083  1.00  0.00     0.283 C 
HETATM    5  C   UNL     1       1.489  14.784  93.354  1.00  0.00     0.178 C 
HETATM    6  C   UNL     1       3.785  15.280  93.446  1.00  0.00     0.178 C 
ENDROOT
BRANCH   2   7
HETATM    7  C   UNL     1       2.973  14.108  89.968  1.00  0.00     0.277 C 
BRANCH   7   8
HETATM    8  C   UNL     1       3.962  12.993  90.008  1.00  0.00     0.011 A 
HETATM    9  C   UNL     1       5.095  13.037  89.195  1.00  0.00    -0.002 A 
HETATM   10  C   UNL     1       6.020  11.994  89.231  1.00  0.00     0.008 A 
HETATM   11  C   UNL     1       5.813  10.908  90.081  1.00  0.00     0.042 A 
HETATM   12  C   UNL     1       4.682  10.863  90.893  1.00  0.00     0.008 A 
HETATM   13  C   UNL     1       3.756  11.906  90.858  1.00  0.00    -0.002 A 
BRANCH  11  14
HETATM   14  C   UNL     1       6.763   9.839  90.119  1.00  0.00    -0.059 C 
HETATM   15  C   UNL     1       7.561   8.940  90.152  1.00  0.00    -0.059 C 
BRANCH  15  16
HETATM   16  C   UNL     1       8.509   7.871  90.189  1.00  0.00     0.042 A 
HETATM   17  C   UNL     1       9.139   7.457  89.015  1.00  0.00     0.008 A 
HETATM   18  C   UNL     1      10.067   6.416  89.053  1.00  0.00     0.005 A 
HETATM   19  C   UNL     1      10.344   5.813  90.262  1.00  0.00     0.056 A 
HETATM   20  C   UNL     1       9.734   6.204  91.436  1.00  0.00     0.005 A 
HETATM   21  C   UNL     1       8.807   7.245  91.400  1.00  0.00     0.008 A 
BRANCH  19  22
HETATM   22  C   UNL     1      11.331   4.703  90.302  1.00  0.00     0.254 C 
HETATM   23  O   UNL     1      11.474   3.993  89.310  1.00  0.00    -0.268 OA
HETATM   24  N   UNL     1      12.048   4.569  91.482  1.00  0.00    -0.335 N 
HETATM   25  HN  UNL     1      11.894   5.209  92.252  1.00  0.00     0.164 HD
BRANCH  24  26
HETATM   26  C   UNL     1      13.057   3.557  91.665  1.00  0.00     0.166 C 
BRANCH  26  27
HETATM   27  C   UNL     1      14.397   3.930  91.018  1.00  0.00     0.138 C 
HETATM   28  C   UNL     1      14.780   2.986  89.884  1.00  0.00     0.034 C 
BRANCH  27  29
HETATM   29  O   UNL     1      14.327   5.261  90.509  1.00  0.00    -0.383 OA
HETATM   30  H   UNL     1      13.949   5.226  89.614  1.00  0.00     0.210 HD
ENDBRANCH  27  29
ENDBRANCH  26  27
BRANCH  26  31
HETATM   31  C   UNL     1      13.213   3.320  93.164  1.00  0.00     0.181 C 
HETATM   32  O   UNL     1      12.274   3.003  93.893  1.00  0.00    -0.294 OA
BRANCH  31  33
HETATM   33  C   UNL     1      14.410   2.276  93.488  1.00  0.00     0.138 C 
BRANCH  33  34
HETATM   34  C   UNL     1      15.435   3.155  93.900  1.00  0.00     0.208 C 
HETATM   35  O   UNL     1      16.563   2.722  93.841  1.00  0.00    -0.289 OA
BRANCH  34  36
HETATM   36  C   UNL     1      15.421   4.510  94.087  1.00  0.00     0.194 C 
HETATM   37  O   UNL     1      16.458   5.446  94.008  1.00  0.00    -0.185 OA
ENDBRANCH  34  36
ENDBRANCH  33  34
ENDBRANCH  31  33
ENDBRANCH  26  31
ENDBRANCH  24  26
ENDBRANCH  19  22
ENDBRANCH  15  16
ENDBRANCH  11  14
ENDBRANCH   7   8
ENDBRANCH   2   7
TORSDOF 12
ENDMDL
MODEL 4
REMARK VINA RESULT:      -4.5      2.853     12.415
REMARK  12 active torsions:
REMARK  status: ('A' for Active; 'I' for Inactive)
REMARK    1  A    between atoms: O_2  and  C_16 
REMARK    2  A    between atoms: N_5  and  C_9 
REMARK    3  A    between atoms: N_6  and  C_13 
REMARK       I    between atoms: N_6  and  C_22 
REMARK    4  A    between atoms: C_9  and  C_12 
REMARK    5  A    between atoms: C_13  and  C_16 
REMARK    6  A    between atoms: C_13  and  C_21 
REMARK    7  A    between atoms: C_19  and  C_24 
REMARK    8  A    between atoms: C_21  and  C_33 
REMARK    9  A    between atoms: C_22  and  C_23 
REMARK   10  A    between atoms: C_27  and  C_30 
REMARK   11  A    between atoms: C_33  and  C_34 
REMARK   12  A    between atoms: C_34  and  C_35 
ROOT
HETATM    1  O   UNL     1       3.023  14.827  94.032  1.00  0.00    -0.350 OA
HETATM    2  N   UNL     1       2.663  14.846  91.209  1.00  0.00     0.147 N 
HETATM    3  C   UNL     1       1.739  14.126  92.096  1.00  0.00     0.283 C 
HETATM    4  C   UNL     1       4.001  14.901  91.813  1.00  0.00     0.283 C 
HETATM    5  C   UNL     1       1.711  14.796  93.467  1.00  0.00     0.178 C 
HETATM    6  C   UNL     1       3.920  15.552  93.190  1.00  0.00     0.178 C 
ENDROOT
BRANCH   2   7
HETATM    7  C   UNL     1       2.713  14.214  89.891  1.00  0.00     0.277 C 
BRANCH   7   8
HETATM    8  C   UNL     1       3.690  13.089  89.838  1.00  0.00     0.011 A 
HETATM    9  C   UNL     1       4.943  13.282  89.256  1.00  0.00    -0.002 A 
HETATM   10  C   UNL     1       5.857  12.230  89.203  1.00  0.00     0.008 A 
HETATM   11  C   UNL     1       5.518  10.986  89.734  1.00  0.00     0.042 A 
HETATM   12  C   UNL     1       4.266  10.792  90.316  1.00  0.00     0.008 A 
HETATM   13  C   UNL     1       3.352  11.844  90.368  1.00  0.00    -0.002 A 
BRANCH  11  14
HETATM   14  C   UNL     1       6.456   9.907  89.682  1.00  0.00    -0.059 C 
HETATM   15  C   UNL     1       7.244   9.000  89.639  1.00  0.00    -0.059 C 
BRANCH  15  16
HETATM   16  C   UNL     1       8.181   7.922  89.586  1.00  0.00     0.042 A 
HETATM   17  C   UNL     1       9.436   8.117  89.008  1.00  0.00     0.008 A 
HETATM   18  C   UNL     1      10.351   7.065  88.960  1.00  0.00     0.005 A 
HETATM   19  C   UNL     1       9.991   5.844  89.489  1.00  0.00     0.056 A 
HETATM   20  C   UNL     1       8.757   5.625  90.065  1.00  0.00     0.005 A 
HETATM   21  C   UNL     1       7.841   6.676  90.114  1.00  0.00     0.008 A 
BRANCH  19  22
HETATM   22  C   UNL     1      10.966   4.723  89.435  1.00  0.00     0.254 C 
HETATM   23  O   UNL     1      11.026   4.029  88.423  1.00  0.00    -0.268 OA
HETATM   24  N   UNL     1      11.769   4.562  90.555  1.00  0.00    -0.335 N 
HETATM   25  HN  UNL     1      11.680   5.190  91.345  1.00  0.00     0.164 HD
BRANCH  24  26
HETATM   26  C   UNL     1      12.778   3.536  90.645  1.00  0.00     0.166 C 
BRANCH  26  27
HETATM   27  C   UNL     1      14.185   4.106  90.869  1.00  0.00     0.138 C 
HETATM   28  C   UNL     1      14.471   4.393  92.338  1.00  0.00     0.034 C 
BRANCH  27  29
HETATM   29  O   UNL     1      15.157   3.182  90.379  1.00  0.00    -0.383 OA
HETATM   30  H   UNL     1      15.877   3.124  91.029  1.00  0.00     0.210 HD
ENDBRANCH  27  29
ENDBRANCH  26  27
BRANCH  26  31
HETATM   31  C   UNL     1      12.378   2.587  91.769  1.00  0.00     0.181 C 
HETATM   32  O   UNL     1      12.990   1.550  92.020  1.00  0.00    -0.294 OA
BRANCH  31  33
HETATM   33  C   UNL     1      12.209   3.364  93.182  1.00  0.00     0.138 C 
BRANCH  33  34
HETATM   34  C   UNL     1      10.959   3.997  92.997  1.00  0.00     0.208 C 
HETATM   35  O   UNL     1      10.083   3.315  92.519  1.00  0.00    -0.289 OA
BRANCH  34  36
HETATM   36  C   UNL     1      10.469   5.161  93.522  1.00  0.00     0.194 C 
HETATM   37  O   UNL     1      10.283   6.414  92.926  1.00  0.00    -0.185 OA
ENDBRANCH  34  36
ENDBRANCH  33  34
ENDBRANCH  31  33
ENDBRANCH  26  31
ENDBRANCH  24  26
ENDBRANCH  19  22
ENDBRANCH  15  16
ENDBRANCH  11  14
ENDBRANCH   7   8
ENDBRANCH   2   7
TORSDOF 12
ENDMDL
MODEL 5
REMARK VINA RESULT:      -4.1      2.103      3.148
REMARK  12 active torsions:
REMARK  status: ('A' for Active; 'I' for Inactive)
REMARK    1  A    between atoms: O_2  and  C_16 
REMARK    2  A    between atoms: N_5  and  C_9 
REMARK    3  A    between atoms: N_6  and  C_13 
REMARK       I    between atoms: N_6  and  C_22 
REMARK    4  A    between atoms: C_9  and  C_12 
REMARK    5  A    between atoms: C_13  and  C_16 
REMARK    6  A    between atoms: C_13  and  C_21 
REMARK    7  A    between atoms: C_19  and  C_24 
REMARK    8  A    between atoms: C_21  and  C_33 
REMARK    9  A    between atoms: C_22  and  C_23 
REMARK   10  A    between atoms: C_27  and  C_30 
REMARK   11  A    between atoms: C_33  and  C_34 
REMARK   12  A    between atoms: C_34  and  C_35 
ROOT
HETATM    1  O   UNL     1      17.531   4.382  93.586  1.00  0.00    -0.350 OA
HETATM    2  N   UNL     1      15.227   2.765  94.010  1.00  0.00     0.147 N 
HETATM    3  C   UNL     1      16.519   2.177  93.628  1.00  0.00     0.283 C 
HETATM    4  C   UNL     1      15.121   4.132  93.481  1.00  0.00     0.283 C 
HETATM    5  C   UNL     1      17.658   3.064  94.124  1.00  0.00     0.178 C 
HETATM    6  C   UNL     1      16.292   4.973  93.979  1.00  0.00     0.178 C 
ENDROOT
BRANCH   2   7
HETATM    7  C   UNL     1      14.120   1.936  93.535  1.00  0.00     0.277 C 
BRANCH   7   8
HETATM    8  C   UNL     1      12.957   2.749  93.079  1.00  0.00     0.011 A 
HETATM    9  C   UNL     1      12.392   3.698  93.933  1.00  0.00    -0.002 A 
HETATM   10  C   UNL     1      11.303   4.457  93.507  1.00  0.00     0.008 A 
HETATM   11  C   UNL     1      10.780   4.270  92.228  1.00  0.00     0.042 A 
HETATM   12  C   UNL     1      11.344   3.324  91.375  1.00  0.00     0.008 A 
HETATM   13  C   UNL     1      12.433   2.563  91.800  1.00  0.00    -0.002 A 
BRANCH  11  14
HETATM   14  C   UNL     1       9.664   5.051  91.791  1.00  0.00    -0.059 C 
HETATM   15  C   UNL     1       8.726   5.708  91.425  1.00  0.00    -0.059 C 
BRANCH  15  16
HETATM   16  C   UNL     1       7.610   6.489  90.988  1.00  0.00     0.042 A 
HETATM   17  C   UNL     1       6.587   6.803  91.883  1.00  0.00     0.008 A 
HETATM   18  C   UNL     1       5.501   7.567  91.458  1.00  0.00     0.005 A 
HETATM   19  C   UNL     1       5.462   8.001  90.149  1.00  0.00     0.056 A 
HETATM   20  C   UNL     1       6.460   7.703  89.246  1.00  0.00     0.005 A 
HETATM   21  C   UNL     1       7.547   6.939  89.670  1.00  0.00     0.008 A 
BRANCH  19  22
HETATM   22  C   UNL     1       4.304   8.814  89.697  1.00  0.00     0.254 C 
HETATM   23  O   UNL     1       3.419   9.097  90.501  1.00  0.00    -0.268 OA
HETATM   24  N   UNL     1       4.327   9.219  88.369  1.00  0.00    -0.335 N 
HETATM   25  HN  UNL     1       5.104   8.968  87.770  1.00  0.00     0.164 HD
BRANCH  24  26
HETATM   26  C   UNL     1       3.289  10.031  87.788  1.00  0.00     0.166 C 
BRANCH  26  27
HETATM   27  C   UNL     1       1.893   9.417  87.952  1.00  0.00     0.138 C 
HETATM   28  C   UNL     1       1.772   8.055  87.277  1.00  0.00     0.034 C 
BRANCH  27  29
HETATM   29  O   UNL     1       1.593   9.275  89.340  1.00  0.00    -0.383 OA
HETATM   30  H   UNL     1       1.264  10.128  89.669  1.00  0.00     0.210 HD
ENDBRANCH  27  29
ENDBRANCH  26  27
BRANCH  26  31
HETATM   31  C   UNL     1       3.365  11.413  88.429  1.00  0.00     0.181 C 
HETATM   32  O   UNL     1       2.672  11.745  89.389  1.00  0.00    -0.294 OA
BRANCH  31  33
HETATM   33  C   UNL     1       4.888  11.818  88.810  1.00  0.00     0.138 C 
BRANCH  33  34
HETATM   34  C   UNL     1       4.888  13.197  88.507  1.00  0.00     0.208 C 
HETATM   35  O   UNL     1       5.026  13.486  87.340  1.00  0.00    -0.289 OA
BRANCH  34  36
HETATM   36  C   UNL     1       4.478  14.269  89.250  1.00  0.00     0.194 C 
HETATM   37  O   UNL     1       4.941  15.590  89.267  1.00  0.00    -0.185 OA
ENDBRANCH  34  36
ENDBRANCH  33  34
ENDBRANCH  31  33
ENDBRANCH  26  31
ENDBRANCH  24  26
ENDBRANCH  19  22
ENDBRANCH  15  16
ENDBRANCH  11  14
ENDBRANCH   7   8
ENDBRANCH   2   7
TORSDOF 12
ENDMDL
