MODEL 1
REMARK VINA RESULT:      -6.0      0.000      0.000
REMARK  12 active torsions:
REMARK  status: ('A' for Active; 'I' for Inactive)
REMARK    1  A    between atoms: O_2  and  C_16 
REMARK    2  A    between atoms: N_5  and  C_9 
REMARK    3  A    between atoms: N_6  and  C_13 
REMARK       I    between atoms: N_6  and  C_22 
REMARK    4  A    between atoms: C_9  and  C_12 
REMARK    5  A    between atoms: C_13  and  C_16 
REMARK    6  A    between atoms: C_13  and  C_21 
REMARK    7  A    between atoms: C_19  and  C_24 
REMARK    8  A    between atoms: C_21  and  C_33 
REMARK    9  A    between atoms: C_22  and  C_23 
REMARK   10  A    between atoms: C_27  and  C_30 
REMARK   11  A    between atoms: C_33  and  C_34 
REMARK   12  A    between atoms: C_34  and  C_35 
ROOT
HETATM    1  O   UNL     1      16.767   3.614  93.900  1.00  0.00    -0.350 OA
HETATM    2  N   UNL     1      14.233   3.038  92.740  1.00  0.00     0.147 N 
HETATM    3  C   UNL     1      15.242   1.988  92.942  1.00  0.00     0.283 C 
HETATM    4  C   UNL     1      14.891   4.337  92.544  1.00  0.00     0.283 C 
HETATM    5  C   UNL     1      16.137   2.352  94.124  1.00  0.00     0.178 C 
HETATM    6  C   UNL     1      15.794   4.645  93.734  1.00  0.00     0.178 C 
ENDROOT
BRANCH   2   7
HETATM    7  C   UNL     1      13.371   2.715  91.604  1.00  0.00     0.277 C 
BRANCH   7   8
HETATM    8  C   UNL     1      12.164   3.588  91.542  1.00  0.00     0.011 A 
HETATM    9  C   UNL     1      11.768   4.143  90.324  1.00  0.00    -0.002 A 
HETATM   10  C   UNL     1      10.640   4.961  90.265  1.00  0.00     0.008 A 
HETATM   11  C   UNL     1       9.908   5.224  91.422  1.00  0.00     0.042 A 
HETATM   12  C   UNL     1      10.303   4.670  92.639  1.00  0.00     0.008 A 
HETATM   13  C   UNL     1      11.431   3.852  92.699  1.00  0.00    -0.002 A 
BRANCH  11  14
HETATM   14  C   UNL     1       8.750   6.062  91.361  1.00  0.00    -0.059 C 
HETATM   15  C   UNL     1       7.778   6.767  91.309  1.00  0.00    -0.059 C 
BRANCH  15  16
HETATM   16  C   UNL     1       6.621   7.604  91.247  1.00  0.00     0.042 A 
HETATM   17  C   UNL     1       5.931   7.751  90.043  1.00  0.00     0.008 A 
HETATM   18  C   UNL     1       4.801   8.566  89.983  1.00  0.00     0.005 A 
HETATM   19  C   UNL     1       4.385   9.215  91.127  1.00  0.00     0.056 A 
HETATM   20  C   UNL     1       5.050   9.087  92.328  1.00  0.00     0.005 A 
HETATM   21  C   UNL     1       6.181   8.272  92.390  1.00  0.00     0.008 A 
BRANCH  19  22
HETATM   22  C   UNL     1       3.182  10.085  91.062  1.00  0.00     0.254 C 
HETATM   23  O   UNL     1       2.217   9.724  90.393  1.00  0.00    -0.268 OA
HETATM   24  N   UNL     1       3.239  11.257  91.803  1.00  0.00    -0.335 N 
HETATM   25  HN  UNL     1       4.061  11.477  92.353  1.00  0.00     0.164 HD
BRANCH  24  26
HETATM   26  C   UNL     1       2.144  12.191  91.861  1.00  0.00     0.166 C 
BRANCH  26  27
HETATM   27  C   UNL     1       1.491  12.255  93.248  1.00  0.00     0.138 C 
HETATM   28  C   UNL     1       1.315  10.877  93.875  1.00  0.00     0.034 C 
BRANCH  27  29
HETATM   29  O   UNL     1       2.291  13.060  94.115  1.00  0.00    -0.383 OA
HETATM   30  H   UNL     1       3.221  12.803  93.997  1.00  0.00     0.210 HD
ENDBRANCH  27  29
ENDBRANCH  26  27
BRANCH  26  31
HETATM   31  C   UNL     1       2.672  13.556  91.434  1.00  0.00     0.181 C 
HETATM   32  O   UNL     1       2.289  14.611  91.936  1.00  0.00    -0.294 OA
BRANCH  31  33
HETATM   33  C   UNL     1       4.292  13.608  91.455  1.00  0.00     0.138 C 
BRANCH  33  34
HETATM   34  C   UNL     1       4.552  14.490  90.383  1.00  0.00     0.208 C 
HETATM   35  O   UNL     1       5.143  15.508  90.662  1.00  0.00    -0.289 OA
BRANCH  34  36
HETATM   36  C   UNL     1       4.511  14.281  89.031  1.00  0.00     0.194 C 
HETATM   37  O   UNL     1       5.317  13.479  88.215  1.00  0.00    -0.185 OA
ENDBRANCH  34  36
ENDBRANCH  33  34
ENDBRANCH  31  33
ENDBRANCH  26  31
ENDBRANCH  24  26
ENDBRANCH  19  22
ENDBRANCH  15  16
ENDBRANCH  11  14
ENDBRANCH   7   8
ENDBRANCH   2   7
TORSDOF 12
ENDMDL
MODEL 2
REMARK VINA RESULT:      -5.8      1.270      2.067
REMARK  12 active torsions:
REMARK  status: ('A' for Active; 'I' for Inactive)
REMARK    1  A    between atoms: O_2  and  C_16 
REMARK    2  A    between atoms: N_5  and  C_9 
REMARK    3  A    between atoms: N_6  and  C_13 
REMARK       I    between atoms: N_6  and  C_22 
REMARK    4  A    between atoms: C_9  and  C_12 
REMARK    5  A    between atoms: C_13  and  C_16 
REMARK    6  A    between atoms: C_13  and  C_21 
REMARK    7  A    between atoms: C_19  and  C_24 
REMARK    8  A    between atoms: C_21  and  C_33 
REMARK    9  A    between atoms: C_22  and  C_23 
REMARK   10  A    between atoms: C_27  and  C_30 
REMARK   11  A    between atoms: C_33  and  C_34 
REMARK   12  A    between atoms: C_34  and  C_35 
ROOT
HETATM    1  O   UNL     1      16.158   4.372  94.119  1.00  0.00    -0.350 OA
HETATM    2  N   UNL     1      14.507   2.662  92.553  1.00  0.00     0.147 N 
HETATM    3  C   UNL     1      14.318   4.120  92.557  1.00  0.00     0.283 C 
HETATM    4  C   UNL     1      15.067   2.224  93.839  1.00  0.00     0.283 C 
HETATM    5  C   UNL     1      15.645   4.812  92.861  1.00  0.00     0.178 C 
HETATM    6  C   UNL     1      16.374   2.960  94.113  1.00  0.00     0.178 C 
ENDROOT
BRANCH   2   7
HETATM    7  C   UNL     1      13.246   1.978  92.274  1.00  0.00     0.277 C 
BRANCH   7   8
HETATM    8  C   UNL     1      12.096   2.922  92.178  1.00  0.00     0.011 A 
HETATM    9  C   UNL     1      11.689   3.641  93.302  1.00  0.00    -0.002 A 
HETATM   10  C   UNL     1      10.612   4.523  93.214  1.00  0.00     0.008 A 
HETATM   11  C   UNL     1       9.945   4.688  92.000  1.00  0.00     0.042 A 
HETATM   12  C   UNL     1      10.352   3.971  90.876  1.00  0.00     0.008 A 
HETATM   13  C   UNL     1      11.428   3.088  90.965  1.00  0.00    -0.002 A 
BRANCH  11  14
HETATM   14  C   UNL     1       8.842   5.594  91.909  1.00  0.00    -0.059 C 
HETATM   15  C   UNL     1       7.915   6.356  91.832  1.00  0.00    -0.059 C 
BRANCH  15  16
HETATM   16  C   UNL     1       6.813   7.262  91.740  1.00  0.00     0.042 A 
HETATM   17  C   UNL     1       5.517   6.768  91.589  1.00  0.00     0.008 A 
HETATM   18  C   UNL     1       4.441   7.651  91.502  1.00  0.00     0.005 A 
HETATM   19  C   UNL     1       4.685   9.007  91.568  1.00  0.00     0.056 A 
HETATM   20  C   UNL     1       5.956   9.520  91.716  1.00  0.00     0.005 A 
HETATM   21  C   UNL     1       7.033   8.638  91.803  1.00  0.00     0.008 A 
BRANCH  19  22
HETATM   22  C   UNL     1       3.538   9.948  91.474  1.00  0.00     0.254 C 
HETATM   23  O   UNL     1       2.407   9.500  91.301  1.00  0.00    -0.268 OA
HETATM   24  N   UNL     1       3.844  11.295  91.616  1.00  0.00    -0.335 N 
HETATM   25  HN  UNL     1       4.799  11.589  91.781  1.00  0.00     0.164 HD
BRANCH  24  26
HETATM   26  C   UNL     1       2.839  12.326  91.573  1.00  0.00     0.166 C 
BRANCH  26  27
HETATM   27  C   UNL     1       2.879  13.246  92.800  1.00  0.00     0.138 C 
HETATM   28  C   UNL     1       4.232  13.928  92.974  1.00  0.00     0.034 C 
BRANCH  27  29
HETATM   29  O   UNL     1       1.868  14.246  92.680  1.00  0.00    -0.383 OA
HETATM   30  H   UNL     1       1.436  14.141  91.816  1.00  0.00     0.210 HD
ENDBRANCH  27  29
ENDBRANCH  26  27
BRANCH  26  31
HETATM   31  C   UNL     1       3.036  13.115  90.282  1.00  0.00     0.181 C 
HETATM   32  O   UNL     1       2.745  14.305  90.173  1.00  0.00    -0.294 OA
BRANCH  31  33
HETATM   33  C   UNL     1       4.545  12.964  89.709  1.00  0.00     0.138 C 
BRANCH  33  34
HETATM   34  C   UNL     1       4.296  12.462  88.412  1.00  0.00     0.208 C 
HETATM   35  O   UNL     1       4.848  13.038  87.503  1.00  0.00    -0.289 OA
BRANCH  34  36
HETATM   36  C   UNL     1       3.768  11.265  88.010  1.00  0.00     0.194 C 
HETATM   37  O   UNL     1       2.470  10.759  88.141  1.00  0.00    -0.185 OA
ENDBRANCH  34  36
ENDBRANCH  33  34
ENDBRANCH  31  33
ENDBRANCH  26  31
ENDBRANCH  24  26
ENDBRANCH  19  22
ENDBRANCH  15  16
ENDBRANCH  11  14
ENDBRANCH   7   8
ENDBRANCH   2   7
TORSDOF 12
ENDMDL
MODEL 3
REMARK VINA RESULT:      -5.7      2.606      3.409
REMARK  12 active torsions:
REMARK  status: ('A' for Active; 'I' for Inactive)
REMARK    1  A    between atoms: O_2  and  C_16 
REMARK    2  A    between atoms: N_5  and  C_9 
REMARK    3  A    between atoms: N_6  and  C_13 
REMARK       I    between atoms: N_6  and  C_22 
REMARK    4  A    between atoms: C_9  and  C_12 
REMARK    5  A    between atoms: C_13  and  C_16 
REMARK    6  A    between atoms: C_13  and  C_21 
REMARK    7  A    between atoms: C_19  and  C_24 
REMARK    8  A    between atoms: C_21  and  C_33 
REMARK    9  A    between atoms: C_22  and  C_23 
REMARK   10  A    between atoms: C_27  and  C_30 
REMARK   11  A    between atoms: C_33  and  C_34 
REMARK   12  A    between atoms: C_34  and  C_35 
ROOT
HETATM    1  O   UNL     1      17.476   4.732  93.664  1.00  0.00    -0.350 OA
HETATM    2  N   UNL     1      15.356   2.874  94.055  1.00  0.00     0.147 N 
HETATM    3  C   UNL     1      16.685   2.438  93.605  1.00  0.00     0.283 C 
HETATM    4  C   UNL     1      15.099   4.250  93.610  1.00  0.00     0.283 C 
HETATM    5  C   UNL     1      17.748   3.405  94.120  1.00  0.00     0.178 C 
HETATM    6  C   UNL     1      16.199   5.174  94.124  1.00  0.00     0.178 C 
ENDROOT
BRANCH   2   7
HETATM    7  C   UNL     1      14.320   1.967  93.564  1.00  0.00     0.277 C 
BRANCH   7   8
HETATM    8  C   UNL     1      13.228   2.686  92.847  1.00  0.00     0.011 A 
HETATM    9  C   UNL     1      13.352   2.960  91.485  1.00  0.00    -0.002 A 
HETATM   10  C   UNL     1      12.333   3.635  90.814  1.00  0.00     0.008 A 
HETATM   11  C   UNL     1      11.189   4.034  91.505  1.00  0.00     0.042 A 
HETATM   12  C   UNL     1      11.064   3.760  92.866  1.00  0.00     0.008 A 
HETATM   13  C   UNL     1      12.084   3.086  93.537  1.00  0.00    -0.002 A 
BRANCH  11  14
HETATM   14  C   UNL     1      10.142   4.724  90.816  1.00  0.00    -0.059 C 
HETATM   15  C   UNL     1       9.263   5.304  90.237  1.00  0.00    -0.059 C 
BRANCH  15  16
HETATM   16  C   UNL     1       8.216   5.993  89.548  1.00  0.00     0.042 A 
HETATM   17  C   UNL     1       6.883   5.717  89.853  1.00  0.00     0.008 A 
HETATM   18  C   UNL     1       5.862   6.392  89.184  1.00  0.00     0.005 A 
HETATM   19  C   UNL     1       6.197   7.326  88.226  1.00  0.00     0.056 A 
HETATM   20  C   UNL     1       7.507   7.616  87.906  1.00  0.00     0.005 A 
HETATM   21  C   UNL     1       8.528   6.942  88.575  1.00  0.00     0.008 A 
BRANCH  19  22
HETATM   22  C   UNL     1       5.109   8.043  87.511  1.00  0.00     0.254 C 
HETATM   23  O   UNL     1       4.897   7.786  86.328  1.00  0.00    -0.268 OA
HETATM   24  N   UNL     1       4.382   8.953  88.266  1.00  0.00    -0.335 N 
HETATM   25  HN  UNL     1       4.598   9.095  89.246  1.00  0.00     0.164 HD
BRANCH  24  26
HETATM   26  C   UNL     1       3.282   9.708  87.723  1.00  0.00     0.166 C 
BRANCH  26  27
HETATM   27  C   UNL     1       1.916   9.172  88.170  1.00  0.00     0.138 C 
HETATM   28  C   UNL     1       1.561   7.849  87.501  1.00  0.00     0.034 C 
BRANCH  27  29
HETATM   29  O   UNL     1       1.915   8.990  89.586  1.00  0.00    -0.383 OA
HETATM   30  H   UNL     1       1.299   8.270  89.800  1.00  0.00     0.210 HD
ENDBRANCH  27  29
ENDBRANCH  26  27
BRANCH  26  31
HETATM   31  C   UNL     1       3.467  11.165  88.135  1.00  0.00     0.181 C 
HETATM   32  O   UNL     1       2.582  11.827  88.673  1.00  0.00    -0.294 OA
BRANCH  31  33
HETATM   33  C   UNL     1       4.798  11.370  89.038  1.00  0.00     0.138 C 
BRANCH  33  34
HETATM   34  C   UNL     1       4.798  12.772  89.210  1.00  0.00     0.208 C 
HETATM   35  O   UNL     1       4.611  13.170  90.337  1.00  0.00    -0.289 OA
BRANCH  34  36
HETATM   36  C   UNL     1       5.252  13.767  88.389  1.00  0.00     0.194 C 
HETATM   37  O   UNL     1       5.014  13.997  87.029  1.00  0.00    -0.185 OA
ENDBRANCH  34  36
ENDBRANCH  33  34
ENDBRANCH  31  33
ENDBRANCH  26  31
ENDBRANCH  24  26
ENDBRANCH  19  22
ENDBRANCH  15  16
ENDBRANCH  11  14
ENDBRANCH   7   8
ENDBRANCH   2   7
TORSDOF 12
ENDMDL
MODEL 4
REMARK VINA RESULT:      -5.3      1.555      2.152
REMARK  12 active torsions:
REMARK  status: ('A' for Active; 'I' for Inactive)
REMARK    1  A    between atoms: O_2  and  C_16 
REMARK    2  A    between atoms: N_5  and  C_9 
REMARK    3  A    between atoms: N_6  and  C_13 
REMARK       I    between atoms: N_6  and  C_22 
REMARK    4  A    between atoms: C_9  and  C_12 
REMARK    5  A    between atoms: C_13  and  C_16 
REMARK    6  A    between atoms: C_13  and  C_21 
REMARK    7  A    between atoms: C_19  and  C_24 
REMARK    8  A    between atoms: C_21  and  C_33 
REMARK    9  A    between atoms: C_22  and  C_23 
REMARK   10  A    between atoms: C_27  and  C_30 
REMARK   11  A    between atoms: C_33  and  C_34 
REMARK   12  A    between atoms: C_34  and  C_35 
ROOT
HETATM    1  O   UNL     1      16.607   2.988  93.765  1.00  0.00    -0.350 OA
HETATM    2  N   UNL     1      13.864   2.879  93.014  1.00  0.00     0.147 N 
HETATM    3  C   UNL     1      14.686   1.663  93.099  1.00  0.00     0.283 C 
HETATM    4  C   UNL     1      14.708   4.034  92.679  1.00  0.00     0.283 C 
HETATM    5  C   UNL     1      15.801   1.864  94.122  1.00  0.00     0.178 C 
HETATM    6  C   UNL     1      15.822   4.179  93.711  1.00  0.00     0.178 C 
ENDROOT
BRANCH   2   7
HETATM    7  C   UNL     1      12.795   2.713  92.031  1.00  0.00     0.277 C 
BRANCH   7   8
HETATM    8  C   UNL     1      11.750   3.770  92.145  1.00  0.00     0.011 A 
HETATM    9  C   UNL     1      11.136   4.269  90.996  1.00  0.00    -0.002 A 
HETATM   10  C   UNL     1      10.159   5.259  91.101  1.00  0.00     0.008 A 
HETATM   11  C   UNL     1       9.795   5.748  92.356  1.00  0.00     0.042 A 
HETATM   12  C   UNL     1      10.407   5.249  93.504  1.00  0.00     0.008 A 
HETATM   13  C   UNL     1      11.385   4.260  93.399  1.00  0.00    -0.002 A 
BRANCH  11  14
HETATM   14  C   UNL     1       8.792   6.762  92.464  1.00  0.00    -0.059 C 
HETATM   15  C   UNL     1       7.948   7.613  92.555  1.00  0.00    -0.059 C 
BRANCH  15  16
HETATM   16  C   UNL     1       6.945   8.626  92.664  1.00  0.00     0.042 A 
HETATM   17  C   UNL     1       7.315   9.948  92.914  1.00  0.00     0.008 A 
HETATM   18  C   UNL     1       6.336  10.937  93.018  1.00  0.00     0.005 A 
HETATM   19  C   UNL     1       5.012  10.582  92.869  1.00  0.00     0.056 A 
HETATM   20  C   UNL     1       4.621   9.283  92.621  1.00  0.00     0.005 A 
HETATM   21  C   UNL     1       5.599   8.294  92.518  1.00  0.00     0.008 A 
BRANCH  19  22
HETATM   22  C   UNL     1       3.970  11.636  92.981  1.00  0.00     0.254 C 
HETATM   23  O   UNL     1       2.990  11.436  93.694  1.00  0.00    -0.268 OA
HETATM   24  N   UNL     1       4.207  12.804  92.270  1.00  0.00    -0.335 N 
HETATM   25  HN  UNL     1       5.053  12.908  91.721  1.00  0.00     0.164 HD
BRANCH  24  26
HETATM   26  C   UNL     1       3.303  13.925  92.297  1.00  0.00     0.166 C 
BRANCH  26  27
HETATM   27  C   UNL     1       3.300  14.653  93.647  1.00  0.00     0.138 C 
HETATM   28  C   UNL     1       4.563  15.479  93.868  1.00  0.00     0.034 C 
BRANCH  27  29
HETATM   29  O   UNL     1       2.164  15.514  93.723  1.00  0.00    -0.383 OA
HETATM   30  H   UNL     1       1.385  14.973  93.936  1.00  0.00     0.210 HD
ENDBRANCH  27  29
ENDBRANCH  26  27
BRANCH  26  31
HETATM   31  C   UNL     1       3.693  14.866  91.161  1.00  0.00     0.181 C 
HETATM   32  O   UNL     1       4.840  15.276  90.995  1.00  0.00    -0.294 OA
BRANCH  31  33
HETATM   33  C   UNL     1       3.199  14.308  89.721  1.00  0.00     0.138 C 
BRANCH  33  34
HETATM   34  C   UNL     1       4.323  13.552  89.321  1.00  0.00     0.208 C 
HETATM   35  O   UNL     1       4.181  12.351  89.313  1.00  0.00    -0.289 OA
BRANCH  34  36
HETATM   36  C   UNL     1       5.461  13.934  88.665  1.00  0.00     0.194 C 
HETATM   37  O   UNL     1       6.481  13.161  88.098  1.00  0.00    -0.185 OA
ENDBRANCH  34  36
ENDBRANCH  33  34
ENDBRANCH  31  33
ENDBRANCH  26  31
ENDBRANCH  24  26
ENDBRANCH  19  22
ENDBRANCH  15  16
ENDBRANCH  11  14
ENDBRANCH   7   8
ENDBRANCH   2   7
TORSDOF 12
ENDMDL
MODEL 5
REMARK VINA RESULT:      -4.9      2.810     12.507
REMARK  12 active torsions:
REMARK  status: ('A' for Active; 'I' for Inactive)
REMARK    1  A    between atoms: O_2  and  C_16 
REMARK    2  A    between atoms: N_5  and  C_9 
REMARK    3  A    between atoms: N_6  and  C_13 
REMARK       I    between atoms: N_6  and  C_22 
REMARK    4  A    between atoms: C_9  and  C_12 
REMARK    5  A    between atoms: C_13  and  C_16 
REMARK    6  A    between atoms: C_13  and  C_21 
REMARK    7  A    between atoms: C_19  and  C_24 
REMARK    8  A    between atoms: C_21  and  C_33 
REMARK    9  A    between atoms: C_22  and  C_23 
REMARK   10  A    between atoms: C_27  and  C_30 
REMARK   11  A    between atoms: C_33  and  C_34 
REMARK   12  A    between atoms: C_34  and  C_35 
ROOT
HETATM    1  O   UNL     1       3.184  14.730  93.881  1.00  0.00    -0.350 OA
HETATM    2  N   UNL     1       2.718  14.612  91.076  1.00  0.00     0.147 N 
HETATM    3  C   UNL     1       1.820  13.949  92.032  1.00  0.00     0.283 C 
HETATM    4  C   UNL     1       4.078  14.681  91.627  1.00  0.00     0.283 C 
HETATM    5  C   UNL     1       1.851  14.687  93.368  1.00  0.00     0.178 C 
HETATM    6  C   UNL     1       4.057  15.400  92.972  1.00  0.00     0.178 C 
ENDROOT
BRANCH   2   7
HETATM    7  C   UNL     1       2.712  13.915  89.791  1.00  0.00     0.277 C 
BRANCH   7   8
HETATM    8  C   UNL     1       3.693  12.794  89.749  1.00  0.00     0.011 A 
HETATM    9  C   UNL     1       4.955  12.993  89.187  1.00  0.00    -0.002 A 
HETATM   10  C   UNL     1       5.873  11.944  89.145  1.00  0.00     0.008 A 
HETATM   11  C   UNL     1       5.529  10.697  89.667  1.00  0.00     0.042 A 
HETATM   12  C   UNL     1       4.270  10.497  90.228  1.00  0.00     0.008 A 
HETATM   13  C   UNL     1       3.351  11.545  90.269  1.00  0.00    -0.002 A 
BRANCH  11  14
HETATM   14  C   UNL     1       6.472   9.621  89.626  1.00  0.00    -0.059 C 
HETATM   15  C   UNL     1       7.264   8.717  89.590  1.00  0.00    -0.059 C 
BRANCH  15  16
HETATM   16  C   UNL     1       8.206   7.642  89.548  1.00  0.00     0.042 A 
HETATM   17  C   UNL     1       7.849   6.384  90.033  1.00  0.00     0.008 A 
HETATM   18  C   UNL     1       8.768   5.335  89.990  1.00  0.00     0.005 A 
HETATM   19  C   UNL     1      10.021   5.568  89.462  1.00  0.00     0.056 A 
HETATM   20  C   UNL     1      10.397   6.802  88.977  1.00  0.00     0.005 A 
HETATM   21  C   UNL     1       9.480   7.852  89.020  1.00  0.00     0.008 A 
BRANCH  19  22
HETATM   22  C   UNL     1      10.999   4.450  89.418  1.00  0.00     0.254 C 
HETATM   23  O   UNL     1      11.156   3.832  88.368  1.00  0.00    -0.268 OA
HETATM   24  N   UNL     1      11.695   4.204  90.593  1.00  0.00    -0.335 N 
HETATM   25  HN  UNL     1      11.530   4.774  91.415  1.00  0.00     0.164 HD
BRANCH  24  26
HETATM   26  C   UNL     1      12.694   3.172  90.702  1.00  0.00     0.166 C 
BRANCH  26  27
HETATM   27  C   UNL     1      14.122   3.729  90.735  1.00  0.00     0.138 C 
HETATM   28  C   UNL     1      15.020   3.100  89.675  1.00  0.00     0.034 C 
BRANCH  27  29
HETATM   29  O   UNL     1      14.089   5.142  90.534  1.00  0.00    -0.383 OA
HETATM   30  H   UNL     1      14.207   5.318  89.586  1.00  0.00     0.210 HD
ENDBRANCH  27  29
ENDBRANCH  26  27
BRANCH  26  31
HETATM   31  C   UNL     1      12.387   2.357  91.954  1.00  0.00     0.181 C 
HETATM   32  O   UNL     1      12.048   1.175  91.918  1.00  0.00    -0.294 OA
BRANCH  31  33
HETATM   33  C   UNL     1      13.586   2.450  93.042  1.00  0.00     0.138 C 
BRANCH  33  34
HETATM   34  C   UNL     1      13.179   3.569  93.801  1.00  0.00     0.208 C 
HETATM   35  O   UNL     1      14.021   4.416  93.994  1.00  0.00    -0.289 OA
BRANCH  34  36
HETATM   36  C   UNL     1      11.927   4.016  94.123  1.00  0.00     0.194 C 
HETATM   37  O   UNL     1      11.143   5.013  93.532  1.00  0.00    -0.185 OA
ENDBRANCH  34  36
ENDBRANCH  33  34
ENDBRANCH  31  33
ENDBRANCH  26  31
ENDBRANCH  24  26
ENDBRANCH  19  22
ENDBRANCH  15  16
ENDBRANCH  11  14
ENDBRANCH   7   8
ENDBRANCH   2   7
TORSDOF 12
ENDMDL
MODEL 6
REMARK VINA RESULT:      -4.8      1.291      1.632
REMARK  12 active torsions:
REMARK  status: ('A' for Active; 'I' for Inactive)
REMARK    1  A    between atoms: O_2  and  C_16 
REMARK    2  A    between atoms: N_5  and  C_9 
REMARK    3  A    between atoms: N_6  and  C_13 
REMARK       I    between atoms: N_6  and  C_22 
REMARK    4  A    between atoms: C_9  and  C_12 
REMARK    5  A    between atoms: C_13  and  C_16 
REMARK    6  A    between atoms: C_13  and  C_21 
REMARK    7  A    between atoms: C_19  and  C_24 
REMARK    8  A    between atoms: C_21  and  C_33 
REMARK    9  A    between atoms: C_22  and  C_23 
REMARK   10  A    between atoms: C_27  and  C_30 
REMARK   11  A    between atoms: C_33  and  C_34 
REMARK   12  A    between atoms: C_34  and  C_35 
ROOT
HETATM    1  O   UNL     1      16.312   2.635  92.241  1.00  0.00    -0.350 OA
HETATM    2  N   UNL     1      13.729   3.037  93.366  1.00  0.00     0.147 N 
HETATM    3  C   UNL     1      14.735   2.198  94.033  1.00  0.00     0.283 C 
HETATM    4  C   UNL     1      13.939   3.016  91.912  1.00  0.00     0.283 C 
HETATM    5  C   UNL     1      16.136   2.675  93.658  1.00  0.00     0.178 C 
HETATM    6  C   UNL     1      15.357   3.472  91.587  1.00  0.00     0.178 C 
ENDROOT
BRANCH   2   7
HETATM    7  C   UNL     1      12.378   2.591  93.703  1.00  0.00     0.277 C 
BRANCH   7   8
HETATM    8  C   UNL     1      11.340   3.597  93.338  1.00  0.00     0.011 A 
HETATM    9  C   UNL     1      10.532   3.390  92.220  1.00  0.00    -0.002 A 
HETATM   10  C   UNL     1       9.562   4.332  91.876  1.00  0.00     0.008 A 
HETATM   11  C   UNL     1       9.400   5.479  92.653  1.00  0.00     0.042 A 
HETATM   12  C   UNL     1      10.206   5.687  93.770  1.00  0.00     0.008 A 
HETATM   13  C   UNL     1      11.177   4.746  94.113  1.00  0.00    -0.002 A 
BRANCH  11  14
HETATM   14  C   UNL     1       8.404   6.444  92.301  1.00  0.00    -0.059 C 
HETATM   15  C   UNL     1       7.566   7.255  92.007  1.00  0.00    -0.059 C 
BRANCH  15  16
HETATM   16  C   UNL     1       6.570   8.219  91.656  1.00  0.00     0.042 A 
HETATM   17  C   UNL     1       6.758   9.563  91.981  1.00  0.00     0.008 A 
HETATM   18  C   UNL     1       5.788  10.504  91.637  1.00  0.00     0.005 A 
HETATM   19  C   UNL     1       4.653  10.081  90.976  1.00  0.00     0.056 A 
HETATM   20  C   UNL     1       4.444   8.759  90.645  1.00  0.00     0.005 A 
HETATM   21  C   UNL     1       5.414   7.817  90.989  1.00  0.00     0.008 A 
BRANCH  19  22
HETATM   22  C   UNL     1       3.619  11.084  90.612  1.00  0.00     0.254 C 
HETATM   23  O   UNL     1       2.858  10.848  89.677  1.00  0.00    -0.268 OA
HETATM   24  N   UNL     1       3.580  12.229  91.395  1.00  0.00    -0.335 N 
HETATM   25  HN  UNL     1       4.225  12.345  92.168  1.00  0.00     0.164 HD
BRANCH  24  26
HETATM   26  C   UNL     1       2.619  13.282  91.182  1.00  0.00     0.166 C 
BRANCH  26  27
HETATM   27  C   UNL     1       1.479  13.261  92.208  1.00  0.00     0.138 C 
HETATM   28  C   UNL     1       1.622  12.126  93.217  1.00  0.00     0.034 C 
BRANCH  27  29
HETATM   29  O   UNL     1       1.446  14.503  92.910  1.00  0.00    -0.383 OA
HETATM   30  H   UNL     1       1.007  15.161  92.345  1.00  0.00     0.210 HD
ENDBRANCH  27  29
ENDBRANCH  26  27
BRANCH  26  31
HETATM   31  C   UNL     1       3.368  14.610  91.213  1.00  0.00     0.181 C 
HETATM   32  O   UNL     1       3.368  15.357  92.189  1.00  0.00    -0.294 OA
BRANCH  31  33
HETATM   33  C   UNL     1       4.920  14.436  90.777  1.00  0.00     0.138 C 
BRANCH  33  34
HETATM   34  C   UNL     1       4.820  14.515  89.370  1.00  0.00     0.208 C 
HETATM   35  O   UNL     1       4.891  15.625  88.893  1.00  0.00    -0.289 OA
BRANCH  34  36
HETATM   36  C   UNL     1       4.942  13.543  88.416  1.00  0.00     0.194 C 
HETATM   37  O   UNL     1       5.734  12.390  88.396  1.00  0.00    -0.185 OA
ENDBRANCH  34  36
ENDBRANCH  33  34
ENDBRANCH  31  33
ENDBRANCH  26  31
ENDBRANCH  24  26
ENDBRANCH  19  22
ENDBRANCH  15  16
ENDBRANCH  11  14
ENDBRANCH   7   8
ENDBRANCH   2   7
TORSDOF 12
ENDMDL
MODEL 7
REMARK VINA RESULT:      -4.7      2.368     12.794
REMARK  12 active torsions:
REMARK  status: ('A' for Active; 'I' for Inactive)
REMARK    1  A    between atoms: O_2  and  C_16 
REMARK    2  A    between atoms: N_5  and  C_9 
REMARK    3  A    between atoms: N_6  and  C_13 
REMARK       I    between atoms: N_6  and  C_22 
REMARK    4  A    between atoms: C_9  and  C_12 
REMARK    5  A    between atoms: C_13  and  C_16 
REMARK    6  A    between atoms: C_13  and  C_21 
REMARK    7  A    between atoms: C_19  and  C_24 
REMARK    8  A    between atoms: C_21  and  C_33 
REMARK    9  A    between atoms: C_22  and  C_23 
REMARK   10  A    between atoms: C_27  and  C_30 
REMARK   11  A    between atoms: C_33  and  C_34 
REMARK   12  A    between atoms: C_34  and  C_35 
ROOT
HETATM    1  O   UNL     1       2.399  14.789  94.113  1.00  0.00    -0.350 OA
HETATM    2  N   UNL     1       2.538  14.537  91.282  1.00  0.00     0.147 N 
HETATM    3  C   UNL     1       1.344  14.124  92.031  1.00  0.00     0.283 C 
HETATM    4  C   UNL     1       3.734  14.402  92.125  1.00  0.00     0.283 C 
HETATM    5  C   UNL     1       1.227  14.948  93.312  1.00  0.00     0.178 C 
HETATM    6  C   UNL     1       3.561  15.218  93.402  1.00  0.00     0.178 C 
ENDROOT
BRANCH   2   7
HETATM    7  C   UNL     1       2.676  13.754  90.055  1.00  0.00     0.277 C 
BRANCH   7   8
HETATM    8  C   UNL     1       3.614  12.606  90.217  1.00  0.00     0.011 A 
HETATM    9  C   UNL     1       4.830  12.598  89.533  1.00  0.00    -0.002 A 
HETATM   10  C   UNL     1       5.707  11.524  89.682  1.00  0.00     0.008 A 
HETATM   11  C   UNL     1       5.368  10.459  90.516  1.00  0.00     0.042 A 
HETATM   12  C   UNL     1       4.155  10.466  91.200  1.00  0.00     0.008 A 
HETATM   13  C   UNL     1       3.277  11.540  91.051  1.00  0.00    -0.002 A 
BRANCH  11  14
HETATM   14  C   UNL     1       6.269   9.358  90.670  1.00  0.00    -0.059 C 
HETATM   15  C   UNL     1       7.026   8.433  90.801  1.00  0.00    -0.059 C 
BRANCH  15  16
HETATM   16  C   UNL     1       7.925   7.332  90.955  1.00  0.00     0.042 A 
HETATM   17  C   UNL     1       7.434   6.027  90.956  1.00  0.00     0.008 A 
HETATM   18  C   UNL     1       8.312   4.953  91.104  1.00  0.00     0.005 A 
HETATM   19  C   UNL     1       9.660   5.208  91.245  1.00  0.00     0.056 A 
HETATM   20  C   UNL     1      10.170   6.490  91.248  1.00  0.00     0.005 A 
HETATM   21  C   UNL     1       9.293   7.564  91.100  1.00  0.00     0.008 A 
BRANCH  19  22
HETATM   22  C   UNL     1      10.594   4.064  91.405  1.00  0.00     0.254 C 
HETATM   23  O   UNL     1      10.163   2.919  91.302  1.00  0.00    -0.268 OA
HETATM   24  N   UNL     1      11.922   4.392  91.640  1.00  0.00    -0.335 N 
HETATM   25  HN  UNL     1      12.210   5.362  91.687  1.00  0.00     0.164 HD
BRANCH  24  26
HETATM   26  C   UNL     1      12.952   3.396  91.791  1.00  0.00     0.166 C 
BRANCH  26  27
HETATM   27  C   UNL     1      14.221   3.727  90.995  1.00  0.00     0.138 C 
HETATM   28  C   UNL     1      14.124   3.292  89.537  1.00  0.00     0.034 C 
BRANCH  27  29
HETATM   29  O   UNL     1      14.462   5.132  91.045  1.00  0.00    -0.383 OA
HETATM   30  H   UNL     1      15.412   5.273  91.198  1.00  0.00     0.210 HD
ENDBRANCH  27  29
ENDBRANCH  26  27
BRANCH  26  31
HETATM   31  C   UNL     1      13.252   3.259  93.281  1.00  0.00     0.181 C 
HETATM   32  O   UNL     1      12.400   2.944  94.109  1.00  0.00    -0.294 OA
BRANCH  31  33
HETATM   33  C   UNL     1      14.527   2.295  93.552  1.00  0.00     0.138 C 
BRANCH  33  34
HETATM   34  C   UNL     1      15.501   3.236  93.953  1.00  0.00     0.208 C 
HETATM   35  O   UNL     1      16.618   2.805  94.124  1.00  0.00    -0.289 OA
BRANCH  34  36
HETATM   36  C   UNL     1      15.484   4.603  93.912  1.00  0.00     0.194 C 
HETATM   37  O   UNL     1      16.445   5.505  93.441  1.00  0.00    -0.185 OA
ENDBRANCH  34  36
ENDBRANCH  33  34
ENDBRANCH  31  33
ENDBRANCH  26  31
ENDBRANCH  24  26
ENDBRANCH  19  22
ENDBRANCH  15  16
ENDBRANCH  11  14
ENDBRANCH   7   8
ENDBRANCH   2   7
TORSDOF 12
ENDMDL
MODEL 8
REMARK VINA RESULT:      -3.5      1.859      2.921
REMARK  12 active torsions:
REMARK  status: ('A' for Active; 'I' for Inactive)
REMARK    1  A    between atoms: O_2  and  C_16 
REMARK    2  A    between atoms: N_5  and  C_9 
REMARK    3  A    between atoms: N_6  and  C_13 
REMARK       I    between atoms: N_6  and  C_22 
REMARK    4  A    between atoms: C_9  and  C_12 
REMARK    5  A    between atoms: C_13  and  C_16 
REMARK    6  A    between atoms: C_13  and  C_21 
REMARK    7  A    between atoms: C_19  and  C_24 
REMARK    8  A    between atoms: C_21  and  C_33 
REMARK    9  A    between atoms: C_22  and  C_23 
REMARK   10  A    between atoms: C_27  and  C_30 
REMARK   11  A    between atoms: C_33  and  C_34 
REMARK   12  A    between atoms: C_34  and  C_35 
ROOT
HETATM    1  O   UNL     1      17.170   3.762  92.853  1.00  0.00    -0.350 OA
HETATM    2  N   UNL     1      15.056   1.868  93.061  1.00  0.00     0.147 N 
HETATM    3  C   UNL     1      15.475   2.410  91.761  1.00  0.00     0.283 C 
HETATM    4  C   UNL     1      15.317   2.848  94.124  1.00  0.00     0.283 C 
HETATM    5  C   UNL     1      16.949   2.803  91.817  1.00  0.00     0.178 C 
HETATM    6  C   UNL     1      16.794   3.231  94.124  1.00  0.00     0.178 C 
ENDROOT
BRANCH   2   7
HETATM    7  C   UNL     1      13.642   1.495  93.034  1.00  0.00     0.277 C 
BRANCH   7   8
HETATM    8  C   UNL     1      12.760   2.638  92.666  1.00  0.00     0.011 A 
HETATM    9  C   UNL     1      12.402   3.581  93.631  1.00  0.00    -0.002 A 
HETATM   10  C   UNL     1      11.575   4.650  93.288  1.00  0.00     0.008 A 
HETATM   11  C   UNL     1      11.107   4.777  91.981  1.00  0.00     0.042 A 
HETATM   12  C   UNL     1      11.464   3.837  91.016  1.00  0.00     0.008 A 
HETATM   13  C   UNL     1      12.291   2.767  91.359  1.00  0.00    -0.002 A 
BRANCH  11  14
HETATM   14  C   UNL     1      10.260   5.875  91.629  1.00  0.00    -0.059 C 
HETATM   15  C   UNL     1       9.548   6.798  91.333  1.00  0.00    -0.059 C 
BRANCH  15  16
HETATM   16  C   UNL     1       8.701   7.895  90.982  1.00  0.00     0.042 A 
HETATM   17  C   UNL     1       8.847   9.122  91.630  1.00  0.00     0.008 A 
HETATM   18  C   UNL     1       8.023  10.193  91.285  1.00  0.00     0.005 A 
HETATM   19  C   UNL     1       7.072  10.014  90.302  1.00  0.00     0.056 A 
HETATM   20  C   UNL     1       6.908   8.811  89.648  1.00  0.00     0.005 A 
HETATM   21  C   UNL     1       7.732   7.739  89.992  1.00  0.00     0.008 A 
BRANCH  19  22
HETATM   22  C   UNL     1       6.193  11.155  89.937  1.00  0.00     0.254 C 
HETATM   23  O   UNL     1       6.592  11.983  89.123  1.00  0.00    -0.268 OA
HETATM   24  N   UNL     1       4.946  11.180  90.545  1.00  0.00    -0.335 N 
HETATM   25  HN  UNL     1       4.675  10.446  91.190  1.00  0.00     0.164 HD
BRANCH  24  26
HETATM   26  C   UNL     1       3.972  12.207  90.276  1.00  0.00     0.166 C 
BRANCH  26  27
HETATM   27  C   UNL     1       2.853  11.733  89.340  1.00  0.00     0.138 C 
HETATM   28  C   UNL     1       3.293  11.683  87.881  1.00  0.00     0.034 C 
BRANCH  27  29
HETATM   29  O   UNL     1       2.417  10.434  89.737  1.00  0.00    -0.383 OA
HETATM   30  H   UNL     1       3.155   9.988  90.185  1.00  0.00     0.210 HD
ENDBRANCH  27  29
ENDBRANCH  26  27
BRANCH  26  31
HETATM   31  C   UNL     1       3.413  12.681  91.613  1.00  0.00     0.181 C 
HETATM   32  O   UNL     1       2.636  12.011  92.290  1.00  0.00    -0.294 OA
BRANCH  31  33
HETATM   33  C   UNL     1       4.588  13.164  92.620  1.00  0.00     0.138 C 
BRANCH  33  34
HETATM   34  C   UNL     1       4.352  14.556  92.670  1.00  0.00     0.208 C 
HETATM   35  O   UNL     1       4.365  15.059  93.770  1.00  0.00    -0.289 OA
BRANCH  34  36
HETATM   36  C   UNL     1       4.389  15.498  91.679  1.00  0.00     0.194 C 
HETATM   37  O   UNL     1       5.208  15.589  90.548  1.00  0.00    -0.185 OA
ENDBRANCH  34  36
ENDBRANCH  33  34
ENDBRANCH  31  33
ENDBRANCH  26  31
ENDBRANCH  24  26
ENDBRANCH  19  22
ENDBRANCH  15  16
ENDBRANCH  11  14
ENDBRANCH   7   8
ENDBRANCH   2   7
TORSDOF 12
ENDMDL
