MODEL 1
REMARK VINA RESULT:      -7.0      0.000      0.000
REMARK  10 active torsions:
REMARK  status: ('A' for Active; 'I' for Inactive)
REMARK    1  A    between atoms: O_2  and  C_18 
REMARK    2  A    between atoms: O_5  and  N_8 
REMARK    3  A    between atoms: N_6  and  C_11 
REMARK    4  A    between atoms: N_7  and  C_15 
REMARK       I    between atoms: N_7  and  C_24 
REMARK       I    between atoms: N_8  and  C_23 
REMARK    5  A    between atoms: C_11  and  C_14 
REMARK    6  A    between atoms: C_15  and  C_18 
REMARK    7  A    between atoms: C_15  and  C_23 
REMARK    8  A    between atoms: C_21  and  C_26 
REMARK    9  A    between atoms: C_24  and  C_25 
REMARK   10  A    between atoms: C_29  and  C_32 
ROOT
HETATM    1  O   UNK     0      16.447   4.284  94.089  0.00  0.00    -0.388 OA
HETATM    2  N   UNK     0      14.747   2.571  92.579  0.00  0.00     0.096 N 
HETATM    3  C   UNK     0      14.595   4.032  92.541  0.00  0.00     0.299 C 
HETATM    4  C   UNK     0      15.299   2.157  93.876  0.00  0.00     0.299 C 
HETATM    5  C   UNK     0      15.940   4.699  92.819  0.00  0.00     0.198 C 
HETATM    6  C   UNK     0      16.627   2.867  94.124  0.00  0.00     0.198 C 
ENDROOT
BRANCH   2   7
HETATM    7  C   UNK     0      13.467   1.911  92.325  0.00  0.00     0.311 C 
BRANCH   7   8
HETATM    8  C   UNK     0      12.381   2.881  92.007  0.00  0.00    -0.030 A 
HETATM    9  C   UNK     0      11.757   3.591  93.034  0.00  0.00     0.010 A 
HETATM   10  C   UNK     0      10.739   4.497  92.737  0.00  0.00     0.021 A 
HETATM   11  C   UNK     0      10.348   4.695  91.413  0.00  0.00     0.018 A 
HETATM   12  C   UNK     0      10.970   3.988  90.387  0.00  0.00     0.021 A 
HETATM   13  C   UNK     0      11.988   3.081  90.683  0.00  0.00     0.010 A 
BRANCH  11  14
HETATM   14  C   UNK     0       9.305   5.626  91.109  0.00  0.00    -0.061 C 
HETATM   15  C   UNK     0       8.429   6.408  90.853  0.00  0.00    -0.061 C 
BRANCH  15  16
HETATM   16  C   UNK     0       7.388   7.338  90.548  0.00  0.00     0.018 A 
HETATM   17  C   UNK     0       7.229   8.487  91.325  0.00  0.00     0.022 A 
HETATM   18  C   UNK     0       6.214   9.396  91.025  0.00  0.00     0.018 A 
HETATM   19  C   UNK     0       5.381   9.137  89.957  0.00  0.00     0.032 A 
HETATM   20  C   UNK     0       5.516   8.010  89.174  0.00  0.00     0.018 A 
HETATM   21  C   UNK     0       6.531   7.100  89.473  0.00  0.00     0.022 A 
BRANCH  19  22
HETATM   22  C   UNK     0       4.299  10.105  89.640  0.00  0.00     0.252 C 
HETATM   23  O   UNK     0       3.351   9.740  88.949  0.00  0.00    -0.268 OA
HETATM   24  N   UNK     0       4.438  11.373  90.186  0.00  0.00    -0.341 N 
HETATM   25  H   UNK     0       5.237  11.596  90.769  0.00  0.00     0.163 HD
BRANCH  24  26
HETATM   26  C   UNK     0       3.461  12.414  89.990  0.00  0.00     0.207 C 
BRANCH  26  27
HETATM   27  C   UNK     0       3.093  13.136  91.293  0.00  0.00     0.146 C 
HETATM   28  C   UNK     0       1.981  12.428  92.059  0.00  0.00     0.042 C 
BRANCH  27  29
HETATM   29  O   UNK     0       4.246  13.228  92.129  0.00  0.00    -0.393 OA
HETATM   30  H   UNK     0       4.849  12.502  91.899  0.00  0.00     0.210 HD
ENDBRANCH  27  29
ENDBRANCH  26  27
BRANCH  26  31
HETATM   31  C   UNK     0       4.017  13.386  88.955  0.00  0.00     0.266 C 
HETATM   32  O   UNK     0       4.115  14.595  89.157  0.00  0.00    -0.269 OA
HETATM   33  N   UNK     0       4.351  12.758  87.780  0.00  0.00    -0.236 N 
HETATM   34  H   UNK     0       4.201  11.783  87.549  0.00  0.00     0.197 HD
BRANCH  33  35
HETATM   35  O   UNK     0       4.836  13.590  86.760  0.00  0.00    -0.287 OA
HETATM   36  H   UNK     0       5.228  12.927  86.166  0.00  0.00     0.244 HD
ENDBRANCH  33  35
ENDBRANCH  26  31
ENDBRANCH  24  26
ENDBRANCH  19  22
ENDBRANCH  15  16
ENDBRANCH  11  14
ENDBRANCH   7   8
ENDBRANCH   2   7
TORSDOF 10
ENDMDL
MODEL 2
REMARK VINA RESULT:      -6.6      1.509      2.130
REMARK  10 active torsions:
REMARK  status: ('A' for Active; 'I' for Inactive)
REMARK    1  A    between atoms: O_2  and  C_18 
REMARK    2  A    between atoms: O_5  and  N_8 
REMARK    3  A    between atoms: N_6  and  C_11 
REMARK    4  A    between atoms: N_7  and  C_15 
REMARK       I    between atoms: N_7  and  C_24 
REMARK       I    between atoms: N_8  and  C_23 
REMARK    5  A    between atoms: C_11  and  C_14 
REMARK    6  A    between atoms: C_15  and  C_18 
REMARK    7  A    between atoms: C_15  and  C_23 
REMARK    8  A    between atoms: C_21  and  C_26 
REMARK    9  A    between atoms: C_24  and  C_25 
REMARK   10  A    between atoms: C_29  and  C_32 
ROOT
HETATM    1  O   UNK     0      16.458   3.324  93.725  0.00  0.00    -0.388 OA
HETATM    2  N   UNK     0      13.794   2.804  92.866  0.00  0.00     0.096 N 
HETATM    3  C   UNK     0      14.762   1.717  93.067  0.00  0.00     0.299 C 
HETATM    4  C   UNK     0      14.495   4.039  92.490  0.00  0.00     0.299 C 
HETATM    5  C   UNK     0      15.787   2.126  94.122  0.00  0.00     0.198 C 
HETATM    6  C   UNK     0      15.527   4.394  93.558  0.00  0.00     0.198 C 
ENDROOT
BRANCH   2   7
HETATM    7  C   UNK     0      12.808   2.438  91.851  0.00  0.00     0.311 C 
BRANCH   7   8
HETATM    8  C   UNK     0      11.716   3.446  91.730  0.00  0.00    -0.030 A 
HETATM    9  C   UNK     0      11.382   3.964  90.478  0.00  0.00     0.010 A 
HETATM   10  C   UNK     0      10.362   4.909  90.365  0.00  0.00     0.021 A 
HETATM   11  C   UNK     0       9.676   5.333  91.502  0.00  0.00     0.018 A 
HETATM   12  C   UNK     0      10.008   4.816  92.752  0.00  0.00     0.021 A 
HETATM   13  C   UNK     0      11.029   3.872  92.867  0.00  0.00     0.010 A 
BRANCH  11  14
HETATM   14  C   UNK     0       8.628   6.300  91.385  0.00  0.00    -0.061 C 
HETATM   15  C   UNK     0       7.748   7.113  91.286  0.00  0.00    -0.061 C 
BRANCH  15  16
HETATM   16  C   UNK     0       6.702   8.080  91.168  0.00  0.00     0.018 A 
HETATM   17  C   UNK     0       6.830   9.138  90.266  0.00  0.00     0.022 A 
HETATM   18  C   UNK     0       5.809  10.080  90.149  0.00  0.00     0.018 A 
HETATM   19  C   UNK     0       4.683   9.945  90.934  0.00  0.00     0.032 A 
HETATM   20  C   UNK     0       4.532   8.909  91.832  0.00  0.00     0.018 A 
HETATM   21  C   UNK     0       5.553   7.966  91.950  0.00  0.00     0.022 A 
BRANCH  19  22
HETATM   22  C   UNK     0       3.596  10.950  90.810  0.00  0.00     0.252 C 
HETATM   23  O   UNK     0       2.640  10.713  90.076  0.00  0.00    -0.268 OA
HETATM   24  N   UNK     0       3.741  12.099  91.575  0.00  0.00    -0.341 N 
HETATM   25  H   UNK     0       4.546  12.215  92.179  0.00  0.00     0.163 HD
BRANCH  24  26
HETATM   26  C   UNK     0       2.760  13.155  91.582  0.00  0.00     0.207 C 
BRANCH  26  27
HETATM   27  C   UNK     0       2.615  13.821  92.956  0.00  0.00     0.146 C 
HETATM   28  C   UNK     0       3.935  13.887  93.716  0.00  0.00     0.042 C 
BRANCH  27  29
HETATM   29  O   UNK     0       2.107  15.145  92.794  0.00  0.00    -0.393 OA
HETATM   30  H   UNK     0       2.505  15.528  91.994  0.00  0.00     0.210 HD
ENDBRANCH  27  29
ENDBRANCH  26  27
BRANCH  26  31
HETATM   31  C   UNK     0       3.160  14.169  90.514  0.00  0.00     0.266 C 
HETATM   32  O   UNK     0       2.435  14.462  89.566  0.00  0.00    -0.269 OA
HETATM   33  N   UNK     0       4.421  14.671  90.722  0.00  0.00    -0.236 N 
HETATM   34  H   UNK     0       5.078  14.386  91.440  0.00  0.00     0.197 HD
BRANCH  33  35
HETATM   35  O   UNK     0       4.880  15.584  89.761  0.00  0.00    -0.287 OA
HETATM   36  H   UNK     0       4.035  15.871  89.376  0.00  0.00     0.244 HD
ENDBRANCH  33  35
ENDBRANCH  26  31
ENDBRANCH  24  26
ENDBRANCH  19  22
ENDBRANCH  15  16
ENDBRANCH  11  14
ENDBRANCH   7   8
ENDBRANCH   2   7
TORSDOF 10
ENDMDL
MODEL 3
REMARK VINA RESULT:      -5.3      2.019     12.480
REMARK  10 active torsions:
REMARK  status: ('A' for Active; 'I' for Inactive)
REMARK    1  A    between atoms: O_2  and  C_18 
REMARK    2  A    between atoms: O_5  and  N_8 
REMARK    3  A    between atoms: N_6  and  C_11 
REMARK    4  A    between atoms: N_7  and  C_15 
REMARK       I    between atoms: N_7  and  C_24 
REMARK       I    between atoms: N_8  and  C_23 
REMARK    5  A    between atoms: C_11  and  C_14 
REMARK    6  A    between atoms: C_15  and  C_18 
REMARK    7  A    between atoms: C_15  and  C_23 
REMARK    8  A    between atoms: C_21  and  C_26 
REMARK    9  A    between atoms: C_24  and  C_25 
REMARK   10  A    between atoms: C_29  and  C_32 
ROOT
HETATM    1  O   UNK     0       5.419  14.781  88.978  0.00  0.00    -0.388 OA
HETATM    2  N   UNK     0       3.567  13.469  90.697  0.00  0.00     0.096 N 
HETATM    3  C   UNK     0       4.439  14.546  91.186  0.00  0.00     0.299 C 
HETATM    4  C   UNK     0       4.215  12.763  89.584  0.00  0.00     0.299 C 
HETATM    5  C   UNK     0       4.783  15.494  90.041  0.00  0.00     0.198 C 
HETATM    6  C   UNK     0       4.565  13.752  88.476  0.00  0.00     0.198 C 
ENDROOT
BRANCH   2   7
HETATM    7  C   UNK     0       3.233  12.542  91.776  0.00  0.00     0.311 C 
BRANCH   7   8
HETATM    8  C   UNK     0       4.255  11.470  91.940  0.00  0.00    -0.030 A 
HETATM    9  C   UNK     0       4.162  10.298  91.189  0.00  0.00     0.010 A 
HETATM   10  C   UNK     0       5.117   9.293  91.343  0.00  0.00     0.021 A 
HETATM   11  C   UNK     0       6.165   9.462  92.247  0.00  0.00     0.018 A 
HETATM   12  C   UNK     0       6.259  10.631  92.998  0.00  0.00     0.021 A 
HETATM   13  C   UNK     0       5.304  11.636  92.845  0.00  0.00     0.010 A 
BRANCH  11  14
HETATM   14  C   UNK     0       7.146   8.432  92.404  0.00  0.00    -0.061 C 
HETATM   15  C   UNK     0       7.970   7.566  92.535  0.00  0.00    -0.061 C 
BRANCH  15  16
HETATM   16  C   UNK     0       8.949   6.537  92.693  0.00  0.00     0.018 A 
HETATM   17  C   UNK     0       9.638   6.410  93.900  0.00  0.00     0.022 A 
HETATM   18  C   UNK     0      10.592   5.404  94.055  0.00  0.00     0.018 A 
HETATM   19  C   UNK     0      10.836   4.548  93.002  0.00  0.00     0.032 A 
HETATM   20  C   UNK     0      10.169   4.653  91.799  0.00  0.00     0.018 A 
HETATM   21  C   UNK     0       9.215   5.659  91.643  0.00  0.00     0.022 A 
BRANCH  19  22
HETATM   22  C   UNK     0      11.853   3.478  93.167  0.00  0.00     0.252 C 
HETATM   23  O   UNK     0      11.607   2.347  92.754  0.00  0.00    -0.268 OA
HETATM   24  N   UNK     0      13.044   3.860  93.769  0.00  0.00    -0.341 N 
HETATM   25  H   UNK     0      13.186   4.819  94.062  0.00  0.00     0.163 HD
BRANCH  24  26
HETATM   26  C   UNK     0      14.136   2.943  93.977  0.00  0.00     0.207 C 
BRANCH  26  27
HETATM   27  C   UNK     0      14.196   1.839  92.914  0.00  0.00     0.146 C 
HETATM   28  C   UNK     0      14.932   2.281  91.654  0.00  0.00     0.042 C 
BRANCH  27  29
HETATM   29  O   UNK     0      14.850   0.691  93.454  0.00  0.00    -0.393 OA
HETATM   30  H   UNK     0      15.732   0.960  93.762  0.00  0.00     0.210 HD
ENDBRANCH  27  29
ENDBRANCH  26  27
BRANCH  26  31
HETATM   31  C   UNK     0      15.427   3.756  94.006  0.00  0.00     0.266 C 
HETATM   32  O   UNK     0      15.450   4.980  93.900  0.00  0.00    -0.269 OA
HETATM   33  N   UNK     0      16.540   2.958  94.124  0.00  0.00    -0.236 N 
HETATM   34  H   UNK     0      16.563   1.945  94.124  0.00  0.00     0.197 HD
BRANCH  33  35
HETATM   35  O   UNK     0      17.772   3.626  94.119  0.00  0.00    -0.287 OA
HETATM   36  H   UNK     0      18.335   2.957  94.544  0.00  0.00     0.244 HD
ENDBRANCH  33  35
ENDBRANCH  26  31
ENDBRANCH  24  26
ENDBRANCH  19  22
ENDBRANCH  15  16
ENDBRANCH  11  14
ENDBRANCH   7   8
ENDBRANCH   2   7
TORSDOF 10
ENDMDL
MODEL 4
REMARK VINA RESULT:      -5.2      1.979     12.525
REMARK  10 active torsions:
REMARK  status: ('A' for Active; 'I' for Inactive)
REMARK    1  A    between atoms: O_2  and  C_18 
REMARK    2  A    between atoms: O_5  and  N_8 
REMARK    3  A    between atoms: N_6  and  C_11 
REMARK    4  A    between atoms: N_7  and  C_15 
REMARK       I    between atoms: N_7  and  C_24 
REMARK       I    between atoms: N_8  and  C_23 
REMARK    5  A    between atoms: C_11  and  C_14 
REMARK    6  A    between atoms: C_15  and  C_18 
REMARK    7  A    between atoms: C_15  and  C_23 
REMARK    8  A    between atoms: C_21  and  C_26 
REMARK    9  A    between atoms: C_24  and  C_25 
REMARK   10  A    between atoms: C_29  and  C_32 
ROOT
HETATM    1  O   UNK     0       3.094  13.811  92.312  0.00  0.00    -0.388 OA
HETATM    2  N   UNK     0       3.733  13.362  89.575  0.00  0.00     0.096 N 
HETATM    3  C   UNK     0       2.886  12.427  90.329  0.00  0.00     0.299 C 
HETATM    4  C   UNK     0       4.672  14.035  90.482  0.00  0.00     0.299 C 
HETATM    5  C   UNK     0       2.156  13.175  91.442  0.00  0.00     0.198 C 
HETATM    6  C   UNK     0       3.900  14.744  91.592  0.00  0.00     0.198 C 
ENDROOT
BRANCH   2   7
HETATM    7  C   UNK     0       4.451  12.665  88.509  0.00  0.00     0.311 C 
BRANCH   7   8
HETATM    8  C   UNK     0       5.347  11.595  89.033  0.00  0.00    -0.030 A 
HETATM    9  C   UNK     0       4.847  10.309  89.244  0.00  0.00     0.010 A 
HETATM   10  C   UNK     0       5.683   9.308  89.737  0.00  0.00     0.021 A 
HETATM   11  C   UNK     0       7.020   9.592  90.016  0.00  0.00     0.018 A 
HETATM   12  C   UNK     0       7.520  10.875  89.805  0.00  0.00     0.021 A 
HETATM   13  C   UNK     0       6.684  11.877  89.313  0.00  0.00     0.010 A 
BRANCH  11  14
HETATM   14  C   UNK     0       7.878   8.564  90.519  0.00  0.00    -0.061 C 
HETATM   15  C   UNK     0       8.600   7.699  90.941  0.00  0.00    -0.061 C 
BRANCH  15  16
HETATM   16  C   UNK     0       9.456   6.673  91.445  0.00  0.00     0.018 A 
HETATM   17  C   UNK     0      10.107   5.812  90.559  0.00  0.00     0.022 A 
HETATM   18  C   UNK     0      10.945   4.811  91.050  0.00  0.00     0.018 A 
HETATM   19  C   UNK     0      11.114   4.692  92.414  0.00  0.00     0.032 A 
HETATM   20  C   UNK     0      10.482   5.529  93.310  0.00  0.00     0.018 A 
HETATM   21  C   UNK     0       9.644   6.530  92.819  0.00  0.00     0.022 A 
BRANCH  19  22
HETATM   22  C   UNK     0      12.005   3.624  92.936  0.00  0.00     0.252 C 
HETATM   23  O   UNK     0      11.592   2.468  92.983  0.00  0.00    -0.268 OA
HETATM   24  N   UNK     0      13.278   4.026  93.318  0.00  0.00    -0.341 N 
HETATM   25  H   UNK     0      13.558   4.996  93.227  0.00  0.00     0.163 HD
BRANCH  24  26
HETATM   26  C   UNK     0      14.264   3.104  93.821  0.00  0.00     0.207 C 
BRANCH  26  27
HETATM   27  C   UNK     0      14.299   1.786  93.037  0.00  0.00     0.146 C 
HETATM   28  C   UNK     0      15.052   1.911  91.718  0.00  0.00     0.042 C 
BRANCH  27  29
HETATM   29  O   UNK     0      14.919   0.775  93.831  0.00  0.00    -0.393 OA
HETATM   30  H   UNK     0      14.675  -0.092  93.466  0.00  0.00     0.210 HD
ENDBRANCH  27  29
ENDBRANCH  26  27
BRANCH  26  31
HETATM   31  C   UNK     0      15.618   3.806  93.786  0.00  0.00     0.266 C 
HETATM   32  O   UNK     0      15.753   4.985  93.463  0.00  0.00    -0.269 OA
HETATM   33  N   UNK     0      16.650   2.960  94.114  0.00  0.00    -0.236 N 
HETATM   34  H   UNK     0      16.584   1.966  94.297  0.00  0.00     0.197 HD
BRANCH  33  35
HETATM   35  O   UNK     0      17.935   3.519  94.069  0.00  0.00    -0.287 OA
HETATM   36  H   UNK     0      18.441   2.829  94.531  0.00  0.00     0.244 HD
ENDBRANCH  33  35
ENDBRANCH  26  31
ENDBRANCH  24  26
ENDBRANCH  19  22
ENDBRANCH  15  16
ENDBRANCH  11  14
ENDBRANCH   7   8
ENDBRANCH   2   7
TORSDOF 10
ENDMDL
MODEL 5
REMARK VINA RESULT:      -5.1      2.795     12.301
REMARK  10 active torsions:
REMARK  status: ('A' for Active; 'I' for Inactive)
REMARK    1  A    between atoms: O_2  and  C_18 
REMARK    2  A    between atoms: O_5  and  N_8 
REMARK    3  A    between atoms: N_6  and  C_11 
REMARK    4  A    between atoms: N_7  and  C_15 
REMARK       I    between atoms: N_7  and  C_24 
REMARK       I    between atoms: N_8  and  C_23 
REMARK    5  A    between atoms: C_11  and  C_14 
REMARK    6  A    between atoms: C_15  and  C_18 
REMARK    7  A    between atoms: C_15  and  C_23 
REMARK    8  A    between atoms: C_21  and  C_26 
REMARK    9  A    between atoms: C_24  and  C_25 
REMARK   10  A    between atoms: C_29  and  C_32 
ROOT
HETATM    1  O   UNK     0       2.850  14.597  93.842  0.00  0.00    -0.388 OA
HETATM    2  N   UNK     0       2.980  14.800  91.006  0.00  0.00     0.096 N 
HETATM    3  C   UNK     0       1.925  14.023  91.673  0.00  0.00     0.299 C 
HETATM    4  C   UNK     0       4.193  14.816  91.833  0.00  0.00     0.299 C 
HETATM    5  C   UNK     0       1.655  14.603  93.059  0.00  0.00     0.198 C 
HETATM    6  C   UNK     0       3.870  15.376  93.215  0.00  0.00     0.198 C 
ENDROOT
BRANCH   2   7
HETATM    7  C   UNK     0       3.263  14.255  89.679  0.00  0.00     0.311 C 
BRANCH   7   8
HETATM    8  C   UNK     0       4.216  13.110  89.727  0.00  0.00    -0.030 A 
HETATM    9  C   UNK     0       5.504  13.254  89.210  0.00  0.00     0.010 A 
HETATM   10  C   UNK     0       6.396  12.183  89.253  0.00  0.00     0.021 A 
HETATM   11  C   UNK     0       6.000  10.969  89.813  0.00  0.00     0.018 A 
HETATM   12  C   UNK     0       4.714  10.824  90.329  0.00  0.00     0.021 A 
HETATM   13  C   UNK     0       3.821  11.895  90.286  0.00  0.00     0.010 A 
BRANCH  11  14
HETATM   14  C   UNK     0       6.916   9.870  89.858  0.00  0.00    -0.061 C 
HETATM   15  C   UNK     0       7.685   8.947  89.896  0.00  0.00    -0.061 C 
BRANCH  15  16
HETATM   16  C   UNK     0       8.600   7.851  89.942  0.00  0.00     0.018 A 
HETATM   17  C   UNK     0       9.385   7.551  88.828  0.00  0.00     0.022 A 
HETATM   18  C   UNK     0      10.280   6.482  88.873  0.00  0.00     0.018 A 
HETATM   19  C   UNK     0      10.372   5.738  90.031  0.00  0.00     0.032 A 
HETATM   20  C   UNK     0       9.608   6.013  91.145  0.00  0.00     0.018 A 
HETATM   21  C   UNK     0       8.712   7.081  91.100  0.00  0.00     0.022 A 
BRANCH  19  22
HETATM   22  C   UNK     0      11.324   4.598  90.078  0.00  0.00     0.252 C 
HETATM   23  O   UNK     0      11.464   3.892  89.082  0.00  0.00    -0.268 OA
HETATM   24  N   UNK     0      12.016   4.433  91.269  0.00  0.00    -0.341 N 
HETATM   25  H   UNK     0      11.866   5.071  92.042  0.00  0.00     0.163 HD
BRANCH  24  26
HETATM   26  C   UNK     0      12.990   3.389  91.462  0.00  0.00     0.207 C 
BRANCH  26  27
HETATM   27  C   UNK     0      14.127   3.805  92.404  0.00  0.00     0.146 C 
HETATM   28  C   UNK     0      15.193   2.724  92.547  0.00  0.00     0.042 C 
BRANCH  27  29
HETATM   29  O   UNK     0      14.740   4.998  91.915  0.00  0.00    -0.393 OA
HETATM   30  H   UNK     0      14.446   5.138  90.999  0.00  0.00     0.210 HD
ENDBRANCH  27  29
ENDBRANCH  26  27
BRANCH  26  31
HETATM   31  C   UNK     0      12.258   2.158  91.986  0.00  0.00     0.266 C 
HETATM   32  O   UNK     0      12.753   1.033  91.985  0.00  0.00    -0.269 OA
HETATM   33  N   UNK     0      10.987   2.454  92.415  0.00  0.00    -0.236 N 
HETATM   34  H   UNK     0      10.517   3.350  92.348  0.00  0.00     0.197 HD
BRANCH  33  35
HETATM   35  O   UNK     0      10.231   1.368  92.878  0.00  0.00    -0.287 OA
HETATM   36  H   UNK     0      10.845   0.637  92.694  0.00  0.00     0.244 HD
ENDBRANCH  33  35
ENDBRANCH  26  31
ENDBRANCH  24  26
ENDBRANCH  19  22
ENDBRANCH  15  16
ENDBRANCH  11  14
ENDBRANCH   7   8
ENDBRANCH   2   7
TORSDOF 10
ENDMDL
MODEL 6
REMARK VINA RESULT:      -4.6      1.640      2.633
REMARK  10 active torsions:
REMARK  status: ('A' for Active; 'I' for Inactive)
REMARK    1  A    between atoms: O_2  and  C_18 
REMARK    2  A    between atoms: O_5  and  N_8 
REMARK    3  A    between atoms: N_6  and  C_11 
REMARK    4  A    between atoms: N_7  and  C_15 
REMARK       I    between atoms: N_7  and  C_24 
REMARK       I    between atoms: N_8  and  C_23 
REMARK    5  A    between atoms: C_11  and  C_14 
REMARK    6  A    between atoms: C_15  and  C_18 
REMARK    7  A    between atoms: C_15  and  C_23 
REMARK    8  A    between atoms: C_21  and  C_26 
REMARK    9  A    between atoms: C_24  and  C_25 
REMARK   10  A    between atoms: C_29  and  C_32 
ROOT
HETATM    1  O   UNK     0      17.159   2.494  92.958  0.00  0.00    -0.388 OA
HETATM    2  N   UNK     0      14.347   2.915  92.846  0.00  0.00     0.096 N 
HETATM    3  C   UNK     0      15.041   2.702  94.124  0.00  0.00     0.299 C 
HETATM    4  C   UNK     0      15.064   2.231  91.763  0.00  0.00     0.299 C 
HETATM    5  C   UNK     0      16.486   3.183  94.013  0.00  0.00     0.198 C 
HETATM    6  C   UNK     0      16.508   2.721  91.708  0.00  0.00     0.198 C 
ENDROOT
BRANCH   2   7
HETATM    7  C   UNK     0      12.962   2.452  92.926  0.00  0.00     0.311 C 
BRANCH   7   8
HETATM    8  C   UNK     0      11.982   3.539  92.643  0.00  0.00    -0.030 A 
HETATM    9  C   UNK     0      11.426   3.660  91.369  0.00  0.00     0.010 A 
HETATM   10  C   UNK     0      10.510   4.678  91.102  0.00  0.00     0.021 A 
HETATM   11  C   UNK     0      10.150   5.572  92.110  0.00  0.00     0.018 A 
HETATM   12  C   UNK     0      10.705   5.451  93.383  0.00  0.00     0.021 A 
HETATM   13  C   UNK     0      11.621   4.434  93.650  0.00  0.00     0.010 A 
BRANCH  11  14
HETATM   14  C   UNK     0       9.209   6.615  91.837  0.00  0.00    -0.061 C 
HETATM   15  C   UNK     0       8.418   7.491  91.607  0.00  0.00    -0.061 C 
BRANCH  15  16
HETATM   16  C   UNK     0       7.479   8.532  91.333  0.00  0.00     0.018 A 
HETATM   17  C   UNK     0       6.733   9.089  92.373  0.00  0.00     0.022 A 
HETATM   18  C   UNK     0       5.818  10.107  92.106  0.00  0.00     0.018 A 
HETATM   19  C   UNK     0       5.668  10.545  90.807  0.00  0.00     0.032 A 
HETATM   20  C   UNK     0       6.392  10.011  89.762  0.00  0.00     0.018 A 
HETATM   21  C   UNK     0       7.308   8.993  90.028  0.00  0.00     0.022 A 
BRANCH  19  22
HETATM   22  C   UNK     0       4.691  11.628  90.523  0.00  0.00     0.252 C 
HETATM   23  O   UNK     0       3.873  11.476  89.619  0.00  0.00    -0.268 OA
HETATM   24  N   UNK     0       4.768  12.746  91.342  0.00  0.00    -0.341 N 
HETATM   25  H   UNK     0       5.454  12.791  92.086  0.00  0.00     0.163 HD
BRANCH  24  26
HETATM   26  C   UNK     0       3.874  13.869  91.207  0.00  0.00     0.207 C 
BRANCH  26  27
HETATM   27  C   UNK     0       3.951  14.527  89.824  0.00  0.00     0.146 C 
HETATM   28  C   UNK     0       5.365  14.521  89.253  0.00  0.00     0.042 C 
BRANCH  27  29
HETATM   29  O   UNK     0       3.084  13.842  88.921  0.00  0.00    -0.393 OA
HETATM   30  H   UNK     0       3.606  13.563  88.149  0.00  0.00     0.210 HD
ENDBRANCH  27  29
ENDBRANCH  26  27
BRANCH  26  31
HETATM   31  C   UNK     0       2.462  13.379  91.510  0.00  0.00     0.266 C 
HETATM   32  O   UNK     0       1.466  14.089  91.387  0.00  0.00    -0.269 OA
HETATM   33  N   UNK     0       2.449  12.083  91.966  0.00  0.00    -0.236 N 
HETATM   34  H   UNK     0       3.255  11.501  92.164  0.00  0.00     0.197 HD
BRANCH  33  35
HETATM   35  O   UNK     0       1.190  11.568  92.305  0.00  0.00    -0.287 OA
HETATM   36  H   UNK     0       0.642  11.979  91.615  0.00  0.00     0.244 HD
ENDBRANCH  33  35
ENDBRANCH  26  31
ENDBRANCH  24  26
ENDBRANCH  19  22
ENDBRANCH  15  16
ENDBRANCH  11  14
ENDBRANCH   7   8
ENDBRANCH   2   7
TORSDOF 10
ENDMDL
MODEL 7
REMARK VINA RESULT:      -4.2      2.222     12.544
REMARK  10 active torsions:
REMARK  status: ('A' for Active; 'I' for Inactive)
REMARK    1  A    between atoms: O_2  and  C_18 
REMARK    2  A    between atoms: O_5  and  N_8 
REMARK    3  A    between atoms: N_6  and  C_11 
REMARK    4  A    between atoms: N_7  and  C_15 
REMARK       I    between atoms: N_7  and  C_24 
REMARK       I    between atoms: N_8  and  C_23 
REMARK    5  A    between atoms: C_11  and  C_14 
REMARK    6  A    between atoms: C_15  and  C_18 
REMARK    7  A    between atoms: C_15  and  C_23 
REMARK    8  A    between atoms: C_21  and  C_26 
REMARK    9  A    between atoms: C_24  and  C_25 
REMARK   10  A    between atoms: C_29  and  C_32 
ROOT
HETATM    1  O   UNK     0       4.433  14.387  89.082  0.00  0.00    -0.388 OA
HETATM    2  N   UNK     0       3.398  13.801  91.669  0.00  0.00     0.096 N 
HETATM    3  C   UNK     0       4.810  14.154  91.469  0.00  0.00     0.299 C 
HETATM    4  C   UNK     0       2.866  13.152  90.463  0.00  0.00     0.299 C 
HETATM    5  C   UNK     0       4.950  15.048  90.239  0.00  0.00     0.198 C 
HETATM    6  C   UNK     0       3.052  14.068  89.257  0.00  0.00     0.198 C 
ENDROOT
BRANCH   2   7
HETATM    7  C   UNK     0       3.241  12.936  92.836  0.00  0.00     0.311 C 
BRANCH   7   8
HETATM    8  C   UNK     0       4.240  11.830  92.862  0.00  0.00    -0.030 A 
HETATM    9  C   UNK     0       4.837  11.458  94.068  0.00  0.00     0.010 A 
HETATM   10  C   UNK     0       5.773  10.425  94.093  0.00  0.00     0.021 A 
HETATM   11  C   UNK     0       6.111   9.763  92.913  0.00  0.00     0.018 A 
HETATM   12  C   UNK     0       5.515  10.133  91.709  0.00  0.00     0.021 A 
HETATM   13  C   UNK     0       4.579  11.166  91.683  0.00  0.00     0.010 A 
BRANCH  11  14
HETATM   14  C   UNK     0       7.070   8.701  92.939  0.00  0.00    -0.061 C 
HETATM   15  C   UNK     0       7.876   7.809  92.961  0.00  0.00    -0.061 C 
BRANCH  15  16
HETATM   16  C   UNK     0       8.834   6.750  92.989  0.00  0.00     0.018 A 
HETATM   17  C   UNK     0       8.943   5.880  91.902  0.00  0.00     0.022 A 
HETATM   18  C   UNK     0       9.879   4.847  91.928  0.00  0.00     0.018 A 
HETATM   19  C   UNK     0      10.687   4.707  93.037  0.00  0.00     0.032 A 
HETATM   20  C   UNK     0      10.599   5.552  94.123  0.00  0.00     0.018 A 
HETATM   21  C   UNK     0       9.662   6.585  94.099  0.00  0.00     0.022 A 
BRANCH  19  22
HETATM   22  C   UNK     0      11.683   3.605  93.064  0.00  0.00     0.252 C 
HETATM   23  O   UNK     0      11.386   2.515  92.582  0.00  0.00    -0.268 OA
HETATM   24  N   UNK     0      12.914   3.912  93.627  0.00  0.00    -0.341 N 
HETATM   25  H   UNK     0      13.097   4.843  93.983  0.00  0.00     0.163 HD
BRANCH  24  26
HETATM   26  C   UNK     0      13.991   2.958  93.705  0.00  0.00     0.207 C 
BRANCH  26  27
HETATM   27  C   UNK     0      14.039   2.017  92.495  0.00  0.00     0.146 C 
HETATM   28  C   UNK     0      14.930   2.548  91.377  0.00  0.00     0.042 C 
BRANCH  27  29
HETATM   29  O   UNK     0      14.522   0.738  92.904  0.00  0.00    -0.393 OA
HETATM   30  H   UNK     0      14.946   0.313  92.139  0.00  0.00     0.210 HD
ENDBRANCH  27  29
ENDBRANCH  26  27
BRANCH  26  31
HETATM   31  C   UNK     0      15.294   3.737  93.853  0.00  0.00     0.266 C 
HETATM   32  O   UNK     0      15.348   4.965  93.816  0.00  0.00    -0.269 OA
HETATM   33  N   UNK     0      16.381   2.909  93.991  0.00  0.00    -0.236 N 
HETATM   34  H   UNK     0      16.384   1.897  93.937  0.00  0.00     0.197 HD
BRANCH  33  35
HETATM   35  O   UNK     0      17.625   3.547  94.096  0.00  0.00    -0.287 OA
HETATM   36  H   UNK     0      17.529   4.229  93.409  0.00  0.00     0.244 HD
ENDBRANCH  33  35
ENDBRANCH  26  31
ENDBRANCH  24  26
ENDBRANCH  19  22
ENDBRANCH  15  16
ENDBRANCH  11  14
ENDBRANCH   7   8
ENDBRANCH   2   7
TORSDOF 10
ENDMDL
