MODEL 1
REMARK VINA RESULT:      -7.0      0.000      0.000
REMARK  10 active torsions:
REMARK  status: ('A' for Active; 'I' for Inactive)
REMARK    1  A    between atoms: O_2  and  C_18 
REMARK    2  A    between atoms: O_5  and  N_8 
REMARK    3  A    between atoms: N_6  and  C_11 
REMARK    4  A    between atoms: N_7  and  C_15 
REMARK       I    between atoms: N_7  and  C_24 
REMARK       I    between atoms: N_8  and  C_23 
REMARK    5  A    between atoms: C_11  and  C_14 
REMARK    6  A    between atoms: C_15  and  C_18 
REMARK    7  A    between atoms: C_15  and  C_23 
REMARK    8  A    between atoms: C_21  and  C_26 
REMARK    9  A    between atoms: C_24  and  C_25 
REMARK   10  A    between atoms: C_29  and  C_32 
ROOT
HETATM    1  O   UNK     0      17.231   4.410  93.798  0.00  0.00    -0.388 OA
HETATM    2  N   UNK     0      14.830   2.889  93.643  0.00  0.00     0.096 N 
HETATM    3  C   UNK     0      16.138   2.292  93.342  0.00  0.00     0.299 C 
HETATM    4  C   UNK     0      14.850   4.326  93.337  0.00  0.00     0.299 C 
HETATM    5  C   UNK     0      17.231   3.019  94.122  0.00  0.00     0.198 C 
HETATM    6  C   UNK     0      15.973   5.005  94.117  0.00  0.00     0.198 C 
ENDROOT
BRANCH   2   7
HETATM    7  C   UNK     0      13.769   2.215  92.897  0.00  0.00     0.311 C 
BRANCH   7   8
HETATM    8  C   UNK     0      12.689   3.151  92.473  0.00  0.00    -0.030 A 
HETATM    9  C   UNK     0      12.462   3.385  91.116  0.00  0.00     0.010 A 
HETATM   10  C   UNK     0      11.454   4.262  90.719  0.00  0.00     0.021 A 
HETATM   11  C   UNK     0      10.671   4.904  91.678  0.00  0.00     0.018 A 
HETATM   12  C   UNK     0      10.897   4.672  93.033  0.00  0.00     0.021 A 
HETATM   13  C   UNK     0      11.906   3.795  93.431  0.00  0.00     0.010 A 
BRANCH  11  14
HETATM   14  C   UNK     0       9.635   5.803  91.270  0.00  0.00    -0.061 C 
HETATM   15  C   UNK     0       8.765   6.558  90.927  0.00  0.00    -0.061 C 
BRANCH  15  16
HETATM   16  C   UNK     0       7.731   7.456  90.520  0.00  0.00     0.018 A 
HETATM   17  C   UNK     0       7.683   8.747  91.047  0.00  0.00     0.022 A 
HETATM   18  C   UNK     0       6.675   9.625  90.648  0.00  0.00     0.018 A 
HETATM   19  C   UNK     0       5.739   9.194  89.732  0.00  0.00     0.032 A 
HETATM   20  C   UNK     0       5.764   7.923  89.197  0.00  0.00     0.018 A 
HETATM   21  C   UNK     0       6.771   7.044  89.596  0.00  0.00     0.022 A 
BRANCH  19  22
HETATM   22  C   UNK     0       4.664  10.129  89.309  0.00  0.00     0.252 C 
HETATM   23  O   UNK     0       3.950   9.830  88.355  0.00  0.00    -0.268 OA
HETATM   24  N   UNK     0       4.535  11.287  90.062  0.00  0.00    -0.341 N 
HETATM   25  H   UNK     0       5.145  11.455  90.853  0.00  0.00     0.163 HD
BRANCH  24  26
HETATM   26  C   UNK     0       3.525  12.279  89.792  0.00  0.00     0.207 C 
BRANCH  26  27
HETATM   27  C   UNK     0       2.985  12.939  91.068  0.00  0.00     0.146 C 
HETATM   28  C   UNK     0       2.262  11.950  91.975  0.00  0.00     0.042 C 
BRANCH  27  29
HETATM   29  O   UNK     0       4.063  13.531  91.792  0.00  0.00    -0.393 OA
HETATM   30  H   UNK     0       4.062  14.486  91.614  0.00  0.00     0.210 HD
ENDBRANCH  27  29
ENDBRANCH  26  27
BRANCH  26  31
HETATM   31  C   UNK     0       4.129  13.313  88.847  0.00  0.00     0.266 C 
HETATM   32  O   UNK     0       4.345  14.477  89.177  0.00  0.00    -0.269 OA
HETATM   33  N   UNK     0       4.358  12.798  87.594  0.00  0.00    -0.236 N 
HETATM   34  H   UNK     0       4.110  11.873  87.263  0.00  0.00     0.197 HD
BRANCH  33  35
HETATM   35  O   UNK     0       4.878  13.696  86.651  0.00  0.00    -0.287 OA
HETATM   36  H   UNK     0       5.354  13.081  86.068  0.00  0.00     0.244 HD
ENDBRANCH  33  35
ENDBRANCH  26  31
ENDBRANCH  24  26
ENDBRANCH  19  22
ENDBRANCH  15  16
ENDBRANCH  11  14
ENDBRANCH   7   8
ENDBRANCH   2   7
TORSDOF 10
ENDMDL
