MODEL 1
REMARK VINA RESULT:      -7.6      0.000      0.000
REMARK  9 active torsions:
REMARK  status: ('A' for Active; 'I' for Inactive)
REMARK    1  A    between atoms: N_3  and  C_6 
REMARK    2  A    between atoms: C_6  and  C_9 
REMARK    3  A    between atoms: C_14  and  C_17 
REMARK       I    between atoms: N_26  and  C_15 
REMARK    4  A    between atoms: C_15  and  C_16 
REMARK    5  A    between atoms: C_20  and  C_23 
REMARK    6  A    between atoms: OG1_24  and  CB_28 
REMARK    7  A    between atoms: N_26  and  CA_27 
REMARK    8  A    between atoms: CA_27  and  CB_28 
REMARK    9  A    between atoms: CA_27  and  C_30 
ROOT
HETATM    1  O   UNK A   0       1.921   8.301  87.953  1.00  0.00    -0.388 OA
HETATM    2  N   UNK A   0       4.680   7.644  87.723  1.00  0.00     0.096 N 
HETATM    3  C   UNK A   0       4.229   9.038  87.826  1.00  0.00     0.299 C 
HETATM    4  C   UNK A   0       3.639   6.823  87.089  1.00  0.00     0.299 C 
HETATM    5  C   UNK A   0       2.914   9.100  88.598  1.00  0.00     0.198 C 
HETATM    6  C   UNK A   0       2.338   6.937  87.877  1.00  0.00     0.198 C 
ENDROOT
BRANCH   2   7
HETATM    7  C   UNK A   0       5.935   7.559  86.977  1.00  0.00     0.311 C 
BRANCH   7   8
HETATM    8  C   UNK A   0       7.036   6.960  87.784  1.00  0.00    -0.030 A 
HETATM    9  C   UNK A   0       8.286   6.742  87.203  1.00  0.00     0.010 A 
HETATM   10  C   UNK A   0       9.316   6.179  87.957  1.00  0.00     0.021 A 
HETATM   11  C   UNK A   0       9.097   5.838  89.291  1.00  0.00     0.018 A 
HETATM   12  C   UNK A   0       7.849   6.056  89.872  1.00  0.00     0.021 A 
HETATM   13  C   UNK A   0       6.819   6.617  89.119  1.00  0.00     0.010 A 
BRANCH  11  14
HETATM   14  C   UNK A   0      10.155   5.263  90.064  1.00  0.00    -0.061 C 
HETATM   15  C   UNK A   0      11.044   4.779  90.713  1.00  0.00    -0.061 C 
BRANCH  15  16
HETATM   16  C   UNK A   0      12.101   4.205  91.485  1.00  0.00     0.018 A 
HETATM   17  C   UNK A   0      11.881   3.857  92.818  1.00  0.00     0.022 A 
HETATM   18  C   UNK A   0      12.912   3.294  93.570  1.00  0.00     0.018 A 
HETATM   19  C   UNK A   0      14.139   3.091  92.973  1.00  0.00     0.032 A 
HETATM   20  C   UNK A   0      14.381   3.427  91.658  1.00  0.00     0.018 A 
HETATM   21  C   UNK A   0      13.351   3.990  90.904  1.00  0.00     0.022 A 
BRANCH  19  22
HETATM   22  C   UNK A   0      15.237   2.494  93.775  1.00  0.00     0.252 C 
HETATM   23  O   UNK A   0      16.385   2.902  93.618  1.00  0.00    -0.268 OA
ENDBRANCH  19  22
ENDBRANCH  15  16
ENDBRANCH  11  14
ENDBRANCH   7   8
ENDBRANCH   2   7
TORSDOF 9
ENDMDL
MODEL 2
REMARK VINA RESULT:      -7.5      0.121      1.013
REMARK  9 active torsions:
REMARK  status: ('A' for Active; 'I' for Inactive)
REMARK    1  A    between atoms: N_3  and  C_6 
REMARK    2  A    between atoms: C_6  and  C_9 
REMARK    3  A    between atoms: C_14  and  C_17 
REMARK       I    between atoms: N_26  and  C_15 
REMARK    4  A    between atoms: C_15  and  C_16 
REMARK    5  A    between atoms: C_20  and  C_23 
REMARK    6  A    between atoms: OG1_24  and  CB_28 
REMARK    7  A    between atoms: N_26  and  CA_27 
REMARK    8  A    between atoms: CA_27  and  CB_28 
REMARK    9  A    between atoms: CA_27  and  C_30 
ROOT
HETATM    1  O   UNK A   0       1.920   8.087  87.846  1.00  0.00    -0.388 OA
HETATM    2  N   UNK A   0       4.714   7.563  87.689  1.00  0.00     0.096 N 
HETATM    3  C   UNK A   0       4.196   8.931  87.826  1.00  0.00     0.299 C 
HETATM    4  C   UNK A   0       3.733   6.721  86.990  1.00  0.00     0.299 C 
HETATM    5  C   UNK A   0       2.854   8.906  88.553  1.00  0.00     0.198 C 
HETATM    6  C   UNK A   0       2.403   6.747  87.736  1.00  0.00     0.198 C 
ENDROOT
BRANCH   2   7
HETATM    7  C   UNK A   0       5.995   7.562  86.985  1.00  0.00     0.311 C 
BRANCH   7   8
HETATM    8  C   UNK A   0       7.089   6.958  87.797  1.00  0.00    -0.030 A 
HETATM    9  C   UNK A   0       6.891   6.705  89.155  1.00  0.00     0.010 A 
HETATM   10  C   UNK A   0       7.915   6.142  89.916  1.00  0.00     0.021 A 
HETATM   11  C   UNK A   0       9.135   5.829  89.318  1.00  0.00     0.018 A 
HETATM   12  C   UNK A   0       9.334   6.081  87.963  1.00  0.00     0.021 A 
HETATM   13  C   UNK A   0       8.311   6.645  87.201  1.00  0.00     0.010 A 
BRANCH  11  14
HETATM   14  C   UNK A   0      10.185   5.249  90.099  1.00  0.00    -0.061 C 
HETATM   15  C   UNK A   0      11.066   4.762  90.756  1.00  0.00    -0.061 C 
BRANCH  15  16
HETATM   16  C   UNK A   0      12.114   4.182  91.536  1.00  0.00     0.018 A 
HETATM   17  C   UNK A   0      11.896   3.879  92.880  1.00  0.00     0.022 A 
HETATM   18  C   UNK A   0      12.918   3.310  93.641  1.00  0.00     0.018 A 
HETATM   19  C   UNK A   0      14.133   3.057  93.040  1.00  0.00     0.032 A 
HETATM   20  C   UNK A   0      14.374   3.347  91.714  1.00  0.00     0.018 A 
HETATM   21  C   UNK A   0      13.353   3.916  90.953  1.00  0.00     0.022 A 
BRANCH  19  22
HETATM   22  C   UNK A   0      15.222   2.453  93.851  1.00  0.00     0.252 C 
HETATM   23  O   UNK A   0      16.359   2.910  93.764  1.00  0.00    -0.268 OA
ENDBRANCH  19  22
ENDBRANCH  15  16
ENDBRANCH  11  14
ENDBRANCH   7   8
ENDBRANCH   2   7
TORSDOF 9
ENDMDL
MODEL 3
REMARK VINA RESULT:      -7.5      0.217      1.031
REMARK  9 active torsions:
REMARK  status: ('A' for Active; 'I' for Inactive)
REMARK    1  A    between atoms: N_3  and  C_6 
REMARK    2  A    between atoms: C_6  and  C_9 
REMARK    3  A    between atoms: C_14  and  C_17 
REMARK       I    between atoms: N_26  and  C_15 
REMARK    4  A    between atoms: C_15  and  C_16 
REMARK    5  A    between atoms: C_20  and  C_23 
REMARK    6  A    between atoms: OG1_24  and  CB_28 
REMARK    7  A    between atoms: N_26  and  CA_27 
REMARK    8  A    between atoms: CA_27  and  CB_28 
REMARK    9  A    between atoms: CA_27  and  C_30 
ROOT
HETATM    1  O   UNK A   0       1.685   7.950  87.884  1.00  0.00    -0.388 OA
HETATM    2  N   UNK A   0       4.495   7.527  87.711  1.00  0.00     0.096 N 
HETATM    3  C   UNK A   0       3.928   8.876  87.847  1.00  0.00     0.299 C 
HETATM    4  C   UNK A   0       3.541   6.648  87.021  1.00  0.00     0.299 C 
HETATM    5  C   UNK A   0       2.593   8.804  88.583  1.00  0.00     0.198 C 
HETATM    6  C   UNK A   0       2.215   6.629  87.775  1.00  0.00     0.198 C 
ENDROOT
BRANCH   2   7
HETATM    7  C   UNK A   0       5.770   7.571  86.999  1.00  0.00     0.311 C 
BRANCH   7   8
HETATM    8  C   UNK A   0       6.883   6.970  87.788  1.00  0.00    -0.030 A 
HETATM    9  C   UNK A   0       8.133   6.780  87.198  1.00  0.00     0.010 A 
HETATM   10  C   UNK A   0       9.174   6.216  87.935  1.00  0.00     0.021 A 
HETATM   11  C   UNK A   0       8.964   5.843  89.262  1.00  0.00     0.018 A 
HETATM   12  C   UNK A   0       7.717   6.032  89.853  1.00  0.00     0.021 A 
HETATM   13  C   UNK A   0       6.675   6.596  89.116  1.00  0.00     0.010 A 
BRANCH  11  14
HETATM   14  C   UNK A   0      10.033   5.266  90.019  1.00  0.00    -0.061 C 
HETATM   15  C   UNK A   0      10.930   4.781  90.655  1.00  0.00    -0.061 C 
BRANCH  15  16
HETATM   16  C   UNK A   0      11.998   4.204  91.411  1.00  0.00     0.018 A 
HETATM   17  C   UNK A   0      13.246   4.011  90.818  1.00  0.00     0.022 A 
HETATM   18  C   UNK A   0      14.288   3.450  91.556  1.00  0.00     0.018 A 
HETATM   19  C   UNK A   0      14.060   3.096  92.870  1.00  0.00     0.032 A 
HETATM   20  C   UNK A   0      12.835   3.276  93.478  1.00  0.00     0.018 A 
HETATM   21  C   UNK A   0      11.792   3.837  92.741  1.00  0.00     0.022 A 
BRANCH  19  22
HETATM   22  C   UNK A   0      15.170   2.497  93.655  1.00  0.00     0.252 C 
HETATM   23  O   UNK A   0      16.245   3.088  93.721  1.00  0.00    -0.268 OA
ENDBRANCH  19  22
ENDBRANCH  15  16
ENDBRANCH  11  14
ENDBRANCH   7   8
ENDBRANCH   2   7
TORSDOF 9
ENDMDL
MODEL 4
REMARK VINA RESULT:      -7.1      1.063      1.557
REMARK  9 active torsions:
REMARK  status: ('A' for Active; 'I' for Inactive)
REMARK    1  A    between atoms: N_3  and  C_6 
REMARK    2  A    between atoms: C_6  and  C_9 
REMARK    3  A    between atoms: C_14  and  C_17 
REMARK       I    between atoms: N_26  and  C_15 
REMARK    4  A    between atoms: C_15  and  C_16 
REMARK    5  A    between atoms: C_20  and  C_23 
REMARK    6  A    between atoms: OG1_24  and  CB_28 
REMARK    7  A    between atoms: N_26  and  CA_27 
REMARK    8  A    between atoms: CA_27  and  CB_28 
REMARK    9  A    between atoms: CA_27  and  C_30 
ROOT
HETATM    1  O   UNK A   0       1.914   7.108  86.889  1.00  0.00    -0.388 OA
HETATM    2  N   UNK A   0       4.175   7.961  88.394  1.00  0.00     0.096 N 
HETATM    3  C   UNK A   0       2.974   8.799  88.271  1.00  0.00     0.299 C 
HETATM    4  C   UNK A   0       4.319   7.111  87.204  1.00  0.00     0.299 C 
HETATM    5  C   UNK A   0       1.747   7.916  88.056  1.00  0.00     0.198 C 
HETATM    6  C   UNK A   0       3.062   6.268  87.014  1.00  0.00     0.198 C 
ENDROOT
BRANCH   2   7
HETATM    7  C   UNK A   0       5.365   8.788  88.589  1.00  0.00     0.311 C 
BRANCH   7   8
HETATM    8  C   UNK A   0       6.507   8.014  89.155  1.00  0.00    -0.030 A 
HETATM    9  C   UNK A   0       7.730   7.987  88.484  1.00  0.00     0.010 A 
HETATM   10  C   UNK A   0       8.798   7.262  89.011  1.00  0.00     0.021 A 
HETATM   11  C   UNK A   0       8.644   6.566  90.210  1.00  0.00     0.018 A 
HETATM   12  C   UNK A   0       7.423   6.593  90.881  1.00  0.00     0.021 A 
HETATM   13  C   UNK A   0       6.354   7.317  90.354  1.00  0.00     0.010 A 
BRANCH  11  14
HETATM   14  C   UNK A   0       9.741   5.824  90.752  1.00  0.00    -0.061 C 
HETATM   15  C   UNK A   0      10.663   5.202  91.207  1.00  0.00    -0.061 C 
BRANCH  15  16
HETATM   16  C   UNK A   0      11.759   4.460  91.750  1.00  0.00     0.018 A 
HETATM   17  C   UNK A   0      12.872   4.182  90.956  1.00  0.00     0.022 A 
HETATM   18  C   UNK A   0      13.942   3.461  91.486  1.00  0.00     0.018 A 
HETATM   19  C   UNK A   0      13.875   3.036  92.796  1.00  0.00     0.032 A 
HETATM   20  C   UNK A   0      12.786   3.298  93.601  1.00  0.00     0.018 A 
HETATM   21  C   UNK A   0      11.716   4.019  93.072  1.00  0.00     0.022 A 
BRANCH  19  22
HETATM   22  C   UNK A   0      15.015   2.267  93.360  1.00  0.00     0.252 C 
HETATM   23  O   UNK A   0      15.921   2.869  93.930  1.00  0.00    -0.268 OA
ENDBRANCH  19  22
ENDBRANCH  15  16
ENDBRANCH  11  14
ENDBRANCH   7   8
ENDBRANCH   2   7
TORSDOF 9
ENDMDL
MODEL 5
REMARK VINA RESULT:      -6.8      1.242      2.069
REMARK  9 active torsions:
REMARK  status: ('A' for Active; 'I' for Inactive)
REMARK    1  A    between atoms: N_3  and  C_6 
REMARK    2  A    between atoms: C_6  and  C_9 
REMARK    3  A    between atoms: C_14  and  C_17 
REMARK       I    between atoms: N_26  and  C_15 
REMARK    4  A    between atoms: C_15  and  C_16 
REMARK    5  A    between atoms: C_20  and  C_23 
REMARK    6  A    between atoms: OG1_24  and  CB_28 
REMARK    7  A    between atoms: N_26  and  CA_27 
REMARK    8  A    between atoms: CA_27  and  CB_28 
REMARK    9  A    between atoms: CA_27  and  C_30 
ROOT
HETATM    1  O   UNK A   0       4.241  11.049  88.969  1.00  0.00    -0.388 OA
HETATM    2  N   UNK A   0       5.205   8.404  88.549  1.00  0.00     0.096 N 
HETATM    3  C   UNK A   0       6.109   9.499  88.928  1.00  0.00     0.299 C 
HETATM    4  C   UNK A   0       4.060   8.933  87.796  1.00  0.00     0.299 C 
HETATM    5  C   UNK A   0       5.342  10.548  89.730  1.00  0.00     0.198 C 
HETATM    6  C   UNK A   0       3.342   9.995  88.624  1.00  0.00     0.198 C 
ENDROOT
BRANCH   2   7
HETATM    7  C   UNK A   0       5.917   7.392  87.770  1.00  0.00     0.311 C 
BRANCH   7   8
HETATM    8  C   UNK A   0       7.058   6.796  88.520  1.00  0.00    -0.030 A 
HETATM    9  C   UNK A   0       6.829   6.132  89.726  1.00  0.00     0.010 A 
HETATM   10  C   UNK A   0       7.897   5.576  90.430  1.00  0.00     0.021 A 
HETATM   11  C   UNK A   0       9.193   5.683  89.927  1.00  0.00     0.018 A 
HETATM   12  C   UNK A   0       9.423   6.345  88.724  1.00  0.00     0.021 A 
HETATM   13  C   UNK A   0       8.356   6.902  88.020  1.00  0.00     0.010 A 
BRANCH  11  14
HETATM   14  C   UNK A   0      10.288   5.110  90.649  1.00  0.00    -0.061 C 
HETATM   15  C   UNK A   0      11.209   4.630  91.254  1.00  0.00    -0.061 C 
BRANCH  15  16
HETATM   16  C   UNK A   0      12.304   4.059  91.975  1.00  0.00     0.018 A 
HETATM   17  C   UNK A   0      13.544   3.908  91.354  1.00  0.00     0.022 A 
HETATM   18  C   UNK A   0      14.612   3.353  92.058  1.00  0.00     0.018 A 
HETATM   19  C   UNK A   0      14.417   2.963  93.367  1.00  0.00     0.032 A 
HETATM   20  C   UNK A   0      13.202   3.101  94.003  1.00  0.00     0.018 A 
HETATM   21  C   UNK A   0      12.132   3.656  93.300  1.00  0.00     0.022 A 
BRANCH  19  22
HETATM   22  C   UNK A   0      15.556   2.370  94.116  1.00  0.00     0.252 C 
HETATM   23  O   UNK A   0      16.672   2.870  94.004  1.00  0.00    -0.268 OA
ENDBRANCH  19  22
ENDBRANCH  15  16
ENDBRANCH  11  14
ENDBRANCH   7   8
ENDBRANCH   2   7
TORSDOF 9
ENDMDL
MODEL 6
REMARK VINA RESULT:      -6.6      3.874     10.412
REMARK  9 active torsions:
REMARK  status: ('A' for Active; 'I' for Inactive)
REMARK    1  A    between atoms: N_3  and  C_6 
REMARK    2  A    between atoms: C_6  and  C_9 
REMARK    3  A    between atoms: C_14  and  C_17 
REMARK       I    between atoms: N_26  and  C_15 
REMARK    4  A    between atoms: C_15  and  C_16 
REMARK    5  A    between atoms: C_20  and  C_23 
REMARK    6  A    between atoms: OG1_24  and  CB_28 
REMARK    7  A    between atoms: N_26  and  CA_27 
REMARK    8  A    between atoms: CA_27  and  CB_28 
REMARK    9  A    between atoms: CA_27  and  C_30 
ROOT
HETATM    1  O   UNK A   0      14.588   3.342  92.132  1.00  0.00    -0.388 OA
HETATM    2  N   UNK A   0      11.873   4.175  92.314  1.00  0.00     0.096 N 
HETATM    3  C   UNK A   0      12.485   3.324  93.343  1.00  0.00     0.299 C 
HETATM    4  C   UNK A   0      12.519   3.940  91.016  1.00  0.00     0.299 C 
HETATM    5  C   UNK A   0      13.988   3.587  93.405  1.00  0.00     0.198 C 
HETATM    6  C   UNK A   0      14.020   4.188  91.132  1.00  0.00     0.198 C 
ENDROOT
BRANCH   2   7
HETATM    7  C   UNK A   0      10.434   3.931  92.230  1.00  0.00     0.311 C 
BRANCH   7   8
HETATM    8  C   UNK A   0       9.663   5.174  91.939  1.00  0.00    -0.030 A 
HETATM    9  C   UNK A   0       8.680   5.168  90.949  1.00  0.00     0.010 A 
HETATM   10  C   UNK A   0       7.959   6.330  90.674  1.00  0.00     0.021 A 
HETATM   11  C   UNK A   0       8.222   7.497  91.391  1.00  0.00     0.018 A 
HETATM   12  C   UNK A   0       9.203   7.505  92.380  1.00  0.00     0.021 A 
HETATM   13  C   UNK A   0       9.924   6.343  92.654  1.00  0.00     0.010 A 
BRANCH  11  14
HETATM   14  C   UNK A   0       7.481   8.689  91.110  1.00  0.00    -0.061 C 
HETATM   15  C   UNK A   0       6.859   9.690  90.874  1.00  0.00    -0.061 C 
BRANCH  15  16
HETATM   16  C   UNK A   0       6.118  10.881  90.595  1.00  0.00     0.018 A 
HETATM   17  C   UNK A   0       5.295  11.435  91.575  1.00  0.00     0.022 A 
HETATM   18  C   UNK A   0       4.575  12.599  91.303  1.00  0.00     0.018 A 
HETATM   19  C   UNK A   0       4.695  13.181  90.058  1.00  0.00     0.032 A 
HETATM   20  C   UNK A   0       5.501  12.652  89.073  1.00  0.00     0.018 A 
HETATM   21  C   UNK A   0       6.221  11.489  89.343  1.00  0.00     0.022 A 
BRANCH  19  22
HETATM   22  C   UNK A   0       3.926  14.419  89.768  1.00  0.00     0.252 C 
HETATM   23  O   UNK A   0       4.484  15.509  89.866  1.00  0.00    -0.268 OA
ENDBRANCH  19  22
ENDBRANCH  15  16
ENDBRANCH  11  14
ENDBRANCH   7   8
ENDBRANCH   2   7
TORSDOF 9
ENDMDL
MODEL 7
REMARK VINA RESULT:      -6.6      3.420     10.376
REMARK  9 active torsions:
REMARK  status: ('A' for Active; 'I' for Inactive)
REMARK    1  A    between atoms: N_3  and  C_6 
REMARK    2  A    between atoms: C_6  and  C_9 
REMARK    3  A    between atoms: C_14  and  C_17 
REMARK       I    between atoms: N_26  and  C_15 
REMARK    4  A    between atoms: C_15  and  C_16 
REMARK    5  A    between atoms: C_20  and  C_23 
REMARK    6  A    between atoms: OG1_24  and  CB_28 
REMARK    7  A    between atoms: N_26  and  CA_27 
REMARK    8  A    between atoms: CA_27  and  CB_28 
REMARK    9  A    between atoms: CA_27  and  C_30 
ROOT
HETATM    1  O   UNK A   0      16.046   3.054  93.570  1.00  0.00    -0.388 OA
HETATM    2  N   UNK A   0      13.352   2.995  92.655  1.00  0.00     0.096 N 
HETATM    3  C   UNK A   0      14.040   1.774  93.095  1.00  0.00     0.299 C 
HETATM    4  C   UNK A   0      14.325   3.956  92.118  1.00  0.00     0.299 C 
HETATM    5  C   UNK A   0      15.112   2.126  94.124  1.00  0.00     0.198 C 
HETATM    6  C   UNK A   0      15.389   4.257  93.168  1.00  0.00     0.198 C 
ENDROOT
BRANCH   2   7
HETATM    7  C   UNK A   0      12.327   2.682  91.661  1.00  0.00     0.311 C 
BRANCH   7   8
HETATM    8  C   UNK A   0      11.471   3.859  91.337  1.00  0.00    -0.030 A 
HETATM    9  C   UNK A   0      10.803   4.536  92.358  1.00  0.00     0.010 A 
HETATM   10  C   UNK A   0      10.000   5.636  92.057  1.00  0.00     0.021 A 
HETATM   11  C   UNK A   0       9.867   6.059  90.735  1.00  0.00     0.018 A 
HETATM   12  C   UNK A   0      10.534   5.384  89.714  1.00  0.00     0.021 A 
HETATM   13  C   UNK A   0      11.336   4.284  90.015  1.00  0.00     0.010 A 
BRANCH  11  14
HETATM   14  C   UNK A   0       9.045   7.189  90.426  1.00  0.00    -0.061 C 
HETATM   15  C   UNK A   0       8.354   8.138  90.166  1.00  0.00    -0.061 C 
BRANCH  15  16
HETATM   16  C   UNK A   0       7.532   9.266  89.857  1.00  0.00     0.018 A 
HETATM   17  C   UNK A   0       8.121  10.486  89.522  1.00  0.00     0.022 A 
HETATM   18  C   UNK A   0       7.319  11.586  89.218  1.00  0.00     0.018 A 
HETATM   19  C   UNK A   0       5.947  11.442  89.256  1.00  0.00     0.032 A 
HETATM   20  C   UNK A   0       5.342  10.247  89.585  1.00  0.00     0.018 A 
HETATM   21  C   UNK A   0       6.143   9.146  89.889  1.00  0.00     0.022 A 
BRANCH  19  22
HETATM   22  C   UNK A   0       5.093  12.614  88.935  1.00  0.00     0.252 C 
HETATM   23  O   UNK A   0       5.064  13.036  87.781  1.00  0.00    -0.268 OA
ENDBRANCH  19  22
ENDBRANCH  15  16
ENDBRANCH  11  14
ENDBRANCH   7   8
ENDBRANCH   2   7
TORSDOF 9
ENDMDL
MODEL 8
REMARK VINA RESULT:      -6.4      1.311      2.141
REMARK  9 active torsions:
REMARK  status: ('A' for Active; 'I' for Inactive)
REMARK    1  A    between atoms: N_3  and  C_6 
REMARK    2  A    between atoms: C_6  and  C_9 
REMARK    3  A    between atoms: C_14  and  C_17 
REMARK       I    between atoms: N_26  and  C_15 
REMARK    4  A    between atoms: C_15  and  C_16 
REMARK    5  A    between atoms: C_20  and  C_23 
REMARK    6  A    between atoms: OG1_24  and  CB_28 
REMARK    7  A    between atoms: N_26  and  CA_27 
REMARK    8  A    between atoms: CA_27  and  CB_28 
REMARK    9  A    between atoms: CA_27  and  C_30 
ROOT
HETATM    1  O   UNK A   0       1.248   7.652  88.765  1.00  0.00    -0.388 OA
HETATM    2  N   UNK A   0       4.041   8.112  89.060  1.00  0.00     0.096 N 
HETATM    3  C   UNK A   0       3.168   7.915  90.225  1.00  0.00     0.299 C 
HETATM    4  C   UNK A   0       3.277   8.705  87.953  1.00  0.00     0.299 C 
HETATM    5  C   UNK A   0       1.974   7.047  89.836  1.00  0.00     0.198 C 
HETATM    6  C   UNK A   0       2.081   7.819  87.618  1.00  0.00     0.198 C 
ENDROOT
BRANCH   2   7
HETATM    7  C   UNK A   0       5.187   8.951  89.407  1.00  0.00     0.311 C 
BRANCH   7   8
HETATM    8  C   UNK A   0       6.360   8.150  89.862  1.00  0.00    -0.030 A 
HETATM    9  C   UNK A   0       6.989   8.458  91.068  1.00  0.00     0.010 A 
HETATM   10  C   UNK A   0       8.087   7.711  91.493  1.00  0.00     0.021 A 
HETATM   11  C   UNK A   0       8.555   6.655  90.712  1.00  0.00     0.018 A 
HETATM   12  C   UNK A   0       7.927   6.346  89.507  1.00  0.00     0.021 A 
HETATM   13  C   UNK A   0       6.829   7.093  89.081  1.00  0.00     0.010 A 
BRANCH  11  14
HETATM   14  C   UNK A   0       9.680   5.887  91.149  1.00  0.00    -0.061 C 
HETATM   15  C   UNK A   0      10.626   5.243  91.517  1.00  0.00    -0.061 C 
BRANCH  15  16
HETATM   16  C   UNK A   0      11.751   4.476  91.954  1.00  0.00     0.018 A 
HETATM   17  C   UNK A   0      12.829   4.268  91.094  1.00  0.00     0.022 A 
HETATM   18  C   UNK A   0      13.927   3.522  91.522  1.00  0.00     0.018 A 
HETATM   19  C   UNK A   0      13.923   3.002  92.799  1.00  0.00     0.032 A 
HETATM   20  C   UNK A   0      12.870   3.194  93.668  1.00  0.00     0.018 A 
HETATM   21  C   UNK A   0      11.771   3.939  93.241  1.00  0.00     0.022 A 
BRANCH  19  22
HETATM   22  C   UNK A   0      15.093   2.206  93.254  1.00  0.00     0.252 C 
HETATM   23  O   UNK A   0      16.176   2.766  93.409  1.00  0.00    -0.268 OA
ENDBRANCH  19  22
ENDBRANCH  15  16
ENDBRANCH  11  14
ENDBRANCH   7   8
ENDBRANCH   2   7
TORSDOF 9
ENDMDL
MODEL 9
REMARK VINA RESULT:      -6.4      1.875      2.631
REMARK  9 active torsions:
REMARK  status: ('A' for Active; 'I' for Inactive)
REMARK    1  A    between atoms: N_3  and  C_6 
REMARK    2  A    between atoms: C_6  and  C_9 
REMARK    3  A    between atoms: C_14  and  C_17 
REMARK       I    between atoms: N_26  and  C_15 
REMARK    4  A    between atoms: C_15  and  C_16 
REMARK    5  A    between atoms: C_20  and  C_23 
REMARK    6  A    between atoms: OG1_24  and  CB_28 
REMARK    7  A    between atoms: N_26  and  CA_27 
REMARK    8  A    between atoms: CA_27  and  CB_28 
REMARK    9  A    between atoms: CA_27  and  C_30 
ROOT
HETATM    1  O   UNK A   0       2.167   9.413  88.102  1.00  0.00    -0.388 OA
HETATM    2  N   UNK A   0       3.742   8.102  90.078  1.00  0.00     0.096 N 
HETATM    3  C   UNK A   0       2.500   7.506  89.566  1.00  0.00     0.299 C 
HETATM    4  C   UNK A   0       3.664   9.568  90.005  1.00  0.00     0.299 C 
HETATM    5  C   UNK A   0       2.246   7.987  88.139  1.00  0.00     0.198 C 
HETATM    6  C   UNK A   0       3.382  10.000  88.570  1.00  0.00     0.198 C 
ENDROOT
BRANCH   2   7
HETATM    7  C   UNK A   0       4.000   7.663  91.448  1.00  0.00     0.311 C 
BRANCH   7   8
HETATM    8  C   UNK A   0       5.355   7.064  91.607  1.00  0.00    -0.030 A 
HETATM    9  C   UNK A   0       6.075   6.661  90.481  1.00  0.00     0.010 A 
HETATM   10  C   UNK A   0       7.342   6.098  90.628  1.00  0.00     0.021 A 
HETATM   11  C   UNK A   0       7.890   5.939  91.901  1.00  0.00     0.018 A 
HETATM   12  C   UNK A   0       7.173   6.341  93.026  1.00  0.00     0.021 A 
HETATM   13  C   UNK A   0       5.905   6.904  92.879  1.00  0.00     0.010 A 
BRANCH  11  14
HETATM   14  C   UNK A   0       9.191   5.363  92.052  1.00  0.00    -0.061 C 
HETATM   15  C   UNK A   0      10.284   4.879  92.178  1.00  0.00    -0.061 C 
BRANCH  15  16
HETATM   16  C   UNK A   0      11.585   4.303  92.327  1.00  0.00     0.018 A 
HETATM   17  C   UNK A   0      12.019   3.883  93.585  1.00  0.00     0.022 A 
HETATM   18  C   UNK A   0      13.287   3.319  93.730  1.00  0.00     0.018 A 
HETATM   19  C   UNK A   0      14.090   3.188  92.616  1.00  0.00     0.032 A 
HETATM   20  C   UNK A   0      13.683   3.596  91.363  1.00  0.00     0.018 A 
HETATM   21  C   UNK A   0      12.416   4.160  91.217  1.00  0.00     0.022 A 
BRANCH  19  22
HETATM   22  C   UNK A   0      15.441   2.589  92.772  1.00  0.00     0.252 C 
HETATM   23  O   UNK A   0      16.056   2.761  93.821  1.00  0.00    -0.268 OA
ENDBRANCH  19  22
ENDBRANCH  15  16
ENDBRANCH  11  14
ENDBRANCH   7   8
ENDBRANCH   2   7
TORSDOF 9
ENDMDL
