MODEL 1
REMARK VINA RESULT:      -6.6      0.000      0.000
REMARK  14 active torsions:
REMARK  status: ('A' for Active; 'I' for Inactive)
REMARK    1  A    between atoms: O_2  and  C_18 
REMARK    2  A    between atoms: C_5  and  C_8 
REMARK    3  A    between atoms: C_5  and  O_35 
REMARK    4  A    between atoms: C_5  and  C_36 
REMARK    5  A    between atoms: N_6  and  C_11 
REMARK    6  A    between atoms: N_7  and  C_15 
REMARK       I    between atoms: N_7  and  C_24 
REMARK    7  A    between atoms: C_8  and  C_23 
REMARK    8  A    between atoms: C_11  and  C_14 
REMARK    9  A    between atoms: C_15  and  C_18 
REMARK   10  A    between atoms: C_15  and  C_23 
REMARK   11  A    between atoms: C_21  and  C_26 
REMARK   12  A    between atoms: C_24  and  C_25 
REMARK   13  A    between atoms: C_29  and  C_32 
REMARK   14  A    between atoms: C_36  and  O_39 
ROOT
HETATM    1  O   UNL     1      16.730   3.727  93.739  1.00  0.00    -0.350 OA
HETATM    2  N   UNL     1      14.124   2.964  92.888  1.00  0.00     0.147 N 
HETATM    3  C   UNL     1      15.193   1.972  93.069  1.00  0.00     0.283 C 
HETATM    4  C   UNL     1      14.701   4.266  92.525  1.00  0.00     0.283 C 
HETATM    5  C   UNL     1      16.181   2.465  94.124  1.00  0.00     0.178 C 
HETATM    6  C   UNL     1      15.700   4.704  93.591  1.00  0.00     0.178 C 
ENDROOT
BRANCH   2   7
HETATM    7  C   UNL     1      13.171   2.517  91.873  1.00  0.00     0.277 C 
BRANCH   7   8
HETATM    8  C   UNL     1      12.041   3.473  91.695  1.00  0.00     0.011 A 
HETATM    9  C   UNL     1      11.356   3.958  92.810  1.00  0.00    -0.002 A 
HETATM   10  C   UNL     1      10.298   4.850  92.645  1.00  0.00     0.008 A 
HETATM   11  C   UNL     1       9.926   5.260  91.365  1.00  0.00     0.042 A 
HETATM   12  C   UNL     1      10.609   4.776  90.250  1.00  0.00     0.008 A 
HETATM   13  C   UNL     1      11.667   3.883  90.415  1.00  0.00    -0.002 A 
BRANCH  11  14
HETATM   14  C   UNL     1       8.841   6.177  91.195  1.00  0.00    -0.059 C 
HETATM   15  C   UNL     1       7.930   6.949  91.054  1.00  0.00    -0.059 C 
BRANCH  15  16
HETATM   16  C   UNL     1       6.846   7.866  90.884  1.00  0.00     0.042 A 
HETATM   17  C   UNL     1       6.448   8.676  91.948  1.00  0.00     0.008 A 
HETATM   18  C   UNL     1       5.392   9.574  91.782  1.00  0.00     0.005 A 
HETATM   19  C   UNL     1       4.761   9.641  90.558  1.00  0.00     0.056 A 
HETATM   20  C   UNL     1       5.136   8.850  89.491  1.00  0.00     0.005 A 
HETATM   21  C   UNL     1       6.191   7.953  89.656  1.00  0.00     0.008 A 
BRANCH  19  22
HETATM   22  C   UNL     1       3.636  10.595  90.382  1.00  0.00     0.254 C 
HETATM   23  O   UNL     1       2.918  10.500  89.389  1.00  0.00    -0.268 OA
HETATM   24  N   UNL     1       3.467  11.529  91.394  1.00  0.00    -0.335 N 
HETATM   25  HN  UNL     1       4.084  11.532  92.198  1.00  0.00     0.164 HD
BRANCH  24  26
HETATM   26  C   UNL     1       2.407  12.505  91.380  1.00  0.00     0.169 C 
BRANCH  26  27
HETATM   27  C   UNL     1       1.632  12.558  92.703  1.00  0.00     0.138 C 
HETATM   28  C   UNL     1       1.283  11.172  93.231  1.00  0.00     0.034 C 
BRANCH  27  29
HETATM   29  O   UNL     1       2.407  13.247  93.684  1.00  0.00    -0.383 OA
HETATM   30  H   UNL     1       2.158  14.186  93.664  1.00  0.00     0.210 HD
ENDBRANCH  27  29
ENDBRANCH  26  27
BRANCH  26  31
HETATM   31  C   UNL     1       3.025  13.859  91.045  1.00  0.00     0.194 C 
HETATM   32  O   UNL     1       2.446  14.926  91.241  1.00  0.00    -0.289 OA
BRANCH  31  33
HETATM   33  C   UNL     1       4.267  13.735  90.472  1.00  0.00     0.053 C 
BRANCH  33  34
HETATM   34  C   UNL     1       4.392  14.242  89.171  1.00  0.00     0.220 C 
BRANCH  34  35
HETATM   35  O   UNL     1       5.211  15.179  89.205  1.00  0.00    -0.371 OA
HETATM   36  H   UNL     1       4.595  15.892  89.281  1.00  0.00     0.211 HD
ENDBRANCH  34  35
BRANCH  34  37
HETATM   37  C   UNL     1       4.738  13.265  88.220  1.00  0.00     0.185 C 
HETATM   38  O   UNL     1       5.972  13.597  88.565  1.00  0.00    -0.647 OA
BRANCH  37  39
HETATM   39  O   UNL     1       4.164  12.546  87.459  1.00  0.00    -0.774 OA
HETATM   40  H   UNL     1       4.235  11.459  87.777  1.00  0.00     0.167 HD
ENDBRANCH  37  39
ENDBRANCH  34  37
ENDBRANCH  33  34
ENDBRANCH  31  33
ENDBRANCH  26  31
ENDBRANCH  24  26
ENDBRANCH  19  22
ENDBRANCH  15  16
ENDBRANCH  11  14
ENDBRANCH   7   8
ENDBRANCH   2   7
TORSDOF 14
ENDMDL
MODEL 2
REMARK VINA RESULT:      -5.9      1.473      2.032
REMARK  14 active torsions:
REMARK  status: ('A' for Active; 'I' for Inactive)
REMARK    1  A    between atoms: O_2  and  C_18 
REMARK    2  A    between atoms: C_5  and  C_8 
REMARK    3  A    between atoms: C_5  and  O_35 
REMARK    4  A    between atoms: C_5  and  C_36 
REMARK    5  A    between atoms: N_6  and  C_11 
REMARK    6  A    between atoms: N_7  and  C_15 
REMARK       I    between atoms: N_7  and  C_24 
REMARK    7  A    between atoms: C_8  and  C_23 
REMARK    8  A    between atoms: C_11  and  C_14 
REMARK    9  A    between atoms: C_15  and  C_18 
REMARK   10  A    between atoms: C_15  and  C_23 
REMARK   11  A    between atoms: C_21  and  C_26 
REMARK   12  A    between atoms: C_24  and  C_25 
REMARK   13  A    between atoms: C_29  and  C_32 
REMARK   14  A    between atoms: C_36  and  O_39 
ROOT
HETATM    1  O   UNL     1      16.027   4.215  94.064  1.00  0.00    -0.350 OA
HETATM    2  N   UNL     1      14.409   2.562  92.404  1.00  0.00     0.147 N 
HETATM    3  C   UNL     1      14.325   4.028  92.344  1.00  0.00     0.283 C 
HETATM    4  C   UNL     1      14.816   2.136  93.751  1.00  0.00     0.283 C 
HETATM    5  C   UNL     1      15.663   4.640  92.749  1.00  0.00     0.178 C 
HETATM    6  C   UNL     1      16.141   2.793  94.123  1.00  0.00     0.178 C 
ENDROOT
BRANCH   2   7
HETATM    7  C   UNL     1      13.134   1.954  92.030  1.00  0.00     0.277 C 
BRANCH   7   8
HETATM    8  C   UNL     1      12.008   2.930  92.064  1.00  0.00     0.011 A 
HETATM    9  C   UNL     1      11.728   3.631  93.238  1.00  0.00    -0.002 A 
HETATM   10  C   UNL     1      10.674   4.543  93.272  1.00  0.00     0.008 A 
HETATM   11  C   UNL     1       9.900   4.755  92.131  1.00  0.00     0.042 A 
HETATM   12  C   UNL     1      10.179   4.056  90.958  1.00  0.00     0.008 A 
HETATM   13  C   UNL     1      11.233   3.144  90.924  1.00  0.00    -0.002 A 
BRANCH  11  14
HETATM   14  C   UNL     1       8.820   5.692  92.165  1.00  0.00    -0.059 C 
HETATM   15  C   UNL     1       7.912   6.480  92.193  1.00  0.00    -0.059 C 
BRANCH  15  16
HETATM   16  C   UNL     1       6.832   7.417  92.226  1.00  0.00     0.042 A 
HETATM   17  C   UNL     1       7.096   8.780  92.364  1.00  0.00     0.008 A 
HETATM   18  C   UNL     1       6.043   9.693  92.393  1.00  0.00     0.005 A 
HETATM   19  C   UNL     1       4.750   9.224  92.284  1.00  0.00     0.056 A 
HETATM   20  C   UNL     1       4.463   7.882  92.147  1.00  0.00     0.005 A 
HETATM   21  C   UNL     1       5.516   6.968  92.118  1.00  0.00     0.008 A 
BRANCH  19  22
HETATM   22  C   UNL     1       3.628  10.198  92.317  1.00  0.00     0.254 C 
HETATM   23  O   UNL     1       2.611   9.919  92.947  1.00  0.00    -0.268 OA
HETATM   24  N   UNL     1       3.836  11.388  91.635  1.00  0.00    -0.335 N 
HETATM   25  HN  UNL     1       4.713  11.559  91.157  1.00  0.00     0.164 HD
BRANCH  24  26
HETATM   26  C   UNL     1       2.852  12.441  91.595  1.00  0.00     0.169 C 
BRANCH  26  27
HETATM   27  C   UNL     1       3.001  13.436  92.752  1.00  0.00     0.138 C 
HETATM   28  C   UNL     1       4.446  13.874  92.963  1.00  0.00     0.034 C 
BRANCH  27  29
HETATM   29  O   UNL     1       2.200  14.590  92.495  1.00  0.00    -0.383 OA
HETATM   30  H   UNL     1       1.993  15.012  93.346  1.00  0.00     0.210 HD
ENDBRANCH  27  29
ENDBRANCH  26  27
BRANCH  26  31
HETATM   31  C   UNL     1       2.972  13.139  90.244  1.00  0.00     0.194 C 
HETATM   32  O   UNL     1       2.274  14.098  89.922  1.00  0.00    -0.289 OA
BRANCH  31  33
HETATM   33  C   UNL     1       3.911  12.546  89.435  1.00  0.00     0.053 C 
BRANCH  33  34
HETATM   34  C   UNL     1       3.465  12.163  88.162  1.00  0.00     0.220 C 
BRANCH  34  35
HETATM   35  O   UNL     1       4.319  12.531  87.333  1.00  0.00    -0.371 OA
HETATM   36  H   UNL     1       5.091  12.340  87.844  1.00  0.00     0.211 HD
ENDBRANCH  34  35
BRANCH  34  37
HETATM   37  C   UNL     1       3.179  10.791  88.059  1.00  0.00     0.185 C 
HETATM   38  O   UNL     1       4.461  10.710  87.740  1.00  0.00    -0.647 OA
BRANCH  37  39
HETATM   39  O   UNL     1       2.219  10.088  88.167  1.00  0.00    -0.774 OA
HETATM   40  H   UNL     1       1.570  10.120  87.236  1.00  0.00     0.167 HD
ENDBRANCH  37  39
ENDBRANCH  34  37
ENDBRANCH  33  34
ENDBRANCH  31  33
ENDBRANCH  26  31
ENDBRANCH  24  26
ENDBRANCH  19  22
ENDBRANCH  15  16
ENDBRANCH  11  14
ENDBRANCH   7   8
ENDBRANCH   2   7
TORSDOF 14
ENDMDL
MODEL 3
REMARK VINA RESULT:      -5.1      2.704     12.996
REMARK  14 active torsions:
REMARK  status: ('A' for Active; 'I' for Inactive)
REMARK    1  A    between atoms: O_2  and  C_18 
REMARK    2  A    between atoms: C_5  and  C_8 
REMARK    3  A    between atoms: C_5  and  O_35 
REMARK    4  A    between atoms: C_5  and  C_36 
REMARK    5  A    between atoms: N_6  and  C_11 
REMARK    6  A    between atoms: N_7  and  C_15 
REMARK       I    between atoms: N_7  and  C_24 
REMARK    7  A    between atoms: C_8  and  C_23 
REMARK    8  A    between atoms: C_11  and  C_14 
REMARK    9  A    between atoms: C_15  and  C_18 
REMARK   10  A    between atoms: C_15  and  C_23 
REMARK   11  A    between atoms: C_21  and  C_26 
REMARK   12  A    between atoms: C_24  and  C_25 
REMARK   13  A    between atoms: C_29  and  C_32 
REMARK   14  A    between atoms: C_36  and  O_39 
ROOT
HETATM    1  O   UNL     1       2.502  14.505  94.104  1.00  0.00    -0.350 OA
HETATM    2  N   UNL     1       2.866  14.936  91.314  1.00  0.00     0.147 N 
HETATM    3  C   UNL     1       1.855  13.997  91.821  1.00  0.00     0.283 C 
HETATM    4  C   UNL     1       3.988  15.025  92.259  1.00  0.00     0.283 C 
HETATM    5  C   UNL     1       1.391  14.436  93.208  1.00  0.00     0.178 C 
HETATM    6  C   UNL     1       3.475  15.439  93.635  1.00  0.00     0.178 C 
ENDROOT
BRANCH   2   7
HETATM    7  C   UNL     1       3.333  14.529  89.990  1.00  0.00     0.277 C 
BRANCH   7   8
HETATM    8  C   UNL     1       4.255  13.359  90.048  1.00  0.00     0.011 A 
HETATM    9  C   UNL     1       5.338  13.282  89.171  1.00  0.00    -0.002 A 
HETATM   10  C   UNL     1       6.201  12.187  89.223  1.00  0.00     0.008 A 
HETATM   11  C   UNL     1       5.981  11.171  90.152  1.00  0.00     0.042 A 
HETATM   12  C   UNL     1       4.900  11.247  91.029  1.00  0.00     0.008 A 
HETATM   13  C   UNL     1       4.037  12.342  90.977  1.00  0.00    -0.002 A 
BRANCH  11  14
HETATM   14  C   UNL     1       6.867  10.049  90.207  1.00  0.00    -0.059 C 
HETATM   15  C   UNL     1       7.612   9.106  90.253  1.00  0.00    -0.059 C 
BRANCH  15  16
HETATM   16  C   UNL     1       8.496   7.984  90.307  1.00  0.00     0.042 A 
HETATM   17  C   UNL     1       9.154   7.559  89.153  1.00  0.00     0.008 A 
HETATM   18  C   UNL     1      10.019   6.467  89.207  1.00  0.00     0.005 A 
HETATM   19  C   UNL     1      10.208   5.825  90.413  1.00  0.00     0.056 A 
HETATM   20  C   UNL     1       9.569   6.225  91.568  1.00  0.00     0.005 A 
HETATM   21  C   UNL     1       8.704   7.318  91.515  1.00  0.00     0.008 A 
BRANCH  19  22
HETATM   22  C   UNL     1      11.128   4.659  90.469  1.00  0.00     0.254 C 
HETATM   23  O   UNL     1      11.063   3.801  89.593  1.00  0.00    -0.268 OA
HETATM   24  N   UNL     1      12.029   4.647  91.525  1.00  0.00    -0.335 N 
HETATM   25  HN  UNL     1      12.041   5.404  92.198  1.00  0.00     0.164 HD
BRANCH  24  26
HETATM   26  C   UNL     1      13.001   3.598  91.703  1.00  0.00     0.169 C 
BRANCH  26  27
HETATM   27  C   UNL     1      14.358   3.933  91.072  1.00  0.00     0.138 C 
HETATM   28  C   UNL     1      14.770   2.927  90.003  1.00  0.00     0.034 C 
BRANCH  27  29
HETATM   29  O   UNL     1      14.304   5.234  90.487  1.00  0.00    -0.383 OA
HETATM   30  H   UNL     1      14.580   5.162  89.558  1.00  0.00     0.210 HD
ENDBRANCH  27  29
ENDBRANCH  26  27
BRANCH  26  31
HETATM   31  C   UNL     1      13.134   3.335  93.199  1.00  0.00     0.194 C 
HETATM   32  O   UNL     1      12.294   2.714  93.848  1.00  0.00    -0.289 OA
BRANCH  31  33
HETATM   33  C   UNL     1      14.269   3.903  93.726  1.00  0.00     0.053 C 
BRANCH  33  34
HETATM   34  C   UNL     1      15.271   3.007  94.124  1.00  0.00     0.220 C 
BRANCH  34  35
HETATM   35  O   UNL     1      15.052   1.917  93.562  1.00  0.00    -0.371 OA
HETATM   36  H   UNL     1      14.147   2.065  93.334  1.00  0.00     0.211 HD
ENDBRANCH  34  35
BRANCH  34  37
HETATM   37  C   UNL     1      16.573   3.479  93.883  1.00  0.00     0.185 C 
HETATM   38  O   UNL     1      15.974   4.660  93.895  1.00  0.00    -0.647 OA
BRANCH  37  39
HETATM   39  O   UNL     1      17.656   3.006  93.709  1.00  0.00    -0.774 OA
HETATM   40  H   UNL     1      18.450   3.809  93.597  1.00  0.00     0.167 HD
ENDBRANCH  37  39
ENDBRANCH  34  37
ENDBRANCH  33  34
ENDBRANCH  31  33
ENDBRANCH  26  31
ENDBRANCH  24  26
ENDBRANCH  19  22
ENDBRANCH  15  16
ENDBRANCH  11  14
ENDBRANCH   7   8
ENDBRANCH   2   7
TORSDOF 14
ENDMDL
MODEL 4
REMARK VINA RESULT:      -4.2      1.493      3.105
REMARK  14 active torsions:
REMARK  status: ('A' for Active; 'I' for Inactive)
REMARK    1  A    between atoms: O_2  and  C_18 
REMARK    2  A    between atoms: C_5  and  C_8 
REMARK    3  A    between atoms: C_5  and  O_35 
REMARK    4  A    between atoms: C_5  and  C_36 
REMARK    5  A    between atoms: N_6  and  C_11 
REMARK    6  A    between atoms: N_7  and  C_15 
REMARK       I    between atoms: N_7  and  C_24 
REMARK    7  A    between atoms: C_8  and  C_23 
REMARK    8  A    between atoms: C_11  and  C_14 
REMARK    9  A    between atoms: C_15  and  C_18 
REMARK   10  A    between atoms: C_15  and  C_23 
REMARK   11  A    between atoms: C_21  and  C_26 
REMARK   12  A    between atoms: C_24  and  C_25 
REMARK   13  A    between atoms: C_29  and  C_32 
REMARK   14  A    between atoms: C_36  and  O_39 
ROOT
HETATM    1  O   UNL     1      17.365   4.152  93.740  1.00  0.00    -0.350 OA
HETATM    2  N   UNL     1      14.835   2.848  93.743  1.00  0.00     0.147 N 
HETATM    3  C   UNL     1      16.069   2.129  93.400  1.00  0.00     0.283 C 
HETATM    4  C   UNL     1      14.967   4.269  93.394  1.00  0.00     0.283 C 
HETATM    5  C   UNL     1      17.259   2.775  94.106  1.00  0.00     0.178 C 
HETATM    6  C   UNL     1      16.181   4.865  94.099  1.00  0.00     0.178 C 
ENDROOT
BRANCH   2   7
HETATM    7  C   UNL     1      13.683   2.252  93.069  1.00  0.00     0.277 C 
BRANCH   7   8
HETATM    8  C   UNL     1      12.682   3.272  92.646  1.00  0.00     0.011 A 
HETATM    9  C   UNL     1      11.791   3.802  93.580  1.00  0.00    -0.002 A 
HETATM   10  C   UNL     1      10.852   4.755  93.184  1.00  0.00     0.008 A 
HETATM   11  C   UNL     1      10.807   5.179  91.856  1.00  0.00     0.042 A 
HETATM   12  C   UNL     1      11.696   4.650  90.923  1.00  0.00     0.008 A 
HETATM   13  C   UNL     1      12.635   3.697  91.318  1.00  0.00    -0.002 A 
BRANCH  11  14
HETATM   14  C   UNL     1       9.845   6.158  91.452  1.00  0.00    -0.059 C 
HETATM   15  C   UNL     1       9.037   6.981  91.112  1.00  0.00    -0.059 C 
BRANCH  15  16
HETATM   16  C   UNL     1       8.077   7.960  90.708  1.00  0.00     0.042 A 
HETATM   17  C   UNL     1       7.717   8.985  91.584  1.00  0.00     0.008 A 
HETATM   18  C   UNL     1       6.782   9.942  91.188  1.00  0.00     0.005 A 
HETATM   19  C   UNL     1       6.229   9.852  89.928  1.00  0.00     0.056 A 
HETATM   20  C   UNL     1       6.567   8.848  89.045  1.00  0.00     0.005 A 
HETATM   21  C   UNL     1       7.502   7.891  89.439  1.00  0.00     0.008 A 
BRANCH  19  22
HETATM   22  C   UNL     1       5.231  10.871  89.508  1.00  0.00     0.254 C 
HETATM   23  O   UNL     1       4.254  10.518  88.852  1.00  0.00    -0.268 OA
HETATM   24  N   UNL     1       5.479  12.172  89.924  1.00  0.00    -0.335 N 
HETATM   25  HN  UNL     1       6.294  12.384  90.486  1.00  0.00     0.164 HD
BRANCH  24  26
HETATM   26  C   UNL     1       4.592  13.265  89.618  1.00  0.00     0.169 C 
BRANCH  26  27
HETATM   27  C   UNL     1       4.349  13.429  88.112  1.00  0.00     0.138 C 
HETATM   28  C   UNL     1       5.490  14.159  87.412  1.00  0.00     0.034 C 
BRANCH  27  29
HETATM   29  O   UNL     1       4.185  12.144  87.513  1.00  0.00    -0.383 OA
HETATM   30  H   UNL     1       3.795  11.547  88.173  1.00  0.00     0.210 HD
ENDBRANCH  27  29
ENDBRANCH  26  27
BRANCH  26  31
HETATM   31  C   UNL     1       3.285  13.030  90.368  1.00  0.00     0.194 C 
HETATM   32  O   UNL     1       2.198  12.928  89.803  1.00  0.00    -0.289 OA
BRANCH  31  33
HETATM   33  C   UNL     1       3.468  12.987  91.729  1.00  0.00     0.053 C 
BRANCH  33  34
HETATM   34  C   UNL     1       3.139  14.158  92.426  1.00  0.00     0.220 C 
BRANCH  34  35
HETATM   35  O   UNL     1       1.903  14.177  92.575  1.00  0.00    -0.371 OA
HETATM   36  H   UNL     1       1.875  13.932  93.487  1.00  0.00     0.211 HD
ENDBRANCH  34  35
BRANCH  34  37
HETATM   37  C   UNL     1       3.826  14.296  93.644  1.00  0.00     0.185 C 
HETATM   38  O   UNL     1       3.131  13.219  93.975  1.00  0.00    -0.647 OA
BRANCH  37  39
HETATM   39  O   UNL     1       4.610  15.058  94.124  1.00  0.00    -0.774 OA
HETATM   40  H   UNL     1       5.304  14.540  94.857  1.00  0.00     0.167 HD
ENDBRANCH  37  39
ENDBRANCH  34  37
ENDBRANCH  33  34
ENDBRANCH  31  33
ENDBRANCH  26  31
ENDBRANCH  24  26
ENDBRANCH  19  22
ENDBRANCH  15  16
ENDBRANCH  11  14
ENDBRANCH   7   8
ENDBRANCH   2   7
TORSDOF 14
ENDMDL
