MODEL 1
REMARK VINA RESULT:      -7.5      0.000      0.000
REMARK  9 active torsions:
REMARK  status: ('A' for Active; 'I' for Inactive)
REMARK    1  A    between atoms: N_3  and  C_6 
REMARK    2  A    between atoms: C_6  and  C_9 
REMARK    3  A    between atoms: C_14  and  C_17 
REMARK       I    between atoms: N_26  and  C_15 
REMARK    4  A    between atoms: C_15  and  C_16 
REMARK    5  A    between atoms: C_20  and  C_23 
REMARK    6  A    between atoms: OG1_24  and  CB_28 
REMARK    7  A    between atoms: N_26  and  CA_27 
REMARK    8  A    between atoms: CA_27  and  CB_28 
REMARK    9  A    between atoms: CA_27  and  C_30 
ROOT
HETATM    1  O   UNK A   0       2.090   8.363  88.003  1.00  0.00    -0.388 OA
HETATM    2  N   UNK A   0       4.840   7.667  87.772  1.00  0.00     0.096 N 
HETATM    3  C   UNK A   0       4.402   9.069  87.788  1.00  0.00     0.299 C 
HETATM    4  C   UNK A   0       3.782   6.815  87.212  1.00  0.00     0.299 C 
HETATM    5  C   UNK A   0       3.101   9.195  88.576  1.00  0.00     0.198 C 
HETATM    6  C   UNK A   0       2.496   6.994  88.012  1.00  0.00     0.198 C 
ENDROOT
BRANCH   2   7
HETATM    7  C   UNK A   0       6.081   7.521  87.012  1.00  0.00     0.311 C 
BRANCH   7   8
HETATM    8  C   UNK A   0       7.176   6.919  87.824  1.00  0.00    -0.030 A 
HETATM    9  C   UNK A   0       6.997   6.715  89.193  1.00  0.00     0.010 A 
HETATM   10  C   UNK A   0       8.023   6.154  89.954  1.00  0.00     0.021 A 
HETATM   11  C   UNK A   0       9.225   5.796  89.346  1.00  0.00     0.018 A 
HETATM   12  C   UNK A   0       9.405   5.999  87.980  1.00  0.00     0.021 A 
HETATM   13  C   UNK A   0       8.380   6.561  87.218  1.00  0.00     0.010 A 
BRANCH  11  14
HETATM   14  C   UNK A   0      10.276   5.218  90.127  1.00  0.00    -0.061 C 
HETATM   15  C   UNK A   0      11.159   4.734  90.784  1.00  0.00    -0.061 C 
BRANCH  15  16
HETATM   16  C   UNK A   0      12.208   4.157  91.564  1.00  0.00     0.018 A 
HETATM   17  C   UNK A   0      11.961   3.762  92.880  1.00  0.00     0.022 A 
HETATM   18  C   UNK A   0      12.985   3.196  93.640  1.00  0.00     0.018 A 
HETATM   19  C   UNK A   0      14.230   3.037  93.069  1.00  0.00     0.032 A 
HETATM   20  C   UNK A   0      14.499   3.420  91.772  1.00  0.00     0.018 A 
HETATM   21  C   UNK A   0      13.477   3.986  91.010  1.00  0.00     0.022 A 
BRANCH  19  22
HETATM   22  C   UNK A   0      15.320   2.437  93.881  1.00  0.00     0.252 C 
HETATM   23  O   UNK A   0      16.477   2.810  93.701  1.00  0.00    -0.268 OA
ENDBRANCH  19  22
ENDBRANCH  15  16
ENDBRANCH  11  14
ENDBRANCH   7   8
ENDBRANCH   2   7
TORSDOF 9
ENDMDL
