MODEL 1
REMARK VINA RESULT:      -6.0      0.000      0.000
REMARK  12 active torsions:
REMARK  status: ('A' for Active; 'I' for Inactive)
REMARK    1  A    between atoms: O_2  and  C_16 
REMARK    2  A    between atoms: N_5  and  C_9 
REMARK    3  A    between atoms: N_6  and  C_13 
REMARK       I    between atoms: N_6  and  C_22 
REMARK    4  A    between atoms: C_9  and  C_12 
REMARK    5  A    between atoms: C_13  and  C_16 
REMARK    6  A    between atoms: C_13  and  C_21 
REMARK    7  A    between atoms: C_19  and  C_24 
REMARK    8  A    between atoms: C_21  and  C_33 
REMARK    9  A    between atoms: C_22  and  C_23 
REMARK   10  A    between atoms: C_27  and  C_30 
REMARK   11  A    between atoms: C_33  and  C_34 
REMARK   12  A    between atoms: C_34  and  C_35 
ROOT
HETATM    1  O   UNL     1      17.056   3.894  93.860  1.00  0.00    -0.350 OA
HETATM    2  N   UNL     1      14.473   2.991  93.078  1.00  0.00     0.147 N 
HETATM    3  C   UNL     1      15.634   2.090  93.077  1.00  0.00     0.283 C 
HETATM    4  C   UNL     1      14.909   4.374  92.840  1.00  0.00     0.283 C 
HETATM    5  C   UNL     1      16.646   2.551  94.123  1.00  0.00     0.178 C 
HETATM    6  C   UNL     1      15.937   4.781  93.890  1.00  0.00     0.178 C 
ENDROOT
BRANCH   2   7
HETATM    7  C   UNL     1      13.495   2.574  92.075  1.00  0.00     0.277 C 
BRANCH   7   8
HETATM    8  C   UNL     1      12.315   3.484  92.020  1.00  0.00     0.011 A 
HETATM    9  C   UNL     1      11.817   3.907  90.787  1.00  0.00    -0.002 A 
HETATM   10  C   UNL     1      10.715   4.759  90.735  1.00  0.00     0.008 A 
HETATM   11  C   UNL     1      10.109   5.187  91.916  1.00  0.00     0.042 A 
HETATM   12  C   UNL     1      10.604   4.765  93.148  1.00  0.00     0.008 A 
HETATM   13  C   UNL     1      11.707   3.913  93.201  1.00  0.00    -0.002 A 
BRANCH  11  14
HETATM   14  C   UNL     1       8.977   6.060  91.862  1.00  0.00    -0.059 C 
HETATM   15  C   UNL     1       8.025   6.792  91.817  1.00  0.00    -0.059 C 
BRANCH  15  16
HETATM   16  C   UNL     1       6.893   7.664  91.765  1.00  0.00     0.042 A 
HETATM   17  C   UNL     1       7.052   8.988  91.352  1.00  0.00     0.008 A 
HETATM   18  C   UNL     1       5.947   9.837  91.298  1.00  0.00     0.005 A 
HETATM   19  C   UNL     1       4.709   9.345  91.657  1.00  0.00     0.056 A 
HETATM   20  C   UNL     1       4.526   8.042  92.068  1.00  0.00     0.005 A 
HETATM   21  C   UNL     1       5.630   7.191  92.123  1.00  0.00     0.008 A 
BRANCH  19  22
HETATM   22  C   UNL     1       3.533  10.252  91.601  1.00  0.00     0.254 C 
HETATM   23  O   UNL     1       2.403   9.769  91.603  1.00  0.00    -0.268 OA
HETATM   24  N   UNL     1       3.813  11.611  91.574  1.00  0.00    -0.335 N 
HETATM   25  HN  UNL     1       4.772  11.937  91.599  1.00  0.00     0.164 HD
BRANCH  24  26
HETATM   26  C   UNL     1       2.781  12.615  91.543  1.00  0.00     0.166 C 
BRANCH  26  27
HETATM   27  C   UNL     1       2.890  13.614  92.702  1.00  0.00     0.138 C 
HETATM   28  C   UNL     1       2.197  13.119  93.967  1.00  0.00     0.034 C 
BRANCH  27  29
HETATM   29  O   UNL     1       4.266  13.859  92.993  1.00  0.00    -0.383 OA
HETATM   30  H   UNL     1       4.365  14.796  93.233  1.00  0.00     0.210 HD
ENDBRANCH  27  29
ENDBRANCH  26  27
BRANCH  26  31
HETATM   31  C   UNL     1       2.857  13.321  90.194  1.00  0.00     0.181 C 
HETATM   32  O   UNL     1       2.343  14.418  89.982  1.00  0.00    -0.294 OA
BRANCH  31  33
HETATM   33  C   UNL     1       4.382  13.424  89.653  1.00  0.00     0.138 C 
BRANCH  33  34
HETATM   34  C   UNL     1       4.267  12.799  88.391  1.00  0.00     0.208 C 
HETATM   35  O   UNL     1       4.899  13.300  87.490  1.00  0.00    -0.289 OA
BRANCH  34  36
HETATM   36  C   UNL     1       3.796  11.560  88.054  1.00  0.00     0.194 C 
HETATM   37  O   UNL     1       4.481  10.356  87.855  1.00  0.00    -0.185 OA
ENDBRANCH  34  36
ENDBRANCH  33  34
ENDBRANCH  31  33
ENDBRANCH  26  31
ENDBRANCH  24  26
ENDBRANCH  19  22
ENDBRANCH  15  16
ENDBRANCH  11  14
ENDBRANCH   7   8
ENDBRANCH   2   7
TORSDOF 12
ENDMDL
MODEL 2
REMARK VINA RESULT:      -5.3      1.289      1.547
REMARK  12 active torsions:
REMARK  status: ('A' for Active; 'I' for Inactive)
REMARK    1  A    between atoms: O_2  and  C_16 
REMARK    2  A    between atoms: N_5  and  C_9 
REMARK    3  A    between atoms: N_6  and  C_13 
REMARK       I    between atoms: N_6  and  C_22 
REMARK    4  A    between atoms: C_9  and  C_12 
REMARK    5  A    between atoms: C_13  and  C_16 
REMARK    6  A    between atoms: C_13  and  C_21 
REMARK    7  A    between atoms: C_19  and  C_24 
REMARK    8  A    between atoms: C_21  and  C_33 
REMARK    9  A    between atoms: C_22  and  C_23 
REMARK   10  A    between atoms: C_27  and  C_30 
REMARK   11  A    between atoms: C_33  and  C_34 
REMARK   12  A    between atoms: C_34  and  C_35 
ROOT
HETATM    1  O   UNL     1      16.574   3.131  93.642  1.00  0.00    -0.350 OA
HETATM    2  N   UNL     1      13.833   2.948  92.895  1.00  0.00     0.147 N 
HETATM    3  C   UNL     1      14.648   1.747  93.125  1.00  0.00     0.283 C 
HETATM    4  C   UNL     1      14.684   4.053  92.431  1.00  0.00     0.283 C 
HETATM    5  C   UNL     1      15.760   2.061  94.124  1.00  0.00     0.178 C 
HETATM    6  C   UNL     1      15.794   4.312  93.444  1.00  0.00     0.178 C 
ENDROOT
BRANCH   2   7
HETATM    7  C   UNL     1      12.768   2.674  91.933  1.00  0.00     0.277 C 
BRANCH   7   8
HETATM    8  C   UNL     1      11.635   3.636  92.049  1.00  0.00     0.011 A 
HETATM    9  C   UNL     1      10.768   3.825  90.972  1.00  0.00    -0.002 A 
HETATM   10  C   UNL     1       9.710   4.727  91.079  1.00  0.00     0.008 A 
HETATM   11  C   UNL     1       9.518   5.438  92.263  1.00  0.00     0.042 A 
HETATM   12  C   UNL     1      10.383   5.250  93.339  1.00  0.00     0.008 A 
HETATM   13  C   UNL     1      11.442   4.349  93.232  1.00  0.00    -0.002 A 
BRANCH  11  14
HETATM   14  C   UNL     1       8.431   6.362  92.373  1.00  0.00    -0.059 C 
HETATM   15  C   UNL     1       7.517   7.138  92.467  1.00  0.00    -0.059 C 
BRANCH  15  16
HETATM   16  C   UNL     1       6.432   8.062  92.577  1.00  0.00     0.042 A 
HETATM   17  C   UNL     1       5.898   8.362  93.831  1.00  0.00     0.008 A 
HETATM   18  C   UNL     1       4.840   9.265  93.938  1.00  0.00     0.005 A 
HETATM   19  C   UNL     1       4.342   9.848  92.792  1.00  0.00     0.056 A 
HETATM   20  C   UNL     1       4.852   9.568  91.542  1.00  0.00     0.005 A 
HETATM   21  C   UNL     1       5.909   8.665  91.433  1.00  0.00     0.008 A 
BRANCH  19  22
HETATM   22  C   UNL     1       3.214  10.809  92.907  1.00  0.00     0.254 C 
HETATM   23  O   UNL     1       2.197  10.470  93.507  1.00  0.00    -0.268 OA
HETATM   24  N   UNL     1       3.416  12.056  92.332  1.00  0.00    -0.335 N 
HETATM   25  HN  UNL     1       4.294  12.273  91.874  1.00  0.00     0.164 HD
BRANCH  24  26
HETATM   26  C   UNL     1       2.427  13.102  92.382  1.00  0.00     0.166 C 
BRANCH  26  27
HETATM   27  C   UNL     1       2.626  14.051  93.570  1.00  0.00     0.138 C 
HETATM   28  C   UNL     1       4.098  14.320  93.864  1.00  0.00     0.034 C 
BRANCH  27  29
HETATM   29  O   UNL     1       1.972  15.292  93.305  1.00  0.00    -0.383 OA
HETATM   30  H   UNL     1       1.036  15.110  93.117  1.00  0.00     0.210 HD
ENDBRANCH  27  29
ENDBRANCH  26  27
BRANCH  26  31
HETATM   31  C   UNL     1       2.479  13.855  91.057  1.00  0.00     0.181 C 
HETATM   32  O   UNL     1       1.747  14.810  90.799  1.00  0.00    -0.294 OA
BRANCH  31  33
HETATM   33  C   UNL     1       3.986  14.330  90.692  1.00  0.00     0.138 C 
BRANCH  33  34
HETATM   34  C   UNL     1       4.295  13.460  89.623  1.00  0.00     0.208 C 
HETATM   35  O   UNL     1       3.405  12.726  89.259  1.00  0.00    -0.289 OA
BRANCH  34  36
HETATM   36  C   UNL     1       5.329  13.487  88.727  1.00  0.00     0.194 C 
HETATM   37  O   UNL     1       6.351  12.560  88.498  1.00  0.00    -0.185 OA
ENDBRANCH  34  36
ENDBRANCH  33  34
ENDBRANCH  31  33
ENDBRANCH  26  31
ENDBRANCH  24  26
ENDBRANCH  19  22
ENDBRANCH  15  16
ENDBRANCH  11  14
ENDBRANCH   7   8
ENDBRANCH   2   7
TORSDOF 12
ENDMDL
MODEL 3
REMARK VINA RESULT:      -4.1      2.551     12.780
REMARK  12 active torsions:
REMARK  status: ('A' for Active; 'I' for Inactive)
REMARK    1  A    between atoms: O_2  and  C_16 
REMARK    2  A    between atoms: N_5  and  C_9 
REMARK    3  A    between atoms: N_6  and  C_13 
REMARK       I    between atoms: N_6  and  C_22 
REMARK    4  A    between atoms: C_9  and  C_12 
REMARK    5  A    between atoms: C_13  and  C_16 
REMARK    6  A    between atoms: C_13  and  C_21 
REMARK    7  A    between atoms: C_19  and  C_24 
REMARK    8  A    between atoms: C_21  and  C_33 
REMARK    9  A    between atoms: C_22  and  C_23 
REMARK   10  A    between atoms: C_27  and  C_30 
REMARK   11  A    between atoms: C_33  and  C_34 
REMARK   12  A    between atoms: C_34  and  C_35 
ROOT
HETATM    1  O   UNL     1       2.338  14.024  94.014  1.00  0.00    -0.350 OA
HETATM    2  N   UNL     1       2.163  13.669  91.196  1.00  0.00     0.147 N 
HETATM    3  C   UNL     1       2.088  12.529  92.119  1.00  0.00     0.283 C 
HETATM    4  C   UNL     1       2.973  14.743  91.786  1.00  0.00     0.283 C 
HETATM    5  C   UNL     1       1.525  12.987  93.462  1.00  0.00     0.178 C 
HETATM    6  C   UNL     1       2.391  15.149  93.136  1.00  0.00     0.178 C 
ENDROOT
BRANCH   2   7
HETATM    7  C   UNL     1       2.710  13.254  89.905  1.00  0.00     0.277 C 
BRANCH   7   8
HETATM    8  C   UNL     1       3.691  12.140  90.035  1.00  0.00     0.011 A 
HETATM    9  C   UNL     1       3.483  10.944  89.347  1.00  0.00    -0.002 A 
HETATM   10  C   UNL     1       4.399   9.900  89.470  1.00  0.00     0.008 A 
HETATM   11  C   UNL     1       5.524  10.052  90.280  1.00  0.00     0.042 A 
HETATM   12  C   UNL     1       5.733  11.246  90.968  1.00  0.00     0.008 A 
HETATM   13  C   UNL     1       4.817  12.290  90.845  1.00  0.00    -0.002 A 
BRANCH  11  14
HETATM   14  C   UNL     1       6.465   8.982  90.404  1.00  0.00    -0.059 C 
HETATM   15  C   UNL     1       7.256   8.082  90.508  1.00  0.00    -0.059 C 
BRANCH  15  16
HETATM   16  C   UNL     1       8.196   7.013  90.633  1.00  0.00     0.042 A 
HETATM   17  C   UNL     1       8.073   5.880  89.829  1.00  0.00     0.008 A 
HETATM   18  C   UNL     1       8.993   4.838  89.949  1.00  0.00     0.005 A 
HETATM   19  C   UNL     1      10.014   4.952  90.869  1.00  0.00     0.056 A 
HETATM   20  C   UNL     1      10.157   6.061  91.676  1.00  0.00     0.005 A 
HETATM   21  C   UNL     1       9.238   7.104  91.557  1.00  0.00     0.008 A 
BRANCH  19  22
HETATM   22  C   UNL     1      10.992   3.841  90.998  1.00  0.00     0.254 C 
HETATM   23  O   UNL     1      10.649   2.702  90.692  1.00  0.00    -0.268 OA
HETATM   24  N   UNL     1      12.257   4.194  91.445  1.00  0.00    -0.335 N 
HETATM   25  HN  UNL     1      12.476   5.160  91.656  1.00  0.00     0.164 HD
BRANCH  24  26
HETATM   26  C   UNL     1      13.321   3.234  91.599  1.00  0.00     0.166 C 
BRANCH  26  27
HETATM   27  C   UNL     1      14.575   3.604  90.797  1.00  0.00     0.138 C 
HETATM   28  C   UNL     1      14.449   3.252  89.319  1.00  0.00     0.034 C 
BRANCH  27  29
HETATM   29  O   UNL     1      14.824   5.004  90.920  1.00  0.00    -0.383 OA
HETATM   30  H   UNL     1      13.973   5.470  90.877  1.00  0.00     0.210 HD
ENDBRANCH  27  29
ENDBRANCH  26  27
BRANCH  26  31
HETATM   31  C   UNL     1      13.630   3.115  93.088  1.00  0.00     0.181 C 
HETATM   32  O   UNL     1      12.761   2.942  93.940  1.00  0.00    -0.294 OA
BRANCH  31  33
HETATM   33  C   UNL     1      14.776   2.006  93.379  1.00  0.00     0.138 C 
BRANCH  33  34
HETATM   34  C   UNL     1      15.897   2.829  93.622  1.00  0.00     0.208 C 
HETATM   35  O   UNL     1      16.929   2.495  93.086  1.00  0.00    -0.289 OA
BRANCH  34  36
HETATM   36  C   UNL     1      15.974   4.099  94.124  1.00  0.00     0.194 C 
HETATM   37  O   UNL     1      15.928   5.335  93.468  1.00  0.00    -0.185 OA
ENDBRANCH  34  36
ENDBRANCH  33  34
ENDBRANCH  31  33
ENDBRANCH  26  31
ENDBRANCH  24  26
ENDBRANCH  19  22
ENDBRANCH  15  16
ENDBRANCH  11  14
ENDBRANCH   7   8
ENDBRANCH   2   7
TORSDOF 12
ENDMDL
