MODEL 1
REMARK VINA RESULT:      -6.3      0.000      0.000
REMARK  10 active torsions:
REMARK  status: ('A' for Active; 'I' for Inactive)
REMARK    1  A    between atoms: O_2  and  C_18 
REMARK    2  A    between atoms: O_5  and  N_8 
REMARK    3  A    between atoms: N_6  and  C_11 
REMARK    4  A    between atoms: N_7  and  C_15 
REMARK       I    between atoms: N_7  and  C_24 
REMARK       I    between atoms: N_8  and  C_23 
REMARK    5  A    between atoms: C_11  and  C_14 
REMARK    6  A    between atoms: C_15  and  C_18 
REMARK    7  A    between atoms: C_15  and  C_23 
REMARK    8  A    between atoms: C_21  and  C_26 
REMARK    9  A    between atoms: C_24  and  C_25 
REMARK   10  A    between atoms: C_29  and  C_32 
ROOT
HETATM    1  O   UNK     0      16.456   3.148  93.726  0.00  0.00    -0.388 OA
HETATM    2  N   UNK     0      13.785   2.810  92.802  0.00  0.00     0.096 N 
HETATM    3  C   UNK     0      14.666   1.659  93.041  0.00  0.00     0.299 C 
HETATM    4  C   UNK     0      14.583   3.986  92.431  0.00  0.00     0.299 C 
HETATM    5  C   UNK     0      15.690   2.007  94.119  0.00  0.00     0.198 C 
HETATM    6  C   UNK     0      15.610   4.280  93.521  0.00  0.00     0.198 C 
ENDROOT
BRANCH   2   7
HETATM    7  C   UNK     0      12.801   2.503  91.765  0.00  0.00     0.311 C 
BRANCH   7   8
HETATM    8  C   UNK     0      11.728   3.534  91.676  0.00  0.00    -0.030 A 
HETATM    9  C   UNK     0      11.205   3.889  90.432  0.00  0.00     0.010 A 
HETATM   10  C   UNK     0      10.203   4.855  90.347  0.00  0.00     0.021 A 
HETATM   11  C   UNK     0       9.723   5.464  91.506  0.00  0.00     0.018 A 
HETATM   12  C   UNK     0      10.245   5.110  92.749  0.00  0.00     0.021 A 
HETATM   13  C   UNK     0      11.248   4.145  92.834  0.00  0.00     0.010 A 
BRANCH  11  14
HETATM   14  C   UNK     0       8.693   6.454  91.420  0.00  0.00    -0.061 C 
HETATM   15  C   UNK     0       7.828   7.285  91.347  0.00  0.00    -0.061 C 
BRANCH  15  16
HETATM   16  C   UNK     0       6.799   8.273  91.259  0.00  0.00     0.018 A 
HETATM   17  C   UNK     0       7.136   9.626  91.206  0.00  0.00     0.022 A 
HETATM   18  C   UNK     0       6.132  10.591  91.118  0.00  0.00     0.018 A 
HETATM   19  C   UNK     0       4.815  10.182  91.084  0.00  0.00     0.032 A 
HETATM   20  C   UNK     0       4.456   8.851  91.135  0.00  0.00     0.018 A 
HETATM   21  C   UNK     0       5.460   7.886  91.224  0.00  0.00     0.022 A 
BRANCH  19  22
HETATM   22  C   UNK     0       3.746  11.210  90.993  0.00  0.00     0.252 C 
HETATM   23  O   UNK     0       2.819  11.042  90.204  0.00  0.00    -0.268 OA
HETATM   24  N   UNK     0       3.872  12.296  91.847  0.00  0.00    -0.341 N 
HETATM   25  H   UNK     0       4.653  12.354  92.490  0.00  0.00     0.163 HD
BRANCH  24  26
HETATM   26  C   UNK     0       2.905  13.362  91.894  0.00  0.00     0.207 C 
BRANCH  26  27
HETATM   27  C   UNK     0       2.936  14.135  93.218  0.00  0.00     0.146 C 
HETATM   28  C   UNK     0       4.191  13.844  94.034  0.00  0.00     0.042 C 
BRANCH  27  29
HETATM   29  O   UNK     0       2.870  15.536  92.955  0.00  0.00    -0.393 OA
HETATM   30  H   UNK     0       2.022  15.870  93.293  0.00  0.00     0.210 HD
ENDBRANCH  27  29
ENDBRANCH  26  27
BRANCH  26  31
HETATM   31  C   UNK     0       3.169  14.284  90.708  0.00  0.00     0.266 C 
HETATM   32  O   UNK     0       2.329  14.518  89.841  0.00  0.00    -0.269 OA
HETATM   33  N   UNK     0       4.451  14.777  90.710  0.00  0.00    -0.236 N 
HETATM   34  H   UNK     0       5.194  14.536  91.356  0.00  0.00     0.197 HD
BRANCH  33  35
HETATM   35  O   UNK     0       4.788  15.605  89.629  0.00  0.00    -0.287 OA
HETATM   36  H   UNK     0       5.747  15.692  89.769  0.00  0.00     0.244 HD
ENDBRANCH  33  35
ENDBRANCH  26  31
ENDBRANCH  24  26
ENDBRANCH  19  22
ENDBRANCH  15  16
ENDBRANCH  11  14
ENDBRANCH   7   8
ENDBRANCH   2   7
TORSDOF 10
ENDMDL
