MODEL 1
REMARK VINA RESULT:      -6.6      0.000      0.000
REMARK  11 active torsions:
REMARK  status: ('A' for Active; 'I' for Inactive)
REMARK    1  A    between atoms: O_2  and  C_18 
REMARK    2  A    between atoms: O_5  and  P_8 
REMARK    3  A    between atoms: N_6  and  C_11 
REMARK    4  A    between atoms: N_7  and  C_15 
REMARK       I    between atoms: N_7  and  C_24 
REMARK    5  A    between atoms: P_8  and  C_23 
REMARK    6  A    between atoms: C_11  and  C_14 
REMARK    7  A    between atoms: C_15  and  C_18 
REMARK    8  A    between atoms: C_15  and  C_23 
REMARK    9  A    between atoms: C_21  and  C_26 
REMARK   10  A    between atoms: C_24  and  C_25 
REMARK   11  A    between atoms: C_29  and  C_32 
ROOT
HETATM    1  O   UNL     1      16.400   3.315  93.794  1.00  0.00     0.000 OA
HETATM    2  N   UNL     1      13.762   2.781  92.867  1.00  0.00     0.000 N 
HETATM    3  C   UNL     1      14.753   1.708  93.023  1.00  0.00     0.000 C 
HETATM    4  C   UNL     1      14.439   4.052  92.571  1.00  0.00     0.000 C 
HETATM    5  C   UNL     1      15.754   2.082  94.115  1.00  0.00     0.000 C 
HETATM    6  C   UNL     1      15.446   4.371  93.671  1.00  0.00     0.000 C 
ENDROOT
BRANCH   2   7
HETATM    7  C   UNL     1      12.799   2.449  91.819  1.00  0.00     0.000 C 
BRANCH   7   8
HETATM    8  C   UNL     1      11.829   3.552  91.568  1.00  0.00     0.000 A 
HETATM    9  C   UNL     1      10.945   3.944  92.575  1.00  0.00     0.000 A 
HETATM   10  C   UNL     1      10.035   4.974  92.341  1.00  0.00     0.000 A 
HETATM   11  C   UNL     1      10.010   5.613  91.102  1.00  0.00     0.000 A 
HETATM   12  C   UNL     1      10.892   5.223  90.096  1.00  0.00     0.000 A 
HETATM   13  C   UNL     1      11.802   4.192  90.329  1.00  0.00     0.000 A 
BRANCH  11  14
HETATM   14  C   UNL     1       9.078   6.672  90.862  1.00  0.00     0.000 C 
HETATM   15  C   UNL     1       8.295   7.562  90.661  1.00  0.00     0.000 C 
BRANCH  15  16
HETATM   16  C   UNL     1       7.362   8.619  90.421  1.00  0.00     0.000 A 
HETATM   17  C   UNL     1       7.484   9.824  91.113  1.00  0.00     0.000 A 
HETATM   18  C   UNL     1       6.576  10.857  90.877  1.00  0.00     0.000 A 
HETATM   19  C   UNL     1       5.569  10.661  89.955  1.00  0.00     0.000 A 
HETATM   20  C   UNL     1       5.428   9.479  89.259  1.00  0.00     0.000 A 
HETATM   21  C   UNL     1       6.335   8.446  89.494  1.00  0.00     0.000 A 
BRANCH  19  22
HETATM   22  C   UNL     1       4.601  11.761  89.705  1.00  0.00     0.000 C 
HETATM   23  O   UNL     1       4.027  11.820  88.621  1.00  0.00     0.000 OA
HETATM   24  N   UNL     1       4.400  12.644  90.757  1.00  0.00     0.000 N 
HETATM   25  HN  UNL     1       4.892  12.518  91.634  1.00  0.00     0.000 HD
BRANCH  24  26
HETATM   26  C   UNL     1       3.476  13.747  90.677  1.00  0.00     0.000 C 
BRANCH  26  27
HETATM   27  C   UNL     1       2.248  13.558  91.578  1.00  0.00     0.000 C 
HETATM   28  C   UNL     1       2.509  12.587  92.724  1.00  0.00     0.000 C 
BRANCH  27  29
HETATM   29  O   UNL     1       1.855  14.819  92.119  1.00  0.00     0.000 OA
HETATM   30  H   UNL     1       1.573  15.391  91.385  1.00  0.00     0.000 HD
ENDBRANCH  27  29
ENDBRANCH  26  27
BRANCH  26  31
HETATM   31  C   UNL     1       4.236  15.019  91.036  1.00  0.00     0.000 C 
HETATM   32  O   UNL     1       4.237  15.502  92.167  1.00  0.00     0.000 OA
BRANCH  31  33
HETATM   33  P   UNL     1       4.874  15.566  89.949  1.00  0.00     0.000 P 
HETATM   34  H   UNL     1       4.112  16.626  89.501  1.00  0.00     0.000 HD
BRANCH  33  35
HETATM   35  O   UNL     1       5.086  14.701  88.867  1.00  0.00     0.000 OA
HETATM   36  H   UNL     1       6.035  14.517  88.973  1.00  0.00     0.000 HD
ENDBRANCH  33  35
ENDBRANCH  31  33
ENDBRANCH  26  31
ENDBRANCH  24  26
ENDBRANCH  19  22
ENDBRANCH  15  16
ENDBRANCH  11  14
ENDBRANCH   7   8
ENDBRANCH   2   7
TORSDOF 11
ENDMDL
