MODEL 1
REMARK VINA RESULT:      -7.5      0.000      0.000
REMARK  9 active torsions:
REMARK  status: ('A' for Active; 'I' for Inactive)
REMARK    1  A    between atoms: N_3  and  C_6 
REMARK    2  A    between atoms: C_6  and  C_9 
REMARK    3  A    between atoms: C_14  and  C_17 
REMARK       I    between atoms: N_26  and  C_15 
REMARK    4  A    between atoms: C_15  and  C_16 
REMARK    5  A    between atoms: C_20  and  C_23 
REMARK    6  A    between atoms: OG1_24  and  CB_28 
REMARK    7  A    between atoms: N_26  and  CA_27 
REMARK    8  A    between atoms: CA_27  and  CB_28 
REMARK    9  A    between atoms: CA_27  and  C_30 
ROOT
HETATM    1  O   UNK A   0       1.872   8.096  87.983  1.00  0.00    -0.388 OA
HETATM    2  N   UNK A   0       4.660   7.560  87.779  1.00  0.00     0.096 N 
HETATM    3  C   UNK A   0       4.146   8.934  87.859  1.00  0.00     0.299 C 
HETATM    4  C   UNK A   0       3.661   6.684  87.151  1.00  0.00     0.299 C 
HETATM    5  C   UNK A   0       2.824   8.949  88.622  1.00  0.00     0.198 C 
HETATM    6  C   UNK A   0       2.351   6.752  87.930  1.00  0.00     0.198 C 
ENDROOT
BRANCH   2   7
HETATM    7  C   UNK A   0       5.922   7.520  87.043  1.00  0.00     0.311 C 
BRANCH   7   8
HETATM    8  C   UNK A   0       7.029   6.924  87.843  1.00  0.00    -0.030 A 
HETATM    9  C   UNK A   0       6.844   6.664  89.202  1.00  0.00     0.010 A 
HETATM   10  C   UNK A   0       7.880   6.108  89.953  1.00  0.00     0.021 A 
HETATM   11  C   UNK A   0       9.099   5.811  89.344  1.00  0.00     0.018 A 
HETATM   12  C   UNK A   0       9.285   6.070  87.988  1.00  0.00     0.021 A 
HETATM   13  C   UNK A   0       8.249   6.627  87.237  1.00  0.00     0.010 A 
BRANCH  11  14
HETATM   14  C   UNK A   0      10.161   5.239  90.114  1.00  0.00    -0.061 C 
HETATM   15  C   UNK A   0      11.053   4.758  90.760  1.00  0.00    -0.061 C 
BRANCH  15  16
HETATM   16  C   UNK A   0      12.115   4.187  91.529  1.00  0.00     0.018 A 
HETATM   17  C   UNK A   0      11.906   3.859  92.869  1.00  0.00     0.022 A 
HETATM   18  C   UNK A   0      12.941   3.299  93.618  1.00  0.00     0.018 A 
HETATM   19  C   UNK A   0      14.160   3.080  93.012  1.00  0.00     0.032 A 
HETATM   20  C   UNK A   0      14.391   3.395  91.689  1.00  0.00     0.018 A 
HETATM   21  C   UNK A   0      13.357   3.955  90.939  1.00  0.00     0.022 A 
BRANCH  19  22
HETATM   22  C   UNK A   0      15.262   2.485  93.811  1.00  0.00     0.252 C 
HETATM   23  O   UNK A   0      16.407   2.904  93.658  1.00  0.00    -0.268 OA
ENDBRANCH  19  22
ENDBRANCH  15  16
ENDBRANCH  11  14
ENDBRANCH   7   8
ENDBRANCH   2   7
TORSDOF 9
ENDMDL
MODEL 2
REMARK VINA RESULT:      -7.5      0.177      1.023
REMARK  9 active torsions:
REMARK  status: ('A' for Active; 'I' for Inactive)
REMARK    1  A    between atoms: N_3  and  C_6 
REMARK    2  A    between atoms: C_6  and  C_9 
REMARK    3  A    between atoms: C_14  and  C_17 
REMARK       I    between atoms: N_26  and  C_15 
REMARK    4  A    between atoms: C_15  and  C_16 
REMARK    5  A    between atoms: C_20  and  C_23 
REMARK    6  A    between atoms: OG1_24  and  CB_28 
REMARK    7  A    between atoms: N_26  and  CA_27 
REMARK    8  A    between atoms: CA_27  and  CB_28 
REMARK    9  A    between atoms: CA_27  and  C_30 
ROOT
HETATM    1  O   UNK A   0       1.803   8.167  87.873  1.00  0.00    -0.388 OA
HETATM    2  N   UNK A   0       4.588   7.610  87.682  1.00  0.00     0.096 N 
HETATM    3  C   UNK A   0       4.085   8.988  87.782  1.00  0.00     0.299 C 
HETATM    4  C   UNK A   0       3.586   6.756  87.029  1.00  0.00     0.299 C 
HETATM    5  C   UNK A   0       2.757   9.000  88.535  1.00  0.00     0.198 C 
HETATM    6  C   UNK A   0       2.271   6.820  87.798  1.00  0.00     0.198 C 
ENDROOT
BRANCH   2   7
HETATM    7  C   UNK A   0       5.855   7.574  86.955  1.00  0.00     0.311 C 
BRANCH   7   8
HETATM    8  C   UNK A   0       6.955   6.970  87.760  1.00  0.00    -0.030 A 
HETATM    9  C   UNK A   0       6.728   6.609  89.089  1.00  0.00     0.010 A 
HETATM   10  C   UNK A   0       7.757   6.047  89.844  1.00  0.00     0.021 A 
HETATM   11  C   UNK A   0       9.011   5.843  89.269  1.00  0.00     0.018 A 
HETATM   12  C   UNK A   0       9.239   6.202  87.942  1.00  0.00     0.021 A 
HETATM   13  C   UNK A   0       8.210   6.766  87.187  1.00  0.00     0.010 A 
BRANCH  11  14
HETATM   14  C   UNK A   0      10.066   5.263  90.043  1.00  0.00    -0.061 C 
HETATM   15  C   UNK A   0      10.951   4.776  90.694  1.00  0.00    -0.061 C 
BRANCH  15  16
HETATM   16  C   UNK A   0      12.005   4.196  91.467  1.00  0.00     0.018 A 
HETATM   17  C   UNK A   0      13.258   3.989  90.891  1.00  0.00     0.022 A 
HETATM   18  C   UNK A   0      14.287   3.425  91.647  1.00  0.00     0.018 A 
HETATM   19  C   UNK A   0      14.039   3.083  92.960  1.00  0.00     0.032 A 
HETATM   20  C   UNK A   0      12.809   3.277  93.552  1.00  0.00     0.018 A 
HETATM   21  C   UNK A   0      11.780   3.840  92.797  1.00  0.00     0.022 A 
BRANCH  19  22
HETATM   22  C   UNK A   0      15.135   2.481  93.763  1.00  0.00     0.252 C 
HETATM   23  O   UNK A   0      16.116   3.164  94.046  1.00  0.00    -0.268 OA
ENDBRANCH  19  22
ENDBRANCH  15  16
ENDBRANCH  11  14
ENDBRANCH   7   8
ENDBRANCH   2   7
TORSDOF 9
ENDMDL
MODEL 3
REMARK VINA RESULT:      -6.9      1.518      2.052
REMARK  9 active torsions:
REMARK  status: ('A' for Active; 'I' for Inactive)
REMARK    1  A    between atoms: N_3  and  C_6 
REMARK    2  A    between atoms: C_6  and  C_9 
REMARK    3  A    between atoms: C_14  and  C_17 
REMARK       I    between atoms: N_26  and  C_15 
REMARK    4  A    between atoms: C_15  and  C_16 
REMARK    5  A    between atoms: C_20  and  C_23 
REMARK    6  A    between atoms: OG1_24  and  CB_28 
REMARK    7  A    between atoms: N_26  and  CA_27 
REMARK    8  A    between atoms: CA_27  and  CB_28 
REMARK    9  A    between atoms: CA_27  and  C_30 
ROOT
HETATM    1  O   UNK A   0       2.729  11.203  89.859  1.00  0.00    -0.388 OA
HETATM    2  N   UNK A   0       4.579   9.282  88.865  1.00  0.00     0.096 N 
HETATM    3  C   UNK A   0       3.822  10.158  87.961  1.00  0.00     0.299 C 
HETATM    4  C   UNK A   0       3.812   9.045  90.096  1.00  0.00     0.299 C 
HETATM    5  C   UNK A   0       3.480  11.464  88.672  1.00  0.00     0.198 C 
HETATM    6  C   UNK A   0       3.471  10.377  90.757  1.00  0.00     0.198 C 
ENDROOT
BRANCH   2   7
HETATM    7  C   UNK A   0       4.908   8.018  88.207  1.00  0.00     0.311 C 
BRANCH   7   8
HETATM    8  C   UNK A   0       6.119   7.373  88.790  1.00  0.00    -0.030 A 
HETATM    9  C   UNK A   0       7.377   7.942  88.588  1.00  0.00     0.010 A 
HETATM   10  C   UNK A   0       8.511   7.338  89.130  1.00  0.00     0.021 A 
HETATM   11  C   UNK A   0       8.386   6.167  89.877  1.00  0.00     0.018 A 
HETATM   12  C   UNK A   0       7.130   5.598  90.080  1.00  0.00     0.021 A 
HETATM   13  C   UNK A   0       5.996   6.201  89.537  1.00  0.00     0.010 A 
BRANCH  11  14
HETATM   14  C   UNK A   0       9.549   5.548  90.436  1.00  0.00    -0.061 C 
HETATM   15  C   UNK A   0      10.526   5.029  90.906  1.00  0.00    -0.061 C 
BRANCH  15  16
HETATM   16  C   UNK A   0      11.688   4.410  91.465  1.00  0.00     0.018 A 
HETATM   17  C   UNK A   0      11.668   3.955  92.783  1.00  0.00     0.022 A 
HETATM   18  C   UNK A   0      12.801   3.349  93.327  1.00  0.00     0.018 A 
HETATM   19  C   UNK A   0      13.926   3.211  92.541  1.00  0.00     0.032 A 
HETATM   20  C   UNK A   0      13.970   3.652  91.235  1.00  0.00     0.018 A 
HETATM   21  C   UNK A   0      12.838   4.259  90.690  1.00  0.00     0.022 A 
BRANCH  19  22
HETATM   22  C   UNK A   0      15.133   2.567  93.122  1.00  0.00     0.252 C 
HETATM   23  O   UNK A   0      15.764   3.155  93.996  1.00  0.00    -0.268 OA
ENDBRANCH  19  22
ENDBRANCH  15  16
ENDBRANCH  11  14
ENDBRANCH   7   8
ENDBRANCH   2   7
TORSDOF 9
ENDMDL
MODEL 4
REMARK VINA RESULT:      -6.8      1.396      2.006
REMARK  9 active torsions:
REMARK  status: ('A' for Active; 'I' for Inactive)
REMARK    1  A    between atoms: N_3  and  C_6 
REMARK    2  A    between atoms: C_6  and  C_9 
REMARK    3  A    between atoms: C_14  and  C_17 
REMARK       I    between atoms: N_26  and  C_15 
REMARK    4  A    between atoms: C_15  and  C_16 
REMARK    5  A    between atoms: C_20  and  C_23 
REMARK    6  A    between atoms: OG1_24  and  CB_28 
REMARK    7  A    between atoms: N_26  and  CA_27 
REMARK    8  A    between atoms: CA_27  and  CB_28 
REMARK    9  A    between atoms: CA_27  and  C_30 
ROOT
HETATM    1  O   UNK A   0       4.886  11.270  88.597  1.00  0.00    -0.388 OA
HETATM    2  N   UNK A   0       5.125   8.433  88.591  1.00  0.00     0.096 N 
HETATM    3  C   UNK A   0       6.272   9.300  88.895  1.00  0.00     0.299 C 
HETATM    4  C   UNK A   0       4.193   9.129  87.692  1.00  0.00     0.299 C 
HETATM    5  C   UNK A   0       5.782  10.614  89.497  1.00  0.00     0.198 C 
HETATM    6  C   UNK A   0       3.752  10.446  88.321  1.00  0.00     0.198 C 
ENDROOT
BRANCH   2   7
HETATM    7  C   UNK A   0       5.570   7.171  88.003  1.00  0.00     0.311 C 
BRANCH   7   8
HETATM    8  C   UNK A   0       6.764   6.611  88.698  1.00  0.00    -0.030 A 
HETATM    9  C   UNK A   0       6.617   5.971  89.930  1.00  0.00     0.010 A 
HETATM   10  C   UNK A   0       7.733   5.449  90.582  1.00  0.00     0.021 A 
HETATM   11  C   UNK A   0       8.996   5.564  90.002  1.00  0.00     0.018 A 
HETATM   12  C   UNK A   0       9.144   6.202  88.772  1.00  0.00     0.021 A 
HETATM   13  C   UNK A   0       8.028   6.726  88.120  1.00  0.00     0.010 A 
BRANCH  11  14
HETATM   14  C   UNK A   0      10.141   5.026  90.670  1.00  0.00    -0.061 C 
HETATM   15  C   UNK A   0      11.102   4.573  91.232  1.00  0.00    -0.061 C 
BRANCH  15  16
HETATM   16  C   UNK A   0      12.247   4.035  91.899  1.00  0.00     0.018 A 
HETATM   17  C   UNK A   0      13.436   3.840  91.195  1.00  0.00     0.022 A 
HETATM   18  C   UNK A   0      14.553   3.318  91.847  1.00  0.00     0.018 A 
HETATM   19  C   UNK A   0      14.456   3.002  93.186  1.00  0.00     0.032 A 
HETATM   20  C   UNK A   0      13.292   3.184  93.903  1.00  0.00     0.018 A 
HETATM   21  C   UNK A   0      12.175   3.707  93.253  1.00  0.00     0.022 A 
BRANCH  19  22
HETATM   22  C   UNK A   0      15.646   2.444  93.879  1.00  0.00     0.252 C 
HETATM   23  O   UNK A   0      16.703   3.069  93.854  1.00  0.00    -0.268 OA
ENDBRANCH  19  22
ENDBRANCH  15  16
ENDBRANCH  11  14
ENDBRANCH   7   8
ENDBRANCH   2   7
TORSDOF 9
ENDMDL
MODEL 5
REMARK VINA RESULT:      -6.6      3.910     10.449
REMARK  9 active torsions:
REMARK  status: ('A' for Active; 'I' for Inactive)
REMARK    1  A    between atoms: N_3  and  C_6 
REMARK    2  A    between atoms: C_6  and  C_9 
REMARK    3  A    between atoms: C_14  and  C_17 
REMARK       I    between atoms: N_26  and  C_15 
REMARK    4  A    between atoms: C_15  and  C_16 
REMARK    5  A    between atoms: C_20  and  C_23 
REMARK    6  A    between atoms: OG1_24  and  CB_28 
REMARK    7  A    between atoms: N_26  and  CA_27 
REMARK    8  A    between atoms: CA_27  and  CB_28 
REMARK    9  A    between atoms: CA_27  and  C_30 
ROOT
HETATM    1  O   UNK A   0      14.582   3.338  92.094  1.00  0.00    -0.388 OA
HETATM    2  N   UNK A   0      11.866   4.173  92.262  1.00  0.00     0.096 N 
HETATM    3  C   UNK A   0      12.481   3.347  93.310  1.00  0.00     0.299 C 
HETATM    4  C   UNK A   0      12.510   3.908  90.968  1.00  0.00     0.299 C 
HETATM    5  C   UNK A   0      13.984   3.613  93.362  1.00  0.00     0.198 C 
HETATM    6  C   UNK A   0      14.010   4.160  91.075  1.00  0.00     0.198 C 
ENDROOT
BRANCH   2   7
HETATM    7  C   UNK A   0      10.427   3.927  92.187  1.00  0.00     0.311 C 
BRANCH   7   8
HETATM    8  C   UNK A   0       9.652   5.169  91.906  1.00  0.00    -0.030 A 
HETATM    9  C   UNK A   0       9.830   6.298  92.707  1.00  0.00     0.010 A 
HETATM   10  C   UNK A   0       9.104   7.459  92.446  1.00  0.00     0.021 A 
HETATM   11  C   UNK A   0       8.201   7.492  91.384  1.00  0.00     0.018 A 
HETATM   12  C   UNK A   0       8.022   6.366  90.583  1.00  0.00     0.021 A 
HETATM   13  C   UNK A   0       8.748   5.204  90.844  1.00  0.00     0.010 A 
BRANCH  11  14
HETATM   14  C   UNK A   0       7.458   8.685  91.115  1.00  0.00    -0.061 C 
HETATM   15  C   UNK A   0       6.833   9.687  90.889  1.00  0.00    -0.061 C 
BRANCH  15  16
HETATM   16  C   UNK A   0       6.090  10.879  90.620  1.00  0.00     0.018 A 
HETATM   17  C   UNK A   0       6.208  11.508  89.380  1.00  0.00     0.022 A 
HETATM   18  C   UNK A   0       5.481  12.669  89.117  1.00  0.00     0.018 A 
HETATM   19  C   UNK A   0       4.652  13.173  90.097  1.00  0.00     0.032 A 
HETATM   20  C   UNK A   0       4.519  12.570  91.330  1.00  0.00     0.018 A 
HETATM   21  C   UNK A   0       5.246  11.409  91.595  1.00  0.00     0.022 A 
BRANCH  19  22
HETATM   22  C   UNK A   0       3.879  14.411  89.817  1.00  0.00     0.252 C 
HETATM   23  O   UNK A   0       4.465  15.491  89.790  1.00  0.00    -0.268 OA
ENDBRANCH  19  22
ENDBRANCH  15  16
ENDBRANCH  11  14
ENDBRANCH   7   8
ENDBRANCH   2   7
TORSDOF 9
ENDMDL
MODEL 6
REMARK VINA RESULT:      -6.6      3.901     10.417
REMARK  9 active torsions:
REMARK  status: ('A' for Active; 'I' for Inactive)
REMARK    1  A    between atoms: N_3  and  C_6 
REMARK    2  A    between atoms: C_6  and  C_9 
REMARK    3  A    between atoms: C_14  and  C_17 
REMARK       I    between atoms: N_26  and  C_15 
REMARK    4  A    between atoms: C_15  and  C_16 
REMARK    5  A    between atoms: C_20  and  C_23 
REMARK    6  A    between atoms: OG1_24  and  CB_28 
REMARK    7  A    between atoms: N_26  and  CA_27 
REMARK    8  A    between atoms: CA_27  and  CB_28 
REMARK    9  A    between atoms: CA_27  and  C_30 
ROOT
HETATM    1  O   UNK A   0      14.621   3.364  92.090  1.00  0.00    -0.388 OA
HETATM    2  N   UNK A   0      11.896   4.163  92.286  1.00  0.00     0.096 N 
HETATM    3  C   UNK A   0      12.511   3.280  93.287  1.00  0.00     0.299 C 
HETATM    4  C   UNK A   0      12.552   3.982  90.984  1.00  0.00     0.299 C 
HETATM    5  C   UNK A   0      14.010   3.556  93.368  1.00  0.00     0.198 C 
HETATM    6  C   UNK A   0      14.049   4.241  91.119  1.00  0.00     0.198 C 
ENDROOT
BRANCH   2   7
HETATM    7  C   UNK A   0      10.460   3.908  92.185  1.00  0.00     0.311 C 
BRANCH   7   8
HETATM    8  C   UNK A   0       9.681   5.149  91.906  1.00  0.00    -0.030 A 
HETATM    9  C   UNK A   0       8.799   5.189  90.826  1.00  0.00     0.010 A 
HETATM   10  C   UNK A   0       8.072   6.350  90.562  1.00  0.00     0.021 A 
HETATM   11  C   UNK A   0       8.226   7.469  91.380  1.00  0.00     0.018 A 
HETATM   12  C   UNK A   0       9.107   7.430  92.459  1.00  0.00     0.021 A 
HETATM   13  C   UNK A   0       9.835   6.269  92.722  1.00  0.00     0.010 A 
BRANCH  11  14
HETATM   14  C   UNK A   0       7.478   8.659  91.111  1.00  0.00    -0.061 C 
HETATM   15  C   UNK A   0       6.850   9.659  90.886  1.00  0.00    -0.061 C 
BRANCH  15  16
HETATM   16  C   UNK A   0       6.104  10.848  90.618  1.00  0.00     0.018 A 
HETATM   17  C   UNK A   0       5.247  11.367  91.589  1.00  0.00     0.022 A 
HETATM   18  C   UNK A   0       4.522  12.529  91.328  1.00  0.00     0.018 A 
HETATM   19  C   UNK A   0       4.668  13.146  90.103  1.00  0.00     0.032 A 
HETATM   20  C   UNK A   0       5.508  12.653  89.127  1.00  0.00     0.018 A 
HETATM   21  C   UNK A   0       6.234  11.491  89.387  1.00  0.00     0.022 A 
BRANCH  19  22
HETATM   22  C   UNK A   0       3.893  14.383  89.825  1.00  0.00     0.252 C 
HETATM   23  O   UNK A   0       4.486  15.455  89.738  1.00  0.00    -0.268 OA
ENDBRANCH  19  22
ENDBRANCH  15  16
ENDBRANCH  11  14
ENDBRANCH   7   8
ENDBRANCH   2   7
TORSDOF 9
ENDMDL
MODEL 7
REMARK VINA RESULT:      -6.4      1.784      2.835
REMARK  9 active torsions:
REMARK  status: ('A' for Active; 'I' for Inactive)
REMARK    1  A    between atoms: N_3  and  C_6 
REMARK    2  A    between atoms: C_6  and  C_9 
REMARK    3  A    between atoms: C_14  and  C_17 
REMARK       I    between atoms: N_26  and  C_15 
REMARK    4  A    between atoms: C_15  and  C_16 
REMARK    5  A    between atoms: C_20  and  C_23 
REMARK    6  A    between atoms: OG1_24  and  CB_28 
REMARK    7  A    between atoms: N_26  and  CA_27 
REMARK    8  A    between atoms: CA_27  and  CB_28 
REMARK    9  A    between atoms: CA_27  and  C_30 
ROOT
HETATM    1  O   UNK A   0       2.726   9.713  88.018  1.00  0.00    -0.388 OA
HETATM    2  N   UNK A   0       3.992   8.021  89.925  1.00  0.00     0.096 N 
HETATM    3  C   UNK A   0       2.604   7.795  89.500  1.00  0.00     0.299 C 
HETATM    4  C   UNK A   0       4.323   9.449  89.825  1.00  0.00     0.299 C 
HETATM    5  C   UNK A   0       2.405   8.322  88.081  1.00  0.00     0.198 C 
HETATM    6  C   UNK A   0       4.084   9.938  88.400  1.00  0.00     0.198 C 
ENDROOT
BRANCH   2   7
HETATM    7  C   UNK A   0       4.202   7.533  91.287  1.00  0.00     0.311 C 
BRANCH   7   8
HETATM    8  C   UNK A   0       5.558   6.943  91.476  1.00  0.00    -0.030 A 
HETATM    9  C   UNK A   0       6.312   6.559  90.366  1.00  0.00     0.010 A 
HETATM   10  C   UNK A   0       7.579   6.005  90.542  1.00  0.00     0.021 A 
HETATM   11  C   UNK A   0       8.094   5.837  91.827  1.00  0.00     0.018 A 
HETATM   12  C   UNK A   0       7.342   6.220  92.936  1.00  0.00     0.021 A 
HETATM   13  C   UNK A   0       6.074   6.773  92.761  1.00  0.00     0.010 A 
BRANCH  11  14
HETATM   14  C   UNK A   0       9.395   5.270  92.006  1.00  0.00    -0.061 C 
HETATM   15  C   UNK A   0      10.488   4.793  92.158  1.00  0.00    -0.061 C 
BRANCH  15  16
HETATM   16  C   UNK A   0      11.789   4.226  92.337  1.00  0.00     0.018 A 
HETATM   17  C   UNK A   0      12.693   4.210  91.275  1.00  0.00     0.022 A 
HETATM   18  C   UNK A   0      13.963   3.659  91.450  1.00  0.00     0.018 A 
HETATM   19  C   UNK A   0      14.299   3.139  92.682  1.00  0.00     0.032 A 
HETATM   20  C   UNK A   0      13.423   3.143  93.747  1.00  0.00     0.018 A 
HETATM   21  C   UNK A   0      12.153   3.693  93.573  1.00  0.00     0.022 A 
BRANCH  19  22
HETATM   22  C   UNK A   0      15.651   2.551  92.868  1.00  0.00     0.252 C 
HETATM   23  O   UNK A   0      16.349   2.935  93.804  1.00  0.00    -0.268 OA
ENDBRANCH  19  22
ENDBRANCH  15  16
ENDBRANCH  11  14
ENDBRANCH   7   8
ENDBRANCH   2   7
TORSDOF 9
ENDMDL
MODEL 8
REMARK VINA RESULT:      -6.3      1.595      2.002
REMARK  9 active torsions:
REMARK  status: ('A' for Active; 'I' for Inactive)
REMARK    1  A    between atoms: N_3  and  C_6 
REMARK    2  A    between atoms: C_6  and  C_9 
REMARK    3  A    between atoms: C_14  and  C_17 
REMARK       I    between atoms: N_26  and  C_15 
REMARK    4  A    between atoms: C_15  and  C_16 
REMARK    5  A    between atoms: C_20  and  C_23 
REMARK    6  A    between atoms: OG1_24  and  CB_28 
REMARK    7  A    between atoms: N_26  and  CA_27 
REMARK    8  A    between atoms: CA_27  and  CB_28 
REMARK    9  A    between atoms: CA_27  and  C_30 
ROOT
HETATM    1  O   UNK A   0       3.912   6.835  86.780  1.00  0.00    -0.388 OA
HETATM    2  N   UNK A   0       4.556   8.677  88.853  1.00  0.00     0.096 N 
HETATM    3  C   UNK A   0       5.598   8.075  88.009  1.00  0.00     0.299 C 
HETATM    4  C   UNK A   0       3.410   7.765  88.964  1.00  0.00     0.299 C 
HETATM    5  C   UNK A   0       5.018   7.729  86.640  1.00  0.00     0.198 C 
HETATM    6  C   UNK A   0       2.882   7.424  87.574  1.00  0.00     0.198 C 
ENDROOT
BRANCH   2   7
HETATM    7  C   UNK A   0       5.088   9.008  90.174  1.00  0.00     0.311 C 
BRANCH   7   8
HETATM    8  C   UNK A   0       6.291   8.199  90.521  1.00  0.00    -0.030 A 
HETATM    9  C   UNK A   0       6.140   6.946  91.115  1.00  0.00     0.010 A 
HETATM   10  C   UNK A   0       7.266   6.190  91.442  1.00  0.00     0.021 A 
HETATM   11  C   UNK A   0       8.541   6.686  91.173  1.00  0.00     0.018 A 
HETATM   12  C   UNK A   0       8.692   7.938  90.579  1.00  0.00     0.021 A 
HETATM   13  C   UNK A   0       7.567   8.695  90.253  1.00  0.00     0.010 A 
BRANCH  11  14
HETATM   14  C   UNK A   0       9.695   5.909  91.507  1.00  0.00    -0.061 C 
HETATM   15  C   UNK A   0      10.665   5.257  91.787  1.00  0.00    -0.061 C 
BRANCH  15  16
HETATM   16  C   UNK A   0      11.819   4.481  92.122  1.00  0.00     0.018 A 
HETATM   17  C   UNK A   0      11.951   3.947  93.404  1.00  0.00     0.022 A 
HETATM   18  C   UNK A   0      13.075   3.188  93.729  1.00  0.00     0.018 A 
HETATM   19  C   UNK A   0      14.040   2.979  92.766  1.00  0.00     0.032 A 
HETATM   20  C   UNK A   0      13.932   3.496  91.492  1.00  0.00     0.018 A 
HETATM   21  C   UNK A   0      12.809   4.256  91.165  1.00  0.00     0.022 A 
BRANCH  19  22
HETATM   22  C   UNK A   0      15.238   2.172  93.113  1.00  0.00     0.252 C 
HETATM   23  O   UNK A   0      16.271   2.746  93.450  1.00  0.00    -0.268 OA
ENDBRANCH  19  22
ENDBRANCH  15  16
ENDBRANCH  11  14
ENDBRANCH   7   8
ENDBRANCH   2   7
TORSDOF 9
ENDMDL
MODEL 9
REMARK VINA RESULT:      -6.3      1.985      2.763
REMARK  9 active torsions:
REMARK  status: ('A' for Active; 'I' for Inactive)
REMARK    1  A    between atoms: N_3  and  C_6 
REMARK    2  A    between atoms: C_6  and  C_9 
REMARK    3  A    between atoms: C_14  and  C_17 
REMARK       I    between atoms: N_26  and  C_15 
REMARK    4  A    between atoms: C_15  and  C_16 
REMARK    5  A    between atoms: C_20  and  C_23 
REMARK    6  A    between atoms: OG1_24  and  CB_28 
REMARK    7  A    between atoms: N_26  and  CA_27 
REMARK    8  A    between atoms: CA_27  and  CB_28 
REMARK    9  A    between atoms: CA_27  and  C_30 
ROOT
HETATM    1  O   UNK A   0       2.327  10.255  87.890  1.00  0.00    -0.388 OA
HETATM    2  N   UNK A   0       4.065   9.326  89.944  1.00  0.00     0.096 N 
HETATM    3  C   UNK A   0       2.758   8.699  89.702  1.00  0.00     0.299 C 
HETATM    4  C   UNK A   0       4.025  10.742  89.553  1.00  0.00     0.299 C 
HETATM    5  C   UNK A   0       2.366   8.869  88.237  1.00  0.00     0.198 C 
HETATM    6  C   UNK A   0       3.603  10.864  88.092  1.00  0.00     0.198 C 
ENDROOT
BRANCH   2   7
HETATM    7  C   UNK A   0       4.456   9.184  91.345  1.00  0.00     0.311 C 
BRANCH   7   8
HETATM    8  C   UNK A   0       5.696   8.373  91.510  1.00  0.00    -0.030 A 
HETATM    9  C   UNK A   0       6.178   8.089  92.789  1.00  0.00     0.010 A 
HETATM   10  C   UNK A   0       7.339   7.332  92.944  1.00  0.00     0.021 A 
HETATM   11  C   UNK A   0       8.016   6.858  91.821  1.00  0.00     0.018 A 
HETATM   12  C   UNK A   0       7.536   7.140  90.544  1.00  0.00     0.021 A 
HETATM   13  C   UNK A   0       6.375   7.898  90.388  1.00  0.00     0.010 A 
BRANCH  11  14
HETATM   14  C   UNK A   0       9.206   6.079  91.981  1.00  0.00    -0.061 C 
HETATM   15  C   UNK A   0      10.206   5.425  92.116  1.00  0.00    -0.061 C 
BRANCH  15  16
HETATM   16  C   UNK A   0      11.394   4.647  92.276  1.00  0.00     0.018 A 
HETATM   17  C   UNK A   0      11.755   4.178  93.539  1.00  0.00     0.022 A 
HETATM   18  C   UNK A   0      12.913   3.416  93.695  1.00  0.00     0.018 A 
HETATM   19  C   UNK A   0      13.683   3.140  92.585  1.00  0.00     0.032 A 
HETATM   20  C   UNK A   0      13.349   3.593  91.325  1.00  0.00     0.018 A 
HETATM   21  C   UNK A   0      12.191   4.355  91.169  1.00  0.00     0.022 A 
BRANCH  19  22
HETATM   22  C   UNK A   0      14.918   2.331  92.751  1.00  0.00     0.252 C 
HETATM   23  O   UNK A   0      15.893   2.831  93.305  1.00  0.00    -0.268 OA
ENDBRANCH  19  22
ENDBRANCH  15  16
ENDBRANCH  11  14
ENDBRANCH   7   8
ENDBRANCH   2   7
TORSDOF 9
ENDMDL
