MODEL 1
REMARK VINA RESULT:      -6.3      0.000      0.000
REMARK  12 active torsions:
REMARK  status: ('A' for Active; 'I' for Inactive)
REMARK    1  A    between atoms: O_2  and  C_16 
REMARK    2  A    between atoms: N_5  and  C_9 
REMARK    3  A    between atoms: N_6  and  C_13 
REMARK       I    between atoms: N_6  and  C_22 
REMARK    4  A    between atoms: C_9  and  C_12 
REMARK    5  A    between atoms: C_13  and  C_16 
REMARK    6  A    between atoms: C_13  and  C_21 
REMARK    7  A    between atoms: C_19  and  C_24 
REMARK    8  A    between atoms: C_21  and  C_33 
REMARK    9  A    between atoms: C_22  and  C_23 
REMARK   10  A    between atoms: C_27  and  C_30 
REMARK   11  A    between atoms: C_33  and  C_34 
REMARK   12  A    between atoms: C_34  and  C_35 
ROOT
HETATM    1  O   UNL     1      16.034   4.320  93.922  1.00  0.00    -0.350 OA
HETATM    2  N   UNL     1      14.299   2.576  92.489  1.00  0.00     0.147 N 
HETATM    3  C   UNL     1      14.260   4.031  92.290  1.00  0.00     0.283 C 
HETATM    4  C   UNL     1      14.744   2.267  93.855  1.00  0.00     0.283 C 
HETATM    5  C   UNL     1      15.633   4.630  92.585  1.00  0.00     0.178 C 
HETATM    6  C   UNL     1      16.104   2.907  94.115  1.00  0.00     0.178 C 
ENDROOT
BRANCH   2   7
HETATM    7  C   UNL     1      12.990   1.982  92.222  1.00  0.00     0.277 C 
BRANCH   7   8
HETATM    8  C   UNL     1      11.905   3.002  92.161  1.00  0.00     0.011 A 
HETATM    9  C   UNL     1      11.573   3.734  93.302  1.00  0.00    -0.002 A 
HETATM   10  C   UNL     1      10.556   4.687  93.247  1.00  0.00     0.008 A 
HETATM   11  C   UNL     1       9.874   4.910  92.051  1.00  0.00     0.042 A 
HETATM   12  C   UNL     1      10.206   4.180  90.911  1.00  0.00     0.008 A 
HETATM   13  C   UNL     1      11.222   3.226  90.966  1.00  0.00    -0.002 A 
BRANCH  11  14
HETATM   14  C   UNL     1       8.833   5.889  91.994  1.00  0.00    -0.059 C 
HETATM   15  C   UNL     1       7.958   6.713  91.946  1.00  0.00    -0.059 C 
BRANCH  15  16
HETATM   16  C   UNL     1       6.918   7.692  91.889  1.00  0.00     0.042 A 
HETATM   17  C   UNL     1       7.171   9.002  92.296  1.00  0.00     0.008 A 
HETATM   18  C   UNL     1       6.156   9.957  92.238  1.00  0.00     0.005 A 
HETATM   19  C   UNL     1       4.913   9.582  91.772  1.00  0.00     0.056 A 
HETATM   20  C   UNL     1       4.638   8.294  91.364  1.00  0.00     0.005 A 
HETATM   21  C   UNL     1       5.652   7.337  91.422  1.00  0.00     0.008 A 
BRANCH  19  22
HETATM   22  C   UNL     1       3.832  10.600  91.712  1.00  0.00     0.254 C 
HETATM   23  O   UNL     1       2.662  10.229  91.663  1.00  0.00    -0.268 OA
HETATM   24  N   UNL     1       4.243  11.925  91.740  1.00  0.00    -0.335 N 
HETATM   25  HN  UNL     1       5.227  12.156  91.807  1.00  0.00     0.164 HD
BRANCH  24  26
HETATM   26  C   UNL     1       3.313  13.026  91.713  1.00  0.00     0.166 C 
BRANCH  26  27
HETATM   27  C   UNL     1       3.767  14.208  92.579  1.00  0.00     0.138 C 
HETATM   28  C   UNL     1       2.597  14.946  93.220  1.00  0.00     0.034 C 
BRANCH  27  29
HETATM   29  O   UNL     1       4.639  13.739  93.607  1.00  0.00    -0.383 OA
HETATM   30  H   UNL     1       5.467  14.245  93.559  1.00  0.00     0.210 HD
ENDBRANCH  27  29
ENDBRANCH  26  27
BRANCH  26  31
HETATM   31  C   UNL     1       3.128  13.443  90.258  1.00  0.00     0.181 C 
HETATM   32  O   UNL     1       2.266  14.242  89.895  1.00  0.00    -0.294 OA
BRANCH  31  33
HETATM   33  C   UNL     1       4.519  13.946  89.594  1.00  0.00     0.138 C 
BRANCH  33  34
HETATM   34  C   UNL     1       4.543  13.187  88.403  1.00  0.00     0.208 C 
HETATM   35  O   UNL     1       5.217  13.632  87.502  1.00  0.00    -0.289 OA
BRANCH  34  36
HETATM   36  C   UNL     1       4.173  11.891  88.169  1.00  0.00     0.194 C 
HETATM   37  O   UNL     1       4.870  10.698  88.390  1.00  0.00    -0.185 OA
ENDBRANCH  34  36
ENDBRANCH  33  34
ENDBRANCH  31  33
ENDBRANCH  26  31
ENDBRANCH  24  26
ENDBRANCH  19  22
ENDBRANCH  15  16
ENDBRANCH  11  14
ENDBRANCH   7   8
ENDBRANCH   2   7
TORSDOF 12
ENDMDL
