MODEL 1
REMARK VINA RESULT:      -7.3      0.000      0.000
REMARK  9 active torsions:
REMARK  status: ('A' for Active; 'I' for Inactive)
REMARK    1  A    between atoms: O_2  and  C_17 
REMARK    2  A    between atoms: N_5  and  C_10 
REMARK    3  A    between atoms: N_6  and  C_14 
REMARK       I    between atoms: N_6  and  C_23 
REMARK       I    between atoms: N_7  and  C_22 
REMARK    4  A    between atoms: C_10  and  C_13 
REMARK    5  A    between atoms: C_14  and  C_17 
REMARK    6  A    between atoms: C_14  and  C_22 
REMARK    7  A    between atoms: C_20  and  C_25 
REMARK    8  A    between atoms: C_23  and  C_24 
REMARK    9  A    between atoms: C_28  and  C_31 
ROOT
HETATM    1  O   UNL     1      16.397   4.105  94.114  1.00  0.00    -0.388 OA
HETATM    2  N   UNL     1      14.518   2.632  92.564  1.00  0.00     0.096 N 
HETATM    3  C   UNL     1      14.456   4.097  92.657  1.00  0.00     0.299 C 
HETATM    4  C   UNL     1      15.110   2.075  93.788  1.00  0.00     0.299 C 
HETATM    5  C   UNL     1      15.853   4.658  92.915  1.00  0.00     0.198 C 
HETATM    6  C   UNL     1      16.490   2.683  94.020  1.00  0.00     0.198 C 
ENDROOT
BRANCH   2   7
HETATM    7  C   UNL     1      13.189   2.072  92.328  1.00  0.00     0.311 C 
BRANCH   7   8
HETATM    8  C   UNL     1      12.199   3.109  91.921  1.00  0.00    -0.030 A 
HETATM    9  C   UNL     1      11.958   3.349  90.568  1.00  0.00     0.010 A 
HETATM   10  C   UNL     1      11.034   4.321  90.185  1.00  0.00     0.021 A 
HETATM   11  C   UNL     1      10.350   5.052  91.156  1.00  0.00     0.018 A 
HETATM   12  C   UNL     1      10.590   4.814  92.508  1.00  0.00     0.021 A 
HETATM   13  C   UNL     1      11.515   3.842  92.891  1.00  0.00     0.010 A 
BRANCH  11  14
HETATM   14  C   UNL     1       9.401   6.048  90.764  1.00  0.00    -0.061 C 
HETATM   15  C   UNL     1       8.603   6.885  90.435  1.00  0.00    -0.061 C 
BRANCH  15  16
HETATM   16  C   UNL     1       7.655   7.881  90.043  1.00  0.00     0.018 A 
HETATM   17  C   UNL     1       6.499   7.509  89.356  1.00  0.00     0.022 A 
HETATM   18  C   UNL     1       5.572   8.481  88.977  1.00  0.00     0.018 A 
HETATM   19  C   UNL     1       5.822   9.800  89.293  1.00  0.00     0.032 A 
HETATM   20  C   UNL     1       6.957  10.192  89.971  1.00  0.00     0.018 A 
HETATM   21  C   UNL     1       7.884   9.222  90.351  1.00  0.00     0.022 A 
BRANCH  19  22
HETATM   22  C   UNL     1       4.836  10.834  88.887  1.00  0.00     0.252 C 
HETATM   23  O   UNL     1       4.072  10.601  87.954  1.00  0.00    -0.268 OA
HETATM   24  N   UNL     1       4.842  12.005  89.632  1.00  0.00    -0.342 N 
HETATM   25  H   UNL     1       5.486  12.118  90.406  1.00  0.00     0.163 HD
BRANCH  24  26
HETATM   26  C   UNL     1       3.930  13.091  89.376  1.00  0.00     0.199 C 
BRANCH  26  27
HETATM   27  C   UNL     1       3.418  13.752  90.662  1.00  0.00     0.145 C 
HETATM   28  C   UNL     1       2.695  12.768  91.576  1.00  0.00     0.042 C 
BRANCH  27  29
HETATM   29  O   UNL     1       4.514  14.325  91.374  1.00  0.00    -0.393 OA
HETATM   30  H   UNL     1       4.559  15.271  91.154  1.00  0.00     0.210 HD
ENDBRANCH  27  29
ENDBRANCH  26  27
BRANCH  26  31
HETATM   31  C   UNL     1       4.645  14.099  88.482  1.00  0.00     0.220 C 
HETATM   32  O   UNL     1       4.880  15.255  88.830  1.00  0.00    -0.278 OA
HETATM   33  N   UNL     1       4.950  13.575  87.249  1.00  0.00    -0.271 NA
HETATM   34  H   UNL     1       4.692  12.660  86.899  1.00  0.00     0.127 HD
HETATM   35  H   UNL     1       4.363  13.867  86.008  1.00  0.00     0.127 HD
ENDBRANCH  26  31
ENDBRANCH  24  26
ENDBRANCH  19  22
ENDBRANCH  15  16
ENDBRANCH  11  14
ENDBRANCH   7   8
ENDBRANCH   2   7
TORSDOF 9
ENDMDL
