MODEL 1
REMARK VINA RESULT:      -6.7      0.000      0.000
REMARK  14 active torsions:
REMARK  status: ('A' for Active; 'I' for Inactive)
REMARK    1  A    between atoms: O_2  and  C_18 
REMARK    2  A    between atoms: C_5  and  C_8 
REMARK    3  A    between atoms: C_5  and  O_35 
REMARK    4  A    between atoms: C_5  and  C_36 
REMARK    5  A    between atoms: N_6  and  C_11 
REMARK    6  A    between atoms: N_7  and  C_15 
REMARK       I    between atoms: N_7  and  C_24 
REMARK    7  A    between atoms: C_8  and  C_23 
REMARK    8  A    between atoms: C_11  and  C_14 
REMARK    9  A    between atoms: C_15  and  C_18 
REMARK   10  A    between atoms: C_15  and  C_23 
REMARK   11  A    between atoms: C_21  and  C_26 
REMARK   12  A    between atoms: C_24  and  C_25 
REMARK   13  A    between atoms: C_29  and  C_32 
REMARK   14  A    between atoms: C_36  and  O_39 
ROOT
HETATM    1  O   UNL     1      16.631   3.408  93.871  1.00  0.00    -0.350 OA
HETATM    2  N   UNL     1      14.055   3.028  92.721  1.00  0.00     0.147 N 
HETATM    3  C   UNL     1      14.968   1.900  92.949  1.00  0.00     0.283 C 
HETATM    4  C   UNL     1      14.824   4.260  92.495  1.00  0.00     0.283 C 
HETATM    5  C   UNL     1      15.892   2.211  94.124  1.00  0.00     0.178 C 
HETATM    6  C   UNL     1      15.751   4.516  93.679  1.00  0.00     0.178 C 
ENDROOT
BRANCH   2   7
HETATM    7  C   UNL     1      13.167   2.755  91.592  1.00  0.00     0.277 C 
BRANCH   7   8
HETATM    8  C   UNL     1      11.998   3.679  91.553  1.00  0.00     0.011 A 
HETATM    9  C   UNL     1      11.635   4.294  90.354  1.00  0.00    -0.002 A 
HETATM   10  C   UNL     1      10.543   5.161  90.317  1.00  0.00     0.008 A 
HETATM   11  C   UNL     1       9.812   5.409  91.479  1.00  0.00     0.042 A 
HETATM   12  C   UNL     1      10.172   4.795  92.676  1.00  0.00     0.008 A 
HETATM   13  C   UNL     1      11.265   3.930  92.714  1.00  0.00    -0.002 A 
BRANCH  11  14
HETATM   14  C   UNL     1       8.690   6.296  91.440  1.00  0.00    -0.059 C 
HETATM   15  C   UNL     1       7.747   7.042  91.407  1.00  0.00    -0.059 C 
BRANCH  15  16
HETATM   16  C   UNL     1       6.625   7.927  91.368  1.00  0.00     0.042 A 
HETATM   17  C   UNL     1       5.409   7.488  90.843  1.00  0.00     0.008 A 
HETATM   18  C   UNL     1       4.315   8.352  90.807  1.00  0.00     0.005 A 
HETATM   19  C   UNL     1       4.460   9.633  91.297  1.00  0.00     0.056 A 
HETATM   20  C   UNL     1       5.651  10.091  91.820  1.00  0.00     0.005 A 
HETATM   21  C   UNL     1       6.746   9.228  91.856  1.00  0.00     0.008 A 
BRANCH  19  22
HETATM   22  C   UNL     1       3.293  10.553  91.257  1.00  0.00     0.254 C 
HETATM   23  O   UNL     1       2.218  10.140  90.831  1.00  0.00    -0.268 OA
HETATM   24  N   UNL     1       3.514  11.835  91.740  1.00  0.00    -0.335 N 
HETATM   25  HN  UNL     1       4.424  12.098  92.100  1.00  0.00     0.164 HD
BRANCH  24  26
HETATM   26  C   UNL     1       2.477  12.834  91.790  1.00  0.00     0.169 C 
BRANCH  26  27
HETATM   27  C   UNL     1       2.390  13.533  93.153  1.00  0.00     0.138 C 
HETATM   28  C   UNL     1       3.748  13.649  93.837  1.00  0.00     0.034 C 
BRANCH  27  29
HETATM   29  O   UNL     1       1.842  14.840  92.985  1.00  0.00    -0.383 OA
HETATM   30  H   UNL     1       1.819  15.041  92.034  1.00  0.00     0.210 HD
ENDBRANCH  27  29
ENDBRANCH  26  27
BRANCH  26  31
HETATM   31  C   UNL     1       2.740  13.835  90.670  1.00  0.00     0.194 C 
HETATM   32  O   UNL     1       1.839  14.386  90.039  1.00  0.00    -0.289 OA
BRANCH  31  33
HETATM   33  C   UNL     1       4.082  14.008  90.433  1.00  0.00     0.053 C 
BRANCH  33  34
HETATM   34  C   UNL     1       4.450  14.159  89.089  1.00  0.00     0.220 C 
BRANCH  34  35
HETATM   35  O   UNL     1       5.472  14.869  89.051  1.00  0.00    -0.371 OA
HETATM   36  H   UNL     1       5.172  15.563  89.619  1.00  0.00     0.211 HD
ENDBRANCH  34  35
BRANCH  34  37
HETATM   37  C   UNL     1       4.624  12.937  88.416  1.00  0.00     0.185 C 
HETATM   38  O   UNL     1       5.467  12.695  89.408  1.00  0.00    -0.647 OA
BRANCH  37  39
HETATM   39  O   UNL     1       4.224  12.427  87.412  1.00  0.00    -0.774 OA
HETATM   40  H   UNL     1       3.207  12.832  87.114  1.00  0.00     0.167 HD
ENDBRANCH  37  39
ENDBRANCH  34  37
ENDBRANCH  33  34
ENDBRANCH  31  33
ENDBRANCH  26  31
ENDBRANCH  24  26
ENDBRANCH  19  22
ENDBRANCH  15  16
ENDBRANCH  11  14
ENDBRANCH   7   8
ENDBRANCH   2   7
TORSDOF 14
ENDMDL
MODEL 2
REMARK VINA RESULT:      -5.4      2.584     12.985
REMARK  14 active torsions:
REMARK  status: ('A' for Active; 'I' for Inactive)
REMARK    1  A    between atoms: O_2  and  C_18 
REMARK    2  A    between atoms: C_5  and  C_8 
REMARK    3  A    between atoms: C_5  and  O_35 
REMARK    4  A    between atoms: C_5  and  C_36 
REMARK    5  A    between atoms: N_6  and  C_11 
REMARK    6  A    between atoms: N_7  and  C_15 
REMARK       I    between atoms: N_7  and  C_24 
REMARK    7  A    between atoms: C_8  and  C_23 
REMARK    8  A    between atoms: C_11  and  C_14 
REMARK    9  A    between atoms: C_15  and  C_18 
REMARK   10  A    between atoms: C_15  and  C_23 
REMARK   11  A    between atoms: C_21  and  C_26 
REMARK   12  A    between atoms: C_24  and  C_25 
REMARK   13  A    between atoms: C_29  and  C_32 
REMARK   14  A    between atoms: C_36  and  O_39 
ROOT
HETATM    1  O   UNL     1       3.056  14.970  94.005  1.00  0.00    -0.350 OA
HETATM    2  N   UNL     1       2.665  14.671  91.202  1.00  0.00     0.147 N 
HETATM    3  C   UNL     1       1.767  14.033  92.175  1.00  0.00     0.283 C 
HETATM    4  C   UNL     1       4.008  14.820  91.779  1.00  0.00     0.283 C 
HETATM    5  C   UNL     1       1.739  14.850  93.464  1.00  0.00     0.178 C 
HETATM    6  C   UNL     1       3.928  15.616  93.077  1.00  0.00     0.178 C 
ENDROOT
BRANCH   2   7
HETATM    7  C   UNL     1       2.715  13.899  89.961  1.00  0.00     0.277 C 
BRANCH   7   8
HETATM    8  C   UNL     1       3.687  12.772  90.032  1.00  0.00     0.011 A 
HETATM    9  C   UNL     1       3.388  11.641  90.793  1.00  0.00    -0.002 A 
HETATM   10  C   UNL     1       4.298  10.586  90.862  1.00  0.00     0.008 A 
HETATM   11  C   UNL     1       5.505  10.662  90.169  1.00  0.00     0.042 A 
HETATM   12  C   UNL     1       5.805  11.790  89.408  1.00  0.00     0.008 A 
HETATM   13  C   UNL     1       4.896  12.846  89.339  1.00  0.00    -0.002 A 
BRANCH  11  14
HETATM   14  C   UNL     1       6.438   9.579  90.238  1.00  0.00    -0.059 C 
HETATM   15  C   UNL     1       7.221   8.668  90.296  1.00  0.00    -0.059 C 
BRANCH  15  16
HETATM   16  C   UNL     1       8.152   7.586  90.364  1.00  0.00     0.042 A 
HETATM   17  C   UNL     1       9.326   7.628  89.611  1.00  0.00     0.008 A 
HETATM   18  C   UNL     1      10.236   6.573  89.680  1.00  0.00     0.005 A 
HETATM   19  C   UNL     1       9.953   5.501  90.500  1.00  0.00     0.056 A 
HETATM   20  C   UNL     1       8.800   5.436  91.254  1.00  0.00     0.005 A 
HETATM   21  C   UNL     1       7.889   6.490  91.186  1.00  0.00     0.008 A 
BRANCH  19  22
HETATM   22  C   UNL     1      10.921   4.377  90.571  1.00  0.00     0.254 C 
HETATM   23  O   UNL     1      10.755   3.395  89.851  1.00  0.00    -0.268 OA
HETATM   24  N   UNL     1      11.980   4.541  91.454  1.00  0.00    -0.335 N 
HETATM   25  HN  UNL     1      12.066   5.391  91.999  1.00  0.00     0.164 HD
BRANCH  24  26
HETATM   26  C   UNL     1      13.014   3.551  91.618  1.00  0.00     0.169 C 
BRANCH  26  27
HETATM   27  C   UNL     1      14.382   4.034  91.121  1.00  0.00     0.138 C 
HETATM   28  C   UNL     1      15.089   2.996  90.257  1.00  0.00     0.034 C 
BRANCH  27  29
HETATM   29  O   UNL     1      14.220   5.234  90.365  1.00  0.00    -0.383 OA
HETATM   30  H   UNL     1      15.055   5.729  90.396  1.00  0.00     0.210 HD
ENDBRANCH  27  29
ENDBRANCH  26  27
BRANCH  26  31
HETATM   31  C   UNL     1      13.063   3.170  93.094  1.00  0.00     0.194 C 
HETATM   32  O   UNL     1      12.217   2.455  93.630  1.00  0.00    -0.289 OA
BRANCH  31  33
HETATM   33  C   UNL     1      14.127   3.746  93.744  1.00  0.00     0.053 C 
BRANCH  33  34
HETATM   34  C   UNL     1      15.156   2.872  94.124  1.00  0.00     0.220 C 
BRANCH  34  35
HETATM   35  O   UNL     1      14.960   1.783  93.552  1.00  0.00    -0.371 OA
HETATM   36  H   UNL     1      15.841   1.443  93.609  1.00  0.00     0.211 HD
ENDBRANCH  34  35
BRANCH  34  37
HETATM   37  C   UNL     1      16.442   3.381  93.878  1.00  0.00     0.185 C 
HETATM   38  O   UNL     1      15.844   4.547  94.072  1.00  0.00    -0.647 OA
BRANCH  37  39
HETATM   39  O   UNL     1      17.515   2.943  93.589  1.00  0.00    -0.774 OA
HETATM   40  H   UNL     1      17.436   2.119  92.813  1.00  0.00     0.167 HD
ENDBRANCH  37  39
ENDBRANCH  34  37
ENDBRANCH  33  34
ENDBRANCH  31  33
ENDBRANCH  26  31
ENDBRANCH  24  26
ENDBRANCH  19  22
ENDBRANCH  15  16
ENDBRANCH  11  14
ENDBRANCH   7   8
ENDBRANCH   2   7
TORSDOF 14
ENDMDL
MODEL 3
REMARK VINA RESULT:      -4.8      1.486      1.645
REMARK  14 active torsions:
REMARK  status: ('A' for Active; 'I' for Inactive)
REMARK    1  A    between atoms: O_2  and  C_18 
REMARK    2  A    between atoms: C_5  and  C_8 
REMARK    3  A    between atoms: C_5  and  O_35 
REMARK    4  A    between atoms: C_5  and  C_36 
REMARK    5  A    between atoms: N_6  and  C_11 
REMARK    6  A    between atoms: N_7  and  C_15 
REMARK       I    between atoms: N_7  and  C_24 
REMARK    7  A    between atoms: C_8  and  C_23 
REMARK    8  A    between atoms: C_11  and  C_14 
REMARK    9  A    between atoms: C_15  and  C_18 
REMARK   10  A    between atoms: C_15  and  C_23 
REMARK   11  A    between atoms: C_21  and  C_26 
REMARK   12  A    between atoms: C_24  and  C_25 
REMARK   13  A    between atoms: C_29  and  C_32 
REMARK   14  A    between atoms: C_36  and  O_39 
ROOT
HETATM    1  O   UNL     1      16.508   2.930  92.891  1.00  0.00    -0.350 OA
HETATM    2  N   UNL     1      13.673   3.007  93.141  1.00  0.00     0.147 N 
HETATM    3  C   UNL     1      14.482   2.017  93.866  1.00  0.00     0.283 C 
HETATM    4  C   UNL     1      14.345   3.387  91.891  1.00  0.00     0.283 C 
HETATM    5  C   UNL     1      15.878   2.579  94.124  1.00  0.00     0.178 C 
HETATM    6  C   UNL     1      15.743   3.915  92.194  1.00  0.00     0.178 C 
ENDROOT
BRANCH   2   7
HETATM    7  C   UNL     1      12.334   2.485  92.874  1.00  0.00     0.277 C 
BRANCH   7   8
HETATM    8  C   UNL     1      11.294   3.553  92.895  1.00  0.00     0.011 A 
HETATM    9  C   UNL     1      10.306   3.583  91.910  1.00  0.00    -0.002 A 
HETATM   10  C   UNL     1       9.334   4.583  91.928  1.00  0.00     0.008 A 
HETATM   11  C   UNL     1       9.349   5.551  92.932  1.00  0.00     0.042 A 
HETATM   12  C   UNL     1      10.335   5.522  93.916  1.00  0.00     0.008 A 
HETATM   13  C   UNL     1      11.307   4.523  93.898  1.00  0.00    -0.002 A 
BRANCH  11  14
HETATM   14  C   UNL     1       8.350   6.575  92.951  1.00  0.00    -0.059 C 
HETATM   15  C   UNL     1       7.510   7.436  92.967  1.00  0.00    -0.059 C 
BRANCH  15  16
HETATM   16  C   UNL     1       6.512   8.459  92.988  1.00  0.00     0.042 A 
HETATM   17  C   UNL     1       5.234   8.195  92.494  1.00  0.00     0.008 A 
HETATM   18  C   UNL     1       4.260   9.193  92.516  1.00  0.00     0.005 A 
HETATM   19  C   UNL     1       4.584  10.431  93.032  1.00  0.00     0.056 A 
HETATM   20  C   UNL     1       5.840  10.716  93.526  1.00  0.00     0.005 A 
HETATM   21  C   UNL     1       6.815   9.719  93.504  1.00  0.00     0.008 A 
BRANCH  19  22
HETATM   22  C   UNL     1       3.547  11.494  93.054  1.00  0.00     0.254 C 
HETATM   23  O   UNL     1       2.695  11.482  93.939  1.00  0.00    -0.268 OA
HETATM   24  N   UNL     1       3.641  12.456  92.058  1.00  0.00    -0.335 N 
HETATM   25  HN  UNL     1       4.387  12.415  91.374  1.00  0.00     0.164 HD
BRANCH  24  26
HETATM   26  C   UNL     1       2.724  13.563  91.960  1.00  0.00     0.169 C 
BRANCH  26  27
HETATM   27  C   UNL     1       3.210  14.805  92.717  1.00  0.00     0.138 C 
HETATM   28  C   UNL     1       2.402  15.070  93.983  1.00  0.00     0.034 C 
BRANCH  27  29
HETATM   29  O   UNL     1       4.583  14.642  93.070  1.00  0.00    -0.383 OA
HETATM   30  H   UNL     1       4.927  13.861  92.604  1.00  0.00     0.210 HD
ENDBRANCH  27  29
ENDBRANCH  26  27
BRANCH  26  31
HETATM   31  C   UNL     1       2.513  13.864  90.479  1.00  0.00     0.194 C 
HETATM   32  O   UNL     1       1.660  14.649  90.070  1.00  0.00    -0.289 OA
BRANCH  31  33
HETATM   33  C   UNL     1       3.353  13.131  89.676  1.00  0.00     0.053 C 
BRANCH  33  34
HETATM   34  C   UNL     1       4.376  13.853  89.044  1.00  0.00     0.220 C 
BRANCH  34  35
HETATM   35  O   UNL     1       4.823  14.676  89.865  1.00  0.00    -0.371 OA
HETATM   36  H   UNL     1       5.192  14.062  90.481  1.00  0.00     0.211 HD
ENDBRANCH  34  35
BRANCH  34  37
HETATM   37  C   UNL     1       5.384  13.038  88.502  1.00  0.00     0.185 C 
HETATM   38  O   UNL     1       5.039  13.638  87.373  1.00  0.00    -0.647 OA
BRANCH  37  39
HETATM   39  O   UNL     1       6.130  12.192  88.895  1.00  0.00    -0.774 OA
HETATM   40  H   UNL     1       5.886  11.178  88.449  1.00  0.00     0.167 HD
ENDBRANCH  37  39
ENDBRANCH  34  37
ENDBRANCH  33  34
ENDBRANCH  31  33
ENDBRANCH  26  31
ENDBRANCH  24  26
ENDBRANCH  19  22
ENDBRANCH  15  16
ENDBRANCH  11  14
ENDBRANCH   7   8
ENDBRANCH   2   7
TORSDOF 14
ENDMDL
MODEL 4
REMARK VINA RESULT:      -4.5      2.922     12.361
REMARK  14 active torsions:
REMARK  status: ('A' for Active; 'I' for Inactive)
REMARK    1  A    between atoms: O_2  and  C_18 
REMARK    2  A    between atoms: C_5  and  C_8 
REMARK    3  A    between atoms: C_5  and  O_35 
REMARK    4  A    between atoms: C_5  and  C_36 
REMARK    5  A    between atoms: N_6  and  C_11 
REMARK    6  A    between atoms: N_7  and  C_15 
REMARK       I    between atoms: N_7  and  C_24 
REMARK    7  A    between atoms: C_8  and  C_23 
REMARK    8  A    between atoms: C_11  and  C_14 
REMARK    9  A    between atoms: C_15  and  C_18 
REMARK   10  A    between atoms: C_15  and  C_23 
REMARK   11  A    between atoms: C_21  and  C_26 
REMARK   12  A    between atoms: C_24  and  C_25 
REMARK   13  A    between atoms: C_29  and  C_32 
REMARK   14  A    between atoms: C_36  and  O_39 
ROOT
HETATM    1  O   UNL     1       3.174  14.894  94.105  1.00  0.00    -0.350 OA
HETATM    2  N   UNL     1       2.639  14.810  91.311  1.00  0.00     0.147 N 
HETATM    3  C   UNL     1       1.772  14.125  92.280  1.00  0.00     0.283 C 
HETATM    4  C   UNL     1       4.012  14.884  91.829  1.00  0.00     0.283 C 
HETATM    5  C   UNL     1       1.830  14.846  93.625  1.00  0.00     0.178 C 
HETATM    6  C   UNL     1       4.018  15.585  93.183  1.00  0.00     0.178 C 
ENDROOT
BRANCH   2   7
HETATM    7  C   UNL     1       2.607  14.130  90.017  1.00  0.00     0.277 C 
BRANCH   7   8
HETATM    8  C   UNL     1       3.601  13.023  89.933  1.00  0.00     0.011 A 
HETATM    9  C   UNL     1       3.313  11.782  90.504  1.00  0.00    -0.002 A 
HETATM   10  C   UNL     1       4.243  10.746  90.427  1.00  0.00     0.008 A 
HETATM   11  C   UNL     1       5.461  10.950  89.778  1.00  0.00     0.042 A 
HETATM   12  C   UNL     1       5.750  12.188  89.208  1.00  0.00     0.008 A 
HETATM   13  C   UNL     1       4.820  13.225  89.285  1.00  0.00    -0.002 A 
BRANCH  11  14
HETATM   14  C   UNL     1       6.414   9.887  89.698  1.00  0.00    -0.059 C 
HETATM   15  C   UNL     1       7.215   8.992  89.630  1.00  0.00    -0.059 C 
BRANCH  15  16
HETATM   16  C   UNL     1       8.168   7.930  89.549  1.00  0.00     0.042 A 
HETATM   17  C   UNL     1       9.490   8.205  89.197  1.00  0.00     0.008 A 
HETATM   18  C   UNL     1      10.420   7.168  89.121  1.00  0.00     0.005 A 
HETATM   19  C   UNL     1      10.008   5.881  89.398  1.00  0.00     0.056 A 
HETATM   20  C   UNL     1       8.708   5.584  89.748  1.00  0.00     0.005 A 
HETATM   21  C   UNL     1       7.777   6.620  89.824  1.00  0.00     0.008 A 
BRANCH  19  22
HETATM   22  C   UNL     1      10.999   4.777  89.315  1.00  0.00     0.254 C 
HETATM   23  O   UNL     1      11.131   4.168  88.256  1.00  0.00    -0.268 OA
HETATM   24  N   UNL     1      11.734   4.532  90.466  1.00  0.00    -0.335 N 
HETATM   25  HN  UNL     1      11.588   5.093  91.297  1.00  0.00     0.164 HD
BRANCH  24  26
HETATM   26  C   UNL     1      12.749   3.511  90.535  1.00  0.00     0.169 C 
BRANCH  26  27
HETATM   27  C   UNL     1      14.169   4.088  90.583  1.00  0.00     0.138 C 
HETATM   28  C   UNL     1      14.587   4.495  91.992  1.00  0.00     0.034 C 
BRANCH  27  29
HETATM   29  O   UNL     1      15.095   3.122  90.087  1.00  0.00    -0.383 OA
HETATM   30  H   UNL     1      14.599   2.322  89.843  1.00  0.00     0.210 HD
ENDBRANCH  27  29
ENDBRANCH  26  27
BRANCH  26  31
HETATM   31  C   UNL     1      12.459   2.648  91.759  1.00  0.00     0.194 C 
HETATM   32  O   UNL     1      13.265   1.838  92.214  1.00  0.00    -0.289 OA
BRANCH  31  33
HETATM   33  C   UNL     1      11.196   2.859  92.256  1.00  0.00     0.053 C 
BRANCH  33  34
HETATM   34  C   UNL     1      11.101   3.768  93.318  1.00  0.00     0.220 C 
BRANCH  34  35
HETATM   35  O   UNL     1      12.246   3.933  93.781  1.00  0.00    -0.371 OA
HETATM   36  H   UNL     1      12.377   3.061  94.123  1.00  0.00     0.211 HD
ENDBRANCH  34  35
BRANCH  34  37
HETATM   37  C   UNL     1      10.490   4.983  92.963  1.00  0.00     0.185 C 
HETATM   38  O   UNL     1       9.469   4.196  92.660  1.00  0.00    -0.647 OA
BRANCH  37  39
HETATM   39  O   UNL     1      10.796   6.137  92.924  1.00  0.00    -0.774 OA
HETATM   40  H   UNL     1      11.741   6.340  93.518  1.00  0.00     0.167 HD
ENDBRANCH  37  39
ENDBRANCH  34  37
ENDBRANCH  33  34
ENDBRANCH  31  33
ENDBRANCH  26  31
ENDBRANCH  24  26
ENDBRANCH  19  22
ENDBRANCH  15  16
ENDBRANCH  11  14
ENDBRANCH   7   8
ENDBRANCH   2   7
TORSDOF 14
ENDMDL
MODEL 5
REMARK VINA RESULT:      -4.1      1.957      3.030
REMARK  14 active torsions:
REMARK  status: ('A' for Active; 'I' for Inactive)
REMARK    1  A    between atoms: O_2  and  C_18 
REMARK    2  A    between atoms: C_5  and  C_8 
REMARK    3  A    between atoms: C_5  and  O_35 
REMARK    4  A    between atoms: C_5  and  C_36 
REMARK    5  A    between atoms: N_6  and  C_11 
REMARK    6  A    between atoms: N_7  and  C_15 
REMARK       I    between atoms: N_7  and  C_24 
REMARK    7  A    between atoms: C_8  and  C_23 
REMARK    8  A    between atoms: C_11  and  C_14 
REMARK    9  A    between atoms: C_15  and  C_18 
REMARK   10  A    between atoms: C_15  and  C_23 
REMARK   11  A    between atoms: C_21  and  C_26 
REMARK   12  A    between atoms: C_24  and  C_25 
REMARK   13  A    between atoms: C_29  and  C_32 
REMARK   14  A    between atoms: C_36  and  O_39 
ROOT
HETATM    1  O   UNL     1      17.021   3.808  92.859  1.00  0.00    -0.350 OA
HETATM    2  N   UNL     1      14.923   1.895  93.056  1.00  0.00     0.147 N 
HETATM    3  C   UNL     1      15.562   2.204  91.769  1.00  0.00     0.283 C 
HETATM    4  C   UNL     1      14.981   3.066  93.941  1.00  0.00     0.283 C 
HETATM    5  C   UNL     1      16.999   2.665  92.003  1.00  0.00     0.178 C 
HETATM    6  C   UNL     1      16.429   3.507  94.123  1.00  0.00     0.178 C 
ENDROOT
BRANCH   2   7
HETATM    7  C   UNL     1      13.541   1.461  92.856  1.00  0.00     0.277 C 
BRANCH   7   8
HETATM    8  C   UNL     1      12.603   2.609  92.696  1.00  0.00     0.011 A 
HETATM    9  C   UNL     1      12.103   2.928  91.433  1.00  0.00    -0.002 A 
HETATM   10  C   UNL     1      11.227   4.002  91.281  1.00  0.00     0.008 A 
HETATM   11  C   UNL     1      10.851   4.756  92.392  1.00  0.00     0.042 A 
HETATM   12  C   UNL     1      11.350   4.438  93.654  1.00  0.00     0.008 A 
HETATM   13  C   UNL     1      12.226   3.364  93.806  1.00  0.00    -0.002 A 
BRANCH  11  14
HETATM   14  C   UNL     1       9.951   5.857  92.236  1.00  0.00    -0.059 C 
HETATM   15  C   UNL     1       9.195   6.783  92.105  1.00  0.00    -0.059 C 
BRANCH  15  16
HETATM   16  C   UNL     1       8.296   7.884  91.949  1.00  0.00     0.042 A 
HETATM   17  C   UNL     1       8.272   8.599  90.751  1.00  0.00     0.008 A 
HETATM   18  C   UNL     1       7.393   9.671  90.597  1.00  0.00     0.005 A 
HETATM   19  C   UNL     1       6.558  10.003  91.643  1.00  0.00     0.056 A 
HETATM   20  C   UNL     1       6.563   9.312  92.837  1.00  0.00     0.005 A 
HETATM   21  C   UNL     1       7.441   8.240  92.992  1.00  0.00     0.008 A 
BRANCH  19  22
HETATM   22  C   UNL     1       5.623  11.146  91.480  1.00  0.00     0.254 C 
HETATM   23  O   UNL     1       5.016  11.569  92.461  1.00  0.00    -0.268 OA
HETATM   24  N   UNL     1       5.526  11.674  90.200  1.00  0.00    -0.335 N 
HETATM   25  HN  UNL     1       6.077  11.288  89.443  1.00  0.00     0.164 HD
BRANCH  24  26
HETATM   26  C   UNL     1       4.681  12.799  89.887  1.00  0.00     0.169 C 
BRANCH  26  27
HETATM   27  C   UNL     1       5.172  13.588  88.667  1.00  0.00     0.138 C 
HETATM   28  C   UNL     1       5.027  15.095  88.851  1.00  0.00     0.034 C 
BRANCH  27  29
HETATM   29  O   UNL     1       6.543  13.281  88.420  1.00  0.00    -0.383 OA
HETATM   30  H   UNL     1       7.085  14.016  88.754  1.00  0.00     0.210 HD
ENDBRANCH  27  29
ENDBRANCH  26  27
BRANCH  26  31
HETATM   31  C   UNL     1       3.265  12.273  89.674  1.00  0.00     0.194 C 
HETATM   32  O   UNL     1       2.371  12.399  90.509  1.00  0.00    -0.289 OA
BRANCH  31  33
HETATM   33  C   UNL     1       3.129  11.619  88.474  1.00  0.00     0.053 C 
BRANCH  33  34
HETATM   34  C   UNL     1       2.990  10.226  88.550  1.00  0.00     0.220 C 
BRANCH  34  35
HETATM   35  O   UNL     1       1.925   9.918  87.983  1.00  0.00    -0.371 OA
HETATM   36  H   UNL     1       1.553  10.785  87.921  1.00  0.00     0.211 HD
ENDBRANCH  34  35
BRANCH  34  37
HETATM   37  C   UNL     1       4.093   9.524  88.032  1.00  0.00     0.185 C 
HETATM   38  O   UNL     1       3.163   8.659  87.658  1.00  0.00    -0.647 OA
BRANCH  37  39
HETATM   39  O   UNL     1       5.280   9.655  88.008  1.00  0.00    -0.774 OA
HETATM   40  H   UNL     1       5.790   8.984  88.767  1.00  0.00     0.167 HD
ENDBRANCH  37  39
ENDBRANCH  34  37
ENDBRANCH  33  34
ENDBRANCH  31  33
ENDBRANCH  26  31
ENDBRANCH  24  26
ENDBRANCH  19  22
ENDBRANCH  15  16
ENDBRANCH  11  14
ENDBRANCH   7   8
ENDBRANCH   2   7
TORSDOF 14
ENDMDL
