MODEL 1
REMARK VINA RESULT:      -7.2      0.000      0.000
REMARK  9 active torsions:
REMARK  status: ('A' for Active; 'I' for Inactive)
REMARK    1  A    between atoms: O_2  and  C_17 
REMARK    2  A    between atoms: N_5  and  C_10 
REMARK    3  A    between atoms: N_6  and  C_14 
REMARK       I    between atoms: N_6  and  C_23 
REMARK       I    between atoms: N_7  and  C_22 
REMARK    4  A    between atoms: C_10  and  C_13 
REMARK    5  A    between atoms: C_14  and  C_17 
REMARK    6  A    between atoms: C_14  and  C_22 
REMARK    7  A    between atoms: C_20  and  C_25 
REMARK    8  A    between atoms: C_23  and  C_24 
REMARK    9  A    between atoms: C_28  and  C_31 
ROOT
HETATM    1  O   UNL     1      16.586   4.178  94.124  1.00  0.00    -0.388 OA
HETATM    2  N   UNL     1      14.608   2.663  92.748  1.00  0.00     0.096 N 
HETATM    3  C   UNL     1      14.590   4.132  92.744  1.00  0.00     0.299 C 
HETATM    4  C   UNL     1      15.231   2.171  93.984  1.00  0.00     0.299 C 
HETATM    5  C   UNL     1      16.010   4.667  92.911  1.00  0.00     0.198 C 
HETATM    6  C   UNL     1      16.635   2.751  94.123  1.00  0.00     0.198 C 
ENDROOT
BRANCH   2   7
HETATM    7  C   UNL     1      13.255   2.129  92.600  1.00  0.00     0.311 C 
BRANCH   7   8
HETATM    8  C   UNL     1      12.277   3.169  92.170  1.00  0.00    -0.030 A 
HETATM    9  C   UNL     1      12.036   3.380  90.812  1.00  0.00     0.010 A 
HETATM   10  C   UNL     1      11.123   4.354  90.409  1.00  0.00     0.021 A 
HETATM   11  C   UNL     1      10.450   5.115  91.364  1.00  0.00     0.018 A 
HETATM   12  C   UNL     1      10.690   4.905  92.721  1.00  0.00     0.021 A 
HETATM   13  C   UNL     1      11.603   3.931  93.124  1.00  0.00     0.010 A 
BRANCH  11  14
HETATM   14  C   UNL     1       9.512   6.113  90.951  1.00  0.00    -0.061 C 
HETATM   15  C   UNL     1       8.724   6.951  90.602  1.00  0.00    -0.061 C 
BRANCH  15  16
HETATM   16  C   UNL     1       7.786   7.948  90.189  1.00  0.00     0.018 A 
HETATM   17  C   UNL     1       6.440   7.614  90.030  1.00  0.00     0.022 A 
HETATM   18  C   UNL     1       5.525   8.588  89.629  1.00  0.00     0.018 A 
HETATM   19  C   UNL     1       5.974   9.871  89.398  1.00  0.00     0.032 A 
HETATM   20  C   UNL     1       7.299  10.225  89.547  1.00  0.00     0.018 A 
HETATM   21  C   UNL     1       8.215   9.253  89.948  1.00  0.00     0.022 A 
BRANCH  19  22
HETATM   22  C   UNL     1       4.999  10.906  88.969  1.00  0.00     0.252 C 
HETATM   23  O   UNL     1       4.298  10.698  87.981  1.00  0.00    -0.268 OA
HETATM   24  N   UNL     1       4.940  12.048  89.755  1.00  0.00    -0.342 N 
HETATM   25  H   UNL     1       5.532  12.140  90.572  1.00  0.00     0.163 HD
BRANCH  24  26
HETATM   26  C   UNL     1       4.028  13.131  89.484  1.00  0.00     0.199 C 
BRANCH  26  27
HETATM   27  C   UNL     1       3.431  13.739  90.759  1.00  0.00     0.145 C 
HETATM   28  C   UNL     1       2.477  12.786  91.469  1.00  0.00     0.042 C 
BRANCH  27  29
HETATM   29  O   UNL     1       4.483  14.094  91.656  1.00  0.00    -0.393 OA
HETATM   30  H   UNL     1       5.195  14.512  91.142  1.00  0.00     0.210 HD
ENDBRANCH  27  29
ENDBRANCH  26  27
BRANCH  26  31
HETATM   31  C   UNL     1       4.779  14.179  88.669  1.00  0.00     0.220 C 
HETATM   32  O   UNL     1       5.067  15.290  89.110  1.00  0.00    -0.278 OA
HETATM   33  N   UNL     1       5.053  13.747  87.394  1.00  0.00    -0.271 NA
HETATM   34  H   UNL     1       4.753  12.876  86.971  1.00  0.00     0.127 HD
HETATM   35  H   UNL     1       4.470  14.166  86.187  1.00  0.00     0.127 HD
ENDBRANCH  26  31
ENDBRANCH  24  26
ENDBRANCH  19  22
ENDBRANCH  15  16
ENDBRANCH  11  14
ENDBRANCH   7   8
ENDBRANCH   2   7
TORSDOF 9
ENDMDL
