MODEL 1
REMARK VINA RESULT:      -7.0      0.000      0.000
REMARK  10 active torsions:
REMARK  status: ('A' for Active; 'I' for Inactive)
REMARK    1  A    between atoms: O_2  and  C_18 
REMARK    2  A    between atoms: O_5  and  N_8 
REMARK    3  A    between atoms: N_6  and  C_11 
REMARK    4  A    between atoms: N_7  and  C_15 
REMARK       I    between atoms: N_7  and  C_24 
REMARK       I    between atoms: N_8  and  C_23 
REMARK    5  A    between atoms: C_11  and  C_14 
REMARK    6  A    between atoms: C_15  and  C_18 
REMARK    7  A    between atoms: C_15  and  C_23 
REMARK    8  A    between atoms: C_21  and  C_26 
REMARK    9  A    between atoms: C_24  and  C_25 
REMARK   10  A    between atoms: C_29  and  C_32 
ROOT
HETATM    1  O   UNK     0      16.552   4.347  94.059  0.00  0.00    -0.388 OA
HETATM    2  N   UNK     0      14.733   2.587  92.755  0.00  0.00     0.096 N 
HETATM    3  C   UNK     0      14.572   4.047  92.686  0.00  0.00     0.299 C 
HETATM    4  C   UNK     0      15.398   2.213  94.010  0.00  0.00     0.299 C 
HETATM    5  C   UNK     0      15.934   4.723  92.827  0.00  0.00     0.198 C 
HETATM    6  C   UNK     0      16.739   2.932  94.120  0.00  0.00     0.198 C 
ENDROOT
BRANCH   2   7
HETATM    7  C   UNK     0      13.439   1.918  92.634  0.00  0.00     0.311 C 
BRANCH   7   8
HETATM    8  C   UNK     0      12.336   2.868  92.308  0.00  0.00    -0.030 A 
HETATM    9  C   UNK     0      11.809   3.690  93.305  0.00  0.00     0.010 A 
HETATM   10  C   UNK     0      10.776   4.578  93.002  0.00  0.00     0.021 A 
HETATM   11  C   UNK     0      10.273   4.644  91.703  0.00  0.00     0.018 A 
HETATM   12  C   UNK     0      10.800   3.823  90.707  0.00  0.00     0.021 A 
HETATM   13  C   UNK     0      11.832   2.935  91.010  0.00  0.00     0.010 A 
BRANCH  11  14
HETATM   14  C   UNK     0       9.216   5.556  91.392  0.00  0.00    -0.061 C 
HETATM   15  C   UNK     0       8.326   6.322  91.131  0.00  0.00    -0.061 C 
BRANCH  15  16
HETATM   16  C   UNK     0       7.269   7.231  90.820  0.00  0.00     0.018 A 
HETATM   17  C   UNK     0       6.232   7.432  91.731  0.00  0.00     0.022 A 
HETATM   18  C   UNK     0       5.201   8.321  91.429  0.00  0.00     0.018 A 
HETATM   19  C   UNK     0       5.230   8.991  90.223  0.00  0.00     0.032 A 
HETATM   20  C   UNK     0       6.244   8.810  89.306  0.00  0.00     0.018 A 
HETATM   21  C   UNK     0       7.274   7.920  89.607  0.00  0.00     0.022 A 
BRANCH  19  22
HETATM   22  C   UNK     0       4.131   9.937  89.901  0.00  0.00     0.252 C 
HETATM   23  O   UNK     0       3.073   9.498  89.456  0.00  0.00    -0.268 OA
HETATM   24  N   UNK     0       4.386  11.277  90.158  0.00  0.00    -0.341 N 
HETATM   25  H   UNK     0       5.276  11.563  90.550  0.00  0.00     0.163 HD
BRANCH  24  26
HETATM   26  C   UNK     0       3.412  12.311  89.921  0.00  0.00     0.207 C 
BRANCH  26  27
HETATM   27  C   UNK     0       2.979  13.025  91.208  0.00  0.00     0.146 C 
HETATM   28  C   UNK     0       2.107  12.147  92.098  0.00  0.00     0.042 C 
BRANCH  27  29
HETATM   29  O   UNK     0       4.135  13.426  91.944  0.00  0.00    -0.393 OA
HETATM   30  H   UNK     0       4.886  12.881  91.652  0.00  0.00     0.210 HD
ENDBRANCH  27  29
ENDBRANCH  26  27
BRANCH  26  31
HETATM   31  C   UNK     0       4.009  13.292  88.917  0.00  0.00     0.266 C 
HETATM   32  O   UNK     0       4.185  14.483  89.168  0.00  0.00    -0.269 OA
HETATM   33  N   UNK     0       4.281  12.696  87.709  0.00  0.00    -0.236 N 
HETATM   34  H   UNK     0       4.067  11.743  87.441  0.00  0.00     0.197 HD
BRANCH  33  35
HETATM   35  O   UNK     0       4.798  13.540  86.716  0.00  0.00    -0.287 OA
HETATM   36  H   UNK     0       4.222  13.303  85.969  0.00  0.00     0.244 HD
ENDBRANCH  33  35
ENDBRANCH  26  31
ENDBRANCH  24  26
ENDBRANCH  19  22
ENDBRANCH  15  16
ENDBRANCH  11  14
ENDBRANCH   7   8
ENDBRANCH   2   7
TORSDOF 10
ENDMDL
