MODEL 1
REMARK VINA RESULT:      -6.9      0.000      0.000
REMARK  10 active torsions:
REMARK  status: ('A' for Active; 'I' for Inactive)
REMARK    1  A    between atoms: O_2  and  C_18 
REMARK    2  A    between atoms: O_5  and  N_8 
REMARK    3  A    between atoms: N_6  and  C_11 
REMARK    4  A    between atoms: N_7  and  C_15 
REMARK       I    between atoms: N_7  and  C_24 
REMARK       I    between atoms: N_8  and  C_23 
REMARK    5  A    between atoms: C_11  and  C_14 
REMARK    6  A    between atoms: C_15  and  C_18 
REMARK    7  A    between atoms: C_15  and  C_23 
REMARK    8  A    between atoms: C_21  and  C_26 
REMARK    9  A    between atoms: C_24  and  C_25 
REMARK   10  A    between atoms: C_29  and  C_32 
ROOT
HETATM    1  O   UNK     0      16.457   4.398  94.060  0.00  0.00    -0.388 OA
HETATM    2  N   UNK     0      14.748   2.604  92.660  0.00  0.00     0.096 N 
HETATM    3  C   UNK     0      14.551   4.059  92.596  0.00  0.00     0.299 C 
HETATM    4  C   UNK     0      15.365   2.235  93.940  0.00  0.00     0.299 C 
HETATM    5  C   UNK     0      15.886   4.770  92.804  0.00  0.00     0.198 C 
HETATM    6  C   UNK     0      16.680   2.989  94.118  0.00  0.00     0.198 C 
ENDROOT
BRANCH   2   7
HETATM    7  C   UNK     0      13.479   1.901  92.473  0.00  0.00     0.311 C 
BRANCH   7   8
HETATM    8  C   UNK     0      12.349   2.834  92.199  0.00  0.00    -0.030 A 
HETATM    9  C   UNK     0      11.801   2.906  90.918  0.00  0.00     0.010 A 
HETATM   10  C   UNK     0      10.744   3.780  90.659  0.00  0.00     0.021 A 
HETATM   11  C   UNK     0      10.236   4.579  91.683  0.00  0.00     0.018 A 
HETATM   12  C   UNK     0      10.782   4.507  92.963  0.00  0.00     0.021 A 
HETATM   13  C   UNK     0      11.839   3.634  93.221  0.00  0.00     0.010 A 
BRANCH  11  14
HETATM   14  C   UNK     0       9.151   5.473  91.419  0.00  0.00    -0.061 C 
HETATM   15  C   UNK     0       8.239   6.225  91.196  0.00  0.00    -0.061 C 
BRANCH  15  16
HETATM   16  C   UNK     0       7.156   7.118  90.931  0.00  0.00     0.018 A 
HETATM   17  C   UNK     0       5.866   6.793  91.354  0.00  0.00     0.022 A 
HETATM   18  C   UNK     0       4.808   7.665  91.097  0.00  0.00     0.018 A 
HETATM   19  C   UNK     0       5.063   8.842  90.424  0.00  0.00     0.032 A 
HETATM   20  C   UNK     0       6.328   9.186  89.995  0.00  0.00     0.018 A 
HETATM   21  C   UNK     0       7.386   8.314  90.252  0.00  0.00     0.022 A 
BRANCH  19  22
HETATM   22  C   UNK     0       3.935   9.770  90.149  0.00  0.00     0.252 C 
HETATM   23  O   UNK     0       2.821   9.307  89.918  0.00  0.00    -0.268 OA
HETATM   24  N   UNK     0       4.236  11.124  90.200  0.00  0.00    -0.341 N 
HETATM   25  H   UNK     0       5.175  11.433  90.422  0.00  0.00     0.163 HD
BRANCH  24  26
HETATM   26  C   UNK     0       3.245  12.147  89.981  0.00  0.00     0.207 C 
BRANCH  26  27
HETATM   27  C   UNK     0       2.804  12.835  91.279  0.00  0.00     0.146 C 
HETATM   28  C   UNK     0       2.091  11.882  92.231  0.00  0.00     0.042 C 
BRANCH  27  29
HETATM   29  O   UNK     0       3.945  13.383  91.939  0.00  0.00    -0.393 OA
HETATM   30  H   UNK     0       4.715  12.829  91.728  0.00  0.00     0.210 HD
ENDBRANCH  27  29
ENDBRANCH  26  27
BRANCH  26  31
HETATM   31  C   UNK     0       3.825  13.151  88.990  0.00  0.00     0.266 C 
HETATM   32  O   UNK     0       3.823  14.365  89.188  0.00  0.00    -0.269 OA
HETATM   33  N   UNK     0       4.303  12.543  87.854  0.00  0.00    -0.236 N 
HETATM   34  H   UNK     0       4.240  11.559  87.620  0.00  0.00     0.197 HD
BRANCH  33  35
HETATM   35  O   UNK     0       4.820  13.402  86.874  0.00  0.00    -0.287 OA
HETATM   36  H   UNK     0       5.743  13.472  87.172  0.00  0.00     0.244 HD
ENDBRANCH  33  35
ENDBRANCH  26  31
ENDBRANCH  24  26
ENDBRANCH  19  22
ENDBRANCH  15  16
ENDBRANCH  11  14
ENDBRANCH   7   8
ENDBRANCH   2   7
TORSDOF 10
ENDMDL
MODEL 2
REMARK VINA RESULT:      -6.7      1.400      2.083
REMARK  10 active torsions:
REMARK  status: ('A' for Active; 'I' for Inactive)
REMARK    1  A    between atoms: O_2  and  C_18 
REMARK    2  A    between atoms: O_5  and  N_8 
REMARK    3  A    between atoms: N_6  and  C_11 
REMARK    4  A    between atoms: N_7  and  C_15 
REMARK       I    between atoms: N_7  and  C_24 
REMARK       I    between atoms: N_8  and  C_23 
REMARK    5  A    between atoms: C_11  and  C_14 
REMARK    6  A    between atoms: C_15  and  C_18 
REMARK    7  A    between atoms: C_15  and  C_23 
REMARK    8  A    between atoms: C_21  and  C_26 
REMARK    9  A    between atoms: C_24  and  C_25 
REMARK   10  A    between atoms: C_29  and  C_32 
ROOT
HETATM    1  O   UNK     0      16.740   3.538  93.829  0.00  0.00    -0.388 OA
HETATM    2  N   UNK     0      14.117   2.920  92.911  0.00  0.00     0.096 N 
HETATM    3  C   UNK     0      15.152   1.884  93.032  0.00  0.00     0.299 C 
HETATM    4  C   UNK     0      14.738   4.223  92.640  0.00  0.00     0.299 C 
HETATM    5  C   UNK     0      16.147   2.272  94.124  0.00  0.00     0.198 C 
HETATM    6  C   UNK     0      15.742   4.556  93.740  0.00  0.00     0.198 C 
ENDROOT
BRANCH   2   7
HETATM    7  C   UNK     0      13.158   2.573  91.863  0.00  0.00     0.311 C 
BRANCH   7   8
HETATM    8  C   UNK     0      12.052   3.567  91.755  0.00  0.00    -0.030 A 
HETATM    9  C   UNK     0      11.459   4.078  92.910  0.00  0.00     0.010 A 
HETATM   10  C   UNK     0      10.423   5.006  92.810  0.00  0.00     0.021 A 
HETATM   11  C   UNK     0       9.981   5.423  91.555  0.00  0.00     0.018 A 
HETATM   12  C   UNK     0      10.572   4.913  90.400  0.00  0.00     0.021 A 
HETATM   13  C   UNK     0      11.608   3.985  90.500  0.00  0.00     0.010 A 
BRANCH  11  14
HETATM   14  C   UNK     0       8.919   6.376  91.452  0.00  0.00    -0.061 C 
HETATM   15  C   UNK     0       8.026   7.177  91.365  0.00  0.00    -0.061 C 
BRANCH  15  16
HETATM   16  C   UNK     0       6.966   8.130  91.262  0.00  0.00     0.018 A 
HETATM   17  C   UNK     0       7.259   9.493  91.201  0.00  0.00     0.022 A 
HETATM   18  C   UNK     0       6.224  10.423  91.098  0.00  0.00     0.018 A 
HETATM   19  C   UNK     0       4.922   9.971  91.057  0.00  0.00     0.032 A 
HETATM   20  C   UNK     0       4.607   8.629  91.115  0.00  0.00     0.018 A 
HETATM   21  C   UNK     0       5.641   7.699  91.219  0.00  0.00     0.022 A 
BRANCH  19  22
HETATM   22  C   UNK     0       3.821  10.962  90.949  0.00  0.00     0.252 C 
HETATM   23  O   UNK     0       2.808  10.667  90.320  0.00  0.00    -0.268 OA
HETATM   24  N   UNK     0       4.021  12.168  91.607  0.00  0.00    -0.341 N 
HETATM   25  H   UNK     0       4.874  12.332  92.129  0.00  0.00     0.163 HD
BRANCH  24  26
HETATM   26  C   UNK     0       3.036  13.220  91.616  0.00  0.00     0.207 C 
BRANCH  26  27
HETATM   27  C   UNK     0       3.043  14.027  92.920  0.00  0.00     0.146 C 
HETATM   28  C   UNK     0       4.011  13.462  93.953  0.00  0.00     0.042 C 
BRANCH  27  29
HETATM   29  O   UNK     0       3.401  15.381  92.641  0.00  0.00    -0.393 OA
HETATM   30  H   UNK     0       2.982  15.950  93.309  0.00  0.00     0.210 HD
ENDBRANCH  27  29
ENDBRANCH  26  27
BRANCH  26  31
HETATM   31  C   UNK     0       3.299  14.114  90.408  0.00  0.00     0.266 C 
HETATM   32  O   UNK     0       2.425  14.419  89.599  0.00  0.00    -0.269 OA
HETATM   33  N   UNK     0       4.616  14.494  90.320  0.00  0.00    -0.236 N 
HETATM   34  H   UNK     0       5.377  14.189  90.917  0.00  0.00     0.197 HD
BRANCH  33  35
HETATM   35  O   UNK     0       4.949  15.288  89.214  0.00  0.00    -0.287 OA
HETATM   36  H   UNK     0       4.180  15.882  89.188  0.00  0.00     0.244 HD
ENDBRANCH  33  35
ENDBRANCH  26  31
ENDBRANCH  24  26
ENDBRANCH  19  22
ENDBRANCH  15  16
ENDBRANCH  11  14
ENDBRANCH   7   8
ENDBRANCH   2   7
TORSDOF 10
ENDMDL
MODEL 3
REMARK VINA RESULT:      -6.3      1.784      2.247
REMARK  10 active torsions:
REMARK  status: ('A' for Active; 'I' for Inactive)
REMARK    1  A    between atoms: O_2  and  C_18 
REMARK    2  A    between atoms: O_5  and  N_8 
REMARK    3  A    between atoms: N_6  and  C_11 
REMARK    4  A    between atoms: N_7  and  C_15 
REMARK       I    between atoms: N_7  and  C_24 
REMARK       I    between atoms: N_8  and  C_23 
REMARK    5  A    between atoms: C_11  and  C_14 
REMARK    6  A    between atoms: C_15  and  C_18 
REMARK    7  A    between atoms: C_15  and  C_23 
REMARK    8  A    between atoms: C_21  and  C_26 
REMARK    9  A    between atoms: C_24  and  C_25 
REMARK   10  A    between atoms: C_29  and  C_32 
ROOT
HETATM    1  O   UNK     0      16.525   4.121  94.073  0.00  0.00    -0.388 OA
HETATM    2  N   UNK     0      14.575   2.671  92.591  0.00  0.00     0.096 N 
HETATM    3  C   UNK     0      14.647   4.137  92.536  0.00  0.00     0.299 C 
HETATM    4  C   UNK     0      15.066   2.191  93.890  0.00  0.00     0.299 C 
HETATM    5  C   UNK     0      16.079   4.595  92.800  0.00  0.00     0.198 C 
HETATM    6  C   UNK     0      16.487   2.694  94.124  0.00  0.00     0.198 C 
ENDROOT
BRANCH   2   7
HETATM    7  C   UNK     0      13.209   2.210  92.350  0.00  0.00     0.311 C 
BRANCH   7   8
HETATM    8  C   UNK     0      12.217   3.322  92.406  0.00  0.00    -0.030 A 
HETATM    9  C   UNK     0      11.919   3.930  93.626  0.00  0.00     0.010 A 
HETATM   10  C   UNK     0      10.990   4.969  93.679  0.00  0.00     0.021 A 
HETATM   11  C   UNK     0      10.360   5.400  92.512  0.00  0.00     0.018 A 
HETATM   12  C   UNK     0      10.657   4.794  91.293  0.00  0.00     0.021 A 
HETATM   13  C   UNK     0      11.585   3.755  91.239  0.00  0.00     0.010 A 
BRANCH  11  14
HETATM   14  C   UNK     0       9.408   6.467  92.567  0.00  0.00    -0.061 C 
HETATM   15  C   UNK     0       8.609   7.364  92.613  0.00  0.00    -0.061 C 
BRANCH  15  16
HETATM   16  C   UNK     0       7.658   8.429  92.668  0.00  0.00     0.018 A 
HETATM   17  C   UNK     0       6.331   8.198  92.304  0.00  0.00     0.022 A 
HETATM   18  C   UNK     0       5.402   9.237  92.361  0.00  0.00     0.018 A 
HETATM   19  C   UNK     0       5.820  10.483  92.780  0.00  0.00     0.032 A 
HETATM   20  C   UNK     0       7.126  10.737  93.144  0.00  0.00     0.018 A 
HETATM   21  C   UNK     0       8.055   9.699  93.088  0.00  0.00     0.022 A 
BRANCH  19  22
HETATM   22  C   UNK     0       4.831  11.590  92.838  0.00  0.00     0.252 C 
HETATM   23  O   UNK     0       4.369  11.925  93.926  0.00  0.00    -0.268 OA
HETATM   24  N   UNK     0       4.517  12.189  91.626  0.00  0.00    -0.341 N 
HETATM   25  H   UNK     0       4.958  11.875  90.769  0.00  0.00     0.163 HD
BRANCH  24  26
HETATM   26  C   UNK     0       3.594  13.291  91.521  0.00  0.00     0.207 C 
BRANCH  26  27
HETATM   27  C   UNK     0       4.083  14.547  92.254  0.00  0.00     0.146 C 
HETATM   28  C   UNK     0       4.758  15.543  91.318  0.00  0.00     0.042 C 
BRANCH  27  29
HETATM   29  O   UNK     0       2.979  15.186  92.893  0.00  0.00    -0.393 OA
HETATM   30  H   UNK     0       3.131  15.169  93.853  0.00  0.00     0.210 HD
ENDBRANCH  27  29
ENDBRANCH  26  27
BRANCH  26  31
HETATM   31  C   UNK     0       3.365  13.567  90.039  0.00  0.00     0.266 C 
HETATM   32  O   UNK     0       2.409  14.215  89.618  0.00  0.00    -0.269 OA
HETATM   33  N   UNK     0       4.322  12.980  89.247  0.00  0.00    -0.236 N 
HETATM   34  H   UNK     0       5.070  12.368  89.552  0.00  0.00     0.197 HD
BRANCH  33  35
HETATM   35  O   UNK     0       4.163  13.155  87.865  0.00  0.00    -0.287 OA
HETATM   36  H   UNK     0       3.248  13.484  87.836  0.00  0.00     0.244 HD
ENDBRANCH  33  35
ENDBRANCH  26  31
ENDBRANCH  24  26
ENDBRANCH  19  22
ENDBRANCH  15  16
ENDBRANCH  11  14
ENDBRANCH   7   8
ENDBRANCH   2   7
TORSDOF 10
ENDMDL
MODEL 4
REMARK VINA RESULT:      -6.1      1.465      2.510
REMARK  10 active torsions:
REMARK  status: ('A' for Active; 'I' for Inactive)
REMARK    1  A    between atoms: O_2  and  C_18 
REMARK    2  A    between atoms: O_5  and  N_8 
REMARK    3  A    between atoms: N_6  and  C_11 
REMARK    4  A    between atoms: N_7  and  C_15 
REMARK       I    between atoms: N_7  and  C_24 
REMARK       I    between atoms: N_8  and  C_23 
REMARK    5  A    between atoms: C_11  and  C_14 
REMARK    6  A    between atoms: C_15  and  C_18 
REMARK    7  A    between atoms: C_15  and  C_23 
REMARK    8  A    between atoms: C_21  and  C_26 
REMARK    9  A    between atoms: C_24  and  C_25 
REMARK   10  A    between atoms: C_29  and  C_32 
ROOT
HETATM    1  O   UNK     0      16.061   4.057  94.124  0.00  0.00    -0.388 OA
HETATM    2  N   UNK     0      14.334   2.660  92.343  0.00  0.00     0.096 N 
HETATM    3  C   UNK     0      14.337   4.128  92.416  0.00  0.00     0.299 C 
HETATM    4  C   UNK     0      14.723   2.091  93.640  0.00  0.00     0.299 C 
HETATM    5  C   UNK     0      15.714   4.620  92.858  0.00  0.00     0.198 C 
HETATM    6  C   UNK     0      16.090   2.631  94.053  0.00  0.00     0.198 C 
ENDROOT
BRANCH   2   7
HETATM    7  C   UNK     0      13.021   2.166  91.932  0.00  0.00     0.311 C 
BRANCH   7   8
HETATM    8  C   UNK     0      12.020   3.262  91.790  0.00  0.00    -0.030 A 
HETATM    9  C   UNK     0      11.828   3.873  90.550  0.00  0.00     0.010 A 
HETATM   10  C   UNK     0      10.894   4.900  90.417  0.00  0.00     0.021 A 
HETATM   11  C   UNK     0      10.151   5.313  91.522  0.00  0.00     0.018 A 
HETATM   12  C   UNK     0      10.342   4.703  92.760  0.00  0.00     0.021 A 
HETATM   13  C   UNK     0      11.277   3.677  92.895  0.00  0.00     0.010 A 
BRANCH  11  14
HETATM   14  C   UNK     0       9.191   6.365  91.384  0.00  0.00    -0.061 C 
HETATM   15  C   UNK     0       8.384   7.249  91.268  0.00  0.00    -0.061 C 
BRANCH  15  16
HETATM   16  C   UNK     0       7.426   8.300  91.129  0.00  0.00     0.018 A 
HETATM   17  C   UNK     0       7.622   9.300  90.177  0.00  0.00     0.022 A 
HETATM   18  C   UNK     0       6.686  10.326  90.040  0.00  0.00     0.018 A 
HETATM   19  C   UNK     0       5.575  10.327  90.857  0.00  0.00     0.032 A 
HETATM   20  C   UNK     0       5.358   9.351  91.806  0.00  0.00     0.018 A 
HETATM   21  C   UNK     0       6.294   8.326  91.944  0.00  0.00     0.022 A 
BRANCH  19  22
HETATM   22  C   UNK     0       4.579  11.421  90.711  0.00  0.00     0.252 C 
HETATM   23  O   UNK     0       3.531  11.201  90.110  0.00  0.00    -0.268 OA
HETATM   24  N   UNK     0       4.913  12.630  91.306  0.00  0.00    -0.341 N 
HETATM   25  H   UNK     0       5.787  12.730  91.809  0.00  0.00     0.163 HD
BRANCH  24  26
HETATM   26  C   UNK     0       4.042  13.777  91.273  0.00  0.00     0.207 C 
BRANCH  26  27
HETATM   27  C   UNK     0       3.870  14.352  89.861  0.00  0.00     0.146 C 
HETATM   28  C   UNK     0       5.158  14.295  89.047  0.00  0.00     0.042 C 
BRANCH  27  29
HETATM   29  O   UNK     0       2.853  13.627  89.170  0.00  0.00    -0.393 OA
HETATM   30  H   UNK     0       2.857  12.711  89.496  0.00  0.00     0.210 HD
ENDBRANCH  27  29
ENDBRANCH  26  27
BRANCH  26  31
HETATM   31  C   UNK     0       2.701  13.360  91.868  0.00  0.00     0.266 C 
HETATM   32  O   UNK     0       1.635  13.883  91.549  0.00  0.00    -0.269 OA
HETATM   33  N   UNK     0       2.837  12.374  92.815  0.00  0.00    -0.236 N 
HETATM   34  H   UNK     0       3.705  11.985  93.165  0.00  0.00     0.197 HD
BRANCH  33  35
HETATM   35  O   UNK     0       1.652  11.960  93.440  0.00  0.00    -0.287 OA
HETATM   36  H   UNK     0       2.013  11.375  94.128  0.00  0.00     0.244 HD
ENDBRANCH  33  35
ENDBRANCH  26  31
ENDBRANCH  24  26
ENDBRANCH  19  22
ENDBRANCH  15  16
ENDBRANCH  11  14
ENDBRANCH   7   8
ENDBRANCH   2   7
TORSDOF 10
ENDMDL
MODEL 5
REMARK VINA RESULT:      -5.2      2.141     12.407
REMARK  10 active torsions:
REMARK  status: ('A' for Active; 'I' for Inactive)
REMARK    1  A    between atoms: O_2  and  C_18 
REMARK    2  A    between atoms: O_5  and  N_8 
REMARK    3  A    between atoms: N_6  and  C_11 
REMARK    4  A    between atoms: N_7  and  C_15 
REMARK       I    between atoms: N_7  and  C_24 
REMARK       I    between atoms: N_8  and  C_23 
REMARK    5  A    between atoms: C_11  and  C_14 
REMARK    6  A    between atoms: C_15  and  C_18 
REMARK    7  A    between atoms: C_15  and  C_23 
REMARK    8  A    between atoms: C_21  and  C_26 
REMARK    9  A    between atoms: C_24  and  C_25 
REMARK   10  A    between atoms: C_29  and  C_32 
ROOT
HETATM    1  O   UNK     0       3.107  14.161  92.020  0.00  0.00    -0.388 OA
HETATM    2  N   UNK     0       4.086  13.931  89.357  0.00  0.00     0.096 N 
HETATM    3  C   UNK     0       2.997  13.078  89.851  0.00  0.00     0.299 C 
HETATM    4  C   UNK     0       4.965  14.318  90.468  0.00  0.00     0.299 C 
HETATM    5  C   UNK     0       2.228  13.806  90.951  0.00  0.00     0.198 C 
HETATM    6  C   UNK     0       4.152  15.016  91.554  0.00  0.00     0.198 C 
ENDROOT
BRANCH   2   7
HETATM    7  C   UNK     0       4.843  13.249  88.309  0.00  0.00     0.311 C 
BRANCH   7   8
HETATM    8  C   UNK     0       5.666  12.125  88.842  0.00  0.00    -0.030 A 
HETATM    9  C   UNK     0       5.043  10.969  89.314  0.00  0.00     0.010 A 
HETATM   10  C   UNK     0       5.811   9.918  89.815  0.00  0.00     0.021 A 
HETATM   11  C   UNK     0       7.201  10.023  89.842  0.00  0.00     0.018 A 
HETATM   12  C   UNK     0       7.824  11.177  89.371  0.00  0.00     0.021 A 
HETATM   13  C   UNK     0       7.056  12.229  88.871  0.00  0.00     0.010 A 
BRANCH  11  14
HETATM   14  C   UNK     0       7.989   8.944  90.354  0.00  0.00    -0.061 C 
HETATM   15  C   UNK     0       8.651   8.038  90.783  0.00  0.00    -0.061 C 
BRANCH  15  16
HETATM   16  C   UNK     0       9.437   6.959  91.295  0.00  0.00     0.018 A 
HETATM   17  C   UNK     0       9.971   6.011  90.422  0.00  0.00     0.022 A 
HETATM   18  C   UNK     0      10.740   4.959  90.920  0.00  0.00     0.018 A 
HETATM   19  C   UNK     0      10.959   4.880  92.280  0.00  0.00     0.032 A 
HETATM   20  C   UNK     0      10.442   5.803  93.164  0.00  0.00     0.018 A 
HETATM   21  C   UNK     0       9.672   6.855  92.666  0.00  0.00     0.022 A 
BRANCH  19  22
HETATM   22  C   UNK     0      11.776   3.758  92.811  0.00  0.00     0.252 C 
HETATM   23  O   UNK     0      11.258   2.653  92.952  0.00  0.00    -0.268 OA
HETATM   24  N   UNK     0      13.104   4.052  93.090  0.00  0.00    -0.341 N 
HETATM   25  H   UNK     0      13.468   4.983  92.924  0.00  0.00     0.163 HD
BRANCH  24  26
HETATM   26  C   UNK     0      14.029   3.066  93.587  0.00  0.00     0.207 C 
BRANCH  26  27
HETATM   27  C   UNK     0      14.153   1.849  92.661  0.00  0.00     0.146 C 
HETATM   28  C   UNK     0      15.035   2.125  91.449  0.00  0.00     0.042 C 
BRANCH  27  29
HETATM   29  O   UNK     0      14.697   0.749  93.389  0.00  0.00    -0.393 OA
HETATM   30  H   UNK     0      14.471  -0.071  92.918  0.00  0.00     0.210 HD
ENDBRANCH  27  29
ENDBRANCH  26  27
BRANCH  26  31
HETATM   31  C   UNK     0      15.377   3.750  93.786  0.00  0.00     0.266 C 
HETATM   32  O   UNK     0      16.392   3.144  94.124  0.00  0.00    -0.269 OA
HETATM   33  N   UNK     0      15.305   5.107  93.584  0.00  0.00    -0.236 N 
HETATM   34  H   UNK     0      14.470   5.649  93.394  0.00  0.00     0.197 HD
BRANCH  33  35
HETATM   35  O   UNK     0      16.497   5.818  93.786  0.00  0.00    -0.287 OA
HETATM   36  H   UNK     0      17.085   5.096  94.067  0.00  0.00     0.244 HD
ENDBRANCH  33  35
ENDBRANCH  26  31
ENDBRANCH  24  26
ENDBRANCH  19  22
ENDBRANCH  15  16
ENDBRANCH  11  14
ENDBRANCH   7   8
ENDBRANCH   2   7
TORSDOF 10
ENDMDL
MODEL 6
REMARK VINA RESULT:      -5.1      2.150     12.395
REMARK  10 active torsions:
REMARK  status: ('A' for Active; 'I' for Inactive)
REMARK    1  A    between atoms: O_2  and  C_18 
REMARK    2  A    between atoms: O_5  and  N_8 
REMARK    3  A    between atoms: N_6  and  C_11 
REMARK    4  A    between atoms: N_7  and  C_15 
REMARK       I    between atoms: N_7  and  C_24 
REMARK       I    between atoms: N_8  and  C_23 
REMARK    5  A    between atoms: C_11  and  C_14 
REMARK    6  A    between atoms: C_15  and  C_18 
REMARK    7  A    between atoms: C_15  and  C_23 
REMARK    8  A    between atoms: C_21  and  C_26 
REMARK    9  A    between atoms: C_24  and  C_25 
REMARK   10  A    between atoms: C_29  and  C_32 
ROOT
HETATM    1  O   UNK     0       5.329  15.612  90.801  0.00  0.00    -0.388 OA
HETATM    2  N   UNK     0       3.406  13.606  90.186  0.00  0.00     0.096 N 
HETATM    3  C   UNK     0       3.747  13.942  91.575  0.00  0.00     0.299 C 
HETATM    4  C   UNK     0       4.556  13.861  89.309  0.00  0.00     0.299 C 
HETATM    5  C   UNK     0       4.206  15.396  91.657  0.00  0.00     0.198 C 
HETATM    6  C   UNK     0       4.997  15.316  89.444  0.00  0.00     0.198 C 
ENDROOT
BRANCH   2   7
HETATM    7  C   UNK     0       2.974  12.213  90.083  0.00  0.00     0.311 C 
BRANCH   7   8
HETATM    8  C   UNK     0       4.103  11.254  90.248  0.00  0.00    -0.030 A 
HETATM    9  C   UNK     0       4.586  10.960  91.524  0.00  0.00     0.010 A 
HETATM   10  C   UNK     0       5.644  10.065  91.680  0.00  0.00     0.021 A 
HETATM   11  C   UNK     0       6.216   9.462  90.560  0.00  0.00     0.018 A 
HETATM   12  C   UNK     0       5.734   9.754  89.286  0.00  0.00     0.021 A 
HETATM   13  C   UNK     0       4.677  10.650  89.129  0.00  0.00     0.010 A 
BRANCH  11  14
HETATM   14  C   UNK     0       7.300   8.541  90.720  0.00  0.00    -0.061 C 
HETATM   15  C   UNK     0       8.211   7.768  90.855  0.00  0.00    -0.061 C 
BRANCH  15  16
HETATM   16  C   UNK     0       9.294   6.850  91.014  0.00  0.00     0.018 A 
HETATM   17  C   UNK     0       9.699   6.466  92.294  0.00  0.00     0.022 A 
HETATM   18  C   UNK     0      10.755   5.568  92.449  0.00  0.00     0.018 A 
HETATM   19  C   UNK     0      11.382   5.074  91.325  0.00  0.00     0.032 A 
HETATM   20  C   UNK     0      11.001   5.437  90.050  0.00  0.00     0.018 A 
HETATM   21  C   UNK     0       9.945   6.336  89.894  0.00  0.00     0.022 A 
BRANCH  19  22
HETATM   22  C   UNK     0      12.508   4.119  91.492  0.00  0.00     0.252 C 
HETATM   23  O   UNK     0      12.535   3.099  90.807  0.00  0.00    -0.268 OA
HETATM   24  N   UNK     0      13.478   4.479  92.416  0.00  0.00    -0.341 N 
HETATM   25  H   UNK     0      13.401   5.350  92.928  0.00  0.00     0.163 HD
BRANCH  24  26
HETATM   26  C   UNK     0      14.642   3.670  92.673  0.00  0.00     0.207 C 
BRANCH  26  27
HETATM   27  C   UNK     0      15.601   4.313  93.683  0.00  0.00     0.146 C 
HETATM   28  C   UNK     0      16.761   3.396  94.053  0.00  0.00     0.042 C 
BRANCH  27  29
HETATM   29  O   UNK     0      16.125   5.525  93.139  0.00  0.00    -0.393 OA
HETATM   30  H   UNK     0      15.972   5.519  92.179  0.00  0.00     0.210 HD
ENDBRANCH  27  29
ENDBRANCH  26  27
BRANCH  26  31
HETATM   31  C   UNK     0      14.164   2.304  93.156  0.00  0.00     0.266 C 
HETATM   32  O   UNK     0      13.419   2.159  94.124  0.00  0.00    -0.269 OA
HETATM   33  N   UNK     0      14.691   1.277  92.412  0.00  0.00    -0.236 N 
HETATM   34  H   UNK     0      15.374   1.355  91.668  0.00  0.00     0.197 HD
BRANCH  33  35
HETATM   35  O   UNK     0      14.330  -0.017  92.815  0.00  0.00    -0.287 OA
HETATM   36  H   UNK     0      14.644  -0.006  93.736  0.00  0.00     0.244 HD
ENDBRANCH  33  35
ENDBRANCH  26  31
ENDBRANCH  24  26
ENDBRANCH  19  22
ENDBRANCH  15  16
ENDBRANCH  11  14
ENDBRANCH   7   8
ENDBRANCH   2   7
TORSDOF 10
ENDMDL
MODEL 7
REMARK VINA RESULT:      -4.8      2.106     12.411
REMARK  10 active torsions:
REMARK  status: ('A' for Active; 'I' for Inactive)
REMARK    1  A    between atoms: O_2  and  C_18 
REMARK    2  A    between atoms: O_5  and  N_8 
REMARK    3  A    between atoms: N_6  and  C_11 
REMARK    4  A    between atoms: N_7  and  C_15 
REMARK       I    between atoms: N_7  and  C_24 
REMARK       I    between atoms: N_8  and  C_23 
REMARK    5  A    between atoms: C_11  and  C_14 
REMARK    6  A    between atoms: C_15  and  C_18 
REMARK    7  A    between atoms: C_15  and  C_23 
REMARK    8  A    between atoms: C_21  and  C_26 
REMARK    9  A    between atoms: C_24  and  C_25 
REMARK   10  A    between atoms: C_29  and  C_32 
ROOT
HETATM    1  O   UNK     0       5.394  14.776  88.884  0.00  0.00    -0.388 OA
HETATM    2  N   UNK     0       3.480  13.401  90.480  0.00  0.00     0.096 N 
HETATM    3  C   UNK     0       4.276  14.511  91.022  0.00  0.00     0.299 C 
HETATM    4  C   UNK     0       4.228  12.716  89.418  0.00  0.00     0.299 C 
HETATM    5  C   UNK     0       4.661  15.468  89.897  0.00  0.00     0.198 C 
HETATM    6  C   UNK     0       4.615  13.715  88.331  0.00  0.00     0.198 C 
ENDROOT
BRANCH   2   7
HETATM    7  C   UNK     0       3.108  12.465  91.540  0.00  0.00     0.311 C 
BRANCH   7   8
HETATM    8  C   UNK     0       4.128  11.395  91.736  0.00  0.00    -0.030 A 
HETATM    9  C   UNK     0       4.147  10.287  90.888  0.00  0.00     0.010 A 
HETATM   10  C   UNK     0       5.099   9.285  91.072  0.00  0.00     0.021 A 
HETATM   11  C   UNK     0       6.033   9.392  92.103  0.00  0.00     0.018 A 
HETATM   12  C   UNK     0       6.015  10.498  92.950  0.00  0.00     0.021 A 
HETATM   13  C   UNK     0       5.062  11.500  92.767  0.00  0.00     0.010 A 
BRANCH  11  14
HETATM   14  C   UNK     0       7.011   8.365  92.290  0.00  0.00    -0.061 C 
HETATM   15  C   UNK     0       7.833   7.502  92.447  0.00  0.00    -0.061 C 
BRANCH  15  16
HETATM   16  C   UNK     0       8.810   6.475  92.633  0.00  0.00     0.018 A 
HETATM   17  C   UNK     0       8.852   5.387  91.760  0.00  0.00     0.022 A 
HETATM   18  C   UNK     0       9.806   4.386  91.939  0.00  0.00     0.018 A 
HETATM   19  C   UNK     0      10.698   4.495  92.986  0.00  0.00     0.032 A 
HETATM   20  C   UNK     0      10.677   5.560  93.863  0.00  0.00     0.018 A 
HETATM   21  C   UNK     0       9.722   6.561  93.684  0.00  0.00     0.022 A 
BRANCH  19  22
HETATM   22  C   UNK     0      11.713   3.428  93.178  0.00  0.00     0.252 C 
HETATM   23  O   UNK     0      11.385   2.254  93.025  0.00  0.00    -0.268 OA
HETATM   24  N   UNK     0      12.993   3.857  93.501  0.00  0.00    -0.341 N 
HETATM   25  H   UNK     0      13.196   4.846  93.586  0.00  0.00     0.163 HD
BRANCH  24  26
HETATM   26  C   UNK     0      14.091   2.944  93.695  0.00  0.00     0.207 C 
BRANCH  26  27
HETATM   27  C   UNK     0      14.240   1.942  92.543  0.00  0.00     0.146 C 
HETATM   28  C   UNK     0      15.308   2.361  91.539  0.00  0.00     0.042 C 
BRANCH  27  29
HETATM   29  O   UNK     0      14.577   0.658  93.069  0.00  0.00    -0.393 OA
HETATM   30  H   UNK     0      15.540   0.544  93.002  0.00  0.00     0.210 HD
ENDBRANCH  27  29
ENDBRANCH  26  27
BRANCH  26  31
HETATM   31  C   UNK     0      15.359   3.773  93.876  0.00  0.00     0.266 C 
HETATM   32  O   UNK     0      15.360   5.003  93.880  0.00  0.00    -0.269 OA
HETATM   33  N   UNK     0      16.480   2.988  93.992  0.00  0.00    -0.236 N 
HETATM   34  H   UNK     0      16.526   1.979  93.904  0.00  0.00     0.197 HD
BRANCH  33  35
HETATM   35  O   UNK     0      17.695   3.675  94.124  0.00  0.00    -0.287 OA
HETATM   36  H   UNK     0      17.488   4.253  94.878  0.00  0.00     0.244 HD
ENDBRANCH  33  35
ENDBRANCH  26  31
ENDBRANCH  24  26
ENDBRANCH  19  22
ENDBRANCH  15  16
ENDBRANCH  11  14
ENDBRANCH   7   8
ENDBRANCH   2   7
TORSDOF 10
ENDMDL
MODEL 8
REMARK VINA RESULT:      -4.3      1.657      2.293
REMARK  10 active torsions:
REMARK  status: ('A' for Active; 'I' for Inactive)
REMARK    1  A    between atoms: O_2  and  C_18 
REMARK    2  A    between atoms: O_5  and  N_8 
REMARK    3  A    between atoms: N_6  and  C_11 
REMARK    4  A    between atoms: N_7  and  C_15 
REMARK       I    between atoms: N_7  and  C_24 
REMARK       I    between atoms: N_8  and  C_23 
REMARK    5  A    between atoms: C_11  and  C_14 
REMARK    6  A    between atoms: C_15  and  C_18 
REMARK    7  A    between atoms: C_15  and  C_23 
REMARK    8  A    between atoms: C_21  and  C_26 
REMARK    9  A    between atoms: C_24  and  C_25 
REMARK   10  A    between atoms: C_29  and  C_32 
ROOT
HETATM    1  O   UNK     0      17.708   4.794  93.462  0.00  0.00    -0.388 OA
HETATM    2  N   UNK     0      15.483   3.115  94.039  0.00  0.00     0.096 N 
HETATM    3  C   UNK     0      16.688   2.593  93.380  0.00  0.00     0.299 C 
HETATM    4  C   UNK     0      15.309   4.538  93.715  0.00  0.00     0.299 C 
HETATM    5  C   UNK     0      17.903   3.418  93.797  0.00  0.00     0.198 C 
HETATM    6  C   UNK     0      16.555   5.317  94.123  0.00  0.00     0.198 C 
ENDROOT
BRANCH   2   7
HETATM    7  C   UNK     0      14.304   2.346  93.645  0.00  0.00     0.311 C 
BRANCH   7   8
HETATM    8  C   UNK     0      13.184   3.216  93.185  0.00  0.00    -0.030 A 
HETATM    9  C   UNK     0      13.060   3.533  91.832  0.00  0.00     0.010 A 
HETATM   10  C   UNK     0      12.014   4.350  91.400  0.00  0.00     0.021 A 
HETATM   11  C   UNK     0      11.093   4.846  92.322  0.00  0.00     0.018 A 
HETATM   12  C   UNK     0      11.216   4.530  93.673  0.00  0.00     0.021 A 
HETATM   13  C   UNK     0      12.262   3.715  94.105  0.00  0.00     0.010 A 
BRANCH  11  14
HETATM   14  C   UNK     0      10.020   5.682  91.879  0.00  0.00    -0.061 C 
HETATM   15  C   UNK     0       9.118   6.385  91.506  0.00  0.00    -0.061 C 
BRANCH  15  16
HETATM   16  C   UNK     0       8.045   7.219  91.065  0.00  0.00     0.018 A 
HETATM   17  C   UNK     0       6.930   6.651  90.447  0.00  0.00     0.022 A 
HETATM   18  C   UNK     0       5.881   7.465  90.018  0.00  0.00     0.018 A 
HETATM   19  C   UNK     0       5.970   8.827  90.216  0.00  0.00     0.032 A 
HETATM   20  C   UNK     0       7.061   9.412  90.824  0.00  0.00     0.018 A 
HETATM   21  C   UNK     0       8.110   8.599  91.252  0.00  0.00     0.022 A 
BRANCH  19  22
HETATM   22  C   UNK     0       4.854   9.693  89.757  0.00  0.00     0.252 C 
HETATM   23  O   UNK     0       4.313  10.450  90.559  0.00  0.00    -0.268 OA
HETATM   24  N   UNK     0       4.519   9.592  88.414  0.00  0.00    -0.341 N 
HETATM   25  H   UNK     0       5.027   8.962  87.805  0.00  0.00     0.163 HD
BRANCH  24  26
HETATM   26  C   UNK     0       3.475  10.384  87.813  0.00  0.00     0.207 C 
BRANCH  26  27
HETATM   27  C   UNK     0       2.075   9.984  88.295  0.00  0.00     0.146 C 
HETATM   28  C   UNK     0       1.376   9.031  87.332  0.00  0.00     0.042 C 
BRANCH  27  29
HETATM   29  O   UNK     0       2.170   9.362  89.576  0.00  0.00    -0.393 OA
HETATM   30  H   UNK     0       1.350   8.866  89.736  0.00  0.00     0.210 HD
ENDBRANCH  27  29
ENDBRANCH  26  27
BRANCH  26  31
HETATM   31  C   UNK     0       3.769  11.849  88.118  0.00  0.00     0.266 C 
HETATM   32  O   UNK     0       4.765  12.434  87.696  0.00  0.00    -0.269 OA
HETATM   33  N   UNK     0       2.820  12.409  88.938  0.00  0.00    -0.236 N 
HETATM   34  H   UNK     0       2.038  11.934  89.374  0.00  0.00     0.197 HD
BRANCH  33  35
HETATM   35  O   UNK     0       3.037  13.747  89.297  0.00  0.00    -0.287 OA
HETATM   36  H   UNK     0       3.979  13.714  89.533  0.00  0.00     0.244 HD
ENDBRANCH  33  35
ENDBRANCH  26  31
ENDBRANCH  24  26
ENDBRANCH  19  22
ENDBRANCH  15  16
ENDBRANCH  11  14
ENDBRANCH   7   8
ENDBRANCH   2   7
TORSDOF 10
ENDMDL
MODEL 9
REMARK VINA RESULT:      -4.0      2.269     12.461
REMARK  10 active torsions:
REMARK  status: ('A' for Active; 'I' for Inactive)
REMARK    1  A    between atoms: O_2  and  C_18 
REMARK    2  A    between atoms: O_5  and  N_8 
REMARK    3  A    between atoms: N_6  and  C_11 
REMARK    4  A    between atoms: N_7  and  C_15 
REMARK       I    between atoms: N_7  and  C_24 
REMARK       I    between atoms: N_8  and  C_23 
REMARK    5  A    between atoms: C_11  and  C_14 
REMARK    6  A    between atoms: C_15  and  C_18 
REMARK    7  A    between atoms: C_15  and  C_23 
REMARK    8  A    between atoms: C_21  and  C_26 
REMARK    9  A    between atoms: C_24  and  C_25 
REMARK   10  A    between atoms: C_29  and  C_32 
ROOT
HETATM    1  O   UNK     0       3.267  14.684  92.121  0.00  0.00    -0.388 OA
HETATM    2  N   UNK     0       1.815  12.237  92.055  0.00  0.00     0.096 N 
HETATM    3  C   UNK     0       1.962  13.009  93.296  0.00  0.00     0.299 C 
HETATM    4  C   UNK     0       2.971  12.468  91.179  0.00  0.00     0.299 C 
HETATM    5  C   UNK     0       2.132  14.490  92.967  0.00  0.00     0.198 C 
HETATM    6  C   UNK     0       3.118  13.961  90.899  0.00  0.00     0.198 C 
ENDROOT
BRANCH   2   7
HETATM    7  C   UNK     0       1.661  10.813  92.347  0.00  0.00     0.311 C 
BRANCH   7   8
HETATM    8  C   UNK     0       2.947  10.067  92.229  0.00  0.00    -0.030 A 
HETATM    9  C   UNK     0       3.057   9.007  91.327  0.00  0.00     0.010 A 
HETATM   10  C   UNK     0       4.258   8.307  91.217  0.00  0.00     0.021 A 
HETATM   11  C   UNK     0       5.349   8.668  92.007  0.00  0.00     0.018 A 
HETATM   12  C   UNK     0       5.240   9.726  92.908  0.00  0.00     0.021 A 
HETATM   13  C   UNK     0       4.039  10.426  93.019  0.00  0.00     0.010 A 
BRANCH  11  14
HETATM   14  C   UNK     0       6.582   7.951  91.893  0.00  0.00    -0.061 C 
HETATM   15  C   UNK     0       7.618   7.349  91.797  0.00  0.00    -0.061 C 
BRANCH  15  16
HETATM   16  C   UNK     0       8.849   6.632  91.682  0.00  0.00     0.018 A 
HETATM   17  C   UNK     0       9.360   6.324  90.421  0.00  0.00     0.022 A 
HETATM   18  C   UNK     0      10.563   5.626  90.308  0.00  0.00     0.018 A 
HETATM   19  C   UNK     0      11.227   5.252  91.458  0.00  0.00     0.032 A 
HETATM   20  C   UNK     0      10.743   5.544  92.716  0.00  0.00     0.018 A 
HETATM   21  C   UNK     0       9.540   6.242  92.829  0.00  0.00     0.022 A 
BRANCH  19  22
HETATM   22  C   UNK     0      12.507   4.507  91.337  0.00  0.00     0.252 C 
HETATM   23  O   UNK     0      12.860   4.097  90.235  0.00  0.00    -0.268 OA
HETATM   24  N   UNK     0      13.232   4.351  92.510  0.00  0.00    -0.341 N 
HETATM   25  H   UNK     0      12.889   4.739  93.381  0.00  0.00     0.163 HD
BRANCH  24  26
HETATM   26  C   UNK     0      14.503   3.673  92.552  0.00  0.00     0.207 C 
BRANCH  26  27
HETATM   27  C   UNK     0      15.464   4.276  93.585  0.00  0.00     0.146 C 
HETATM   28  C   UNK     0      16.661   3.375  93.865  0.00  0.00     0.042 C 
BRANCH  27  29
HETATM   29  O   UNK     0      15.934   5.540  93.118  0.00  0.00    -0.393 OA
HETATM   30  H   UNK     0      16.025   5.494  92.151  0.00  0.00     0.210 HD
ENDBRANCH  27  29
ENDBRANCH  26  27
BRANCH  26  31
HETATM   31  C   UNK     0      14.236   2.199  92.837  0.00  0.00     0.266 C 
HETATM   32  O   UNK     0      13.325   1.568  92.304  0.00  0.00    -0.269 OA
HETATM   33  N   UNK     0      15.099   1.687  93.776  0.00  0.00    -0.236 N 
HETATM   34  H   UNK     0      15.800   2.200  94.299  0.00  0.00     0.197 HD
BRANCH  33  35
HETATM   35  O   UNK     0      14.896   0.345  94.124  0.00  0.00    -0.287 OA
HETATM   36  H   UNK     0      14.936  -0.071  93.246  0.00  0.00     0.244 HD
ENDBRANCH  33  35
ENDBRANCH  26  31
ENDBRANCH  24  26
ENDBRANCH  19  22
ENDBRANCH  15  16
ENDBRANCH  11  14
ENDBRANCH   7   8
ENDBRANCH   2   7
TORSDOF 10
ENDMDL
