MODEL 1
REMARK VINA RESULT:      -6.7      0.000      0.000
REMARK  14 active torsions:
REMARK  status: ('A' for Active; 'I' for Inactive)
REMARK    1  A    between atoms: O_2  and  C_18 
REMARK    2  A    between atoms: C_5  and  C_8 
REMARK    3  A    between atoms: C_5  and  O_35 
REMARK    4  A    between atoms: C_5  and  C_36 
REMARK    5  A    between atoms: N_6  and  C_11 
REMARK    6  A    between atoms: N_7  and  C_15 
REMARK       I    between atoms: N_7  and  C_24 
REMARK    7  A    between atoms: C_8  and  C_23 
REMARK    8  A    between atoms: C_11  and  C_14 
REMARK    9  A    between atoms: C_15  and  C_18 
REMARK   10  A    between atoms: C_15  and  C_23 
REMARK   11  A    between atoms: C_21  and  C_26 
REMARK   12  A    between atoms: C_24  and  C_25 
REMARK   13  A    between atoms: C_29  and  C_32 
REMARK   14  A    between atoms: C_36  and  O_39 
ROOT
HETATM    1  O   UNL     1      15.646   4.569  93.749  1.00  0.00    -0.350 OA
HETATM    2  N   UNL     1      14.093   2.681  92.292  1.00  0.00     0.147 N 
HETATM    3  C   UNL     1      14.133   4.099  91.911  1.00  0.00     0.283 C 
HETATM    4  C   UNL     1      14.315   2.541  93.738  1.00  0.00     0.283 C 
HETATM    5  C   UNL     1      15.463   4.713  92.339  1.00  0.00     0.178 C 
HETATM    6  C   UNL     1      15.640   3.191  94.124  1.00  0.00     0.178 C 
ENDROOT
BRANCH   2   7
HETATM    7  C   UNL     1      12.821   2.075  91.901  1.00  0.00     0.277 C 
BRANCH   7   8
HETATM    8  C   UNL     1      11.720   3.076  91.808  1.00  0.00     0.011 A 
HETATM    9  C   UNL     1      11.320   3.778  92.946  1.00  0.00    -0.002 A 
HETATM   10  C   UNL     1      10.289   4.713  92.861  1.00  0.00     0.008 A 
HETATM   11  C   UNL     1       9.659   4.946  91.639  1.00  0.00     0.042 A 
HETATM   12  C   UNL     1      10.058   4.245  90.502  1.00  0.00     0.008 A 
HETATM   13  C   UNL     1      11.089   3.310  90.587  1.00  0.00    -0.002 A 
BRANCH  11  14
HETATM   14  C   UNL     1       8.602   5.907  91.551  1.00  0.00    -0.059 C 
HETATM   15  C   UNL     1       7.714   6.714  91.477  1.00  0.00    -0.059 C 
BRANCH  15  16
HETATM   16  C   UNL     1       6.658   7.673  91.390  1.00  0.00     0.042 A 
HETATM   17  C   UNL     1       5.587   7.453  90.523  1.00  0.00     0.008 A 
HETATM   18  C   UNL     1       4.555   8.387  90.439  1.00  0.00     0.005 A 
HETATM   19  C   UNL     1       4.616   9.520  91.224  1.00  0.00     0.056 A 
HETATM   20  C   UNL     1       5.664   9.761  92.088  1.00  0.00     0.005 A 
HETATM   21  C   UNL     1       6.697   8.827  92.172  1.00  0.00     0.008 A 
BRANCH  19  22
HETATM   22  C   UNL     1       3.518  10.516  91.133  1.00  0.00     0.254 C 
HETATM   23  O   UNL     1       2.528  10.257  90.454  1.00  0.00    -0.268 OA
HETATM   24  N   UNL     1       3.693  11.683  91.865  1.00  0.00    -0.335 N 
HETATM   25  HN  UNL     1       4.527  11.817  92.424  1.00  0.00     0.164 HD
BRANCH  24  26
HETATM   26  C   UNL     1       2.707  12.733  91.898  1.00  0.00     0.169 C 
BRANCH  26  27
HETATM   27  C   UNL     1       2.705  13.503  93.225  1.00  0.00     0.138 C 
HETATM   28  C   UNL     1       4.070  13.501  93.903  1.00  0.00     0.034 C 
BRANCH  27  29
HETATM   29  O   UNL     1       2.306  14.854  92.992  1.00  0.00    -0.383 OA
HETATM   30  H   UNL     1       2.056  15.249  93.844  1.00  0.00     0.210 HD
ENDBRANCH  27  29
ENDBRANCH  26  27
BRANCH  26  31
HETATM   31  C   UNL     1       2.975  13.661  90.718  1.00  0.00     0.194 C 
HETATM   32  O   UNL     1       2.092  14.319  90.170  1.00  0.00    -0.289 OA
BRANCH  31  33
HETATM   33  C   UNL     1       4.292  13.639  90.329  1.00  0.00     0.053 C 
BRANCH  33  34
HETATM   34  C   UNL     1       4.546  14.045  89.011  1.00  0.00     0.220 C 
BRANCH  34  35
HETATM   35  O   UNL     1       5.511  14.832  89.035  1.00  0.00    -0.371 OA
HETATM   36  H   UNL     1       5.821  14.688  88.154  1.00  0.00     0.211 HD
ENDBRANCH  34  35
BRANCH  34  37
HETATM   37  C   UNL     1       4.752  12.974  88.125  1.00  0.00     0.185 C 
HETATM   38  O   UNL     1       6.023  13.323  88.252  1.00  0.00    -0.647 OA
BRANCH  37  39
HETATM   39  O   UNL     1       4.076  12.189  87.531  1.00  0.00    -0.774 OA
HETATM   40  H   UNL     1       3.508  11.507  88.237  1.00  0.00     0.167 HD
ENDBRANCH  37  39
ENDBRANCH  34  37
ENDBRANCH  33  34
ENDBRANCH  31  33
ENDBRANCH  26  31
ENDBRANCH  24  26
ENDBRANCH  19  22
ENDBRANCH  15  16
ENDBRANCH  11  14
ENDBRANCH   7   8
ENDBRANCH   2   7
TORSDOF 14
ENDMDL
MODEL 2
REMARK VINA RESULT:      -6.7      1.447      2.054
REMARK  14 active torsions:
REMARK  status: ('A' for Active; 'I' for Inactive)
REMARK    1  A    between atoms: O_2  and  C_18 
REMARK    2  A    between atoms: C_5  and  C_8 
REMARK    3  A    between atoms: C_5  and  O_35 
REMARK    4  A    between atoms: C_5  and  C_36 
REMARK    5  A    between atoms: N_6  and  C_11 
REMARK    6  A    between atoms: N_7  and  C_15 
REMARK       I    between atoms: N_7  and  C_24 
REMARK    7  A    between atoms: C_8  and  C_23 
REMARK    8  A    between atoms: C_11  and  C_14 
REMARK    9  A    between atoms: C_15  and  C_18 
REMARK   10  A    between atoms: C_15  and  C_23 
REMARK   11  A    between atoms: C_21  and  C_26 
REMARK   12  A    between atoms: C_24  and  C_25 
REMARK   13  A    between atoms: C_29  and  C_32 
REMARK   14  A    between atoms: C_36  and  O_39 
ROOT
HETATM    1  O   UNL     1      16.617   4.266  94.124  1.00  0.00    -0.350 OA
HETATM    2  N   UNL     1      14.622   2.818  92.702  1.00  0.00     0.147 N 
HETATM    3  C   UNL     1      14.617   4.287  92.749  1.00  0.00     0.283 C 
HETATM    4  C   UNL     1      15.244   2.277  93.918  1.00  0.00     0.283 C 
HETATM    5  C   UNL     1      16.043   4.802  92.930  1.00  0.00     0.178 C 
HETATM    6  C   UNL     1      16.653   2.840  94.073  1.00  0.00     0.178 C 
ENDROOT
BRANCH   2   7
HETATM    7  C   UNL     1      13.264   2.301  92.539  1.00  0.00     0.277 C 
BRANCH   7   8
HETATM    8  C   UNL     1      12.237   3.381  92.577  1.00  0.00     0.011 A 
HETATM    9  C   UNL     1      11.905   3.984  93.791  1.00  0.00    -0.002 A 
HETATM   10  C   UNL     1      10.942   4.993  93.828  1.00  0.00     0.008 A 
HETATM   11  C   UNL     1      10.315   5.400  92.651  1.00  0.00     0.042 A 
HETATM   12  C   UNL     1      10.646   4.799  91.439  1.00  0.00     0.008 A 
HETATM   13  C   UNL     1      11.607   3.790  91.401  1.00  0.00    -0.002 A 
BRANCH  11  14
HETATM   14  C   UNL     1       9.329   6.437  92.689  1.00  0.00    -0.059 C 
HETATM   15  C   UNL     1       8.501   7.308  92.721  1.00  0.00    -0.059 C 
BRANCH  15  16
HETATM   16  C   UNL     1       7.515   8.343  92.759  1.00  0.00     0.042 A 
HETATM   17  C   UNL     1       7.908   9.681  92.708  1.00  0.00     0.008 A 
HETATM   18  C   UNL     1       6.947  10.690  92.742  1.00  0.00     0.005 A 
HETATM   19  C   UNL     1       5.615  10.340  92.827  1.00  0.00     0.056 A 
HETATM   20  C   UNL     1       5.202   9.026  92.880  1.00  0.00     0.005 A 
HETATM   21  C   UNL     1       6.162   8.015  92.845  1.00  0.00     0.008 A 
BRANCH  19  22
HETATM   22  C   UNL     1       4.591  11.416  92.866  1.00  0.00     0.254 C 
HETATM   23  O   UNL     1       3.894  11.545  93.869  1.00  0.00    -0.268 OA
HETATM   24  N   UNL     1       4.519  12.228  91.742  1.00  0.00    -0.335 N 
HETATM   25  HN  UNL     1       5.146  12.078  90.960  1.00  0.00     0.164 HD
BRANCH  24  26
HETATM   26  C   UNL     1       3.595  13.329  91.639  1.00  0.00     0.169 C 
BRANCH  26  27
HETATM   27  C   UNL     1       4.126  14.613  92.288  1.00  0.00     0.138 C 
HETATM   28  C   UNL     1       4.867  15.505  91.298  1.00  0.00     0.034 C 
BRANCH  27  29
HETATM   29  O   UNL     1       3.040  15.348  92.851  1.00  0.00    -0.383 OA
HETATM   30  H   UNL     1       3.388  15.905  93.568  1.00  0.00     0.210 HD
ENDBRANCH  27  29
ENDBRANCH  26  27
BRANCH  26  31
HETATM   31  C   UNL     1       3.288  13.542  90.160  1.00  0.00     0.194 C 
HETATM   32  O   UNL     1       2.379  14.268  89.763  1.00  0.00    -0.289 OA
BRANCH  31  33
HETATM   33  C   UNL     1       4.114  12.804  89.347  1.00  0.00     0.053 C 
BRANCH  33  34
HETATM   34  C   UNL     1       3.483  11.832  88.558  1.00  0.00     0.220 C 
BRANCH  34  35
HETATM   35  O   UNL     1       4.092  11.769  87.473  1.00  0.00    -0.371 OA
HETATM   36  H   UNL     1       4.160  12.696  87.304  1.00  0.00     0.211 HD
ENDBRANCH  34  35
BRANCH  34  37
HETATM   37  C   UNL     1       3.382  10.579  89.186  1.00  0.00     0.185 C 
HETATM   38  O   UNL     1       4.700  10.587  89.059  1.00  0.00    -0.647 OA
BRANCH  37  39
HETATM   39  O   UNL     1       2.508   9.867  89.581  1.00  0.00    -0.774 OA
HETATM   40  H   UNL     1       1.795   9.579  88.748  1.00  0.00     0.167 HD
ENDBRANCH  37  39
ENDBRANCH  34  37
ENDBRANCH  33  34
ENDBRANCH  31  33
ENDBRANCH  26  31
ENDBRANCH  24  26
ENDBRANCH  19  22
ENDBRANCH  15  16
ENDBRANCH  11  14
ENDBRANCH   7   8
ENDBRANCH   2   7
TORSDOF 14
ENDMDL
MODEL 3
REMARK VINA RESULT:      -4.3      1.522      1.997
REMARK  14 active torsions:
REMARK  status: ('A' for Active; 'I' for Inactive)
REMARK    1  A    between atoms: O_2  and  C_18 
REMARK    2  A    between atoms: C_5  and  C_8 
REMARK    3  A    between atoms: C_5  and  O_35 
REMARK    4  A    between atoms: C_5  and  C_36 
REMARK    5  A    between atoms: N_6  and  C_11 
REMARK    6  A    between atoms: N_7  and  C_15 
REMARK       I    between atoms: N_7  and  C_24 
REMARK    7  A    between atoms: C_8  and  C_23 
REMARK    8  A    between atoms: C_11  and  C_14 
REMARK    9  A    between atoms: C_15  and  C_18 
REMARK   10  A    between atoms: C_15  and  C_23 
REMARK   11  A    between atoms: C_21  and  C_26 
REMARK   12  A    between atoms: C_24  and  C_25 
REMARK   13  A    between atoms: C_29  and  C_32 
REMARK   14  A    between atoms: C_36  and  O_39 
ROOT
HETATM    1  O   UNL     1      15.192   3.783  90.515  1.00  0.00    -0.350 OA
HETATM    2  N   UNL     1      13.185   2.780  92.267  1.00  0.00     0.147 N 
HETATM    3  C   UNL     1      12.923   3.912  91.367  1.00  0.00     0.283 C 
HETATM    4  C   UNL     1      14.609   2.743  92.628  1.00  0.00     0.283 C 
HETATM    5  C   UNL     1      13.815   3.809  90.133  1.00  0.00     0.178 C 
HETATM    6  C   UNL     1      15.461   2.667  91.365  1.00  0.00     0.178 C 
ENDROOT
BRANCH   2   7
HETATM    7  C   UNL     1      12.348   2.865  93.462  1.00  0.00     0.277 C 
BRANCH   7   8
HETATM    8  C   UNL     1      11.211   3.815  93.294  1.00  0.00     0.011 A 
HETATM    9  C   UNL     1      10.253   3.586  92.305  1.00  0.00    -0.002 A 
HETATM   10  C   UNL     1       9.191   4.476  92.145  1.00  0.00     0.008 A 
HETATM   11  C   UNL     1       9.085   5.591  92.975  1.00  0.00     0.042 A 
HETATM   12  C   UNL     1      10.041   5.820  93.963  1.00  0.00     0.008 A 
HETATM   13  C   UNL     1      11.104   4.932  94.123  1.00  0.00    -0.002 A 
BRANCH  11  14
HETATM   14  C   UNL     1       7.994   6.502  92.812  1.00  0.00    -0.059 C 
HETATM   15  C   UNL     1       7.077   7.267  92.675  1.00  0.00    -0.059 C 
BRANCH  15  16
HETATM   16  C   UNL     1       5.986   8.177  92.513  1.00  0.00     0.042 A 
HETATM   17  C   UNL     1       6.235   9.519  92.228  1.00  0.00     0.008 A 
HETATM   18  C   UNL     1       5.170  10.406  92.067  1.00  0.00     0.005 A 
HETATM   19  C   UNL     1       3.882   9.931  92.194  1.00  0.00     0.056 A 
HETATM   20  C   UNL     1       3.609   8.609  92.475  1.00  0.00     0.005 A 
HETATM   21  C   UNL     1       4.673   7.721  92.637  1.00  0.00     0.008 A 
BRANCH  19  22
HETATM   22  C   UNL     1       2.748  10.876  92.024  1.00  0.00     0.254 C 
HETATM   23  O   UNL     1       1.600  10.439  92.008  1.00  0.00    -0.268 OA
HETATM   24  N   UNL     1       3.086  12.218  91.919  1.00  0.00    -0.335 N 
HETATM   25  HN  UNL     1       4.056  12.508  91.966  1.00  0.00     0.164 HD
BRANCH  24  26
HETATM   26  C   UNL     1       2.099  13.258  91.775  1.00  0.00     0.169 C 
BRANCH  26  27
HETATM   27  C   UNL     1       2.117  14.258  92.938  1.00  0.00     0.138 C 
HETATM   28  C   UNL     1       3.498  14.860  93.169  1.00  0.00     0.034 C 
BRANCH  27  29
HETATM   29  O   UNL     1       1.190  15.312  92.675  1.00  0.00    -0.383 OA
HETATM   30  H   UNL     1       1.107  15.852  93.479  1.00  0.00     0.210 HD
ENDBRANCH  27  29
ENDBRANCH  26  27
BRANCH  26  31
HETATM   31  C   UNL     1       2.347  13.954  90.441  1.00  0.00     0.194 C 
HETATM   32  O   UNL     1       1.488  14.618  89.862  1.00  0.00    -0.289 OA
BRANCH  31  33
HETATM   33  C   UNL     1       3.611  13.717  89.959  1.00  0.00     0.053 C 
BRANCH  33  34
HETATM   34  C   UNL     1       3.755  12.575  89.159  1.00  0.00     0.220 C 
BRANCH  34  35
HETATM   35  O   UNL     1       2.629  12.272  88.722  1.00  0.00    -0.371 OA
HETATM   36  H   UNL     1       2.135  12.421  89.514  1.00  0.00     0.211 HD
ENDBRANCH  34  35
BRANCH  34  37
HETATM   37  C   UNL     1       4.703  12.727  88.132  1.00  0.00     0.185 C 
HETATM   38  O   UNL     1       5.369  11.821  88.831  1.00  0.00    -0.647 OA
BRANCH  37  39
HETATM   39  O   UNL     1       4.829  13.395  87.150  1.00  0.00    -0.774 OA
HETATM   40  H   UNL     1       5.667  14.152  87.264  1.00  0.00     0.167 HD
ENDBRANCH  37  39
ENDBRANCH  34  37
ENDBRANCH  33  34
ENDBRANCH  31  33
ENDBRANCH  26  31
ENDBRANCH  24  26
ENDBRANCH  19  22
ENDBRANCH  15  16
ENDBRANCH  11  14
ENDBRANCH   7   8
ENDBRANCH   2   7
TORSDOF 14
ENDMDL
MODEL 4
REMARK VINA RESULT:      -3.8      2.051     12.802
REMARK  14 active torsions:
REMARK  status: ('A' for Active; 'I' for Inactive)
REMARK    1  A    between atoms: O_2  and  C_18 
REMARK    2  A    between atoms: C_5  and  C_8 
REMARK    3  A    between atoms: C_5  and  O_35 
REMARK    4  A    between atoms: C_5  and  C_36 
REMARK    5  A    between atoms: N_6  and  C_11 
REMARK    6  A    between atoms: N_7  and  C_15 
REMARK       I    between atoms: N_7  and  C_24 
REMARK    7  A    between atoms: C_8  and  C_23 
REMARK    8  A    between atoms: C_11  and  C_14 
REMARK    9  A    between atoms: C_15  and  C_18 
REMARK   10  A    between atoms: C_15  and  C_23 
REMARK   11  A    between atoms: C_21  and  C_26 
REMARK   12  A    between atoms: C_24  and  C_25 
REMARK   13  A    between atoms: C_29  and  C_32 
REMARK   14  A    between atoms: C_36  and  O_39 
ROOT
HETATM    1  O   UNL     1       3.488  15.017  90.591  1.00  0.00    -0.350 OA
HETATM    2  N   UNL     1       2.395  13.609  92.810  1.00  0.00     0.147 N 
HETATM    3  C   UNL     1       3.516  14.544  92.971  1.00  0.00     0.283 C 
HETATM    4  C   UNL     1       2.419  13.022  91.463  1.00  0.00     0.283 C 
HETATM    5  C   UNL     1       3.455  15.617  91.887  1.00  0.00     0.178 C 
HETATM    6  C   UNL     1       2.383  14.129  90.415  1.00  0.00     0.178 C 
ENDROOT
BRANCH   2   7
HETATM    7  C   UNL     1       2.440  12.565  93.833  1.00  0.00     0.277 C 
BRANCH   7   8
HETATM    8  C   UNL     1       3.446  11.510  93.523  1.00  0.00     0.011 A 
HETATM    9  C   UNL     1       3.026  10.212  93.231  1.00  0.00    -0.002 A 
HETATM   10  C   UNL     1       3.967   9.223  92.943  1.00  0.00     0.008 A 
HETATM   11  C   UNL     1       5.327   9.533  92.947  1.00  0.00     0.042 A 
HETATM   12  C   UNL     1       5.747  10.829  93.239  1.00  0.00     0.008 A 
HETATM   13  C   UNL     1       4.806  11.818  93.527  1.00  0.00    -0.002 A 
BRANCH  11  14
HETATM   14  C   UNL     1       6.291   8.519  92.650  1.00  0.00    -0.059 C 
HETATM   15  C   UNL     1       7.102   7.667  92.401  1.00  0.00    -0.059 C 
BRANCH  15  16
HETATM   16  C   UNL     1       8.065   6.653  92.104  1.00  0.00     0.042 A 
HETATM   17  C   UNL     1       9.065   6.351  93.029  1.00  0.00     0.008 A 
HETATM   18  C   UNL     1      10.003   5.360  92.740  1.00  0.00     0.005 A 
HETATM   19  C   UNL     1       9.920   4.694  91.535  1.00  0.00     0.056 A 
HETATM   20  C   UNL     1       8.942   4.974  90.605  1.00  0.00     0.005 A 
HETATM   21  C   UNL     1       8.003   5.965  90.892  1.00  0.00     0.008 A 
BRANCH  19  22
HETATM   22  C   UNL     1      10.921   3.639  91.228  1.00  0.00     0.254 C 
HETATM   23  O   UNL     1      10.680   2.824  90.340  1.00  0.00    -0.268 OA
HETATM   24  N   UNL     1      12.092   3.676  91.973  1.00  0.00    -0.335 N 
HETATM   25  HN  UNL     1      12.232   4.395  92.673  1.00  0.00     0.164 HD
BRANCH  24  26
HETATM   26  C   UNL     1      13.167   2.737  91.775  1.00  0.00     0.169 C 
BRANCH  26  27
HETATM   27  C   UNL     1      14.218   3.240  90.778  1.00  0.00     0.138 C 
HETATM   28  C   UNL     1      14.401   4.752  90.835  1.00  0.00     0.034 C 
BRANCH  27  29
HETATM   29  O   UNL     1      15.471   2.611  91.047  1.00  0.00    -0.383 OA
HETATM   30  H   UNL     1      16.179   3.182  90.705  1.00  0.00     0.210 HD
ENDBRANCH  27  29
ENDBRANCH  26  27
BRANCH  26  31
HETATM   31  C   UNL     1      13.788   2.447  93.137  1.00  0.00     0.194 C 
HETATM   32  O   UNL     1      13.769   1.334  93.659  1.00  0.00    -0.289 OA
BRANCH  31  33
HETATM   33  C   UNL     1      14.327   3.573  93.712  1.00  0.00     0.053 C 
BRANCH  33  34
HETATM   34  C   UNL     1      15.665   3.470  94.119  1.00  0.00     0.220 C 
BRANCH  34  35
HETATM   35  O   UNL     1      16.163   2.486  93.542  1.00  0.00    -0.371 OA
HETATM   36  H   UNL     1      15.784   2.627  92.687  1.00  0.00     0.211 HD
ENDBRANCH  34  35
BRANCH  34  37
HETATM   37  C   UNL     1      16.406   4.645  93.909  1.00  0.00     0.185 C 
HETATM   38  O   UNL     1      17.433   3.808  93.921  1.00  0.00    -0.647 OA
BRANCH  37  39
HETATM   39  O   UNL     1      16.184   5.815  93.819  1.00  0.00    -0.774 OA
HETATM   40  H   UNL     1      15.417   6.155  94.583  1.00  0.00     0.167 HD
ENDBRANCH  37  39
ENDBRANCH  34  37
ENDBRANCH  33  34
ENDBRANCH  31  33
ENDBRANCH  26  31
ENDBRANCH  24  26
ENDBRANCH  19  22
ENDBRANCH  15  16
ENDBRANCH  11  14
ENDBRANCH   7   8
ENDBRANCH   2   7
TORSDOF 14
ENDMDL
