MODEL 1
REMARK VINA RESULT:      -7.0      0.000      0.000
REMARK  10 active torsions:
REMARK  status: ('A' for Active; 'I' for Inactive)
REMARK    1  A    between atoms: O_2  and  C_18 
REMARK    2  A    between atoms: O_5  and  N_8 
REMARK    3  A    between atoms: N_6  and  C_11 
REMARK    4  A    between atoms: N_7  and  C_15 
REMARK       I    between atoms: N_7  and  C_24 
REMARK       I    between atoms: N_8  and  C_23 
REMARK    5  A    between atoms: C_11  and  C_14 
REMARK    6  A    between atoms: C_15  and  C_18 
REMARK    7  A    between atoms: C_15  and  C_23 
REMARK    8  A    between atoms: C_21  and  C_26 
REMARK    9  A    between atoms: C_24  and  C_25 
REMARK   10  A    between atoms: C_29  and  C_32 
ROOT
HETATM    1  O   UNK     0      16.942   4.424  94.118  0.00  0.00    -0.388 OA
HETATM    2  N   UNK     0      15.039   2.711  92.874  0.00  0.00     0.096 N 
HETATM    3  C   UNK     0      14.881   4.172  92.861  0.00  0.00     0.299 C 
HETATM    4  C   UNK     0      15.779   2.295  94.072  0.00  0.00     0.299 C 
HETATM    5  C   UNK     0      16.250   4.841  92.939  0.00  0.00     0.198 C 
HETATM    6  C   UNK     0      17.127   3.009  94.122  0.00  0.00     0.198 C 
ENDROOT
BRANCH   2   7
HETATM    7  C   UNK     0      13.738   2.049  92.811  0.00  0.00     0.311 C 
BRANCH   7   8
HETATM    8  C   UNK     0      12.642   2.984  92.428  0.00  0.00    -0.030 A 
HETATM    9  C   UNK     0      12.017   3.762  93.404  0.00  0.00     0.010 A 
HETATM   10  C   UNK     0      10.990   4.635  93.047  0.00  0.00     0.021 A 
HETATM   11  C   UNK     0      10.591   4.733  91.714  0.00  0.00     0.018 A 
HETATM   12  C   UNK     0      11.215   3.957  90.739  0.00  0.00     0.021 A 
HETATM   13  C   UNK     0      12.241   3.083  91.096  0.00  0.00     0.010 A 
BRANCH  11  14
HETATM   14  C   UNK     0       9.539   5.631  91.348  0.00  0.00    -0.061 C 
HETATM   15  C   UNK     0       8.655   6.386  91.039  0.00  0.00    -0.061 C 
BRANCH  15  16
HETATM   16  C   UNK     0       7.606   7.284  90.673  0.00  0.00     0.018 A 
HETATM   17  C   UNK     0       6.587   6.854  89.821  0.00  0.00     0.022 A 
HETATM   18  C   UNK     0       5.562   7.730  89.464  0.00  0.00     0.018 A 
HETATM   19  C   UNK     0       5.576   9.014  89.967  0.00  0.00     0.032 A 
HETATM   20  C   UNK     0       6.571   9.463  90.811  0.00  0.00     0.018 A 
HETATM   21  C   UNK     0       7.597   8.588  91.167  0.00  0.00     0.022 A 
BRANCH  19  22
HETATM   22  C   UNK     0       4.484   9.946  89.586  0.00  0.00     0.252 C 
HETATM   23  O   UNK     0       3.615   9.565  88.806  0.00  0.00    -0.268 OA
HETATM   24  N   UNK     0       4.523  11.202  90.177  0.00  0.00    -0.341 N 
HETATM   25  H   UNK     0       5.259  11.438  90.832  0.00  0.00     0.163 HD
BRANCH  24  26
HETATM   26  C   UNK     0       3.522  12.208  89.927  0.00  0.00     0.207 C 
BRANCH  26  27
HETATM   27  C   UNK     0       3.028  12.885  91.211  0.00  0.00     0.146 C 
HETATM   28  C   UNK     0       2.142  11.971  92.050  0.00  0.00     0.042 C 
BRANCH  27  29
HETATM   29  O   UNK     0       4.147  13.295  91.996  0.00  0.00    -0.393 OA
HETATM   30  H   UNK     0       4.771  12.551  92.048  0.00  0.00     0.210 HD
ENDBRANCH  27  29
ENDBRANCH  26  27
BRANCH  26  31
HETATM   31  C   UNK     0       4.115  13.224  88.956  0.00  0.00     0.266 C 
HETATM   32  O   UNK     0       4.315  14.399  89.257  0.00  0.00    -0.269 OA
HETATM   33  N   UNK     0       4.356  12.680  87.718  0.00  0.00    -0.236 N 
HETATM   34  H   UNK     0       4.121  11.743  87.411  0.00  0.00     0.197 HD
BRANCH  33  35
HETATM   35  O   UNK     0       4.868  13.560  86.754  0.00  0.00    -0.287 OA
HETATM   36  H   UNK     0       4.102  13.630  86.159  0.00  0.00     0.244 HD
ENDBRANCH  33  35
ENDBRANCH  26  31
ENDBRANCH  24  26
ENDBRANCH  19  22
ENDBRANCH  15  16
ENDBRANCH  11  14
ENDBRANCH   7   8
ENDBRANCH   2   7
TORSDOF 10
ENDMDL
