MODEL 1
REMARK VINA RESULT:      -6.7      0.000      0.000
REMARK  10 active torsions:
REMARK  status: ('A' for Active; 'I' for Inactive)
REMARK    1  A    between atoms: O_2  and  C_18 
REMARK    2  A    between atoms: O_5  and  N_8 
REMARK    3  A    between atoms: N_6  and  C_11 
REMARK    4  A    between atoms: N_7  and  C_15 
REMARK       I    between atoms: N_7  and  C_24 
REMARK       I    between atoms: N_8  and  C_23 
REMARK    5  A    between atoms: C_11  and  C_14 
REMARK    6  A    between atoms: C_15  and  C_18 
REMARK    7  A    between atoms: C_15  and  C_23 
REMARK    8  A    between atoms: C_21  and  C_26 
REMARK    9  A    between atoms: C_24  and  C_25 
REMARK   10  A    between atoms: C_29  and  C_32 
ROOT
HETATM    1  O   UNK     0      16.531   4.372  94.124  0.00  0.00    -0.388 OA
HETATM    2  N   UNK     0      14.852   2.653  92.599  0.00  0.00     0.096 N 
HETATM    3  C   UNK     0      14.663   4.110  92.596  0.00  0.00     0.299 C 
HETATM    4  C   UNK     0      15.433   2.223  93.878  0.00  0.00     0.299 C 
HETATM    5  C   UNK     0      15.995   4.804  92.872  0.00  0.00     0.198 C 
HETATM    6  C   UNK     0      16.746   2.961  94.124  0.00  0.00     0.198 C 
ENDROOT
BRANCH   2   7
HETATM    7  C   UNK     0      13.586   1.966  92.347  0.00  0.00     0.311 C 
BRANCH   7   8
HETATM    8  C   UNK     0      12.462   2.917  92.113  0.00  0.00    -0.030 A 
HETATM    9  C   UNK     0      11.791   3.484  93.197  0.00  0.00     0.010 A 
HETATM   10  C   UNK     0      10.737   4.372  92.978  0.00  0.00     0.021 A 
HETATM   11  C   UNK     0      10.357   4.694  91.676  0.00  0.00     0.018 A 
HETATM   12  C   UNK     0      11.026   4.128  90.593  0.00  0.00     0.021 A 
HETATM   13  C   UNK     0      12.079   3.240  90.811  0.00  0.00     0.010 A 
BRANCH  11  14
HETATM   14  C   UNK     0       9.278   5.606  91.452  0.00  0.00    -0.061 C 
HETATM   15  C   UNK     0       8.371   6.372  91.264  0.00  0.00    -0.061 C 
BRANCH  15  16
HETATM   16  C   UNK     0       7.293   7.283  91.039  0.00  0.00     0.018 A 
HETATM   17  C   UNK     0       6.079   6.815  90.535  0.00  0.00     0.022 A 
HETATM   18  C   UNK     0       5.026   7.704  90.317  0.00  0.00     0.018 A 
HETATM   19  C   UNK     0       5.210   9.040  90.608  0.00  0.00     0.032 A 
HETATM   20  C   UNK     0       6.400   9.528  91.106  0.00  0.00     0.018 A 
HETATM   21  C   UNK     0       7.453   8.639  91.323  0.00  0.00     0.022 A 
BRANCH  19  22
HETATM   22  C   UNK     0       4.089   9.986  90.374  0.00  0.00     0.252 C 
HETATM   23  O   UNK     0       2.970   9.542  90.129  0.00  0.00    -0.268 OA
HETATM   24  N   UNK     0       4.400  11.335  90.477  0.00  0.00    -0.341 N 
HETATM   25  H   UNK     0       5.343  11.628  90.707  0.00  0.00     0.163 HD
BRANCH  24  26
HETATM   26  C   UNK     0       3.417  12.374  90.301  0.00  0.00     0.207 C 
BRANCH  26  27
HETATM   27  C   UNK     0       3.159  13.170  91.586  0.00  0.00     0.146 C 
HETATM   28  C   UNK     0       2.060  12.553  92.444  0.00  0.00     0.042 C 
BRANCH  27  29
HETATM   29  O   UNK     0       4.360  13.242  92.353  0.00  0.00    -0.393 OA
HETATM   30  H   UNK     0       4.857  12.417  92.219  0.00  0.00     0.210 HD
ENDBRANCH  27  29
ENDBRANCH  26  27
BRANCH  26  31
HETATM   31  C   UNK     0       3.895  13.282  89.173  0.00  0.00     0.266 C 
HETATM   32  O   UNK     0       3.841  14.509  89.232  0.00  0.00    -0.269 OA
HETATM   33  N   UNK     0       4.349  12.569  88.089  0.00  0.00    -0.236 N 
HETATM   34  H   UNK     0       4.325  11.562  87.972  0.00  0.00     0.197 HD
BRANCH  33  35
HETATM   35  O   UNK     0       4.772  13.331  86.991  0.00  0.00    -0.287 OA
HETATM   36  H   UNK     0       3.947  13.797  86.774  0.00  0.00     0.244 HD
ENDBRANCH  33  35
ENDBRANCH  26  31
ENDBRANCH  24  26
ENDBRANCH  19  22
ENDBRANCH  15  16
ENDBRANCH  11  14
ENDBRANCH   7   8
ENDBRANCH   2   7
TORSDOF 10
ENDMDL
MODEL 2
REMARK VINA RESULT:      -5.7      2.780     12.269
REMARK  10 active torsions:
REMARK  status: ('A' for Active; 'I' for Inactive)
REMARK    1  A    between atoms: O_2  and  C_18 
REMARK    2  A    between atoms: O_5  and  N_8 
REMARK    3  A    between atoms: N_6  and  C_11 
REMARK    4  A    between atoms: N_7  and  C_15 
REMARK       I    between atoms: N_7  and  C_24 
REMARK       I    between atoms: N_8  and  C_23 
REMARK    5  A    between atoms: C_11  and  C_14 
REMARK    6  A    between atoms: C_15  and  C_18 
REMARK    7  A    between atoms: C_15  and  C_23 
REMARK    8  A    between atoms: C_21  and  C_26 
REMARK    9  A    between atoms: C_24  and  C_25 
REMARK   10  A    between atoms: C_29  and  C_32 
ROOT
HETATM    1  O   UNK     0       3.077  14.747  93.899  0.00  0.00    -0.388 OA
HETATM    2  N   UNK     0       2.869  14.717  91.061  0.00  0.00     0.096 N 
HETATM    3  C   UNK     0       1.943  13.951  91.907  0.00  0.00     0.299 C 
HETATM    4  C   UNK     0       4.167  14.858  91.734  0.00  0.00     0.299 C 
HETATM    5  C   UNK     0       1.802  14.632  93.266  0.00  0.00     0.198 C 
HETATM    6  C   UNK     0       3.974  15.517  93.097  0.00  0.00     0.198 C 
ENDROOT
BRANCH   2   7
HETATM    7  C   UNK     0       3.028  14.077  89.756  0.00  0.00     0.311 C 
BRANCH   7   8
HETATM    8  C   UNK     0       4.016  12.960  89.788  0.00  0.00    -0.030 A 
HETATM    9  C   UNK     0       3.683  11.754  90.406  0.00  0.00     0.010 A 
HETATM   10  C   UNK     0       4.607  10.709  90.438  0.00  0.00     0.021 A 
HETATM   11  C   UNK     0       5.861  10.871  89.851  0.00  0.00     0.018 A 
HETATM   12  C   UNK     0       6.194  12.075  89.234  0.00  0.00     0.021 A 
HETATM   13  C   UNK     0       5.271  13.120  89.202  0.00  0.00     0.010 A 
BRANCH  11  14
HETATM   14  C   UNK     0       6.808   9.798  89.883  0.00  0.00    -0.061 C 
HETATM   15  C   UNK     0       7.603   8.897  89.909  0.00  0.00    -0.061 C 
BRANCH  15  16
HETATM   16  C   UNK     0       8.547   7.825  89.941  0.00  0.00     0.018 A 
HETATM   17  C   UNK     0       9.210   7.445  88.773  0.00  0.00     0.022 A 
HETATM   18  C   UNK     0      10.133   6.400  88.804  0.00  0.00     0.018 A 
HETATM   19  C   UNK     0      10.375   5.759  90.001  0.00  0.00     0.032 A 
HETATM   20  C   UNK     0       9.733   6.115  91.169  0.00  0.00     0.018 A 
HETATM   21  C   UNK     0       8.809   7.159  91.138  0.00  0.00     0.022 A 
BRANCH  19  22
HETATM   22  C   UNK     0      11.357   4.645  90.033  0.00  0.00     0.252 C 
HETATM   23  O   UNK     0      11.443   3.893  89.065  0.00  0.00    -0.268 OA
HETATM   24  N   UNK     0      12.137   4.555  91.177  0.00  0.00    -0.341 N 
HETATM   25  H   UNK     0      12.027   5.227  91.927  0.00  0.00     0.163 HD
BRANCH  24  26
HETATM   26  C   UNK     0      13.150   3.544  91.348  0.00  0.00     0.207 C 
BRANCH  26  27
HETATM   27  C   UNK     0      14.323   4.020  92.215  0.00  0.00     0.146 C 
HETATM   28  C   UNK     0      13.938   4.176  93.682  0.00  0.00     0.042 C 
BRANCH  27  29
HETATM   29  O   UNK     0      15.399   3.088  92.114  0.00  0.00    -0.393 OA
HETATM   30  H   UNK     0      16.179   3.558  91.776  0.00  0.00     0.210 HD
ENDBRANCH  27  29
ENDBRANCH  26  27
BRANCH  26  31
HETATM   31  C   UNK     0      12.481   2.311  91.947  0.00  0.00     0.266 C 
HETATM   32  O   UNK     0      13.081   1.258  92.153  0.00  0.00    -0.269 OA
HETATM   33  N   UNK     0      11.143   2.511  92.186  0.00  0.00    -0.236 N 
HETATM   34  H   UNK     0      10.600   3.332  91.946  0.00  0.00     0.197 HD
BRANCH  33  35
HETATM   35  O   UNK     0      10.445   1.410  92.703  0.00  0.00    -0.287 OA
HETATM   36  H   UNK     0      11.069   1.113  93.386  0.00  0.00     0.244 HD
ENDBRANCH  33  35
ENDBRANCH  26  31
ENDBRANCH  24  26
ENDBRANCH  19  22
ENDBRANCH  15  16
ENDBRANCH  11  14
ENDBRANCH   7   8
ENDBRANCH   2   7
TORSDOF 10
ENDMDL
MODEL 3
REMARK VINA RESULT:      -5.6      2.564     12.774
REMARK  10 active torsions:
REMARK  status: ('A' for Active; 'I' for Inactive)
REMARK    1  A    between atoms: O_2  and  C_18 
REMARK    2  A    between atoms: O_5  and  N_8 
REMARK    3  A    between atoms: N_6  and  C_11 
REMARK    4  A    between atoms: N_7  and  C_15 
REMARK       I    between atoms: N_7  and  C_24 
REMARK       I    between atoms: N_8  and  C_23 
REMARK    5  A    between atoms: C_11  and  C_14 
REMARK    6  A    between atoms: C_15  and  C_18 
REMARK    7  A    between atoms: C_15  and  C_23 
REMARK    8  A    between atoms: C_21  and  C_26 
REMARK    9  A    between atoms: C_24  and  C_25 
REMARK   10  A    between atoms: C_29  and  C_32 
ROOT
HETATM    1  O   UNK     0       1.989  15.623  93.083  0.00  0.00    -0.388 OA
HETATM    2  N   UNK     0       3.340  13.574  91.642  0.00  0.00     0.096 N 
HETATM    3  C   UNK     0       4.051  14.762  92.136  0.00  0.00     0.299 C 
HETATM    4  C   UNK     0       1.935  13.905  91.371  0.00  0.00     0.299 C 
HETATM    5  C   UNK     0       3.349  15.303  93.380  0.00  0.00     0.198 C 
HETATM    6  C   UNK     0       1.283  14.467  92.631  0.00  0.00     0.198 C 
ENDROOT
BRANCH   2   7
HETATM    7  C   UNK     0       3.988  13.045  90.443  0.00  0.00     0.311 C 
BRANCH   7   8
HETATM    8  C   UNK     0       4.917  11.919  90.751  0.00  0.00    -0.030 A 
HETATM    9  C   UNK     0       5.762  11.423  89.757  0.00  0.00     0.010 A 
HETATM   10  C   UNK     0       6.629  10.369  90.043  0.00  0.00     0.021 A 
HETATM   11  C   UNK     0       6.653   9.814  91.322  0.00  0.00     0.018 A 
HETATM   12  C   UNK     0       5.810  10.309  92.315  0.00  0.00     0.021 A 
HETATM   13  C   UNK     0       4.942  11.362  92.029  0.00  0.00     0.010 A 
BRANCH  11  14
HETATM   14  C   UNK     0       7.545   8.734  91.615  0.00  0.00    -0.061 C 
HETATM   15  C   UNK     0       8.294   7.826  91.862  0.00  0.00    -0.061 C 
BRANCH  15  16
HETATM   16  C   UNK     0       9.183   6.748  92.156  0.00  0.00     0.018 A 
HETATM   17  C   UNK     0       9.366   6.336  93.477  0.00  0.00     0.022 A 
HETATM   18  C   UNK     0      10.233   5.281  93.765  0.00  0.00     0.018 A 
HETATM   19  C   UNK     0      10.897   4.662  92.727  0.00  0.00     0.032 A 
HETATM   20  C   UNK     0      10.735   5.051  91.413  0.00  0.00     0.018 A 
HETATM   21  C   UNK     0       9.869   6.105  91.125  0.00  0.00     0.022 A 
BRANCH  19  22
HETATM   22  C   UNK     0      11.822   3.541  93.034  0.00  0.00     0.252 C 
HETATM   23  O   UNK     0      11.423   2.385  92.917  0.00  0.00    -0.268 OA
HETATM   24  N   UNK     0      13.108   3.900  93.416  0.00  0.00    -0.341 N 
HETATM   25  H   UNK     0      13.374   4.876  93.466  0.00  0.00     0.163 HD
BRANCH  24  26
HETATM   26  C   UNK     0      14.126   2.928  93.723  0.00  0.00     0.207 C 
BRANCH  26  27
HETATM   27  C   UNK     0      14.280   1.864  92.628  0.00  0.00     0.146 C 
HETATM   28  C   UNK     0      15.087   2.366  91.436  0.00  0.00     0.042 C 
BRANCH  27  29
HETATM   29  O   UNK     0      14.922   0.711  93.170  0.00  0.00    -0.393 OA
HETATM   30  H   UNK     0      14.396   0.395  93.925  0.00  0.00     0.210 HD
ENDBRANCH  27  29
ENDBRANCH  26  27
BRANCH  26  31
HETATM   31  C   UNK     0      15.433   3.679  93.954  0.00  0.00     0.266 C 
HETATM   32  O   UNK     0      15.489   4.900  94.087  0.00  0.00    -0.269 OA
HETATM   33  N   UNK     0      16.520   2.840  93.955  0.00  0.00    -0.236 N 
HETATM   34  H   UNK     0      16.520   1.845  93.760  0.00  0.00     0.197 HD
BRANCH  33  35
HETATM   35  O   UNK     0      17.768   3.458  94.124  0.00  0.00    -0.287 OA
HETATM   36  H   UNK     0      18.257   2.744  94.567  0.00  0.00     0.244 HD
ENDBRANCH  33  35
ENDBRANCH  26  31
ENDBRANCH  24  26
ENDBRANCH  19  22
ENDBRANCH  15  16
ENDBRANCH  11  14
ENDBRANCH   7   8
ENDBRANCH   2   7
TORSDOF 10
ENDMDL
MODEL 4
REMARK VINA RESULT:      -5.3      1.928     12.402
REMARK  10 active torsions:
REMARK  status: ('A' for Active; 'I' for Inactive)
REMARK    1  A    between atoms: O_2  and  C_18 
REMARK    2  A    between atoms: O_5  and  N_8 
REMARK    3  A    between atoms: N_6  and  C_11 
REMARK    4  A    between atoms: N_7  and  C_15 
REMARK       I    between atoms: N_7  and  C_24 
REMARK       I    between atoms: N_8  and  C_23 
REMARK    5  A    between atoms: C_11  and  C_14 
REMARK    6  A    between atoms: C_15  and  C_18 
REMARK    7  A    between atoms: C_15  and  C_23 
REMARK    8  A    between atoms: C_21  and  C_26 
REMARK    9  A    between atoms: C_24  and  C_25 
REMARK   10  A    between atoms: C_29  and  C_32 
ROOT
HETATM    1  O   UNK     0       5.678  14.910  88.960  0.00  0.00    -0.388 OA
HETATM    2  N   UNK     0       3.626  13.403  90.231  0.00  0.00     0.096 N 
HETATM    3  C   UNK     0       4.384  14.431  90.957  0.00  0.00     0.299 C 
HETATM    4  C   UNK     0       4.454  12.826  89.164  0.00  0.00     0.299 C 
HETATM    5  C   UNK     0       4.870  15.500  89.980  0.00  0.00     0.198 C 
HETATM    6  C   UNK     0       4.939  13.931  88.230  0.00  0.00     0.198 C 
ENDROOT
BRANCH   2   7
HETATM    7  C   UNK     0       3.159  12.362  91.146  0.00  0.00     0.311 C 
BRANCH   7   8
HETATM    8  C   UNK     0       4.186  11.307  91.377  0.00  0.00    -0.030 A 
HETATM    9  C   UNK     0       4.136  10.116  90.651  0.00  0.00     0.010 A 
HETATM   10  C   UNK     0       5.095   9.126  90.868  0.00  0.00     0.021 A 
HETATM   11  C   UNK     0       6.104   9.329  91.809  0.00  0.00     0.018 A 
HETATM   12  C   UNK     0       6.155  10.518  92.534  0.00  0.00     0.021 A 
HETATM   13  C   UNK     0       5.196  11.507  92.318  0.00  0.00     0.010 A 
BRANCH  11  14
HETATM   14  C   UNK     0       7.089   8.315  92.029  0.00  0.00    -0.061 C 
HETATM   15  C   UNK     0       7.916   7.463  92.215  0.00  0.00    -0.061 C 
BRANCH  15  16
HETATM   16  C   UNK     0       8.900   6.451  92.436  0.00  0.00     0.018 A 
HETATM   17  C   UNK     0       9.163   5.506  91.444  0.00  0.00     0.022 A 
HETATM   18  C   UNK     0      10.125   4.519  91.658  0.00  0.00     0.018 A 
HETATM   19  C   UNK     0      10.803   4.499  92.859  0.00  0.00     0.032 A 
HETATM   20  C   UNK     0      10.562   5.421  93.856  0.00  0.00     0.018 A 
HETATM   21  C   UNK     0       9.600   6.408  93.642  0.00  0.00     0.022 A 
BRANCH  19  22
HETATM   22  C   UNK     0      11.827   3.446  93.088  0.00  0.00     0.252 C 
HETATM   23  O   UNK     0      11.545   2.274  92.850  0.00  0.00    -0.268 OA
HETATM   24  N   UNK     0      13.062   3.888  93.542  0.00  0.00    -0.341 N 
HETATM   25  H   UNK     0      13.230   4.876  93.692  0.00  0.00     0.163 HD
BRANCH  24  26
HETATM   26  C   UNK     0      14.164   2.992  93.787  0.00  0.00     0.207 C 
BRANCH  26  27
HETATM   27  C   UNK     0      14.273   1.883  92.733  0.00  0.00     0.146 C 
HETATM   28  C   UNK     0      15.197   2.261  91.581  0.00  0.00     0.042 C 
BRANCH  27  29
HETATM   29  O   UNK     0      14.760   0.689  93.345  0.00  0.00    -0.393 OA
HETATM   30  H   UNK     0      15.724   0.767  93.440  0.00  0.00     0.210 HD
ENDBRANCH  27  29
ENDBRANCH  26  27
BRANCH  26  31
HETATM   31  C   UNK     0      15.439   3.827  93.847  0.00  0.00     0.266 C 
HETATM   32  O   UNK     0      15.452   5.042  93.662  0.00  0.00    -0.269 OA
HETATM   33  N   UNK     0      16.551   3.058  94.091  0.00  0.00    -0.236 N 
HETATM   34  H   UNK     0      16.588   2.048  94.159  0.00  0.00     0.197 HD
BRANCH  33  35
HETATM   35  O   UNK     0      17.772   3.746  94.124  0.00  0.00    -0.287 OA
HETATM   36  H   UNK     0      17.576   4.417  94.800  0.00  0.00     0.244 HD
ENDBRANCH  33  35
ENDBRANCH  26  31
ENDBRANCH  24  26
ENDBRANCH  19  22
ENDBRANCH  15  16
ENDBRANCH  11  14
ENDBRANCH   7   8
ENDBRANCH   2   7
TORSDOF 10
ENDMDL
MODEL 5
REMARK VINA RESULT:      -5.1      2.104      3.109
REMARK  10 active torsions:
REMARK  status: ('A' for Active; 'I' for Inactive)
REMARK    1  A    between atoms: O_2  and  C_18 
REMARK    2  A    between atoms: O_5  and  N_8 
REMARK    3  A    between atoms: N_6  and  C_11 
REMARK    4  A    between atoms: N_7  and  C_15 
REMARK       I    between atoms: N_7  and  C_24 
REMARK       I    between atoms: N_8  and  C_23 
REMARK    5  A    between atoms: C_11  and  C_14 
REMARK    6  A    between atoms: C_15  and  C_18 
REMARK    7  A    between atoms: C_15  and  C_23 
REMARK    8  A    between atoms: C_21  and  C_26 
REMARK    9  A    between atoms: C_24  and  C_25 
REMARK   10  A    between atoms: C_29  and  C_32 
ROOT
HETATM    1  O   UNK     0      17.467   4.523  93.181  0.00  0.00    -0.388 OA
HETATM    2  N   UNK     0      15.394   2.814  94.124  0.00  0.00     0.096 N 
HETATM    3  C   UNK     0      16.522   2.293  93.338  0.00  0.00     0.299 C 
HETATM    4  C   UNK     0      15.131   4.213  93.759  0.00  0.00     0.299 C 
HETATM    5  C   UNK     0      17.751   3.172  93.552  0.00  0.00     0.198 C 
HETATM    6  C   UNK     0      16.393   5.047  93.962  0.00  0.00     0.198 C 
ENDROOT
BRANCH   2   7
HETATM    7  C   UNK     0      14.202   1.993  93.926  0.00  0.00     0.311 C 
BRANCH   7   8
HETATM    8  C   UNK     0      13.135   2.712  93.174  0.00  0.00    -0.030 A 
HETATM    9  C   UNK     0      11.942   3.055  93.812  0.00  0.00     0.010 A 
HETATM   10  C   UNK     0      10.943   3.726  93.109  0.00  0.00     0.021 A 
HETATM   11  C   UNK     0      11.136   4.056  91.768  0.00  0.00     0.018 A 
HETATM   12  C   UNK     0      12.327   3.714  91.129  0.00  0.00     0.021 A 
HETATM   13  C   UNK     0      13.326   3.042  91.832  0.00  0.00     0.010 A 
BRANCH  11  14
HETATM   14  C   UNK     0      10.111   4.746  91.047  0.00  0.00    -0.061 C 
HETATM   15  C   UNK     0       9.250   5.327  90.441  0.00  0.00    -0.061 C 
BRANCH  15  16
HETATM   16  C   UNK     0       8.226   6.015  89.722  0.00  0.00     0.018 A 
HETATM   17  C   UNK     0       8.399   6.303  88.367  0.00  0.00     0.022 A 
HETATM   18  C   UNK     0       7.398   6.973  87.664  0.00  0.00     0.018 A 
HETATM   19  C   UNK     0       6.247   7.341  88.329  0.00  0.00     0.032 A 
HETATM   20  C   UNK     0       6.052   7.069  89.667  0.00  0.00     0.018 A 
HETATM   21  C   UNK     0       7.053   6.400  90.371  0.00  0.00     0.022 A 
BRANCH  19  22
HETATM   22  C   UNK     0       5.182   8.057  87.580  0.00  0.00     0.252 C 
HETATM   23  O   UNK     0       5.173   8.004  86.353  0.00  0.00    -0.268 OA
HETATM   24  N   UNK     0       4.243   8.728  88.351  0.00  0.00    -0.341 N 
HETATM   25  H   UNK     0       4.300   8.707  89.362  0.00  0.00     0.163 HD
BRANCH  24  26
HETATM   26  C   UNK     0       3.137   9.448  87.772  0.00  0.00     0.207 C 
BRANCH  26  27
HETATM   27  C   UNK     0       1.815   8.674  87.858  0.00  0.00     0.146 C 
HETATM   28  C   UNK     0       1.980   7.197  87.520  0.00  0.00     0.042 C 
BRANCH  27  29
HETATM   29  O   UNK     0       1.279   8.791  89.176  0.00  0.00    -0.393 OA
HETATM   30  H   UNK     0       1.131   7.896  89.525  0.00  0.00     0.210 HD
ENDBRANCH  27  29
ENDBRANCH  26  27
BRANCH  26  31
HETATM   31  C   UNK     0       3.037  10.796  88.480  0.00  0.00     0.266 C 
HETATM   32  O   UNK     0       2.631  10.918  89.633  0.00  0.00    -0.269 OA
HETATM   33  N   UNK     0       3.415  11.837  87.667  0.00  0.00    -0.236 N 
HETATM   34  H   UNK     0       3.669  11.781  86.687  0.00  0.00     0.197 HD
BRANCH  33  35
HETATM   35  O   UNK     0       3.316  13.117  88.230  0.00  0.00    -0.287 OA
HETATM   36  H   UNK     0       2.657  12.951  88.926  0.00  0.00     0.244 HD
ENDBRANCH  33  35
ENDBRANCH  26  31
ENDBRANCH  24  26
ENDBRANCH  19  22
ENDBRANCH  15  16
ENDBRANCH  11  14
ENDBRANCH   7   8
ENDBRANCH   2   7
TORSDOF 10
ENDMDL
MODEL 6
REMARK VINA RESULT:      -5.1      2.507     12.369
REMARK  10 active torsions:
REMARK  status: ('A' for Active; 'I' for Inactive)
REMARK    1  A    between atoms: O_2  and  C_18 
REMARK    2  A    between atoms: O_5  and  N_8 
REMARK    3  A    between atoms: N_6  and  C_11 
REMARK    4  A    between atoms: N_7  and  C_15 
REMARK       I    between atoms: N_7  and  C_24 
REMARK       I    between atoms: N_8  and  C_23 
REMARK    5  A    between atoms: C_11  and  C_14 
REMARK    6  A    between atoms: C_15  and  C_18 
REMARK    7  A    between atoms: C_15  and  C_23 
REMARK    8  A    between atoms: C_21  and  C_26 
REMARK    9  A    between atoms: C_24  and  C_25 
REMARK   10  A    between atoms: C_29  and  C_32 
ROOT
HETATM    1  O   UNK     0       2.920  14.788  93.690  0.00  0.00    -0.388 OA
HETATM    2  N   UNK     0       2.789  14.394  90.874  0.00  0.00     0.096 N 
HETATM    3  C   UNK     0       1.871  13.702  91.789  0.00  0.00     0.299 C 
HETATM    4  C   UNK     0       4.062  14.672  91.552  0.00  0.00     0.299 C 
HETATM    5  C   UNK     0       1.667  14.541  93.048  0.00  0.00     0.198 C 
HETATM    6  C   UNK     0       3.807  15.488  92.816  0.00  0.00     0.198 C 
ENDROOT
BRANCH   2   7
HETATM    7  C   UNK     0       3.008  13.602  89.664  0.00  0.00     0.311 C 
BRANCH   7   8
HETATM    8  C   UNK     0       4.016  12.523  89.866  0.00  0.00    -0.030 A 
HETATM    9  C   UNK     0       3.752  11.481  90.756  0.00  0.00     0.010 A 
HETATM   10  C   UNK     0       4.695  10.472  90.947  0.00  0.00     0.021 A 
HETATM   11  C   UNK     0       5.901  10.504  90.248  0.00  0.00     0.018 A 
HETATM   12  C   UNK     0       6.166  11.544  89.359  0.00  0.00     0.021 A 
HETATM   13  C   UNK     0       5.223  12.554  89.168  0.00  0.00     0.010 A 
BRANCH  11  14
HETATM   14  C   UNK     0       6.868   9.468  90.443  0.00  0.00    -0.061 C 
HETATM   15  C   UNK     0       7.681   8.596  90.606  0.00  0.00    -0.061 C 
BRANCH  15  16
HETATM   16  C   UNK     0       8.645   7.561  90.802  0.00  0.00     0.018 A 
HETATM   17  C   UNK     0       9.202   6.910  89.700  0.00  0.00     0.022 A 
HETATM   18  C   UNK     0      10.145   5.900  89.891  0.00  0.00     0.018 A 
HETATM   19  C   UNK     0      10.512   5.565  91.177  0.00  0.00     0.032 A 
HETATM   20  C   UNK     0       9.977   6.192  92.282  0.00  0.00     0.018 A 
HETATM   21  C   UNK     0       9.033   7.201  92.092  0.00  0.00     0.022 A 
BRANCH  19  22
HETATM   22  C   UNK     0      11.516   4.488  91.379  0.00  0.00     0.252 C 
HETATM   23  O   UNK     0      11.828   3.773  90.430  0.00  0.00    -0.268 OA
HETATM   24  N   UNK     0      12.052   4.389  92.656  0.00  0.00    -0.341 N 
HETATM   25  H   UNK     0      11.764   5.031  93.384  0.00  0.00     0.163 HD
BRANCH  24  26
HETATM   26  C   UNK     0      13.053   3.412  93.002  0.00  0.00     0.207 C 
BRANCH  26  27
HETATM   27  C   UNK     0      12.941   2.127  92.173  0.00  0.00     0.146 C 
HETATM   28  C   UNK     0      13.972   1.079  92.578  0.00  0.00     0.042 C 
BRANCH  27  29
HETATM   29  O   UNK     0      11.634   1.574  92.325  0.00  0.00    -0.393 OA
HETATM   30  H   UNK     0      11.236   1.484  91.443  0.00  0.00     0.210 HD
ENDBRANCH  27  29
ENDBRANCH  26  27
BRANCH  26  31
HETATM   31  C   UNK     0      14.421   4.065  92.830  0.00  0.00     0.266 C 
HETATM   32  O   UNK     0      14.756   4.658  91.806  0.00  0.00    -0.269 OA
HETATM   33  N   UNK     0      15.228   3.877  93.926  0.00  0.00    -0.236 N 
HETATM   34  H   UNK     0      15.017   3.320  94.746  0.00  0.00     0.197 HD
BRANCH  33  35
HETATM   35  O   UNK     0      16.519   4.415  93.832  0.00  0.00    -0.287 OA
HETATM   36  H   UNK     0      17.029   3.724  94.288  0.00  0.00     0.244 HD
ENDBRANCH  33  35
ENDBRANCH  26  31
ENDBRANCH  24  26
ENDBRANCH  19  22
ENDBRANCH  15  16
ENDBRANCH  11  14
ENDBRANCH   7   8
ENDBRANCH   2   7
TORSDOF 10
ENDMDL
MODEL 7
REMARK VINA RESULT:      -4.8      2.276     12.329
REMARK  10 active torsions:
REMARK  status: ('A' for Active; 'I' for Inactive)
REMARK    1  A    between atoms: O_2  and  C_18 
REMARK    2  A    between atoms: O_5  and  N_8 
REMARK    3  A    between atoms: N_6  and  C_11 
REMARK    4  A    between atoms: N_7  and  C_15 
REMARK       I    between atoms: N_7  and  C_24 
REMARK       I    between atoms: N_8  and  C_23 
REMARK    5  A    between atoms: C_11  and  C_14 
REMARK    6  A    between atoms: C_15  and  C_18 
REMARK    7  A    between atoms: C_15  and  C_23 
REMARK    8  A    between atoms: C_21  and  C_26 
REMARK    9  A    between atoms: C_24  and  C_25 
REMARK   10  A    between atoms: C_29  and  C_32 
ROOT
HETATM    1  O   UNK     0       4.223  14.539  89.483  0.00  0.00    -0.388 OA
HETATM    2  N   UNK     0       3.306  13.957  92.114  0.00  0.00     0.096 N 
HETATM    3  C   UNK     0       4.681  14.410  91.863  0.00  0.00     0.299 C 
HETATM    4  C   UNK     0       2.793  13.232  90.944  0.00  0.00     0.299 C 
HETATM    5  C   UNK     0       4.719  15.273  90.604  0.00  0.00     0.198 C 
HETATM    6  C   UNK     0       2.876  14.121  89.707  0.00  0.00     0.198 C 
ENDROOT
BRANCH   2   7
HETATM    7  C   UNK     0       3.247  13.119  93.311  0.00  0.00     0.311 C 
BRANCH   7   8
HETATM    8  C   UNK     0       4.234  12.002  93.271  0.00  0.00    -0.030 A 
HETATM    9  C   UNK     0       5.340  12.019  94.121  0.00  0.00     0.010 A 
HETATM   10  C   UNK     0       6.265  10.976  94.083  0.00  0.00     0.021 A 
HETATM   11  C   UNK     0       6.081   9.915  93.196  0.00  0.00     0.018 A 
HETATM   12  C   UNK     0       4.977   9.897  92.347  0.00  0.00     0.021 A 
HETATM   13  C   UNK     0       4.052  10.940  92.385  0.00  0.00     0.010 A 
BRANCH  11  14
HETATM   14  C   UNK     0       7.029   8.844  93.159  0.00  0.00    -0.061 C 
HETATM   15  C   UNK     0       7.825   7.943  93.127  0.00  0.00    -0.061 C 
BRANCH  15  16
HETATM   16  C   UNK     0       8.771   6.873  93.089  0.00  0.00     0.018 A 
HETATM   17  C   UNK     0       8.511   5.741  92.314  0.00  0.00     0.022 A 
HETATM   18  C   UNK     0       9.435   4.697  92.275  0.00  0.00     0.018 A 
HETATM   19  C   UNK     0      10.597   4.806  93.010  0.00  0.00     0.032 A 
HETATM   20  C   UNK     0      10.877   5.913  93.784  0.00  0.00     0.018 A 
HETATM   21  C   UNK     0       9.953   6.958  93.824  0.00  0.00     0.022 A 
BRANCH  19  22
HETATM   22  C   UNK     0      11.579   3.692  92.970  0.00  0.00     0.252 C 
HETATM   23  O   UNK     0      11.172   2.537  92.879  0.00  0.00    -0.268 OA
HETATM   24  N   UNK     0      12.917   4.060  93.014  0.00  0.00    -0.341 N 
HETATM   25  H   UNK     0      13.179   5.037  93.063  0.00  0.00     0.163 HD
BRANCH  24  26
HETATM   26  C   UNK     0      13.988   3.097  92.959  0.00  0.00     0.207 C 
BRANCH  26  27
HETATM   27  C   UNK     0      14.257   2.590  91.537  0.00  0.00     0.146 C 
HETATM   28  C   UNK     0      13.992   3.653  90.477  0.00  0.00     0.042 C 
BRANCH  27  29
HETATM   29  O   UNK     0      15.614   2.161  91.432  0.00  0.00    -0.393 OA
HETATM   30  H   UNK     0      15.948   1.983  92.328  0.00  0.00     0.210 HD
ENDBRANCH  27  29
ENDBRANCH  26  27
BRANCH  26  31
HETATM   31  C   UNK     0      15.229   3.747  93.561  0.00  0.00     0.266 C 
HETATM   32  O   UNK     0      16.164   3.099  94.030  0.00  0.00    -0.269 OA
HETATM   33  N   UNK     0      15.155   5.119  93.548  0.00  0.00    -0.236 N 
HETATM   34  H   UNK     0      14.366   5.681  93.253  0.00  0.00     0.197 HD
BRANCH  33  35
HETATM   35  O   UNK     0      16.243   5.794  94.120  0.00  0.00    -0.287 OA
HETATM   36  H   UNK     0      16.237   5.409  95.013  0.00  0.00     0.244 HD
ENDBRANCH  33  35
ENDBRANCH  26  31
ENDBRANCH  24  26
ENDBRANCH  19  22
ENDBRANCH  15  16
ENDBRANCH  11  14
ENDBRANCH   7   8
ENDBRANCH   2   7
TORSDOF 10
ENDMDL
MODEL 8
REMARK VINA RESULT:      -4.2      2.771     12.395
REMARK  10 active torsions:
REMARK  status: ('A' for Active; 'I' for Inactive)
REMARK    1  A    between atoms: O_2  and  C_18 
REMARK    2  A    between atoms: O_5  and  N_8 
REMARK    3  A    between atoms: N_6  and  C_11 
REMARK    4  A    between atoms: N_7  and  C_15 
REMARK       I    between atoms: N_7  and  C_24 
REMARK       I    between atoms: N_8  and  C_23 
REMARK    5  A    between atoms: C_11  and  C_14 
REMARK    6  A    between atoms: C_15  and  C_18 
REMARK    7  A    between atoms: C_15  and  C_23 
REMARK    8  A    between atoms: C_21  and  C_26 
REMARK    9  A    between atoms: C_24  and  C_25 
REMARK   10  A    between atoms: C_29  and  C_32 
ROOT
HETATM    1  O   UNK     0       2.816  15.405  93.316  0.00  0.00    -0.388 OA
HETATM    2  N   UNK     0       1.443  12.955  92.853  0.00  0.00     0.096 N 
HETATM    3  C   UNK     0       1.197  13.756  94.060  0.00  0.00     0.299 C 
HETATM    4  C   UNK     0       2.817  13.167  92.379  0.00  0.00     0.299 C 
HETATM    5  C   UNK     0       1.471  15.229  93.767  0.00  0.00     0.198 C 
HETATM    6  C   UNK     0       3.054  14.653  92.125  0.00  0.00     0.198 C 
ENDROOT
BRANCH   2   7
HETATM    7  C   UNK     0       1.197  11.538  93.114  0.00  0.00     0.311 C 
BRANCH   7   8
HETATM    8  C   UNK     0       2.432  10.713  92.982  0.00  0.00    -0.030 A 
HETATM    9  C   UNK     0       3.318  10.608  94.055  0.00  0.00     0.010 A 
HETATM   10  C   UNK     0       4.474   9.838  93.931  0.00  0.00     0.021 A 
HETATM   11  C   UNK     0       4.743   9.173  92.736  0.00  0.00     0.018 A 
HETATM   12  C   UNK     0       3.859   9.276  91.664  0.00  0.00     0.021 A 
HETATM   13  C   UNK     0       2.703  10.046  91.786  0.00  0.00     0.010 A 
BRANCH  11  14
HETATM   14  C   UNK     0       5.929   8.381  92.610  0.00  0.00    -0.061 C 
HETATM   15  C   UNK     0       6.925   7.717  92.504  0.00  0.00    -0.061 C 
BRANCH  15  16
HETATM   16  C   UNK     0       8.108   6.925  92.379  0.00  0.00     0.018 A 
HETATM   17  C   UNK     0       8.443   6.364  91.146  0.00  0.00     0.022 A 
HETATM   18  C   UNK     0       9.599   5.593  91.023  0.00  0.00     0.018 A 
HETATM   19  C   UNK     0      10.394   5.401  92.133  0.00  0.00     0.032 A 
HETATM   20  C   UNK     0      10.085   5.945  93.363  0.00  0.00     0.018 A 
HETATM   21  C   UNK     0       8.929   6.715  93.487  0.00  0.00     0.022 A 
BRANCH  19  22
HETATM   22  C   UNK     0      11.625   4.579  92.002  0.00  0.00     0.252 C 
HETATM   23  O   UNK     0      12.060   4.325  90.881  0.00  0.00    -0.268 OA
HETATM   24  N   UNK     0      12.213   4.171  93.191  0.00  0.00    -0.341 N 
HETATM   25  H   UNK     0      11.811   4.439  94.081  0.00  0.00     0.163 HD
BRANCH  24  26
HETATM   26  C   UNK     0      13.423   3.389  93.229  0.00  0.00     0.207 C 
BRANCH  26  27
HETATM   27  C   UNK     0      13.378   2.180  92.286  0.00  0.00     0.146 C 
HETATM   28  C   UNK     0      14.273   1.039  92.757  0.00  0.00     0.042 C 
BRANCH  27  29
HETATM   29  O   UNK     0      12.037   1.704  92.183  0.00  0.00    -0.393 OA
HETATM   30  H   UNK     0      11.464   2.455  91.955  0.00  0.00     0.210 HD
ENDBRANCH  27  29
ENDBRANCH  26  27
BRANCH  26  31
HETATM   31  C   UNK     0      14.587   4.314  92.889  0.00  0.00     0.266 C 
HETATM   32  O   UNK     0      14.862   4.649  91.738  0.00  0.00    -0.269 OA
HETATM   33  N   UNK     0      15.297   4.687  94.005  0.00  0.00    -0.236 N 
HETATM   34  H   UNK     0      15.152   4.360  94.953  0.00  0.00     0.197 HD
BRANCH  33  35
HETATM   35  O   UNK     0      16.409   5.509  93.774  0.00  0.00    -0.287 OA
HETATM   36  H   UNK     0      16.017   6.383  93.941  0.00  0.00     0.244 HD
ENDBRANCH  33  35
ENDBRANCH  26  31
ENDBRANCH  24  26
ENDBRANCH  19  22
ENDBRANCH  15  16
ENDBRANCH  11  14
ENDBRANCH   7   8
ENDBRANCH   2   7
TORSDOF 10
ENDMDL
