MODEL 1
REMARK VINA RESULT:      -6.9      0.000      0.000
REMARK  10 active torsions:
REMARK  status: ('A' for Active; 'I' for Inactive)
REMARK    1  A    between atoms: O_2  and  C_16 
REMARK    2  A    between atoms: N_5  and  C_9 
REMARK    3  A    between atoms: N_6  and  C_13 
REMARK       I    between atoms: N_6  and  C_22 
REMARK    4  A    between atoms: C_9  and  C_12 
REMARK    5  A    between atoms: C_13  and  C_16 
REMARK    6  A    between atoms: C_13  and  C_21 
REMARK    7  A    between atoms: C_19  and  C_24 
REMARK    8  A    between atoms: C_22  and  C_23 
REMARK    9  A    between atoms: C_27  and  C_30 
REMARK   10  A    between atoms: N_33  and  S_34 
ROOT
HETATM    1  C   UNL     1       5.341  10.130  89.360  1.00  0.00     0.056 A 
HETATM    2  C   UNL     1       6.640  10.497  89.642  1.00  0.00     0.005 A 
HETATM    3  C   UNL     1       4.926   8.815  89.380  1.00  0.00     0.005 A 
HETATM    4  C   UNL     1       7.173   8.166  89.984  1.00  0.00     0.042 A 
HETATM    5  C   UNL     1       7.568   9.504  89.958  1.00  0.00     0.008 A 
HETATM    6  C   UNL     1       5.853   7.821  89.695  1.00  0.00     0.008 A 
ENDROOT
BRANCH   1   7
HETATM    7  C   UNL     1       4.352  11.188  89.026  1.00  0.00     0.254 C 
HETATM    8  O   UNL     1       3.848  11.206  87.906  1.00  0.00    -0.268 OA
HETATM    9  N   UNL     1       4.052  12.083  90.044  1.00  0.00    -0.337 N 
HETATM   10  HN  UNL     1       4.490  11.991  90.953  1.00  0.00     0.164 HD
BRANCH   9  11
HETATM   11  C   UNL     1       3.096  13.149  89.883  1.00  0.00     0.172 C 
BRANCH  11  12
HETATM   12  C   UNL     1       2.317  13.447  91.170  1.00  0.00     0.136 C 
HETATM   13  C   UNL     1       1.235  14.502  90.966  1.00  0.00     0.034 C 
BRANCH  12  14
HETATM   14  O   UNL     1       1.710  12.247  91.648  1.00  0.00    -0.383 OA
HETATM   15  H   UNL     1       0.785  12.232  91.349  1.00  0.00     0.210 HD
ENDBRANCH  12  14
ENDBRANCH  11  12
BRANCH  11  16
HETATM   16  C   UNL     1       3.851  14.381  89.394  1.00  0.00     0.398 A 
HETATM   17  O   UNL     1       4.764  14.325  88.573  1.00  0.00    -0.136 OA
HETATM   18  N   UNL     1       5.136  15.257  89.714  1.00  0.00     0.142 N 
HETATM   19  HN  UNL     1       5.947  15.364  89.172  1.00  0.00     0.338 HD
BRANCH  18  20
HETATM   20  S   UNL     1       4.849  15.565  91.039  1.00  0.00     0.076 SA
HETATM   21  H   UNL     1       5.726  16.060  91.671  1.00  0.00     0.136 HD
ENDBRANCH  18  20
ENDBRANCH  11  16
ENDBRANCH   9  11
ENDBRANCH   1   7
BRANCH   4  22
HETATM   22  C   UNL     1       8.125   7.148  90.305  1.00  0.00    -0.059 C 
HETATM   23  C   UNL     1       8.925   6.292  90.573  1.00  0.00    -0.059 C 
BRANCH  23  24
HETATM   24  C   UNL     1       9.877   5.273  90.893  1.00  0.00     0.042 A 
HETATM   25  C   UNL     1      10.925   5.000  90.015  1.00  0.00     0.008 A 
HETATM   26  C   UNL     1      11.853   4.006  90.326  1.00  0.00    -0.002 A 
HETATM   27  C   UNL     1      11.733   3.287  91.516  1.00  0.00     0.011 A 
HETATM   28  C   UNL     1      10.684   3.562  92.393  1.00  0.00    -0.002 A 
HETATM   29  C   UNL     1       9.756   4.556  92.082  1.00  0.00     0.008 A 
BRANCH  27  30
HETATM   30  C   UNL     1      12.726   2.226  91.848  1.00  0.00     0.277 C 
BRANCH  30  31
HETATM   31  N   UNL     1      13.709   2.672  92.833  1.00  0.00     0.147 N 
HETATM   32  C   UNL     1      14.737   1.643  93.046  1.00  0.00     0.283 C 
HETATM   33  C   UNL     1      15.757   2.136  94.069  1.00  0.00     0.178 C 
HETATM   34  O   UNL     1      16.356   3.355  93.627  1.00  0.00    -0.350 OA
HETATM   35  C   UNL     1      15.367   4.370  93.448  1.00  0.00     0.178 C 
HETATM   36  C   UNL     1      14.338   3.931  92.411  1.00  0.00     0.283 C 
ENDBRANCH  30  31
ENDBRANCH  27  30
ENDBRANCH  23  24
ENDBRANCH   4  22
TORSDOF 10
ENDMDL
