MODEL 1
REMARK VINA RESULT:      -6.4      0.000      0.000
REMARK  11 active torsions:
REMARK  status: ('A' for Active; 'I' for Inactive)
REMARK    1  A    between atoms: O_2  and  C_18 
REMARK    2  A    between atoms: O_5  and  P_8 
REMARK    3  A    between atoms: N_6  and  C_11 
REMARK    4  A    between atoms: N_7  and  C_15 
REMARK       I    between atoms: N_7  and  C_24 
REMARK    5  A    between atoms: P_8  and  C_23 
REMARK    6  A    between atoms: C_11  and  C_14 
REMARK    7  A    between atoms: C_15  and  C_18 
REMARK    8  A    between atoms: C_15  and  C_23 
REMARK    9  A    between atoms: C_21  and  C_26 
REMARK   10  A    between atoms: C_24  and  C_25 
REMARK   11  A    between atoms: C_29  and  C_32 
ROOT
HETATM    1  O   UNL     1      16.051   3.534  94.124  1.00  0.00     0.000 OA
HETATM    2  N   UNL     1      14.090   2.698  92.238  1.00  0.00     0.000 N 
HETATM    3  C   UNL     1      14.056   4.039  92.838  1.00  0.00     0.000 C 
HETATM    4  C   UNL     1      14.719   1.748  93.165  1.00  0.00     0.000 C 
HETATM    5  C   UNL     1      15.470   4.472  93.216  1.00  0.00     0.000 C 
HETATM    6  C   UNL     1      16.116   2.234  93.536  1.00  0.00     0.000 C 
ENDROOT
BRANCH   2   7
HETATM    7  C   UNL     1      12.744   2.258  91.877  1.00  0.00     0.000 C 
BRANCH   7   8
HETATM    8  C   UNL     1      11.818   3.402  91.636  1.00  0.00     0.000 A 
HETATM    9  C   UNL     1      11.835   4.066  90.409  1.00  0.00     0.000 A 
HETATM   10  C   UNL     1      10.971   5.137  90.184  1.00  0.00     0.000 A 
HETATM   11  C   UNL     1      10.089   5.543  91.185  1.00  0.00     0.000 A 
HETATM   12  C   UNL     1      10.071   4.880  92.410  1.00  0.00     0.000 A 
HETATM   13  C   UNL     1      10.935   3.809  92.637  1.00  0.00     0.000 A 
BRANCH  11  14
HETATM   14  C   UNL     1       9.201   6.641  90.953  1.00  0.00     0.000 C 
HETATM   15  C   UNL     1       8.455   7.563  90.757  1.00  0.00     0.000 C 
BRANCH  15  16
HETATM   16  C   UNL     1       7.567   8.659  90.526  1.00  0.00     0.000 A 
HETATM   17  C   UNL     1       6.257   8.607  91.003  1.00  0.00     0.000 A 
HETATM   18  C   UNL     1       5.392   9.679  90.780  1.00  0.00     0.000 A 
HETATM   19  C   UNL     1       5.856  10.777  90.086  1.00  0.00     0.000 A 
HETATM   20  C   UNL     1       7.146  10.852  89.604  1.00  0.00     0.000 A 
HETATM   21  C   UNL     1       8.012   9.781  89.827  1.00  0.00     0.000 A 
BRANCH  19  22
HETATM   22  C   UNL     1       4.934  11.917  89.847  1.00  0.00     0.000 C 
HETATM   23  O   UNL     1       4.513  12.120  88.710  1.00  0.00     0.000 OA
HETATM   24  N   UNL     1       4.593  12.668  90.963  1.00  0.00     0.000 N 
HETATM   25  HN  UNL     1       4.960  12.426  91.876  1.00  0.00     0.000 HD
BRANCH  24  26
HETATM   26  C   UNL     1       3.691  13.789  90.897  1.00  0.00     0.000 C 
BRANCH  26  27
HETATM   27  C   UNL     1       2.461  13.615  91.798  1.00  0.00     0.000 C 
HETATM   28  C   UNL     1       2.804  12.973  93.137  1.00  0.00     0.000 C 
BRANCH  27  29
HETATM   29  O   UNL     1       1.859  14.887  92.034  1.00  0.00     0.000 OA
HETATM   30  H   UNL     1       2.435  15.391  92.633  1.00  0.00     0.000 HD
ENDBRANCH  27  29
ENDBRANCH  26  27
BRANCH  26  31
HETATM   31  C   UNL     1       4.477  15.042  91.269  1.00  0.00     0.000 C 
HETATM   32  O   UNL     1       4.500  15.505  92.408  1.00  0.00     0.000 OA
BRANCH  31  33
HETATM   33  P   UNL     1       5.110  15.598  90.184  1.00  0.00     0.000 P 
HETATM   34  H   UNL     1       4.766  16.934  90.131  1.00  0.00     0.000 HD
BRANCH  33  35
HETATM   35  O   UNL     1       4.805  15.027  88.940  1.00  0.00     0.000 OA
HETATM   36  H   UNL     1       4.909  15.802  88.362  1.00  0.00     0.000 HD
ENDBRANCH  33  35
ENDBRANCH  31  33
ENDBRANCH  26  31
ENDBRANCH  24  26
ENDBRANCH  19  22
ENDBRANCH  15  16
ENDBRANCH  11  14
ENDBRANCH   7   8
ENDBRANCH   2   7
TORSDOF 11
ENDMDL
