MODEL 1
REMARK VINA RESULT:      -7.1      0.000      0.000
REMARK  10 active torsions:
REMARK  status: ('A' for Active; 'I' for Inactive)
REMARK    1  A    between atoms: O_2  and  C_16 
REMARK    2  A    between atoms: N_5  and  C_9 
REMARK    3  A    between atoms: N_6  and  C_13 
REMARK       I    between atoms: N_6  and  C_22 
REMARK    4  A    between atoms: C_9  and  C_12 
REMARK    5  A    between atoms: C_13  and  C_16 
REMARK    6  A    between atoms: C_13  and  C_21 
REMARK    7  A    between atoms: C_19  and  C_24 
REMARK    8  A    between atoms: C_22  and  C_23 
REMARK    9  A    between atoms: C_27  and  C_30 
REMARK   10  A    between atoms: N_33  and  S_34 
ROOT
HETATM    1  C   UNL     1       5.833  11.061  89.470  1.00  0.00     0.056 A 
HETATM    2  C   UNL     1       5.276   9.889  89.937  1.00  0.00     0.005 A 
HETATM    3  C   UNL     1       7.191  11.208  89.283  1.00  0.00     0.005 A 
HETATM    4  C   UNL     1       7.494   8.938  90.052  1.00  0.00     0.042 A 
HETATM    5  C   UNL     1       6.116   8.814  90.232  1.00  0.00     0.008 A 
HETATM    6  C   UNL     1       8.032  10.134  89.577  1.00  0.00     0.008 A 
ENDROOT
BRANCH   1   7
HETATM    7  C   UNL     1       4.938  12.204  89.155  1.00  0.00     0.254 C 
HETATM    8  O   UNL     1       4.885  12.624  88.001  1.00  0.00    -0.268 OA
HETATM    9  N   UNL     1       4.194  12.705  90.214  1.00  0.00    -0.337 N 
HETATM   10  HN  UNL     1       4.271  12.291  91.136  1.00  0.00     0.164 HD
BRANCH   9  11
HETATM   11  C   UNL     1       3.264  13.795  90.063  1.00  0.00     0.172 C 
BRANCH  11  12
HETATM   12  C   UNL     1       1.963  13.579  90.846  1.00  0.00     0.136 C 
HETATM   13  C   UNL     1       2.086  12.473  91.888  1.00  0.00     0.034 C 
BRANCH  12  14
HETATM   14  O   UNL     1       1.592  14.792  91.500  1.00  0.00    -0.383 OA
HETATM   15  H   UNL     1       1.314  14.578  92.406  1.00  0.00     0.210 HD
ENDBRANCH  12  14
ENDBRANCH  11  12
BRANCH  11  16
HETATM   16  C   UNL     1       3.970  15.074  90.502  1.00  0.00     0.398 A 
HETATM   17  O   UNL     1       5.100  15.379  90.124  1.00  0.00    -0.136 OA
HETATM   18  N   UNL     1       4.958  15.625  91.617  1.00  0.00     0.142 N 
HETATM   19  HN  UNL     1       5.879  15.944  91.506  1.00  0.00     0.338 HD
BRANCH  18  20
HETATM   20  S   UNL     1       4.220  15.267  92.740  1.00  0.00     0.076 SA
HETATM   21  H   UNL     1       4.800  14.673  93.590  1.00  0.00     0.136 HD
ENDBRANCH  18  20
ENDBRANCH  11  16
ENDBRANCH   9  11
ENDBRANCH   1   7
BRANCH   4  22
HETATM   22  C   UNL     1       8.355   7.838  90.356  1.00  0.00    -0.059 C 
HETATM   23  C   UNL     1       9.078   6.912  90.613  1.00  0.00    -0.059 C 
BRANCH  23  24
HETATM   24  C   UNL     1       9.939   5.811  90.917  1.00  0.00     0.042 A 
HETATM   25  C   UNL     1      10.738   5.255  89.918  1.00  0.00     0.008 A 
HETATM   26  C   UNL     1      11.576   4.180  90.214  1.00  0.00    -0.002 A 
HETATM   27  C   UNL     1      11.616   3.663  91.509  1.00  0.00     0.011 A 
HETATM   28  C   UNL     1      10.816   4.220  92.507  1.00  0.00    -0.002 A 
HETATM   29  C   UNL     1       9.977   5.294  92.210  1.00  0.00     0.008 A 
BRANCH  27  30
HETATM   30  C   UNL     1      12.513   2.515  91.825  1.00  0.00     0.277 C 
BRANCH  30  31
HETATM   31  N   UNL     1      13.519   2.855  92.830  1.00  0.00     0.147 N 
HETATM   32  C   UNL     1      14.410   1.713  93.081  1.00  0.00     0.283 C 
HETATM   33  C   UNL     1      15.457   2.094  94.124  1.00  0.00     0.178 C 
HETATM   34  O   UNL     1      16.209   3.226  93.683  1.00  0.00    -0.350 OA
HETATM   35  C   UNL     1      15.354   4.350  93.466  1.00  0.00     0.178 C 
HETATM   36  C   UNL     1      14.305   4.023  92.409  1.00  0.00     0.283 C 
ENDBRANCH  30  31
ENDBRANCH  27  30
ENDBRANCH  23  24
ENDBRANCH   4  22
TORSDOF 10
ENDMDL
