MODEL 1
REMARK VINA RESULT:      -6.5      0.000      0.000
REMARK  12 active torsions:
REMARK  status: ('A' for Active; 'I' for Inactive)
REMARK    1  A    between atoms: O_2  and  C_16 
REMARK    2  A    between atoms: N_5  and  C_9 
REMARK    3  A    between atoms: N_6  and  C_13 
REMARK       I    between atoms: N_6  and  C_22 
REMARK    4  A    between atoms: C_9  and  C_12 
REMARK    5  A    between atoms: C_13  and  C_16 
REMARK    6  A    between atoms: C_13  and  C_21 
REMARK    7  A    between atoms: C_19  and  C_24 
REMARK    8  A    between atoms: C_21  and  C_33 
REMARK    9  A    between atoms: C_22  and  C_23 
REMARK   10  A    between atoms: C_27  and  C_30 
REMARK   11  A    between atoms: C_33  and  C_34 
REMARK   12  A    between atoms: C_34  and  C_35 
ROOT
HETATM    1  O   UNL     1      16.311   4.356  94.044  1.00  0.00    -0.350 OA
HETATM    2  N   UNL     1      14.615   2.656  92.516  1.00  0.00     0.147 N 
HETATM    3  C   UNL     1      14.512   4.119  92.432  1.00  0.00     0.283 C 
HETATM    4  C   UNL     1      15.105   2.261  93.844  1.00  0.00     0.283 C 
HETATM    5  C   UNL     1      15.866   4.752  92.745  1.00  0.00     0.178 C 
HETATM    6  C   UNL     1      16.444   2.937  94.124  1.00  0.00     0.178 C 
ENDROOT
BRANCH   2   7
HETATM    7  C   UNL     1      13.326   2.029  92.230  1.00  0.00     0.277 C 
BRANCH   7   8
HETATM    8  C   UNL     1      12.208   3.015  92.203  1.00  0.00     0.011 A 
HETATM    9  C   UNL     1      11.865   3.710  93.364  1.00  0.00    -0.002 A 
HETATM   10  C   UNL     1      10.819   4.632  93.341  1.00  0.00     0.008 A 
HETATM   11  C   UNL     1      10.117   4.859  92.157  1.00  0.00     0.042 A 
HETATM   12  C   UNL     1      10.458   4.165  90.998  1.00  0.00     0.008 A 
HETATM   13  C   UNL     1      11.505   3.243  91.021  1.00  0.00    -0.002 A 
BRANCH  11  14
HETATM   14  C   UNL     1       9.044   5.805  92.133  1.00  0.00    -0.059 C 
HETATM   15  C   UNL     1       8.142   6.600  92.113  1.00  0.00    -0.059 C 
BRANCH  15  16
HETATM   16  C   UNL     1       7.070   7.546  92.089  1.00  0.00     0.042 A 
HETATM   17  C   UNL     1       6.601   8.036  90.870  1.00  0.00     0.008 A 
HETATM   18  C   UNL     1       5.553   8.956  90.847  1.00  0.00     0.005 A 
HETATM   19  C   UNL     1       4.998   9.365  92.042  1.00  0.00     0.056 A 
HETATM   20  C   UNL     1       5.444   8.895  93.259  1.00  0.00     0.005 A 
HETATM   21  C   UNL     1       6.492   7.975  93.284  1.00  0.00     0.008 A 
BRANCH  19  22
HETATM   22  C   UNL     1       3.883  10.346  92.017  1.00  0.00     0.254 C 
HETATM   23  O   UNL     1       2.729   9.947  92.150  1.00  0.00    -0.268 OA
HETATM   24  N   UNL     1       4.247  11.677  91.865  1.00  0.00    -0.335 N 
HETATM   25  HN  UNL     1       5.224  11.935  91.785  1.00  0.00     0.164 HD
BRANCH  24  26
HETATM   26  C   UNL     1       3.284  12.748  91.846  1.00  0.00     0.166 C 
BRANCH  26  27
HETATM   27  C   UNL     1       3.630  13.875  92.827  1.00  0.00     0.138 C 
HETATM   28  C   UNL     1       4.407  13.375  94.040  1.00  0.00     0.034 C 
BRANCH  27  29
HETATM   29  O   UNL     1       4.404  14.870  92.158  1.00  0.00    -0.383 OA
HETATM   30  H   UNL     1       3.809  15.392  91.594  1.00  0.00     0.210 HD
ENDBRANCH  27  29
ENDBRANCH  26  27
BRANCH  26  31
HETATM   31  C   UNL     1       3.192  13.267  90.415  1.00  0.00     0.181 C 
HETATM   32  O   UNL     1       2.650  14.331  90.122  1.00  0.00    -0.294 OA
BRANCH  31  33
HETATM   33  C   UNL     1       4.640  13.282  89.686  1.00  0.00     0.138 C 
BRANCH  33  34
HETATM   34  C   UNL     1       4.333  12.661  88.455  1.00  0.00     0.208 C 
HETATM   35  O   UNL     1       4.839  13.151  87.471  1.00  0.00    -0.289 OA
BRANCH  34  36
HETATM   36  C   UNL     1       3.794  11.432  88.191  1.00  0.00     0.194 C 
HETATM   37  O   UNL     1       4.294  10.370  87.429  1.00  0.00    -0.185 OA
ENDBRANCH  34  36
ENDBRANCH  33  34
ENDBRANCH  31  33
ENDBRANCH  26  31
ENDBRANCH  24  26
ENDBRANCH  19  22
ENDBRANCH  15  16
ENDBRANCH  11  14
ENDBRANCH   7   8
ENDBRANCH   2   7
TORSDOF 12
ENDMDL
