MODEL 1
REMARK VINA RESULT:      -6.7      0.000      0.000
REMARK  10 active torsions:
REMARK  status: ('A' for Active; 'I' for Inactive)
REMARK    1  A    between atoms: O_2  and  C_18 
REMARK    2  A    between atoms: O_5  and  N_8 
REMARK    3  A    between atoms: N_6  and  C_11 
REMARK    4  A    between atoms: N_7  and  C_15 
REMARK       I    between atoms: N_7  and  C_24 
REMARK       I    between atoms: N_8  and  C_23 
REMARK    5  A    between atoms: C_11  and  C_14 
REMARK    6  A    between atoms: C_15  and  C_18 
REMARK    7  A    between atoms: C_15  and  C_23 
REMARK    8  A    between atoms: C_21  and  C_26 
REMARK    9  A    between atoms: C_24  and  C_25 
REMARK   10  A    between atoms: C_29  and  C_32 
ROOT
HETATM    1  O   UNK     0      17.292   4.267  93.833  0.00  0.00    -0.388 OA
HETATM    2  N   UNK     0      14.817   2.916  93.447  0.00  0.00     0.096 N 
HETATM    3  C   UNK     0      16.103   2.237  93.240  0.00  0.00     0.299 C 
HETATM    4  C   UNK     0      14.958   4.353  93.178  0.00  0.00     0.299 C 
HETATM    5  C   UNK     0      17.173   2.874  94.123  0.00  0.00     0.198 C 
HETATM    6  C   UNK     0      16.054   4.941  94.062  0.00  0.00     0.198 C 
ENDROOT
BRANCH   2   7
HETATM    7  C   UNK     0      13.779   2.329  92.602  0.00  0.00     0.311 C 
BRANCH   7   8
HETATM    8  C   UNK     0      12.668   3.283  92.320  0.00  0.00    -0.030 A 
HETATM    9  C   UNK     0      12.489   3.781  91.029  0.00  0.00     0.010 A 
HETATM   10  C   UNK     0      11.452   4.675  90.764  0.00  0.00     0.021 A 
HETATM   11  C   UNK     0      10.594   5.069  91.790  0.00  0.00     0.018 A 
HETATM   12  C   UNK     0      10.772   4.572  93.080  0.00  0.00     0.021 A 
HETATM   13  C   UNK     0      11.809   3.678  93.345  0.00  0.00     0.010 A 
BRANCH  11  14
HETATM   14  C   UNK     0       9.528   5.984  91.518  0.00  0.00    -0.061 C 
HETATM   15  C   UNK     0       8.633   6.754  91.289  0.00  0.00    -0.061 C 
BRANCH  15  16
HETATM   16  C   UNK     0       7.570   7.669  91.017  0.00  0.00     0.018 A 
HETATM   17  C   UNK     0       7.778   9.041  91.163  0.00  0.00     0.022 A 
HETATM   18  C   UNK     0       6.741   9.935  90.895  0.00  0.00     0.018 A 
HETATM   19  C   UNK     0       5.521   9.438  90.487  0.00  0.00     0.032 A 
HETATM   20  C   UNK     0       5.290   8.087  90.336  0.00  0.00     0.018 A 
HETATM   21  C   UNK     0       6.326   7.192  90.604  0.00  0.00     0.022 A 
BRANCH  19  22
HETATM   22  C   UNK     0       4.416  10.390  90.204  0.00  0.00     0.252 C 
HETATM   23  O   UNK     0       3.299   9.952  89.942  0.00  0.00    -0.268 OA
HETATM   24  N   UNK     0       4.740  11.738  90.284  0.00  0.00    -0.341 N 
HETATM   25  H   UNK     0       5.679  12.026  90.531  0.00  0.00     0.163 HD
BRANCH  24  26
HETATM   26  C   UNK     0       3.772  12.782  90.061  0.00  0.00     0.207 C 
BRANCH  26  27
HETATM   27  C   UNK     0       3.528  13.642  91.308  0.00  0.00     0.146 C 
HETATM   28  C   UNK     0       2.061  14.020  91.477  0.00  0.00     0.042 C 
BRANCH  27  29
HETATM   29  O   UNK     0       3.961  12.933  92.468  0.00  0.00    -0.393 OA
HETATM   30  H   UNK     0       4.599  13.490  92.946  0.00  0.00     0.210 HD
ENDBRANCH  27  29
ENDBRANCH  26  27
BRANCH  26  31
HETATM   31  C   UNK     0       4.263  13.629  88.891  0.00  0.00     0.266 C 
HETATM   32  O   UNK     0       4.467  14.838  88.979  0.00  0.00    -0.269 OA
HETATM   33  N   UNK     0       4.407  12.891  87.741  0.00  0.00    -0.236 N 
HETATM   34  H   UNK     0       4.164  11.916  87.611  0.00  0.00     0.197 HD
BRANCH  33  35
HETATM   35  O   UNK     0       4.819  13.605  86.606  0.00  0.00    -0.287 OA
HETATM   36  H   UNK     0       4.258  13.192  85.928  0.00  0.00     0.244 HD
ENDBRANCH  33  35
ENDBRANCH  26  31
ENDBRANCH  24  26
ENDBRANCH  19  22
ENDBRANCH  15  16
ENDBRANCH  11  14
ENDBRANCH   7   8
ENDBRANCH   2   7
TORSDOF 10
ENDMDL
MODEL 2
REMARK VINA RESULT:      -6.1      1.112      1.722
REMARK  10 active torsions:
REMARK  status: ('A' for Active; 'I' for Inactive)
REMARK    1  A    between atoms: O_2  and  C_18 
REMARK    2  A    between atoms: O_5  and  N_8 
REMARK    3  A    between atoms: N_6  and  C_11 
REMARK    4  A    between atoms: N_7  and  C_15 
REMARK       I    between atoms: N_7  and  C_24 
REMARK       I    between atoms: N_8  and  C_23 
REMARK    5  A    between atoms: C_11  and  C_14 
REMARK    6  A    between atoms: C_15  and  C_18 
REMARK    7  A    between atoms: C_15  and  C_23 
REMARK    8  A    between atoms: C_21  and  C_26 
REMARK    9  A    between atoms: C_24  and  C_25 
REMARK   10  A    between atoms: C_29  and  C_32 
ROOT
HETATM    1  O   UNK     0      16.841   3.592  94.122  0.00  0.00    -0.388 OA
HETATM    2  N   UNK     0      14.564   3.119  92.479  0.00  0.00     0.096 N 
HETATM    3  C   UNK     0      14.502   4.023  93.636  0.00  0.00     0.299 C 
HETATM    4  C   UNK     0      15.577   2.079  92.707  0.00  0.00     0.299 C 
HETATM    5  C   UNK     0      15.881   4.625  93.896  0.00  0.00     0.198 C 
HETATM    6  C   UNK     0      16.930   2.727  92.989  0.00  0.00     0.198 C 
ENDROOT
BRANCH   2   7
HETATM    7  C   UNK     0      13.256   2.521  92.218  0.00  0.00     0.311 C 
BRANCH   7   8
HETATM    8  C   UNK     0      12.204   3.547  91.965  0.00  0.00    -0.030 A 
HETATM    9  C   UNK     0      12.023   4.056  90.678  0.00  0.00     0.010 A 
HETATM   10  C   UNK     0      11.041   5.017  90.440  0.00  0.00     0.021 A 
HETATM   11  C   UNK     0      10.238   5.466  91.488  0.00  0.00     0.018 A 
HETATM   12  C   UNK     0      10.417   4.958  92.773  0.00  0.00     0.021 A 
HETATM   13  C   UNK     0      11.400   3.998  93.012  0.00  0.00     0.010 A 
BRANCH  11  14
HETATM   14  C   UNK     0       9.228   6.450  91.243  0.00  0.00    -0.061 C 
HETATM   15  C   UNK     0       8.380   7.277  91.037  0.00  0.00    -0.061 C 
BRANCH  15  16
HETATM   16  C   UNK     0       7.373   8.260  90.791  0.00  0.00     0.018 A 
HETATM   17  C   UNK     0       6.218   7.913  90.088  0.00  0.00     0.022 A 
HETATM   18  C   UNK     0       5.234   8.872  89.850  0.00  0.00     0.018 A 
HETATM   19  C   UNK     0       5.424  10.155  90.320  0.00  0.00     0.032 A 
HETATM   20  C   UNK     0       6.556  10.523  91.017  0.00  0.00     0.018 A 
HETATM   21  C   UNK     0       7.541   9.564  91.255  0.00  0.00     0.022 A 
BRANCH  19  22
HETATM   22  C   UNK     0       4.376  11.176  90.064  0.00  0.00     0.252 C 
HETATM   23  O   UNK     0       3.789  11.176  88.985  0.00  0.00    -0.268 OA
HETATM   24  N   UNK     0       4.120  12.059  91.105  0.00  0.00    -0.341 N 
HETATM   25  H   UNK     0       4.628  11.982  91.978  0.00  0.00     0.163 HD
BRANCH  24  26
HETATM   26  C   UNK     0       3.117  13.089  91.019  0.00  0.00     0.207 C 
BRANCH  26  27
HETATM   27  C   UNK     0       2.312  13.244  92.315  0.00  0.00     0.146 C 
HETATM   28  C   UNK     0       1.503  11.997  92.653  0.00  0.00     0.042 C 
BRANCH  27  29
HETATM   29  O   UNK     0       3.200  13.527  93.397  0.00  0.00    -0.393 OA
HETATM   30  H   UNK     0       3.925  12.881  93.373  0.00  0.00     0.210 HD
ENDBRANCH  27  29
ENDBRANCH  26  27
BRANCH  26  31
HETATM   31  C   UNK     0       3.816  14.390  90.641  0.00  0.00     0.266 C 
HETATM   32  O   UNK     0       3.810  15.387  91.361  0.00  0.00    -0.269 OA
HETATM   33  N   UNK     0       4.408  14.321  89.403  0.00  0.00    -0.236 N 
HETATM   34  H   UNK     0       4.357  13.550  88.748  0.00  0.00     0.197 HD
BRANCH  33  35
HETATM   35  O   UNK     0       5.042  15.492  88.964  0.00  0.00    -0.287 OA
HETATM   36  H   UNK     0       5.636  15.661  89.715  0.00  0.00     0.244 HD
ENDBRANCH  33  35
ENDBRANCH  26  31
ENDBRANCH  24  26
ENDBRANCH  19  22
ENDBRANCH  15  16
ENDBRANCH  11  14
ENDBRANCH   7   8
ENDBRANCH   2   7
TORSDOF 10
ENDMDL
MODEL 3
REMARK VINA RESULT:      -6.1      1.640      2.055
REMARK  10 active torsions:
REMARK  status: ('A' for Active; 'I' for Inactive)
REMARK    1  A    between atoms: O_2  and  C_18 
REMARK    2  A    between atoms: O_5  and  N_8 
REMARK    3  A    between atoms: N_6  and  C_11 
REMARK    4  A    between atoms: N_7  and  C_15 
REMARK       I    between atoms: N_7  and  C_24 
REMARK       I    between atoms: N_8  and  C_23 
REMARK    5  A    between atoms: C_11  and  C_14 
REMARK    6  A    between atoms: C_15  and  C_18 
REMARK    7  A    between atoms: C_15  and  C_23 
REMARK    8  A    between atoms: C_21  and  C_26 
REMARK    9  A    between atoms: C_24  and  C_25 
REMARK   10  A    between atoms: C_29  and  C_32 
ROOT
HETATM    1  O   UNK     0      16.500   4.308  94.043  0.00  0.00    -0.388 OA
HETATM    2  N   UNK     0      14.484   2.773  92.747  0.00  0.00     0.096 N 
HETATM    3  C   UNK     0      14.495   4.241  92.677  0.00  0.00     0.299 C 
HETATM    4  C   UNK     0      15.104   2.324  94.000  0.00  0.00     0.299 C 
HETATM    5  C   UNK     0      15.927   4.754  92.812  0.00  0.00     0.198 C 
HETATM    6  C   UNK     0      16.521   2.882  94.106  0.00  0.00     0.198 C 
ENDROOT
BRANCH   2   7
HETATM    7  C   UNK     0      13.120   2.260  92.630  0.00  0.00     0.311 C 
BRANCH   7   8
HETATM    8  C   UNK     0      12.099   3.346  92.666  0.00  0.00    -0.030 A 
HETATM    9  C   UNK     0      11.331   3.618  91.534  0.00  0.00     0.010 A 
HETATM   10  C   UNK     0      10.377   4.635  91.566  0.00  0.00     0.021 A 
HETATM   11  C   UNK     0      10.191   5.378  92.731  0.00  0.00     0.018 A 
HETATM   12  C   UNK     0      10.958   5.107  93.863  0.00  0.00     0.021 A 
HETATM   13  C   UNK     0      11.912   4.091  93.831  0.00  0.00     0.010 A 
BRANCH  11  14
HETATM   14  C   UNK     0       9.211   6.420  92.765  0.00  0.00    -0.061 C 
HETATM   15  C   UNK     0       8.388   7.296  92.794  0.00  0.00    -0.061 C 
BRANCH  15  16
HETATM   16  C   UNK     0       7.409   8.335  92.827  0.00  0.00     0.018 A 
HETATM   17  C   UNK     0       7.731   9.579  93.372  0.00  0.00     0.022 A 
HETATM   18  C   UNK     0       6.776  10.595  93.402  0.00  0.00     0.018 A 
HETATM   19  C   UNK     0       5.521  10.346  92.887  0.00  0.00     0.032 A 
HETATM   20  C   UNK     0       5.177   9.126  92.344  0.00  0.00     0.018 A 
HETATM   21  C   UNK     0       6.132   8.110  92.314  0.00  0.00     0.022 A 
BRANCH  19  22
HETATM   22  C   UNK     0       4.503  11.429  92.921  0.00  0.00     0.252 C 
HETATM   23  O   UNK     0       3.818  11.575  93.930  0.00  0.00    -0.268 OA
HETATM   24  N   UNK     0       4.424  12.225  91.787  0.00  0.00    -0.341 N 
HETATM   25  H   UNK     0       5.040  12.059  91.000  0.00  0.00     0.163 HD
BRANCH  24  26
HETATM   26  C   UNK     0       3.504  13.329  91.678  0.00  0.00     0.207 C 
BRANCH  26  27
HETATM   27  C   UNK     0       4.056  14.623  92.288  0.00  0.00     0.146 C 
HETATM   28  C   UNK     0       4.894  15.425  91.298  0.00  0.00     0.042 C 
BRANCH  27  29
HETATM   29  O   UNK     0       2.974  15.435  92.744  0.00  0.00    -0.393 OA
HETATM   30  H   UNK     0       2.809  16.124  92.078  0.00  0.00     0.210 HD
ENDBRANCH  27  29
ENDBRANCH  26  27
BRANCH  26  31
HETATM   31  C   UNK     0       3.169  13.511  90.201  0.00  0.00     0.266 C 
HETATM   32  O   UNK     0       2.401  14.379  89.791  0.00  0.00    -0.269 OA
HETATM   33  N   UNK     0       3.790  12.576  89.409  0.00  0.00    -0.236 N 
HETATM   34  H   UNK     0       4.355  11.795  89.721  0.00  0.00     0.197 HD
BRANCH  33  35
HETATM   35  O   UNK     0       3.503  12.651  88.038  0.00  0.00    -0.287 OA
HETATM   36  H   UNK     0       2.597  13.002  88.069  0.00  0.00     0.244 HD
ENDBRANCH  33  35
ENDBRANCH  26  31
ENDBRANCH  24  26
ENDBRANCH  19  22
ENDBRANCH  15  16
ENDBRANCH  11  14
ENDBRANCH   7   8
ENDBRANCH   2   7
TORSDOF 10
ENDMDL
MODEL 4
REMARK VINA RESULT:      -5.6      2.861     12.374
REMARK  10 active torsions:
REMARK  status: ('A' for Active; 'I' for Inactive)
REMARK    1  A    between atoms: O_2  and  C_18 
REMARK    2  A    between atoms: O_5  and  N_8 
REMARK    3  A    between atoms: N_6  and  C_11 
REMARK    4  A    between atoms: N_7  and  C_15 
REMARK       I    between atoms: N_7  and  C_24 
REMARK       I    between atoms: N_8  and  C_23 
REMARK    5  A    between atoms: C_11  and  C_14 
REMARK    6  A    between atoms: C_15  and  C_18 
REMARK    7  A    between atoms: C_15  and  C_23 
REMARK    8  A    between atoms: C_21  and  C_26 
REMARK    9  A    between atoms: C_24  and  C_25 
REMARK   10  A    between atoms: C_29  and  C_32 
ROOT
HETATM    1  O   UNK     0       3.048  14.767  93.934  0.00  0.00    -0.388 OA
HETATM    2  N   UNK     0       2.828  14.748  91.096  0.00  0.00     0.096 N 
HETATM    3  C   UNK     0       1.901  13.985  91.943  0.00  0.00     0.299 C 
HETATM    4  C   UNK     0       4.130  14.879  91.765  0.00  0.00     0.299 C 
HETATM    5  C   UNK     0       1.770  14.662  93.305  0.00  0.00     0.198 C 
HETATM    6  C   UNK     0       3.946  15.534  93.131  0.00  0.00     0.198 C 
ENDROOT
BRANCH   2   7
HETATM    7  C   UNK     0       2.978  14.112  89.789  0.00  0.00     0.311 C 
BRANCH   7   8
HETATM    8  C   UNK     0       3.964  12.994  89.811  0.00  0.00    -0.030 A 
HETATM    9  C   UNK     0       5.189  13.133  89.158  0.00  0.00     0.010 A 
HETATM   10  C   UNK     0       6.111  12.086  89.176  0.00  0.00     0.021 A 
HETATM   11  C   UNK     0       5.809  10.903  89.849  0.00  0.00     0.018 A 
HETATM   12  C   UNK     0       4.586  10.764  90.502  0.00  0.00     0.021 A 
HETATM   13  C   UNK     0       3.663  11.809  90.484  0.00  0.00     0.010 A 
BRANCH  11  14
HETATM   14  C   UNK     0       6.756   9.831  89.870  0.00  0.00    -0.061 C 
HETATM   15  C   UNK     0       7.552   8.930  89.887  0.00  0.00    -0.061 C 
BRANCH  15  16
HETATM   16  C   UNK     0       8.499   7.860  89.908  0.00  0.00     0.018 A 
HETATM   17  C   UNK     0       9.341   7.654  88.814  0.00  0.00     0.022 A 
HETATM   18  C   UNK     0      10.267   6.611  88.835  0.00  0.00     0.018 A 
HETATM   19  C   UNK     0      10.331   5.798  89.947  0.00  0.00     0.032 A 
HETATM   20  C   UNK     0       9.511   5.981  91.040  0.00  0.00     0.018 A 
HETATM   21  C   UNK     0       8.584   7.023  91.020  0.00  0.00     0.022 A 
BRANCH  19  22
HETATM   22  C   UNK     0      11.316   4.686  89.967  0.00  0.00     0.252 C 
HETATM   23  O   UNK     0      11.456   3.990  88.965  0.00  0.00    -0.268 OA
HETATM   24  N   UNK     0      12.038   4.535  91.143  0.00  0.00    -0.341 N 
HETATM   25  H   UNK     0      11.887   5.164  91.923  0.00  0.00     0.163 HD
BRANCH  24  26
HETATM   26  C   UNK     0      13.046   3.519  91.309  0.00  0.00     0.207 C 
BRANCH  26  27
HETATM   27  C   UNK     0      14.219   3.983  92.181  0.00  0.00     0.146 C 
HETATM   28  C   UNK     0      13.818   4.193  93.637  0.00  0.00     0.042 C 
BRANCH  27  29
HETATM   29  O   UNK     0      15.268   3.017  92.124  0.00  0.00    -0.393 OA
HETATM   30  H   UNK     0      15.396   2.760  91.196  0.00  0.00     0.210 HD
ENDBRANCH  27  29
ENDBRANCH  26  27
BRANCH  26  31
HETATM   31  C   UNK     0      12.371   2.285  91.900  0.00  0.00     0.266 C 
HETATM   32  O   UNK     0      12.911   1.181  91.939  0.00  0.00    -0.269 OA
HETATM   33  N   UNK     0      11.096   2.550  92.336  0.00  0.00    -0.236 N 
HETATM   34  H   UNK     0      10.590   3.422  92.237  0.00  0.00     0.197 HD
BRANCH  33  35
HETATM   35  O   UNK     0      10.391   1.457  92.859  0.00  0.00    -0.287 OA
HETATM   36  H   UNK     0      11.028   0.742  92.691  0.00  0.00     0.244 HD
ENDBRANCH  33  35
ENDBRANCH  26  31
ENDBRANCH  24  26
ENDBRANCH  19  22
ENDBRANCH  15  16
ENDBRANCH  11  14
ENDBRANCH   7   8
ENDBRANCH   2   7
TORSDOF 10
ENDMDL
MODEL 5
REMARK VINA RESULT:      -4.8      1.877     12.540
REMARK  10 active torsions:
REMARK  status: ('A' for Active; 'I' for Inactive)
REMARK    1  A    between atoms: O_2  and  C_18 
REMARK    2  A    between atoms: O_5  and  N_8 
REMARK    3  A    between atoms: N_6  and  C_11 
REMARK    4  A    between atoms: N_7  and  C_15 
REMARK       I    between atoms: N_7  and  C_24 
REMARK       I    between atoms: N_8  and  C_23 
REMARK    5  A    between atoms: C_11  and  C_14 
REMARK    6  A    between atoms: C_15  and  C_18 
REMARK    7  A    between atoms: C_15  and  C_23 
REMARK    8  A    between atoms: C_21  and  C_26 
REMARK    9  A    between atoms: C_24  and  C_25 
REMARK   10  A    between atoms: C_29  and  C_32 
ROOT
HETATM    1  O   UNK     0       3.753  14.491  92.100  0.00  0.00    -0.388 OA
HETATM    2  N   UNK     0       3.751  13.320  89.505  0.00  0.00     0.096 N 
HETATM    3  C   UNK     0       2.973  12.741  90.610  0.00  0.00     0.299 C 
HETATM    4  C   UNK     0       4.932  14.017  90.033  0.00  0.00     0.299 C 
HETATM    5  C   UNK     0       2.585  13.837  91.599  0.00  0.00     0.198 C 
HETATM    6  C   UNK     0       4.499  15.083  91.035  0.00  0.00     0.198 C 
ENDROOT
BRANCH   2   7
HETATM    7  C   UNK     0       4.143  12.285  88.550  0.00  0.00     0.311 C 
BRANCH   7   8
HETATM    8  C   UNK     0       5.091  11.297  89.140  0.00  0.00    -0.030 A 
HETATM    9  C   UNK     0       6.451  11.598  89.219  0.00  0.00     0.010 A 
HETATM   10  C   UNK     0       7.339  10.673  89.769  0.00  0.00     0.021 A 
HETATM   11  C   UNK     0       6.866   9.449  90.241  0.00  0.00     0.018 A 
HETATM   12  C   UNK     0       5.508   9.148  90.163  0.00  0.00     0.021 A 
HETATM   13  C   UNK     0       4.620  10.072  89.613  0.00  0.00     0.010 A 
BRANCH  11  14
HETATM   14  C   UNK     0       7.776   8.502  90.807  0.00  0.00    -0.061 C 
HETATM   15  C   UNK     0       8.541   7.706  91.283  0.00  0.00    -0.061 C 
BRANCH  15  16
HETATM   16  C   UNK     0       9.451   6.760  91.849  0.00  0.00     0.018 A 
HETATM   17  C   UNK     0      10.171   5.902  91.017  0.00  0.00     0.022 A 
HETATM   18  C   UNK     0      11.061   4.981  91.570  0.00  0.00     0.018 A 
HETATM   19  C   UNK     0      11.211   4.938  92.940  0.00  0.00     0.032 A 
HETATM   20  C   UNK     0      10.511   5.774  93.784  0.00  0.00     0.018 A 
HETATM   21  C   UNK     0       9.621   6.695  93.232  0.00  0.00     0.022 A 
BRANCH  19  22
HETATM   22  C   UNK     0      12.158   3.955  93.528  0.00  0.00     0.252 C 
HETATM   23  O   UNK     0      11.713   2.966  94.106  0.00  0.00    -0.268 OA
HETATM   24  N   UNK     0      13.507   4.228  93.350  0.00  0.00    -0.341 N 
HETATM   25  H   UNK     0      13.800   5.053  92.839  0.00  0.00     0.163 HD
BRANCH  24  26
HETATM   26  C   UNK     0      14.545   3.358  93.840  0.00  0.00     0.207 C 
BRANCH  26  27
HETATM   27  C   UNK     0      14.558   1.994  93.139  0.00  0.00     0.146 C 
HETATM   28  C   UNK     0      14.538   0.831  94.124  0.00  0.00     0.042 C 
BRANCH  27  29
HETATM   29  O   UNK     0      13.425   1.891  92.277  0.00  0.00    -0.393 OA
HETATM   30  H   UNK     0      12.992   1.037  92.444  0.00  0.00     0.210 HD
ENDBRANCH  27  29
ENDBRANCH  26  27
BRANCH  26  31
HETATM   31  C   UNK     0      15.877   4.081  93.670  0.00  0.00     0.266 C 
HETATM   32  O   UNK     0      15.963   5.246  93.285  0.00  0.00    -0.269 OA
HETATM   33  N   UNK     0      16.949   3.271  93.958  0.00  0.00    -0.236 N 
HETATM   34  H   UNK     0      16.918   2.285  94.191  0.00  0.00     0.197 HD
BRANCH  33  35
HETATM   35  O   UNK     0      18.215   3.849  93.789  0.00  0.00    -0.287 OA
HETATM   36  H   UNK     0      18.477   3.969  94.718  0.00  0.00     0.244 HD
ENDBRANCH  33  35
ENDBRANCH  26  31
ENDBRANCH  24  26
ENDBRANCH  19  22
ENDBRANCH  15  16
ENDBRANCH  11  14
ENDBRANCH   7   8
ENDBRANCH   2   7
TORSDOF 10
ENDMDL
MODEL 6
REMARK VINA RESULT:      -4.4      2.459     12.499
REMARK  10 active torsions:
REMARK  status: ('A' for Active; 'I' for Inactive)
REMARK    1  A    between atoms: O_2  and  C_18 
REMARK    2  A    between atoms: O_5  and  N_8 
REMARK    3  A    between atoms: N_6  and  C_11 
REMARK    4  A    between atoms: N_7  and  C_15 
REMARK       I    between atoms: N_7  and  C_24 
REMARK       I    between atoms: N_8  and  C_23 
REMARK    5  A    between atoms: C_11  and  C_14 
REMARK    6  A    between atoms: C_15  and  C_18 
REMARK    7  A    between atoms: C_15  and  C_23 
REMARK    8  A    between atoms: C_21  and  C_26 
REMARK    9  A    between atoms: C_24  and  C_25 
REMARK   10  A    between atoms: C_29  and  C_32 
ROOT
HETATM    1  O   UNK     0       3.808  14.799  90.055  0.00  0.00    -0.388 OA
HETATM    2  N   UNK     0       3.007  14.036  92.677  0.00  0.00     0.096 N 
HETATM    3  C   UNK     0       4.416  14.295  92.350  0.00  0.00     0.299 C 
HETATM    4  C   UNK     0       2.293  13.557  91.487  0.00  0.00     0.299 C 
HETATM    5  C   UNK     0       4.503  15.296  91.200  0.00  0.00     0.198 C 
HETATM    6  C   UNK     0       2.430  14.574  90.357  0.00  0.00     0.198 C 
ENDROOT
BRANCH   2   7
HETATM    7  C   UNK     0       2.899  13.072  93.770  0.00  0.00     0.311 C 
BRANCH   7   8
HETATM    8  C   UNK     0       3.896  11.969  93.656  0.00  0.00    -0.030 A 
HETATM    9  C   UNK     0       3.519  10.742  93.109  0.00  0.00     0.010 A 
HETATM   10  C   UNK     0       4.450   9.710  93.004  0.00  0.00     0.021 A 
HETATM   11  C   UNK     0       5.759   9.906  93.443  0.00  0.00     0.018 A 
HETATM   12  C   UNK     0       6.137  11.131  93.989  0.00  0.00     0.021 A 
HETATM   13  C   UNK     0       5.206  12.163  94.095  0.00  0.00     0.010 A 
BRANCH  11  14
HETATM   14  C   UNK     0       6.715   8.847  93.333  0.00  0.00    -0.061 C 
HETATM   15  C   UNK     0       7.519   7.958  93.240  0.00  0.00    -0.061 C 
BRANCH  15  16
HETATM   16  C   UNK     0       8.475   6.901  93.129  0.00  0.00     0.018 A 
HETATM   17  C   UNK     0       9.528   6.816  94.041  0.00  0.00     0.022 A 
HETATM   18  C   UNK     0      10.460   5.783  93.933  0.00  0.00     0.018 A 
HETATM   19  C   UNK     0      10.318   4.860  92.919  0.00  0.00     0.032 A 
HETATM   20  C   UNK     0       9.287   4.922  92.006  0.00  0.00     0.018 A 
HETATM   21  C   UNK     0       8.355   5.955  92.112  0.00  0.00     0.022 A 
BRANCH  19  22
HETATM   22  C   UNK     0      11.312   3.761  92.805  0.00  0.00     0.252 C 
HETATM   23  O   UNK     0      10.925   2.596  92.844  0.00  0.00    -0.268 OA
HETATM   24  N   UNK     0      12.633   4.152  92.633  0.00  0.00    -0.341 N 
HETATM   25  H   UNK     0      12.875   5.135  92.585  0.00  0.00     0.163 HD
BRANCH  24  26
HETATM   26  C   UNK     0      13.708   3.205  92.483  0.00  0.00     0.207 C 
BRANCH  26  27
HETATM   27  C   UNK     0      14.132   3.016  91.021  0.00  0.00     0.146 C 
HETATM   28  C   UNK     0      13.394   3.955  90.073  0.00  0.00     0.042 C 
BRANCH  27  29
HETATM   29  O   UNK     0      15.536   3.243  90.898  0.00  0.00    -0.393 OA
HETATM   30  H   UNK     0      15.825   3.784  91.652  0.00  0.00     0.210 HD
ENDBRANCH  27  29
ENDBRANCH  26  27
BRANCH  26  31
HETATM   31  C   UNK     0      14.875   3.684  93.341  0.00  0.00     0.266 C 
HETATM   32  O   UNK     0      14.891   4.780  93.897  0.00  0.00    -0.269 OA
HETATM   33  N   UNK     0      15.900   2.770  93.380  0.00  0.00    -0.236 N 
HETATM   34  H   UNK     0      15.957   1.900  92.864  0.00  0.00     0.197 HD
BRANCH  33  35
HETATM   35  O   UNK     0      17.029   3.151  94.119  0.00  0.00    -0.287 OA
HETATM   36  H   UNK     0      17.350   3.892  93.577  0.00  0.00     0.244 HD
ENDBRANCH  33  35
ENDBRANCH  26  31
ENDBRANCH  24  26
ENDBRANCH  19  22
ENDBRANCH  15  16
ENDBRANCH  11  14
ENDBRANCH   7   8
ENDBRANCH   2   7
TORSDOF 10
ENDMDL
MODEL 7
REMARK VINA RESULT:      -4.1      1.890      3.005
REMARK  10 active torsions:
REMARK  status: ('A' for Active; 'I' for Inactive)
REMARK    1  A    between atoms: O_2  and  C_18 
REMARK    2  A    between atoms: O_5  and  N_8 
REMARK    3  A    between atoms: N_6  and  C_11 
REMARK    4  A    between atoms: N_7  and  C_15 
REMARK       I    between atoms: N_7  and  C_24 
REMARK       I    between atoms: N_8  and  C_23 
REMARK    5  A    between atoms: C_11  and  C_14 
REMARK    6  A    between atoms: C_15  and  C_18 
REMARK    7  A    between atoms: C_15  and  C_23 
REMARK    8  A    between atoms: C_21  and  C_26 
REMARK    9  A    between atoms: C_24  and  C_25 
REMARK   10  A    between atoms: C_29  and  C_32 
ROOT
HETATM    1  O   UNK     0      16.476   2.321  93.296  0.00  0.00    -0.388 OA
HETATM    2  N   UNK     0      13.662   2.487  92.903  0.00  0.00     0.096 N 
HETATM    3  C   UNK     0      14.339   1.194  93.073  0.00  0.00     0.299 C 
HETATM    4  C   UNK     0      14.580   3.460  92.298  0.00  0.00     0.299 C 
HETATM    5  C   UNK     0      15.600   1.377  93.914  0.00  0.00     0.198 C 
HETATM    6  C   UNK     0      15.836   3.590  93.155  0.00  0.00     0.198 C 
ENDROOT
BRANCH   2   7
HETATM    7  C   UNK     0      12.455   2.337  92.092  0.00  0.00     0.311 C 
BRANCH   7   8
HETATM    8  C   UNK     0      11.566   3.531  92.171  0.00  0.00    -0.030 A 
HETATM    9  C   UNK     0      11.850   4.663  91.407  0.00  0.00     0.010 A 
HETATM   10  C   UNK     0      11.020   5.782  91.482  0.00  0.00     0.021 A 
HETATM   11  C   UNK     0       9.904   5.765  92.319  0.00  0.00     0.018 A 
HETATM   12  C   UNK     0       9.619   4.635  93.081  0.00  0.00     0.021 A 
HETATM   13  C   UNK     0      10.449   3.517  93.007  0.00  0.00     0.010 A 
BRANCH  11  14
HETATM   14  C   UNK     0       9.051   6.912  92.394  0.00  0.00    -0.061 C 
HETATM   15  C   UNK     0       8.334   7.875  92.457  0.00  0.00    -0.061 C 
BRANCH  15  16
HETATM   16  C   UNK     0       7.482   9.019  92.532  0.00  0.00     0.018 A 
HETATM   17  C   UNK     0       7.569   9.883  93.624  0.00  0.00     0.022 A 
HETATM   18  C   UNK     0       6.738  11.001  93.696  0.00  0.00     0.018 A 
HETATM   19  C   UNK     0       5.839  11.231  92.676  0.00  0.00     0.032 A 
HETATM   20  C   UNK     0       5.732  10.392  91.586  0.00  0.00     0.018 A 
HETATM   21  C   UNK     0       6.563   9.273  91.514  0.00  0.00     0.022 A 
BRANCH  19  22
HETATM   22  C   UNK     0       4.953  12.421  92.754  0.00  0.00     0.252 C 
HETATM   23  O   UNK     0       4.619  12.848  93.856  0.00  0.00    -0.268 OA
HETATM   24  N   UNK     0       4.583  12.984  91.540  0.00  0.00    -0.341 N 
HETATM   25  H   UNK     0       4.919  12.591  90.669  0.00  0.00     0.163 HD
BRANCH  24  26
HETATM   26  C   UNK     0       3.748  14.155  91.452  0.00  0.00     0.207 C 
BRANCH  26  27
HETATM   27  C   UNK     0       3.427  14.547  90.004  0.00  0.00     0.146 C 
HETATM   28  C   UNK     0       4.596  15.244  89.315  0.00  0.00     0.042 C 
BRANCH  27  29
HETATM   29  O   UNK     0       3.080  13.380  89.259  0.00  0.00    -0.393 OA
HETATM   30  H   UNK     0       3.898  12.897  89.049  0.00  0.00     0.210 HD
ENDBRANCH  27  29
ENDBRANCH  26  27
BRANCH  26  31
HETATM   31  C   UNK     0       2.476  13.881  92.246  0.00  0.00     0.266 C 
HETATM   32  O   UNK     0       1.646  13.036  91.913  0.00  0.00    -0.269 OA
HETATM   33  N   UNK     0       2.357  14.707  93.338  0.00  0.00    -0.236 N 
HETATM   34  H   UNK     0       2.974  15.470  93.591  0.00  0.00     0.197 HD
BRANCH  33  35
HETATM   35  O   UNK     0       1.193  14.545  94.102  0.00  0.00    -0.287 OA
HETATM   36  H   UNK     0       0.535  14.429  93.396  0.00  0.00     0.244 HD
ENDBRANCH  33  35
ENDBRANCH  26  31
ENDBRANCH  24  26
ENDBRANCH  19  22
ENDBRANCH  15  16
ENDBRANCH  11  14
ENDBRANCH   7   8
ENDBRANCH   2   7
TORSDOF 10
ENDMDL
