MODEL 1
REMARK VINA RESULT:      -6.2      0.000      0.000
REMARK  12 active torsions:
REMARK  status: ('A' for Active; 'I' for Inactive)
REMARK    1  A    between atoms: O_2  and  C_16 
REMARK    2  A    between atoms: N_5  and  C_9 
REMARK    3  A    between atoms: N_6  and  C_13 
REMARK       I    between atoms: N_6  and  C_22 
REMARK    4  A    between atoms: C_9  and  C_12 
REMARK    5  A    between atoms: C_13  and  C_16 
REMARK    6  A    between atoms: C_13  and  C_21 
REMARK    7  A    between atoms: C_19  and  C_24 
REMARK    8  A    between atoms: C_21  and  C_33 
REMARK    9  A    between atoms: C_22  and  C_23 
REMARK   10  A    between atoms: C_27  and  C_30 
REMARK   11  A    between atoms: C_33  and  C_34 
REMARK   12  A    between atoms: C_34  and  C_35 
ROOT
HETATM    1  O   UNL     1      16.692   3.700  93.818  1.00  0.00    -0.350 OA
HETATM    2  N   UNL     1      14.113   3.133  92.757  1.00  0.00     0.147 N 
HETATM    3  C   UNL     1      15.100   2.069  92.986  1.00  0.00     0.283 C 
HETATM    4  C   UNL     1      14.797   4.403  92.477  1.00  0.00     0.283 C 
HETATM    5  C   UNL     1      16.036   2.469  94.124  1.00  0.00     0.178 C 
HETATM    6  C   UNL     1      15.741   4.747  93.625  1.00  0.00     0.178 C 
ENDROOT
BRANCH   2   7
HETATM    7  C   UNL     1      13.211   2.776  91.663  1.00  0.00     0.277 C 
BRANCH   7   8
HETATM    8  C   UNL     1      12.045   3.700  91.564  1.00  0.00     0.011 A 
HETATM    9  C   UNL     1      11.700   4.255  90.331  1.00  0.00    -0.002 A 
HETATM   10  C   UNL     1      10.610   5.121  90.237  1.00  0.00     0.008 A 
HETATM   11  C   UNL     1       9.866   5.430  91.375  1.00  0.00     0.042 A 
HETATM   12  C   UNL     1      10.210   4.876  92.607  1.00  0.00     0.008 A 
HETATM   13  C   UNL     1      11.300   4.010  92.701  1.00  0.00    -0.002 A 
BRANCH  11  14
HETATM   14  C   UNL     1       8.748   6.316  91.279  1.00  0.00    -0.059 C 
HETATM   15  C   UNL     1       7.808   7.062  91.196  1.00  0.00    -0.059 C 
BRANCH  15  16
HETATM   16  C   UNL     1       6.690   7.948  91.099  1.00  0.00     0.042 A 
HETATM   17  C   UNL     1       6.782   9.245  91.604  1.00  0.00     0.008 A 
HETATM   18  C   UNL     1       5.692  10.109  91.506  1.00  0.00     0.005 A 
HETATM   19  C   UNL     1       4.536   9.659  90.905  1.00  0.00     0.056 A 
HETATM   20  C   UNL     1       4.419   8.382  90.398  1.00  0.00     0.005 A 
HETATM   21  C   UNL     1       5.508   7.516  90.496  1.00  0.00     0.008 A 
BRANCH  19  22
HETATM   22  C   UNL     1       3.374  10.580  90.803  1.00  0.00     0.254 C 
HETATM   23  O   UNL     1       2.415  10.261  90.104  1.00  0.00    -0.268 OA
HETATM   24  N   UNL     1       3.458  11.749  91.546  1.00  0.00    -0.335 N 
HETATM   25  HN  UNL     1       4.272  11.934  92.120  1.00  0.00     0.164 HD
BRANCH  24  26
HETATM   26  C   UNL     1       2.403  12.730  91.570  1.00  0.00     0.166 C 
BRANCH  26  27
HETATM   27  C   UNL     1       1.747  12.863  92.950  1.00  0.00     0.138 C 
HETATM   28  C   UNL     1       1.530  11.513  93.625  1.00  0.00     0.034 C 
BRANCH  27  29
HETATM   29  O   UNL     1       2.566  13.675  93.791  1.00  0.00    -0.383 OA
HETATM   30  H   UNL     1       2.042  14.442  94.078  1.00  0.00     0.210 HD
ENDBRANCH  27  29
ENDBRANCH  26  27
BRANCH  26  31
HETATM   31  C   UNL     1       2.992  14.059  91.106  1.00  0.00     0.181 C 
HETATM   32  O   UNL     1       2.732  15.132  91.647  1.00  0.00    -0.294 OA
BRANCH  31  33
HETATM   33  C   UNL     1       4.607  13.993  90.985  1.00  0.00     0.138 C 
BRANCH  33  34
HETATM   34  C   UNL     1       4.803  14.477  89.673  1.00  0.00     0.208 C 
HETATM   35  O   UNL     1       5.171  15.625  89.578  1.00  0.00    -0.289 OA
BRANCH  34  36
HETATM   36  C   UNL     1       4.929  13.804  88.488  1.00  0.00     0.194 C 
HETATM   37  O   UNL     1       5.128  12.441  88.239  1.00  0.00    -0.185 OA
ENDBRANCH  34  36
ENDBRANCH  33  34
ENDBRANCH  31  33
ENDBRANCH  26  31
ENDBRANCH  24  26
ENDBRANCH  19  22
ENDBRANCH  15  16
ENDBRANCH  11  14
ENDBRANCH   7   8
ENDBRANCH   2   7
TORSDOF 12
ENDMDL
MODEL 2
REMARK VINA RESULT:      -4.7      1.606      2.302
REMARK  12 active torsions:
REMARK  status: ('A' for Active; 'I' for Inactive)
REMARK    1  A    between atoms: O_2  and  C_16 
REMARK    2  A    between atoms: N_5  and  C_9 
REMARK    3  A    between atoms: N_6  and  C_13 
REMARK       I    between atoms: N_6  and  C_22 
REMARK    4  A    between atoms: C_9  and  C_12 
REMARK    5  A    between atoms: C_13  and  C_16 
REMARK    6  A    between atoms: C_13  and  C_21 
REMARK    7  A    between atoms: C_19  and  C_24 
REMARK    8  A    between atoms: C_21  and  C_33 
REMARK    9  A    between atoms: C_22  and  C_23 
REMARK   10  A    between atoms: C_27  and  C_30 
REMARK   11  A    between atoms: C_33  and  C_34 
REMARK   12  A    between atoms: C_34  and  C_35 
ROOT
HETATM    1  O   UNL     1      16.342   2.787  92.851  1.00  0.00    -0.350 OA
HETATM    2  N   UNL     1      13.502   2.925  92.991  1.00  0.00     0.147 N 
HETATM    3  C   UNL     1      14.248   1.814  93.598  1.00  0.00     0.283 C 
HETATM    4  C   UNL     1      14.242   3.457  91.838  1.00  0.00     0.283 C 
HETATM    5  C   UNL     1      15.646   2.284  93.993  1.00  0.00     0.178 C 
HETATM    6  C   UNL     1      15.639   3.888  92.273  1.00  0.00     0.178 C 
ENDROOT
BRANCH   2   7
HETATM    7  C   UNL     1      12.163   2.494  92.595  1.00  0.00     0.277 C 
BRANCH   7   8
HETATM    8  C   UNL     1      11.175   3.611  92.623  1.00  0.00     0.011 A 
HETATM    9  C   UNL     1      11.284   4.612  93.589  1.00  0.00    -0.002 A 
HETATM   10  C   UNL     1      10.359   5.656  93.617  1.00  0.00     0.008 A 
HETATM   11  C   UNL     1       9.328   5.699  92.679  1.00  0.00     0.042 A 
HETATM   12  C   UNL     1       9.219   4.700  91.715  1.00  0.00     0.008 A 
HETATM   13  C   UNL     1      10.143   3.655  91.686  1.00  0.00    -0.002 A 
BRANCH  11  14
HETATM   14  C   UNL     1       8.381   6.771  92.708  1.00  0.00    -0.059 C 
HETATM   15  C   UNL     1       7.586   7.672  92.731  1.00  0.00    -0.059 C 
BRANCH  15  16
HETATM   16  C   UNL     1       6.639   8.743  92.758  1.00  0.00     0.042 A 
HETATM   17  C   UNL     1       5.369   8.565  92.208  1.00  0.00     0.008 A 
HETATM   18  C   UNL     1       4.445   9.609  92.238  1.00  0.00     0.005 A 
HETATM   19  C   UNL     1       4.810  10.806  92.817  1.00  0.00     0.056 A 
HETATM   20  C   UNL     1       6.058  11.007  93.367  1.00  0.00     0.005 A 
HETATM   21  C   UNL     1       6.983   9.964  93.338  1.00  0.00     0.008 A 
BRANCH  19  22
HETATM   22  C   UNL     1       3.825  11.919  92.846  1.00  0.00     0.254 C 
HETATM   23  O   UNL     1       2.788  11.784  93.491  1.00  0.00    -0.268 OA
HETATM   24  N   UNL     1       4.178  13.062  92.143  1.00  0.00    -0.335 N 
HETATM   25  HN  UNL     1       5.064  13.110  91.654  1.00  0.00     0.164 HD
BRANCH  24  26
HETATM   26  C   UNL     1       3.341  14.233  92.096  1.00  0.00     0.166 C 
BRANCH  26  27
HETATM   27  C   UNL     1       3.735  15.287  93.139  1.00  0.00     0.138 C 
HETATM   28  C   UNL     1       2.608  15.584  94.123  1.00  0.00     0.034 C 
BRANCH  27  29
HETATM   29  O   UNL     1       4.877  14.835  93.866  1.00  0.00    -0.383 OA
HETATM   30  H   UNL     1       4.786  15.126  94.789  1.00  0.00     0.210 HD
ENDBRANCH  27  29
ENDBRANCH  26  27
BRANCH  26  31
HETATM   31  C   UNL     1       3.411  14.800  90.682  1.00  0.00     0.181 C 
HETATM   32  O   UNL     1       4.438  15.276  90.201  1.00  0.00    -0.294 OA
BRANCH  31  33
HETATM   33  C   UNL     1       2.841  13.753  89.584  1.00  0.00     0.138 C 
BRANCH  33  34
HETATM   34  C   UNL     1       4.035  13.142  89.143  1.00  0.00     0.208 C 
HETATM   35  O   UNL     1       4.124  11.950  89.328  1.00  0.00    -0.289 OA
BRANCH  34  36
HETATM   36  C   UNL     1       5.000  13.596  88.285  1.00  0.00     0.194 C 
HETATM   37  O   UNL     1       6.343  13.225  88.157  1.00  0.00    -0.185 OA
ENDBRANCH  34  36
ENDBRANCH  33  34
ENDBRANCH  31  33
ENDBRANCH  26  31
ENDBRANCH  24  26
ENDBRANCH  19  22
ENDBRANCH  15  16
ENDBRANCH  11  14
ENDBRANCH   7   8
ENDBRANCH   2   7
TORSDOF 12
ENDMDL
MODEL 3
REMARK VINA RESULT:      -3.6      2.783     12.358
REMARK  12 active torsions:
REMARK  status: ('A' for Active; 'I' for Inactive)
REMARK    1  A    between atoms: O_2  and  C_16 
REMARK    2  A    between atoms: N_5  and  C_9 
REMARK    3  A    between atoms: N_6  and  C_13 
REMARK       I    between atoms: N_6  and  C_22 
REMARK    4  A    between atoms: C_9  and  C_12 
REMARK    5  A    between atoms: C_13  and  C_16 
REMARK    6  A    between atoms: C_13  and  C_21 
REMARK    7  A    between atoms: C_19  and  C_24 
REMARK    8  A    between atoms: C_21  and  C_33 
REMARK    9  A    between atoms: C_22  and  C_23 
REMARK   10  A    between atoms: C_27  and  C_30 
REMARK   11  A    between atoms: C_33  and  C_34 
REMARK   12  A    between atoms: C_34  and  C_35 
ROOT
HETATM    1  O   UNL     1       1.805  13.516  94.124  1.00  0.00    -0.350 OA
HETATM    2  N   UNL     1       1.911  13.833  91.297  1.00  0.00     0.147 N 
HETATM    3  C   UNL     1       1.918  12.503  91.922  1.00  0.00     0.283 C 
HETATM    4  C   UNL     1       2.516  14.818  92.204  1.00  0.00     0.283 C 
HETATM    5  C   UNL     1       1.189  12.557  93.262  1.00  0.00     0.178 C 
HETATM    6  C   UNL     1       1.775  14.818  93.537  1.00  0.00     0.178 C 
ENDROOT
BRANCH   2   7
HETATM    7  C   UNL     1       2.613  13.806  90.016  1.00  0.00     0.277 C 
BRANCH   7   8
HETATM    8  C   UNL     1       3.620  12.709  89.942  1.00  0.00     0.011 A 
HETATM    9  C   UNL     1       4.631  12.626  90.900  1.00  0.00    -0.002 A 
HETATM   10  C   UNL     1       5.575  11.601  90.831  1.00  0.00     0.008 A 
HETATM   11  C   UNL     1       5.505  10.659  89.806  1.00  0.00     0.042 A 
HETATM   12  C   UNL     1       4.496  10.740  88.849  1.00  0.00     0.008 A 
HETATM   13  C   UNL     1       3.552  11.766  88.917  1.00  0.00    -0.002 A 
BRANCH  11  14
HETATM   14  C   UNL     1       6.472   9.606  89.736  1.00  0.00    -0.059 C 
HETATM   15  C   UNL     1       7.283   8.721  89.679  1.00  0.00    -0.059 C 
BRANCH  15  16
HETATM   16  C   UNL     1       8.249   7.669  89.609  1.00  0.00     0.042 A 
HETATM   17  C   UNL     1       7.880   6.363  89.934  1.00  0.00     0.008 A 
HETATM   18  C   UNL     1       8.821   5.336  89.863  1.00  0.00     0.005 A 
HETATM   19  C   UNL     1      10.108   5.637  89.469  1.00  0.00     0.056 A 
HETATM   20  C   UNL     1      10.497   6.919  89.143  1.00  0.00     0.005 A 
HETATM   21  C   UNL     1       9.557   7.947  89.213  1.00  0.00     0.008 A 
BRANCH  19  22
HETATM   22  C   UNL     1      11.111   4.543  89.395  1.00  0.00     0.254 C 
HETATM   23  O   UNL     1      11.291   3.965  88.326  1.00  0.00    -0.268 OA
HETATM   24  N   UNL     1      11.800   4.270  90.569  1.00  0.00    -0.335 N 
HETATM   25  HN  UNL     1      11.616   4.807  91.408  1.00  0.00     0.164 HD
BRANCH  24  26
HETATM   26  C   UNL     1      12.820   3.256  90.651  1.00  0.00     0.166 C 
BRANCH  26  27
HETATM   27  C   UNL     1      14.239   3.838  90.641  1.00  0.00     0.138 C 
HETATM   28  C   UNL     1      14.557   4.624  91.909  1.00  0.00     0.034 C 
BRANCH  27  29
HETATM   29  O   UNL     1      15.188   2.781  90.502  1.00  0.00    -0.383 OA
HETATM   30  H   UNL     1      15.968   2.999  91.038  1.00  0.00     0.210 HD
ENDBRANCH  27  29
ENDBRANCH  26  27
BRANCH  26  31
HETATM   31  C   UNL     1      12.564   2.440  91.915  1.00  0.00     0.181 C 
HETATM   32  O   UNL     1      13.279   1.501  92.262  1.00  0.00    -0.294 OA
BRANCH  31  33
HETATM   33  C   UNL     1      12.397   3.387  93.219  1.00  0.00     0.138 C 
BRANCH  33  34
HETATM   34  C   UNL     1      11.101   3.910  93.013  1.00  0.00     0.208 C 
HETATM   35  O   UNL     1      10.265   3.125  92.629  1.00  0.00    -0.289 OA
BRANCH  34  36
HETATM   36  C   UNL     1      10.540   5.083  93.438  1.00  0.00     0.194 C 
HETATM   37  O   UNL     1      10.265   6.261  92.734  1.00  0.00    -0.185 OA
ENDBRANCH  34  36
ENDBRANCH  33  34
ENDBRANCH  31  33
ENDBRANCH  26  31
ENDBRANCH  24  26
ENDBRANCH  19  22
ENDBRANCH  15  16
ENDBRANCH  11  14
ENDBRANCH   7   8
ENDBRANCH   2   7
TORSDOF 12
ENDMDL
MODEL 4
REMARK VINA RESULT:      -3.5      2.291     12.740
REMARK  12 active torsions:
REMARK  status: ('A' for Active; 'I' for Inactive)
REMARK    1  A    between atoms: O_2  and  C_16 
REMARK    2  A    between atoms: N_5  and  C_9 
REMARK    3  A    between atoms: N_6  and  C_13 
REMARK       I    between atoms: N_6  and  C_22 
REMARK    4  A    between atoms: C_9  and  C_12 
REMARK    5  A    between atoms: C_13  and  C_16 
REMARK    6  A    between atoms: C_13  and  C_21 
REMARK    7  A    between atoms: C_19  and  C_24 
REMARK    8  A    between atoms: C_21  and  C_33 
REMARK    9  A    between atoms: C_22  and  C_23 
REMARK   10  A    between atoms: C_27  and  C_30 
REMARK   11  A    between atoms: C_33  and  C_34 
REMARK   12  A    between atoms: C_34  and  C_35 
ROOT
HETATM    1  O   UNL     1       2.677  14.848  93.858  1.00  0.00    -0.350 OA
HETATM    2  N   UNL     1       2.567  14.530  91.031  1.00  0.00     0.147 N 
HETATM    3  C   UNL     1       1.553  13.933  91.911  1.00  0.00     0.283 C 
HETATM    4  C   UNL     1       3.848  14.643  91.743  1.00  0.00     0.283 C 
HETATM    5  C   UNL     1       1.420  14.764  93.185  1.00  0.00     0.178 C 
HETATM    6  C   UNL     1       3.661  15.456  93.020  1.00  0.00     0.178 C 
ENDROOT
BRANCH   2   7
HETATM    7  C   UNL     1       2.720  13.743  89.809  1.00  0.00     0.277 C 
BRANCH   7   8
HETATM    8  C   UNL     1       3.735  12.661  89.952  1.00  0.00     0.011 A 
HETATM    9  C   UNL     1       3.354  11.408  90.435  1.00  0.00    -0.002 A 
HETATM   10  C   UNL     1       4.303  10.396  90.572  1.00  0.00     0.008 A 
HETATM   11  C   UNL     1       5.632  10.635  90.224  1.00  0.00     0.042 A 
HETATM   12  C   UNL     1       6.013  11.885  89.742  1.00  0.00     0.008 A 
HETATM   13  C   UNL     1       5.065  12.899  89.605  1.00  0.00    -0.002 A 
BRANCH  11  14
HETATM   14  C   UNL     1       6.605   9.596  90.363  1.00  0.00    -0.059 C 
HETATM   15  C   UNL     1       7.422   8.722  90.480  1.00  0.00    -0.059 C 
BRANCH  15  16
HETATM   16  C   UNL     1       8.394   7.682  90.618  1.00  0.00     0.042 A 
HETATM   17  C   UNL     1       9.299   7.433  89.585  1.00  0.00     0.008 A 
HETATM   18  C   UNL     1      10.249   6.421  89.721  1.00  0.00     0.005 A 
HETATM   19  C   UNL     1      10.273   5.681  90.885  1.00  0.00     0.056 A 
HETATM   20  C   UNL     1       9.389   5.908  91.920  1.00  0.00     0.005 A 
HETATM   21  C   UNL     1       8.439   6.920  91.785  1.00  0.00     0.008 A 
BRANCH  19  22
HETATM   22  C   UNL     1      11.284   4.602  91.029  1.00  0.00     0.254 C 
HETATM   23  O   UNL     1      11.579   3.922  90.049  1.00  0.00    -0.268 OA
HETATM   24  N   UNL     1      11.847   4.460  92.289  1.00  0.00    -0.335 N 
HETATM   25  HN  UNL     1      11.572   5.075  93.046  1.00  0.00     0.164 HD
BRANCH  24  26
HETATM   26  C   UNL     1      12.858   3.475  92.581  1.00  0.00     0.166 C 
BRANCH  26  27
HETATM   27  C   UNL     1      12.313   2.042  92.564  1.00  0.00     0.138 C 
HETATM   28  C   UNL     1      10.839   1.973  92.948  1.00  0.00     0.034 C 
BRANCH  27  29
HETATM   29  O   UNL     1      12.479   1.483  91.261  1.00  0.00    -0.383 OA
HETATM   30  H   UNL     1      12.640   0.529  91.357  1.00  0.00     0.210 HD
ENDBRANCH  27  29
ENDBRANCH  26  27
BRANCH  26  31
HETATM   31  C   UNL     1      13.985   3.651  91.568  1.00  0.00     0.181 C 
HETATM   32  O   UNL     1      14.453   4.749  91.271  1.00  0.00    -0.294 OA
BRANCH  31  33
HETATM   33  C   UNL     1      15.252   2.697  91.905  1.00  0.00     0.138 C 
BRANCH  33  34
HETATM   34  C   UNL     1      15.653   3.208  93.159  1.00  0.00     0.208 C 
HETATM   35  O   UNL     1      15.456   2.492  94.114  1.00  0.00    -0.289 OA
BRANCH  34  36
HETATM   36  C   UNL     1      16.487   4.248  93.467  1.00  0.00     0.194 C 
HETATM   37  O   UNL     1      16.193   5.534  93.934  1.00  0.00    -0.185 OA
ENDBRANCH  34  36
ENDBRANCH  33  34
ENDBRANCH  31  33
ENDBRANCH  26  31
ENDBRANCH  24  26
ENDBRANCH  19  22
ENDBRANCH  15  16
ENDBRANCH  11  14
ENDBRANCH   7   8
ENDBRANCH   2   7
TORSDOF 12
ENDMDL
