MODEL 1
REMARK VINA RESULT:      -6.7      0.000      0.000
REMARK  11 active torsions:
REMARK  status: ('A' for Active; 'I' for Inactive)
REMARK    1  A    between atoms: O_2  and  C_18 
REMARK    2  A    between atoms: O_5  and  P_8 
REMARK    3  A    between atoms: N_6  and  C_11 
REMARK    4  A    between atoms: N_7  and  C_15 
REMARK       I    between atoms: N_7  and  C_24 
REMARK    5  A    between atoms: P_8  and  C_23 
REMARK    6  A    between atoms: C_11  and  C_14 
REMARK    7  A    between atoms: C_15  and  C_18 
REMARK    8  A    between atoms: C_15  and  C_23 
REMARK    9  A    between atoms: C_21  and  C_26 
REMARK   10  A    between atoms: C_24  and  C_25 
REMARK   11  A    between atoms: C_29  and  C_32 
ROOT
HETATM    1  O   UNL     1      16.154   4.030  94.075  1.00  0.00     0.000 OA
HETATM    2  N   UNL     1      14.234   2.715  92.436  1.00  0.00     0.000 N 
HETATM    3  C   UNL     1      14.418   4.172  92.385  1.00  0.00     0.000 C 
HETATM    4  C   UNL     1      14.578   2.210  93.772  1.00  0.00     0.000 C 
HETATM    5  C   UNL     1      15.852   4.526  92.769  1.00  0.00     0.000 C 
HETATM    6  C   UNL     1      16.007   2.610  94.124  1.00  0.00     0.000 C 
ENDROOT
BRANCH   2   7
HETATM    7  C   UNL     1      12.862   2.354  92.081  1.00  0.00     0.000 C 
BRANCH   7   8
HETATM    8  C   UNL     1      11.930   3.514  92.165  1.00  0.00     0.000 A 
HETATM    9  C   UNL     1      11.604   4.057  93.408  1.00  0.00     0.000 A 
HETATM   10  C   UNL     1      10.729   5.141  93.488  1.00  0.00     0.000 A 
HETATM   11  C   UNL     1      10.184   5.682  92.324  1.00  0.00     0.000 A 
HETATM   12  C   UNL     1      10.509   5.141  91.082  1.00  0.00     0.000 A 
HETATM   13  C   UNL     1      11.383   4.057  91.002  1.00  0.00     0.000 A 
BRANCH  11  14
HETATM   14  C   UNL     1       9.289   6.796  92.406  1.00  0.00     0.000 C 
HETATM   15  C   UNL     1       8.537   7.732  92.475  1.00  0.00     0.000 C 
BRANCH  15  16
HETATM   16  C   UNL     1       7.643   8.844  92.555  1.00  0.00     0.000 A 
HETATM   17  C   UNL     1       6.861   9.190  91.453  1.00  0.00     0.000 A 
HETATM   18  C   UNL     1       5.986  10.274  91.533  1.00  0.00     0.000 A 
HETATM   19  C   UNL     1       5.913  10.986  92.712  1.00  0.00     0.000 A 
HETATM   20  C   UNL     1       6.676  10.664  93.815  1.00  0.00     0.000 A 
HETATM   21  C   UNL     1       7.551   9.581  93.736  1.00  0.00     0.000 A 
BRANCH  19  22
HETATM   22  C   UNL     1       4.983  12.142  92.796  1.00  0.00     0.000 C 
HETATM   23  O   UNL     1       4.755  12.650  93.892  1.00  0.00     0.000 OA
HETATM   24  N   UNL     1       4.450  12.582  91.593  1.00  0.00     0.000 N 
HETATM   25  HN  UNL     1       4.704  12.129  90.723  1.00  0.00     0.000 HD
BRANCH  24  26
HETATM   26  C   UNL     1       3.553  13.706  91.507  1.00  0.00     0.000 C 
BRANCH  26  27
HETATM   27  C   UNL     1       3.517  14.332  90.107  1.00  0.00     0.000 C 
HETATM   28  C   UNL     1       4.800  15.083  89.770  1.00  0.00     0.000 C 
BRANCH  27  29
HETATM   29  O   UNL     1       3.309  13.310  89.133  1.00  0.00     0.000 OA
HETATM   30  H   UNL     1       2.938  13.721  88.334  1.00  0.00     0.000 HD
ENDBRANCH  27  29
ENDBRANCH  26  27
BRANCH  26  31
HETATM   31  C   UNL     1       2.169  13.231  91.938  1.00  0.00     0.000 C 
HETATM   32  O   UNL     1       1.683  12.163  91.570  1.00  0.00     0.000 OA
BRANCH  31  33
HETATM   33  P   UNL     1       1.532  14.147  92.740  1.00  0.00     0.000 P 
HETATM   34  H   UNL     1       0.349  14.500  92.123  1.00  0.00     0.000 HD
BRANCH  33  35
HETATM   35  O   UNL     1       2.245  15.324  93.007  1.00  0.00     0.000 OA
HETATM   36  H   UNL     1       3.157  14.990  92.960  1.00  0.00     0.000 HD
ENDBRANCH  33  35
ENDBRANCH  31  33
ENDBRANCH  26  31
ENDBRANCH  24  26
ENDBRANCH  19  22
ENDBRANCH  15  16
ENDBRANCH  11  14
ENDBRANCH   7   8
ENDBRANCH   2   7
TORSDOF 11
ENDMDL
MODEL 2
REMARK VINA RESULT:      -6.6      2.008      2.752
REMARK  11 active torsions:
REMARK  status: ('A' for Active; 'I' for Inactive)
REMARK    1  A    between atoms: O_2  and  C_18 
REMARK    2  A    between atoms: O_5  and  P_8 
REMARK    3  A    between atoms: N_6  and  C_11 
REMARK    4  A    between atoms: N_7  and  C_15 
REMARK       I    between atoms: N_7  and  C_24 
REMARK    5  A    between atoms: P_8  and  C_23 
REMARK    6  A    between atoms: C_11  and  C_14 
REMARK    7  A    between atoms: C_15  and  C_18 
REMARK    8  A    between atoms: C_15  and  C_23 
REMARK    9  A    between atoms: C_21  and  C_26 
REMARK   10  A    between atoms: C_24  and  C_25 
REMARK   11  A    between atoms: C_29  and  C_32 
ROOT
HETATM    1  O   UNL     1      16.406   4.330  94.093  1.00  0.00     0.000 OA
HETATM    2  N   UNL     1      14.693   2.646  92.565  1.00  0.00     0.000 N 
HETATM    3  C   UNL     1      14.561   4.110  92.530  1.00  0.00     0.000 C 
HETATM    4  C   UNL     1      15.231   2.220  93.864  1.00  0.00     0.000 C 
HETATM    5  C   UNL     1      15.913   4.757  92.821  1.00  0.00     0.000 C 
HETATM    6  C   UNL     1      16.565   2.911  94.124  1.00  0.00     0.000 C 
ENDROOT
BRANCH   2   7
HETATM    7  C   UNL     1      13.406   2.005  92.299  1.00  0.00     0.000 C 
BRANCH   7   8
HETATM    8  C   UNL     1      12.325   2.993  92.022  1.00  0.00     0.000 A 
HETATM    9  C   UNL     1      11.758   3.717  93.072  1.00  0.00     0.000 A 
HETATM   10  C   UNL     1      10.745   4.641  92.814  1.00  0.00     0.000 A 
HETATM   11  C   UNL     1      10.301   4.841  91.508  1.00  0.00     0.000 A 
HETATM   12  C   UNL     1      10.867   4.119  90.459  1.00  0.00     0.000 A 
HETATM   13  C   UNL     1      11.880   3.195  90.716  1.00  0.00     0.000 A 
BRANCH  11  14
HETATM   14  C   UNL     1       9.264   5.790  91.243  1.00  0.00     0.000 C 
HETATM   15  C   UNL     1       8.392   6.588  91.022  1.00  0.00     0.000 C 
BRANCH  15  16
HETATM   16  C   UNL     1       7.355   7.537  90.758  1.00  0.00     0.000 A 
HETATM   17  C   UNL     1       7.683   8.837  90.373  1.00  0.00     0.000 A 
HETATM   18  C   UNL     1       6.672   9.762  90.113  1.00  0.00     0.000 A 
HETATM   19  C   UNL     1       5.357   9.367  90.243  1.00  0.00     0.000 A 
HETATM   20  C   UNL     1       5.007   8.088  90.622  1.00  0.00     0.000 A 
HETATM   21  C   UNL     1       6.018   7.162  90.883  1.00  0.00     0.000 A 
BRANCH  19  22
HETATM   22  C   UNL     1       4.281  10.353  89.967  1.00  0.00     0.000 C 
HETATM   23  O   UNL     1       3.186   9.953  89.580  1.00  0.00     0.000 OA
HETATM   24  N   UNL     1       4.600  11.683  90.200  1.00  0.00     0.000 N 
HETATM   25  HN  UNL     1       5.519  11.937  90.545  1.00  0.00     0.000 HD
BRANCH  24  26
HETATM   26  C   UNL     1       3.656  12.754  90.004  1.00  0.00     0.000 C 
BRANCH  26  27
HETATM   27  C   UNL     1       2.961  13.178  91.303  1.00  0.00     0.000 C 
HETATM   28  C   UNL     1       3.870  13.052  92.521  1.00  0.00     0.000 C 
BRANCH  27  29
HETATM   29  O   UNL     1       2.523  14.532  91.190  1.00  0.00     0.000 OA
HETATM   30  H   UNL     1       1.777  14.662  91.800  1.00  0.00     0.000 HD
ENDBRANCH  27  29
ENDBRANCH  26  27
BRANCH  26  31
HETATM   31  C   UNL     1       4.402  13.922  89.367  1.00  0.00     0.000 C 
HETATM   32  O   UNL     1       4.461  15.038  89.880  1.00  0.00     0.000 OA
BRANCH  31  33
HETATM   33  P   UNL     1       4.956  13.586  88.156  1.00  0.00     0.000 P 
HETATM   34  H   UNL     1       5.047  14.736  87.399  1.00  0.00     0.000 HD
BRANCH  33  35
HETATM   35  O   UNL     1       4.252  12.633  87.406  1.00  0.00     0.000 OA
HETATM   36  H   UNL     1       4.960  12.312  86.822  1.00  0.00     0.000 HD
ENDBRANCH  33  35
ENDBRANCH  31  33
ENDBRANCH  26  31
ENDBRANCH  24  26
ENDBRANCH  19  22
ENDBRANCH  15  16
ENDBRANCH  11  14
ENDBRANCH   7   8
ENDBRANCH   2   7
TORSDOF 11
ENDMDL
MODEL 3
REMARK VINA RESULT:      -6.3      1.630      2.727
REMARK  11 active torsions:
REMARK  status: ('A' for Active; 'I' for Inactive)
REMARK    1  A    between atoms: O_2  and  C_18 
REMARK    2  A    between atoms: O_5  and  P_8 
REMARK    3  A    between atoms: N_6  and  C_11 
REMARK    4  A    between atoms: N_7  and  C_15 
REMARK       I    between atoms: N_7  and  C_24 
REMARK    5  A    between atoms: P_8  and  C_23 
REMARK    6  A    between atoms: C_11  and  C_14 
REMARK    7  A    between atoms: C_15  and  C_18 
REMARK    8  A    between atoms: C_15  and  C_23 
REMARK    9  A    between atoms: C_21  and  C_26 
REMARK   10  A    between atoms: C_24  and  C_25 
REMARK   11  A    between atoms: C_29  and  C_32 
ROOT
HETATM    1  O   UNL     1      15.714   3.670  94.124  1.00  0.00     0.000 OA
HETATM    2  N   UNL     1      13.939   2.590  92.179  1.00  0.00     0.000 N 
HETATM    3  C   UNL     1      13.877   4.004  92.574  1.00  0.00     0.000 C 
HETATM    4  C   UNL     1      14.444   1.778  93.294  1.00  0.00     0.000 C 
HETATM    5  C   UNL     1      15.255   4.473  93.035  1.00  0.00     0.000 C 
HETATM    6  C   UNL     1      15.807   2.298  93.738  1.00  0.00     0.000 C 
ENDROOT
BRANCH   2   7
HETATM    7  C   UNL     1      12.626   2.117  91.743  1.00  0.00     0.000 C 
BRANCH   7   8
HETATM    8  C   UNL     1      11.649   3.230  91.573  1.00  0.00     0.000 A 
HETATM    9  C   UNL     1      11.707   4.041  90.438  1.00  0.00     0.000 A 
HETATM   10  C   UNL     1      10.795   5.083  90.279  1.00  0.00     0.000 A 
HETATM   11  C   UNL     1       9.823   5.313  91.253  1.00  0.00     0.000 A 
HETATM   12  C   UNL     1       9.764   4.504  92.386  1.00  0.00     0.000 A 
HETATM   13  C   UNL     1      10.677   3.462  92.546  1.00  0.00     0.000 A 
BRANCH  11  14
HETATM   14  C   UNL     1       8.886   6.382  91.088  1.00  0.00     0.000 C 
HETATM   15  C   UNL     1       8.098   7.279  90.949  1.00  0.00     0.000 C 
BRANCH  15  16
HETATM   16  C   UNL     1       7.161   8.346  90.784  1.00  0.00     0.000 A 
HETATM   17  C   UNL     1       6.485   8.857  91.893  1.00  0.00     0.000 A 
HETATM   18  C   UNL     1       5.573   9.900  91.732  1.00  0.00     0.000 A 
HETATM   19  C   UNL     1       5.358  10.409  90.468  1.00  0.00     0.000 A 
HETATM   20  C   UNL     1       6.013   9.921  89.357  1.00  0.00     0.000 A 
HETATM   21  C   UNL     1       6.925   8.878  89.516  1.00  0.00     0.000 A 
BRANCH  19  22
HETATM   22  C   UNL     1       4.384  11.518  90.297  1.00  0.00     0.000 C 
HETATM   23  O   UNL     1       3.459  11.387  89.499  1.00  0.00     0.000 OA
HETATM   24  N   UNL     1       4.591  12.636  91.093  1.00  0.00     0.000 N 
HETATM   25  HN  UNL     1       5.363  12.664  91.748  1.00  0.00     0.000 HD
BRANCH  24  26
HETATM   26  C   UNL     1       3.719  13.783  91.060  1.00  0.00     0.000 C 
BRANCH  26  27
HETATM   27  C   UNL     1       2.737  13.816  92.237  1.00  0.00     0.000 C 
HETATM   28  C   UNL     1       3.243  13.032  93.443  1.00  0.00     0.000 C 
BRANCH  27  29
HETATM   29  O   UNL     1       2.506  15.169  92.629  1.00  0.00     0.000 OA
HETATM   30  H   UNL     1       1.646  15.214  93.080  1.00  0.00     0.000 HD
ENDBRANCH  27  29
ENDBRANCH  26  27
BRANCH  26  31
HETATM   31  C   UNL     1       4.594  15.032  91.033  1.00  0.00     0.000 C 
HETATM   32  O   UNL     1       4.953  15.621  92.051  1.00  0.00     0.000 OA
BRANCH  31  33
HETATM   33  P   UNL     1       4.891  15.430  89.752  1.00  0.00     0.000 P 
HETATM   34  H   UNL     1       3.727  15.890  89.171  1.00  0.00     0.000 HD
BRANCH  33  35
HETATM   35  O   UNL     1       5.428  14.442  88.915  1.00  0.00     0.000 OA
HETATM   36  H   UNL     1       5.275  13.651  89.459  1.00  0.00     0.000 HD
ENDBRANCH  33  35
ENDBRANCH  31  33
ENDBRANCH  26  31
ENDBRANCH  24  26
ENDBRANCH  19  22
ENDBRANCH  15  16
ENDBRANCH  11  14
ENDBRANCH   7   8
ENDBRANCH   2   7
TORSDOF 11
ENDMDL
MODEL 4
REMARK VINA RESULT:      -6.0      1.513      2.381
REMARK  11 active torsions:
REMARK  status: ('A' for Active; 'I' for Inactive)
REMARK    1  A    between atoms: O_2  and  C_18 
REMARK    2  A    between atoms: O_5  and  P_8 
REMARK    3  A    between atoms: N_6  and  C_11 
REMARK    4  A    between atoms: N_7  and  C_15 
REMARK       I    between atoms: N_7  and  C_24 
REMARK    5  A    between atoms: P_8  and  C_23 
REMARK    6  A    between atoms: C_11  and  C_14 
REMARK    7  A    between atoms: C_15  and  C_18 
REMARK    8  A    between atoms: C_15  and  C_23 
REMARK    9  A    between atoms: C_21  and  C_26 
REMARK   10  A    between atoms: C_24  and  C_25 
REMARK   11  A    between atoms: C_29  and  C_32 
ROOT
HETATM    1  O   UNL     1      16.230   2.654  94.025  1.00  0.00     0.000 OA
HETATM    2  N   UNL     1      13.847   3.180  92.560  1.00  0.00     0.000 N 
HETATM    3  C   UNL     1      14.293   1.807  92.833  1.00  0.00     0.000 C 
HETATM    4  C   UNL     1      15.005   4.082  92.493  1.00  0.00     0.000 C 
HETATM    5  C   UNL     1      15.108   1.775  94.124  1.00  0.00     0.000 C 
HETATM    6  C   UNL     1      15.803   3.996  93.790  1.00  0.00     0.000 C 
ENDROOT
BRANCH   2   7
HETATM    7  C   UNL     1      13.072   3.236  91.322  1.00  0.00     0.000 C 
BRANCH   7   8
HETATM    8  C   UNL     1      11.895   4.144  91.429  1.00  0.00     0.000 A 
HETATM    9  C   UNL     1      11.346   4.429  92.680  1.00  0.00     0.000 A 
HETATM   10  C   UNL     1      10.243   5.276  92.781  1.00  0.00     0.000 A 
HETATM   11  C   UNL     1       9.691   5.841  91.632  1.00  0.00     0.000 A 
HETATM   12  C   UNL     1      10.238   5.557  90.382  1.00  0.00     0.000 A 
HETATM   13  C   UNL     1      11.341   4.709  90.280  1.00  0.00     0.000 A 
BRANCH  11  14
HETATM   14  C   UNL     1       8.561   6.712  91.736  1.00  0.00     0.000 C 
HETATM   15  C   UNL     1       7.611   7.445  91.823  1.00  0.00     0.000 C 
BRANCH  15  16
HETATM   16  C   UNL     1       6.482   8.316  91.926  1.00  0.00     0.000 A 
HETATM   17  C   UNL     1       6.665   9.698  91.898  1.00  0.00     0.000 A 
HETATM   18  C   UNL     1       5.563  10.548  91.996  1.00  0.00     0.000 A 
HETATM   19  C   UNL     1       4.305   9.996  92.119  1.00  0.00     0.000 A 
HETATM   20  C   UNL     1       4.098   8.633  92.150  1.00  0.00     0.000 A 
HETATM   21  C   UNL     1       5.199   7.783  92.053  1.00  0.00     0.000 A 
BRANCH  19  22
HETATM   22  C   UNL     1       3.131  10.902  92.225  1.00  0.00     0.000 C 
HETATM   23  O   UNL     1       2.031  10.428  92.499  1.00  0.00     0.000 OA
HETATM   24  N   UNL     1       3.385  12.252  92.026  1.00  0.00     0.000 N 
HETATM   25  HN  UNL     1       4.325  12.573  91.828  1.00  0.00     0.000 HD
BRANCH  24  26
HETATM   26  C   UNL     1       2.356  13.256  92.119  1.00  0.00     0.000 C 
BRANCH  26  27
HETATM   27  C   UNL     1       2.569  14.217  93.296  1.00  0.00     0.000 C 
HETATM   28  C   UNL     1       4.027  14.638  93.449  1.00  0.00     0.000 C 
BRANCH  27  29
HETATM   29  O   UNL     1       1.767  15.382  93.112  1.00  0.00     0.000 OA
HETATM   30  H   UNL     1       2.016  16.034  93.790  1.00  0.00     0.000 HD
ENDBRANCH  27  29
ENDBRANCH  26  27
BRANCH  26  31
HETATM   31  C   UNL     1       2.315  14.006  90.792  1.00  0.00     0.000 C 
HETATM   32  O   UNL     1       1.364  14.704  90.446  1.00  0.00     0.000 OA
BRANCH  31  33
HETATM   33  P   UNL     1       3.436  13.777  90.031  1.00  0.00     0.000 P 
HETATM   34  H   UNL     1       3.953  15.001  89.659  1.00  0.00     0.000 HD
BRANCH  33  35
HETATM   35  O   UNL     1       3.238  13.021  88.866  1.00  0.00     0.000 OA
HETATM   36  H   UNL     1       3.995  12.414  88.922  1.00  0.00     0.000 HD
ENDBRANCH  33  35
ENDBRANCH  31  33
ENDBRANCH  26  31
ENDBRANCH  24  26
ENDBRANCH  19  22
ENDBRANCH  15  16
ENDBRANCH  11  14
ENDBRANCH   7   8
ENDBRANCH   2   7
TORSDOF 11
ENDMDL
MODEL 5
REMARK VINA RESULT:      -4.7      3.844     12.614
REMARK  11 active torsions:
REMARK  status: ('A' for Active; 'I' for Inactive)
REMARK    1  A    between atoms: O_2  and  C_18 
REMARK    2  A    between atoms: O_5  and  P_8 
REMARK    3  A    between atoms: N_6  and  C_11 
REMARK    4  A    between atoms: N_7  and  C_15 
REMARK       I    between atoms: N_7  and  C_24 
REMARK    5  A    between atoms: P_8  and  C_23 
REMARK    6  A    between atoms: C_11  and  C_14 
REMARK    7  A    between atoms: C_15  and  C_18 
REMARK    8  A    between atoms: C_15  and  C_23 
REMARK    9  A    between atoms: C_21  and  C_26 
REMARK   10  A    between atoms: C_24  and  C_25 
REMARK   11  A    between atoms: C_29  and  C_32 
ROOT
HETATM    1  O   UNL     1       3.454  14.612  92.115  1.00  0.00     0.000 OA
HETATM    2  N   UNL     1       3.866  13.963  89.374  1.00  0.00     0.000 N 
HETATM    3  C   UNL     1       3.036  13.120  90.246  1.00  0.00     0.000 C 
HETATM    4  C   UNL     1       4.899  14.644  90.167  1.00  0.00     0.000 C 
HETATM    5  C   UNL     1       2.426  13.971  91.358  1.00  0.00     0.000 C 
HETATM    6  C   UNL     1       4.246  15.457  91.280  1.00  0.00     0.000 C 
ENDROOT
BRANCH   2   7
HETATM    7  C   UNL     1       4.470  13.167  88.307  1.00  0.00     0.000 C 
BRANCH   7   8
HETATM    8  C   UNL     1       5.342  12.079  88.835  1.00  0.00     0.000 A 
HETATM    9  C   UNL     1       4.773  10.887  89.287  1.00  0.00     0.000 A 
HETATM   10  C   UNL     1       5.588   9.870  89.782  1.00  0.00     0.000 A 
HETATM   11  C   UNL     1       6.971  10.043  89.824  1.00  0.00     0.000 A 
HETATM   12  C   UNL     1       7.540  11.232  89.373  1.00  0.00     0.000 A 
HETATM   13  C   UNL     1       6.725  12.251  88.877  1.00  0.00     0.000 A 
BRANCH  11  14
HETATM   14  C   UNL     1       7.807   8.998  90.330  1.00  0.00     0.000 C 
HETATM   15  C   UNL     1       8.509   8.120  90.755  1.00  0.00     0.000 C 
BRANCH  15  16
HETATM   16  C   UNL     1       9.345   7.076  91.261  1.00  0.00     0.000 A 
HETATM   17  C   UNL     1       9.774   6.055  90.412  1.00  0.00     0.000 A 
HETATM   18  C   UNL     1      10.592   5.038  90.905  1.00  0.00     0.000 A 
HETATM   19  C   UNL     1      10.963   5.065  92.233  1.00  0.00     0.000 A 
HETATM   20  C   UNL     1      10.551   6.063  93.092  1.00  0.00     0.000 A 
HETATM   21  C   UNL     1       9.733   7.080  92.600  1.00  0.00     0.000 A 
BRANCH  19  22
HETATM   22  C   UNL     1      11.832   3.980  92.758  1.00  0.00     0.000 C 
HETATM   23  O   UNL     1      11.335   2.889  93.023  1.00  0.00     0.000 OA
HETATM   24  N   UNL     1      13.179   4.289  92.886  1.00  0.00     0.000 N 
HETATM   25  HN  UNL     1      13.522   5.206  92.624  1.00  0.00     0.000 HD
BRANCH  24  26
HETATM   26  C   UNL     1      14.152   3.337  93.358  1.00  0.00     0.000 C 
BRANCH  26  27
HETATM   27  C   UNL     1      14.487   2.264  92.314  1.00  0.00     0.000 C 
HETATM   28  C   UNL     1      13.454   1.144  92.276  1.00  0.00     0.000 C 
BRANCH  27  29
HETATM   29  O   UNL     1      14.567   2.865  91.021  1.00  0.00     0.000 OA
HETATM   30  H   UNL     1      14.985   3.737  91.116  1.00  0.00     0.000 HD
ENDBRANCH  27  29
ENDBRANCH  26  27
BRANCH  26  31
HETATM   31  C   UNL     1      15.397   4.111  93.777  1.00  0.00     0.000 C 
HETATM   32  O   UNL     1      15.455   5.339  93.773  1.00  0.00     0.000 OA
BRANCH  31  33
HETATM   33  P   UNL     1      16.437   3.279  94.115  1.00  0.00     0.000 P 
HETATM   34  H   UNL     1      16.953   3.714  95.318  1.00  0.00     0.000 HD
BRANCH  33  35
HETATM   35  O   UNL     1      17.491   3.214  93.193  1.00  0.00     0.000 OA
HETATM   36  H   UNL     1      17.077   2.684  92.491  1.00  0.00     0.000 HD
ENDBRANCH  33  35
ENDBRANCH  31  33
ENDBRANCH  26  31
ENDBRANCH  24  26
ENDBRANCH  19  22
ENDBRANCH  15  16
ENDBRANCH  11  14
ENDBRANCH   7   8
ENDBRANCH   2   7
TORSDOF 11
ENDMDL
MODEL 6
REMARK VINA RESULT:      -4.4      3.514     12.537
REMARK  11 active torsions:
REMARK  status: ('A' for Active; 'I' for Inactive)
REMARK    1  A    between atoms: O_2  and  C_18 
REMARK    2  A    between atoms: O_5  and  P_8 
REMARK    3  A    between atoms: N_6  and  C_11 
REMARK    4  A    between atoms: N_7  and  C_15 
REMARK       I    between atoms: N_7  and  C_24 
REMARK    5  A    between atoms: P_8  and  C_23 
REMARK    6  A    between atoms: C_11  and  C_14 
REMARK    7  A    between atoms: C_15  and  C_18 
REMARK    8  A    between atoms: C_15  and  C_23 
REMARK    9  A    between atoms: C_21  and  C_26 
REMARK   10  A    between atoms: C_24  and  C_25 
REMARK   11  A    between atoms: C_29  and  C_32 
ROOT
HETATM    1  O   UNL     1       4.403  13.709  88.967  1.00  0.00     0.000 OA
HETATM    2  N   UNL     1       3.414  12.646  91.415  1.00  0.00     0.000 N 
HETATM    3  C   UNL     1       4.067  13.961  91.357  1.00  0.00     0.000 C 
HETATM    4  C   UNL     1       3.943  11.775  90.356  1.00  0.00     0.000 C 
HETATM    5  C   UNL     1       3.872  14.574  89.973  1.00  0.00     0.000 C 
HETATM    6  C   UNL     1       3.752  12.438  88.997  1.00  0.00     0.000 C 
ENDROOT
BRANCH   2   7
HETATM    7  C   UNL     1       3.597  12.035  92.731  1.00  0.00     0.000 C 
BRANCH   7   8
HETATM    8  C   UNL     1       4.644  10.973  92.723  1.00  0.00     0.000 A 
HETATM    9  C   UNL     1       4.381   9.740  92.126  1.00  0.00     0.000 A 
HETATM   10  C   UNL     1       5.358   8.745  92.120  1.00  0.00     0.000 A 
HETATM   11  C   UNL     1       6.599   8.985  92.710  1.00  0.00     0.000 A 
HETATM   12  C   UNL     1       6.863  10.216  93.306  1.00  0.00     0.000 A 
HETATM   13  C   UNL     1       5.886  11.211  93.313  1.00  0.00     0.000 A 
BRANCH  11  14
HETATM   14  C   UNL     1       7.603   7.965  92.702  1.00  0.00     0.000 C 
HETATM   15  C   UNL     1       8.446   7.108  92.694  1.00  0.00     0.000 C 
BRANCH  15  16
HETATM   16  C   UNL     1       9.449   6.089  92.686  1.00  0.00     0.000 A 
HETATM   17  C   UNL     1       9.534   5.205  91.610  1.00  0.00     0.000 A 
HETATM   18  C   UNL     1      10.515   4.213  91.600  1.00  0.00     0.000 A 
HETATM   19  C   UNL     1      11.387   4.128  92.665  1.00  0.00     0.000 A 
HETATM   20  C   UNL     1      11.323   4.989  93.740  1.00  0.00     0.000 A 
HETATM   21  C   UNL     1      10.343   5.981  93.751  1.00  0.00     0.000 A 
BRANCH  19  22
HETATM   22  C   UNL     1      12.430   3.069  92.655  1.00  0.00     0.000 C 
HETATM   23  O   UNL     1      12.104   1.908  92.423  1.00  0.00     0.000 OA
HETATM   24  N   UNL     1      13.730   3.495  92.892  1.00  0.00     0.000 N 
HETATM   25  HN  UNL     1      13.928   4.476  93.051  1.00  0.00     0.000 HD
BRANCH  24  26
HETATM   26  C   UNL     1      14.854   2.592  92.891  1.00  0.00     0.000 C 
BRANCH  26  27
HETATM   27  C   UNL     1      15.366   2.285  91.478  1.00  0.00     0.000 C 
HETATM   28  C   UNL     1      14.943   3.339  90.461  1.00  0.00     0.000 C 
BRANCH  27  29
HETATM   29  O   UNL     1      16.791   2.202  91.495  1.00  0.00     0.000 OA
HETATM   30  H   UNL     1      17.077   2.058  92.413  1.00  0.00     0.000 HD
ENDBRANCH  27  29
ENDBRANCH  26  27
BRANCH  26  31
HETATM   31  C   UNL     1      15.948   3.210  93.756  1.00  0.00     0.000 C 
HETATM   32  O   UNL     1      16.942   2.587  94.123  1.00  0.00     0.000 OA
BRANCH  31  33
HETATM   33  P   UNL     1      15.667   4.511  94.097  1.00  0.00     0.000 P 
HETATM   34  H   UNL     1      14.330   4.736  93.842  1.00  0.00     0.000 HD
BRANCH  33  35
HETATM   35  O   UNL     1      16.405   5.492  93.420  1.00  0.00     0.000 OA
HETATM   36  H   UNL     1      16.705   6.033  94.170  1.00  0.00     0.000 HD
ENDBRANCH  33  35
ENDBRANCH  31  33
ENDBRANCH  26  31
ENDBRANCH  24  26
ENDBRANCH  19  22
ENDBRANCH  15  16
ENDBRANCH  11  14
ENDBRANCH   7   8
ENDBRANCH   2   7
TORSDOF 11
ENDMDL
MODEL 7
REMARK VINA RESULT:      -3.9      1.721      2.294
REMARK  11 active torsions:
REMARK  status: ('A' for Active; 'I' for Inactive)
REMARK    1  A    between atoms: O_2  and  C_18 
REMARK    2  A    between atoms: O_5  and  P_8 
REMARK    3  A    between atoms: N_6  and  C_11 
REMARK    4  A    between atoms: N_7  and  C_15 
REMARK       I    between atoms: N_7  and  C_24 
REMARK    5  A    between atoms: P_8  and  C_23 
REMARK    6  A    between atoms: C_11  and  C_14 
REMARK    7  A    between atoms: C_15  and  C_18 
REMARK    8  A    between atoms: C_15  and  C_23 
REMARK    9  A    between atoms: C_21  and  C_26 
REMARK   10  A    between atoms: C_24  and  C_25 
REMARK   11  A    between atoms: C_29  and  C_32 
ROOT
HETATM    1  O   UNL     1      16.047   2.670  91.119  1.00  0.00     0.000 OA
HETATM    2  N   UNL     1      13.733   2.987  92.747  1.00  0.00     0.000 N 
HETATM    3  C   UNL     1      14.779   2.011  93.081  1.00  0.00     0.000 C 
HETATM    4  C   UNL     1      13.685   3.196  91.293  1.00  0.00     0.000 C 
HETATM    5  C   UNL     1      16.123   2.485  92.534  1.00  0.00     0.000 C 
HETATM    6  C   UNL     1      15.053   3.641  90.788  1.00  0.00     0.000 C 
ENDROOT
BRANCH   2   7
HETATM    7  C   UNL     1      12.434   2.548  93.253  1.00  0.00     0.000 C 
BRANCH   7   8
HETATM    8  C   UNL     1      11.410   3.630  93.204  1.00  0.00     0.000 A 
HETATM    9  C   UNL     1      11.461   4.679  94.122  1.00  0.00     0.000 A 
HETATM   10  C   UNL     1      10.501   5.690  94.079  1.00  0.00     0.000 A 
HETATM   11  C   UNL     1       9.494   5.653  93.116  1.00  0.00     0.000 A 
HETATM   12  C   UNL     1       9.442   4.606  92.198  1.00  0.00     0.000 A 
HETATM   13  C   UNL     1      10.400   3.594  92.241  1.00  0.00     0.000 A 
BRANCH  11  14
HETATM   14  C   UNL     1       8.511   6.692  93.070  1.00  0.00     0.000 C 
HETATM   15  C   UNL     1       7.686   7.566  93.031  1.00  0.00     0.000 C 
BRANCH  15  16
HETATM   16  C   UNL     1       6.704   8.605  92.985  1.00  0.00     0.000 A 
HETATM   17  C   UNL     1       7.038   9.856  92.466  1.00  0.00     0.000 A 
HETATM   18  C   UNL     1       6.080  10.868  92.419  1.00  0.00     0.000 A 
HETATM   19  C   UNL     1       4.810  10.606  92.889  1.00  0.00     0.000 A 
HETATM   20  C   UNL     1       4.455   9.378  93.406  1.00  0.00     0.000 A 
HETATM   21  C   UNL     1       5.413   8.365  93.455  1.00  0.00     0.000 A 
BRANCH  19  22
HETATM   22  C   UNL     1       3.789  11.685  92.839  1.00  0.00     0.000 C 
HETATM   23  O   UNL     1       2.822  11.631  93.595  1.00  0.00     0.000 OA
HETATM   24  N   UNL     1       4.031  12.710  91.934  1.00  0.00     0.000 N 
HETATM   25  HN  UNL     1       4.866  12.700  91.360  1.00  0.00     0.000 HD
BRANCH  24  26
HETATM   26  C   UNL     1       3.148  13.838  91.787  1.00  0.00     0.000 C 
BRANCH  26  27
HETATM   27  C   UNL     1       3.728  15.128  92.382  1.00  0.00     0.000 C 
HETATM   28  C   UNL     1       4.290  14.922  93.784  1.00  0.00     0.000 C 
BRANCH  27  29
HETATM   29  O   UNL     1       4.765  15.620  91.534  1.00  0.00     0.000 OA
HETATM   30  H   UNL     1       5.095  16.454  91.909  1.00  0.00     0.000 HD
ENDBRANCH  27  29
ENDBRANCH  26  27
BRANCH  26  31
HETATM   31  C   UNL     1       2.844  14.001  90.301  1.00  0.00     0.000 C 
HETATM   32  O   UNL     1       1.902  14.669  89.879  1.00  0.00     0.000 OA
BRANCH  31  33
HETATM   33  P   UNL     1       3.715  13.289  89.512  1.00  0.00     0.000 P 
HETATM   34  H   UNL     1       4.170  12.214  90.248  1.00  0.00     0.000 HD
BRANCH  33  35
HETATM   35  O   UNL     1       4.834  13.995  89.047  1.00  0.00     0.000 OA
HETATM   36  H   UNL     1       4.423  14.531  88.347  1.00  0.00     0.000 HD
ENDBRANCH  33  35
ENDBRANCH  31  33
ENDBRANCH  26  31
ENDBRANCH  24  26
ENDBRANCH  19  22
ENDBRANCH  15  16
ENDBRANCH  11  14
ENDBRANCH   7   8
ENDBRANCH   2   7
TORSDOF 11
ENDMDL
