MODEL 1
REMARK VINA RESULT:      -4.2      0.000      0.000
REMARK  14 active torsions:
REMARK  status: ('A' for Active; 'I' for Inactive)
REMARK    1  A    between atoms: O_2  and  C_18 
REMARK    2  A    between atoms: C_5  and  C_8 
REMARK    3  A    between atoms: C_5  and  O_35 
REMARK    4  A    between atoms: C_5  and  C_36 
REMARK    5  A    between atoms: N_6  and  C_11 
REMARK    6  A    between atoms: N_7  and  C_15 
REMARK       I    between atoms: N_7  and  C_24 
REMARK    7  A    between atoms: C_8  and  C_23 
REMARK    8  A    between atoms: C_11  and  C_14 
REMARK    9  A    between atoms: C_15  and  C_18 
REMARK   10  A    between atoms: C_15  and  C_23 
REMARK   11  A    between atoms: C_21  and  C_26 
REMARK   12  A    between atoms: C_24  and  C_25 
REMARK   13  A    between atoms: C_29  and  C_32 
REMARK   14  A    between atoms: C_36  and  O_39 
ROOT
HETATM    1  O   UNL     1      15.563   2.970  90.576  1.00  0.00    -0.350 OA
HETATM    2  N   UNL     1      13.510   3.214  92.532  1.00  0.00     0.147 N 
HETATM    3  C   UNL     1      14.631   2.281  92.708  1.00  0.00     0.283 C 
HETATM    4  C   UNL     1      13.236   3.408  91.102  1.00  0.00     0.283 C 
HETATM    5  C   UNL     1      15.858   2.800  91.964  1.00  0.00     0.178 C 
HETATM    6  C   UNL     1      14.495   3.900  90.395  1.00  0.00     0.178 C 
ENDROOT
BRANCH   2   7
HETATM    7  C   UNL     1      12.319   2.731  93.229  1.00  0.00     0.277 C 
BRANCH   7   8
HETATM    8  C   UNL     1      11.219   3.736  93.238  1.00  0.00     0.011 A 
HETATM    9  C   UNL     1      10.138   3.595  92.366  1.00  0.00    -0.002 A 
HETATM   10  C   UNL     1       9.109   4.536  92.372  1.00  0.00     0.008 A 
HETATM   11  C   UNL     1       9.160   5.617  93.251  1.00  0.00     0.042 A 
HETATM   12  C   UNL     1      10.238   5.760  94.123  1.00  0.00     0.008 A 
HETATM   13  C   UNL     1      11.268   4.819  94.116  1.00  0.00    -0.002 A 
BRANCH  11  14
HETATM   14  C   UNL     1       8.103   6.582  93.259  1.00  0.00    -0.059 C 
HETATM   15  C   UNL     1       7.216   7.393  93.266  1.00  0.00    -0.059 C 
BRANCH  15  16
HETATM   16  C   UNL     1       6.160   8.357  93.272  1.00  0.00     0.042 A 
HETATM   17  C   UNL     1       6.405   9.654  93.723  1.00  0.00     0.008 A 
HETATM   18  C   UNL     1       5.376  10.596  93.727  1.00  0.00     0.005 A 
HETATM   19  C   UNL     1       4.126  10.219  93.280  1.00  0.00     0.056 A 
HETATM   20  C   UNL     1       3.859   8.943  92.830  1.00  0.00     0.005 A 
HETATM   21  C   UNL     1       4.888   8.001  92.826  1.00  0.00     0.008 A 
BRANCH  19  22
HETATM   22  C   UNL     1       3.030  11.222  93.287  1.00  0.00     0.254 C 
HETATM   23  O   UNL     1       2.055  11.040  94.013  1.00  0.00    -0.268 OA
HETATM   24  N   UNL     1       3.211  12.326  92.466  1.00  0.00    -0.335 N 
HETATM   25  HN  UNL     1       4.054  12.421  91.912  1.00  0.00     0.164 HD
BRANCH  24  26
HETATM   26  C   UNL     1       2.249  13.396  92.381  1.00  0.00     0.169 C 
BRANCH  26  27
HETATM   27  C   UNL     1       2.556  14.548  93.345  1.00  0.00     0.138 C 
HETATM   28  C   UNL     1       3.984  15.063  93.204  1.00  0.00     0.034 C 
BRANCH  27  29
HETATM   29  O   UNL     1       1.650  15.625  93.106  1.00  0.00    -0.383 OA
HETATM   30  H   UNL     1       0.777  15.371  93.451  1.00  0.00     0.210 HD
ENDBRANCH  27  29
ENDBRANCH  26  27
BRANCH  26  31
HETATM   31  C   UNL     1       2.214  13.877  90.934  1.00  0.00     0.194 C 
HETATM   32  O   UNL     1       1.473  14.779  90.546  1.00  0.00    -0.289 OA
BRANCH  31  33
HETATM   33  C   UNL     1       3.068  13.164  90.129  1.00  0.00     0.053 C 
BRANCH  33  34
HETATM   34  C   UNL     1       3.886  13.925  89.282  1.00  0.00     0.220 C 
BRANCH  34  35
HETATM   35  O   UNL     1       4.639  14.613  89.998  1.00  0.00    -0.371 OA
HETATM   36  H   UNL     1       5.339  14.735  89.375  1.00  0.00     0.211 HD
ENDBRANCH  34  35
BRANCH  34  37
HETATM   37  C   UNL     1       4.598  13.152  88.348  1.00  0.00     0.185 C 
HETATM   38  O   UNL     1       5.645  13.765  88.878  1.00  0.00    -0.647 OA
BRANCH  37  39
HETATM   39  O   UNL     1       4.340  12.372  87.482  1.00  0.00    -0.774 OA
HETATM   40  H   UNL     1       3.363  11.831  87.684  1.00  0.00     0.167 HD
ENDBRANCH  37  39
ENDBRANCH  34  37
ENDBRANCH  33  34
ENDBRANCH  31  33
ENDBRANCH  26  31
ENDBRANCH  24  26
ENDBRANCH  19  22
ENDBRANCH  15  16
ENDBRANCH  11  14
ENDBRANCH   7   8
ENDBRANCH   2   7
TORSDOF 14
ENDMDL
