MODEL 1
REMARK VINA RESULT:      -7.2      0.000      0.000
REMARK  9 active torsions:
REMARK  status: ('A' for Active; 'I' for Inactive)
REMARK    1  A    between atoms: O_2  and  C_17 
REMARK    2  A    between atoms: N_5  and  C_10 
REMARK    3  A    between atoms: N_6  and  C_14 
REMARK       I    between atoms: N_6  and  C_23 
REMARK       I    between atoms: N_7  and  C_22 
REMARK    4  A    between atoms: C_10  and  C_13 
REMARK    5  A    between atoms: C_14  and  C_17 
REMARK    6  A    between atoms: C_14  and  C_22 
REMARK    7  A    between atoms: C_20  and  C_25 
REMARK    8  A    between atoms: C_23  and  C_24 
REMARK    9  A    between atoms: C_28  and  C_31 
ROOT
HETATM    1  O   UNL     1      15.889   3.873  94.124  1.00  0.00    -0.388 OA
HETATM    2  N   UNL     1      14.048   2.534  92.415  1.00  0.00     0.096 N 
HETATM    3  C   UNL     1      14.170   3.998  92.415  1.00  0.00     0.299 C 
HETATM    4  C   UNL     1      14.397   1.999  93.739  1.00  0.00     0.299 C 
HETATM    5  C   UNL     1      15.583   4.399  92.831  1.00  0.00     0.198 C 
HETATM    6  C   UNL     1      15.803   2.447  94.124  1.00  0.00     0.198 C 
ENDROOT
BRANCH   2   7
HETATM    7  C   UNL     1      12.698   2.127  92.029  1.00  0.00     0.311 C 
BRANCH   7   8
HETATM    8  C   UNL     1      11.825   3.291  91.704  1.00  0.00    -0.030 A 
HETATM    9  C   UNL     1      11.103   3.924  92.717  1.00  0.00     0.010 A 
HETATM   10  C   UNL     1      10.284   5.011  92.414  1.00  0.00     0.021 A 
HETATM   11  C   UNL     1      10.189   5.467  91.100  1.00  0.00     0.018 A 
HETATM   12  C   UNL     1      10.910   4.836  90.088  1.00  0.00     0.021 A 
HETATM   13  C   UNL     1      11.729   3.748  90.390  1.00  0.00     0.010 A 
BRANCH  11  14
HETATM   14  C   UNL     1       9.351   6.584  90.790  1.00  0.00    -0.061 C 
HETATM   15  C   UNL     1       8.646   7.523  90.528  1.00  0.00    -0.061 C 
BRANCH  15  16
HETATM   16  C   UNL     1       7.808   8.638  90.219  1.00  0.00     0.018 A 
HETATM   17  C   UNL     1       6.434   8.454  90.060  1.00  0.00     0.022 A 
HETATM   18  C   UNL     1       5.616   9.544  89.761  1.00  0.00     0.018 A 
HETATM   19  C   UNL     1       6.188  10.791  89.627  1.00  0.00     0.032 A 
HETATM   20  C   UNL     1       7.543  10.999  89.779  1.00  0.00     0.018 A 
HETATM   21  C   UNL     1       8.363   9.910  90.078  1.00  0.00     0.022 A 
BRANCH  19  22
HETATM   22  C   UNL     1       5.317  11.951  89.306  1.00  0.00     0.252 C 
HETATM   23  O   UNL     1       5.212  12.317  88.138  1.00  0.00    -0.268 OA
HETATM   24  N   UNL     1       4.653  12.528  90.380  1.00  0.00    -0.342 N 
HETATM   25  H   UNL     1       4.769  12.155  91.315  1.00  0.00     0.163 HD
BRANCH  24  26
HETATM   26  C   UNL     1       3.754  13.643  90.227  1.00  0.00     0.199 C 
BRANCH  26  27
HETATM   27  C   UNL     1       2.556  13.576  91.183  1.00  0.00     0.145 C 
HETATM   28  C   UNL     1       2.791  12.619  92.347  1.00  0.00     0.042 C 
BRANCH  27  29
HETATM   29  O   UNL     1       2.285  14.878  91.701  1.00  0.00    -0.393 OA
HETATM   30  H   UNL     1       2.499  15.530  91.013  1.00  0.00     0.210 HD
ENDBRANCH  27  29
ENDBRANCH  26  27
BRANCH  26  31
HETATM   31  C   UNL     1       4.558  14.922  90.436  1.00  0.00     0.220 C 
HETATM   32  O   UNL     1       4.792  15.392  91.548  1.00  0.00    -0.278 OA
HETATM   33  N   UNL     1       4.947  15.491  89.247  1.00  0.00    -0.271 NA
HETATM   34  H   UNL     1       4.696  15.181  88.315  1.00  0.00     0.127 HD
HETATM   35  H   UNL     1       4.464  16.663  88.643  1.00  0.00     0.127 HD
ENDBRANCH  26  31
ENDBRANCH  24  26
ENDBRANCH  19  22
ENDBRANCH  15  16
ENDBRANCH  11  14
ENDBRANCH   7   8
ENDBRANCH   2   7
TORSDOF 9
ENDMDL
MODEL 2
REMARK VINA RESULT:      -6.9      1.938      2.655
REMARK  9 active torsions:
REMARK  status: ('A' for Active; 'I' for Inactive)
REMARK    1  A    between atoms: O_2  and  C_17 
REMARK    2  A    between atoms: N_5  and  C_10 
REMARK    3  A    between atoms: N_6  and  C_14 
REMARK       I    between atoms: N_6  and  C_23 
REMARK       I    between atoms: N_7  and  C_22 
REMARK    4  A    between atoms: C_10  and  C_13 
REMARK    5  A    between atoms: C_14  and  C_17 
REMARK    6  A    between atoms: C_14  and  C_22 
REMARK    7  A    between atoms: C_20  and  C_25 
REMARK    8  A    between atoms: C_23  and  C_24 
REMARK    9  A    between atoms: C_28  and  C_31 
ROOT
HETATM    1  O   UNL     1      16.234   4.015  94.123  1.00  0.00    -0.388 OA
HETATM    2  N   UNL     1      14.296   2.709  92.498  1.00  0.00     0.096 N 
HETATM    3  C   UNL     1      14.437   4.172  92.499  1.00  0.00     0.299 C 
HETATM    4  C   UNL     1      14.700   2.164  93.801  1.00  0.00     0.299 C 
HETATM    5  C   UNL     1      15.874   4.552  92.849  1.00  0.00     0.198 C 
HETATM    6  C   UNL     1      16.129   2.591  94.121  1.00  0.00     0.198 C 
ENDROOT
BRANCH   2   7
HETATM    7  C   UNL     1      12.923   2.323  92.176  1.00  0.00     0.311 C 
BRANCH   7   8
HETATM    8  C   UNL     1      11.979   3.474  92.238  1.00  0.00    -0.030 A 
HETATM    9  C   UNL     1      11.411   3.974  91.066  1.00  0.00     0.010 A 
HETATM   10  C   UNL     1      10.529   5.053  91.123  1.00  0.00     0.021 A 
HETATM   11  C   UNL     1      10.214   5.630  92.353  1.00  0.00     0.018 A 
HETATM   12  C   UNL     1      10.780   5.132  93.524  1.00  0.00     0.021 A 
HETATM   13  C   UNL     1      11.663   4.053  93.467  1.00  0.00     0.010 A 
BRANCH  11  14
HETATM   14  C   UNL     1       9.308   6.736  92.411  1.00  0.00    -0.061 C 
HETATM   15  C   UNL     1       8.546   7.665  92.461  1.00  0.00    -0.061 C 
BRANCH  15  16
HETATM   16  C   UNL     1       7.641   8.770  92.519  1.00  0.00     0.018 A 
HETATM   17  C   UNL     1       6.861   9.090  91.408  1.00  0.00     0.022 A 
HETATM   18  C   UNL     1       5.976  10.167  91.466  1.00  0.00     0.018 A 
HETATM   19  C   UNL     1       5.891  10.898  92.632  1.00  0.00     0.032 A 
HETATM   20  C   UNL     1       6.651  10.602  93.743  1.00  0.00     0.018 A 
HETATM   21  C   UNL     1       7.537   9.526  93.687  1.00  0.00     0.022 A 
BRANCH  19  22
HETATM   22  C   UNL     1       4.949  12.046  92.692  1.00  0.00     0.252 C 
HETATM   23  O   UNL     1       4.727  12.583  93.775  1.00  0.00    -0.268 OA
HETATM   24  N   UNL     1       4.399  12.446  91.482  1.00  0.00    -0.342 N 
HETATM   25  H   UNL     1       4.649  11.969  90.623  1.00  0.00     0.163 HD
BRANCH  24  26
HETATM   26  C   UNL     1       3.489  13.557  91.373  1.00  0.00     0.199 C 
BRANCH  26  27
HETATM   27  C   UNL     1       3.485  14.187  89.975  1.00  0.00     0.145 C 
HETATM   28  C   UNL     1       4.876  14.626  89.529  1.00  0.00     0.042 C 
BRANCH  27  29
HETATM   29  O   UNL     1       2.970  13.249  89.030  1.00  0.00    -0.393 OA
HETATM   30  H   UNL     1       2.034  13.090  89.238  1.00  0.00     0.210 HD
ENDBRANCH  27  29
ENDBRANCH  26  27
BRANCH  26  31
HETATM   31  C   UNL     1       2.100  13.061  91.762  1.00  0.00     0.220 C 
HETATM   32  O   UNL     1       1.751  11.888  91.648  1.00  0.00    -0.278 OA
HETATM   33  N   UNL     1       1.291  14.079  92.208  1.00  0.00    -0.271 NA
HETATM   34  H   UNL     1       1.516  15.067  92.230  1.00  0.00     0.127 HD
HETATM   35  H   UNL     1       0.192  14.666  91.562  1.00  0.00     0.127 HD
ENDBRANCH  26  31
ENDBRANCH  24  26
ENDBRANCH  19  22
ENDBRANCH  15  16
ENDBRANCH  11  14
ENDBRANCH   7   8
ENDBRANCH   2   7
TORSDOF 9
ENDMDL
MODEL 3
REMARK VINA RESULT:      -6.4      1.402      1.906
REMARK  9 active torsions:
REMARK  status: ('A' for Active; 'I' for Inactive)
REMARK    1  A    between atoms: O_2  and  C_17 
REMARK    2  A    between atoms: N_5  and  C_10 
REMARK    3  A    between atoms: N_6  and  C_14 
REMARK       I    between atoms: N_6  and  C_23 
REMARK       I    between atoms: N_7  and  C_22 
REMARK    4  A    between atoms: C_10  and  C_13 
REMARK    5  A    between atoms: C_14  and  C_17 
REMARK    6  A    between atoms: C_14  and  C_22 
REMARK    7  A    between atoms: C_20  and  C_25 
REMARK    8  A    between atoms: C_23  and  C_24 
REMARK    9  A    between atoms: C_28  and  C_31 
ROOT
HETATM    1  O   UNL     1      17.045   4.427  93.310  1.00  0.00    -0.388 OA
HETATM    2  N   UNL     1      14.735   2.837  93.793  1.00  0.00     0.096 N 
HETATM    3  C   UNL     1      15.853   2.340  92.980  1.00  0.00     0.299 C 
HETATM    4  C   UNL     1      14.654   4.301  93.697  1.00  0.00     0.299 C 
HETATM    5  C   UNL     1      17.152   3.007  93.423  1.00  0.00     0.198 C 
HETATM    6  C   UNL     1      15.980   4.922  94.123  1.00  0.00     0.198 C 
ENDROOT
BRANCH   2   7
HETATM    7  C   UNL     1      13.477   2.218  93.378  1.00  0.00     0.311 C 
BRANCH   7   8
HETATM    8  C   UNL     1      12.487   3.219  92.887  1.00  0.00    -0.030 A 
HETATM    9  C   UNL     1      11.788   4.012  93.798  1.00  0.00     0.010 A 
HETATM   10  C   UNL     1      10.860   4.946  93.341  1.00  0.00     0.021 A 
HETATM   11  C   UNL     1      10.632   5.089  91.972  1.00  0.00     0.018 A 
HETATM   12  C   UNL     1      11.330   4.298  91.062  1.00  0.00     0.021 A 
HETATM   13  C   UNL     1      12.258   3.363  91.519  1.00  0.00     0.010 A 
BRANCH  11  14
HETATM   14  C   UNL     1       9.682   6.050  91.503  1.00  0.00    -0.061 C 
HETATM   15  C   UNL     1       8.883   6.857  91.108  1.00  0.00    -0.061 C 
BRANCH  15  16
HETATM   16  C   UNL     1       7.933   7.817  90.637  1.00  0.00     0.018 A 
HETATM   17  C   UNL     1       8.209   9.180  90.745  1.00  0.00     0.022 A 
HETATM   18  C   UNL     1       7.283  10.116  90.284  1.00  0.00     0.018 A 
HETATM   19  C   UNL     1       6.105   9.669  89.725  1.00  0.00     0.032 A 
HETATM   20  C   UNL     1       5.809   8.327  89.608  1.00  0.00     0.018 A 
HETATM   21  C   UNL     1       6.734   7.390  90.069  1.00  0.00     0.022 A 
BRANCH  19  22
HETATM   22  C   UNL     1       5.118  10.666  89.236  1.00  0.00     0.252 C 
HETATM   23  O   UNL     1       4.381  10.371  88.298  1.00  0.00    -0.268 OA
HETATM   24  N   UNL     1       5.091  11.877  89.913  1.00  0.00    -0.342 N 
HETATM   25  H   UNL     1       5.713  12.041  90.696  1.00  0.00     0.163 HD
BRANCH  24  26
HETATM   26  C   UNL     1       4.174  12.936  89.574  1.00  0.00     0.199 C 
BRANCH  26  27
HETATM   27  C   UNL     1       3.739  13.758  90.793  1.00  0.00     0.145 C 
HETATM   28  C   UNL     1       2.324  14.309  90.650  1.00  0.00     0.042 C 
BRANCH  27  29
HETATM   29  O   UNL     1       3.803  12.946  91.964  1.00  0.00    -0.393 OA
HETATM   30  H   UNL     1       3.051  13.174  92.536  1.00  0.00     0.210 HD
ENDBRANCH  27  29
ENDBRANCH  26  27
BRANCH  26  31
HETATM   31  C   UNL     1       4.846  13.814  88.523  1.00  0.00     0.220 C 
HETATM   32  O   UNL     1       5.387  14.885  88.793  1.00  0.00    -0.278 OA
HETATM   33  N   UNL     1       4.736  13.288  87.259  1.00  0.00    -0.271 NA
HETATM   34  H   UNL     1       4.222  12.457  86.990  1.00  0.00     0.127 HD
HETATM   35  H   UNL     1       3.943  13.740  86.192  1.00  0.00     0.127 HD
ENDBRANCH  26  31
ENDBRANCH  24  26
ENDBRANCH  19  22
ENDBRANCH  15  16
ENDBRANCH  11  14
ENDBRANCH   7   8
ENDBRANCH   2   7
TORSDOF 9
ENDMDL
MODEL 4
REMARK VINA RESULT:      -5.7      1.928     12.162
REMARK  9 active torsions:
REMARK  status: ('A' for Active; 'I' for Inactive)
REMARK    1  A    between atoms: O_2  and  C_17 
REMARK    2  A    between atoms: N_5  and  C_10 
REMARK    3  A    between atoms: N_6  and  C_14 
REMARK       I    between atoms: N_6  and  C_23 
REMARK       I    between atoms: N_7  and  C_22 
REMARK    4  A    between atoms: C_10  and  C_13 
REMARK    5  A    between atoms: C_14  and  C_17 
REMARK    6  A    between atoms: C_14  and  C_22 
REMARK    7  A    between atoms: C_20  and  C_25 
REMARK    8  A    between atoms: C_23  and  C_24 
REMARK    9  A    between atoms: C_28  and  C_31 
ROOT
HETATM    1  O   UNL     1       3.640  15.081  93.104  1.00  0.00    -0.388 OA
HETATM    2  N   UNL     1       2.844  14.254  90.499  1.00  0.00     0.096 N 
HETATM    3  C   UNL     1       2.178  13.741  91.705  1.00  0.00     0.299 C 
HETATM    4  C   UNL     1       4.240  14.599  90.804  1.00  0.00     0.299 C 
HETATM    5  C   UNL     1       2.273  14.773  92.826  1.00  0.00     0.198 C 
HETATM    6  C   UNL     1       4.287  15.609  91.946  1.00  0.00     0.198 C 
ENDROOT
BRANCH   2   7
HETATM    7  C   UNL     1       2.775  13.277  89.414  1.00  0.00     0.311 C 
BRANCH   7   8
HETATM    8  C   UNL     1       3.758  12.169  89.584  1.00  0.00    -0.030 A 
HETATM    9  C   UNL     1       3.334  10.929  90.063  1.00  0.00     0.010 A 
HETATM   10  C   UNL     1       4.253   9.892  90.225  1.00  0.00     0.021 A 
HETATM   11  C   UNL     1       5.595  10.096  89.905  1.00  0.00     0.018 A 
HETATM   12  C   UNL     1       6.020  11.334  89.426  1.00  0.00     0.021 A 
HETATM   13  C   UNL     1       5.101  12.371  89.266  1.00  0.00     0.010 A 
BRANCH  11  14
HETATM   14  C   UNL     1       6.538   9.032  90.069  1.00  0.00    -0.061 C 
HETATM   15  C   UNL     1       7.329   8.137  90.207  1.00  0.00    -0.061 C 
BRANCH  15  16
HETATM   16  C   UNL     1       8.270   7.074  90.371  1.00  0.00     0.018 A 
HETATM   17  C   UNL     1       8.090   6.134  91.386  1.00  0.00     0.022 A 
HETATM   18  C   UNL     1       9.006   5.095  91.544  1.00  0.00     0.018 A 
HETATM   19  C   UNL     1      10.081   5.018  90.684  1.00  0.00     0.032 A 
HETATM   20  C   UNL     1      10.282   5.934  89.673  1.00  0.00     0.018 A 
HETATM   21  C   UNL     1       9.366   6.974  89.514  1.00  0.00     0.022 A 
BRANCH  19  22
HETATM   22  C   UNL     1      11.059   3.911  90.854  1.00  0.00     0.252 C 
HETATM   23  O   UNL     1      10.917   2.880  90.201  1.00  0.00    -0.268 OA
HETATM   24  N   UNL     1      12.097   4.148  91.744  1.00  0.00    -0.342 N 
HETATM   25  H   UNL     1      12.163   5.035  92.230  1.00  0.00     0.163 HD
BRANCH  24  26
HETATM   26  C   UNL     1      13.136   3.183  91.999  1.00  0.00     0.199 C 
BRANCH  26  27
HETATM   27  C   UNL     1      14.520   3.668  91.548  1.00  0.00     0.145 C 
HETATM   28  C   UNL     1      14.446   4.623  90.361  1.00  0.00     0.042 C 
BRANCH  27  29
HETATM   29  O   UNL     1      15.172   4.327  92.633  1.00  0.00    -0.393 OA
HETATM   30  H   UNL     1      15.011   3.813  93.442  1.00  0.00     0.210 HD
ENDBRANCH  27  29
ENDBRANCH  26  27
BRANCH  26  31
HETATM   31  C   UNL     1      13.119   2.863  93.490  1.00  0.00     0.220 C 
HETATM   32  O   UNL     1      13.980   2.176  94.037  1.00  0.00    -0.278 OA
HETATM   33  N   UNL     1      12.023   3.396  94.123  1.00  0.00    -0.271 NA
HETATM   34  H   UNL     1      11.251   3.890  93.688  1.00  0.00     0.127 HD
HETATM   35  H   UNL     1      10.897   2.727  94.627  1.00  0.00     0.127 HD
ENDBRANCH  26  31
ENDBRANCH  24  26
ENDBRANCH  19  22
ENDBRANCH  15  16
ENDBRANCH  11  14
ENDBRANCH   7   8
ENDBRANCH   2   7
TORSDOF 9
ENDMDL
MODEL 5
REMARK VINA RESULT:      -5.4      1.978      2.513
REMARK  9 active torsions:
REMARK  status: ('A' for Active; 'I' for Inactive)
REMARK    1  A    between atoms: O_2  and  C_17 
REMARK    2  A    between atoms: N_5  and  C_10 
REMARK    3  A    between atoms: N_6  and  C_14 
REMARK       I    between atoms: N_6  and  C_23 
REMARK       I    between atoms: N_7  and  C_22 
REMARK    4  A    between atoms: C_10  and  C_13 
REMARK    5  A    between atoms: C_14  and  C_17 
REMARK    6  A    between atoms: C_14  and  C_22 
REMARK    7  A    between atoms: C_20  and  C_25 
REMARK    8  A    between atoms: C_23  and  C_24 
REMARK    9  A    between atoms: C_28  and  C_31 
ROOT
HETATM    1  O   UNL     1      15.773   4.481  93.465  1.00  0.00    -0.388 OA
HETATM    2  N   UNL     1      13.893   2.689  92.300  1.00  0.00     0.096 N 
HETATM    3  C   UNL     1      14.091   4.045  91.770  1.00  0.00     0.299 C 
HETATM    4  C   UNL     1      14.191   2.663  93.739  1.00  0.00     0.299 C 
HETATM    5  C   UNL     1      15.516   4.510  92.059  1.00  0.00     0.198 C 
HETATM    6  C   UNL     1      15.612   3.160  93.983  1.00  0.00     0.198 C 
ENDROOT
BRANCH   2   7
HETATM    7  C   UNL     1      12.530   2.227  92.043  1.00  0.00     0.311 C 
BRANCH   7   8
HETATM    8  C   UNL     1      11.529   3.327  92.145  1.00  0.00    -0.030 A 
HETATM    9  C   UNL     1      11.349   3.995  93.357  1.00  0.00     0.010 A 
HETATM   10  C   UNL     1      10.411   5.023  93.454  1.00  0.00     0.021 A 
HETATM   11  C   UNL     1       9.655   5.383  92.339  1.00  0.00     0.018 A 
HETATM   12  C   UNL     1       9.834   4.717  91.129  1.00  0.00     0.021 A 
HETATM   13  C   UNL     1      10.771   3.689  91.031  1.00  0.00     0.010 A 
BRANCH  11  14
HETATM   14  C   UNL     1       8.695   6.439  92.438  1.00  0.00    -0.061 C 
HETATM   15  C   UNL     1       7.887   7.326  92.522  1.00  0.00    -0.061 C 
BRANCH  15  16
HETATM   16  C   UNL     1       6.927   8.381  92.622  1.00  0.00     0.018 A 
HETATM   17  C   UNL     1       7.355   9.707  92.689  1.00  0.00     0.022 A 
HETATM   18  C   UNL     1       6.419  10.736  92.783  1.00  0.00     0.018 A 
HETATM   19  C   UNL     1       5.077  10.417  92.809  1.00  0.00     0.032 A 
HETATM   20  C   UNL     1       4.629   9.114  92.745  1.00  0.00     0.018 A 
HETATM   21  C   UNL     1       5.565   8.084  92.651  1.00  0.00     0.022 A 
BRANCH  19  22
HETATM   22  C   UNL     1       4.080  11.514  92.912  1.00  0.00     0.252 C 
HETATM   23  O   UNL     1       3.425  11.634  93.944  1.00  0.00    -0.268 OA
HETATM   24  N   UNL     1       3.984  12.354  91.811  1.00  0.00    -0.342 N 
HETATM   25  H   UNL     1       4.577  12.208  91.002  1.00  0.00     0.163 HD
BRANCH  24  26
HETATM   26  C   UNL     1       3.082  13.476  91.768  1.00  0.00     0.199 C 
BRANCH  26  27
HETATM   27  C   UNL     1       3.656  14.725  92.449  1.00  0.00     0.145 C 
HETATM   28  C   UNL     1       4.637  15.478  91.556  1.00  0.00     0.042 C 
BRANCH  27  29
HETATM   29  O   UNL     1       2.591  15.604  92.811  1.00  0.00    -0.393 OA
HETATM   30  H   UNL     1       2.587  15.696  93.778  1.00  0.00     0.210 HD
ENDBRANCH  27  29
ENDBRANCH  26  27
BRANCH  26  31
HETATM   31  C   UNL     1       2.744  13.747  90.306  1.00  0.00     0.220 C 
HETATM   32  O   UNL     1       1.834  14.497  89.957  1.00  0.00    -0.278 OA
HETATM   33  N   UNL     1       3.543  13.032  89.448  1.00  0.00    -0.271 NA
HETATM   34  H   UNL     1       4.240  12.340  89.701  1.00  0.00     0.127 HD
HETATM   35  H   UNL     1       3.198  11.929  88.650  1.00  0.00     0.127 HD
ENDBRANCH  26  31
ENDBRANCH  24  26
ENDBRANCH  19  22
ENDBRANCH  15  16
ENDBRANCH  11  14
ENDBRANCH   7   8
ENDBRANCH   2   7
TORSDOF 9
ENDMDL
MODEL 6
REMARK VINA RESULT:      -5.1      1.794     12.373
REMARK  9 active torsions:
REMARK  status: ('A' for Active; 'I' for Inactive)
REMARK    1  A    between atoms: O_2  and  C_17 
REMARK    2  A    between atoms: N_5  and  C_10 
REMARK    3  A    between atoms: N_6  and  C_14 
REMARK       I    between atoms: N_6  and  C_23 
REMARK       I    between atoms: N_7  and  C_22 
REMARK    4  A    between atoms: C_10  and  C_13 
REMARK    5  A    between atoms: C_14  and  C_17 
REMARK    6  A    between atoms: C_14  and  C_22 
REMARK    7  A    between atoms: C_20  and  C_25 
REMARK    8  A    between atoms: C_23  and  C_24 
REMARK    9  A    between atoms: C_28  and  C_31 
ROOT
HETATM    1  O   UNL     1       3.170  14.602  93.318  1.00  0.00    -0.388 OA
HETATM    2  N   UNL     1       2.963  13.536  90.687  1.00  0.00     0.096 N 
HETATM    3  C   UNL     1       2.079  13.084  91.770  1.00  0.00     0.299 C 
HETATM    4  C   UNL     1       4.251  13.975  91.239  1.00  0.00     0.299 C 
HETATM    5  C   UNL     1       1.902  14.203  92.794  1.00  0.00     0.198 C 
HETATM    6  C   UNL     1       4.024  15.072  92.275  1.00  0.00     0.198 C 
ENDROOT
BRANCH   2   7
HETATM    7  C   UNL     1       3.155  12.475  89.699  1.00  0.00     0.311 C 
BRANCH   7   8
HETATM    8  C   UNL     1       4.220  11.512  90.100  1.00  0.00    -0.030 A 
HETATM    9  C   UNL     1       3.911  10.441  90.940  1.00  0.00     0.010 A 
HETATM   10  C   UNL     1       4.907   9.541  91.317  1.00  0.00     0.021 A 
HETATM   11  C   UNL     1       6.211   9.711  90.853  1.00  0.00     0.018 A 
HETATM   12  C   UNL     1       6.520  10.779  90.014  1.00  0.00     0.021 A 
HETATM   13  C   UNL     1       5.525  11.680  89.637  1.00  0.00     0.010 A 
BRANCH  11  14
HETATM   14  C   UNL     1       7.232   8.786  91.238  1.00  0.00    -0.061 C 
HETATM   15  C   UNL     1       8.090   8.008  91.563  1.00  0.00    -0.061 C 
BRANCH  15  16
HETATM   16  C   UNL     1       9.110   7.083  91.948  1.00  0.00     0.018 A 
HETATM   17  C   UNL     1       9.640   6.200  91.008  1.00  0.00     0.022 A 
HETATM   18  C   UNL     1      10.637   5.300  91.384  1.00  0.00     0.018 A 
HETATM   19  C   UNL     1      11.081   5.303  92.689  1.00  0.00     0.032 A 
HETATM   20  C   UNL     1      10.573   6.166  93.637  1.00  0.00     0.018 A 
HETATM   21  C   UNL     1       9.576   7.067  93.263  1.00  0.00     0.022 A 
BRANCH  19  22
HETATM   22  C   UNL     1      12.142   4.342  93.089  1.00  0.00     0.252 C 
HETATM   23  O   UNL     1      11.982   3.659  94.097  1.00  0.00    -0.268 OA
HETATM   24  N   UNL     1      13.248   4.276  92.254  1.00  0.00    -0.342 N 
HETATM   25  H   UNL     1      13.300   4.854  91.424  1.00  0.00     0.163 HD
BRANCH  24  26
HETATM   26  C   UNL     1      14.348   3.377  92.494  1.00  0.00     0.199 C 
BRANCH  26  27
HETATM   27  C   UNL     1      15.180   3.771  93.721  1.00  0.00     0.145 C 
HETATM   28  C   UNL     1      16.403   2.879  93.909  1.00  0.00     0.042 C 
BRANCH  27  29
HETATM   29  O   UNL     1      15.611   5.126  93.591  1.00  0.00    -0.393 OA
HETATM   30  H   UNL     1      15.784   5.301  92.650  1.00  0.00     0.210 HD
ENDBRANCH  27  29
ENDBRANCH  26  27
BRANCH  26  31
HETATM   31  C   UNL     1      13.777   1.970  92.641  1.00  0.00     0.220 C 
HETATM   32  O   UNL     1      14.309   1.099  93.326  1.00  0.00    -0.278 OA
HETATM   33  N   UNL     1      12.636   1.793  91.895  1.00  0.00    -0.271 NA
HETATM   34  H   UNL     1      12.222   2.458  91.253  1.00  0.00     0.127 HD
HETATM   35  H   UNL     1      12.470   1.038  90.723  1.00  0.00     0.127 HD
ENDBRANCH  26  31
ENDBRANCH  24  26
ENDBRANCH  19  22
ENDBRANCH  15  16
ENDBRANCH  11  14
ENDBRANCH   7   8
ENDBRANCH   2   7
TORSDOF 9
ENDMDL
MODEL 7
REMARK VINA RESULT:      -5.1      2.088     12.347
REMARK  9 active torsions:
REMARK  status: ('A' for Active; 'I' for Inactive)
REMARK    1  A    between atoms: O_2  and  C_17 
REMARK    2  A    between atoms: N_5  and  C_10 
REMARK    3  A    between atoms: N_6  and  C_14 
REMARK       I    between atoms: N_6  and  C_23 
REMARK       I    between atoms: N_7  and  C_22 
REMARK    4  A    between atoms: C_10  and  C_13 
REMARK    5  A    between atoms: C_14  and  C_17 
REMARK    6  A    between atoms: C_14  and  C_22 
REMARK    7  A    between atoms: C_20  and  C_25 
REMARK    8  A    between atoms: C_23  and  C_24 
REMARK    9  A    between atoms: C_28  and  C_31 
ROOT
HETATM    1  O   UNL     1       4.724  13.826  88.583  1.00  0.00    -0.388 OA
HETATM    2  N   UNL     1       3.195  12.780  90.744  1.00  0.00     0.096 N 
HETATM    3  C   UNL     1       4.219  13.813  90.957  1.00  0.00     0.299 C 
HETATM    4  C   UNL     1       3.548  11.954  89.581  1.00  0.00     0.299 C 
HETATM    5  C   UNL     1       4.374  14.655  89.693  1.00  0.00     0.198 C 
HETATM    6  C   UNL     1       3.719  12.839  88.350  1.00  0.00     0.198 C 
ENDROOT
BRANCH   2   7
HETATM    7  C   UNL     1       3.038  11.954  91.940  1.00  0.00     0.311 C 
BRANCH   7   8
HETATM    8  C   UNL     1       4.137  10.958  92.091  1.00  0.00    -0.030 A 
HETATM    9  C   UNL     1       3.908   9.616  91.786  1.00  0.00     0.010 A 
HETATM   10  C   UNL     1       4.935   8.683  91.929  1.00  0.00     0.021 A 
HETATM   11  C   UNL     1       6.191   9.093  92.375  1.00  0.00     0.018 A 
HETATM   12  C   UNL     1       6.421  10.433  92.680  1.00  0.00     0.021 A 
HETATM   13  C   UNL     1       5.394  11.366  92.538  1.00  0.00     0.010 A 
BRANCH  11  14
HETATM   14  C   UNL     1       7.245   8.137  92.520  1.00  0.00    -0.061 C 
HETATM   15  C   UNL     1       8.130   7.332  92.642  1.00  0.00    -0.061 C 
BRANCH  15  16
HETATM   16  C   UNL     1       9.183   6.376  92.786  1.00  0.00     0.018 A 
HETATM   17  C   UNL     1       9.504   5.528  91.725  1.00  0.00     0.022 A 
HETATM   18  C   UNL     1      10.533   4.597  91.865  1.00  0.00     0.018 A 
HETATM   19  C   UNL     1      11.217   4.535  93.061  1.00  0.00     0.032 A 
HETATM   20  C   UNL     1      10.919   5.361  94.124  1.00  0.00     0.018 A 
HETATM   21  C   UNL     1       9.890   6.293  93.985  1.00  0.00     0.022 A 
BRANCH  19  22
HETATM   22  C   UNL     1      12.312   3.541  93.210  1.00  0.00     0.252 C 
HETATM   23  O   UNL     1      12.036   2.345  93.240  1.00  0.00    -0.268 OA
HETATM   24  N   UNL     1      13.598   4.059  93.281  1.00  0.00    -0.342 N 
HETATM   25  H   UNL     1      13.752   5.059  93.224  1.00  0.00     0.163 HD
BRANCH  24  26
HETATM   26  C   UNL     1      14.765   3.224  93.402  1.00  0.00     0.199 C 
BRANCH  26  27
HETATM   27  C   UNL     1      15.072   2.443  92.117  1.00  0.00     0.145 C 
HETATM   28  C   UNL     1      14.717   3.227  90.859  1.00  0.00     0.042 C 
BRANCH  27  29
HETATM   29  O   UNL     1      16.460   2.112  92.081  1.00  0.00    -0.393 OA
HETATM   30  H   UNL     1      16.885   2.492  92.868  1.00  0.00     0.210 HD
ENDBRANCH  27  29
ENDBRANCH  26  27
BRANCH  26  31
HETATM   31  C   UNL     1      15.937   4.114  93.803  1.00  0.00     0.220 C 
HETATM   32  O   UNL     1      15.876   5.343  93.799  1.00  0.00    -0.278 OA
HETATM   33  N   UNL     1      17.056   3.386  94.124  1.00  0.00    -0.271 NA
HETATM   34  H   UNL     1      17.168   2.382  94.052  1.00  0.00     0.127 HD
HETATM   35  H   UNL     1      18.248   3.253  93.394  1.00  0.00     0.127 HD
ENDBRANCH  26  31
ENDBRANCH  24  26
ENDBRANCH  19  22
ENDBRANCH  15  16
ENDBRANCH  11  14
ENDBRANCH   7   8
ENDBRANCH   2   7
TORSDOF 9
ENDMDL
MODEL 8
REMARK VINA RESULT:      -5.0      1.893     12.378
REMARK  9 active torsions:
REMARK  status: ('A' for Active; 'I' for Inactive)
REMARK    1  A    between atoms: O_2  and  C_17 
REMARK    2  A    between atoms: N_5  and  C_10 
REMARK    3  A    between atoms: N_6  and  C_14 
REMARK       I    between atoms: N_6  and  C_23 
REMARK       I    between atoms: N_7  and  C_22 
REMARK    4  A    between atoms: C_10  and  C_13 
REMARK    5  A    between atoms: C_14  and  C_17 
REMARK    6  A    between atoms: C_14  and  C_22 
REMARK    7  A    between atoms: C_20  and  C_25 
REMARK    8  A    between atoms: C_23  and  C_24 
REMARK    9  A    between atoms: C_28  and  C_31 
ROOT
HETATM    1  O   UNL     1       5.052  14.457  88.881  1.00  0.00    -0.388 OA
HETATM    2  N   UNL     1       3.209  12.506  89.830  1.00  0.00     0.096 N 
HETATM    3  C   UNL     1       3.533  13.703  90.618  1.00  0.00     0.299 C 
HETATM    4  C   UNL     1       4.352  12.136  88.983  1.00  0.00     0.299 C 
HETATM    5  C   UNL     1       3.935  14.843  89.685  1.00  0.00     0.198 C 
HETATM    6  C   UNL     1       4.735  13.312  88.089  1.00  0.00     0.198 C 
ENDROOT
BRANCH   2   7
HETATM    7  C   UNL     1       2.831  11.397  90.705  1.00  0.00     0.311 C 
BRANCH   7   8
HETATM    8  C   UNL     1       3.981  10.501  91.016  1.00  0.00    -0.030 A 
HETATM    9  C   UNL     1       3.949   9.163  90.621  1.00  0.00     0.010 A 
HETATM   10  C   UNL     1       5.023   8.323  90.913  1.00  0.00     0.021 A 
HETATM   11  C   UNL     1       6.131   8.823  91.598  1.00  0.00     0.018 A 
HETATM   12  C   UNL     1       6.165  10.158  91.992  1.00  0.00     0.021 A 
HETATM   13  C   UNL     1       5.090  10.998  91.701  1.00  0.00     0.010 A 
BRANCH  11  14
HETATM   14  C   UNL     1       7.234   7.961  91.896  1.00  0.00    -0.061 C 
HETATM   15  C   UNL     1       8.161   7.238  92.145  1.00  0.00    -0.061 C 
BRANCH  15  16
HETATM   16  C   UNL     1       9.264   6.378  92.442  1.00  0.00     0.018 A 
HETATM   17  C   UNL     1       9.842   5.611  91.430  1.00  0.00     0.022 A 
HETATM   18  C   UNL     1      10.919   4.775  91.719  1.00  0.00     0.018 A 
HETATM   19  C   UNL     1      11.395   4.723  93.013  1.00  0.00     0.032 A 
HETATM   20  C   UNL     1      10.841   5.470  94.031  1.00  0.00     0.018 A 
HETATM   21  C   UNL     1       9.763   6.307  93.743  1.00  0.00     0.022 A 
BRANCH  19  22
HETATM   22  C   UNL     1      12.542   3.830  93.321  1.00  0.00     0.252 C 
HETATM   23  O   UNL     1      12.389   2.913  94.124  1.00  0.00    -0.268 OA
HETATM   24  N   UNL     1      13.721   4.097  92.639  1.00  0.00    -0.342 N 
HETATM   25  H   UNL     1      13.766   4.858  91.971  1.00  0.00     0.163 HD
BRANCH  24  26
HETATM   26  C   UNL     1      14.913   3.306  92.811  1.00  0.00     0.199 C 
BRANCH  26  27
HETATM   27  C   UNL     1      15.838   3.857  93.903  1.00  0.00     0.145 C 
HETATM   28  C   UNL     1      17.227   3.229  93.862  1.00  0.00     0.042 C 
BRANCH  27  29
HETATM   29  O   UNL     1      15.964   5.270  93.754  1.00  0.00    -0.393 OA
HETATM   30  H   UNL     1      15.073   5.647  93.656  1.00  0.00     0.210 HD
ENDBRANCH  27  29
ENDBRANCH  26  27
BRANCH  26  31
HETATM   31  C   UNL     1      14.482   1.876  93.119  1.00  0.00     0.220 C 
HETATM   32  O   UNL     1      14.870   1.257  94.108  1.00  0.00    -0.278 OA
HETATM   33  N   UNL     1      13.653   1.363  92.150  1.00  0.00    -0.271 NA
HETATM   34  H   UNL     1      13.386   1.811  91.281  1.00  0.00     0.127 HD
HETATM   35  H   UNL     1      13.939   0.382  91.188  1.00  0.00     0.127 HD
ENDBRANCH  26  31
ENDBRANCH  24  26
ENDBRANCH  19  22
ENDBRANCH  15  16
ENDBRANCH  11  14
ENDBRANCH   7   8
ENDBRANCH   2   7
TORSDOF 9
ENDMDL
MODEL 9
REMARK VINA RESULT:      -4.9      1.723     12.271
REMARK  9 active torsions:
REMARK  status: ('A' for Active; 'I' for Inactive)
REMARK    1  A    between atoms: O_2  and  C_17 
REMARK    2  A    between atoms: N_5  and  C_10 
REMARK    3  A    between atoms: N_6  and  C_14 
REMARK       I    between atoms: N_6  and  C_23 
REMARK       I    between atoms: N_7  and  C_22 
REMARK    4  A    between atoms: C_10  and  C_13 
REMARK    5  A    between atoms: C_14  and  C_17 
REMARK    6  A    between atoms: C_14  and  C_22 
REMARK    7  A    between atoms: C_20  and  C_25 
REMARK    8  A    between atoms: C_23  and  C_24 
REMARK    9  A    between atoms: C_28  and  C_31 
ROOT
HETATM    1  O   UNL     1       4.411  14.218  90.619  1.00  0.00    -0.388 OA
HETATM    2  N   UNL     1       3.545  12.176  88.835  1.00  0.00     0.096 N 
HETATM    3  C   UNL     1       2.933  12.349  90.160  1.00  0.00     0.299 C 
HETATM    4  C   UNL     1       4.942  12.631  88.863  1.00  0.00     0.299 C 
HETATM    5  C   UNL     1       3.042  13.809  90.594  1.00  0.00     0.198 C 
HETATM    6  C   UNL     1       5.005  14.082  89.327  1.00  0.00     0.198 C 
ENDROOT
BRANCH   2   7
HETATM    7  C   UNL     1       3.460  10.782  88.404  1.00  0.00     0.311 C 
BRANCH   7   8
HETATM    8  C   UNL     1       4.525   9.934  89.012  1.00  0.00    -0.030 A 
HETATM    9  C   UNL     1       5.629   9.550  88.250  1.00  0.00     0.010 A 
HETATM   10  C   UNL     1       6.625   8.754  88.817  1.00  0.00     0.021 A 
HETATM   11  C   UNL     1       6.517   8.346  90.146  1.00  0.00     0.018 A 
HETATM   12  C   UNL     1       5.416   8.730  90.908  1.00  0.00     0.021 A 
HETATM   13  C   UNL     1       4.419   9.524  90.341  1.00  0.00     0.010 A 
BRANCH  11  14
HETATM   14  C   UNL     1       7.540   7.532  90.728  1.00  0.00    -0.061 C 
HETATM   15  C   UNL     1       8.400   6.848  91.217  1.00  0.00    -0.061 C 
BRANCH  15  16
HETATM   16  C   UNL     1       9.423   6.036  91.798  1.00  0.00     0.018 A 
HETATM   17  C   UNL     1      10.215   5.226  90.984  1.00  0.00     0.022 A 
HETATM   18  C   UNL     1      11.215   4.435  91.552  1.00  0.00     0.018 A 
HETATM   19  C   UNL     1      11.399   4.473  92.918  1.00  0.00     0.032 A 
HETATM   20  C   UNL     1      10.629   5.265  93.743  1.00  0.00     0.018 A 
HETATM   21  C   UNL     1       9.629   6.056  93.177  1.00  0.00     0.022 A 
BRANCH  19  22
HETATM   22  C   UNL     1      12.463   3.629  93.522  1.00  0.00     0.252 C 
HETATM   23  O   UNL     1      12.147   2.606  94.124  1.00  0.00    -0.268 OA
HETATM   24  N   UNL     1      13.767   4.065  93.331  1.00  0.00    -0.342 N 
HETATM   25  H   UNL     1      13.953   4.908  92.800  1.00  0.00     0.163 HD
BRANCH  24  26
HETATM   26  C   UNL     1      14.907   3.343  93.834  1.00  0.00     0.199 C 
BRANCH  26  27
HETATM   27  C   UNL     1      15.154   2.026  93.086  1.00  0.00     0.145 C 
HETATM   28  C   UNL     1      15.171   0.820  94.018  1.00  0.00     0.042 C 
BRANCH  27  29
HETATM   29  O   UNL     1      14.136   1.838  92.103  1.00  0.00    -0.393 OA
HETATM   30  H   UNL     1      14.363   1.053  91.576  1.00  0.00     0.210 HD
ENDBRANCH  27  29
ENDBRANCH  26  27
BRANCH  26  31
HETATM   31  C   UNL     1      16.119   4.265  93.746  1.00  0.00     0.220 C 
HETATM   32  O   UNL     1      16.024   5.485  93.622  1.00  0.00    -0.278 OA
HETATM   33  N   UNL     1      17.304   3.571  93.783  1.00  0.00    -0.271 NA
HETATM   34  H   UNL     1      17.417   2.564  93.794  1.00  0.00     0.127 HD
HETATM   35  H   UNL     1      18.214   3.345  92.739  1.00  0.00     0.127 HD
ENDBRANCH  26  31
ENDBRANCH  24  26
ENDBRANCH  19  22
ENDBRANCH  15  16
ENDBRANCH  11  14
ENDBRANCH   7   8
ENDBRANCH   2   7
TORSDOF 9
ENDMDL
