MODEL 1
REMARK VINA RESULT:      -5.7      0.000      0.000
REMARK  12 active torsions:
REMARK  status: ('A' for Active; 'I' for Inactive)
REMARK    1  A    between atoms: O_2  and  C_16 
REMARK    2  A    between atoms: N_5  and  C_9 
REMARK    3  A    between atoms: N_6  and  C_13 
REMARK       I    between atoms: N_6  and  C_22 
REMARK    4  A    between atoms: C_9  and  C_12 
REMARK    5  A    between atoms: C_13  and  C_16 
REMARK    6  A    between atoms: C_13  and  C_21 
REMARK    7  A    between atoms: C_19  and  C_24 
REMARK    8  A    between atoms: C_21  and  C_33 
REMARK    9  A    between atoms: C_22  and  C_23 
REMARK   10  A    between atoms: C_27  and  C_30 
REMARK   11  A    between atoms: C_33  and  C_34 
REMARK   12  A    between atoms: C_34  and  C_35 
ROOT
HETATM    1  O   UNL     1      17.269   4.851  93.301  1.00  0.00    -0.350 OA
HETATM    2  N   UNL     1      15.393   2.803  93.924  1.00  0.00     0.147 N 
HETATM    3  C   UNL     1      16.579   2.533  93.099  1.00  0.00     0.283 C 
HETATM    4  C   UNL     1      14.978   4.203  93.766  1.00  0.00     0.283 C 
HETATM    5  C   UNL     1      17.700   3.499  93.473  1.00  0.00     0.178 C 
HETATM    6  C   UNL     1      16.136   5.130  94.124  1.00  0.00     0.178 C 
ENDROOT
BRANCH   2   7
HETATM    7  C   UNL     1      14.302   1.894  93.575  1.00  0.00     0.277 C 
BRANCH   7   8
HETATM    8  C   UNL     1      13.207   2.581  92.833  1.00  0.00     0.011 A 
HETATM    9  C   UNL     1      13.376   2.908  91.487  1.00  0.00    -0.002 A 
HETATM   10  C   UNL     1      12.353   3.552  90.792  1.00  0.00     0.008 A 
HETATM   11  C   UNL     1      11.161   3.868  91.443  1.00  0.00     0.042 A 
HETATM   12  C   UNL     1      10.991   3.543  92.787  1.00  0.00     0.008 A 
HETATM   13  C   UNL     1      12.014   2.899  93.483  1.00  0.00    -0.002 A 
BRANCH  11  14
HETATM   14  C   UNL     1      10.111   4.528  90.729  1.00  0.00    -0.059 C 
HETATM   15  C   UNL     1       9.229   5.082  90.129  1.00  0.00    -0.059 C 
BRANCH  15  16
HETATM   16  C   UNL     1       8.179   5.741  89.415  1.00  0.00     0.042 A 
HETATM   17  C   UNL     1       8.444   6.339  88.183  1.00  0.00     0.008 A 
HETATM   18  C   UNL     1       7.420   6.979  87.486  1.00  0.00     0.005 A 
HETATM   19  C   UNL     1       6.155   7.006  88.034  1.00  0.00     0.056 A 
HETATM   20  C   UNL     1       5.868   6.422  89.250  1.00  0.00     0.005 A 
HETATM   21  C   UNL     1       6.891   5.782  89.949  1.00  0.00     0.008 A 
BRANCH  19  22
HETATM   22  C   UNL     1       5.065   7.689  87.292  1.00  0.00     0.254 C 
HETATM   23  O   UNL     1       5.080   7.684  86.063  1.00  0.00    -0.268 OA
HETATM   24  N   UNL     1       4.075   8.275  88.068  1.00  0.00    -0.335 N 
HETATM   25  HN  UNL     1       4.115   8.218  89.079  1.00  0.00     0.164 HD
BRANCH  24  26
HETATM   26  C   UNL     1       2.940   8.954  87.496  1.00  0.00     0.166 C 
BRANCH  26  27
HETATM   27  C   UNL     1       1.602   8.330  87.914  1.00  0.00     0.138 C 
HETATM   28  C   UNL     1       1.283   7.058  87.138  1.00  0.00     0.034 C 
BRANCH  27  29
HETATM   29  O   UNL     1       1.632   8.027  89.308  1.00  0.00    -0.383 OA
HETATM   30  H   UNL     1       1.165   8.734  89.784  1.00  0.00     0.210 HD
ENDBRANCH  27  29
ENDBRANCH  26  27
BRANCH  26  31
HETATM   31  C   UNL     1       3.019  10.421  87.904  1.00  0.00     0.181 C 
HETATM   32  O   UNL     1       2.064  11.191  87.823  1.00  0.00    -0.294 OA
BRANCH  31  33
HETATM   33  C   UNL     1       3.619  10.598  89.400  1.00  0.00     0.138 C 
BRANCH  33  34
HETATM   34  C   UNL     1       4.835  11.263  89.130  1.00  0.00     0.208 C 
HETATM   35  O   UNL     1       5.713  10.589  88.641  1.00  0.00    -0.289 OA
BRANCH  34  36
HETATM   36  C   UNL     1       5.119  12.599  89.055  1.00  0.00     0.194 C 
HETATM   37  O   UNL     1       6.069  13.280  88.285  1.00  0.00    -0.185 OA
ENDBRANCH  34  36
ENDBRANCH  33  34
ENDBRANCH  31  33
ENDBRANCH  26  31
ENDBRANCH  24  26
ENDBRANCH  19  22
ENDBRANCH  15  16
ENDBRANCH  11  14
ENDBRANCH   7   8
ENDBRANCH   2   7
TORSDOF 12
ENDMDL
MODEL 2
REMARK VINA RESULT:      -5.6      3.364      4.923
REMARK  12 active torsions:
REMARK  status: ('A' for Active; 'I' for Inactive)
REMARK    1  A    between atoms: O_2  and  C_16 
REMARK    2  A    between atoms: N_5  and  C_9 
REMARK    3  A    between atoms: N_6  and  C_13 
REMARK       I    between atoms: N_6  and  C_22 
REMARK    4  A    between atoms: C_9  and  C_12 
REMARK    5  A    between atoms: C_13  and  C_16 
REMARK    6  A    between atoms: C_13  and  C_21 
REMARK    7  A    between atoms: C_19  and  C_24 
REMARK    8  A    between atoms: C_21  and  C_33 
REMARK    9  A    between atoms: C_22  and  C_23 
REMARK   10  A    between atoms: C_27  and  C_30 
REMARK   11  A    between atoms: C_33  and  C_34 
REMARK   12  A    between atoms: C_34  and  C_35 
ROOT
HETATM    1  O   UNL     1      16.560   2.760  93.845  1.00  0.00    -0.350 OA
HETATM    2  N   UNL     1      13.924   2.982  92.792  1.00  0.00     0.147 N 
HETATM    3  C   UNL     1      14.567   1.674  92.985  1.00  0.00     0.283 C 
HETATM    4  C   UNL     1      14.943   4.011  92.539  1.00  0.00     0.283 C 
HETATM    5  C   UNL     1      15.580   1.758  94.124  1.00  0.00     0.178 C 
HETATM    6  C   UNL     1      15.946   4.040  93.687  1.00  0.00     0.178 C 
ENDROOT
BRANCH   2   7
HETATM    7  C   UNL     1      12.957   2.927  91.698  1.00  0.00     0.277 C 
BRANCH   7   8
HETATM    8  C   UNL     1      11.853   3.915  91.866  1.00  0.00     0.011 A 
HETATM    9  C   UNL     1      11.506   4.361  93.142  1.00  0.00    -0.002 A 
HETATM   10  C   UNL     1      10.471   5.283  93.301  1.00  0.00     0.008 A 
HETATM   11  C   UNL     1       9.786   5.760  92.183  1.00  0.00     0.042 A 
HETATM   12  C   UNL     1      10.132   5.315  90.909  1.00  0.00     0.008 A 
HETATM   13  C   UNL     1      11.166   4.392  90.750  1.00  0.00    -0.002 A 
BRANCH  11  14
HETATM   14  C   UNL     1       8.727   6.707  92.346  1.00  0.00    -0.059 C 
HETATM   15  C   UNL     1       7.836   7.503  92.484  1.00  0.00    -0.059 C 
BRANCH  15  16
HETATM   16  C   UNL     1       6.777   8.450  92.647  1.00  0.00     0.042 A 
HETATM   17  C   UNL     1       5.451   8.046  92.490  1.00  0.00     0.008 A 
HETATM   18  C   UNL     1       4.418   8.970  92.653  1.00  0.00     0.005 A 
HETATM   19  C   UNL     1       4.734  10.274  92.969  1.00  0.00     0.056 A 
HETATM   20  C   UNL     1       6.037  10.698  93.129  1.00  0.00     0.005 A 
HETATM   21  C   UNL     1       7.071   9.776  92.966  1.00  0.00     0.008 A 
BRANCH  19  22
HETATM   22  C   UNL     1       3.634  11.258  93.140  1.00  0.00     0.254 C 
HETATM   23  O   UNL     1       2.651  10.948  93.809  1.00  0.00    -0.268 OA
HETATM   24  N   UNL     1       3.821  12.492  92.532  1.00  0.00    -0.335 N 
HETATM   25  HN  UNL     1       4.671  12.685  92.015  1.00  0.00     0.164 HD
BRANCH  24  26
HETATM   26  C   UNL     1       2.857  13.558  92.627  1.00  0.00     0.166 C 
BRANCH  26  27
HETATM   27  C   UNL     1       3.432  14.823  93.275  1.00  0.00     0.138 C 
HETATM   28  C   UNL     1       2.394  15.584  94.093  1.00  0.00     0.034 C 
BRANCH  27  29
HETATM   29  O   UNL     1       4.524  14.471  94.124  1.00  0.00    -0.383 OA
HETATM   30  H   UNL     1       5.198  15.168  94.058  1.00  0.00     0.210 HD
ENDBRANCH  27  29
ENDBRANCH  26  27
BRANCH  26  31
HETATM   31  C   UNL     1       2.337  13.842  91.222  1.00  0.00     0.181 C 
HETATM   32  O   UNL     1       1.408  14.615  90.995  1.00  0.00    -0.294 OA
BRANCH  31  33
HETATM   33  C   UNL     1       3.532  14.262  90.211  1.00  0.00     0.138 C 
BRANCH  33  34
HETATM   34  C   UNL     1       3.672  13.082  89.447  1.00  0.00     0.208 C 
HETATM   35  O   UNL     1       2.722  12.333  89.445  1.00  0.00    -0.289 OA
BRANCH  34  36
HETATM   36  C   UNL     1       4.578  12.756  88.476  1.00  0.00     0.194 C 
HETATM   37  O   UNL     1       5.017  13.487  87.366  1.00  0.00    -0.185 OA
ENDBRANCH  34  36
ENDBRANCH  33  34
ENDBRANCH  31  33
ENDBRANCH  26  31
ENDBRANCH  24  26
ENDBRANCH  19  22
ENDBRANCH  15  16
ENDBRANCH  11  14
ENDBRANCH   7   8
ENDBRANCH   2   7
TORSDOF 12
ENDMDL
MODEL 3
REMARK VINA RESULT:      -4.5      3.794     12.551
REMARK  12 active torsions:
REMARK  status: ('A' for Active; 'I' for Inactive)
REMARK    1  A    between atoms: O_2  and  C_16 
REMARK    2  A    between atoms: N_5  and  C_9 
REMARK    3  A    between atoms: N_6  and  C_13 
REMARK       I    between atoms: N_6  and  C_22 
REMARK    4  A    between atoms: C_9  and  C_12 
REMARK    5  A    between atoms: C_13  and  C_16 
REMARK    6  A    between atoms: C_13  and  C_21 
REMARK    7  A    between atoms: C_19  and  C_24 
REMARK    8  A    between atoms: C_21  and  C_33 
REMARK    9  A    between atoms: C_22  and  C_23 
REMARK   10  A    between atoms: C_27  and  C_30 
REMARK   11  A    between atoms: C_33  and  C_34 
REMARK   12  A    between atoms: C_34  and  C_35 
ROOT
HETATM    1  O   UNL     1       2.234  14.457  93.811  1.00  0.00    -0.350 OA
HETATM    2  N   UNL     1       2.531  14.639  90.986  1.00  0.00     0.147 N 
HETATM    3  C   UNL     1       1.773  13.545  91.609  1.00  0.00     0.283 C 
HETATM    4  C   UNL     1       3.580  15.111  91.901  1.00  0.00     0.283 C 
HETATM    5  C   UNL     1       1.191  14.013  92.941  1.00  0.00     0.178 C 
HETATM    6  C   UNL     1       2.956  15.541  93.225  1.00  0.00     0.178 C 
ENDROOT
BRANCH   2   7
HETATM    7  C   UNL     1       3.107  14.209  89.713  1.00  0.00     0.277 C 
BRANCH   7   8
HETATM    8  C   UNL     1       4.027  13.046  89.869  1.00  0.00     0.011 A 
HETATM    9  C   UNL     1       3.510  11.784  90.164  1.00  0.00    -0.002 A 
HETATM   10  C   UNL     1       4.369  10.696  90.312  1.00  0.00     0.008 A 
HETATM   11  C   UNL     1       5.745  10.870  90.164  1.00  0.00     0.042 A 
HETATM   12  C   UNL     1       6.262  12.129  89.870  1.00  0.00     0.008 A 
HETATM   13  C   UNL     1       5.403  13.218  89.722  1.00  0.00    -0.002 A 
BRANCH  11  14
HETATM   14  C   UNL     1       6.626   9.753  90.315  1.00  0.00    -0.059 C 
HETATM   15  C   UNL     1       7.367   8.814  90.442  1.00  0.00    -0.059 C 
BRANCH  15  16
HETATM   16  C   UNL     1       8.247   7.698  90.593  1.00  0.00     0.042 A 
HETATM   17  C   UNL     1       8.196   6.923  91.752  1.00  0.00     0.008 A 
HETATM   18  C   UNL     1       9.053   5.832  91.898  1.00  0.00     0.005 A 
HETATM   19  C   UNL     1       9.940   5.540  90.883  1.00  0.00     0.056 A 
HETATM   20  C   UNL     1      10.010   6.291  89.728  1.00  0.00     0.005 A 
HETATM   21  C   UNL     1       9.154   7.382  89.581  1.00  0.00     0.008 A 
BRANCH  19  22
HETATM   22  C   UNL     1      10.854   4.379  91.039  1.00  0.00     0.254 C 
HETATM   23  O   UNL     1      10.493   3.274  90.642  1.00  0.00    -0.268 OA
HETATM   24  N   UNL     1      12.087   4.649  91.617  1.00  0.00    -0.335 N 
HETATM   25  HN  UNL     1      12.325   5.593  91.899  1.00  0.00     0.164 HD
BRANCH  24  26
HETATM   26  C   UNL     1      13.090   3.634  91.814  1.00  0.00     0.166 C 
BRANCH  26  27
HETATM   27  C   UNL     1      14.399   3.941  91.075  1.00  0.00     0.138 C 
HETATM   28  C   UNL     1      14.488   3.233  89.728  1.00  0.00     0.034 C 
BRANCH  27  29
HETATM   29  O   UNL     1      14.510   5.349  90.868  1.00  0.00    -0.383 OA
HETATM   30  H   UNL     1      14.160   5.556  89.985  1.00  0.00     0.210 HD
ENDBRANCH  27  29
ENDBRANCH  26  27
BRANCH  26  31
HETATM   31  C   UNL     1      13.321   3.493  93.315  1.00  0.00     0.181 C 
HETATM   32  O   UNL     1      12.412   3.279  94.116  1.00  0.00    -0.294 OA
BRANCH  31  33
HETATM   33  C   UNL     1      14.479   2.409  93.647  1.00  0.00     0.138 C 
BRANCH  33  34
HETATM   34  C   UNL     1      15.562   3.256  93.971  1.00  0.00     0.208 C 
HETATM   35  O   UNL     1      16.667   2.776  93.853  1.00  0.00    -0.289 OA
BRANCH  34  36
HETATM   36  C   UNL     1      15.611   4.614  94.123  1.00  0.00     0.194 C 
HETATM   37  O   UNL     1      16.489   5.555  93.572  1.00  0.00    -0.185 OA
ENDBRANCH  34  36
ENDBRANCH  33  34
ENDBRANCH  31  33
ENDBRANCH  26  31
ENDBRANCH  24  26
ENDBRANCH  19  22
ENDBRANCH  15  16
ENDBRANCH  11  14
ENDBRANCH   7   8
ENDBRANCH   2   7
TORSDOF 12
ENDMDL
MODEL 4
REMARK VINA RESULT:      -3.9      2.921      4.248
REMARK  12 active torsions:
REMARK  status: ('A' for Active; 'I' for Inactive)
REMARK    1  A    between atoms: O_2  and  C_16 
REMARK    2  A    between atoms: N_5  and  C_9 
REMARK    3  A    between atoms: N_6  and  C_13 
REMARK       I    between atoms: N_6  and  C_22 
REMARK    4  A    between atoms: C_9  and  C_12 
REMARK    5  A    between atoms: C_13  and  C_16 
REMARK    6  A    between atoms: C_13  and  C_21 
REMARK    7  A    between atoms: C_19  and  C_24 
REMARK    8  A    between atoms: C_21  and  C_33 
REMARK    9  A    between atoms: C_22  and  C_23 
REMARK   10  A    between atoms: C_27  and  C_30 
REMARK   11  A    between atoms: C_33  and  C_34 
REMARK   12  A    between atoms: C_34  and  C_35 
ROOT
HETATM    1  O   UNL     1      16.266   3.607  93.350  1.00  0.00    -0.350 OA
HETATM    2  N   UNL     1      14.041   2.002  92.590  1.00  0.00     0.147 N 
HETATM    3  C   UNL     1      14.454   3.168  91.796  1.00  0.00     0.283 C 
HETATM    4  C   UNL     1      14.398   2.201  94.001  1.00  0.00     0.283 C 
HETATM    5  C   UNL     1      15.951   3.408  91.970  1.00  0.00     0.178 C 
HETATM    6  C   UNL     1      15.896   2.465  94.124  1.00  0.00     0.178 C 
ENDROOT
BRANCH   2   7
HETATM    7  C   UNL     1      12.607   1.759  92.446  1.00  0.00     0.277 C 
BRANCH   7   8
HETATM    8  C   UNL     1      11.854   2.996  92.092  1.00  0.00     0.011 A 
HETATM    9  C   UNL     1      11.379   3.835  93.101  1.00  0.00    -0.002 A 
HETATM   10  C   UNL     1      10.673   4.992  92.772  1.00  0.00     0.008 A 
HETATM   11  C   UNL     1      10.444   5.310  91.434  1.00  0.00     0.042 A 
HETATM   12  C   UNL     1      10.918   4.474  90.425  1.00  0.00     0.008 A 
HETATM   13  C   UNL     1      11.623   3.316  90.754  1.00  0.00    -0.002 A 
BRANCH  11  14
HETATM   14  C   UNL     1       9.722   6.498  91.096  1.00  0.00    -0.059 C 
HETATM   15  C   UNL     1       9.115   7.497  90.812  1.00  0.00    -0.059 C 
BRANCH  15  16
HETATM   16  C   UNL     1       8.394   8.684  90.473  1.00  0.00     0.042 A 
HETATM   17  C   UNL     1       7.323   9.098  91.267  1.00  0.00     0.008 A 
HETATM   18  C   UNL     1       6.621  10.258  90.938  1.00  0.00     0.005 A 
HETATM   19  C   UNL     1       7.005  10.977  89.825  1.00  0.00     0.056 A 
HETATM   20  C   UNL     1       8.059  10.588  89.025  1.00  0.00     0.005 A 
HETATM   21  C   UNL     1       8.762   9.428  89.353  1.00  0.00     0.008 A 
BRANCH  19  22
HETATM   22  C   UNL     1       6.256  12.211  89.474  1.00  0.00     0.254 C 
HETATM   23  O   UNL     1       6.478  12.762  88.399  1.00  0.00    -0.268 OA
HETATM   24  N   UNL     1       5.320  12.640  90.406  1.00  0.00    -0.335 N 
HETATM   25  HN  UNL     1       5.173  12.118  91.262  1.00  0.00     0.164 HD
BRANCH  24  26
HETATM   26  C   UNL     1       4.499  13.805  90.199  1.00  0.00     0.166 C 
BRANCH  26  27
HETATM   27  C   UNL     1       3.258  13.513  89.346  1.00  0.00     0.138 C 
HETATM   28  C   UNL     1       2.837  12.049  89.409  1.00  0.00     0.034 C 
BRANCH  27  29
HETATM   29  O   UNL     1       2.172  14.327  89.787  1.00  0.00    -0.383 OA
HETATM   30  H   UNL     1       2.177  14.340  90.759  1.00  0.00     0.210 HD
ENDBRANCH  27  29
ENDBRANCH  26  27
BRANCH  26  31
HETATM   31  C   UNL     1       4.112  14.351  91.570  1.00  0.00     0.181 C 
HETATM   32  O   UNL     1       4.224  15.537  91.874  1.00  0.00    -0.294 OA
BRANCH  31  33
HETATM   33  C   UNL     1       2.608  13.916  91.989  1.00  0.00     0.138 C 
BRANCH  33  34
HETATM   34  C   UNL     1       2.848  13.240  93.206  1.00  0.00     0.208 C 
HETATM   35  O   UNL     1       1.953  13.273  94.019  1.00  0.00    -0.289 OA
BRANCH  34  36
HETATM   36  C   UNL     1       3.796  12.310  93.532  1.00  0.00     0.194 C 
HETATM   37  O   UNL     1       4.026  11.032  93.011  1.00  0.00    -0.185 OA
ENDBRANCH  34  36
ENDBRANCH  33  34
ENDBRANCH  31  33
ENDBRANCH  26  31
ENDBRANCH  24  26
ENDBRANCH  19  22
ENDBRANCH  15  16
ENDBRANCH  11  14
ENDBRANCH   7   8
ENDBRANCH   2   7
TORSDOF 12
ENDMDL
