MODEL 1
REMARK VINA RESULT:      -7.0      0.000      0.000
REMARK  11 active torsions:
REMARK  status: ('A' for Active; 'I' for Inactive)
REMARK    1  A    between atoms: O_2  and  C_18 
REMARK    2  A    between atoms: O_5  and  P_8 
REMARK    3  A    between atoms: N_6  and  C_11 
REMARK    4  A    between atoms: N_7  and  C_15 
REMARK       I    between atoms: N_7  and  C_24 
REMARK    5  A    between atoms: P_8  and  C_23 
REMARK    6  A    between atoms: C_11  and  C_14 
REMARK    7  A    between atoms: C_15  and  C_18 
REMARK    8  A    between atoms: C_15  and  C_23 
REMARK    9  A    between atoms: C_21  and  C_26 
REMARK   10  A    between atoms: C_24  and  C_25 
REMARK   11  A    between atoms: C_29  and  C_32 
ROOT
HETATM    1  O   UNL     1      16.527   4.285  94.124  1.00  0.00     0.000 OA
HETATM    2  N   UNL     1      14.658   2.715  92.660  1.00  0.00     0.000 N 
HETATM    3  C   UNL     1      14.596   4.183  92.656  1.00  0.00     0.000 C 
HETATM    4  C   UNL     1      15.240   2.238  93.922  1.00  0.00     0.000 C 
HETATM    5  C   UNL     1      15.991   4.759  92.887  1.00  0.00     0.000 C 
HETATM    6  C   UNL     1      16.619   2.860  94.123  1.00  0.00     0.000 C 
ENDROOT
BRANCH   2   7
HETATM    7  C   UNL     1      13.330   2.141  92.451  1.00  0.00     0.000 C 
BRANCH   7   8
HETATM    8  C   UNL     1      12.302   3.180  92.155  1.00  0.00     0.000 A 
HETATM    9  C   UNL     1      11.801   3.315  90.859  1.00  0.00     0.000 A 
HETATM   10  C   UNL     1      10.842   4.288  90.581  1.00  0.00     0.000 A 
HETATM   11  C   UNL     1      10.382   5.123  91.598  1.00  0.00     0.000 A 
HETATM   12  C   UNL     1      10.880   4.989  92.892  1.00  0.00     0.000 A 
HETATM   13  C   UNL     1      11.841   4.017  93.171  1.00  0.00     0.000 A 
BRANCH  11  14
HETATM   14  C   UNL     1       9.395   6.120  91.312  1.00  0.00     0.000 C 
HETATM   15  C   UNL     1       8.567   6.958  91.072  1.00  0.00     0.000 C 
BRANCH  15  16
HETATM   16  C   UNL     1       7.582   7.954  90.786  1.00  0.00     0.000 A 
HETATM   17  C   UNL     1       7.873   8.983  89.890  1.00  0.00     0.000 A 
HETATM   18  C   UNL     1       6.911   9.953  89.609  1.00  0.00     0.000 A 
HETATM   19  C   UNL     1       5.681   9.872  90.229  1.00  0.00     0.000 A 
HETATM   20  C   UNL     1       5.370   8.865  91.119  1.00  0.00     0.000 A 
HETATM   21  C   UNL     1       6.332   7.895  91.401  1.00  0.00     0.000 A 
BRANCH  19  22
HETATM   22  C   UNL     1       4.658  10.907  89.931  1.00  0.00     0.000 C 
HETATM   23  O   UNL     1       3.593  10.568  89.420  1.00  0.00     0.000 OA
HETATM   24  N   UNL     1       4.987  12.208  90.285  1.00  0.00     0.000 N 
HETATM   25  HN  UNL     1       5.876  12.410  90.727  1.00  0.00     0.000 HD
BRANCH  24  26
HETATM   26  C   UNL     1       4.090  13.318  90.083  1.00  0.00     0.000 C 
BRANCH  26  27
HETATM   27  C   UNL     1       3.587  13.922  91.400  1.00  0.00     0.000 C 
HETATM   28  C   UNL     1       2.115  13.621  91.656  1.00  0.00     0.000 C 
BRANCH  27  29
HETATM   29  O   UNL     1       4.360  13.411  92.486  1.00  0.00     0.000 OA
HETATM   30  H   UNL     1       4.934  12.704  92.145  1.00  0.00     0.000 HD
ENDBRANCH  27  29
ENDBRANCH  26  27
BRANCH  26  31
HETATM   31  C   UNL     1       4.819  14.357  89.238  1.00  0.00     0.000 C 
HETATM   32  O   UNL     1       4.915  15.539  89.566  1.00  0.00     0.000 OA
BRANCH  31  33
HETATM   33  P   UNL     1       5.311  13.826  88.071  1.00  0.00     0.000 P 
HETATM   34  H   UNL     1       5.577  14.871  87.209  1.00  0.00     0.000 HD
BRANCH  33  35
HETATM   35  O   UNL     1       4.465  12.926  87.407  1.00  0.00     0.000 OA
HETATM   36  H   UNL     1       3.957  13.542  86.851  1.00  0.00     0.000 HD
ENDBRANCH  33  35
ENDBRANCH  31  33
ENDBRANCH  26  31
ENDBRANCH  24  26
ENDBRANCH  19  22
ENDBRANCH  15  16
ENDBRANCH  11  14
ENDBRANCH   7   8
ENDBRANCH   2   7
TORSDOF 11
ENDMDL
