MODEL 1
REMARK VINA RESULT:      -5.8      0.000      0.000
REMARK  12 active torsions:
REMARK  status: ('A' for Active; 'I' for Inactive)
REMARK    1  A    between atoms: O_2  and  C_16 
REMARK    2  A    between atoms: N_5  and  C_9 
REMARK    3  A    between atoms: N_6  and  C_13 
REMARK       I    between atoms: N_6  and  C_22 
REMARK    4  A    between atoms: C_9  and  C_12 
REMARK    5  A    between atoms: C_13  and  C_16 
REMARK    6  A    between atoms: C_13  and  C_21 
REMARK    7  A    between atoms: C_19  and  C_24 
REMARK    8  A    between atoms: C_21  and  C_33 
REMARK    9  A    between atoms: C_22  and  C_23 
REMARK   10  A    between atoms: C_27  and  C_30 
REMARK   11  A    between atoms: C_33  and  C_34 
REMARK   12  A    between atoms: C_34  and  C_35 
ROOT
HETATM    1  O   UNL     1      16.931   3.686  93.783  1.00  0.00    -0.350 OA
HETATM    2  N   UNL     1      14.330   3.146  92.760  1.00  0.00     0.147 N 
HETATM    3  C   UNL     1      15.298   2.068  93.004  1.00  0.00     0.283 C 
HETATM    4  C   UNL     1      15.037   4.395  92.444  1.00  0.00     0.283 C 
HETATM    5  C   UNL     1      16.254   2.475  94.124  1.00  0.00     0.178 C 
HETATM    6  C   UNL     1      15.998   4.747  93.574  1.00  0.00     0.178 C 
ENDROOT
BRANCH   2   7
HETATM    7  C   UNL     1      13.411   2.782  91.683  1.00  0.00     0.277 C 
BRANCH   7   8
HETATM    8  C   UNL     1      12.213   3.668  91.635  1.00  0.00     0.011 A 
HETATM    9  C   UNL     1      11.490   3.926  92.801  1.00  0.00    -0.002 A 
HETATM   10  C   UNL     1      10.368   4.753  92.757  1.00  0.00     0.008 A 
HETATM   11  C   UNL     1       9.970   5.323  91.548  1.00  0.00     0.042 A 
HETATM   12  C   UNL     1      10.691   5.066  90.383  1.00  0.00     0.008 A 
HETATM   13  C   UNL     1      11.813   4.239  90.427  1.00  0.00    -0.002 A 
BRANCH  11  14
HETATM   14  C   UNL     1       8.821   6.173  91.503  1.00  0.00    -0.059 C 
HETATM   15  C   UNL     1       7.854   6.887  91.466  1.00  0.00    -0.059 C 
BRANCH  15  16
HETATM   16  C   UNL     1       6.705   7.737  91.422  1.00  0.00     0.042 A 
HETATM   17  C   UNL     1       6.864   9.117  91.290  1.00  0.00     0.008 A 
HETATM   18  C   UNL     1       5.742   9.945  91.244  1.00  0.00     0.005 A 
HETATM   19  C   UNL     1       4.489   9.376  91.331  1.00  0.00     0.056 A 
HETATM   20  C   UNL     1       4.306   8.016  91.463  1.00  0.00     0.005 A 
HETATM   21  C   UNL     1       5.426   7.186  91.509  1.00  0.00     0.008 A 
BRANCH  19  22
HETATM   22  C   UNL     1       3.295  10.259  91.285  1.00  0.00     0.254 C 
HETATM   23  O   UNL     1       2.219   9.795  90.916  1.00  0.00    -0.268 OA
HETATM   24  N   UNL     1       3.492  11.570  91.697  1.00  0.00    -0.335 N 
HETATM   25  HN  UNL     1       4.404  11.877  92.013  1.00  0.00     0.164 HD
BRANCH  24  26
HETATM   26  C   UNL     1       2.427  12.540  91.732  1.00  0.00     0.166 C 
BRANCH  26  27
HETATM   27  C   UNL     1       2.009  12.911  93.161  1.00  0.00     0.138 C 
HETATM   28  C   UNL     1       1.243  11.790  93.854  1.00  0.00     0.034 C 
BRANCH  27  29
HETATM   29  O   UNL     1       3.168  13.226  93.931  1.00  0.00    -0.383 OA
HETATM   30  H   UNL     1       2.914  13.248  94.869  1.00  0.00     0.210 HD
ENDBRANCH  27  29
ENDBRANCH  26  27
BRANCH  26  31
HETATM   31  C   UNL     1       2.889  13.767  90.953  1.00  0.00     0.181 C 
HETATM   32  O   UNL     1       2.516  14.909  91.219  1.00  0.00    -0.294 OA
BRANCH  31  33
HETATM   33  C   UNL     1       4.505  13.835  90.839  1.00  0.00     0.138 C 
BRANCH  33  34
HETATM   34  C   UNL     1       4.675  13.968  89.443  1.00  0.00     0.208 C 
HETATM   35  O   UNL     1       5.254  14.962  89.070  1.00  0.00    -0.289 OA
BRANCH  34  36
HETATM   36  C   UNL     1       4.557  13.042  88.443  1.00  0.00     0.194 C 
HETATM   37  O   UNL     1       5.169  11.792  88.291  1.00  0.00    -0.185 OA
ENDBRANCH  34  36
ENDBRANCH  33  34
ENDBRANCH  31  33
ENDBRANCH  26  31
ENDBRANCH  24  26
ENDBRANCH  19  22
ENDBRANCH  15  16
ENDBRANCH  11  14
ENDBRANCH   7   8
ENDBRANCH   2   7
TORSDOF 12
ENDMDL
