MODEL 1
REMARK VINA RESULT:      -7.0      0.000      0.000
REMARK  10 active torsions:
REMARK  status: ('A' for Active; 'I' for Inactive)
REMARK    1  A    between atoms: O_2  and  C_16 
REMARK    2  A    between atoms: N_5  and  C_9 
REMARK    3  A    between atoms: N_6  and  C_13 
REMARK       I    between atoms: N_6  and  C_22 
REMARK    4  A    between atoms: C_9  and  C_12 
REMARK    5  A    between atoms: C_13  and  C_16 
REMARK    6  A    between atoms: C_13  and  C_21 
REMARK    7  A    between atoms: C_19  and  C_24 
REMARK    8  A    between atoms: C_22  and  C_23 
REMARK    9  A    between atoms: C_27  and  C_30 
REMARK   10  A    between atoms: N_33  and  S_34 
ROOT
HETATM    1  C   UNL     1       5.868  11.134  89.672  1.00  0.00     0.056 A 
HETATM    2  C   UNL     1       5.347  10.025  90.304  1.00  0.00     0.005 A 
HETATM    3  C   UNL     1       7.193  11.216  89.301  1.00  0.00     0.005 A 
HETATM    4  C   UNL     1       7.534   9.005  90.213  1.00  0.00     0.042 A 
HETATM    5  C   UNL     1       6.189   8.947  90.578  1.00  0.00     0.008 A 
HETATM    6  C   UNL     1       8.037  10.139  89.574  1.00  0.00     0.008 A 
ENDROOT
BRANCH   1   7
HETATM    7  C   UNL     1       4.969  12.281  89.379  1.00  0.00     0.254 C 
HETATM    8  O   UNL     1       4.907  12.716  88.231  1.00  0.00    -0.268 OA
HETATM    9  N   UNL     1       4.234  12.767  90.451  1.00  0.00    -0.337 N 
HETATM   10  HN  UNL     1       4.318  12.341  91.366  1.00  0.00     0.164 HD
BRANCH   9  11
HETATM   11  C   UNL     1       3.302  13.858  90.320  1.00  0.00     0.172 C 
BRANCH  11  12
HETATM   12  C   UNL     1       1.983  13.604  91.062  1.00  0.00     0.136 C 
HETATM   13  C   UNL     1       2.086  12.456  92.059  1.00  0.00     0.034 C 
BRANCH  12  14
HETATM   14  O   UNL     1       1.591  14.788  91.756  1.00  0.00    -0.383 OA
HETATM   15  H   UNL     1       2.392  15.224  92.092  1.00  0.00     0.210 HD
ENDBRANCH  12  14
ENDBRANCH  11  12
BRANCH  11  16
HETATM   16  C   UNL     1       3.989  15.121  90.829  1.00  0.00     0.398 A 
HETATM   17  O   UNL     1       5.104  15.476  90.450  1.00  0.00    -0.136 OA
HETATM   18  N   UNL     1       4.989  15.620  91.958  1.00  0.00     0.142 N 
HETATM   19  HN  UNL     1       5.901  15.966  91.850  1.00  0.00     0.338 HD
BRANCH  18  20
HETATM   20  S   UNL     1       4.283  15.173  93.069  1.00  0.00     0.076 SA
HETATM   21  H   UNL     1       3.534  15.949  93.570  1.00  0.00     0.136 HD
ENDBRANCH  18  20
ENDBRANCH  11  16
ENDBRANCH   9  11
ENDBRANCH   1   7
BRANCH   4  22
HETATM   22  C   UNL     1       8.399   7.902  90.496  1.00  0.00    -0.059 C 
HETATM   23  C   UNL     1       9.125   6.974  90.735  1.00  0.00    -0.059 C 
BRANCH  23  24
HETATM   24  C   UNL     1       9.989   5.870  91.019  1.00  0.00     0.042 A 
HETATM   25  C   UNL     1      10.684   5.245  89.983  1.00  0.00     0.008 A 
HETATM   26  C   UNL     1      11.524   4.167  90.259  1.00  0.00    -0.002 A 
HETATM   27  C   UNL     1      11.672   3.716  91.571  1.00  0.00     0.011 A 
HETATM   28  C   UNL     1      10.977   4.342  92.606  1.00  0.00    -0.002 A 
HETATM   29  C   UNL     1      10.136   5.420  92.329  1.00  0.00     0.008 A 
BRANCH  27  30
HETATM   30  C   UNL     1      12.573   2.565  91.865  1.00  0.00     0.277 C 
BRANCH  30  31
HETATM   31  N   UNL     1      13.612   2.905  92.836  1.00  0.00     0.147 N 
HETATM   32  C   UNL     1      14.462   1.740  93.118  1.00  0.00     0.283 C 
HETATM   33  C   UNL     1      15.545   2.121  94.124  1.00  0.00     0.178 C 
HETATM   34  O   UNL     1      16.332   3.203  93.621  1.00  0.00    -0.350 OA
HETATM   35  C   UNL     1      15.517   4.349  93.374  1.00  0.00     0.178 C 
HETATM   36  C   UNL     1      14.434   4.022  92.351  1.00  0.00     0.283 C 
ENDBRANCH  30  31
ENDBRANCH  27  30
ENDBRANCH  23  24
ENDBRANCH   4  22
TORSDOF 10
ENDMDL
