MODEL 1
REMARK VINA RESULT:      -6.9      0.000      0.000
REMARK  11 active torsions:
REMARK  status: ('A' for Active; 'I' for Inactive)
REMARK    1  A    between atoms: O_2  and  C_18 
REMARK    2  A    between atoms: O_5  and  P_8 
REMARK    3  A    between atoms: N_6  and  C_11 
REMARK    4  A    between atoms: N_7  and  C_15 
REMARK       I    between atoms: N_7  and  C_24 
REMARK    5  A    between atoms: P_8  and  C_23 
REMARK    6  A    between atoms: C_11  and  C_14 
REMARK    7  A    between atoms: C_15  and  C_18 
REMARK    8  A    between atoms: C_15  and  C_23 
REMARK    9  A    between atoms: C_21  and  C_26 
REMARK   10  A    between atoms: C_24  and  C_25 
REMARK   11  A    between atoms: C_29  and  C_32 
ROOT
HETATM    1  O   UNL     1      16.393   4.325  94.046  1.00  0.00     0.000 OA
HETATM    2  N   UNL     1      14.640   2.678  92.523  1.00  0.00     0.000 N 
HETATM    3  C   UNL     1      14.581   4.144  92.441  1.00  0.00     0.000 C 
HETATM    4  C   UNL     1      15.124   2.267  93.849  1.00  0.00     0.000 C 
HETATM    5  C   UNL     1      15.955   4.735  92.749  1.00  0.00     0.000 C 
HETATM    6  C   UNL     1      16.483   2.902  94.124  1.00  0.00     0.000 C 
ENDROOT
BRANCH   2   7
HETATM    7  C   UNL     1      13.332   2.091  92.242  1.00  0.00     0.000 C 
BRANCH   7   8
HETATM    8  C   UNL     1      12.298   3.123  91.943  1.00  0.00     0.000 A 
HETATM    9  C   UNL     1      12.052   3.501  90.623  1.00  0.00     0.000 A 
HETATM   10  C   UNL     1      11.087   4.468  90.342  1.00  0.00     0.000 A 
HETATM   11  C   UNL     1      10.368   5.055  91.382  1.00  0.00     0.000 A 
HETATM   12  C   UNL     1      10.612   4.679  92.701  1.00  0.00     0.000 A 
HETATM   13  C   UNL     1      11.578   3.713  92.982  1.00  0.00     0.000 A 
BRANCH  11  14
HETATM   14  C   UNL     1       9.376   6.046  91.094  1.00  0.00     0.000 C 
HETATM   15  C   UNL     1       8.543   6.879  90.853  1.00  0.00     0.000 C 
BRANCH  15  16
HETATM   16  C   UNL     1       7.553   7.869  90.565  1.00  0.00     0.000 A 
HETATM   17  C   UNL     1       7.939   9.123  90.091  1.00  0.00     0.000 A 
HETATM   18  C   UNL     1       6.973  10.088  89.808  1.00  0.00     0.000 A 
HETATM   19  C   UNL     1       5.643   9.778  90.005  1.00  0.00     0.000 A 
HETATM   20  C   UNL     1       5.236   8.547  90.474  1.00  0.00     0.000 A 
HETATM   21  C   UNL     1       6.201   7.581  90.757  1.00  0.00     0.000 A 
BRANCH  19  22
HETATM   22  C   UNL     1       4.614  10.807  89.706  1.00  0.00     0.000 C 
HETATM   23  O   UNL     1       3.631  10.496  89.039  1.00  0.00     0.000 OA
HETATM   24  N   UNL     1       4.842  12.068  90.239  1.00  0.00     0.000 N 
HETATM   25  HN  UNL     1       5.666  12.246  90.802  1.00  0.00     0.000 HD
BRANCH  24  26
HETATM   26  C   UNL     1       3.925  13.165  90.057  1.00  0.00     0.000 C 
BRANCH  26  27
HETATM   27  C   UNL     1       3.318  13.656  91.378  1.00  0.00     0.000 C 
HETATM   28  C   UNL     1       2.195  12.753  91.876  1.00  0.00     0.000 C 
BRANCH  27  29
HETATM   29  O   UNL     1       4.336  13.722  92.376  1.00  0.00     0.000 OA
HETATM   30  H   UNL     1       4.228  14.553  92.867  1.00  0.00     0.000 HD
ENDBRANCH  27  29
ENDBRANCH  26  27
BRANCH  26  31
HETATM   31  C   UNL     1       4.673  14.284  89.341  1.00  0.00     0.000 C 
HETATM   32  O   UNL     1       4.711  15.440  89.759  1.00  0.00     0.000 OA
BRANCH  31  33
HETATM   33  P   UNL     1       5.255  13.854  88.172  1.00  0.00     0.000 P 
HETATM   34  H   UNL     1       5.532  14.967  87.404  1.00  0.00     0.000 HD
BRANCH  33  35
HETATM   35  O   UNL     1       4.486  12.976  87.395  1.00  0.00     0.000 OA
HETATM   36  H   UNL     1       3.965  12.539  88.090  1.00  0.00     0.000 HD
ENDBRANCH  33  35
ENDBRANCH  31  33
ENDBRANCH  26  31
ENDBRANCH  24  26
ENDBRANCH  19  22
ENDBRANCH  15  16
ENDBRANCH  11  14
ENDBRANCH   7   8
ENDBRANCH   2   7
TORSDOF 11
ENDMDL
