MODEL 1
REMARK VINA RESULT:      -5.5      0.000      0.000
REMARK  10 active torsions:
REMARK  status: ('A' for Active; 'I' for Inactive)
REMARK    1  A    between atoms: O_2  and  C_18 
REMARK    2  A    between atoms: O_5  and  N_8 
REMARK    3  A    between atoms: N_6  and  C_11 
REMARK    4  A    between atoms: N_7  and  C_15 
REMARK       I    between atoms: N_7  and  C_24 
REMARK       I    between atoms: N_8  and  C_23 
REMARK    5  A    between atoms: C_11  and  C_14 
REMARK    6  A    between atoms: C_15  and  C_18 
REMARK    7  A    between atoms: C_15  and  C_23 
REMARK    8  A    between atoms: C_21  and  C_26 
REMARK    9  A    between atoms: C_24  and  C_25 
REMARK   10  A    between atoms: C_29  and  C_32 
ROOT
HETATM    1  O   UNK     0      16.174   2.562  93.943  0.00  0.00    -0.388 OA
HETATM    2  N   UNK     0      13.797   3.000  92.439  0.00  0.00     0.096 N 
HETATM    3  C   UNK     0      14.216   1.649  92.837  0.00  0.00     0.299 C 
HETATM    4  C   UNK     0      14.973   3.867  92.288  0.00  0.00     0.299 C 
HETATM    5  C   UNK     0      15.035   1.719  94.124  0.00  0.00     0.198 C 
HETATM    6  C   UNK     0      15.774   3.885  93.587  0.00  0.00     0.198 C 
ENDROOT
BRANCH   2   7
HETATM    7  C   UNK     0      13.020   2.958  91.202  0.00  0.00     0.311 C 
BRANCH   7   8
HETATM    8  C   UNK     0      11.865   3.900  91.225  0.00  0.00    -0.030 A 
HETATM    9  C   UNK     0      11.196   4.153  92.423  0.00  0.00     0.010 A 
HETATM   10  C   UNK     0      10.113   5.032  92.446  0.00  0.00     0.021 A 
HETATM   11  C   UNK     0       9.701   5.659  91.270  0.00  0.00     0.018 A 
HETATM   12  C   UNK     0      10.368   5.407  90.073  0.00  0.00     0.021 A 
HETATM   13  C   UNK     0      11.450   4.527  90.050  0.00  0.00     0.010 A 
BRANCH  11  14
HETATM   14  C   UNK     0       8.592   6.562  91.293  0.00  0.00    -0.061 C 
HETATM   15  C   UNK     0       7.660   7.321  91.313  0.00  0.00    -0.061 C 
BRANCH  15  16
HETATM   16  C   UNK     0       6.553   8.224  91.337  0.00  0.00     0.018 A 
HETATM   17  C   UNK     0       5.252   7.734  91.214  0.00  0.00     0.022 A 
HETATM   18  C   UNK     0       4.170   8.615  91.240  0.00  0.00     0.018 A 
HETATM   19  C   UNK     0       4.413   9.964  91.389  0.00  0.00     0.032 A 
HETATM   20  C   UNK     0       5.689  10.474  91.512  0.00  0.00     0.018 A 
HETATM   21  C   UNK     0       6.770   9.594  91.486  0.00  0.00     0.022 A 
BRANCH  19  22
HETATM   22  C   UNK     0       3.261  10.902  91.415  0.00  0.00     0.252 C 
HETATM   23  O   UNK     0       2.144  10.489  91.110  0.00  0.00    -0.268 OA
HETATM   24  N   UNK     0       3.542  12.200  91.816  0.00  0.00    -0.341 N 
HETATM   25  H   UNK     0       4.485  12.463  92.077  0.00  0.00     0.163 HD
BRANCH  24  26
HETATM   26  C   UNK     0       2.528  13.219  91.915  0.00  0.00     0.207 C 
BRANCH  26  27
HETATM   27  C   UNK     0       2.560  13.959  93.258  0.00  0.00     0.146 C 
HETATM   28  C   UNK     0       3.794  13.617  94.085  0.00  0.00     0.042 C 
BRANCH  27  29
HETATM   29  O   UNK     0       2.532  15.368  93.027  0.00  0.00    -0.393 OA
HETATM   30  H   UNK     0       2.584  15.818  93.887  0.00  0.00     0.210 HD
ENDBRANCH  27  29
ENDBRANCH  26  27
BRANCH  26  31
HETATM   31  C   UNK     0       2.717  14.181  90.747  0.00  0.00     0.266 C 
HETATM   32  O   UNK     0       1.791  14.552  90.028  0.00  0.00    -0.269 OA
HETATM   33  N   UNK     0       4.032  14.541  90.579  0.00  0.00    -0.236 N 
HETATM   34  H   UNK     0       4.829  14.185  91.094  0.00  0.00     0.197 HD
BRANCH  33  35
HETATM   35  O   UNK     0       4.298  15.395  89.500  0.00  0.00    -0.287 OA
HETATM   36  H   UNK     0       4.902  16.028  89.923  0.00  0.00     0.244 HD
ENDBRANCH  33  35
ENDBRANCH  26  31
ENDBRANCH  24  26
ENDBRANCH  19  22
ENDBRANCH  15  16
ENDBRANCH  11  14
ENDBRANCH   7   8
ENDBRANCH   2   7
TORSDOF 10
ENDMDL
