MODEL 1
REMARK VINA RESULT:      -6.5      0.000      0.000
REMARK  12 active torsions:
REMARK  status: ('A' for Active; 'I' for Inactive)
REMARK    1  A    between atoms: O_2  and  C_16 
REMARK    2  A    between atoms: N_5  and  C_9 
REMARK    3  A    between atoms: N_6  and  C_13 
REMARK       I    between atoms: N_6  and  C_22 
REMARK    4  A    between atoms: C_9  and  C_12 
REMARK    5  A    between atoms: C_13  and  C_16 
REMARK    6  A    between atoms: C_13  and  C_21 
REMARK    7  A    between atoms: C_19  and  C_24 
REMARK    8  A    between atoms: C_21  and  C_33 
REMARK    9  A    between atoms: C_22  and  C_23 
REMARK   10  A    between atoms: C_27  and  C_30 
REMARK   11  A    between atoms: C_33  and  C_34 
REMARK   12  A    between atoms: C_34  and  C_35 
ROOT
HETATM    1  O   UNL     1      17.363   4.670  93.776  1.00  0.00    -0.350 OA
HETATM    2  N   UNL     1      15.269   2.743  93.722  1.00  0.00     0.147 N 
HETATM    3  C   UNL     1      16.654   2.381  93.391  1.00  0.00     0.283 C 
HETATM    4  C   UNL     1      15.024   4.154  93.392  1.00  0.00     0.283 C 
HETATM    5  C   UNL     1      17.620   3.308  94.124  1.00  0.00     0.178 C 
HETATM    6  C   UNL     1      16.028   5.039  94.124  1.00  0.00     0.178 C 
ENDROOT
BRANCH   2   7
HETATM    7  C   UNL     1      14.325   1.874  93.022  1.00  0.00     0.277 C 
BRANCH   7   8
HETATM    8  C   UNL     1      13.232   2.641  92.358  1.00  0.00     0.011 A 
HETATM    9  C   UNL     1      11.964   2.693  92.940  1.00  0.00    -0.002 A 
HETATM   10  C   UNL     1      10.941   3.408  92.319  1.00  0.00     0.008 A 
HETATM   11  C   UNL     1      11.185   4.073  91.118  1.00  0.00     0.042 A 
HETATM   12  C   UNL     1      12.450   4.022  90.536  1.00  0.00     0.008 A 
HETATM   13  C   UNL     1      13.474   3.306  91.156  1.00  0.00    -0.002 A 
BRANCH  11  14
HETATM   14  C   UNL     1      10.136   4.808  90.482  1.00  0.00    -0.059 C 
HETATM   15  C   UNL     1       9.254   5.426  89.947  1.00  0.00    -0.059 C 
BRANCH  15  16
HETATM   16  C   UNL     1       8.205   6.160  89.311  1.00  0.00     0.042 A 
HETATM   17  C   UNL     1       8.451   6.831  88.113  1.00  0.00     0.008 A 
HETATM   18  C   UNL     1       7.427   7.545  87.491  1.00  0.00     0.005 A 
HETATM   19  C   UNL     1       6.180   7.571  88.080  1.00  0.00     0.056 A 
HETATM   20  C   UNL     1       5.911   6.917  89.264  1.00  0.00     0.005 A 
HETATM   21  C   UNL     1       6.935   6.203  89.887  1.00  0.00     0.008 A 
BRANCH  19  22
HETATM   22  C   UNL     1       5.090   8.334  87.419  1.00  0.00     0.254 C 
HETATM   23  O   UNL     1       4.890   8.174  86.217  1.00  0.00    -0.268 OA
HETATM   24  N   UNL     1       4.348   9.171  88.240  1.00  0.00    -0.335 N 
HETATM   25  HN  UNL     1       4.555   9.233  89.230  1.00  0.00     0.164 HD
BRANCH  24  26
HETATM   26  C   UNL     1       3.243   9.957  87.752  1.00  0.00     0.166 C 
BRANCH  26  27
HETATM   27  C   UNL     1       1.881   9.338  88.088  1.00  0.00     0.138 C 
HETATM   28  C   UNL     1       1.667   7.991  87.408  1.00  0.00     0.034 C 
BRANCH  27  29
HETATM   29  O   UNL     1       1.770   9.166  89.501  1.00  0.00    -0.383 OA
HETATM   30  H   UNL     1       2.431   9.735  89.930  1.00  0.00     0.210 HD
ENDBRANCH  27  29
ENDBRANCH  26  27
BRANCH  26  31
HETATM   31  C   UNL     1       3.375  11.359  88.337  1.00  0.00     0.181 C 
HETATM   32  O   UNL     1       2.607  11.805  89.187  1.00  0.00    -0.294 OA
BRANCH  31  33
HETATM   33  C   UNL     1       4.873  11.645  88.886  1.00  0.00     0.138 C 
BRANCH  33  34
HETATM   34  C   UNL     1       5.039  13.003  88.536  1.00  0.00     0.208 C 
HETATM   35  O   UNL     1       4.988  13.258  87.355  1.00  0.00    -0.289 OA
BRANCH  34  36
HETATM   36  C   UNL     1       4.965  14.133  89.303  1.00  0.00     0.194 C 
HETATM   37  O   UNL     1       4.012  14.520  90.252  1.00  0.00    -0.185 OA
ENDBRANCH  34  36
ENDBRANCH  33  34
ENDBRANCH  31  33
ENDBRANCH  26  31
ENDBRANCH  24  26
ENDBRANCH  19  22
ENDBRANCH  15  16
ENDBRANCH  11  14
ENDBRANCH   7   8
ENDBRANCH   2   7
TORSDOF 12
ENDMDL
MODEL 2
REMARK VINA RESULT:      -6.4      2.286      3.481
REMARK  12 active torsions:
REMARK  status: ('A' for Active; 'I' for Inactive)
REMARK    1  A    between atoms: O_2  and  C_16 
REMARK    2  A    between atoms: N_5  and  C_9 
REMARK    3  A    between atoms: N_6  and  C_13 
REMARK       I    between atoms: N_6  and  C_22 
REMARK    4  A    between atoms: C_9  and  C_12 
REMARK    5  A    between atoms: C_13  and  C_16 
REMARK    6  A    between atoms: C_13  and  C_21 
REMARK    7  A    between atoms: C_19  and  C_24 
REMARK    8  A    between atoms: C_21  and  C_33 
REMARK    9  A    between atoms: C_22  and  C_23 
REMARK   10  A    between atoms: C_27  and  C_30 
REMARK   11  A    between atoms: C_33  and  C_34 
REMARK   12  A    between atoms: C_34  and  C_35 
ROOT
HETATM    1  O   UNL     1      16.538   3.308  93.791  1.00  0.00    -0.350 OA
HETATM    2  N   UNL     1      13.946   2.849  92.708  1.00  0.00     0.147 N 
HETATM    3  C   UNL     1      14.870   1.740  92.985  1.00  0.00     0.283 C 
HETATM    4  C   UNL     1      14.703   4.070  92.399  1.00  0.00     0.283 C 
HETATM    5  C   UNL     1      15.811   2.124  94.124  1.00  0.00     0.178 C 
HETATM    6  C   UNL     1      15.648   4.399  93.551  1.00  0.00     0.178 C 
ENDROOT
BRANCH   2   7
HETATM    7  C   UNL     1      13.041   2.507  91.612  1.00  0.00     0.277 C 
BRANCH   7   8
HETATM    8  C   UNL     1      11.870   3.426  91.534  1.00  0.00     0.011 A 
HETATM    9  C   UNL     1      11.452   3.918  90.297  1.00  0.00    -0.002 A 
HETATM   10  C   UNL     1      10.358   4.781  90.224  1.00  0.00     0.008 A 
HETATM   11  C   UNL     1       9.682   5.149  91.386  1.00  0.00     0.042 A 
HETATM   12  C   UNL     1      10.098   4.658  92.622  1.00  0.00     0.008 A 
HETATM   13  C   UNL     1      11.193   3.796  92.696  1.00  0.00    -0.002 A 
BRANCH  11  14
HETATM   14  C   UNL     1       8.559   6.031  91.310  1.00  0.00    -0.059 C 
HETATM   15  C   UNL     1       7.615   6.773  91.245  1.00  0.00    -0.059 C 
BRANCH  15  16
HETATM   16  C   UNL     1       6.492   7.655  91.169  1.00  0.00     0.042 A 
HETATM   17  C   UNL     1       6.108   8.189  89.938  1.00  0.00     0.008 A 
HETATM   18  C   UNL     1       5.011   9.047  89.863  1.00  0.00     0.005 A 
HETATM   19  C   UNL     1       4.323   9.351  91.018  1.00  0.00     0.056 A 
HETATM   20  C   UNL     1       4.682   8.837  92.246  1.00  0.00     0.005 A 
HETATM   21  C   UNL     1       5.779   7.979  92.323  1.00  0.00     0.008 A 
BRANCH  19  22
HETATM   22  C   UNL     1       3.155  10.267  90.938  1.00  0.00     0.254 C 
HETATM   23  O   UNL     1       2.080   9.834  90.529  1.00  0.00    -0.268 OA
HETATM   24  N   UNL     1       3.373  11.569  91.366  1.00  0.00    -0.335 N 
HETATM   25  HN  UNL     1       4.282  11.849  91.714  1.00  0.00     0.164 HD
BRANCH  24  26
HETATM   26  C   UNL     1       2.334  12.568  91.372  1.00  0.00     0.166 C 
BRANCH  26  27
HETATM   27  C   UNL     1       1.918  12.983  92.788  1.00  0.00     0.138 C 
HETATM   28  C   UNL     1       3.073  12.909  93.781  1.00  0.00     0.034 C 
BRANCH  27  29
HETATM   29  O   UNL     1       1.411  14.316  92.765  1.00  0.00    -0.383 OA
HETATM   30  H   UNL     1       1.995  14.874  93.306  1.00  0.00     0.210 HD
ENDBRANCH  27  29
ENDBRANCH  26  27
BRANCH  26  31
HETATM   31  C   UNL     1       2.833  13.764  90.568  1.00  0.00     0.181 C 
HETATM   32  O   UNL     1       2.337  14.885  90.658  1.00  0.00    -0.294 OA
BRANCH  31  33
HETATM   33  C   UNL     1       4.435  13.965  90.718  1.00  0.00     0.138 C 
BRANCH  33  34
HETATM   34  C   UNL     1       4.792  14.312  89.396  1.00  0.00     0.208 C 
HETATM   35  O   UNL     1       5.298  15.401  89.250  1.00  0.00    -0.289 OA
BRANCH  34  36
HETATM   36  C   UNL     1       4.935  13.531  88.282  1.00  0.00     0.194 C 
HETATM   37  O   UNL     1       4.812  12.146  88.126  1.00  0.00    -0.185 OA
ENDBRANCH  34  36
ENDBRANCH  33  34
ENDBRANCH  31  33
ENDBRANCH  26  31
ENDBRANCH  24  26
ENDBRANCH  19  22
ENDBRANCH  15  16
ENDBRANCH  11  14
ENDBRANCH   7   8
ENDBRANCH   2   7
TORSDOF 12
ENDMDL
MODEL 3
REMARK VINA RESULT:      -6.4      2.653      4.013
REMARK  12 active torsions:
REMARK  status: ('A' for Active; 'I' for Inactive)
REMARK    1  A    between atoms: O_2  and  C_16 
REMARK    2  A    between atoms: N_5  and  C_9 
REMARK    3  A    between atoms: N_6  and  C_13 
REMARK       I    between atoms: N_6  and  C_22 
REMARK    4  A    between atoms: C_9  and  C_12 
REMARK    5  A    between atoms: C_13  and  C_16 
REMARK    6  A    between atoms: C_13  and  C_21 
REMARK    7  A    between atoms: C_19  and  C_24 
REMARK    8  A    between atoms: C_21  and  C_33 
REMARK    9  A    between atoms: C_22  and  C_23 
REMARK   10  A    between atoms: C_27  and  C_30 
REMARK   11  A    between atoms: C_33  and  C_34 
REMARK   12  A    between atoms: C_34  and  C_35 
ROOT
HETATM    1  O   UNL     1      16.461   4.297  94.118  1.00  0.00    -0.350 OA
HETATM    2  N   UNL     1      14.696   2.731  92.525  1.00  0.00     0.147 N 
HETATM    3  C   UNL     1      14.631   4.199  92.526  1.00  0.00     0.283 C 
HETATM    4  C   UNL     1      15.196   2.249  93.820  1.00  0.00     0.283 C 
HETATM    5  C   UNL     1      16.006   4.777  92.851  1.00  0.00     0.178 C 
HETATM    6  C   UNL     1      16.556   2.872  94.115  1.00  0.00     0.178 C 
ENDROOT
BRANCH   2   7
HETATM    7  C   UNL     1      13.386   2.155  92.227  1.00  0.00     0.277 C 
BRANCH   7   8
HETATM    8  C   UNL     1      12.296   3.171  92.271  1.00  0.00     0.011 A 
HETATM    9  C   UNL     1      11.969   3.790  93.479  1.00  0.00    -0.002 A 
HETATM   10  C   UNL     1      10.948   4.739  93.522  1.00  0.00     0.008 A 
HETATM   11  C   UNL     1      10.255   5.069  92.358  1.00  0.00     0.042 A 
HETATM   12  C   UNL     1      10.580   4.452  91.152  1.00  0.00     0.008 A 
HETATM   13  C   UNL     1      11.601   3.503  91.108  1.00  0.00    -0.002 A 
BRANCH  11  14
HETATM   14  C   UNL     1       9.209   6.044  92.402  1.00  0.00    -0.059 C 
HETATM   15  C   UNL     1       8.329   6.863  92.439  1.00  0.00    -0.059 C 
BRANCH  15  16
HETATM   16  C   UNL     1       7.283   7.837  92.484  1.00  0.00     0.042 A 
HETATM   17  C   UNL     1       5.965   7.455  92.233  1.00  0.00     0.008 A 
HETATM   18  C   UNL     1       4.945   8.405  92.280  1.00  0.00     0.005 A 
HETATM   19  C   UNL     1       5.265   9.713  92.577  1.00  0.00     0.056 A 
HETATM   20  C   UNL     1       6.559  10.115  92.829  1.00  0.00     0.005 A 
HETATM   21  C   UNL     1       7.581   9.167  92.782  1.00  0.00     0.008 A 
BRANCH  19  22
HETATM   22  C   UNL     1       4.177  10.725  92.625  1.00  0.00     0.254 C 
HETATM   23  O   UNL     1       3.189  10.512  93.323  1.00  0.00    -0.268 OA
HETATM   24  N   UNL     1       4.383  11.874  91.873  1.00  0.00    -0.335 N 
HETATM   25  HN  UNL     1       5.236  11.992  91.340  1.00  0.00     0.164 HD
BRANCH  24  26
HETATM   26  C   UNL     1       3.432  12.956  91.836  1.00  0.00     0.166 C 
BRANCH  26  27
HETATM   27  C   UNL     1       3.852  14.145  92.710  1.00  0.00     0.138 C 
HETATM   28  C   UNL     1       2.659  14.864  93.330  1.00  0.00     0.034 C 
BRANCH  27  29
HETATM   29  O   UNL     1       4.713  13.691  93.753  1.00  0.00    -0.383 OA
HETATM   30  H   UNL     1       4.279  13.866  94.605  1.00  0.00     0.210 HD
ENDBRANCH  27  29
ENDBRANCH  26  27
BRANCH  26  31
HETATM   31  C   UNL     1       3.257  13.373  90.379  1.00  0.00     0.181 C 
HETATM   32  O   UNL     1       2.588  14.346  90.037  1.00  0.00    -0.294 OA
BRANCH  31  33
HETATM   33  C   UNL     1       4.682  13.513  89.618  1.00  0.00     0.138 C 
BRANCH  33  34
HETATM   34  C   UNL     1       4.422  12.809  88.421  1.00  0.00     0.208 C 
HETATM   35  O   UNL     1       5.032  13.178  87.444  1.00  0.00    -0.289 OA
BRANCH  34  36
HETATM   36  C   UNL     1       3.818  11.599  88.216  1.00  0.00     0.194 C 
HETATM   37  O   UNL     1       4.319  10.423  87.647  1.00  0.00    -0.185 OA
ENDBRANCH  34  36
ENDBRANCH  33  34
ENDBRANCH  31  33
ENDBRANCH  26  31
ENDBRANCH  24  26
ENDBRANCH  19  22
ENDBRANCH  15  16
ENDBRANCH  11  14
ENDBRANCH   7   8
ENDBRANCH   2   7
TORSDOF 12
ENDMDL
MODEL 4
REMARK VINA RESULT:      -4.6      2.723      3.985
REMARK  12 active torsions:
REMARK  status: ('A' for Active; 'I' for Inactive)
REMARK    1  A    between atoms: O_2  and  C_16 
REMARK    2  A    between atoms: N_5  and  C_9 
REMARK    3  A    between atoms: N_6  and  C_13 
REMARK       I    between atoms: N_6  and  C_22 
REMARK    4  A    between atoms: C_9  and  C_12 
REMARK    5  A    between atoms: C_13  and  C_16 
REMARK    6  A    between atoms: C_13  and  C_21 
REMARK    7  A    between atoms: C_19  and  C_24 
REMARK    8  A    between atoms: C_21  and  C_33 
REMARK    9  A    between atoms: C_22  and  C_23 
REMARK   10  A    between atoms: C_27  and  C_30 
REMARK   11  A    between atoms: C_33  and  C_34 
REMARK   12  A    between atoms: C_34  and  C_35 
ROOT
HETATM    1  O   UNL     1      15.441   4.907  91.580  1.00  0.00    -0.350 OA
HETATM    2  N   UNL     1      13.776   2.983  92.856  1.00  0.00     0.147 N 
HETATM    3  C   UNL     1      13.465   3.499  91.516  1.00  0.00     0.283 C 
HETATM    4  C   UNL     1      14.512   3.995  93.627  1.00  0.00     0.283 C 
HETATM    5  C   UNL     1      14.753   3.918  90.811  1.00  0.00     0.178 C 
HETATM    6  C   UNL     1      15.774   4.403  92.873  1.00  0.00     0.178 C 
ENDROOT
BRANCH   2   7
HETATM    7  C   UNL     1      12.555   2.585  93.554  1.00  0.00     0.277 C 
BRANCH   7   8
HETATM    8  C   UNL     1      11.420   3.515  93.288  1.00  0.00     0.011 A 
HETATM    9  C   UNL     1      11.245   4.646  94.087  1.00  0.00    -0.002 A 
HETATM   10  C   UNL     1      10.182   5.516  93.840  1.00  0.00     0.008 A 
HETATM   11  C   UNL     1       9.297   5.255  92.795  1.00  0.00     0.042 A 
HETATM   12  C   UNL     1       9.472   4.126  91.997  1.00  0.00     0.008 A 
HETATM   13  C   UNL     1      10.534   3.255  92.243  1.00  0.00    -0.002 A 
BRANCH  11  14
HETATM   14  C   UNL     1       8.209   6.148  92.541  1.00  0.00    -0.059 C 
HETATM   15  C   UNL     1       7.294   6.898  92.328  1.00  0.00    -0.059 C 
BRANCH  15  16
HETATM   16  C   UNL     1       6.207   7.792  92.074  1.00  0.00     0.042 A 
HETATM   17  C   UNL     1       4.917   7.454  92.486  1.00  0.00     0.008 A 
HETATM   18  C   UNL     1       3.857   8.326  92.241  1.00  0.00     0.005 A 
HETATM   19  C   UNL     1       4.110   9.516  91.591  1.00  0.00     0.056 A 
HETATM   20  C   UNL     1       5.375   9.873  91.174  1.00  0.00     0.005 A 
HETATM   21  C   UNL     1       6.436   9.001  91.418  1.00  0.00     0.008 A 
BRANCH  19  22
HETATM   22  C   UNL     1       2.980  10.445  91.329  1.00  0.00     0.254 C 
HETATM   23  O   UNL     1       1.936  10.001  90.856  1.00  0.00    -0.268 OA
HETATM   24  N   UNL     1       3.192  11.773  91.671  1.00  0.00    -0.335 N 
HETATM   25  HN  UNL     1       4.073  12.063  92.080  1.00  0.00     0.164 HD
BRANCH  24  26
HETATM   26  C   UNL     1       2.185  12.789  91.499  1.00  0.00     0.166 C 
BRANCH  26  27
HETATM   27  C   UNL     1       1.811  13.482  92.816  1.00  0.00     0.138 C 
HETATM   28  C   UNL     1       2.980  13.548  93.793  1.00  0.00     0.034 C 
BRANCH  27  29
HETATM   29  O   UNL     1       1.358  14.808  92.544  1.00  0.00    -0.383 OA
HETATM   30  H   UNL     1       0.455  14.899  92.893  1.00  0.00     0.210 HD
ENDBRANCH  27  29
ENDBRANCH  26  27
BRANCH  26  31
HETATM   31  C   UNL     1       2.703  13.790  90.472  1.00  0.00     0.181 C 
HETATM   32  O   UNL     1       2.164  14.876  90.264  1.00  0.00    -0.294 OA
BRANCH  31  33
HETATM   33  C   UNL     1       4.281  14.101  90.677  1.00  0.00     0.138 C 
BRANCH  33  34
HETATM   34  C   UNL     1       4.697  14.294  89.341  1.00  0.00     0.208 C 
HETATM   35  O   UNL     1       4.940  15.434  89.018  1.00  0.00    -0.289 OA
BRANCH  34  36
HETATM   36  C   UNL     1       5.152  13.395  88.415  1.00  0.00     0.194 C 
HETATM   37  O   UNL     1       6.178  12.447  88.504  1.00  0.00    -0.185 OA
ENDBRANCH  34  36
ENDBRANCH  33  34
ENDBRANCH  31  33
ENDBRANCH  26  31
ENDBRANCH  24  26
ENDBRANCH  19  22
ENDBRANCH  15  16
ENDBRANCH  11  14
ENDBRANCH   7   8
ENDBRANCH   2   7
TORSDOF 12
ENDMDL
MODEL 5
REMARK VINA RESULT:      -3.6      2.299      3.645
REMARK  12 active torsions:
REMARK  status: ('A' for Active; 'I' for Inactive)
REMARK    1  A    between atoms: O_2  and  C_16 
REMARK    2  A    between atoms: N_5  and  C_9 
REMARK    3  A    between atoms: N_6  and  C_13 
REMARK       I    between atoms: N_6  and  C_22 
REMARK    4  A    between atoms: C_9  and  C_12 
REMARK    5  A    between atoms: C_13  and  C_16 
REMARK    6  A    between atoms: C_13  and  C_21 
REMARK    7  A    between atoms: C_19  and  C_24 
REMARK    8  A    between atoms: C_21  and  C_33 
REMARK    9  A    between atoms: C_22  and  C_23 
REMARK   10  A    between atoms: C_27  and  C_30 
REMARK   11  A    between atoms: C_33  and  C_34 
REMARK   12  A    between atoms: C_34  and  C_35 
ROOT
HETATM    1  O   UNL     1      16.511   3.792  93.186  1.00  0.00    -0.350 OA
HETATM    2  N   UNL     1      14.402   1.928  92.764  1.00  0.00     0.147 N 
HETATM    3  C   UNL     1      14.681   3.002  91.801  1.00  0.00     0.283 C 
HETATM    4  C   UNL     1      14.799   2.347  94.116  1.00  0.00     0.283 C 
HETATM    5  C   UNL     1      16.159   3.381  91.864  1.00  0.00     0.178 C 
HETATM    6  C   UNL     1      16.272   2.742  94.124  1.00  0.00     0.178 C 
ENDROOT
BRANCH   2   7
HETATM    7  C   UNL     1      12.989   1.555  92.729  1.00  0.00     0.277 C 
BRANCH   7   8
HETATM    8  C   UNL     1      12.108   2.702  92.367  1.00  0.00     0.011 A 
HETATM    9  C   UNL     1      11.894   3.732  93.284  1.00  0.00    -0.002 A 
HETATM   10  C   UNL     1      11.068   4.805  92.948  1.00  0.00     0.008 A 
HETATM   11  C   UNL     1      10.459   4.848  91.694  1.00  0.00     0.042 A 
HETATM   12  C   UNL     1      10.673   3.820  90.778  1.00  0.00     0.008 A 
HETATM   13  C   UNL     1      11.498   2.747  91.114  1.00  0.00    -0.002 A 
BRANCH  11  14
HETATM   14  C   UNL     1       9.614   5.949  91.348  1.00  0.00    -0.059 C 
HETATM   15  C   UNL     1       8.903   6.875  91.058  1.00  0.00    -0.059 C 
BRANCH  15  16
HETATM   16  C   UNL     1       8.059   7.976  90.714  1.00  0.00     0.042 A 
HETATM   17  C   UNL     1       8.384   9.263  91.142  1.00  0.00     0.008 A 
HETATM   18  C   UNL     1       7.561  10.337  90.803  1.00  0.00     0.005 A 
HETATM   19  C   UNL     1       6.434  10.101  90.044  1.00  0.00     0.056 A 
HETATM   20  C   UNL     1       6.091   8.838  89.609  1.00  0.00     0.005 A 
HETATM   21  C   UNL     1       6.913   7.763  89.947  1.00  0.00     0.008 A 
BRANCH  19  22
HETATM   22  C   UNL     1       5.557  11.246  89.686  1.00  0.00     0.254 C 
HETATM   23  O   UNL     1       5.040  11.279  88.572  1.00  0.00    -0.268 OA
HETATM   24  N   UNL     1       5.369  12.201  90.675  1.00  0.00    -0.335 N 
HETATM   25  HN  UNL     1       5.809  12.094  91.581  1.00  0.00     0.164 HD
BRANCH  24  26
HETATM   26  C   UNL     1       4.527  13.355  90.488  1.00  0.00     0.166 C 
BRANCH  26  27
HETATM   27  C   UNL     1       4.841  14.115  89.192  1.00  0.00     0.138 C 
HETATM   28  C   UNL     1       4.907  15.623  89.402  1.00  0.00     0.034 C 
BRANCH  27  29
HETATM   29  O   UNL     1       6.088  13.664  88.665  1.00  0.00    -0.383 OA
HETATM   30  H   UNL     1       6.388  14.307  88.000  1.00  0.00     0.210 HD
ENDBRANCH  27  29
ENDBRANCH  26  27
BRANCH  26  31
HETATM   31  C   UNL     1       3.077  12.885  90.518  1.00  0.00     0.181 C 
HETATM   32  O   UNL     1       2.285  13.096  89.601  1.00  0.00    -0.294 OA
BRANCH  31  33
HETATM   33  C   UNL     1       2.964  11.304  90.857  1.00  0.00     0.138 C 
BRANCH  33  34
HETATM   34  C   UNL     1       2.408  11.342  92.155  1.00  0.00     0.208 C 
HETATM   35  O   UNL     1       1.572  12.193  92.352  1.00  0.00    -0.289 OA
BRANCH  34  36
HETATM   36  C   UNL     1       2.432  10.411  93.158  1.00  0.00     0.194 C 
HETATM   37  O   UNL     1       3.343   9.380  93.414  1.00  0.00    -0.185 OA
ENDBRANCH  34  36
ENDBRANCH  33  34
ENDBRANCH  31  33
ENDBRANCH  26  31
ENDBRANCH  24  26
ENDBRANCH  19  22
ENDBRANCH  15  16
ENDBRANCH  11  14
ENDBRANCH   7   8
ENDBRANCH   2   7
TORSDOF 12
ENDMDL
