MODEL 1
REMARK VINA RESULT:      -7.5      0.000      0.000
REMARK  9 active torsions:
REMARK  status: ('A' for Active; 'I' for Inactive)
REMARK    1  A    between atoms: N_3  and  C_6 
REMARK    2  A    between atoms: C_6  and  C_9 
REMARK    3  A    between atoms: C_14  and  C_17 
REMARK       I    between atoms: N_26  and  C_15 
REMARK    4  A    between atoms: C_15  and  C_16 
REMARK    5  A    between atoms: C_20  and  C_23 
REMARK    6  A    between atoms: OG1_24  and  CB_28 
REMARK    7  A    between atoms: N_26  and  CA_27 
REMARK    8  A    between atoms: CA_27  and  CB_28 
REMARK    9  A    between atoms: CA_27  and  C_30 
ROOT
HETATM    1  O   UNK A   0       1.923   8.204  87.842  1.00  0.00    -0.388 OA
HETATM    2  N   UNK A   0       4.701   7.609  87.660  1.00  0.00     0.096 N 
HETATM    3  C   UNK A   0       4.215   8.994  87.726  1.00  0.00     0.299 C 
HETATM    4  C   UNK A   0       3.688   6.749  87.033  1.00  0.00     0.299 C 
HETATM    5  C   UNK A   0       2.889   9.042  88.480  1.00  0.00     0.198 C 
HETATM    6  C   UNK A   0       2.374   6.850  87.802  1.00  0.00     0.198 C 
ENDROOT
BRANCH   2   7
HETATM    7  C   UNK A   0       5.966   7.538  86.932  1.00  0.00     0.311 C 
BRANCH   7   8
HETATM    8  C   UNK A   0       7.060   6.941  87.751  1.00  0.00    -0.030 A 
HETATM    9  C   UNK A   0       8.297   6.666  87.166  1.00  0.00     0.010 A 
HETATM   10  C   UNK A   0       9.320   6.105  87.930  1.00  0.00     0.021 A 
HETATM   11  C   UNK A   0       9.106   5.822  89.279  1.00  0.00     0.018 A 
HETATM   12  C   UNK A   0       7.872   6.096  89.864  1.00  0.00     0.021 A 
HETATM   13  C   UNK A   0       6.848   6.656  89.100  1.00  0.00     0.010 A 
BRANCH  11  14
HETATM   14  C   UNK A   0      10.157   5.249  90.063  1.00  0.00    -0.061 C 
HETATM   15  C   UNK A   0      11.039   4.766  90.722  1.00  0.00    -0.061 C 
BRANCH  15  16
HETATM   16  C   UNK A   0      12.090   4.193  91.505  1.00  0.00     0.018 A 
HETATM   17  C   UNK A   0      11.862   3.864  92.842  1.00  0.00     0.022 A 
HETATM   18  C   UNK A   0      12.886   3.303  93.604  1.00  0.00     0.018 A 
HETATM   19  C   UNK A   0      14.113   3.083  93.015  1.00  0.00     0.032 A 
HETATM   20  C   UNK A   0      14.363   3.399  91.696  1.00  0.00     0.018 A 
HETATM   21  C   UNK A   0      13.340   3.961  90.932  1.00  0.00     0.022 A 
BRANCH  19  22
HETATM   22  C   UNK A   0      15.204   2.486  93.828  1.00  0.00     0.252 C 
HETATM   23  O   UNK A   0      16.361   2.852  93.639  1.00  0.00    -0.268 OA
ENDBRANCH  19  22
ENDBRANCH  15  16
ENDBRANCH  11  14
ENDBRANCH   7   8
ENDBRANCH   2   7
TORSDOF 9
ENDMDL
