MODEL 1
REMARK VINA RESULT:      -6.9      0.000      0.000
REMARK  11 active torsions:
REMARK  status: ('A' for Active; 'I' for Inactive)
REMARK    1  A    between atoms: O_2  and  C_18 
REMARK    2  A    between atoms: O_5  and  P_8 
REMARK    3  A    between atoms: N_6  and  C_11 
REMARK    4  A    between atoms: N_7  and  C_15 
REMARK       I    between atoms: N_7  and  C_24 
REMARK    5  A    between atoms: P_8  and  C_23 
REMARK    6  A    between atoms: C_11  and  C_14 
REMARK    7  A    between atoms: C_15  and  C_18 
REMARK    8  A    between atoms: C_15  and  C_23 
REMARK    9  A    between atoms: C_21  and  C_26 
REMARK   10  A    between atoms: C_24  and  C_25 
REMARK   11  A    between atoms: C_29  and  C_32 
ROOT
HETATM    1  O   UNL     1      16.081   3.737  94.083  1.00  0.00     0.000 OA
HETATM    2  N   UNL     1      14.179   2.585  92.307  1.00  0.00     0.000 N 
HETATM    3  C   UNL     1      14.198   4.029  92.580  1.00  0.00     0.000 C 
HETATM    4  C   UNL     1      14.692   1.846  93.469  1.00  0.00     0.000 C 
HETATM    5  C   UNL     1      15.614   4.467  92.947  1.00  0.00     0.000 C 
HETATM    6  C   UNL     1      16.095   2.335  93.815  1.00  0.00     0.000 C 
ENDROOT
BRANCH   2   7
HETATM    7  C   UNL     1      12.829   2.142  91.964  1.00  0.00     0.000 C 
BRANCH   7   8
HETATM    8  C   UNL     1      11.913   3.282  91.675  1.00  0.00     0.000 A 
HETATM    9  C   UNL     1      11.143   3.833  92.700  1.00  0.00     0.000 A 
HETATM   10  C   UNL     1      10.283   4.898  92.430  1.00  0.00     0.000 A 
HETATM   11  C   UNL     1      10.196   5.412  91.137  1.00  0.00     0.000 A 
HETATM   12  C   UNL     1      10.965   4.862  90.113  1.00  0.00     0.000 A 
HETATM   13  C   UNL     1      11.824   3.797  90.382  1.00  0.00     0.000 A 
BRANCH  11  14
HETATM   14  C   UNL     1       9.317   6.507  90.861  1.00  0.00     0.000 C 
HETATM   15  C   UNL     1       8.578   7.426  90.629  1.00  0.00     0.000 C 
BRANCH  15  16
HETATM   16  C   UNL     1       7.699   8.520  90.354  1.00  0.00     0.000 A 
HETATM   17  C   UNL     1       6.342   8.418  90.659  1.00  0.00     0.000 A 
HETATM   18  C   UNL     1       5.486   9.486  90.393  1.00  0.00     0.000 A 
HETATM   19  C   UNL     1       6.005  10.632  89.828  1.00  0.00     0.000 A 
HETATM   20  C   UNL     1       7.343  10.757  89.516  1.00  0.00     0.000 A 
HETATM   21  C   UNL     1       8.200   9.690  89.782  1.00  0.00     0.000 A 
BRANCH  19  22
HETATM   22  C   UNL     1       5.092  11.769  89.542  1.00  0.00     0.000 C 
HETATM   23  O   UNL     1       4.792  12.019  88.377  1.00  0.00     0.000 OA
HETATM   24  N   UNL     1       4.620  12.462  90.648  1.00  0.00     0.000 N 
HETATM   25  HN  UNL     1       4.892  12.182  91.583  1.00  0.00     0.000 HD
BRANCH  24  26
HETATM   26  C   UNL     1       3.708  13.572  90.536  1.00  0.00     0.000 C 
BRANCH  26  27
HETATM   27  C   UNL     1       2.389  13.334  91.281  1.00  0.00     0.000 C 
HETATM   28  C   UNL     1       2.378  12.013  92.042  1.00  0.00     0.000 C 
BRANCH  27  29
HETATM   29  O   UNL     1       2.161  14.401  92.201  1.00  0.00     0.000 OA
HETATM   30  H   UNL     1       1.974  14.017  93.074  1.00  0.00     0.000 HD
ENDBRANCH  27  29
ENDBRANCH  26  27
BRANCH  26  31
HETATM   31  C   UNL     1       4.422  14.815  91.056  1.00  0.00     0.000 C 
HETATM   32  O   UNL     1       4.548  15.063  92.254  1.00  0.00     0.000 OA
BRANCH  31  33
HETATM   33  P   UNL     1       4.863  15.625  90.038  1.00  0.00     0.000 P 
HETATM   34  H   UNL     1       3.832  16.475  89.696  1.00  0.00     0.000 HD
BRANCH  33  35
HETATM   35  O   UNL     1       5.281  14.967  88.872  1.00  0.00     0.000 OA
HETATM   36  H   UNL     1       4.583  14.296  88.791  1.00  0.00     0.000 HD
ENDBRANCH  33  35
ENDBRANCH  31  33
ENDBRANCH  26  31
ENDBRANCH  24  26
ENDBRANCH  19  22
ENDBRANCH  15  16
ENDBRANCH  11  14
ENDBRANCH   7   8
ENDBRANCH   2   7
TORSDOF 11
ENDMDL
