MODEL 1
REMARK VINA RESULT:      -6.5      0.000      0.000
REMARK  14 active torsions:
REMARK  status: ('A' for Active; 'I' for Inactive)
REMARK    1  A    between atoms: O_2  and  C_18 
REMARK    2  A    between atoms: C_5  and  C_8 
REMARK    3  A    between atoms: C_5  and  O_35 
REMARK    4  A    between atoms: C_5  and  C_36 
REMARK    5  A    between atoms: N_6  and  C_11 
REMARK    6  A    between atoms: N_7  and  C_15 
REMARK       I    between atoms: N_7  and  C_24 
REMARK    7  A    between atoms: C_8  and  C_23 
REMARK    8  A    between atoms: C_11  and  C_14 
REMARK    9  A    between atoms: C_15  and  C_18 
REMARK   10  A    between atoms: C_15  and  C_23 
REMARK   11  A    between atoms: C_21  and  C_26 
REMARK   12  A    between atoms: C_24  and  C_25 
REMARK   13  A    between atoms: C_29  and  C_32 
REMARK   14  A    between atoms: C_36  and  O_39 
ROOT
HETATM    1  O   UNL     1      16.519   3.343  93.922  1.00  0.00    -0.350 OA
HETATM    2  N   UNL     1      13.952   3.052  92.728  1.00  0.00     0.147 N 
HETATM    3  C   UNL     1      14.841   1.899  92.928  1.00  0.00     0.283 C 
HETATM    4  C   UNL     1      14.746   4.276  92.555  1.00  0.00     0.283 C 
HETATM    5  C   UNL     1      15.755   2.153  94.124  1.00  0.00     0.178 C 
HETATM    6  C   UNL     1      15.662   4.474  93.758  1.00  0.00     0.178 C 
ENDROOT
BRANCH   2   7
HETATM    7  C   UNL     1      13.074   2.835  91.580  1.00  0.00     0.277 C 
BRANCH   7   8
HETATM    8  C   UNL     1      11.908   3.765  91.572  1.00  0.00     0.011 A 
HETATM    9  C   UNL     1      11.255   4.053  90.373  1.00  0.00    -0.002 A 
HETATM   10  C   UNL     1      10.166   4.924  90.365  1.00  0.00     0.008 A 
HETATM   11  C   UNL     1       9.730   5.505  91.555  1.00  0.00     0.042 A 
HETATM   12  C   UNL     1      10.381   5.218  92.753  1.00  0.00     0.008 A 
HETATM   13  C   UNL     1      11.471   4.347  92.762  1.00  0.00    -0.002 A 
BRANCH  11  14
HETATM   14  C   UNL     1       8.611   6.397  91.547  1.00  0.00    -0.059 C 
HETATM   15  C   UNL     1       7.671   7.146  91.539  1.00  0.00    -0.059 C 
BRANCH  15  16
HETATM   16  C   UNL     1       6.553   8.037  91.531  1.00  0.00     0.042 A 
HETATM   17  C   UNL     1       6.460   9.048  92.489  1.00  0.00     0.008 A 
HETATM   18  C   UNL     1       5.370   9.918  92.479  1.00  0.00     0.005 A 
HETATM   19  C   UNL     1       4.399   9.760  91.512  1.00  0.00     0.056 A 
HETATM   20  C   UNL     1       4.468   8.769  90.555  1.00  0.00     0.005 A 
HETATM   21  C   UNL     1       5.557   7.898  90.564  1.00  0.00     0.008 A 
BRANCH  19  22
HETATM   22  C   UNL     1       3.238  10.686  91.503  1.00  0.00     0.254 C 
HETATM   23  O   UNL     1       2.108  10.231  91.340  1.00  0.00    -0.268 OA
HETATM   24  N   UNL     1       3.528  12.028  91.710  1.00  0.00    -0.335 N 
HETATM   25  HN  UNL     1       4.484  12.328  91.863  1.00  0.00     0.164 HD
BRANCH  24  26
HETATM   26  C   UNL     1       2.508  13.045  91.753  1.00  0.00     0.169 C 
BRANCH  26  27
HETATM   27  C   UNL     1       2.449  13.769  93.104  1.00  0.00     0.138 C 
HETATM   28  C   UNL     1       3.678  13.501  93.965  1.00  0.00     0.034 C 
BRANCH  27  29
HETATM   29  O   UNL     1       2.331  15.175  92.888  1.00  0.00    -0.383 OA
HETATM   30  H   UNL     1       2.052  15.319  91.968  1.00  0.00     0.210 HD
ENDBRANCH  27  29
ENDBRANCH  26  27
BRANCH  26  31
HETATM   31  C   UNL     1       2.775  14.021  90.612  1.00  0.00     0.194 C 
HETATM   32  O   UNL     1       1.879  14.621  90.021  1.00  0.00    -0.289 OA
BRANCH  31  33
HETATM   33  C   UNL     1       4.112  14.112  90.309  1.00  0.00     0.053 C 
BRANCH  33  34
HETATM   34  C   UNL     1       4.431  14.097  88.944  1.00  0.00     0.220 C 
BRANCH  34  35
HETATM   35  O   UNL     1       5.500  14.719  88.796  1.00  0.00    -0.371 OA
HETATM   36  H   UNL     1       5.833  14.621  89.675  1.00  0.00     0.211 HD
ENDBRANCH  34  35
BRANCH  34  37
HETATM   37  C   UNL     1       4.484  12.805  88.395  1.00  0.00     0.185 C 
HETATM   38  O   UNL     1       5.364  12.603  89.364  1.00  0.00    -0.647 OA
BRANCH  37  39
HETATM   39  O   UNL     1       3.995  12.226  87.472  1.00  0.00    -0.774 OA
HETATM   40  H   UNL     1       2.884  12.439  87.387  1.00  0.00     0.167 HD
ENDBRANCH  37  39
ENDBRANCH  34  37
ENDBRANCH  33  34
ENDBRANCH  31  33
ENDBRANCH  26  31
ENDBRANCH  24  26
ENDBRANCH  19  22
ENDBRANCH  15  16
ENDBRANCH  11  14
ENDBRANCH   7   8
ENDBRANCH   2   7
TORSDOF 14
ENDMDL
MODEL 2
REMARK VINA RESULT:      -6.0      1.361      2.138
REMARK  14 active torsions:
REMARK  status: ('A' for Active; 'I' for Inactive)
REMARK    1  A    between atoms: O_2  and  C_18 
REMARK    2  A    between atoms: C_5  and  C_8 
REMARK    3  A    between atoms: C_5  and  O_35 
REMARK    4  A    between atoms: C_5  and  C_36 
REMARK    5  A    between atoms: N_6  and  C_11 
REMARK    6  A    between atoms: N_7  and  C_15 
REMARK       I    between atoms: N_7  and  C_24 
REMARK    7  A    between atoms: C_8  and  C_23 
REMARK    8  A    between atoms: C_11  and  C_14 
REMARK    9  A    between atoms: C_15  and  C_18 
REMARK   10  A    between atoms: C_15  and  C_23 
REMARK   11  A    between atoms: C_21  and  C_26 
REMARK   12  A    between atoms: C_24  and  C_25 
REMARK   13  A    between atoms: C_29  and  C_32 
REMARK   14  A    between atoms: C_36  and  O_39 
ROOT
HETATM    1  O   UNL     1      16.468   4.006  94.120  1.00  0.00    -0.350 OA
HETATM    2  N   UNL     1      14.469   2.712  92.561  1.00  0.00     0.147 N 
HETATM    3  C   UNL     1      14.560   4.177  92.631  1.00  0.00     0.283 C 
HETATM    4  C   UNL     1      14.980   2.116  93.803  1.00  0.00     0.283 C 
HETATM    5  C   UNL     1      16.003   4.593  92.903  1.00  0.00     0.178 C 
HETATM    6  C   UNL     1      16.412   2.581  94.049  1.00  0.00     0.178 C 
ENDROOT
BRANCH   2   7
HETATM    7  C   UNL     1      13.092   2.290  92.311  1.00  0.00     0.277 C 
BRANCH   7   8
HETATM    8  C   UNL     1      12.129   3.426  92.377  1.00  0.00     0.011 A 
HETATM    9  C   UNL     1      11.791   3.983  93.611  1.00  0.00    -0.002 A 
HETATM   10  C   UNL     1      10.889   5.045  93.674  1.00  0.00     0.008 A 
HETATM   11  C   UNL     1      10.326   5.550  92.502  1.00  0.00     0.042 A 
HETATM   12  C   UNL     1      10.663   4.996  91.269  1.00  0.00     0.008 A 
HETATM   13  C   UNL     1      11.565   3.933  91.206  1.00  0.00    -0.002 A 
BRANCH  11  14
HETATM   14  C   UNL     1       9.402   6.641  92.566  1.00  0.00    -0.059 C 
HETATM   15  C   UNL     1       8.626   7.557  92.620  1.00  0.00    -0.059 C 
BRANCH  15  16
HETATM   16  C   UNL     1       7.702   8.647  92.683  1.00  0.00     0.042 A 
HETATM   17  C   UNL     1       6.820   8.875  91.627  1.00  0.00     0.008 A 
HETATM   18  C   UNL     1       5.917   9.936  91.690  1.00  0.00     0.005 A 
HETATM   19  C   UNL     1       5.916  10.744  92.807  1.00  0.00     0.056 A 
HETATM   20  C   UNL     1       6.778  10.540  93.865  1.00  0.00     0.005 A 
HETATM   21  C   UNL     1       7.681   9.479  93.802  1.00  0.00     0.008 A 
BRANCH  19  22
HETATM   22  C   UNL     1       4.955  11.876  92.874  1.00  0.00     0.254 C 
HETATM   23  O   UNL     1       4.795  12.465  93.940  1.00  0.00    -0.268 OA
HETATM   24  N   UNL     1       4.316  12.201  91.685  1.00  0.00    -0.335 N 
HETATM   25  HN  UNL     1       4.517  11.685  90.837  1.00  0.00     0.164 HD
BRANCH  24  26
HETATM   26  C   UNL     1       3.376  13.288  91.583  1.00  0.00     0.169 C 
BRANCH  26  27
HETATM   27  C   UNL     1       3.725  14.463  92.504  1.00  0.00     0.138 C 
HETATM   28  C   UNL     1       4.682  15.454  91.849  1.00  0.00     0.034 C 
BRANCH  27  29
HETATM   29  O   UNL     1       2.530  15.150  92.875  1.00  0.00    -0.383 OA
HETATM   30  H   UNL     1       2.046  14.598  93.513  1.00  0.00     0.210 HD
ENDBRANCH  27  29
ENDBRANCH  26  27
BRANCH  26  31
HETATM   31  C   UNL     1       3.325  13.723  90.122  1.00  0.00     0.194 C 
HETATM   32  O   UNL     1       2.406  14.393  89.654  1.00  0.00    -0.289 OA
BRANCH  31  33
HETATM   33  C   UNL     1       4.395  13.250  89.402  1.00  0.00     0.053 C 
BRANCH  33  34
HETATM   34  C   UNL     1       4.079  12.449  88.295  1.00  0.00     0.220 C 
BRANCH  34  35
HETATM   35  O   UNL     1       4.382  13.083  87.267  1.00  0.00    -0.371 OA
HETATM   36  H   UNL     1       4.246  13.955  87.604  1.00  0.00     0.211 HD
ENDBRANCH  34  35
BRANCH  34  37
HETATM   37  C   UNL     1       4.678  11.178  88.335  1.00  0.00     0.185 C 
HETATM   38  O   UNL     1       5.711  11.856  88.810  1.00  0.00    -0.647 OA
BRANCH  37  39
HETATM   39  O   UNL     1       4.380  10.062  88.031  1.00  0.00    -0.774 OA
HETATM   40  H   UNL     1       4.042   9.459  88.930  1.00  0.00     0.167 HD
ENDBRANCH  37  39
ENDBRANCH  34  37
ENDBRANCH  33  34
ENDBRANCH  31  33
ENDBRANCH  26  31
ENDBRANCH  24  26
ENDBRANCH  19  22
ENDBRANCH  15  16
ENDBRANCH  11  14
ENDBRANCH   7   8
ENDBRANCH   2   7
TORSDOF 14
ENDMDL
MODEL 3
REMARK VINA RESULT:      -5.2      1.635      2.188
REMARK  14 active torsions:
REMARK  status: ('A' for Active; 'I' for Inactive)
REMARK    1  A    between atoms: O_2  and  C_18 
REMARK    2  A    between atoms: C_5  and  C_8 
REMARK    3  A    between atoms: C_5  and  O_35 
REMARK    4  A    between atoms: C_5  and  C_36 
REMARK    5  A    between atoms: N_6  and  C_11 
REMARK    6  A    between atoms: N_7  and  C_15 
REMARK       I    between atoms: N_7  and  C_24 
REMARK    7  A    between atoms: C_8  and  C_23 
REMARK    8  A    between atoms: C_11  and  C_14 
REMARK    9  A    between atoms: C_15  and  C_18 
REMARK   10  A    between atoms: C_15  and  C_23 
REMARK   11  A    between atoms: C_21  and  C_26 
REMARK   12  A    between atoms: C_24  and  C_25 
REMARK   13  A    between atoms: C_29  and  C_32 
REMARK   14  A    between atoms: C_36  and  O_39 
ROOT
HETATM    1  O   UNL     1      17.366   4.749  93.421  1.00  0.00    -0.350 OA
HETATM    2  N   UNL     1      15.302   2.844  93.883  1.00  0.00     0.147 N 
HETATM    3  C   UNL     1      16.544   2.477  93.190  1.00  0.00     0.283 C 
HETATM    4  C   UNL     1      15.000   4.265  93.658  1.00  0.00     0.283 C 
HETATM    5  C   UNL     1      17.684   3.377  93.660  1.00  0.00     0.178 C 
HETATM    6  C   UNL     1      16.176   5.122  94.117  1.00  0.00     0.178 C 
ENDROOT
BRANCH   2   7
HETATM    7  C   UNL     1      14.193   2.001  93.439  1.00  0.00     0.277 C 
BRANCH   7   8
HETATM    8  C   UNL     1      12.973   2.793  93.111  1.00  0.00     0.011 A 
HETATM    9  C   UNL     1      12.416   2.718  91.834  1.00  0.00    -0.002 A 
HETATM   10  C   UNL     1      11.276   3.460  91.525  1.00  0.00     0.008 A 
HETATM   11  C   UNL     1      10.693   4.276  92.495  1.00  0.00     0.042 A 
HETATM   12  C   UNL     1      11.248   4.351  93.770  1.00  0.00     0.008 A 
HETATM   13  C   UNL     1      12.388   3.610  94.079  1.00  0.00    -0.002 A 
BRANCH  11  14
HETATM   14  C   UNL     1       9.522   5.035  92.179  1.00  0.00    -0.059 C 
HETATM   15  C   UNL     1       8.539   5.673  91.912  1.00  0.00    -0.059 C 
BRANCH  15  16
HETATM   16  C   UNL     1       7.369   6.432  91.596  1.00  0.00     0.042 A 
HETATM   17  C   UNL     1       6.818   7.292  92.547  1.00  0.00     0.008 A 
HETATM   18  C   UNL     1       5.678   8.034  92.237  1.00  0.00     0.005 A 
HETATM   19  C   UNL     1       5.115   7.899  90.985  1.00  0.00     0.056 A 
HETATM   20  C   UNL     1       5.640   7.056  90.028  1.00  0.00     0.005 A 
HETATM   21  C   UNL     1       6.780   6.313  90.337  1.00  0.00     0.008 A 
BRANCH  19  22
HETATM   22  C   UNL     1       3.900   8.688  90.656  1.00  0.00     0.254 C 
HETATM   23  O   UNL     1       2.940   8.123  90.139  1.00  0.00    -0.268 OA
HETATM   24  N   UNL     1       3.940  10.035  90.992  1.00  0.00    -0.335 N 
HETATM   25  HN  UNL     1       4.759  10.427  91.440  1.00  0.00     0.164 HD
BRANCH  24  26
HETATM   26  C   UNL     1       2.831  10.925  90.759  1.00  0.00     0.169 C 
BRANCH  26  27
HETATM   27  C   UNL     1       2.697  12.002  91.843  1.00  0.00     0.138 C 
HETATM   28  C   UNL     1       1.411  11.861  92.650  1.00  0.00     0.034 C 
BRANCH  27  29
HETATM   29  O   UNL     1       3.812  11.927  92.731  1.00  0.00    -0.383 OA
HETATM   30  H   UNL     1       4.419  11.243  92.401  1.00  0.00     0.210 HD
ENDBRANCH  27  29
ENDBRANCH  26  27
BRANCH  26  31
HETATM   31  C   UNL     1       3.015  11.547  89.379  1.00  0.00     0.194 C 
HETATM   32  O   UNL     1       2.645  10.999  88.342  1.00  0.00    -0.289 OA
BRANCH  31  33
HETATM   33  C   UNL     1       3.668  12.755  89.437  1.00  0.00     0.053 C 
BRANCH  33  34
HETATM   34  C   UNL     1       4.981  12.763  88.945  1.00  0.00     0.220 C 
BRANCH  34  35
HETATM   35  O   UNL     1       5.269  11.598  88.611  1.00  0.00    -0.371 OA
HETATM   36  H   UNL     1       5.388  11.751  87.686  1.00  0.00     0.211 HD
ENDBRANCH  34  35
BRANCH  34  37
HETATM   37  C   UNL     1       5.183  13.683  87.902  1.00  0.00     0.185 C 
HETATM   38  O   UNL     1       5.466  14.507  88.899  1.00  0.00    -0.647 OA
BRANCH  37  39
HETATM   39  O   UNL     1       5.086  13.690  86.712  1.00  0.00    -0.774 OA
HETATM   40  H   UNL     1       4.381  14.504  86.354  1.00  0.00     0.167 HD
ENDBRANCH  37  39
ENDBRANCH  34  37
ENDBRANCH  33  34
ENDBRANCH  31  33
ENDBRANCH  26  31
ENDBRANCH  24  26
ENDBRANCH  19  22
ENDBRANCH  15  16
ENDBRANCH  11  14
ENDBRANCH   7   8
ENDBRANCH   2   7
TORSDOF 14
ENDMDL
MODEL 4
REMARK VINA RESULT:      -3.6      2.660     12.987
REMARK  14 active torsions:
REMARK  status: ('A' for Active; 'I' for Inactive)
REMARK    1  A    between atoms: O_2  and  C_18 
REMARK    2  A    between atoms: C_5  and  C_8 
REMARK    3  A    between atoms: C_5  and  O_35 
REMARK    4  A    between atoms: C_5  and  C_36 
REMARK    5  A    between atoms: N_6  and  C_11 
REMARK    6  A    between atoms: N_7  and  C_15 
REMARK       I    between atoms: N_7  and  C_24 
REMARK    7  A    between atoms: C_8  and  C_23 
REMARK    8  A    between atoms: C_11  and  C_14 
REMARK    9  A    between atoms: C_15  and  C_18 
REMARK   10  A    between atoms: C_15  and  C_23 
REMARK   11  A    between atoms: C_21  and  C_26 
REMARK   12  A    between atoms: C_24  and  C_25 
REMARK   13  A    between atoms: C_29  and  C_32 
REMARK   14  A    between atoms: C_36  and  O_39 
ROOT
HETATM    1  O   UNL     1       2.781  15.162  94.124  1.00  0.00    -0.350 OA
HETATM    2  N   UNL     1       2.172  14.366  91.460  1.00  0.00     0.147 N 
HETATM    3  C   UNL     1       1.190  14.230  92.546  1.00  0.00     0.283 C 
HETATM    4  C   UNL     1       3.535  14.267  91.999  1.00  0.00     0.283 C 
HETATM    5  C   UNL     1       1.452  15.289  93.614  1.00  0.00     0.178 C 
HETATM    6  C   UNL     1       3.742  15.323  93.080  1.00  0.00     0.178 C 
ENDROOT
BRANCH   2   7
HETATM    7  C   UNL     1       1.946  13.354  90.429  1.00  0.00     0.277 C 
BRANCH   7   8
HETATM    8  C   UNL     1       3.031  12.332  90.389  1.00  0.00     0.011 A 
HETATM    9  C   UNL     1       3.173  11.425  91.439  1.00  0.00    -0.002 A 
HETATM   10  C   UNL     1       4.189  10.470  91.404  1.00  0.00     0.008 A 
HETATM   11  C   UNL     1       5.061  10.422  90.317  1.00  0.00     0.042 A 
HETATM   12  C   UNL     1       4.921  11.328  89.267  1.00  0.00     0.008 A 
HETATM   13  C   UNL     1       3.905  12.283  89.303  1.00  0.00    -0.002 A 
BRANCH  11  14
HETATM   14  C   UNL     1       6.102   9.441  90.279  1.00  0.00    -0.059 C 
HETATM   15  C   UNL     1       6.978   8.617  90.248  1.00  0.00    -0.059 C 
BRANCH  15  16
HETATM   16  C   UNL     1       8.018   7.637  90.212  1.00  0.00     0.042 A 
HETATM   17  C   UNL     1       7.900   6.528  89.373  1.00  0.00     0.008 A 
HETATM   18  C   UNL     1       8.917   5.574  89.336  1.00  0.00     0.005 A 
HETATM   19  C   UNL     1      10.026   5.749  90.136  1.00  0.00     0.056 A 
HETATM   20  C   UNL     1      10.166   6.836  90.973  1.00  0.00     0.005 A 
HETATM   21  C   UNL     1       9.150   7.791  91.012  1.00  0.00     0.008 A 
BRANCH  19  22
HETATM   22  C   UNL     1      11.108   4.731  90.097  1.00  0.00     0.254 C 
HETATM   23  O   UNL     1      11.450   4.260  89.015  1.00  0.00    -0.268 OA
HETATM   24  N   UNL     1      11.677   4.401  91.319  1.00  0.00    -0.335 N 
HETATM   25  HN  UNL     1      11.359   4.850  92.170  1.00  0.00     0.164 HD
BRANCH  24  26
HETATM   26  C   UNL     1      12.751   3.449  91.443  1.00  0.00     0.169 C 
BRANCH  26  27
HETATM   27  C   UNL     1      14.070   3.962  90.848  1.00  0.00     0.138 C 
HETATM   28  C   UNL     1      14.481   3.197  89.595  1.00  0.00     0.034 C 
BRANCH  27  29
HETATM   29  O   UNL     1      13.941   5.346  90.525  1.00  0.00    -0.383 OA
HETATM   30  H   UNL     1      14.766   5.637  90.100  1.00  0.00     0.210 HD
ENDBRANCH  27  29
ENDBRANCH  26  27
BRANCH  26  31
HETATM   31  C   UNL     1      12.905   3.110  92.922  1.00  0.00     0.194 C 
HETATM   32  O   UNL     1      12.269   3.676  93.808  1.00  0.00    -0.289 OA
BRANCH  31  33
HETATM   33  C   UNL     1      13.853   2.139  93.136  1.00  0.00     0.053 C 
BRANCH  33  34
HETATM   34  C   UNL     1      14.915   2.498  93.978  1.00  0.00     0.220 C 
BRANCH  34  35
HETATM   35  O   UNL     1      15.640   1.497  94.124  1.00  0.00    -0.371 OA
HETATM   36  H   UNL     1      15.765   1.288  93.211  1.00  0.00     0.211 HD
ENDBRANCH  34  35
BRANCH  34  37
HETATM   37  C   UNL     1      15.635   3.617  93.525  1.00  0.00     0.185 C 
HETATM   38  O   UNL     1      16.447   2.695  93.032  1.00  0.00    -0.647 OA
BRANCH  37  39
HETATM   39  O   UNL     1      15.548   4.805  93.609  1.00  0.00    -0.774 OA
HETATM   40  H   UNL     1      15.652   5.157  94.683  1.00  0.00     0.167 HD
ENDBRANCH  37  39
ENDBRANCH  34  37
ENDBRANCH  33  34
ENDBRANCH  31  33
ENDBRANCH  26  31
ENDBRANCH  24  26
ENDBRANCH  19  22
ENDBRANCH  15  16
ENDBRANCH  11  14
ENDBRANCH   7   8
ENDBRANCH   2   7
TORSDOF 14
ENDMDL
