MODEL 1
REMARK VINA RESULT:      -6.8      0.000      0.000
REMARK  11 active torsions:
REMARK  status: ('A' for Active; 'I' for Inactive)
REMARK    1  A    between atoms: O_2  and  C_18 
REMARK    2  A    between atoms: O_5  and  P_8 
REMARK    3  A    between atoms: N_6  and  C_11 
REMARK    4  A    between atoms: N_7  and  C_15 
REMARK       I    between atoms: N_7  and  C_24 
REMARK    5  A    between atoms: P_8  and  C_23 
REMARK    6  A    between atoms: C_11  and  C_14 
REMARK    7  A    between atoms: C_15  and  C_18 
REMARK    8  A    between atoms: C_15  and  C_23 
REMARK    9  A    between atoms: C_21  and  C_26 
REMARK   10  A    between atoms: C_24  and  C_25 
REMARK   11  A    between atoms: C_29  and  C_32 
ROOT
HETATM    1  O   UNL     1      16.239   4.286  94.049  1.00  0.00     0.000 OA
HETATM    2  N   UNL     1      14.482   2.632  92.539  1.00  0.00     0.000 N 
HETATM    3  C   UNL     1      14.408   4.098  92.467  1.00  0.00     0.000 C 
HETATM    4  C   UNL     1      14.987   2.218  93.856  1.00  0.00     0.000 C 
HETATM    5  C   UNL     1      15.780   4.700  92.761  1.00  0.00     0.000 C 
HETATM    6  C   UNL     1      16.344   2.864  94.117  1.00  0.00     0.000 C 
ENDROOT
BRANCH   2   7
HETATM    7  C   UNL     1      13.175   2.034  92.272  1.00  0.00     0.000 C 
BRANCH   7   8
HETATM    8  C   UNL     1      12.129   3.059  91.992  1.00  0.00     0.000 A 
HETATM    9  C   UNL     1      11.736   3.312  90.678  1.00  0.00     0.000 A 
HETATM   10  C   UNL     1      10.759   4.272  90.415  1.00  0.00     0.000 A 
HETATM   11  C   UNL     1      10.173   4.975  91.467  1.00  0.00     0.000 A 
HETATM   12  C   UNL     1      10.564   4.722  92.780  1.00  0.00     0.000 A 
HETATM   13  C   UNL     1      11.542   3.763  93.043  1.00  0.00     0.000 A 
BRANCH  11  14
HETATM   14  C   UNL     1       9.168   5.958  91.197  1.00  0.00     0.000 C 
HETATM   15  C   UNL     1       8.324   6.783  90.970  1.00  0.00     0.000 C 
BRANCH  15  16
HETATM   16  C   UNL     1       7.320   7.765  90.702  1.00  0.00     0.000 A 
HETATM   17  C   UNL     1       6.791   7.887  89.416  1.00  0.00     0.000 A 
HETATM   18  C   UNL     1       5.810   8.842  89.155  1.00  0.00     0.000 A 
HETATM   19  C   UNL     1       5.378   9.654  90.184  1.00  0.00     0.000 A 
HETATM   20  C   UNL     1       5.885   9.553  91.462  1.00  0.00     0.000 A 
HETATM   21  C   UNL     1       6.867   8.598  91.725  1.00  0.00     0.000 A 
BRANCH  19  22
HETATM   22  C   UNL     1       4.334  10.673  89.904  1.00  0.00     0.000 C 
HETATM   23  O   UNL     1       3.288  10.327  89.362  1.00  0.00     0.000 OA
HETATM   24  N   UNL     1       4.624  11.968  90.312  1.00  0.00     0.000 N 
HETATM   25  HN  UNL     1       5.499  12.175  90.778  1.00  0.00     0.000 HD
BRANCH  24  26
HETATM   26  C   UNL     1       3.703  13.061  90.134  1.00  0.00     0.000 C 
BRANCH  26  27
HETATM   27  C   UNL     1       3.147  13.593  91.462  1.00  0.00     0.000 C 
HETATM   28  C   UNL     1       2.119  12.653  92.082  1.00  0.00     0.000 C 
BRANCH  27  29
HETATM   29  O   UNL     1       4.219  13.782  92.385  1.00  0.00     0.000 OA
HETATM   30  H   UNL     1       4.033  13.255  93.180  1.00  0.00     0.000 HD
ENDBRANCH  27  29
ENDBRANCH  26  27
BRANCH  26  31
HETATM   31  C   UNL     1       4.425  14.157  89.357  1.00  0.00     0.000 C 
HETATM   32  O   UNL     1       4.248  15.355  89.568  1.00  0.00     0.000 OA
BRANCH  31  33
HETATM   33  P   UNL     1       5.252  13.646  88.387  1.00  0.00     0.000 P 
HETATM   34  H   UNL     1       6.016  14.683  87.892  1.00  0.00     0.000 HD
BRANCH  33  35
HETATM   35  O   UNL     1       4.612  13.028  87.303  1.00  0.00     0.000 OA
HETATM   36  H   UNL     1       5.287  13.145  86.612  1.00  0.00     0.000 HD
ENDBRANCH  33  35
ENDBRANCH  31  33
ENDBRANCH  26  31
ENDBRANCH  24  26
ENDBRANCH  19  22
ENDBRANCH  15  16
ENDBRANCH  11  14
ENDBRANCH   7   8
ENDBRANCH   2   7
TORSDOF 11
ENDMDL
