MODEL 1
REMARK VINA RESULT:      -7.0      0.000      0.000
REMARK  10 active torsions:
REMARK  status: ('A' for Active; 'I' for Inactive)
REMARK    1  A    between atoms: O_2  and  C_18 
REMARK    2  A    between atoms: O_5  and  N_8 
REMARK    3  A    between atoms: N_6  and  C_11 
REMARK    4  A    between atoms: N_7  and  C_15 
REMARK       I    between atoms: N_7  and  C_24 
REMARK       I    between atoms: N_8  and  C_23 
REMARK    5  A    between atoms: C_11  and  C_14 
REMARK    6  A    between atoms: C_15  and  C_18 
REMARK    7  A    between atoms: C_15  and  C_23 
REMARK    8  A    between atoms: C_21  and  C_26 
REMARK    9  A    between atoms: C_24  and  C_25 
REMARK   10  A    between atoms: C_29  and  C_32 
ROOT
HETATM    1  O   UNK     0      17.079   4.259  93.876  0.00  0.00    -0.388 OA
HETATM    2  N   UNK     0      14.701   2.766  93.408  0.00  0.00     0.096 N 
HETATM    3  C   UNK     0      16.031   2.182  93.185  0.00  0.00     0.299 C 
HETATM    4  C   UNK     0      14.749   4.219  93.202  0.00  0.00     0.299 C 
HETATM    5  C   UNK     0      17.050   2.849  94.106  0.00  0.00     0.198 C 
HETATM    6  C   UNK     0      15.797   4.839  94.121  0.00  0.00     0.198 C 
ENDROOT
BRANCH   2   7
HETATM    7  C   UNK     0      13.710   2.149  92.528  0.00  0.00     0.311 C 
BRANCH   7   8
HETATM    8  C   UNK     0      12.627   3.096  92.140  0.00  0.00    -0.030 A 
HETATM    9  C   UNK     0      12.546   3.563  90.827  0.00  0.00     0.010 A 
HETATM   10  C   UNK     0      11.534   4.451  90.463  0.00  0.00     0.021 A 
HETATM   11  C   UNK     0      10.602   4.870  91.412  0.00  0.00     0.018 A 
HETATM   12  C   UNK     0      10.681   4.405  92.723  0.00  0.00     0.021 A 
HETATM   13  C   UNK     0      11.694   3.517  93.087  0.00  0.00     0.010 A 
BRANCH  11  14
HETATM   14  C   UNK     0       9.563   5.780  91.038  0.00  0.00    -0.061 C 
HETATM   15  C   UNK     0       8.689   6.544  90.724  0.00  0.00    -0.061 C 
BRANCH  15  16
HETATM   16  C   UNK     0       7.651   7.451  90.350  0.00  0.00     0.018 A 
HETATM   17  C   UNK     0       7.240   7.528  89.018  0.00  0.00     0.022 A 
HETATM   18  C   UNK     0       6.225   8.412  88.653  0.00  0.00     0.018 A 
HETATM   19  C   UNK     0       5.644   9.199  89.625  0.00  0.00     0.032 A 
HETATM   20  C   UNK     0       6.032   9.143  90.947  0.00  0.00     0.018 A 
HETATM   21  C   UNK     0       7.047   8.259  91.313  0.00  0.00     0.022 A 
BRANCH  19  22
HETATM   22  C   UNK     0       4.564  10.142  89.234  0.00  0.00     0.252 C 
HETATM   23  O   UNK     0       3.830   9.857  88.292  0.00  0.00    -0.268 OA
HETATM   24  N   UNK     0       4.454  11.292  90.004  0.00  0.00    -0.341 N 
HETATM   25  H   UNK     0       5.081  11.449  90.784  0.00  0.00     0.163 HD
BRANCH  24  26
HETATM   26  C   UNK     0       3.442  12.291  89.766  0.00  0.00     0.207 C 
BRANCH  26  27
HETATM   27  C   UNK     0       2.911  12.918  91.061  0.00  0.00     0.146 C 
HETATM   28  C   UNK     0       2.299  11.886  92.001  0.00  0.00     0.042 C 
BRANCH  27  29
HETATM   29  O   UNK     0       3.974  13.589  91.737  0.00  0.00    -0.393 OA
HETATM   30  H   UNK     0       4.347  14.255  91.134  0.00  0.00     0.210 HD
ENDBRANCH  27  29
ENDBRANCH  26  27
BRANCH  26  31
HETATM   31  C   UNK     0       4.039  13.347  88.842  0.00  0.00     0.266 C 
HETATM   32  O   UNK     0       4.184  14.522  89.173  0.00  0.00    -0.269 OA
HETATM   33  N   UNK     0       4.351  12.838  87.604  0.00  0.00    -0.236 N 
HETATM   34  H   UNK     0       4.163  11.901  87.269  0.00  0.00     0.197 HD
BRANCH  33  35
HETATM   35  O   UNK     0       4.871  13.756  86.680  0.00  0.00    -0.287 OA
HETATM   36  H   UNK     0       4.454  13.435  85.863  0.00  0.00     0.244 HD
ENDBRANCH  33  35
ENDBRANCH  26  31
ENDBRANCH  24  26
ENDBRANCH  19  22
ENDBRANCH  15  16
ENDBRANCH  11  14
ENDBRANCH   7   8
ENDBRANCH   2   7
TORSDOF 10
ENDMDL
MODEL 2
REMARK VINA RESULT:      -6.7      1.875      2.599
REMARK  10 active torsions:
REMARK  status: ('A' for Active; 'I' for Inactive)
REMARK    1  A    between atoms: O_2  and  C_18 
REMARK    2  A    between atoms: O_5  and  N_8 
REMARK    3  A    between atoms: N_6  and  C_11 
REMARK    4  A    between atoms: N_7  and  C_15 
REMARK       I    between atoms: N_7  and  C_24 
REMARK       I    between atoms: N_8  and  C_23 
REMARK    5  A    between atoms: C_11  and  C_14 
REMARK    6  A    between atoms: C_15  and  C_18 
REMARK    7  A    between atoms: C_15  and  C_23 
REMARK    8  A    between atoms: C_21  and  C_26 
REMARK    9  A    between atoms: C_24  and  C_25 
REMARK   10  A    between atoms: C_29  and  C_32 
ROOT
HETATM    1  O   UNK     0      17.437   4.672  93.742  0.00  0.00    -0.388 OA
HETATM    2  N   UNK     0      15.350   2.737  93.788  0.00  0.00     0.096 N 
HETATM    3  C   UNK     0      16.729   2.371  93.438  0.00  0.00     0.299 C 
HETATM    4  C   UNK     0      15.092   4.136  93.423  0.00  0.00     0.299 C 
HETATM    5  C   UNK     0      17.707   3.322  94.124  0.00  0.00     0.198 C 
HETATM    6  C   UNK     0      16.108   5.046  94.108  0.00  0.00     0.198 C 
ENDROOT
BRANCH   2   7
HETATM    7  C   UNK     0      14.395   1.845  93.133  0.00  0.00     0.311 C 
BRANCH   7   8
HETATM    8  C   UNK     0      13.296   2.589  92.454  0.00  0.00    -0.030 A 
HETATM    9  C   UNK     0      13.548   3.267  91.260  0.00  0.00     0.010 A 
HETATM   10  C   UNK     0      12.522   3.965  90.625  0.00  0.00     0.021 A 
HETATM   11  C   UNK     0      11.244   3.984  91.182  0.00  0.00     0.018 A 
HETATM   12  C   UNK     0      10.991   3.307  92.373  0.00  0.00     0.021 A 
HETATM   13  C   UNK     0      12.017   2.610  93.010  0.00  0.00     0.010 A 
BRANCH  11  14
HETATM   14  C   UNK     0      10.190   4.698  90.528  0.00  0.00    -0.061 C 
HETATM   15  C   UNK     0       9.305   5.299  89.980  0.00  0.00    -0.061 C 
BRANCH  15  16
HETATM   16  C   UNK     0       8.252   6.012  89.328  0.00  0.00     0.018 A 
HETATM   17  C   UNK     0       8.359   6.326  87.972  0.00  0.00     0.022 A 
HETATM   18  C   UNK     0       7.330   7.020  87.335  0.00  0.00     0.018 A 
HETATM   19  C   UNK     0       6.219   7.384  88.066  0.00  0.00     0.032 A 
HETATM   20  C   UNK     0       6.089   7.086  89.406  0.00  0.00     0.018 A 
HETATM   21  C   UNK     0       7.118   6.393  90.044  0.00  0.00     0.022 A 
BRANCH  19  22
HETATM   22  C   UNK     0       5.124   8.125  87.386  0.00  0.00     0.252 C 
HETATM   23  O   UNK     0       5.130   8.213  86.161  0.00  0.00    -0.268 OA
HETATM   24  N   UNK     0       4.143   8.652  88.214  0.00  0.00    -0.341 N 
HETATM   25  H   UNK     0       4.191   8.518  89.217  0.00  0.00     0.163 HD
BRANCH  24  26
HETATM   26  C   UNK     0       3.005   9.375  87.704  0.00  0.00     0.207 C 
BRANCH  26  27
HETATM   27  C   UNK     0       1.669   8.738  88.105  0.00  0.00     0.146 C 
HETATM   28  C   UNK     0       1.413   7.417  87.387  0.00  0.00     0.042 C 
BRANCH  27  29
HETATM   29  O   UNK     0       1.652   8.510  89.514  0.00  0.00    -0.393 OA
HETATM   30  H   UNK     0       2.204   7.733  89.704  0.00  0.00     0.210 HD
ENDBRANCH  27  29
ENDBRANCH  26  27
BRANCH  26  31
HETATM   31  C   UNK     0       3.105  10.813  88.203  0.00  0.00     0.266 C 
HETATM   32  O   UNK     0       2.532  11.212  89.215  0.00  0.00    -0.269 OA
HETATM   33  N   UNK     0       3.869  11.598  87.374  0.00  0.00    -0.236 N 
HETATM   34  H   UNK     0       4.281  11.325  86.489  0.00  0.00     0.197 HD
BRANCH  33  35
HETATM   35  O   UNK     0       3.981  12.946  87.742  0.00  0.00    -0.287 OA
HETATM   36  H   UNK     0       3.346  13.348  87.125  0.00  0.00     0.244 HD
ENDBRANCH  33  35
ENDBRANCH  26  31
ENDBRANCH  24  26
ENDBRANCH  19  22
ENDBRANCH  15  16
ENDBRANCH  11  14
ENDBRANCH   7   8
ENDBRANCH   2   7
TORSDOF 10
ENDMDL
MODEL 3
REMARK VINA RESULT:      -6.6      1.626      2.074
REMARK  10 active torsions:
REMARK  status: ('A' for Active; 'I' for Inactive)
REMARK    1  A    between atoms: O_2  and  C_18 
REMARK    2  A    between atoms: O_5  and  N_8 
REMARK    3  A    between atoms: N_6  and  C_11 
REMARK    4  A    between atoms: N_7  and  C_15 
REMARK       I    between atoms: N_7  and  C_24 
REMARK       I    between atoms: N_8  and  C_23 
REMARK    5  A    between atoms: C_11  and  C_14 
REMARK    6  A    between atoms: C_15  and  C_18 
REMARK    7  A    between atoms: C_15  and  C_23 
REMARK    8  A    between atoms: C_21  and  C_26 
REMARK    9  A    between atoms: C_24  and  C_25 
REMARK   10  A    between atoms: C_29  and  C_32 
ROOT
HETATM    1  O   UNK     0      16.890   3.616  93.876  0.00  0.00    -0.388 OA
HETATM    2  N   UNK     0      14.285   3.047  92.881  0.00  0.00     0.096 N 
HETATM    3  C   UNK     0      15.307   1.998  93.000  0.00  0.00     0.299 C 
HETATM    4  C   UNK     0      14.924   4.350  92.659  0.00  0.00     0.299 C 
HETATM    5  C   UNK     0      16.279   2.348  94.124  0.00  0.00     0.198 C 
HETATM    6  C   UNK     0      15.905   4.646  93.790  0.00  0.00     0.198 C 
ENDROOT
BRANCH   2   7
HETATM    7  C   UNK     0      13.348   2.737  91.803  0.00  0.00     0.311 C 
BRANCH   7   8
HETATM    8  C   UNK     0      12.226   3.716  91.726  0.00  0.00    -0.030 A 
HETATM    9  C   UNK     0      11.544   4.086  92.886  0.00  0.00     0.010 A 
HETATM   10  C   UNK     0      10.493   4.999  92.815  0.00  0.00     0.021 A 
HETATM   11  C   UNK     0      10.125   5.544  91.585  0.00  0.00     0.018 A 
HETATM   12  C   UNK     0      10.806   5.176  90.426  0.00  0.00     0.021 A 
HETATM   13  C   UNK     0      11.857   4.261  90.496  0.00  0.00     0.010 A 
BRANCH  11  14
HETATM   14  C   UNK     0       9.048   6.483  91.513  0.00  0.00    -0.061 C 
HETATM   15  C   UNK     0       8.143   7.272  91.453  0.00  0.00    -0.061 C 
BRANCH  15  16
HETATM   16  C   UNK     0       7.067   8.209  91.382  0.00  0.00     0.018 A 
HETATM   17  C   UNK     0       5.761   7.792  91.647  0.00  0.00     0.022 A 
HETATM   18  C   UNK     0       4.711   8.707  91.579  0.00  0.00     0.018 A 
HETATM   19  C   UNK     0       4.987  10.017  91.249  0.00  0.00     0.032 A 
HETATM   20  C   UNK     0       6.268  10.454  90.982  0.00  0.00     0.018 A 
HETATM   21  C   UNK     0       7.319   9.540  91.049  0.00  0.00     0.022 A 
BRANCH  19  22
HETATM   22  C   UNK     0       3.867  10.990  91.176  0.00  0.00     0.252 C 
HETATM   23  O   UNK     0       2.853  10.692  90.549  0.00  0.00    -0.268 OA
HETATM   24  N   UNK     0       4.052  12.183  91.861  0.00  0.00    -0.341 N 
HETATM   25  H   UNK     0       4.907  12.350  92.379  0.00  0.00     0.163 HD
BRANCH  24  26
HETATM   26  C   UNK     0       3.048  13.216  91.905  0.00  0.00     0.207 C 
BRANCH  26  27
HETATM   27  C   UNK     0       3.108  14.048  93.192  0.00  0.00     0.146 C 
HETATM   28  C   UNK     0       4.402  13.830  93.968  0.00  0.00     0.042 C 
BRANCH  27  29
HETATM   29  O   UNK     0       2.987  15.433  92.871  0.00  0.00    -0.393 OA
HETATM   30  H   UNK     0       2.091  15.724  93.111  0.00  0.00     0.210 HD
ENDBRANCH  27  29
ENDBRANCH  26  27
BRANCH  26  31
HETATM   31  C   UNK     0       3.228  14.093  90.669  0.00  0.00     0.266 C 
HETATM   32  O   UNK     0       2.312  14.347  89.890  0.00  0.00    -0.269 OA
HETATM   33  N   UNK     0       4.525  14.520  90.521  0.00  0.00    -0.236 N 
HETATM   34  H   UNK     0       5.320  14.257  91.092  0.00  0.00     0.197 HD
BRANCH  33  35
HETATM   35  O   UNK     0       4.784  15.302  89.386  0.00  0.00    -0.287 OA
HETATM   36  H   UNK     0       4.038  15.924  89.429  0.00  0.00     0.244 HD
ENDBRANCH  33  35
ENDBRANCH  26  31
ENDBRANCH  24  26
ENDBRANCH  19  22
ENDBRANCH  15  16
ENDBRANCH  11  14
ENDBRANCH   7   8
ENDBRANCH   2   7
TORSDOF 10
ENDMDL
MODEL 4
REMARK VINA RESULT:      -6.2      1.821      2.377
REMARK  10 active torsions:
REMARK  status: ('A' for Active; 'I' for Inactive)
REMARK    1  A    between atoms: O_2  and  C_18 
REMARK    2  A    between atoms: O_5  and  N_8 
REMARK    3  A    between atoms: N_6  and  C_11 
REMARK    4  A    between atoms: N_7  and  C_15 
REMARK       I    between atoms: N_7  and  C_24 
REMARK       I    between atoms: N_8  and  C_23 
REMARK    5  A    between atoms: C_11  and  C_14 
REMARK    6  A    between atoms: C_15  and  C_18 
REMARK    7  A    between atoms: C_15  and  C_23 
REMARK    8  A    between atoms: C_21  and  C_26 
REMARK    9  A    between atoms: C_24  and  C_25 
REMARK   10  A    between atoms: C_29  and  C_32 
ROOT
HETATM    1  O   UNK     0      17.177   3.987  93.783  0.00  0.00    -0.388 OA
HETATM    2  N   UNK     0      14.524   2.965  93.640  0.00  0.00     0.096 N 
HETATM    3  C   UNK     0      15.688   2.127  93.321  0.00  0.00     0.299 C 
HETATM    4  C   UNK     0      14.822   4.373  93.346  0.00  0.00     0.299 C 
HETATM    5  C   UNK     0      16.908   2.619  94.096  0.00  0.00     0.198 C 
HETATM    6  C   UNK     0      16.061   4.813  94.119  0.00  0.00     0.198 C 
ENDROOT
BRANCH   2   7
HETATM    7  C   UNK     0      13.346   2.517  92.900  0.00  0.00     0.311 C 
BRANCH   7   8
HETATM    8  C   UNK     0      12.283   3.561  92.838  0.00  0.00    -0.030 A 
HETATM    9  C   UNK     0      11.769   4.103  94.017  0.00  0.00     0.010 A 
HETATM   10  C   UNK     0      10.774   5.078  93.960  0.00  0.00     0.021 A 
HETATM   11  C   UNK     0      10.295   5.513  92.725  0.00  0.00     0.018 A 
HETATM   12  C   UNK     0      10.808   4.973  91.547  0.00  0.00     0.021 A 
HETATM   13  C   UNK     0      11.803   3.997  91.604  0.00  0.00     0.010 A 
BRANCH  11  14
HETATM   14  C   UNK     0       9.275   6.515  92.667  0.00  0.00    -0.061 C 
HETATM   15  C   UNK     0       8.419   7.358  92.618  0.00  0.00    -0.061 C 
BRANCH  15  16
HETATM   16  C   UNK     0       7.402   8.359  92.561  0.00  0.00     0.018 A 
HETATM   17  C   UNK     0       7.668   9.590  91.960  0.00  0.00     0.022 A 
HETATM   18  C   UNK     0       6.675  10.567  91.902  0.00  0.00     0.018 A 
HETATM   19  C   UNK     0       5.437  10.293  92.446  0.00  0.00     0.032 A 
HETATM   20  C   UNK     0       5.148   9.085  93.046  0.00  0.00     0.018 A 
HETATM   21  C   UNK     0       6.142   8.108  93.104  0.00  0.00     0.022 A 
BRANCH  19  22
HETATM   22  C   UNK     0       4.380  11.335  92.386  0.00  0.00     0.252 C 
HETATM   23  O   UNK     0       3.380  11.216  93.090  0.00  0.00    -0.268 OA
HETATM   24  N   UNK     0       4.625  12.401  91.532  0.00  0.00    -0.341 N 
HETATM   25  H   UNK     0       5.486  12.444  90.999  0.00  0.00     0.163 HD
BRANCH  24  26
HETATM   26  C   UNK     0       3.707  13.502  91.382  0.00  0.00     0.207 C 
BRANCH  26  27
HETATM   27  C   UNK     0       4.260  14.817  91.946  0.00  0.00     0.146 C 
HETATM   28  C   UNK     0       5.042  15.614  90.908  0.00  0.00     0.042 C 
BRANCH  27  29
HETATM   29  O   UNK     0       3.183  15.618  92.431  0.00  0.00    -0.393 OA
HETATM   30  H   UNK     0       2.401  15.444  91.880  0.00  0.00     0.210 HD
ENDBRANCH  27  29
ENDBRANCH  26  27
BRANCH  26  31
HETATM   31  C   UNK     0       3.372  13.631  89.900  0.00  0.00     0.266 C 
HETATM   32  O   UNK     0       2.456  14.335  89.479  0.00  0.00    -0.269 OA
HETATM   33  N   UNK     0       4.182  12.847  89.115  0.00  0.00    -0.236 N 
HETATM   34  H   UNK     0       4.884  12.189  89.434  0.00  0.00     0.197 HD
BRANCH  33  35
HETATM   35  O   UNK     0       3.914  12.879  87.739  0.00  0.00    -0.287 OA
HETATM   36  H   UNK     0       3.012  13.241  87.745  0.00  0.00     0.244 HD
ENDBRANCH  33  35
ENDBRANCH  26  31
ENDBRANCH  24  26
ENDBRANCH  19  22
ENDBRANCH  15  16
ENDBRANCH  11  14
ENDBRANCH   7   8
ENDBRANCH   2   7
TORSDOF 10
ENDMDL
MODEL 5
REMARK VINA RESULT:      -5.6      1.865      2.996
REMARK  10 active torsions:
REMARK  status: ('A' for Active; 'I' for Inactive)
REMARK    1  A    between atoms: O_2  and  C_18 
REMARK    2  A    between atoms: O_5  and  N_8 
REMARK    3  A    between atoms: N_6  and  C_11 
REMARK    4  A    between atoms: N_7  and  C_15 
REMARK       I    between atoms: N_7  and  C_24 
REMARK       I    between atoms: N_8  and  C_23 
REMARK    5  A    between atoms: C_11  and  C_14 
REMARK    6  A    between atoms: C_15  and  C_18 
REMARK    7  A    between atoms: C_15  and  C_23 
REMARK    8  A    between atoms: C_21  and  C_26 
REMARK    9  A    between atoms: C_24  and  C_25 
REMARK   10  A    between atoms: C_29  and  C_32 
ROOT
HETATM    1  O   UNK     0      15.766   4.248  93.186  0.00  0.00    -0.388 OA
HETATM    2  N   UNK     0      13.690   2.531  92.267  0.00  0.00     0.096 N 
HETATM    3  C   UNK     0      13.795   3.923  91.807  0.00  0.00     0.299 C 
HETATM    4  C   UNK     0      14.249   2.404  93.619  0.00  0.00     0.299 C 
HETATM    5  C   UNK     0      15.253   4.375  91.859  0.00  0.00     0.198 C 
HETATM    6  C   UNK     0      15.695   2.892  93.629  0.00  0.00     0.198 C 
ENDROOT
BRANCH   2   7
HETATM    7  C   UNK     0      12.299   2.080  92.236  0.00  0.00     0.311 C 
BRANCH   7   8
HETATM    8  C   UNK     0      11.338   3.211  92.093  0.00  0.00    -0.030 A 
HETATM    9  C   UNK     0      11.162   4.112  93.143  0.00  0.00     0.010 A 
HETATM   10  C   UNK     0      10.261   5.169  93.011  0.00  0.00     0.021 A 
HETATM   11  C   UNK     0       9.540   5.325  91.828  0.00  0.00     0.018 A 
HETATM   12  C   UNK     0       9.716   4.426  90.778  0.00  0.00     0.021 A 
HETATM   13  C   UNK     0      10.615   3.368  90.910  0.00  0.00     0.010 A 
BRANCH  11  14
HETATM   14  C   UNK     0       8.618   6.411  91.691  0.00  0.00    -0.061 C 
HETATM   15  C   UNK     0       7.843   7.323  91.576  0.00  0.00    -0.061 C 
BRANCH  15  16
HETATM   16  C   UNK     0       6.924   8.408  91.441  0.00  0.00     0.018 A 
HETATM   17  C   UNK     0       5.554   8.183  91.590  0.00  0.00     0.022 A 
HETATM   18  C   UNK     0       4.656   9.243  91.459  0.00  0.00     0.018 A 
HETATM   19  C   UNK     0       5.146  10.502  91.184  0.00  0.00     0.032 A 
HETATM   20  C   UNK     0       6.494  10.751  91.032  0.00  0.00     0.018 A 
HETATM   21  C   UNK     0       7.393   9.692  91.162  0.00  0.00     0.022 A 
BRANCH  19  22
HETATM   22  C   UNK     0       4.189  11.630  91.044  0.00  0.00     0.252 C 
HETATM   23  O   UNK     0       3.066  11.411  90.595  0.00  0.00    -0.268 OA
HETATM   24  N   UNK     0       4.645  12.871  91.466  0.00  0.00    -0.341 N 
HETATM   25  H   UNK     0       5.577  12.971  91.850  0.00  0.00     0.163 HD
BRANCH  24  26
HETATM   26  C   UNK     0       3.827  14.056  91.416  0.00  0.00     0.207 C 
BRANCH  26  27
HETATM   27  C   UNK     0       3.660  14.603  89.993  0.00  0.00     0.146 C 
HETATM   28  C   UNK     0       4.989  14.728  89.256  0.00  0.00     0.042 C 
BRANCH  27  29
HETATM   29  O   UNK     0       2.797  13.743  89.249  0.00  0.00    -0.393 OA
HETATM   30  H   UNK     0       3.155  12.841  89.291  0.00  0.00     0.210 HD
ENDBRANCH  27  29
ENDBRANCH  26  27
BRANCH  26  31
HETATM   31  C   UNK     0       2.478  13.717  92.041  0.00  0.00     0.266 C 
HETATM   32  O   UNK     0       1.405  14.055  91.544  0.00  0.00    -0.269 OA
HETATM   33  N   UNK     0       2.611  13.035  93.226  0.00  0.00    -0.236 N 
HETATM   34  H   UNK     0       3.477  12.820  93.708  0.00  0.00     0.197 HD
BRANCH  33  35
HETATM   35  O   UNK     0       1.416  12.718  93.886  0.00  0.00    -0.287 OA
HETATM   36  H   UNK     0       1.745  12.593  94.793  0.00  0.00     0.244 HD
ENDBRANCH  33  35
ENDBRANCH  26  31
ENDBRANCH  24  26
ENDBRANCH  19  22
ENDBRANCH  15  16
ENDBRANCH  11  14
ENDBRANCH   7   8
ENDBRANCH   2   7
TORSDOF 10
ENDMDL
MODEL 6
REMARK VINA RESULT:      -5.4      2.888     12.284
REMARK  10 active torsions:
REMARK  status: ('A' for Active; 'I' for Inactive)
REMARK    1  A    between atoms: O_2  and  C_18 
REMARK    2  A    between atoms: O_5  and  N_8 
REMARK    3  A    between atoms: N_6  and  C_11 
REMARK    4  A    between atoms: N_7  and  C_15 
REMARK       I    between atoms: N_7  and  C_24 
REMARK       I    between atoms: N_8  and  C_23 
REMARK    5  A    between atoms: C_11  and  C_14 
REMARK    6  A    between atoms: C_15  and  C_18 
REMARK    7  A    between atoms: C_15  and  C_23 
REMARK    8  A    between atoms: C_21  and  C_26 
REMARK    9  A    between atoms: C_24  and  C_25 
REMARK   10  A    between atoms: C_29  and  C_32 
ROOT
HETATM    1  O   UNK     0       3.184  14.902  93.937  0.00  0.00    -0.388 OA
HETATM    2  N   UNK     0       2.734  14.679  91.135  0.00  0.00     0.096 N 
HETATM    3  C   UNK     0       1.865  14.004  92.109  0.00  0.00     0.299 C 
HETATM    4  C   UNK     0       4.087  14.827  91.686  0.00  0.00     0.299 C 
HETATM    5  C   UNK     0       1.857  14.783  93.422  0.00  0.00     0.198 C 
HETATM    6  C   UNK     0       4.028  15.585  93.009  0.00  0.00     0.198 C 
ENDROOT
BRANCH   2   7
HETATM    7  C   UNK     0       2.765  13.944  89.872  0.00  0.00     0.311 C 
BRANCH   7   8
HETATM    8  C   UNK     0       3.782  12.855  89.874  0.00  0.00    -0.030 A 
HETATM    9  C   UNK     0       5.042  13.077  89.316  0.00  0.00     0.010 A 
HETATM   10  C   UNK     0       5.993  12.057  89.315  0.00  0.00     0.021 A 
HETATM   11  C   UNK     0       5.686  10.817  89.874  0.00  0.00     0.018 A 
HETATM   12  C   UNK     0       4.429  10.594  90.431  0.00  0.00     0.021 A 
HETATM   13  C   UNK     0       3.476  11.613  90.432  0.00  0.00     0.010 A 
BRANCH  11  14
HETATM   14  C   UNK     0       6.663   9.772  89.875  0.00  0.00    -0.061 C 
HETATM   15  C   UNK     0       7.485   8.894  89.875  0.00  0.00    -0.061 C 
BRANCH  15  16
HETATM   16  C   UNK     0       8.460   7.850  89.875  0.00  0.00     0.018 A 
HETATM   17  C   UNK     0       9.008   7.409  88.670  0.00  0.00     0.022 A 
HETATM   18  C   UNK     0       9.962   6.391  88.669  0.00  0.00     0.018 A 
HETATM   19  C   UNK     0      10.347   5.837  89.873  0.00  0.00     0.032 A 
HETATM   20  C   UNK     0       9.820   6.255  91.077  0.00  0.00     0.018 A 
HETATM   21  C   UNK     0       8.866   7.273  91.078  0.00  0.00     0.022 A 
BRANCH  19  22
HETATM   22  C   UNK     0      11.361   4.752  89.871  0.00  0.00     0.252 C 
HETATM   23  O   UNK     0      11.614   4.168  88.820  0.00  0.00    -0.268 OA
HETATM   24  N   UNK     0      11.976   4.493  91.088  0.00  0.00    -0.341 N 
HETATM   25  H   UNK     0      11.734   5.034  91.911  0.00  0.00     0.163 HD
BRANCH  24  26
HETATM   26  C   UNK     0      12.997   3.488  91.243  0.00  0.00     0.207 C 
BRANCH  26  27
HETATM   27  C   UNK     0      14.232   4.006  91.992  0.00  0.00     0.146 C 
HETATM   28  C   UNK     0      14.020   4.060  93.500  0.00  0.00     0.042 C 
BRANCH  27  29
HETATM   29  O   UNK     0      15.349   3.164  91.710  0.00  0.00    -0.393 OA
HETATM   30  H   UNK     0      15.171   2.286  92.086  0.00  0.00     0.210 HD
ENDBRANCH  27  29
ENDBRANCH  26  27
BRANCH  26  31
HETATM   31  C   UNK     0      12.372   2.297  91.962  0.00  0.00     0.266 C 
HETATM   32  O   UNK     0      13.007   1.286  92.260  0.00  0.00    -0.269 OA
HETATM   33  N   UNK     0      11.030   2.476  92.195  0.00  0.00    -0.236 N 
HETATM   34  H   UNK     0      10.460   3.254  91.885  0.00  0.00     0.197 HD
BRANCH  33  35
HETATM   35  O   UNK     0      10.371   1.408  92.820  0.00  0.00    -0.287 OA
HETATM   36  H   UNK     0       9.730   1.894  93.366  0.00  0.00     0.244 HD
ENDBRANCH  33  35
ENDBRANCH  26  31
ENDBRANCH  24  26
ENDBRANCH  19  22
ENDBRANCH  15  16
ENDBRANCH  11  14
ENDBRANCH   7   8
ENDBRANCH   2   7
TORSDOF 10
ENDMDL
MODEL 7
REMARK VINA RESULT:      -5.1      1.602      2.320
REMARK  10 active torsions:
REMARK  status: ('A' for Active; 'I' for Inactive)
REMARK    1  A    between atoms: O_2  and  C_18 
REMARK    2  A    between atoms: O_5  and  N_8 
REMARK    3  A    between atoms: N_6  and  C_11 
REMARK    4  A    between atoms: N_7  and  C_15 
REMARK       I    between atoms: N_7  and  C_24 
REMARK       I    between atoms: N_8  and  C_23 
REMARK    5  A    between atoms: C_11  and  C_14 
REMARK    6  A    between atoms: C_15  and  C_18 
REMARK    7  A    between atoms: C_15  and  C_23 
REMARK    8  A    between atoms: C_21  and  C_26 
REMARK    9  A    between atoms: C_24  and  C_25 
REMARK   10  A    between atoms: C_29  and  C_32 
ROOT
HETATM    1  O   UNK     0      17.433   4.503  93.516  0.00  0.00    -0.388 OA
HETATM    2  N   UNK     0      15.304   2.614  93.566  0.00  0.00     0.096 N 
HETATM    3  C   UNK     0      16.605   2.289  92.966  0.00  0.00     0.299 C 
HETATM    4  C   UNK     0      15.049   4.057  93.462  0.00  0.00     0.299 C 
HETATM    5  C   UNK     0      17.705   3.105  93.640  0.00  0.00     0.198 C 
HETATM    6  C   UNK     0      16.184   4.833  94.124  0.00  0.00     0.198 C 
ENDROOT
BRANCH   2   7
HETATM    7  C   UNK     0      14.234   1.850  92.927  0.00  0.00     0.311 C 
BRANCH   7   8
HETATM    8  C   UNK     0      13.135   2.723  92.425  0.00  0.00    -0.030 A 
HETATM    9  C   UNK     0      13.271   3.380  91.201  0.00  0.00     0.010 A 
HETATM   10  C   UNK     0      12.245   4.199  90.731  0.00  0.00     0.021 A 
HETATM   11  C   UNK     0      11.082   4.358  91.483  0.00  0.00     0.018 A 
HETATM   12  C   UNK     0      10.944   3.703  92.705  0.00  0.00     0.021 A 
HETATM   13  C   UNK     0      11.971   2.885  93.176  0.00  0.00     0.010 A 
BRANCH  11  14
HETATM   14  C   UNK     0      10.027   5.196  91.000  0.00  0.00    -0.061 C 
HETATM   15  C   UNK     0       9.142   5.901  90.594  0.00  0.00    -0.061 C 
BRANCH  15  16
HETATM   16  C   UNK     0       8.088   6.736  90.111  0.00  0.00     0.018 A 
HETATM   17  C   UNK     0       7.798   6.772  88.746  0.00  0.00     0.022 A 
HETATM   18  C   UNK     0       6.768   7.586  88.274  0.00  0.00     0.018 A 
HETATM   19  C   UNK     0       6.052   8.346  89.176  0.00  0.00     0.032 A 
HETATM   20  C   UNK     0       6.320   8.329  90.529  0.00  0.00     0.018 A 
HETATM   21  C   UNK     0       7.350   7.515  91.001  0.00  0.00     0.022 A 
BRANCH  19  22
HETATM   22  C   UNK     0       4.957   9.215  88.672  0.00  0.00     0.252 C 
HETATM   23  O   UNK     0       4.782   9.317  87.461  0.00  0.00    -0.268 OA
HETATM   24  N   UNK     0       4.183   9.839  89.640  0.00  0.00    -0.341 N 
HETATM   25  H   UNK     0       4.371   9.688  90.624  0.00  0.00     0.163 HD
BRANCH  24  26
HETATM   26  C   UNK     0       3.069  10.693  89.311  0.00  0.00     0.207 C 
BRANCH  26  27
HETATM   27  C   UNK     0       3.509  12.072  88.802  0.00  0.00     0.146 C 
HETATM   28  C   UNK     0       4.649  12.661  89.625  0.00  0.00     0.042 C 
BRANCH  27  29
HETATM   29  O   UNK     0       3.925  11.968  87.441  0.00  0.00    -0.393 OA
HETATM   30  H   UNK     0       4.492  12.731  87.236  0.00  0.00     0.210 HD
ENDBRANCH  27  29
ENDBRANCH  26  27
BRANCH  26  31
HETATM   31  C   UNK     0       2.216   9.967  88.276  0.00  0.00     0.266 C 
HETATM   32  O   UNK     0       1.624  10.548  87.368  0.00  0.00    -0.269 OA
HETATM   33  N   UNK     0       2.161   8.613  88.506  0.00  0.00    -0.236 N 
HETATM   34  H   UNK     0       2.561   8.115  89.293  0.00  0.00     0.197 HD
BRANCH  33  35
HETATM   35  O   UNK     0       1.363   7.875  87.620  0.00  0.00    -0.287 OA
HETATM   36  H   UNK     0       0.496   7.962  88.053  0.00  0.00     0.244 HD
ENDBRANCH  33  35
ENDBRANCH  26  31
ENDBRANCH  24  26
ENDBRANCH  19  22
ENDBRANCH  15  16
ENDBRANCH  11  14
ENDBRANCH   7   8
ENDBRANCH   2   7
TORSDOF 10
ENDMDL
MODEL 8
REMARK VINA RESULT:      -5.1      2.025     12.508
REMARK  10 active torsions:
REMARK  status: ('A' for Active; 'I' for Inactive)
REMARK    1  A    between atoms: O_2  and  C_18 
REMARK    2  A    between atoms: O_5  and  N_8 
REMARK    3  A    between atoms: N_6  and  C_11 
REMARK    4  A    between atoms: N_7  and  C_15 
REMARK       I    between atoms: N_7  and  C_24 
REMARK       I    between atoms: N_8  and  C_23 
REMARK    5  A    between atoms: C_11  and  C_14 
REMARK    6  A    between atoms: C_15  and  C_18 
REMARK    7  A    between atoms: C_15  and  C_23 
REMARK    8  A    between atoms: C_21  and  C_26 
REMARK    9  A    between atoms: C_24  and  C_25 
REMARK   10  A    between atoms: C_29  and  C_32 
ROOT
HETATM    1  O   UNK     0       3.453  14.397  92.180  0.00  0.00    -0.388 OA
HETATM    2  N   UNK     0       3.813  13.690  89.446  0.00  0.00     0.096 N 
HETATM    3  C   UNK     0       2.828  13.003  90.294  0.00  0.00     0.299 C 
HETATM    4  C   UNK     0       4.929  14.179  90.267  0.00  0.00     0.299 C 
HETATM    5  C   UNK     0       2.348  13.945  91.395  0.00  0.00     0.198 C 
HETATM    6  C   UNK     0       4.400  15.093  91.369  0.00  0.00     0.198 C 
ENDROOT
BRANCH   2   7
HETATM    7  C   UNK     0       4.295  12.802  88.390  0.00  0.00     0.311 C 
BRANCH   7   8
HETATM    8  C   UNK     0       5.181  11.724  88.914  0.00  0.00    -0.030 A 
HETATM    9  C   UNK     0       6.556  11.939  89.013  0.00  0.00     0.010 A 
HETATM   10  C   UNK     0       7.386  10.931  89.502  0.00  0.00     0.021 A 
HETATM   11  C   UNK     0       6.841   9.708  89.893  0.00  0.00     0.018 A 
HETATM   12  C   UNK     0       5.468   9.493  89.795  0.00  0.00     0.021 A 
HETATM   13  C   UNK     0       4.637  10.501  89.305  0.00  0.00     0.010 A 
BRANCH  11  14
HETATM   14  C   UNK     0       7.692   8.674  90.396  0.00  0.00    -0.061 C 
HETATM   15  C   UNK     0       8.408   7.805  90.818  0.00  0.00    -0.061 C 
BRANCH  15  16
HETATM   16  C   UNK     0       9.257   6.773  91.322  0.00  0.00     0.018 A 
HETATM   17  C   UNK     0       9.970   5.963  90.436  0.00  0.00     0.022 A 
HETATM   18  C   UNK     0      10.801   4.956  90.927  0.00  0.00     0.018 A 
HETATM   19  C   UNK     0      10.902   4.781  92.292  0.00  0.00     0.032 A 
HETATM   20  C   UNK     0      10.208   5.567  93.188  0.00  0.00     0.018 A 
HETATM   21  C   UNK     0       9.376   6.574  92.697  0.00  0.00     0.022 A 
BRANCH  19  22
HETATM   22  C   UNK     0      11.786   3.707  92.814  0.00  0.00     0.252 C 
HETATM   23  O   UNK     0      11.355   2.559  92.887  0.00  0.00    -0.268 OA
HETATM   24  N   UNK     0      13.071   4.095  93.166  0.00  0.00    -0.341 N 
HETATM   25  H   UNK     0      13.364   5.059  93.055  0.00  0.00     0.163 HD
BRANCH  24  26
HETATM   26  C   UNK     0      14.052   3.166  93.665  0.00  0.00     0.207 C 
BRANCH  26  27
HETATM   27  C   UNK     0      14.171   1.906  92.799  0.00  0.00     0.146 C 
HETATM   28  C   UNK     0      15.007   2.136  91.545  0.00  0.00     0.042 C 
BRANCH  27  29
HETATM   29  O   UNK     0      14.761   0.855  93.563  0.00  0.00    -0.393 OA
HETATM   30  H   UNK     0      14.376   0.011  93.271  0.00  0.00     0.210 HD
ENDBRANCH  27  29
ENDBRANCH  26  27
BRANCH  26  31
HETATM   31  C   UNK     0      15.385   3.901  93.759  0.00  0.00     0.266 C 
HETATM   32  O   UNK     0      15.499   5.109  93.559  0.00  0.00    -0.269 OA
HETATM   33  N   UNK     0      16.426   3.054  94.053  0.00  0.00    -0.236 N 
HETATM   34  H   UNK     0      16.382   2.045  94.136  0.00  0.00     0.197 HD
BRANCH  33  35
HETATM   35  O   UNK     0      17.695   3.647  94.120  0.00  0.00    -0.287 OA
HETATM   36  H   UNK     0      17.755   4.031  93.229  0.00  0.00     0.244 HD
ENDBRANCH  33  35
ENDBRANCH  26  31
ENDBRANCH  24  26
ENDBRANCH  19  22
ENDBRANCH  15  16
ENDBRANCH  11  14
ENDBRANCH   7   8
ENDBRANCH   2   7
TORSDOF 10
ENDMDL
MODEL 9
REMARK VINA RESULT:      -4.9      1.728      2.354
REMARK  10 active torsions:
REMARK  status: ('A' for Active; 'I' for Inactive)
REMARK    1  A    between atoms: O_2  and  C_18 
REMARK    2  A    between atoms: O_5  and  N_8 
REMARK    3  A    between atoms: N_6  and  C_11 
REMARK    4  A    between atoms: N_7  and  C_15 
REMARK       I    between atoms: N_7  and  C_24 
REMARK       I    between atoms: N_8  and  C_23 
REMARK    5  A    between atoms: C_11  and  C_14 
REMARK    6  A    between atoms: C_15  and  C_18 
REMARK    7  A    between atoms: C_15  and  C_23 
REMARK    8  A    between atoms: C_21  and  C_26 
REMARK    9  A    between atoms: C_24  and  C_25 
REMARK   10  A    between atoms: C_29  and  C_32 
ROOT
HETATM    1  O   UNK     0      16.079   3.847  93.067  0.00  0.00    -0.388 OA
HETATM    2  N   UNK     0      13.916   2.074  92.538  0.00  0.00     0.096 N 
HETATM    3  C   UNK     0      14.821   2.520  91.471  0.00  0.00     0.299 C 
HETATM    4  C   UNK     0      13.830   3.099  93.587  0.00  0.00     0.299 C 
HETATM    5  C   UNK     0      16.193   2.842  92.058  0.00  0.00     0.198 C 
HETATM    6  C   UNK     0      15.224   3.408  94.124  0.00  0.00     0.198 C 
ENDROOT
BRANCH   2   7
HETATM    7  C   UNK     0      12.591   1.770  92.000  0.00  0.00     0.311 C 
BRANCH   7   8
HETATM    8  C   UNK     0      11.808   3.000  91.689  0.00  0.00    -0.030 A 
HETATM    9  C   UNK     0      12.330   3.957  90.818  0.00  0.00     0.010 A 
HETATM   10  C   UNK     0      11.600   5.109  90.528  0.00  0.00     0.021 A 
HETATM   11  C   UNK     0      10.347   5.302  91.108  0.00  0.00     0.018 A 
HETATM   12  C   UNK     0       9.824   4.348  91.978  0.00  0.00     0.021 A 
HETATM   13  C   UNK     0      10.554   3.196  92.268  0.00  0.00     0.010 A 
BRANCH  11  14
HETATM   14  C   UNK     0       9.596   6.483  90.809  0.00  0.00    -0.061 C 
HETATM   15  C   UNK     0       8.965   7.476  90.558  0.00  0.00    -0.061 C 
BRANCH  15  16
HETATM   16  C   UNK     0       8.215   8.654  90.258  0.00  0.00     0.018 A 
HETATM   17  C   UNK     0       7.041   8.931  90.960  0.00  0.00     0.022 A 
HETATM   18  C   UNK     0       6.310  10.082  90.670  0.00  0.00     0.018 A 
HETATM   19  C   UNK     0       6.769  10.932  89.685  0.00  0.00     0.032 A 
HETATM   20  C   UNK     0       7.925  10.682  88.976  0.00  0.00     0.018 A 
HETATM   21  C   UNK     0       8.656   9.530  89.266  0.00  0.00     0.022 A 
BRANCH  19  22
HETATM   22  C   UNK     0       5.988  12.158  89.374  0.00  0.00     0.252 C 
HETATM   23  O   UNK     0       6.290  12.827  88.389  0.00  0.00    -0.268 OA
HETATM   24  N   UNK     0       4.935  12.442  90.233  0.00  0.00    -0.341 N 
HETATM   25  H   UNK     0       4.730  11.829  91.012  0.00  0.00     0.163 HD
BRANCH  24  26
HETATM   26  C   UNK     0       4.072  13.581  90.050  0.00  0.00     0.207 C 
BRANCH  26  27
HETATM   27  C   UNK     0       2.595  13.253  90.305  0.00  0.00     0.146 C 
HETATM   28  C   UNK     0       2.387  12.457  91.588  0.00  0.00     0.042 C 
BRANCH  27  29
HETATM   29  O   UNK     0       1.844  14.464  90.384  0.00  0.00    -0.393 OA
HETATM   30  H   UNK     0       0.899  14.239  90.365  0.00  0.00     0.210 HD
ENDBRANCH  27  29
ENDBRANCH  26  27
BRANCH  26  31
HETATM   31  C   UNK     0       4.561  14.690  90.976  0.00  0.00     0.266 C 
HETATM   32  O   UNK     0       5.261  15.625  90.589  0.00  0.00    -0.269 OA
HETATM   33  N   UNK     0       4.162  14.495  92.276  0.00  0.00    -0.236 N 
HETATM   34  H   UNK     0       3.663  13.694  92.643  0.00  0.00     0.197 HD
BRANCH  33  35
HETATM   35  O   UNK     0       4.604  15.453  93.200  0.00  0.00    -0.287 OA
HETATM   36  H   UNK     0       5.553  15.476  92.987  0.00  0.00     0.244 HD
ENDBRANCH  33  35
ENDBRANCH  26  31
ENDBRANCH  24  26
ENDBRANCH  19  22
ENDBRANCH  15  16
ENDBRANCH  11  14
ENDBRANCH   7   8
ENDBRANCH   2   7
TORSDOF 10
ENDMDL
