MODEL 1
REMARK VINA RESULT:      -5.6      0.000      0.000
REMARK  12 active torsions:
REMARK  status: ('A' for Active; 'I' for Inactive)
REMARK    1  A    between atoms: O_2  and  C_16 
REMARK    2  A    between atoms: N_5  and  C_9 
REMARK    3  A    between atoms: N_6  and  C_13 
REMARK       I    between atoms: N_6  and  C_22 
REMARK    4  A    between atoms: C_9  and  C_12 
REMARK    5  A    between atoms: C_13  and  C_16 
REMARK    6  A    between atoms: C_13  and  C_21 
REMARK    7  A    between atoms: C_19  and  C_24 
REMARK    8  A    between atoms: C_21  and  C_33 
REMARK    9  A    between atoms: C_22  and  C_23 
REMARK   10  A    between atoms: C_27  and  C_30 
REMARK   11  A    between atoms: C_33  and  C_34 
REMARK   12  A    between atoms: C_34  and  C_35 
ROOT
HETATM    1  O   UNL     1      17.338   4.777  93.383  1.00  0.00    -0.350 OA
HETATM    2  N   UNL     1      15.308   2.923  94.124  1.00  0.00     0.147 N 
HETATM    3  C   UNL     1      16.506   2.497  93.388  1.00  0.00     0.283 C 
HETATM    4  C   UNL     1      14.992   4.322  93.803  1.00  0.00     0.283 C 
HETATM    5  C   UNL     1      17.672   3.427  93.713  1.00  0.00     0.178 C 
HETATM    6  C   UNL     1      16.192   5.209  94.118  1.00  0.00     0.178 C 
ENDROOT
BRANCH   2   7
HETATM    7  C   UNL     1      14.175   2.051  93.819  1.00  0.00     0.277 C 
BRANCH   7   8
HETATM    8  C   UNL     1      13.114   2.751  93.040  1.00  0.00     0.011 A 
HETATM    9  C   UNL     1      12.067   3.389  93.707  1.00  0.00    -0.002 A 
HETATM   10  C   UNL     1      11.073   4.042  92.979  1.00  0.00     0.008 A 
HETATM   11  C   UNL     1      11.126   4.058  91.586  1.00  0.00     0.042 A 
HETATM   12  C   UNL     1      12.170   3.421  90.919  1.00  0.00     0.008 A 
HETATM   13  C   UNL     1      13.165   2.767  91.646  1.00  0.00    -0.002 A 
BRANCH  11  14
HETATM   14  C   UNL     1      10.106   4.729  90.840  1.00  0.00    -0.059 C 
HETATM   15  C   UNL     1       9.249   5.294  90.213  1.00  0.00    -0.059 C 
BRANCH  15  16
HETATM   16  C   UNL     1       8.231   5.966  89.468  1.00  0.00     0.042 A 
HETATM   17  C   UNL     1       8.582   6.819  88.421  1.00  0.00     0.008 A 
HETATM   18  C   UNL     1       7.589   7.473  87.692  1.00  0.00     0.005 A 
HETATM   19  C   UNL     1       6.267   7.258  88.025  1.00  0.00     0.056 A 
HETATM   20  C   UNL     1       5.895   6.420  89.055  1.00  0.00     0.005 A 
HETATM   21  C   UNL     1       6.888   5.766  89.785  1.00  0.00     0.008 A 
BRANCH  19  22
HETATM   22  C   UNL     1       5.209   7.956  87.250  1.00  0.00     0.254 C 
HETATM   23  O   UNL     1       5.326   8.055  86.031  1.00  0.00    -0.268 OA
HETATM   24  N   UNL     1       4.132   8.432  87.983  1.00  0.00    -0.335 N 
HETATM   25  HN  UNL     1       4.092   8.291  88.986  1.00  0.00     0.164 HD
BRANCH  24  26
HETATM   26  C   UNL     1       3.016   9.108  87.373  1.00  0.00     0.166 C 
BRANCH  26  27
HETATM   27  C   UNL     1       1.664   8.502  87.771  1.00  0.00     0.138 C 
HETATM   28  C   UNL     1       1.491   7.076  87.260  1.00  0.00     0.034 C 
BRANCH  27  29
HETATM   29  O   UNL     1       1.541   8.503  89.193  1.00  0.00    -0.383 OA
HETATM   30  H   UNL     1       2.134   9.186  89.549  1.00  0.00     0.210 HD
ENDBRANCH  27  29
ENDBRANCH  26  27
BRANCH  26  31
HETATM   31  C   UNL     1       3.097  10.582  87.757  1.00  0.00     0.181 C 
HETATM   32  O   UNL     1       2.104  11.295  87.891  1.00  0.00    -0.294 OA
BRANCH  31  33
HETATM   33  C   UNL     1       4.000  10.809  89.083  1.00  0.00     0.138 C 
BRANCH  33  34
HETATM   34  C   UNL     1       4.091  12.219  89.114  1.00  0.00     0.208 C 
HETATM   35  O   UNL     1       3.591  12.764  90.071  1.00  0.00    -0.289 OA
BRANCH  34  36
HETATM   36  C   UNL     1       4.890  13.072  88.403  1.00  0.00     0.194 C 
HETATM   37  O   UNL     1       5.130  14.440  88.574  1.00  0.00    -0.185 OA
ENDBRANCH  34  36
ENDBRANCH  33  34
ENDBRANCH  31  33
ENDBRANCH  26  31
ENDBRANCH  24  26
ENDBRANCH  19  22
ENDBRANCH  15  16
ENDBRANCH  11  14
ENDBRANCH   7   8
ENDBRANCH   2   7
TORSDOF 12
ENDMDL
