MODEL 1
REMARK VINA RESULT:      -5.9      0.000      0.000
REMARK  12 active torsions:
REMARK  status: ('A' for Active; 'I' for Inactive)
REMARK    1  A    between atoms: O_2  and  C_16 
REMARK    2  A    between atoms: N_5  and  C_9 
REMARK    3  A    between atoms: N_6  and  C_13 
REMARK       I    between atoms: N_6  and  C_22 
REMARK    4  A    between atoms: C_9  and  C_12 
REMARK    5  A    between atoms: C_13  and  C_16 
REMARK    6  A    between atoms: C_13  and  C_21 
REMARK    7  A    between atoms: C_19  and  C_24 
REMARK    8  A    between atoms: C_21  and  C_33 
REMARK    9  A    between atoms: C_22  and  C_23 
REMARK   10  A    between atoms: C_27  and  C_30 
REMARK   11  A    between atoms: C_33  and  C_34 
REMARK   12  A    between atoms: C_34  and  C_35 
ROOT
HETATM    1  O   UNL     1      16.514   3.110  93.834  1.00  0.00    -0.350 OA
HETATM    2  N   UNL     1      13.955   2.977  92.593  1.00  0.00     0.147 N 
HETATM    3  C   UNL     1      14.710   1.762  92.929  1.00  0.00     0.283 C 
HETATM    4  C   UNL     1      14.881   4.088  92.329  1.00  0.00     0.283 C 
HETATM    5  C   UNL     1      15.621   2.032  94.123  1.00  0.00     0.178 C 
HETATM    6  C   UNL     1      15.788   4.303  93.537  1.00  0.00     0.178 C 
ENDROOT
BRANCH   2   7
HETATM    7  C   UNL     1      13.083   2.744  91.443  1.00  0.00     0.277 C 
BRANCH   7   8
HETATM    8  C   UNL     1      11.907   3.661  91.427  1.00  0.00     0.011 A 
HETATM    9  C   UNL     1      11.469   4.210  90.222  1.00  0.00    -0.002 A 
HETATM   10  C   UNL     1      10.371   5.070  90.206  1.00  0.00     0.008 A 
HETATM   11  C   UNL     1       9.711   5.379  91.395  1.00  0.00     0.042 A 
HETATM   12  C   UNL     1      10.147   4.831  92.599  1.00  0.00     0.008 A 
HETATM   13  C   UNL     1      11.246   3.972  92.616  1.00  0.00    -0.002 A 
BRANCH  11  14
HETATM   14  C   UNL     1       8.583   6.259  91.378  1.00  0.00    -0.059 C 
HETATM   15  C   UNL     1       7.635   6.999  91.364  1.00  0.00    -0.059 C 
BRANCH  15  16
HETATM   16  C   UNL     1       6.509   7.879  91.347  1.00  0.00     0.042 A 
HETATM   17  C   UNL     1       6.705   9.260  91.315  1.00  0.00     0.008 A 
HETATM   18  C   UNL     1       5.606  10.119  91.296  1.00  0.00     0.005 A 
HETATM   19  C   UNL     1       4.337   9.578  91.307  1.00  0.00     0.056 A 
HETATM   20  C   UNL     1       4.117   8.217  91.338  1.00  0.00     0.005 A 
HETATM   21  C   UNL     1       5.216   7.357  91.358  1.00  0.00     0.008 A 
BRANCH  19  22
HETATM   22  C   UNL     1       3.166  10.493  91.288  1.00  0.00     0.254 C 
HETATM   23  O   UNL     1       2.039  10.022  91.159  1.00  0.00    -0.268 OA
HETATM   24  N   UNL     1       3.447  11.843  91.446  1.00  0.00    -0.335 N 
HETATM   25  HN  UNL     1       4.403  12.157  91.573  1.00  0.00     0.164 HD
BRANCH  24  26
HETATM   26  C   UNL     1       2.418  12.851  91.473  1.00  0.00     0.166 C 
BRANCH  26  27
HETATM   27  C   UNL     1       2.067  13.303  92.897  1.00  0.00     0.138 C 
HETATM   28  C   UNL     1       3.301  13.668  93.715  1.00  0.00     0.034 C 
BRANCH  27  29
HETATM   29  O   UNL     1       1.199  14.434  92.839  1.00  0.00    -0.383 OA
HETATM   30  H   UNL     1       1.746  15.236  92.798  1.00  0.00     0.210 HD
ENDBRANCH  27  29
ENDBRANCH  26  27
BRANCH  26  31
HETATM   31  C   UNL     1       2.892  14.024  90.621  1.00  0.00     0.181 C 
HETATM   32  O   UNL     1       2.477  15.172  90.771  1.00  0.00    -0.294 OA
BRANCH  31  33
HETATM   33  C   UNL     1       4.510  14.130  90.588  1.00  0.00     0.138 C 
BRANCH  33  34
HETATM   34  C   UNL     1       4.749  14.218  89.199  1.00  0.00     0.208 C 
HETATM   35  O   UNL     1       5.030  15.316  88.776  1.00  0.00    -0.289 OA
BRANCH  34  36
HETATM   36  C   UNL     1       5.002  13.239  88.277  1.00  0.00     0.194 C 
HETATM   37  O   UNL     1       4.706  11.872  88.306  1.00  0.00    -0.185 OA
ENDBRANCH  34  36
ENDBRANCH  33  34
ENDBRANCH  31  33
ENDBRANCH  26  31
ENDBRANCH  24  26
ENDBRANCH  19  22
ENDBRANCH  15  16
ENDBRANCH  11  14
ENDBRANCH   7   8
ENDBRANCH   2   7
TORSDOF 12
ENDMDL
