MODEL 1
REMARK VINA RESULT:      -6.5      0.000      0.000
REMARK  14 active torsions:
REMARK  status: ('A' for Active; 'I' for Inactive)
REMARK    1  A    between atoms: O_2  and  C_18 
REMARK    2  A    between atoms: C_5  and  C_8 
REMARK    3  A    between atoms: C_5  and  O_35 
REMARK    4  A    between atoms: C_5  and  C_36 
REMARK    5  A    between atoms: N_6  and  C_11 
REMARK    6  A    between atoms: N_7  and  C_15 
REMARK       I    between atoms: N_7  and  C_24 
REMARK    7  A    between atoms: C_8  and  C_23 
REMARK    8  A    between atoms: C_11  and  C_14 
REMARK    9  A    between atoms: C_15  and  C_18 
REMARK   10  A    between atoms: C_15  and  C_23 
REMARK   11  A    between atoms: C_21  and  C_26 
REMARK   12  A    between atoms: C_24  and  C_25 
REMARK   13  A    between atoms: C_29  and  C_32 
REMARK   14  A    between atoms: C_36  and  O_39 
ROOT
HETATM    1  O   UNL     1      16.595   3.271  93.655  1.00  0.00    -0.350 OA
HETATM    2  N   UNL     1      13.899   2.855  92.844  1.00  0.00     0.147 N 
HETATM    3  C   UNL     1      14.806   1.728  93.101  1.00  0.00     0.283 C 
HETATM    4  C   UNL     1      14.665   4.025  92.394  1.00  0.00     0.283 C 
HETATM    5  C   UNL     1      15.863   2.138  94.124  1.00  0.00     0.178 C 
HETATM    6  C   UNL     1      15.724   4.381  93.432  1.00  0.00     0.178 C 
ENDROOT
BRANCH   2   7
HETATM    7  C   UNL     1      12.884   2.488  91.858  1.00  0.00     0.277 C 
BRANCH   7   8
HETATM    8  C   UNL     1      11.746   3.450  91.829  1.00  0.00     0.011 A 
HETATM    9  C   UNL     1      11.256   3.986  93.021  1.00  0.00    -0.002 A 
HETATM   10  C   UNL     1      10.190   4.885  92.995  1.00  0.00     0.008 A 
HETATM   11  C   UNL     1       9.616   5.249  91.777  1.00  0.00     0.042 A 
HETATM   12  C   UNL     1      10.104   4.714  90.587  1.00  0.00     0.008 A 
HETATM   13  C   UNL     1      11.169   3.815  90.612  1.00  0.00    -0.002 A 
BRANCH  11  14
HETATM   14  C   UNL     1       8.523   6.172  91.751  1.00  0.00    -0.059 C 
HETATM   15  C   UNL     1       7.605   6.949  91.728  1.00  0.00    -0.059 C 
BRANCH  15  16
HETATM   16  C   UNL     1       6.513   7.871  91.701  1.00  0.00     0.042 A 
HETATM   17  C   UNL     1       6.675   9.157  92.217  1.00  0.00     0.008 A 
HETATM   18  C   UNL     1       5.610  10.058  92.188  1.00  0.00     0.005 A 
HETATM   19  C   UNL     1       4.409   9.653  91.645  1.00  0.00     0.056 A 
HETATM   20  C   UNL     1       4.224   8.387  91.129  1.00  0.00     0.005 A 
HETATM   21  C   UNL     1       5.288   7.486  91.158  1.00  0.00     0.008 A 
BRANCH  19  22
HETATM   22  C   UNL     1       3.275  10.612  91.616  1.00  0.00     0.254 C 
HETATM   23  O   UNL     1       2.163  10.216  91.277  1.00  0.00    -0.268 OA
HETATM   24  N   UNL     1       3.566  11.911  92.010  1.00  0.00    -0.335 N 
HETATM   25  HN  UNL     1       4.504  12.160  92.302  1.00  0.00     0.164 HD
BRANCH  24  26
HETATM   26  C   UNL     1       2.568  12.949  92.059  1.00  0.00     0.169 C 
BRANCH  26  27
HETATM   27  C   UNL     1       2.557  13.698  93.397  1.00  0.00     0.138 C 
HETATM   28  C   UNL     1       3.959  14.060  93.876  1.00  0.00     0.034 C 
BRANCH  27  29
HETATM   29  O   UNL     1       1.789  14.894  93.268  1.00  0.00    -0.383 OA
HETATM   30  H   UNL     1       2.268  15.502  92.680  1.00  0.00     0.210 HD
ENDBRANCH  27  29
ENDBRANCH  26  27
BRANCH  26  31
HETATM   31  C   UNL     1       2.826  13.898  90.894  1.00  0.00     0.194 C 
HETATM   32  O   UNL     1       1.942  14.576  90.373  1.00  0.00    -0.289 OA
BRANCH  31  33
HETATM   33  C   UNL     1       4.137  13.872  90.483  1.00  0.00     0.053 C 
BRANCH  33  34
HETATM   34  C   UNL     1       4.348  14.029  89.106  1.00  0.00     0.220 C 
BRANCH  34  35
HETATM   35  O   UNL     1       5.252  14.872  88.954  1.00  0.00    -0.371 OA
HETATM   36  H   UNL     1       5.963  14.275  88.777  1.00  0.00     0.211 HD
ENDBRANCH  34  35
BRANCH  34  37
HETATM   37  C   UNL     1       4.625  12.823  88.440  1.00  0.00     0.185 C 
HETATM   38  O   UNL     1       5.414  12.615  89.483  1.00  0.00    -0.647 OA
BRANCH  37  39
HETATM   39  O   UNL     1       4.316  12.302  87.411  1.00  0.00    -0.774 OA
HETATM   40  H   UNL     1       4.514  12.979  86.522  1.00  0.00     0.167 HD
ENDBRANCH  37  39
ENDBRANCH  34  37
ENDBRANCH  33  34
ENDBRANCH  31  33
ENDBRANCH  26  31
ENDBRANCH  24  26
ENDBRANCH  19  22
ENDBRANCH  15  16
ENDBRANCH  11  14
ENDBRANCH   7   8
ENDBRANCH   2   7
TORSDOF 14
ENDMDL
