MODEL 1
REMARK VINA RESULT:      -7.0      0.000      0.000
REMARK  9 active torsions:
REMARK  status: ('A' for Active; 'I' for Inactive)
REMARK    1  A    between atoms: O_2  and  C_17 
REMARK    2  A    between atoms: N_5  and  C_10 
REMARK    3  A    between atoms: N_6  and  C_14 
REMARK       I    between atoms: N_6  and  C_23 
REMARK       I    between atoms: N_7  and  C_22 
REMARK    4  A    between atoms: C_10  and  C_13 
REMARK    5  A    between atoms: C_14  and  C_17 
REMARK    6  A    between atoms: C_14  and  C_22 
REMARK    7  A    between atoms: C_20  and  C_25 
REMARK    8  A    between atoms: C_23  and  C_24 
REMARK    9  A    between atoms: C_28  and  C_31 
ROOT
HETATM    1  O   UNL     1      16.865   3.712  93.694  1.00  0.00    -0.388 OA
HETATM    2  N   UNL     1      14.174   2.962  93.149  1.00  0.00     0.096 N 
HETATM    3  C   UNL     1      15.256   1.968  93.186  1.00  0.00     0.299 C 
HETATM    4  C   UNL     1      14.706   4.270  92.740  1.00  0.00     0.299 C 
HETATM    5  C   UNL     1      16.364   2.445  94.122  1.00  0.00     0.198 C 
HETATM    6  C   UNL     1      15.826   4.692  93.685  1.00  0.00     0.198 C 
ENDROOT
BRANCH   2   7
HETATM    7  C   UNL     1      13.106   2.531  92.249  1.00  0.00     0.311 C 
BRANCH   7   8
HETATM    8  C   UNL     1      12.169   3.639  91.908  1.00  0.00    -0.030 A 
HETATM    9  C   UNL     1      12.019   4.040  90.580  1.00  0.00     0.010 A 
HETATM   10  C   UNL     1      11.144   5.078  90.260  1.00  0.00     0.021 A 
HETATM   11  C   UNL     1      10.419   5.713  91.267  1.00  0.00     0.018 A 
HETATM   12  C   UNL     1      10.567   5.313  92.594  1.00  0.00     0.021 A 
HETATM   13  C   UNL     1      11.443   4.276  92.914  1.00  0.00     0.010 A 
BRANCH  11  14
HETATM   14  C   UNL     1       9.520   6.777  90.938  1.00  0.00    -0.061 C 
HETATM   15  C   UNL     1       8.764   7.670  90.661  1.00  0.00    -0.061 C 
BRANCH  15  16
HETATM   16  C   UNL     1       7.865   8.732  90.332  1.00  0.00     0.018 A 
HETATM   17  C   UNL     1       8.353   9.902  89.748  1.00  0.00     0.022 A 
HETATM   18  C   UNL     1       7.476  10.936  89.425  1.00  0.00     0.018 A 
HETATM   19  C   UNL     1       6.132  10.779  89.692  1.00  0.00     0.032 A 
HETATM   20  C   UNL     1       5.625   9.633  90.269  1.00  0.00     0.018 A 
HETATM   21  C   UNL     1       6.502   8.598  90.593  1.00  0.00     0.022 A 
BRANCH  19  22
HETATM   22  C   UNL     1       5.198  11.882  89.350  1.00  0.00     0.252 C 
HETATM   23  O   UNL     1       4.918  12.088  88.171  1.00  0.00    -0.268 OA
HETATM   24  N   UNL     1       4.683  12.598  90.422  1.00  0.00    -0.342 N 
HETATM   25  H   UNL     1       4.940  12.355  91.371  1.00  0.00     0.163 HD
BRANCH  24  26
HETATM   26  C   UNL     1       3.747  13.681  90.253  1.00  0.00     0.199 C 
BRANCH  26  27
HETATM   27  C   UNL     1       2.522  13.555  91.169  1.00  0.00     0.145 C 
HETATM   28  C   UNL     1       2.844  12.846  92.480  1.00  0.00     0.042 C 
BRANCH  27  29
HETATM   29  O   UNL     1       2.008  14.854  91.459  1.00  0.00    -0.393 OA
HETATM   30  H   UNL     1       2.756  15.471  91.524  1.00  0.00     0.210 HD
ENDBRANCH  27  29
ENDBRANCH  26  27
BRANCH  26  31
HETATM   31  C   UNL     1       4.495  14.986  90.504  1.00  0.00     0.220 C 
HETATM   32  O   UNL     1       4.635  15.473  91.624  1.00  0.00    -0.278 OA
HETATM   33  N   UNL     1       4.947  15.557  89.339  1.00  0.00    -0.271 NA
HETATM   34  H   UNL     1       4.772  15.231  88.396  1.00  0.00     0.127 HD
HETATM   35  H   UNL     1       4.472  16.708  88.691  1.00  0.00     0.127 HD
ENDBRANCH  26  31
ENDBRANCH  24  26
ENDBRANCH  19  22
ENDBRANCH  15  16
ENDBRANCH  11  14
ENDBRANCH   7   8
ENDBRANCH   2   7
TORSDOF 9
ENDMDL
MODEL 2
REMARK VINA RESULT:      -6.8      0.883      1.672
REMARK  9 active torsions:
REMARK  status: ('A' for Active; 'I' for Inactive)
REMARK    1  A    between atoms: O_2  and  C_17 
REMARK    2  A    between atoms: N_5  and  C_10 
REMARK    3  A    between atoms: N_6  and  C_14 
REMARK       I    between atoms: N_6  and  C_23 
REMARK       I    between atoms: N_7  and  C_22 
REMARK    4  A    between atoms: C_10  and  C_13 
REMARK    5  A    between atoms: C_14  and  C_17 
REMARK    6  A    between atoms: C_14  and  C_22 
REMARK    7  A    between atoms: C_20  and  C_25 
REMARK    8  A    between atoms: C_23  and  C_24 
REMARK    9  A    between atoms: C_28  and  C_31 
ROOT
HETATM    1  O   UNL     1      16.553   4.257  94.124  1.00  0.00    -0.388 OA
HETATM    2  N   UNL     1      14.620   2.838  92.590  1.00  0.00     0.096 N 
HETATM    3  C   UNL     1      14.573   4.301  92.721  1.00  0.00     0.299 C 
HETATM    4  C   UNL     1      15.240   2.246  93.783  1.00  0.00     0.299 C 
HETATM    5  C   UNL     1      15.980   4.845  92.954  1.00  0.00     0.198 C 
HETATM    6  C   UNL     1      16.631   2.837  93.992  1.00  0.00     0.198 C 
ENDROOT
BRANCH   2   7
HETATM    7  C   UNL     1      13.280   2.294  92.376  1.00  0.00     0.311 C 
BRANCH   7   8
HETATM    8  C   UNL     1      12.296   3.345  91.986  1.00  0.00    -0.030 A 
HETATM    9  C   UNL     1      12.088   3.637  90.638  1.00  0.00     0.010 A 
HETATM   10  C   UNL     1      11.170   4.621  90.271  1.00  0.00     0.021 A 
HETATM   11  C   UNL     1      10.459   5.310  91.254  1.00  0.00     0.018 A 
HETATM   12  C   UNL     1      10.666   5.018  92.600  1.00  0.00     0.021 A 
HETATM   13  C   UNL     1      11.584   4.035  92.967  1.00  0.00     0.010 A 
BRANCH  11  14
HETATM   14  C   UNL     1       9.515   6.317  90.878  1.00  0.00    -0.061 C 
HETATM   15  C   UNL     1       8.723   7.165  90.562  1.00  0.00    -0.061 C 
BRANCH  15  16
HETATM   16  C   UNL     1       7.780   8.172  90.186  1.00  0.00     0.018 A 
HETATM   17  C   UNL     1       6.456   7.823  89.920  1.00  0.00     0.022 A 
HETATM   18  C   UNL     1       5.536   8.806  89.556  1.00  0.00     0.018 A 
HETATM   19  C   UNL     1       5.960  10.115  89.467  1.00  0.00     0.032 A 
HETATM   20  C   UNL     1       7.264  10.486  89.725  1.00  0.00     0.018 A 
HETATM   21  C   UNL     1       8.184   9.504  90.089  1.00  0.00     0.022 A 
BRANCH  19  22
HETATM   22  C   UNL     1       4.981  11.162  89.077  1.00  0.00     0.252 C 
HETATM   23  O   UNL     1       4.148  10.911  88.210  1.00  0.00    -0.268 OA
HETATM   24  N   UNL     1       5.073  12.366  89.761  1.00  0.00    -0.342 N 
HETATM   25  H   UNL     1       5.772  12.493  90.484  1.00  0.00     0.163 HD
BRANCH  24  26
HETATM   26  C   UNL     1       4.179  13.469  89.514  1.00  0.00     0.199 C 
BRANCH  26  27
HETATM   27  C   UNL     1       3.578  14.046  90.802  1.00  0.00     0.145 C 
HETATM   28  C   UNL     1       2.392  13.232  91.309  1.00  0.00     0.042 C 
BRANCH  27  29
HETATM   29  O   UNL     1       4.579  14.089  91.819  1.00  0.00    -0.393 OA
HETATM   30  H   UNL     1       5.448  13.991  91.395  1.00  0.00     0.210 HD
ENDBRANCH  27  29
ENDBRANCH  26  27
BRANCH  26  31
HETATM   31  C   UNL     1       4.953  14.531  88.739  1.00  0.00     0.220 C 
HETATM   32  O   UNL     1       5.282  14.395  87.563  1.00  0.00    -0.278 OA
HETATM   33  N   UNL     1       5.263  15.619  89.519  1.00  0.00    -0.271 NA
HETATM   34  H   UNL     1       5.087  15.725  90.511  1.00  0.00     0.127 HD
HETATM   35  H   UNL     1       6.516  16.002  90.022  1.00  0.00     0.127 HD
ENDBRANCH  26  31
ENDBRANCH  24  26
ENDBRANCH  19  22
ENDBRANCH  15  16
ENDBRANCH  11  14
ENDBRANCH   7   8
ENDBRANCH   2   7
TORSDOF 9
ENDMDL
MODEL 3
REMARK VINA RESULT:      -6.6      1.830      2.736
REMARK  9 active torsions:
REMARK  status: ('A' for Active; 'I' for Inactive)
REMARK    1  A    between atoms: O_2  and  C_17 
REMARK    2  A    between atoms: N_5  and  C_10 
REMARK    3  A    between atoms: N_6  and  C_14 
REMARK       I    between atoms: N_6  and  C_23 
REMARK       I    between atoms: N_7  and  C_22 
REMARK    4  A    between atoms: C_10  and  C_13 
REMARK    5  A    between atoms: C_14  and  C_17 
REMARK    6  A    between atoms: C_14  and  C_22 
REMARK    7  A    between atoms: C_20  and  C_25 
REMARK    8  A    between atoms: C_23  and  C_24 
REMARK    9  A    between atoms: C_28  and  C_31 
ROOT
HETATM    1  O   UNL     1      16.253   4.079  94.036  1.00  0.00    -0.388 OA
HETATM    2  N   UNL     1      14.281   2.709  92.508  1.00  0.00     0.096 N 
HETATM    3  C   UNL     1      14.447   4.166  92.418  1.00  0.00     0.299 C 
HETATM    4  C   UNL     1      14.686   2.238  93.840  1.00  0.00     0.299 C 
HETATM    5  C   UNL     1      15.893   4.542  92.734  1.00  0.00     0.198 C 
HETATM    6  C   UNL     1      16.124   2.659  94.123  1.00  0.00     0.198 C 
ENDROOT
BRANCH   2   7
HETATM    7  C   UNL     1      12.900   2.327  92.219  1.00  0.00     0.311 C 
BRANCH   7   8
HETATM    8  C   UNL     1      11.966   3.488  92.274  1.00  0.00    -0.030 A 
HETATM    9  C   UNL     1      11.618   4.045  93.505  1.00  0.00     0.010 A 
HETATM   10  C   UNL     1      10.743   5.129  93.558  1.00  0.00     0.021 A 
HETATM   11  C   UNL     1      10.218   5.658  92.379  1.00  0.00     0.018 A 
HETATM   12  C   UNL     1      10.565   5.103  91.149  1.00  0.00     0.021 A 
HETATM   13  C   UNL     1      11.439   4.018  91.096  1.00  0.00     0.010 A 
BRANCH  11  14
HETATM   14  C   UNL     1       9.322   6.772  92.433  1.00  0.00    -0.061 C 
HETATM   15  C   UNL     1       8.569   7.709  92.478  1.00  0.00    -0.061 C 
BRANCH  15  16
HETATM   16  C   UNL     1       7.674   8.822  92.531  1.00  0.00     0.018 A 
HETATM   17  C   UNL     1       7.259   9.439  91.350  1.00  0.00     0.022 A 
HETATM   18  C   UNL     1       6.383  10.523  91.402  1.00  0.00     0.018 A 
HETATM   19  C   UNL     1       5.942  10.966  92.631  1.00  0.00     0.032 A 
HETATM   20  C   UNL     1       6.338  10.374  93.812  1.00  0.00     0.018 A 
HETATM   21  C   UNL     1       7.214   9.289  93.762  1.00  0.00     0.022 A 
BRANCH  19  22
HETATM   22  C   UNL     1       5.011  12.123  92.686  1.00  0.00     0.252 C 
HETATM   23  O   UNL     1       4.743  12.626  93.774  1.00  0.00    -0.268 OA
HETATM   24  N   UNL     1       4.524  12.569  91.465  1.00  0.00    -0.342 N 
HETATM   25  H   UNL     1       4.809  12.119  90.603  1.00  0.00     0.163 HD
BRANCH  24  26
HETATM   26  C   UNL     1       3.632  13.695  91.351  1.00  0.00     0.199 C 
BRANCH  26  27
HETATM   27  C   UNL     1       3.641  14.320  89.951  1.00  0.00     0.145 C 
HETATM   28  C   UNL     1       4.948  15.042  89.642  1.00  0.00     0.042 C 
BRANCH  27  29
HETATM   29  O   UNL     1       3.431  13.303  88.972  1.00  0.00    -0.393 OA
HETATM   30  H   UNL     1       3.985  13.504  88.199  1.00  0.00     0.210 HD
ENDBRANCH  27  29
ENDBRANCH  26  27
BRANCH  26  31
HETATM   31  C   UNL     1       2.234  13.222  91.738  1.00  0.00     0.220 C 
HETATM   32  O   UNL     1       1.795  12.113  91.438  1.00  0.00    -0.278 OA
HETATM   33  N   UNL     1       1.529  14.187  92.415  1.00  0.00    -0.271 NA
HETATM   34  H   UNL     1       1.825  15.139  92.600  1.00  0.00     0.127 HD
HETATM   35  H   UNL     1       0.441  14.950  91.963  1.00  0.00     0.127 HD
ENDBRANCH  26  31
ENDBRANCH  24  26
ENDBRANCH  19  22
ENDBRANCH  15  16
ENDBRANCH  11  14
ENDBRANCH   7   8
ENDBRANCH   2   7
TORSDOF 9
ENDMDL
MODEL 4
REMARK VINA RESULT:      -5.9      2.404     12.356
REMARK  9 active torsions:
REMARK  status: ('A' for Active; 'I' for Inactive)
REMARK    1  A    between atoms: O_2  and  C_17 
REMARK    2  A    between atoms: N_5  and  C_10 
REMARK    3  A    between atoms: N_6  and  C_14 
REMARK       I    between atoms: N_6  and  C_23 
REMARK       I    between atoms: N_7  and  C_22 
REMARK    4  A    between atoms: C_10  and  C_13 
REMARK    5  A    between atoms: C_14  and  C_17 
REMARK    6  A    between atoms: C_14  and  C_22 
REMARK    7  A    between atoms: C_20  and  C_25 
REMARK    8  A    between atoms: C_23  and  C_24 
REMARK    9  A    between atoms: C_28  and  C_31 
ROOT
HETATM    1  O   UNL     1       3.004  14.907  94.110  1.00  0.00    -0.388 OA
HETATM    2  N   UNL     1       2.662  14.783  91.287  1.00  0.00     0.096 N 
HETATM    3  C   UNL     1       1.729  14.112  92.203  1.00  0.00     0.299 C 
HETATM    4  C   UNL     1       3.996  14.864  91.896  1.00  0.00     0.299 C 
HETATM    5  C   UNL     1       1.695  14.851  93.539  1.00  0.00     0.198 C 
HETATM    6  C   UNL     1       3.909  15.585  93.238  1.00  0.00     0.198 C 
ENDROOT
BRANCH   2   7
HETATM    7  C   UNL     1       2.718  14.085  90.004  1.00  0.00     0.311 C 
BRANCH   7   8
HETATM    8  C   UNL     1       3.721  12.981  90.001  1.00  0.00    -0.030 A 
HETATM    9  C   UNL     1       3.475  11.815  90.727  1.00  0.00     0.010 A 
HETATM   10  C   UNL     1       4.413  10.783  90.727  1.00  0.00     0.021 A 
HETATM   11  C   UNL     1       5.596  10.917  90.000  1.00  0.00     0.018 A 
HETATM   12  C   UNL     1       5.842  12.081  89.274  1.00  0.00     0.021 A 
HETATM   13  C   UNL     1       4.904  13.113  89.275  1.00  0.00     0.010 A 
BRANCH  11  14
HETATM   14  C   UNL     1       6.557   9.857  89.998  1.00  0.00    -0.061 C 
HETATM   15  C   UNL     1       7.364   8.966  89.997  1.00  0.00    -0.061 C 
BRANCH  15  16
HETATM   16  C   UNL     1       8.325   7.907  89.994  1.00  0.00     0.018 A 
HETATM   17  C   UNL     1       9.238   7.798  88.945  1.00  0.00     0.022 A 
HETATM   18  C   UNL     1      10.177   6.766  88.944  1.00  0.00     0.018 A 
HETATM   19  C   UNL     1      10.182   5.869  89.991  1.00  0.00     0.032 A 
HETATM   20  C   UNL     1       9.290   5.956  91.040  1.00  0.00     0.018 A 
HETATM   21  C   UNL     1       8.351   6.987  91.042  1.00  0.00     0.022 A 
BRANCH  19  22
HETATM   22  C   UNL     1      11.181   4.769  89.989  1.00  0.00     0.252 C 
HETATM   23  O   UNL     1      11.327   4.093  88.974  1.00  0.00    -0.268 OA
HETATM   24  N   UNL     1      11.908   4.605  91.160  1.00  0.00    -0.342 N 
HETATM   25  H   UNL     1      11.750   5.218  91.952  1.00  0.00     0.163 HD
BRANCH  24  26
HETATM   26  C   UNL     1      12.929   3.599  91.305  1.00  0.00     0.199 C 
BRANCH  26  27
HETATM   27  C   UNL     1      14.256   4.170  91.821  1.00  0.00     0.145 C 
HETATM   28  C   UNL     1      15.284   3.083  92.115  1.00  0.00     0.042 C 
BRANCH  27  29
HETATM   29  O   UNL     1      14.796   5.070  90.855  1.00  0.00    -0.393 OA
HETATM   30  H   UNL     1      15.765   5.052  90.930  1.00  0.00     0.210 HD
ENDBRANCH  27  29
ENDBRANCH  26  27
BRANCH  26  31
HETATM   31  C   UNL     1      12.390   2.519  92.238  1.00  0.00     0.220 C 
HETATM   32  O   UNL     1      12.220   1.353  91.885  1.00  0.00    -0.278 OA
HETATM   33  N   UNL     1      12.087   3.012  93.484  1.00  0.00    -0.271 NA
HETATM   34  H   UNL     1      12.130   3.981  93.779  1.00  0.00     0.127 HD
HETATM   35  H   UNL     1      10.822   3.224  94.053  1.00  0.00     0.127 HD
ENDBRANCH  26  31
ENDBRANCH  24  26
ENDBRANCH  19  22
ENDBRANCH  15  16
ENDBRANCH  11  14
ENDBRANCH   7   8
ENDBRANCH   2   7
TORSDOF 9
ENDMDL
MODEL 5
REMARK VINA RESULT:      -5.0      1.715     12.424
REMARK  9 active torsions:
REMARK  status: ('A' for Active; 'I' for Inactive)
REMARK    1  A    between atoms: O_2  and  C_17 
REMARK    2  A    between atoms: N_5  and  C_10 
REMARK    3  A    between atoms: N_6  and  C_14 
REMARK       I    between atoms: N_6  and  C_23 
REMARK       I    between atoms: N_7  and  C_22 
REMARK    4  A    between atoms: C_10  and  C_13 
REMARK    5  A    between atoms: C_14  and  C_17 
REMARK    6  A    between atoms: C_14  and  C_22 
REMARK    7  A    between atoms: C_20  and  C_25 
REMARK    8  A    between atoms: C_23  and  C_24 
REMARK    9  A    between atoms: C_28  and  C_31 
ROOT
HETATM    1  O   UNL     1       5.461  15.093  89.000  1.00  0.00    -0.388 OA
HETATM    2  N   UNL     1       3.548  13.157  89.834  1.00  0.00     0.096 N 
HETATM    3  C   UNL     1       4.061  14.177  90.759  1.00  0.00     0.299 C 
HETATM    4  C   UNL     1       4.559  12.849  88.812  1.00  0.00     0.299 C 
HETATM    5  C   UNL     1       4.472  15.423  89.978  1.00  0.00     0.198 C 
HETATM    6  C   UNL     1       4.959  14.125  88.079  1.00  0.00     0.198 C 
ENDROOT
BRANCH   2   7
HETATM    7  C   UNL     1       3.158  11.949  90.559  1.00  0.00     0.311 C 
BRANCH   7   8
HETATM    8  C   UNL     1       4.285  10.984  90.703  1.00  0.00    -0.030 A 
HETATM    9  C   UNL     1       4.164   9.691  90.192  1.00  0.00     0.010 A 
HETATM   10  C   UNL     1       5.217   8.786  90.328  1.00  0.00     0.021 A 
HETATM   11  C   UNL     1       6.390   9.176  90.973  1.00  0.00     0.018 A 
HETATM   12  C   UNL     1       6.512  10.466  91.484  1.00  0.00     0.021 A 
HETATM   13  C   UNL     1       5.459  11.371  91.349  1.00  0.00     0.010 A 
BRANCH  11  14
HETATM   14  C   UNL     1       7.471   8.248  91.110  1.00  0.00    -0.061 C 
HETATM   15  C   UNL     1       8.379   7.468  91.227  1.00  0.00    -0.061 C 
BRANCH  15  16
HETATM   16  C   UNL     1       9.458   6.541  91.364  1.00  0.00     0.018 A 
HETATM   17  C   UNL     1      10.183   6.144  90.240  1.00  0.00     0.022 A 
HETATM   18  C   UNL     1      11.238   5.242  90.375  1.00  0.00     0.018 A 
HETATM   19  C   UNL     1      11.544   4.756  91.629  1.00  0.00     0.032 A 
HETATM   20  C   UNL     1      10.842   5.132  92.755  1.00  0.00     0.018 A 
HETATM   21  C   UNL     1       9.787   6.035  92.622  1.00  0.00     0.022 A 
BRANCH  19  22
HETATM   22  C   UNL     1      12.666   3.793  91.771  1.00  0.00     0.252 C 
HETATM   23  O   UNL     1      12.746   2.845  90.994  1.00  0.00    -0.268 OA
HETATM   24  N   UNL     1      13.574   4.063  92.786  1.00  0.00    -0.342 N 
HETATM   25  H   UNL     1      13.458   4.880  93.374  1.00  0.00     0.163 HD
BRANCH  24  26
HETATM   26  C   UNL     1      14.728   3.237  93.035  1.00  0.00     0.199 C 
BRANCH  26  27
HETATM   27  C   UNL     1      15.847   3.985  93.770  1.00  0.00     0.145 C 
HETATM   28  C   UNL     1      17.215   3.349  93.552  1.00  0.00     0.042 C 
BRANCH  27  29
HETATM   29  O   UNL     1      15.888   5.340  93.324  1.00  0.00    -0.393 OA
HETATM   30  H   UNL     1      16.400   5.373  92.498  1.00  0.00     0.210 HD
ENDBRANCH  27  29
ENDBRANCH  26  27
BRANCH  26  31
HETATM   31  C   UNL     1      14.265   2.016  93.824  1.00  0.00     0.220 C 
HETATM   32  O   UNL     1      15.015   1.089  94.124  1.00  0.00    -0.278 OA
HETATM   33  N   UNL     1      12.923   2.065  94.116  1.00  0.00    -0.271 NA
HETATM   34  H   UNL     1      12.260   2.767  93.808  1.00  0.00     0.127 HD
HETATM   35  H   UNL     1      11.883   1.298  93.567  1.00  0.00     0.127 HD
ENDBRANCH  26  31
ENDBRANCH  24  26
ENDBRANCH  19  22
ENDBRANCH  15  16
ENDBRANCH  11  14
ENDBRANCH   7   8
ENDBRANCH   2   7
TORSDOF 9
ENDMDL
MODEL 6
REMARK VINA RESULT:      -4.0      2.187      2.972
REMARK  9 active torsions:
REMARK  status: ('A' for Active; 'I' for Inactive)
REMARK    1  A    between atoms: O_2  and  C_17 
REMARK    2  A    between atoms: N_5  and  C_10 
REMARK    3  A    between atoms: N_6  and  C_14 
REMARK       I    between atoms: N_6  and  C_23 
REMARK       I    between atoms: N_7  and  C_22 
REMARK    4  A    between atoms: C_10  and  C_13 
REMARK    5  A    between atoms: C_14  and  C_17 
REMARK    6  A    between atoms: C_14  and  C_22 
REMARK    7  A    between atoms: C_20  and  C_25 
REMARK    8  A    between atoms: C_23  and  C_24 
REMARK    9  A    between atoms: C_28  and  C_31 
ROOT
HETATM    1  O   UNL     1      15.674   2.823  90.937  1.00  0.00    -0.388 OA
HETATM    2  N   UNL     1      13.426   3.194  92.643  1.00  0.00     0.096 N 
HETATM    3  C   UNL     1      14.453   2.185  92.935  1.00  0.00     0.299 C 
HETATM    4  C   UNL     1      13.336   3.416  91.194  1.00  0.00     0.299 C 
HETATM    5  C   UNL     1      15.792   2.624  92.347  1.00  0.00     0.198 C 
HETATM    6  C   UNL     1      14.700   3.826  90.647  1.00  0.00     0.198 C 
ENDROOT
BRANCH   2   7
HETATM    7  C   UNL     1      12.132   2.789  93.189  1.00  0.00     0.311 C 
BRANCH   7   8
HETATM    8  C   UNL     1      11.136   3.898  93.173  1.00  0.00    -0.030 A 
HETATM    9  C   UNL     1      10.131   3.918  92.206  1.00  0.00     0.010 A 
HETATM   10  C   UNL     1       9.200   4.957  92.189  1.00  0.00     0.021 A 
HETATM   11  C   UNL     1       9.274   5.973  93.141  1.00  0.00     0.018 A 
HETATM   12  C   UNL     1      10.278   5.954  94.107  1.00  0.00     0.021 A 
HETATM   13  C   UNL     1      11.209   4.916  94.124  1.00  0.00     0.010 A 
BRANCH  11  14
HETATM   14  C   UNL     1       8.318   7.038  93.125  1.00  0.00    -0.061 C 
HETATM   15  C   UNL     1       7.514   7.932  93.111  1.00  0.00    -0.061 C 
BRANCH  15  16
HETATM   16  C   UNL     1       6.558   8.994  93.095  1.00  0.00     0.018 A 
HETATM   17  C   UNL     1       5.415   8.915  93.892  1.00  0.00     0.022 A 
HETATM   18  C   UNL     1       4.484   9.953  93.878  1.00  0.00     0.018 A 
HETATM   19  C   UNL     1       4.716  11.047  93.070  1.00  0.00     0.032 A 
HETATM   20  C   UNL     1       5.837  11.148  92.273  1.00  0.00     0.018 A 
HETATM   21  C   UNL     1       6.769  10.111  92.286  1.00  0.00     0.022 A 
BRANCH  19  22
HETATM   22  C   UNL     1       3.722  12.151  93.054  1.00  0.00     0.252 C 
HETATM   23  O   UNL     1       2.888  12.220  93.954  1.00  0.00    -0.268 OA
HETATM   24  N   UNL     1       3.836  13.056  92.008  1.00  0.00    -0.342 N 
HETATM   25  H   UNL     1       4.567  12.950  91.315  1.00  0.00     0.163 HD
BRANCH  24  26
HETATM   26  C   UNL     1       2.962  14.194  91.869  1.00  0.00     0.199 C 
BRANCH  26  27
HETATM   27  C   UNL     1       3.636  15.512  92.269  1.00  0.00     0.145 C 
HETATM   28  C   UNL     1       3.851  15.624  93.775  1.00  0.00     0.042 C 
BRANCH  27  29
HETATM   29  O   UNL     1       4.898  15.622  91.612  1.00  0.00    -0.393 OA
HETATM   30  H   UNL     1       5.501  14.962  91.995  1.00  0.00     0.210 HD
ENDBRANCH  27  29
ENDBRANCH  26  27
BRANCH  26  31
HETATM   31  C   UNL     1       2.479  14.236  90.423  1.00  0.00     0.220 C 
HETATM   32  O   UNL     1       1.296  14.373  90.116  1.00  0.00    -0.278 OA
HETATM   33  N   UNL     1       3.506  14.064  89.527  1.00  0.00    -0.271 NA
HETATM   34  H   UNL     1       4.475  13.860  89.746  1.00  0.00     0.127 HD
HETATM   35  H   UNL     1       3.783  12.949  88.721  1.00  0.00     0.127 HD
ENDBRANCH  26  31
ENDBRANCH  24  26
ENDBRANCH  19  22
ENDBRANCH  15  16
ENDBRANCH  11  14
ENDBRANCH   7   8
ENDBRANCH   2   7
TORSDOF 9
ENDMDL
