MODEL 1
REMARK VINA RESULT:      -6.2      0.000      0.000
REMARK  12 active torsions:
REMARK  status: ('A' for Active; 'I' for Inactive)
REMARK    1  A    between atoms: O_2  and  C_16 
REMARK    2  A    between atoms: N_5  and  C_9 
REMARK    3  A    between atoms: N_6  and  C_13 
REMARK       I    between atoms: N_6  and  C_22 
REMARK    4  A    between atoms: C_9  and  C_12 
REMARK    5  A    between atoms: C_13  and  C_16 
REMARK    6  A    between atoms: C_13  and  C_21 
REMARK    7  A    between atoms: C_19  and  C_24 
REMARK    8  A    between atoms: C_21  and  C_33 
REMARK    9  A    between atoms: C_22  and  C_23 
REMARK   10  A    between atoms: C_27  and  C_30 
REMARK   11  A    between atoms: C_33  and  C_34 
REMARK   12  A    between atoms: C_34  and  C_35 
ROOT
HETATM    1  O   UNL     1      16.485   3.406  93.698  1.00  0.00    -0.350 OA
HETATM    2  N   UNL     1      13.844   2.766  92.851  1.00  0.00     0.147 N 
HETATM    3  C   UNL     1      14.851   1.721  93.080  1.00  0.00     0.283 C 
HETATM    4  C   UNL     1      14.499   4.017  92.445  1.00  0.00     0.283 C 
HETATM    5  C   UNL     1      15.859   2.194  94.124  1.00  0.00     0.178 C 
HETATM    6  C   UNL     1      15.515   4.436  93.503  1.00  0.00     0.178 C 
ENDROOT
BRANCH   2   7
HETATM    7  C   UNL     1      12.873   2.338  91.845  1.00  0.00     0.277 C 
BRANCH   7   8
HETATM    8  C   UNL     1      11.715   3.271  91.739  1.00  0.00     0.011 A 
HETATM    9  C   UNL     1      11.096   3.476  90.506  1.00  0.00    -0.002 A 
HETATM   10  C   UNL     1      10.015   4.351  90.405  1.00  0.00     0.008 A 
HETATM   11  C   UNL     1       9.551   5.019  91.539  1.00  0.00     0.042 A 
HETATM   12  C   UNL     1      10.169   4.814  92.771  1.00  0.00     0.008 A 
HETATM   13  C   UNL     1      11.251   3.940  92.872  1.00  0.00    -0.002 A 
BRANCH  11  14
HETATM   14  C   UNL     1       8.440   5.914  91.436  1.00  0.00    -0.059 C 
HETATM   15  C   UNL     1       7.506   6.667  91.350  1.00  0.00    -0.059 C 
BRANCH  15  16
HETATM   16  C   UNL     1       6.396   7.562  91.249  1.00  0.00     0.042 A 
HETATM   17  C   UNL     1       6.131   8.207  90.040  1.00  0.00     0.008 A 
HETATM   18  C   UNL     1       5.046   9.078  89.941  1.00  0.00     0.005 A 
HETATM   19  C   UNL     1       4.252   9.284  91.049  1.00  0.00     0.056 A 
HETATM   20  C   UNL     1       4.494   8.659  92.254  1.00  0.00     0.005 A 
HETATM   21  C   UNL     1       5.578   7.787  92.356  1.00  0.00     0.008 A 
BRANCH  19  22
HETATM   22  C   UNL     1       3.098  10.214  90.943  1.00  0.00     0.254 C 
HETATM   23  O   UNL     1       2.025   9.792  90.518  1.00  0.00    -0.268 OA
HETATM   24  N   UNL     1       3.325  11.516  91.368  1.00  0.00    -0.335 N 
HETATM   25  HN  UNL     1       4.231  11.786  91.731  1.00  0.00     0.164 HD
BRANCH  24  26
HETATM   26  C   UNL     1       2.299  12.527  91.349  1.00  0.00     0.166 C 
BRANCH  26  27
HETATM   27  C   UNL     1       1.855  12.948  92.756  1.00  0.00     0.138 C 
HETATM   28  C   UNL     1       1.257  11.792  93.550  1.00  0.00     0.034 C 
BRANCH  27  29
HETATM   29  O   UNL     1       2.973  13.473  93.472  1.00  0.00    -0.383 OA
HETATM   30  H   UNL     1       2.750  14.371  93.770  1.00  0.00     0.210 HD
ENDBRANCH  27  29
ENDBRANCH  26  27
BRANCH  26  31
HETATM   31  C   UNL     1       2.831  13.717  90.557  1.00  0.00     0.181 C 
HETATM   32  O   UNL     1       2.387  14.857  90.681  1.00  0.00    -0.294 OA
BRANCH  31  33
HETATM   33  C   UNL     1       4.443  13.844  90.672  1.00  0.00     0.138 C 
BRANCH  33  34
HETATM   34  C   UNL     1       4.774  14.306  89.379  1.00  0.00     0.208 C 
HETATM   35  O   UNL     1       5.266  15.410  89.318  1.00  0.00    -0.289 OA
BRANCH  34  36
HETATM   36  C   UNL     1       4.905  13.626  88.200  1.00  0.00     0.194 C 
HETATM   37  O   UNL     1       4.470  12.345  87.842  1.00  0.00    -0.185 OA
ENDBRANCH  34  36
ENDBRANCH  33  34
ENDBRANCH  31  33
ENDBRANCH  26  31
ENDBRANCH  24  26
ENDBRANCH  19  22
ENDBRANCH  15  16
ENDBRANCH  11  14
ENDBRANCH   7   8
ENDBRANCH   2   7
TORSDOF 12
ENDMDL
