MODEL 1
REMARK VINA RESULT:      -6.7      0.000      0.000
REMARK  12 active torsions:
REMARK  status: ('A' for Active; 'I' for Inactive)
REMARK    1  A    between atoms: O_2  and  C_16 
REMARK    2  A    between atoms: N_5  and  C_9 
REMARK    3  A    between atoms: N_6  and  C_13 
REMARK       I    between atoms: N_6  and  C_22 
REMARK    4  A    between atoms: C_9  and  C_12 
REMARK    5  A    between atoms: C_13  and  C_16 
REMARK    6  A    between atoms: C_13  and  C_21 
REMARK    7  A    between atoms: C_19  and  C_24 
REMARK    8  A    between atoms: C_21  and  C_33 
REMARK    9  A    between atoms: C_22  and  C_23 
REMARK   10  A    between atoms: C_27  and  C_30 
REMARK   11  A    between atoms: C_33  and  C_34 
REMARK   12  A    between atoms: C_34  and  C_35 
ROOT
HETATM    1  O   UNL     1      15.999   3.876  94.122  1.00  0.00    -0.350 OA
HETATM    2  N   UNL     1      14.142   2.451  92.502  1.00  0.00     0.147 N 
HETATM    3  C   UNL     1      14.192   3.920  92.502  1.00  0.00     0.283 C 
HETATM    4  C   UNL     1      14.583   1.932  93.804  1.00  0.00     0.283 C 
HETATM    5  C   UNL     1      15.603   4.389  92.849  1.00  0.00     0.178 C 
HETATM    6  C   UNL     1      15.983   2.448  94.121  1.00  0.00     0.178 C 
ENDROOT
BRANCH   2   7
HETATM    7  C   UNL     1      12.796   1.979  92.182  1.00  0.00     0.277 C 
BRANCH   7   8
HETATM    8  C   UNL     1      11.792   3.081  92.185  1.00  0.00     0.011 A 
HETATM    9  C   UNL     1      11.000   3.304  91.058  1.00  0.00    -0.002 A 
HETATM   10  C   UNL     1      10.062   4.336  91.059  1.00  0.00     0.008 A 
HETATM   11  C   UNL     1       9.915   5.143  92.186  1.00  0.00     0.042 A 
HETATM   12  C   UNL     1      10.706   4.921  93.312  1.00  0.00     0.008 A 
HETATM   13  C   UNL     1      11.644   3.890  93.312  1.00  0.00    -0.002 A 
BRANCH  11  14
HETATM   14  C   UNL     1       8.951   6.200  92.187  1.00  0.00    -0.059 C 
HETATM   15  C   UNL     1       8.142   7.090  92.189  1.00  0.00    -0.059 C 
BRANCH  15  16
HETATM   16  C   UNL     1       7.179   8.147  92.189  1.00  0.00     0.042 A 
HETATM   17  C   UNL     1       7.533   9.411  92.661  1.00  0.00     0.008 A 
HETATM   18  C   UNL     1       6.594  10.442  92.659  1.00  0.00     0.005 A 
HETATM   19  C   UNL     1       5.325  10.188  92.184  1.00  0.00     0.056 A 
HETATM   20  C   UNL     1       4.951   8.947  91.712  1.00  0.00     0.005 A 
HETATM   21  C   UNL     1       5.888   7.914  91.714  1.00  0.00     0.008 A 
BRANCH  19  22
HETATM   22  C   UNL     1       4.325  11.287  92.184  1.00  0.00     0.254 C 
HETATM   23  O   UNL     1       3.240  11.110  92.732  1.00  0.00    -0.268 OA
HETATM   24  N   UNL     1       4.718  12.466  91.567  1.00  0.00    -0.335 N 
HETATM   25  HN  UNL     1       5.641  12.548  91.157  1.00  0.00     0.164 HD
BRANCH  24  26
HETATM   26  C   UNL     1       3.870  13.630  91.506  1.00  0.00     0.166 C 
BRANCH  26  27
HETATM   27  C   UNL     1       4.027  14.543  92.728  1.00  0.00     0.138 C 
HETATM   28  C   UNL     1       2.685  14.967  93.316  1.00  0.00     0.034 C 
BRANCH  27  29
HETATM   29  O   UNL     1       4.781  13.869  93.735  1.00  0.00    -0.383 OA
HETATM   30  H   UNL     1       4.215  13.188  94.135  1.00  0.00     0.210 HD
ENDBRANCH  27  29
ENDBRANCH  26  27
BRANCH  26  31
HETATM   31  C   UNL     1       4.191  14.373  90.213  1.00  0.00     0.181 C 
HETATM   32  O   UNL     1       4.403  15.583  90.172  1.00  0.00    -0.294 OA
BRANCH  31  33
HETATM   33  C   UNL     1       5.407  13.672  89.402  1.00  0.00     0.138 C 
BRANCH  33  34
HETATM   34  C   UNL     1       4.720  13.132  88.292  1.00  0.00     0.208 C 
HETATM   35  O   UNL     1       5.051  13.549  87.206  1.00  0.00    -0.289 OA
BRANCH  34  36
HETATM   36  C   UNL     1       3.940  12.012  88.191  1.00  0.00     0.194 C 
HETATM   37  O   UNL     1       4.162  10.816  87.500  1.00  0.00    -0.185 OA
ENDBRANCH  34  36
ENDBRANCH  33  34
ENDBRANCH  31  33
ENDBRANCH  26  31
ENDBRANCH  24  26
ENDBRANCH  19  22
ENDBRANCH  15  16
ENDBRANCH  11  14
ENDBRANCH   7   8
ENDBRANCH   2   7
TORSDOF 12
ENDMDL
MODEL 2
REMARK VINA RESULT:      -5.8      2.621     12.686
REMARK  12 active torsions:
REMARK  status: ('A' for Active; 'I' for Inactive)
REMARK    1  A    between atoms: O_2  and  C_16 
REMARK    2  A    between atoms: N_5  and  C_9 
REMARK    3  A    between atoms: N_6  and  C_13 
REMARK       I    between atoms: N_6  and  C_22 
REMARK    4  A    between atoms: C_9  and  C_12 
REMARK    5  A    between atoms: C_13  and  C_16 
REMARK    6  A    between atoms: C_13  and  C_21 
REMARK    7  A    between atoms: C_19  and  C_24 
REMARK    8  A    between atoms: C_21  and  C_33 
REMARK    9  A    between atoms: C_22  and  C_23 
REMARK   10  A    between atoms: C_27  and  C_30 
REMARK   11  A    between atoms: C_33  and  C_34 
REMARK   12  A    between atoms: C_34  and  C_35 
ROOT
HETATM    1  O   UNL     1       2.840  15.003  94.124  1.00  0.00    -0.350 OA
HETATM    2  N   UNL     1       2.494  14.617  91.325  1.00  0.00     0.147 N 
HETATM    3  C   UNL     1       1.516  14.108  92.297  1.00  0.00     0.283 C 
HETATM    4  C   UNL     1       3.830  14.668  91.934  1.00  0.00     0.283 C 
HETATM    5  C   UNL     1       1.531  14.980  93.550  1.00  0.00     0.178 C 
HETATM    6  C   UNL     1       3.791  15.525  93.195  1.00  0.00     0.178 C 
ENDROOT
BRANCH   2   7
HETATM    7  C   UNL     1       2.504  13.790  90.119  1.00  0.00     0.277 C 
BRANCH   7   8
HETATM    8  C   UNL     1       3.473  12.661  90.213  1.00  0.00     0.011 A 
HETATM    9  C   UNL     1       4.606  12.646  89.398  1.00  0.00    -0.002 A 
HETATM   10  C   UNL     1       5.512  11.590  89.484  1.00  0.00     0.008 A 
HETATM   11  C   UNL     1       5.286  10.550  90.385  1.00  0.00     0.042 A 
HETATM   12  C   UNL     1       4.155  10.564  91.199  1.00  0.00     0.008 A 
HETATM   13  C   UNL     1       3.248  11.620  91.113  1.00  0.00    -0.002 A 
BRANCH  11  14
HETATM   14  C   UNL     1       6.217   9.467  90.474  1.00  0.00    -0.059 C 
HETATM   15  C   UNL     1       6.999   8.557  90.549  1.00  0.00    -0.059 C 
BRANCH  15  16
HETATM   16  C   UNL     1       7.929   7.475  90.638  1.00  0.00     0.042 A 
HETATM   17  C   UNL     1       8.926   7.331  89.673  1.00  0.00     0.008 A 
HETATM   18  C   UNL     1       9.835   6.277  89.762  1.00  0.00     0.005 A 
HETATM   19  C   UNL     1       9.727   5.391  90.813  1.00  0.00     0.056 A 
HETATM   20  C   UNL     1       8.750   5.511  91.780  1.00  0.00     0.005 A 
HETATM   21  C   UNL     1       7.841   6.565  91.692  1.00  0.00     0.008 A 
BRANCH  19  22
HETATM   22  C   UNL     1      10.694   4.266  90.906  1.00  0.00     0.254 C 
HETATM   23  O   UNL     1      10.412   3.189  90.388  1.00  0.00    -0.268 OA
HETATM   24  N   UNL     1      11.882   4.539  91.571  1.00  0.00    -0.335 N 
HETATM   25  HN  UNL     1      12.055   5.462  91.952  1.00  0.00     0.164 HD
BRANCH  24  26
HETATM   26  C   UNL     1      12.928   3.560  91.722  1.00  0.00     0.166 C 
BRANCH  26  27
HETATM   27  C   UNL     1      14.085   3.770  90.737  1.00  0.00     0.138 C 
HETATM   28  C   UNL     1      13.708   3.401  89.307  1.00  0.00     0.034 C 
BRANCH  27  29
HETATM   29  O   UNL     1      14.497   5.136  90.770  1.00  0.00    -0.383 OA
HETATM   30  H   UNL     1      13.719   5.685  90.962  1.00  0.00     0.210 HD
ENDBRANCH  27  29
ENDBRANCH  26  27
BRANCH  26  31
HETATM   31  C   UNL     1      13.413   3.617  93.167  1.00  0.00     0.181 C 
HETATM   32  O   UNL     1      12.657   3.796  94.121  1.00  0.00    -0.294 OA
BRANCH  31  33
HETATM   33  C   UNL     1      14.325   2.332  93.548  1.00  0.00     0.138 C 
BRANCH  33  34
HETATM   34  C   UNL     1      15.573   2.945  93.793  1.00  0.00     0.208 C 
HETATM   35  O   UNL     1      16.551   2.303  93.486  1.00  0.00    -0.289 OA
BRANCH  34  36
HETATM   36  C   UNL     1      15.884   4.252  94.052  1.00  0.00     0.194 C 
HETATM   37  O   UNL     1      15.909   5.362  93.200  1.00  0.00    -0.185 OA
ENDBRANCH  34  36
ENDBRANCH  33  34
ENDBRANCH  31  33
ENDBRANCH  26  31
ENDBRANCH  24  26
ENDBRANCH  19  22
ENDBRANCH  15  16
ENDBRANCH  11  14
ENDBRANCH   7   8
ENDBRANCH   2   7
TORSDOF 12
ENDMDL
MODEL 3
REMARK VINA RESULT:      -5.5      2.914     12.273
REMARK  12 active torsions:
REMARK  status: ('A' for Active; 'I' for Inactive)
REMARK    1  A    between atoms: O_2  and  C_16 
REMARK    2  A    between atoms: N_5  and  C_9 
REMARK    3  A    between atoms: N_6  and  C_13 
REMARK       I    between atoms: N_6  and  C_22 
REMARK    4  A    between atoms: C_9  and  C_12 
REMARK    5  A    between atoms: C_13  and  C_16 
REMARK    6  A    between atoms: C_13  and  C_21 
REMARK    7  A    between atoms: C_19  and  C_24 
REMARK    8  A    between atoms: C_21  and  C_33 
REMARK    9  A    between atoms: C_22  and  C_23 
REMARK   10  A    between atoms: C_27  and  C_30 
REMARK   11  A    between atoms: C_33  and  C_34 
REMARK   12  A    between atoms: C_34  and  C_35 
ROOT
HETATM    1  O   UNL     1       2.988  14.890  94.070  1.00  0.00    -0.350 OA
HETATM    2  N   UNL     1       2.577  14.811  91.254  1.00  0.00     0.147 N 
HETATM    3  C   UNL     1       1.652  14.148  92.184  1.00  0.00     0.283 C 
HETATM    4  C   UNL     1       3.927  14.856  91.833  1.00  0.00     0.283 C 
HETATM    5  C   UNL     1       1.665  14.870  93.529  1.00  0.00     0.178 C 
HETATM    6  C   UNL     1       3.887  15.560  93.186  1.00  0.00     0.178 C 
ENDROOT
BRANCH   2   7
HETATM    7  C   UNL     1       2.589  14.129  89.961  1.00  0.00     0.277 C 
BRANCH   7   8
HETATM    8  C   UNL     1       3.579  13.015  89.915  1.00  0.00     0.011 A 
HETATM    9  C   UNL     1       4.814  13.206  89.295  1.00  0.00    -0.002 A 
HETATM   10  C   UNL     1       5.740  12.164  89.250  1.00  0.00     0.008 A 
HETATM   11  C   UNL     1       5.431  10.932  89.827  1.00  0.00     0.042 A 
HETATM   12  C   UNL     1       4.198  10.741  90.447  1.00  0.00     0.008 A 
HETATM   13  C   UNL     1       3.271  11.782  90.491  1.00  0.00    -0.002 A 
BRANCH  11  14
HETATM   14  C   UNL     1       6.381   9.864  89.782  1.00  0.00    -0.059 C 
HETATM   15  C   UNL     1       7.180   8.966  89.746  1.00  0.00    -0.059 C 
BRANCH  15  16
HETATM   16  C   UNL     1       8.130   7.898  89.702  1.00  0.00     0.042 A 
HETATM   17  C   UNL     1       9.419   8.132  89.224  1.00  0.00     0.008 A 
HETATM   18  C   UNL     1      10.346   7.091  89.183  1.00  0.00     0.005 A 
HETATM   19  C   UNL     1       9.964   5.840  89.622  1.00  0.00     0.056 A 
HETATM   20  C   UNL     1       8.695   5.584  90.099  1.00  0.00     0.005 A 
HETATM   21  C   UNL     1       7.767   6.624  90.139  1.00  0.00     0.008 A 
BRANCH  19  22
HETATM   22  C   UNL     1      10.951   4.731  89.577  1.00  0.00     0.254 C 
HETATM   23  O   UNL     1      11.058   4.064  88.551  1.00  0.00    -0.268 OA
HETATM   24  N   UNL     1      11.712   4.547  90.723  1.00  0.00    -0.335 N 
HETATM   25  HN  UNL     1      11.587   5.154  91.525  1.00  0.00     0.164 HD
BRANCH  24  26
HETATM   26  C   UNL     1      12.727   3.530  90.826  1.00  0.00     0.166 C 
BRANCH  26  27
HETATM   27  C   UNL     1      14.112   4.103  91.152  1.00  0.00     0.138 C 
HETATM   28  C   UNL     1      15.235   3.109  90.878  1.00  0.00     0.034 C 
BRANCH  27  29
HETATM   29  O   UNL     1      14.336   5.280  90.377  1.00  0.00    -0.383 OA
HETATM   30  H   UNL     1      14.540   5.011  89.465  1.00  0.00     0.210 HD
ENDBRANCH  27  29
ENDBRANCH  26  27
BRANCH  26  31
HETATM   31  C   UNL     1      12.278   2.529  91.885  1.00  0.00     0.181 C 
HETATM   32  O   UNL     1      12.722   1.384  91.956  1.00  0.00    -0.294 OA
BRANCH  31  33
HETATM   33  C   UNL     1      12.380   3.147  93.380  1.00  0.00     0.138 C 
BRANCH  33  34
HETATM   34  C   UNL     1      11.260   4.007  93.398  1.00  0.00     0.208 C 
HETATM   35  O   UNL     1      10.245   3.568  92.908  1.00  0.00    -0.289 OA
BRANCH  34  36
HETATM   36  C   UNL     1      11.025   5.143  94.121  1.00  0.00     0.194 C 
HETATM   37  O   UNL     1      10.174   6.223  93.859  1.00  0.00    -0.185 OA
ENDBRANCH  34  36
ENDBRANCH  33  34
ENDBRANCH  31  33
ENDBRANCH  26  31
ENDBRANCH  24  26
ENDBRANCH  19  22
ENDBRANCH  15  16
ENDBRANCH  11  14
ENDBRANCH   7   8
ENDBRANCH   2   7
TORSDOF 12
ENDMDL
MODEL 4
REMARK VINA RESULT:      -4.0      1.716      2.072
REMARK  12 active torsions:
REMARK  status: ('A' for Active; 'I' for Inactive)
REMARK    1  A    between atoms: O_2  and  C_16 
REMARK    2  A    between atoms: N_5  and  C_9 
REMARK    3  A    between atoms: N_6  and  C_13 
REMARK       I    between atoms: N_6  and  C_22 
REMARK    4  A    between atoms: C_9  and  C_12 
REMARK    5  A    between atoms: C_13  and  C_16 
REMARK    6  A    between atoms: C_13  and  C_21 
REMARK    7  A    between atoms: C_19  and  C_24 
REMARK    8  A    between atoms: C_21  and  C_33 
REMARK    9  A    between atoms: C_22  and  C_23 
REMARK   10  A    between atoms: C_27  and  C_30 
REMARK   11  A    between atoms: C_33  and  C_34 
REMARK   12  A    between atoms: C_34  and  C_35 
ROOT
HETATM    1  O   UNL     1      15.742   2.635  90.685  1.00  0.00    -0.350 OA
HETATM    2  N   UNL     1      13.921   3.082  92.827  1.00  0.00     0.147 N 
HETATM    3  C   UNL     1      14.923   2.009  92.882  1.00  0.00     0.283 C 
HETATM    4  C   UNL     1      13.547   3.350  91.431  1.00  0.00     0.283 C 
HETATM    5  C   UNL     1      16.136   2.389  92.037  1.00  0.00     0.178 C 
HETATM    6  C   UNL     1      14.791   3.698  90.620  1.00  0.00     0.178 C 
ENDROOT
BRANCH   2   7
HETATM    7  C   UNL     1      12.745   2.734  93.622  1.00  0.00     0.277 C 
BRANCH   7   8
HETATM    8  C   UNL     1      11.597   3.651  93.370  1.00  0.00     0.011 A 
HETATM    9  C   UNL     1      10.664   3.343  92.379  1.00  0.00    -0.002 A 
HETATM   10  C   UNL     1       9.591   4.202  92.141  1.00  0.00     0.008 A 
HETATM   11  C   UNL     1       9.450   5.366  92.895  1.00  0.00     0.042 A 
HETATM   12  C   UNL     1      10.381   5.674  93.885  1.00  0.00     0.008 A 
HETATM   13  C   UNL     1      11.455   4.817  94.123  1.00  0.00    -0.002 A 
BRANCH  11  14
HETATM   14  C   UNL     1       8.348   6.246  92.652  1.00  0.00    -0.059 C 
HETATM   15  C   UNL     1       7.422   6.985  92.449  1.00  0.00    -0.059 C 
BRANCH  15  16
HETATM   16  C   UNL     1       6.321   7.865  92.206  1.00  0.00     0.042 A 
HETATM   17  C   UNL     1       6.556   9.203  91.889  1.00  0.00     0.008 A 
HETATM   18  C   UNL     1       5.482  10.060  91.650  1.00  0.00     0.005 A 
HETATM   19  C   UNL     1       4.199   9.560  91.731  1.00  0.00     0.056 A 
HETATM   20  C   UNL     1       3.941   8.242  92.043  1.00  0.00     0.005 A 
HETATM   21  C   UNL     1       5.014   7.384  92.283  1.00  0.00     0.008 A 
BRANCH  19  22
HETATM   22  C   UNL     1       3.055  10.474  91.478  1.00  0.00     0.254 C 
HETATM   23  O   UNL     1       2.016  10.019  91.006  1.00  0.00    -0.268 OA
HETATM   24  N   UNL     1       3.250  11.803  91.828  1.00  0.00    -0.335 N 
HETATM   25  HN  UNL     1       4.127  12.103  92.236  1.00  0.00     0.164 HD
BRANCH  24  26
HETATM   26  C   UNL     1       2.228  12.806  91.666  1.00  0.00     0.166 C 
BRANCH  26  27
HETATM   27  C   UNL     1       1.326  12.939  92.900  1.00  0.00     0.138 C 
HETATM   28  C   UNL     1       1.756  12.021  94.039  1.00  0.00     0.034 C 
BRANCH  27  29
HETATM   29  O   UNL     1       1.343  14.289  93.360  1.00  0.00    -0.383 OA
HETATM   30  H   UNL     1       2.260  14.612  93.324  1.00  0.00     0.210 HD
ENDBRANCH  27  29
ENDBRANCH  26  27
BRANCH  26  31
HETATM   31  C   UNL     1       2.917  14.126  91.338  1.00  0.00     0.181 C 
HETATM   32  O   UNL     1       4.055  14.399  91.717  1.00  0.00    -0.294 OA
BRANCH  31  33
HETATM   33  C   UNL     1       2.881  14.447  89.750  1.00  0.00     0.138 C 
BRANCH  33  34
HETATM   34  C   UNL     1       3.715  13.424  89.245  1.00  0.00     0.208 C 
HETATM   35  O   UNL     1       3.153  12.446  88.810  1.00  0.00    -0.289 OA
BRANCH  34  36
HETATM   36  C   UNL     1       5.037  13.450  88.894  1.00  0.00     0.194 C 
HETATM   37  O   UNL     1       5.965  12.408  88.791  1.00  0.00    -0.185 OA
ENDBRANCH  34  36
ENDBRANCH  33  34
ENDBRANCH  31  33
ENDBRANCH  26  31
ENDBRANCH  24  26
ENDBRANCH  19  22
ENDBRANCH  15  16
ENDBRANCH  11  14
ENDBRANCH   7   8
ENDBRANCH   2   7
TORSDOF 12
ENDMDL
