MODEL 1
REMARK VINA RESULT:      -6.8      0.000      0.000
REMARK  10 active torsions:
REMARK  status: ('A' for Active; 'I' for Inactive)
REMARK    1  A    between atoms: O_2  and  C_16 
REMARK    2  A    between atoms: N_5  and  C_9 
REMARK    3  A    between atoms: N_6  and  C_13 
REMARK       I    between atoms: N_6  and  C_22 
REMARK    4  A    between atoms: C_9  and  C_12 
REMARK    5  A    between atoms: C_13  and  C_16 
REMARK    6  A    between atoms: C_13  and  C_21 
REMARK    7  A    between atoms: C_19  and  C_24 
REMARK    8  A    between atoms: C_22  and  C_23 
REMARK    9  A    between atoms: C_27  and  C_30 
REMARK   10  A    between atoms: N_33  and  S_34 
ROOT
HETATM    1  C   UNL     1       5.671  11.090  89.612  1.00  0.00     0.056 A 
HETATM    2  C   UNL     1       7.032  11.312  89.619  1.00  0.00     0.005 A 
HETATM    3  C   UNL     1       5.126   9.849  89.872  1.00  0.00     0.005 A 
HETATM    4  C   UNL     1       7.362   8.982  90.163  1.00  0.00     0.042 A 
HETATM    5  C   UNL     1       7.888  10.247  89.898  1.00  0.00     0.008 A 
HETATM    6  C   UNL     1       5.981   8.783  90.150  1.00  0.00     0.008 A 
ENDROOT
BRANCH   1   7
HETATM    7  C   UNL     1       4.759  12.225  89.317  1.00  0.00     0.254 C 
HETATM    8  O   UNL     1       4.576  12.559  88.149  1.00  0.00    -0.268 OA
HETATM    9  N   UNL     1       4.153  12.819  90.415  1.00  0.00    -0.337 N 
HETATM   10  HN  UNL     1       4.334  12.473  91.350  1.00  0.00     0.164 HD
BRANCH   9  11
HETATM   11  C   UNL     1       3.226  13.915  90.291  1.00  0.00     0.172 C 
BRANCH  11  12
HETATM   12  C   UNL     1       1.891  13.647  90.998  1.00  0.00     0.136 C 
HETATM   13  C   UNL     1       1.966  12.463  91.956  1.00  0.00     0.034 C 
BRANCH  12  14
HETATM   14  O   UNL     1       1.496  14.808  91.727  1.00  0.00    -0.383 OA
HETATM   15  H   UNL     1       2.171  14.989  92.402  1.00  0.00     0.210 HD
ENDBRANCH  12  14
ENDBRANCH  11  12
BRANCH  11  16
HETATM   16  C   UNL     1       3.904  15.164  90.842  1.00  0.00     0.398 A 
HETATM   17  O   UNL     1       4.993  15.570  90.438  1.00  0.00    -0.136 OA
HETATM   18  N   UNL     1       4.940  15.625  91.956  1.00  0.00     0.142 N 
HETATM   19  HN  UNL     1       5.837  16.000  91.830  1.00  0.00     0.338 HD
BRANCH  18  20
HETATM   20  S   UNL     1       4.294  15.097  93.068  1.00  0.00     0.076 SA
HETATM   21  H   UNL     1       4.937  14.383  93.766  1.00  0.00     0.136 HD
ENDBRANCH  18  20
ENDBRANCH  11  16
ENDBRANCH   9  11
ENDBRANCH   1   7
BRANCH   4  22
HETATM   22  C   UNL     1       8.239   7.889  90.446  1.00  0.00    -0.059 C 
HETATM   23  C   UNL     1       8.976   6.969  90.684  1.00  0.00    -0.059 C 
BRANCH  23  24
HETATM   24  C   UNL     1       9.854   5.875  90.966  1.00  0.00     0.042 A 
HETATM   25  C   UNL     1      10.522   5.233  89.925  1.00  0.00     0.008 A 
HETATM   26  C   UNL     1      11.376   4.165  90.199  1.00  0.00    -0.002 A 
HETATM   27  C   UNL     1      11.563   3.741  91.516  1.00  0.00     0.011 A 
HETATM   28  C   UNL     1      10.894   4.386  92.556  1.00  0.00    -0.002 A 
HETATM   29  C   UNL     1      10.039   5.453  92.281  1.00  0.00     0.008 A 
BRANCH  27  30
HETATM   30  C   UNL     1      12.478   2.601  91.808  1.00  0.00     0.277 C 
BRANCH  30  31
HETATM   31  N   UNL     1      13.511   2.952  92.782  1.00  0.00     0.147 N 
HETATM   32  C   UNL     1      14.345   1.784  93.098  1.00  0.00     0.283 C 
HETATM   33  C   UNL     1      15.422   2.176  94.106  1.00  0.00     0.178 C 
HETATM   34  O   UNL     1      16.226   3.238  93.588  1.00  0.00    -0.350 OA
HETATM   35  C   UNL     1      15.427   4.387  93.307  1.00  0.00     0.178 C 
HETATM   36  C   UNL     1      14.350   4.049  92.281  1.00  0.00     0.283 C 
ENDBRANCH  30  31
ENDBRANCH  27  30
ENDBRANCH  23  24
ENDBRANCH   4  22
TORSDOF 10
ENDMDL
