MODEL 1
REMARK VINA RESULT:      -7.0      0.000      0.000
REMARK  10 active torsions:
REMARK  status: ('A' for Active; 'I' for Inactive)
REMARK    1  A    between atoms: O_2  and  C_16 
REMARK    2  A    between atoms: N_5  and  C_9 
REMARK    3  A    between atoms: N_6  and  C_13 
REMARK       I    between atoms: N_6  and  C_22 
REMARK    4  A    between atoms: C_9  and  C_12 
REMARK    5  A    between atoms: C_13  and  C_16 
REMARK    6  A    between atoms: C_13  and  C_21 
REMARK    7  A    between atoms: C_19  and  C_24 
REMARK    8  A    between atoms: C_22  and  C_23 
REMARK    9  A    between atoms: C_27  and  C_30 
REMARK   10  A    between atoms: N_33  and  S_34 
ROOT
HETATM    1  C   UNL     1       5.688  10.953  89.577  1.00  0.00     0.056 A 
HETATM    2  C   UNL     1       5.165   9.774  90.066  1.00  0.00     0.005 A 
HETATM    3  C   UNL     1       7.037  11.121  89.348  1.00  0.00     0.005 A 
HETATM    4  C   UNL     1       7.401   8.861  90.119  1.00  0.00     0.042 A 
HETATM    5  C   UNL     1       6.031   8.715  90.341  1.00  0.00     0.008 A 
HETATM    6  C   UNL     1       7.904  10.064  89.623  1.00  0.00     0.008 A 
ENDROOT
BRANCH   1   7
HETATM    7  C   UNL     1       4.764  12.079  89.282  1.00  0.00     0.254 C 
HETATM    8  O   UNL     1       4.596  12.427  88.116  1.00  0.00    -0.268 OA
HETATM    9  N   UNL     1       4.130  12.648  90.378  1.00  0.00    -0.337 N 
HETATM   10  HN  UNL     1       4.299  12.291  91.311  1.00  0.00     0.164 HD
BRANCH   9  11
HETATM   11  C   UNL     1       3.188  13.731  90.253  1.00  0.00     0.172 C 
BRANCH  11  12
HETATM   12  C   UNL     1       1.936  13.532  91.115  1.00  0.00     0.136 C 
HETATM   13  C   UNL     1       2.157  12.529  92.243  1.00  0.00     0.034 C 
BRANCH  12  14
HETATM   14  O   UNL     1       1.539  14.782  91.678  1.00  0.00    -0.383 OA
HETATM   15  H   UNL     1       0.635  14.978  91.379  1.00  0.00     0.210 HD
ENDBRANCH  12  14
ENDBRANCH  11  12
BRANCH  11  16
HETATM   16  C   UNL     1       3.913  15.022  90.618  1.00  0.00     0.398 A 
HETATM   17  O   UNL     1       5.028  15.310  90.186  1.00  0.00    -0.136 OA
HETATM   18  N   UNL     1       4.945  15.610  91.674  1.00  0.00     0.142 N 
HETATM   19  HN  UNL     1       5.862  15.922  91.516  1.00  0.00     0.338 HD
BRANCH  18  20
HETATM   20  S   UNL     1       4.250  15.296  92.836  1.00  0.00     0.076 SA
HETATM   21  H   UNL     1       3.201  14.754  92.698  1.00  0.00     0.136 HD
ENDBRANCH  18  20
ENDBRANCH  11  16
ENDBRANCH   9  11
ENDBRANCH   1   7
BRANCH   4  22
HETATM   22  C   UNL     1       8.289   7.777  90.403  1.00  0.00    -0.059 C 
HETATM   23  C   UNL     1       9.036   6.866  90.641  1.00  0.00    -0.059 C 
BRANCH  23  24
HETATM   24  C   UNL     1       9.926   5.782  90.925  1.00  0.00     0.042 A 
HETATM   25  C   UNL     1      10.736   5.263  89.915  1.00  0.00     0.008 A 
HETATM   26  C   UNL     1      11.602   4.205  90.191  1.00  0.00    -0.002 A 
HETATM   27  C   UNL     1      11.658   3.668  91.478  1.00  0.00     0.011 A 
HETATM   28  C   UNL     1      10.847   4.188  92.487  1.00  0.00    -0.002 A 
HETATM   29  C   UNL     1       9.981   5.246  92.210  1.00  0.00     0.008 A 
BRANCH  27  30
HETATM   30  C   UNL     1      12.586   2.538  91.772  1.00  0.00     0.277 C 
BRANCH  30  31
HETATM   31  N   UNL     1      13.587   2.888  92.778  1.00  0.00     0.147 N 
HETATM   32  C   UNL     1      14.445   1.734  93.081  1.00  0.00     0.283 C 
HETATM   33  C   UNL     1      15.489   2.125  94.124  1.00  0.00     0.178 C 
HETATM   34  O   UNL     1      16.275   3.222  93.653  1.00  0.00    -0.350 OA
HETATM   35  C   UNL     1      15.452   4.358  93.386  1.00  0.00     0.178 C 
HETATM   36  C   UNL     1      14.408   4.020  92.327  1.00  0.00     0.283 C 
ENDBRANCH  30  31
ENDBRANCH  27  30
ENDBRANCH  23  24
ENDBRANCH   4  22
TORSDOF 10
ENDMDL
MODEL 2
REMARK VINA RESULT:      -6.9      1.180      1.737
REMARK  10 active torsions:
REMARK  status: ('A' for Active; 'I' for Inactive)
REMARK    1  A    between atoms: O_2  and  C_16 
REMARK    2  A    between atoms: N_5  and  C_9 
REMARK    3  A    between atoms: N_6  and  C_13 
REMARK       I    between atoms: N_6  and  C_22 
REMARK    4  A    between atoms: C_9  and  C_12 
REMARK    5  A    between atoms: C_13  and  C_16 
REMARK    6  A    between atoms: C_13  and  C_21 
REMARK    7  A    between atoms: C_19  and  C_24 
REMARK    8  A    between atoms: C_22  and  C_23 
REMARK    9  A    between atoms: C_27  and  C_30 
REMARK   10  A    between atoms: N_33  and  S_34 
ROOT
HETATM    1  C   UNL     1       4.982   9.886  89.973  1.00  0.00     0.056 A 
HETATM    2  C   UNL     1       6.309  10.255  89.903  1.00  0.00     0.005 A 
HETATM    3  C   UNL     1       4.590   8.602  90.289  1.00  0.00     0.005 A 
HETATM    4  C   UNL     1       6.919   7.990  90.480  1.00  0.00     0.042 A 
HETATM    5  C   UNL     1       7.289   9.296  90.159  1.00  0.00     0.008 A 
HETATM    6  C   UNL     1       5.570   7.643  90.546  1.00  0.00     0.008 A 
ENDROOT
BRANCH   1   7
HETATM    7  C   UNL     1       3.938  10.908  89.703  1.00  0.00     0.254 C 
HETATM    8  O   UNL     1       3.125  10.711  88.803  1.00  0.00    -0.268 OA
HETATM    9  N   UNL     1       3.951  12.024  90.528  1.00  0.00    -0.337 N 
HETATM   10  HN  UNL     1       4.638  12.107  91.268  1.00  0.00     0.164 HD
BRANCH   9  11
HETATM   11  C   UNL     1       2.988  13.090  90.406  1.00  0.00     0.172 C 
BRANCH  11  12
HETATM   12  C   UNL     1       2.583  13.681  91.762  1.00  0.00     0.136 C 
HETATM   13  C   UNL     1       1.189  13.243  92.197  1.00  0.00     0.034 C 
BRANCH  12  14
HETATM   14  O   UNL     1       3.526  13.283  92.757  1.00  0.00    -0.383 OA
HETATM   15  H   UNL     1       3.912  14.084  93.149  1.00  0.00     0.210 HD
ENDBRANCH  12  14
ENDBRANCH  11  12
BRANCH  11  16
HETATM   16  C   UNL     1       3.586  14.155  89.493  1.00  0.00     0.398 A 
HETATM   17  O   UNL     1       4.273  13.885  88.510  1.00  0.00    -0.136 OA
HETATM   18  N   UNL     1       4.900  15.025  89.296  1.00  0.00     0.142 N 
HETATM   19  HN  UNL     1       5.553  14.979  88.565  1.00  0.00     0.338 HD
BRANCH  18  20
HETATM   20  S   UNL     1       4.940  15.623  90.550  1.00  0.00     0.076 SA
HETATM   21  H   UNL     1       5.451  14.996  91.421  1.00  0.00     0.136 HD
ENDBRANCH  18  20
ENDBRANCH  11  16
ENDBRANCH   9  11
ENDBRANCH   1   7
BRANCH   4  22
HETATM   22  C   UNL     1       7.924   7.007  90.740  1.00  0.00    -0.059 C 
HETATM   23  C   UNL     1       8.769   6.181  90.959  1.00  0.00    -0.059 C 
BRANCH  23  24
HETATM   24  C   UNL     1       9.775   5.197  91.219  1.00  0.00     0.042 A 
HETATM   25  C   UNL     1      10.162   4.928  92.532  1.00  0.00     0.008 A 
HETATM   26  C   UNL     1      11.144   3.971  92.786  1.00  0.00    -0.002 A 
HETATM   27  C   UNL     1      11.736   3.281  91.728  1.00  0.00     0.011 A 
HETATM   28  C   UNL     1      11.347   3.550  90.416  1.00  0.00    -0.002 A 
HETATM   29  C   UNL     1      10.366   4.509  90.162  1.00  0.00     0.008 A 
BRANCH  27  30
HETATM   30  C   UNL     1      12.784   2.256  92.001  1.00  0.00     0.277 C 
BRANCH  30  31
HETATM   31  N   UNL     1      13.818   2.746  92.911  1.00  0.00     0.147 N 
HETATM   32  C   UNL     1      14.812   1.697  93.181  1.00  0.00     0.283 C 
HETATM   33  C   UNL     1      15.886   2.234  94.123  1.00  0.00     0.178 C 
HETATM   34  O   UNL     1      16.516   3.385  93.556  1.00  0.00    -0.350 OA
HETATM   35  C   UNL     1      15.561   4.420  93.319  1.00  0.00     0.178 C 
HETATM   36  C   UNL     1      14.479   3.936  92.359  1.00  0.00     0.283 C 
ENDBRANCH  30  31
ENDBRANCH  27  30
ENDBRANCH  23  24
ENDBRANCH   4  22
TORSDOF 10
ENDMDL
MODEL 3
REMARK VINA RESULT:      -6.7      1.443      2.151
REMARK  10 active torsions:
REMARK  status: ('A' for Active; 'I' for Inactive)
REMARK    1  A    between atoms: O_2  and  C_16 
REMARK    2  A    between atoms: N_5  and  C_9 
REMARK    3  A    between atoms: N_6  and  C_13 
REMARK       I    between atoms: N_6  and  C_22 
REMARK    4  A    between atoms: C_9  and  C_12 
REMARK    5  A    between atoms: C_13  and  C_16 
REMARK    6  A    between atoms: C_13  and  C_21 
REMARK    7  A    between atoms: C_19  and  C_24 
REMARK    8  A    between atoms: C_22  and  C_23 
REMARK    9  A    between atoms: C_27  and  C_30 
REMARK   10  A    between atoms: N_33  and  S_34 
ROOT
HETATM    1  C   UNL     1       5.479  10.764  90.826  1.00  0.00     0.056 A 
HETATM    2  C   UNL     1       5.903  10.429  92.095  1.00  0.00     0.005 A 
HETATM    3  C   UNL     1       5.945  10.119  89.700  1.00  0.00     0.005 A 
HETATM    4  C   UNL     1       7.324   8.735  91.121  1.00  0.00     0.042 A 
HETATM    5  C   UNL     1       6.836   9.403  92.245  1.00  0.00     0.008 A 
HETATM    6  C   UNL     1       6.878   9.093  89.848  1.00  0.00     0.008 A 
ENDROOT
BRANCH   1   7
HETATM    7  C   UNL     1       4.484  11.856  90.667  1.00  0.00     0.254 C 
HETATM    8  O   UNL     1       3.603  11.745  89.818  1.00  0.00    -0.268 OA
HETATM    9  N   UNL     1       4.619  12.932  91.532  1.00  0.00    -0.337 N 
HETATM   10  HN  UNL     1       5.357  12.943  92.226  1.00  0.00     0.164 HD
BRANCH   9  11
HETATM   11  C   UNL     1       3.718  14.056  91.518  1.00  0.00     0.172 C 
BRANCH  11  12
HETATM   12  C   UNL     1       3.773  14.846  90.204  1.00  0.00     0.136 C 
HETATM   13  C   UNL     1       5.201  15.069  89.717  1.00  0.00     0.034 C 
BRANCH  12  14
HETATM   14  O   UNL     1       3.044  14.146  89.196  1.00  0.00    -0.383 OA
HETATM   15  H   UNL     1       2.608  14.801  88.625  1.00  0.00     0.210 HD
ENDBRANCH  12  14
ENDBRANCH  11  12
BRANCH  11  16
HETATM   16  C   UNL     1       2.312  13.530  91.790  1.00  0.00     0.398 A 
HETATM   17  O   UNL     1       1.305  14.229  91.694  1.00  0.00    -0.136 OA
HETATM   18  N   UNL     1       1.245  13.387  92.958  1.00  0.00     0.142 N 
HETATM   19  HN  UNL     1       0.376  13.834  93.042  1.00  0.00     0.338 HD
BRANCH  18  20
HETATM   20  S   UNL     1       2.029  12.684  93.866  1.00  0.00     0.076 SA
HETATM   21  H   UNL     1       1.577  12.537  94.955  1.00  0.00     0.136 HD
ENDBRANCH  18  20
ENDBRANCH  11  16
ENDBRANCH   9  11
ENDBRANCH   1   7
BRANCH   4  22
HETATM   22  C   UNL     1       8.282   7.685  91.274  1.00  0.00    -0.059 C 
HETATM   23  C   UNL     1       9.089   6.803  91.403  1.00  0.00    -0.059 C 
BRANCH  23  24
HETATM   24  C   UNL     1      10.048   5.753  91.557  1.00  0.00     0.042 A 
HETATM   25  C   UNL     1      10.386   5.301  92.832  1.00  0.00     0.008 A 
HETATM   26  C   UNL     1      11.323   4.278  92.983  1.00  0.00    -0.002 A 
HETATM   27  C   UNL     1      11.919   3.707  91.858  1.00  0.00     0.011 A 
HETATM   28  C   UNL     1      11.579   4.161  90.583  1.00  0.00    -0.002 A 
HETATM   29  C   UNL     1      10.643   5.183  90.433  1.00  0.00     0.008 A 
BRANCH  27  30
HETATM   30  C   UNL     1      12.919   2.613  92.020  1.00  0.00     0.277 C 
BRANCH  30  31
HETATM   31  N   UNL     1      13.957   2.947  92.994  1.00  0.00     0.147 N 
HETATM   32  C   UNL     1      14.932   1.853  93.111  1.00  0.00     0.283 C 
HETATM   33  C   UNL     1      16.010   2.228  94.124  1.00  0.00     0.178 C 
HETATM   34  O   UNL     1      16.662   3.438  93.732  1.00  0.00    -0.350 OA
HETATM   35  C   UNL     1      15.726   4.513  93.646  1.00  0.00     0.178 C 
HETATM   36  C   UNL     1      14.640   4.193  92.623  1.00  0.00     0.283 C 
ENDBRANCH  30  31
ENDBRANCH  27  30
ENDBRANCH  23  24
ENDBRANCH   4  22
TORSDOF 10
ENDMDL
MODEL 4
REMARK VINA RESULT:      -6.6      1.383      1.469
REMARK  10 active torsions:
REMARK  status: ('A' for Active; 'I' for Inactive)
REMARK    1  A    between atoms: O_2  and  C_16 
REMARK    2  A    between atoms: N_5  and  C_9 
REMARK    3  A    between atoms: N_6  and  C_13 
REMARK       I    between atoms: N_6  and  C_22 
REMARK    4  A    between atoms: C_9  and  C_12 
REMARK    5  A    between atoms: C_13  and  C_16 
REMARK    6  A    between atoms: C_13  and  C_21 
REMARK    7  A    between atoms: C_19  and  C_24 
REMARK    8  A    between atoms: C_22  and  C_23 
REMARK    9  A    between atoms: C_27  and  C_30 
REMARK   10  A    between atoms: N_33  and  S_34 
ROOT
HETATM    1  C   UNL     1       5.357   9.730  89.997  1.00  0.00     0.056 A 
HETATM    2  C   UNL     1       5.236   8.441  89.522  1.00  0.00     0.005 A 
HETATM    3  C   UNL     1       6.446  10.141  90.738  1.00  0.00     0.005 A 
HETATM    4  C   UNL     1       7.358   7.913  90.547  1.00  0.00     0.042 A 
HETATM    5  C   UNL     1       6.247   7.521  89.799  1.00  0.00     0.008 A 
HETATM    6  C   UNL     1       7.458   9.223  91.016  1.00  0.00     0.008 A 
ENDROOT
BRANCH   1   7
HETATM    7  C   UNL     1       4.281  10.710  89.699  1.00  0.00     0.254 C 
HETATM    8  O   UNL     1       3.484  10.469  88.796  1.00  0.00    -0.268 OA
HETATM    9  N   UNL     1       4.247  11.839  90.505  1.00  0.00    -0.337 N 
HETATM   10  HN  UNL     1       4.924  11.959  91.250  1.00  0.00     0.164 HD
BRANCH   9  11
HETATM   11  C   UNL     1       3.249  12.868  90.357  1.00  0.00     0.172 C 
BRANCH  11  12
HETATM   12  C   UNL     1       2.889  13.543  91.686  1.00  0.00     0.136 C 
HETATM   13  C   UNL     1       1.488  13.179  92.165  1.00  0.00     0.034 C 
BRANCH  12  14
HETATM   14  O   UNL     1       3.834  13.162  92.686  1.00  0.00    -0.383 OA
HETATM   15  H   UNL     1       3.921  12.194  92.670  1.00  0.00     0.210 HD
ENDBRANCH  12  14
ENDBRANCH  11  12
BRANCH  11  16
HETATM   16  C   UNL     1       3.772  13.882  89.344  1.00  0.00     0.398 A 
HETATM   17  O   UNL     1       4.531  13.580  88.425  1.00  0.00    -0.136 OA
HETATM   18  N   UNL     1       4.994  14.865  89.091  1.00  0.00     0.142 N 
HETATM   19  HN  UNL     1       5.682  14.809  88.394  1.00  0.00     0.338 HD
BRANCH  18  20
HETATM   20  S   UNL     1       4.910  15.604  90.266  1.00  0.00     0.076 SA
HETATM   21  H   UNL     1       4.594  15.009  91.245  1.00  0.00     0.136 HD
ENDBRANCH  18  20
ENDBRANCH  11  16
ENDBRANCH   9  11
ENDBRANCH   1   7
BRANCH   4  22
HETATM   22  C   UNL     1       8.393   6.970  90.834  1.00  0.00    -0.059 C 
HETATM   23  C   UNL     1       9.264   6.177  91.076  1.00  0.00    -0.059 C 
BRANCH  23  24
HETATM   24  C   UNL     1      10.300   5.233  91.364  1.00  0.00     0.042 A 
HETATM   25  C   UNL     1      11.067   4.703  90.327  1.00  0.00     0.008 A 
HETATM   26  C   UNL     1      12.076   3.781  90.608  1.00  0.00    -0.002 A 
HETATM   27  C   UNL     1      12.318   3.393  91.926  1.00  0.00     0.011 A 
HETATM   28  C   UNL     1      11.551   3.925  92.962  1.00  0.00    -0.002 A 
HETATM   29  C   UNL     1      10.542   4.846  92.681  1.00  0.00     0.008 A 
BRANCH  27  30
HETATM   30  C   UNL     1      13.399   2.410  92.225  1.00  0.00     0.277 C 
BRANCH  30  31
HETATM   31  N   UNL     1      14.399   2.944  93.147  1.00  0.00     0.147 N 
HETATM   32  C   UNL     1      15.598   2.096  93.163  1.00  0.00     0.283 C 
HETATM   33  C   UNL     1      16.632   2.679  94.123  1.00  0.00     0.178 C 
HETATM   34  O   UNL     1      16.970   4.013  93.739  1.00  0.00    -0.350 OA
HETATM   35  C   UNL     1      15.814   4.852  93.751  1.00  0.00     0.178 C 
HETATM   36  C   UNL     1      14.761   4.321  92.784  1.00  0.00     0.283 C 
ENDBRANCH  30  31
ENDBRANCH  27  30
ENDBRANCH  23  24
ENDBRANCH   4  22
TORSDOF 10
ENDMDL
MODEL 5
REMARK VINA RESULT:      -5.9      2.055      2.782
REMARK  10 active torsions:
REMARK  status: ('A' for Active; 'I' for Inactive)
REMARK    1  A    between atoms: O_2  and  C_16 
REMARK    2  A    between atoms: N_5  and  C_9 
REMARK    3  A    between atoms: N_6  and  C_13 
REMARK       I    between atoms: N_6  and  C_22 
REMARK    4  A    between atoms: C_9  and  C_12 
REMARK    5  A    between atoms: C_13  and  C_16 
REMARK    6  A    between atoms: C_13  and  C_21 
REMARK    7  A    between atoms: C_19  and  C_24 
REMARK    8  A    between atoms: C_22  and  C_23 
REMARK    9  A    between atoms: C_27  and  C_30 
REMARK   10  A    between atoms: N_33  and  S_34 
ROOT
HETATM    1  C   UNL     1       5.205   9.972  92.722  1.00  0.00     0.056 A 
HETATM    2  C   UNL     1       6.453  10.313  92.244  1.00  0.00     0.005 A 
HETATM    3  C   UNL     1       4.896   8.689  93.124  1.00  0.00     0.005 A 
HETATM    4  C   UNL     1       7.150   8.023  92.565  1.00  0.00     0.042 A 
HETATM    5  C   UNL     1       7.437   9.328  92.165  1.00  0.00     0.008 A 
HETATM    6  C   UNL     1       5.879   7.703  93.044  1.00  0.00     0.008 A 
ENDROOT
BRANCH   1   7
HETATM    7  C   UNL     1       4.157  11.022  92.808  1.00  0.00     0.254 C 
HETATM    8  O   UNL     1       3.238  10.887  93.612  1.00  0.00    -0.268 OA
HETATM    9  N   UNL     1       4.319  12.114  91.967  1.00  0.00    -0.337 N 
HETATM   10  HN  UNL     1       5.118  12.168  91.346  1.00  0.00     0.164 HD
BRANCH   9  11
HETATM   11  C   UNL     1       3.401  13.224  91.951  1.00  0.00     0.172 C 
BRANCH  11  12
HETATM   12  C   UNL     1       3.732  14.282  93.011  1.00  0.00     0.136 C 
HETATM   13  C   UNL     1       4.402  15.516  92.416  1.00  0.00     0.034 C 
BRANCH  12  14
HETATM   14  O   UNL     1       2.535  14.682  93.677  1.00  0.00    -0.383 OA
HETATM   15  H   UNL     1       1.791  14.194  93.285  1.00  0.00     0.210 HD
ENDBRANCH  12  14
ENDBRANCH  11  12
BRANCH  11  16
HETATM   16  C   UNL     1       3.416  13.821  90.548  1.00  0.00     0.398 A 
HETATM   17  O   UNL     1       2.400  13.966  89.871  1.00  0.00    -0.136 OA
HETATM   18  N   UNL     1       3.525  13.398  89.021  1.00  0.00     0.142 N 
HETATM   19  HN  UNL     1       2.838  13.466  88.324  1.00  0.00     0.338 HD
BRANCH  18  20
HETATM   20  S   UNL     1       4.729  12.706  89.085  1.00  0.00     0.076 SA
HETATM   21  H   UNL     1       5.701  13.351  89.311  1.00  0.00     0.136 HD
ENDBRANCH  18  20
ENDBRANCH  11  16
ENDBRANCH   9  11
ENDBRANCH   1   7
BRANCH   4  22
HETATM   22  C   UNL     1       8.157   7.012  92.480  1.00  0.00    -0.059 C 
HETATM   23  C   UNL     1       9.005   6.162  92.409  1.00  0.00    -0.059 C 
BRANCH  23  24
HETATM   24  C   UNL     1      10.013   5.150  92.324  1.00  0.00     0.042 A 
HETATM   25  C   UNL     1      10.228   4.482  91.120  1.00  0.00     0.008 A 
HETATM   26  C   UNL     1      11.209   3.494  91.037  1.00  0.00    -0.002 A 
HETATM   27  C   UNL     1      11.976   3.177  92.159  1.00  0.00     0.011 A 
HETATM   28  C   UNL     1      11.760   3.848  93.362  1.00  0.00    -0.002 A 
HETATM   29  C   UNL     1      10.778   4.835  93.445  1.00  0.00     0.008 A 
BRANCH  27  30
HETATM   30  C   UNL     1      13.026   2.123  92.068  1.00  0.00     0.277 C 
BRANCH  30  31
HETATM   31  N   UNL     1      14.354   2.628  92.415  1.00  0.00     0.147 N 
HETATM   32  C   UNL     1      14.400   4.092  92.297  1.00  0.00     0.283 C 
HETATM   33  C   UNL     1      15.791   4.597  92.674  1.00  0.00     0.178 C 
HETATM   34  O   UNL     1      16.123   4.192  94.003  1.00  0.00    -0.350 OA
HETATM   35  C   UNL     1      16.111   2.769  94.118  1.00  0.00     0.178 C 
HETATM   36  C   UNL     1      14.729   2.220  93.775  1.00  0.00     0.283 C 
ENDBRANCH  30  31
ENDBRANCH  27  30
ENDBRANCH  23  24
ENDBRANCH   4  22
TORSDOF 10
ENDMDL
MODEL 6
REMARK VINA RESULT:      -5.9      2.658      3.681
REMARK  10 active torsions:
REMARK  status: ('A' for Active; 'I' for Inactive)
REMARK    1  A    between atoms: O_2  and  C_16 
REMARK    2  A    between atoms: N_5  and  C_9 
REMARK    3  A    between atoms: N_6  and  C_13 
REMARK       I    between atoms: N_6  and  C_22 
REMARK    4  A    between atoms: C_9  and  C_12 
REMARK    5  A    between atoms: C_13  and  C_16 
REMARK    6  A    between atoms: C_13  and  C_21 
REMARK    7  A    between atoms: C_19  and  C_24 
REMARK    8  A    between atoms: C_22  and  C_23 
REMARK    9  A    between atoms: C_27  and  C_30 
REMARK   10  A    between atoms: N_33  and  S_34 
ROOT
HETATM    1  C   UNL     1       6.170   7.630  88.405  1.00  0.00     0.056 A 
HETATM    2  C   UNL     1       7.473   7.705  87.958  1.00  0.00     0.005 A 
HETATM    3  C   UNL     1       5.815   6.892  89.515  1.00  0.00     0.005 A 
HETATM    4  C   UNL     1       8.131   6.259  89.777  1.00  0.00     0.042 A 
HETATM    5  C   UNL     1       8.465   7.012  88.651  1.00  0.00     0.008 A 
HETATM    6  C   UNL     1       6.806   6.198  90.209  1.00  0.00     0.008 A 
ENDROOT
BRANCH   1   7
HETATM    7  C   UNL     1       5.114   8.370  87.668  1.00  0.00     0.254 C 
HETATM    8  O   UNL     1       5.095   8.323  86.440  1.00  0.00    -0.268 OA
HETATM    9  N   UNL     1       4.194   9.055  88.449  1.00  0.00    -0.337 N 
HETATM   10  HN  UNL     1       4.258   9.028  89.460  1.00  0.00     0.164 HD
BRANCH   9  11
HETATM   11  C   UNL     1       3.098   9.799  87.883  1.00  0.00     0.172 C 
BRANCH  11  12
HETATM   12  C   UNL     1       1.728   9.237  88.284  1.00  0.00     0.136 C 
HETATM   13  C   UNL     1       1.276   8.099  87.375  1.00  0.00     0.034 C 
BRANCH  12  14
HETATM   14  O   UNL     1       1.782   8.763  89.629  1.00  0.00    -0.383 OA
HETATM   15  H   UNL     1       2.097   9.487  90.195  1.00  0.00     0.210 HD
ENDBRANCH  12  14
ENDBRANCH  11  12
BRANCH  11  16
HETATM   16  C   UNL     1       3.248  11.254  88.317  1.00  0.00     0.398 A 
HETATM   17  O   UNL     1       4.030  12.036  87.778  1.00  0.00    -0.136 OA
HETATM   18  N   UNL     1       4.100  12.176  89.290  1.00  0.00     0.142 N 
HETATM   19  HN  UNL     1       4.747  12.874  89.051  1.00  0.00     0.338 HD
BRANCH  18  20
HETATM   20  S   UNL     1       3.836  11.513  90.484  1.00  0.00     0.076 SA
HETATM   21  H   UNL     1       4.578  11.729  91.386  1.00  0.00     0.136 HD
ENDBRANCH  18  20
ENDBRANCH  11  16
ENDBRANCH   9  11
ENDBRANCH   1   7
BRANCH   4  22
HETATM   22  C   UNL     1       9.147   5.546  90.486  1.00  0.00    -0.059 C 
HETATM   23  C   UNL     1      10.002   4.945  91.082  1.00  0.00    -0.059 C 
BRANCH  23  24
HETATM   24  C   UNL     1      11.019   4.231  91.791  1.00  0.00     0.042 A 
HETATM   25  C   UNL     1      11.151   4.392  93.170  1.00  0.00     0.008 A 
HETATM   26  C   UNL     1      12.143   3.698  93.861  1.00  0.00    -0.002 A 
HETATM   27  C   UNL     1      13.003   2.840  93.172  1.00  0.00     0.011 A 
HETATM   28  C   UNL     1      12.869   2.680  91.793  1.00  0.00    -0.002 A 
HETATM   29  C   UNL     1      11.876   3.375  91.102  1.00  0.00     0.008 A 
BRANCH  27  30
HETATM   30  C   UNL     1      14.062   2.097  93.912  1.00  0.00     0.277 C 
BRANCH  30  31
HETATM   31  N   UNL     1      15.263   2.903  94.124  1.00  0.00     0.147 N 
HETATM   32  C   UNL     1      16.349   2.461  93.238  1.00  0.00     0.283 C 
HETATM   33  C   UNL     1      17.588   3.323  93.469  1.00  0.00     0.178 C 
HETATM   34  O   UNL     1      17.285   4.700  93.240  1.00  0.00    -0.350 OA
HETATM   35  C   UNL     1      16.251   5.145  94.119  1.00  0.00     0.178 C 
HETATM   36  C   UNL     1      14.982   4.328  93.904  1.00  0.00     0.283 C 
ENDBRANCH  30  31
ENDBRANCH  27  30
ENDBRANCH  23  24
ENDBRANCH   4  22
TORSDOF 10
ENDMDL
MODEL 7
REMARK VINA RESULT:      -5.6      3.577     12.373
REMARK  10 active torsions:
REMARK  status: ('A' for Active; 'I' for Inactive)
REMARK    1  A    between atoms: O_2  and  C_16 
REMARK    2  A    between atoms: N_5  and  C_9 
REMARK    3  A    between atoms: N_6  and  C_13 
REMARK       I    between atoms: N_6  and  C_22 
REMARK    4  A    between atoms: C_9  and  C_12 
REMARK    5  A    between atoms: C_13  and  C_16 
REMARK    6  A    between atoms: C_13  and  C_21 
REMARK    7  A    between atoms: C_19  and  C_24 
REMARK    8  A    between atoms: C_22  and  C_23 
REMARK    9  A    between atoms: C_27  and  C_30 
REMARK   10  A    between atoms: N_33  and  S_34 
ROOT
HETATM    1  C   UNL     1      10.075   5.761  89.780  1.00  0.00     0.056 A 
HETATM    2  C   UNL     1       9.621   6.216  91.001  1.00  0.00     0.005 A 
HETATM    3  C   UNL     1       9.641   6.299  88.587  1.00  0.00     0.005 A 
HETATM    4  C   UNL     1       8.236   7.816  89.836  1.00  0.00     0.042 A 
HETATM    5  C   UNL     1       8.691   7.255  91.030  1.00  0.00     0.008 A 
HETATM    6  C   UNL     1       8.711   7.338  88.614  1.00  0.00     0.008 A 
ENDROOT
BRANCH   1   7
HETATM    7  C   UNL     1      11.067   4.656  89.750  1.00  0.00     0.254 C 
HETATM    8  O   UNL     1      11.231   4.025  88.709  1.00  0.00    -0.268 OA
HETATM    9  N   UNL     1      11.767   4.435  90.929  1.00  0.00    -0.337 N 
HETATM   10  HN  UNL     1      11.596   5.013  91.743  1.00  0.00     0.164 HD
BRANCH   9  11
HETATM   11  C   UNL     1      12.779   3.416  91.050  1.00  0.00     0.172 C 
BRANCH  11  12
HETATM   12  C   UNL     1      14.196   3.996  91.143  1.00  0.00     0.136 C 
HETATM   13  C   UNL     1      15.261   3.012  90.671  1.00  0.00     0.034 C 
BRANCH  12  14
HETATM   14  O   UNL     1      14.279   5.182  90.355  1.00  0.00    -0.383 OA
HETATM   15  H   UNL     1      14.319   5.945  90.955  1.00  0.00     0.210 HD
ENDBRANCH  12  14
ENDBRANCH  11  12
BRANCH  11  16
HETATM   16  C   UNL     1      12.444   2.571  92.275  1.00  0.00     0.398 A 
HETATM   17  O   UNL     1      11.331   2.560  92.797  1.00  0.00    -0.136 OA
HETATM   18  N   UNL     1      12.413   2.643  93.861  1.00  0.00     0.142 N 
HETATM   19  HN  UNL     1      11.632   2.617  94.454  1.00  0.00     0.338 HD
BRANCH  18  20
HETATM   20  S   UNL     1      13.739   3.002  94.076  1.00  0.00     0.076 SA
HETATM   21  H   UNL     1      13.953   4.156  94.265  1.00  0.00     0.136 HD
ENDBRANCH  18  20
ENDBRANCH  11  16
ENDBRANCH   9  11
ENDBRANCH   1   7
BRANCH   4  22
HETATM   22  C   UNL     1       7.281   8.879  89.865  1.00  0.00    -0.059 C 
HETATM   23  C   UNL     1       6.476   9.773  89.889  1.00  0.00    -0.059 C 
BRANCH  23  24
HETATM   24  C   UNL     1       5.520  10.836  89.919  1.00  0.00     0.042 A 
HETATM   25  C   UNL     1       4.278  10.638  90.522  1.00  0.00     0.008 A 
HETATM   26  C   UNL     1       3.344  11.674  90.549  1.00  0.00    -0.002 A 
HETATM   27  C   UNL     1       3.654  12.907  89.975  1.00  0.00     0.011 A 
HETATM   28  C   UNL     1       4.896  13.103  89.372  1.00  0.00    -0.002 A 
HETATM   29  C   UNL     1       5.830  12.067  89.344  1.00  0.00     0.008 A 
BRANCH  27  30
HETATM   30  C   UNL     1       2.656  14.014  90.006  1.00  0.00     0.277 C 
BRANCH  30  31
HETATM   31  N   UNL     1       2.642  14.715  91.289  1.00  0.00     0.147 N 
HETATM   32  C   UNL     1       1.702  14.076  92.221  1.00  0.00     0.283 C 
HETATM   33  C   UNL     1       1.713  14.817  93.555  1.00  0.00     0.178 C 
HETATM   34  O   UNL     1       3.031  14.830  94.106  1.00  0.00    -0.350 OA
HETATM   35  C   UNL     1       3.945  15.478  93.220  1.00  0.00     0.178 C 
HETATM   36  C   UNL     1       3.987  14.754  91.878  1.00  0.00     0.283 C 
ENDBRANCH  30  31
ENDBRANCH  27  30
ENDBRANCH  23  24
ENDBRANCH   4  22
TORSDOF 10
ENDMDL
MODEL 8
REMARK VINA RESULT:      -4.9      2.295      3.135
REMARK  10 active torsions:
REMARK  status: ('A' for Active; 'I' for Inactive)
REMARK    1  A    between atoms: O_2  and  C_16 
REMARK    2  A    between atoms: N_5  and  C_9 
REMARK    3  A    between atoms: N_6  and  C_13 
REMARK       I    between atoms: N_6  and  C_22 
REMARK    4  A    between atoms: C_9  and  C_12 
REMARK    5  A    between atoms: C_13  and  C_16 
REMARK    6  A    between atoms: C_13  and  C_21 
REMARK    7  A    between atoms: C_19  and  C_24 
REMARK    8  A    between atoms: C_22  and  C_23 
REMARK    9  A    between atoms: C_27  and  C_30 
REMARK   10  A    between atoms: N_33  and  S_34 
ROOT
HETATM    1  C   UNL     1       5.719  10.702  92.881  1.00  0.00     0.056 A 
HETATM    2  C   UNL     1       7.054  11.047  92.922  1.00  0.00     0.005 A 
HETATM    3  C   UNL     1       5.298   9.390  92.846  1.00  0.00     0.005 A 
HETATM    4  C   UNL     1       7.612   8.697  92.890  1.00  0.00     0.042 A 
HETATM    5  C   UNL     1       8.012  10.033  92.926  1.00  0.00     0.008 A 
HETATM    6  C   UNL     1       6.255   8.375  92.850  1.00  0.00     0.008 A 
ENDROOT
BRANCH   1   7
HETATM    7  C   UNL     1       4.699  11.783  92.879  1.00  0.00     0.254 C 
HETATM    8  O   UNL     1       4.186  12.126  93.942  1.00  0.00    -0.268 OA
HETATM    9  N   UNL     1       4.417  12.350  91.644  1.00  0.00    -0.337 N 
HETATM   10  HN  UNL     1       4.898  12.032  90.812  1.00  0.00     0.164 HD
BRANCH   9  11
HETATM   11  C   UNL     1       3.469  13.424  91.483  1.00  0.00     0.172 C 
BRANCH  11  12
HETATM   12  C   UNL     1       3.594  14.126  90.125  1.00  0.00     0.136 C 
HETATM   13  C   UNL     1       4.786  13.625  89.316  1.00  0.00     0.034 C 
BRANCH  12  14
HETATM   14  O   UNL     1       2.401  13.920  89.369  1.00  0.00    -0.383 OA
HETATM   15  H   UNL     1       2.342  12.976  89.145  1.00  0.00     0.210 HD
ENDBRANCH  12  14
ENDBRANCH  11  12
BRANCH  11  16
HETATM   16  C   UNL     1       2.072  12.846  91.681  1.00  0.00     0.398 A 
HETATM   17  O   UNL     1       1.413  13.022  92.704  1.00  0.00    -0.136 OA
HETATM   18  N   UNL     1       1.329  11.569  92.266  1.00  0.00     0.142 N 
HETATM   19  HN  UNL     1       0.740  11.517  93.049  1.00  0.00     0.338 HD
BRANCH  18  20
HETATM   20  S   UNL     1       1.972  10.594  91.512  1.00  0.00     0.076 SA
HETATM   21  H   UNL     1       1.793   9.466  91.839  1.00  0.00     0.136 HD
ENDBRANCH  18  20
ENDBRANCH  11  16
ENDBRANCH   9  11
ENDBRANCH   1   7
BRANCH   4  22
HETATM   22  C   UNL     1       8.593   7.658  92.891  1.00  0.00    -0.059 C 
HETATM   23  C   UNL     1       9.420   6.784  92.893  1.00  0.00    -0.059 C 
BRANCH  23  24
HETATM   24  C   UNL     1      10.402   5.744  92.895  1.00  0.00     0.042 A 
HETATM   25  C   UNL     1      10.849   5.211  94.103  1.00  0.00     0.008 A 
HETATM   26  C   UNL     1      11.808   4.198  94.105  1.00  0.00    -0.002 A 
HETATM   27  C   UNL     1      12.318   3.718  92.899  1.00  0.00     0.011 A 
HETATM   28  C   UNL     1      11.869   4.252  91.691  1.00  0.00    -0.002 A 
HETATM   29  C   UNL     1      10.911   5.265  91.689  1.00  0.00     0.008 A 
BRANCH  27  30
HETATM   30  C   UNL     1      13.341   2.634  92.902  1.00  0.00     0.277 C 
BRANCH  30  31
HETATM   31  N   UNL     1      14.551   3.012  93.631  1.00  0.00     0.147 N 
HETATM   32  C   UNL     1      15.639   2.062  93.361  1.00  0.00     0.283 C 
HETATM   33  C   UNL     1      16.893   2.483  94.123  1.00  0.00     0.178 C 
HETATM   34  O   UNL     1      17.281   3.807  93.749  1.00  0.00    -0.350 OA
HETATM   35  C   UNL     1      16.240   4.741  94.036  1.00  0.00     0.178 C 
HETATM   36  C   UNL     1      14.971   4.374  93.274  1.00  0.00     0.283 C 
ENDBRANCH  30  31
ENDBRANCH  27  30
ENDBRANCH  23  24
ENDBRANCH   4  22
TORSDOF 10
ENDMDL
MODEL 9
REMARK VINA RESULT:      -4.5      2.991      4.096
REMARK  10 active torsions:
REMARK  status: ('A' for Active; 'I' for Inactive)
REMARK    1  A    between atoms: O_2  and  C_16 
REMARK    2  A    between atoms: N_5  and  C_9 
REMARK    3  A    between atoms: N_6  and  C_13 
REMARK       I    between atoms: N_6  and  C_22 
REMARK    4  A    between atoms: C_9  and  C_12 
REMARK    5  A    between atoms: C_13  and  C_16 
REMARK    6  A    between atoms: C_13  and  C_21 
REMARK    7  A    between atoms: C_19  and  C_24 
REMARK    8  A    between atoms: C_22  and  C_23 
REMARK    9  A    between atoms: C_27  and  C_30 
REMARK   10  A    between atoms: N_33  and  S_34 
ROOT
HETATM    1  C   UNL     1       6.139   7.859  89.248  1.00  0.00     0.056 A 
HETATM    2  C   UNL     1       7.360   8.473  89.431  1.00  0.00     0.005 A 
HETATM    3  C   UNL     1       5.909   6.551  89.622  1.00  0.00     0.005 A 
HETATM    4  C   UNL     1       8.192   6.424  90.400  1.00  0.00     0.042 A 
HETATM    5  C   UNL     1       8.399   7.748  90.013  1.00  0.00     0.008 A 
HETATM    6  C   UNL     1       6.948   5.825  90.204  1.00  0.00     0.008 A 
ENDROOT
BRANCH   1   7
HETATM    7  C   UNL     1       5.031   8.633  88.629  1.00  0.00     0.254 C 
HETATM    8  O   UNL     1       4.874   8.587  87.411  1.00  0.00    -0.268 OA
HETATM    9  N   UNL     1       4.225   9.347  89.505  1.00  0.00    -0.337 N 
HETATM   10  HN  UNL     1       4.400   9.317  90.502  1.00  0.00     0.164 HD
BRANCH   9  11
HETATM   11  C   UNL     1       3.097  10.126  89.061  1.00  0.00     0.172 C 
BRANCH  11  12
HETATM   12  C   UNL     1       3.500  11.514  88.547  1.00  0.00     0.136 C 
HETATM   13  C   UNL     1       4.350  12.284  89.550  1.00  0.00     0.034 C 
BRANCH  12  14
HETATM   14  O   UNL     1       4.230  11.378  87.328  1.00  0.00    -0.383 OA
HETATM   15  H   UNL     1       4.627  10.491  87.308  1.00  0.00     0.210 HD
ENDBRANCH  12  14
ENDBRANCH  11  12
BRANCH  11  16
HETATM   16  C   UNL     1       2.373   9.324  87.984  1.00  0.00     0.398 A 
HETATM   17  O   UNL     1       1.357   9.727  87.419  1.00  0.00    -0.136 OA
HETATM   18  N   UNL     1       1.204   8.264  87.803  1.00  0.00     0.142 N 
HETATM   19  HN  UNL     1       0.339   8.386  87.357  1.00  0.00     0.338 HD
BRANCH  18  20
HETATM   20  S   UNL     1       1.683   7.281  88.662  1.00  0.00     0.076 SA
HETATM   21  H   UNL     1       1.631   6.161  88.269  1.00  0.00     0.136 HD
ENDBRANCH  18  20
ENDBRANCH  11  16
ENDBRANCH   9  11
ENDBRANCH   1   7
BRANCH   4  22
HETATM   22  C   UNL     1       9.258   5.679  90.994  1.00  0.00    -0.059 C 
HETATM   23  C   UNL     1      10.154   5.052  91.494  1.00  0.00    -0.059 C 
BRANCH  23  24
HETATM   24  C   UNL     1      11.221   4.306  92.089  1.00  0.00     0.042 A 
HETATM   25  C   UNL     1      12.416   4.126  91.393  1.00  0.00     0.008 A 
HETATM   26  C   UNL     1      13.455   3.397  91.971  1.00  0.00    -0.002 A 
HETATM   27  C   UNL     1      13.299   2.851  93.246  1.00  0.00     0.011 A 
HETATM   28  C   UNL     1      12.103   3.033  93.940  1.00  0.00    -0.002 A 
HETATM   29  C   UNL     1      11.064   3.761  93.361  1.00  0.00     0.008 A 
BRANCH  27  30
HETATM   30  C   UNL     1      14.411   2.074  93.864  1.00  0.00     0.277 C 
BRANCH  30  31
HETATM   31  N   UNL     1      15.624   2.873  94.028  1.00  0.00     0.147 N 
HETATM   32  C   UNL     1      16.620   2.522  93.005  1.00  0.00     0.283 C 
HETATM   33  C   UNL     1      17.872   3.376  93.190  1.00  0.00     0.178 C 
HETATM   34  O   UNL     1      17.544   4.764  93.111  1.00  0.00    -0.350 OA
HETATM   35  C   UNL     1      16.599   5.119  94.122  1.00  0.00     0.178 C 
HETATM   36  C   UNL     1      15.318   4.308  93.961  1.00  0.00     0.283 C 
ENDBRANCH  30  31
ENDBRANCH  27  30
ENDBRANCH  23  24
ENDBRANCH   4  22
TORSDOF 10
ENDMDL
