MODEL 1
REMARK VINA RESULT:      -7.5      0.000      0.000
REMARK  9 active torsions:
REMARK  status: ('A' for Active; 'I' for Inactive)
REMARK    1  A    between atoms: N_3  and  C_6 
REMARK    2  A    between atoms: C_6  and  C_9 
REMARK    3  A    between atoms: C_14  and  C_17 
REMARK       I    between atoms: N_26  and  C_15 
REMARK    4  A    between atoms: C_15  and  C_16 
REMARK    5  A    between atoms: C_20  and  C_23 
REMARK    6  A    between atoms: OG1_24  and  CB_28 
REMARK    7  A    between atoms: N_26  and  CA_27 
REMARK    8  A    between atoms: CA_27  and  CB_28 
REMARK    9  A    between atoms: CA_27  and  C_30 
ROOT
HETATM    1  O   UNK A   0       1.982   8.065  87.794  1.00  0.00    -0.388 OA
HETATM    2  N   UNK A   0       4.778   7.547  87.666  1.00  0.00     0.096 N 
HETATM    3  C   UNK A   0       4.253   8.918  87.745  1.00  0.00     0.299 C 
HETATM    4  C   UNK A   0       3.802   6.673  87.000  1.00  0.00     0.299 C 
HETATM    5  C   UNK A   0       2.909   8.916  88.470  1.00  0.00     0.198 C 
HETATM    6  C   UNK A   0       2.470   6.724  87.740  1.00  0.00     0.198 C 
ENDROOT
BRANCH   2   7
HETATM    7  C   UNK A   0       6.061   7.524  86.966  1.00  0.00     0.311 C 
BRANCH   7   8
HETATM    8  C   UNK A   0       7.146   6.917  87.788  1.00  0.00    -0.030 A 
HETATM    9  C   UNK A   0       8.392   6.659  87.216  1.00  0.00     0.010 A 
HETATM   10  C   UNK A   0       9.407   6.090  87.985  1.00  0.00     0.021 A 
HETATM   11  C   UNK A   0       9.176   5.781  89.325  1.00  0.00     0.018 A 
HETATM   12  C   UNK A   0       7.933   6.039  89.897  1.00  0.00     0.021 A 
HETATM   13  C   UNK A   0       6.917   6.607  89.129  1.00  0.00     0.010 A 
BRANCH  11  14
HETATM   14  C   UNK A   0      10.219   5.199  90.113  1.00  0.00    -0.061 C 
HETATM   15  C   UNK A   0      11.095   4.709  90.775  1.00  0.00    -0.061 C 
BRANCH  15  16
HETATM   16  C   UNK A   0      12.137   4.128  91.563  1.00  0.00     0.018 A 
HETATM   17  C   UNK A   0      11.893   3.775  92.890  1.00  0.00     0.022 A 
HETATM   18  C   UNK A   0      12.909   3.205  93.657  1.00  0.00     0.018 A 
HETATM   19  C   UNK A   0      14.145   3.001  93.081  1.00  0.00     0.032 A 
HETATM   20  C   UNK A   0      14.412   3.342  91.771  1.00  0.00     0.018 A 
HETATM   21  C   UNK A   0      13.396   3.912  91.003  1.00  0.00     0.022 A 
BRANCH  19  22
HETATM   22  C   UNK A   0      15.228   2.396  93.899  1.00  0.00     0.252 C 
HETATM   23  O   UNK A   0      16.375   2.820  93.783  1.00  0.00    -0.268 OA
ENDBRANCH  19  22
ENDBRANCH  15  16
ENDBRANCH  11  14
ENDBRANCH   7   8
ENDBRANCH   2   7
TORSDOF 9
ENDMDL
MODEL 2
REMARK VINA RESULT:      -7.5      0.121      1.430
REMARK  9 active torsions:
REMARK  status: ('A' for Active; 'I' for Inactive)
REMARK    1  A    between atoms: N_3  and  C_6 
REMARK    2  A    between atoms: C_6  and  C_9 
REMARK    3  A    between atoms: C_14  and  C_17 
REMARK       I    between atoms: N_26  and  C_15 
REMARK    4  A    between atoms: C_15  and  C_16 
REMARK    5  A    between atoms: C_20  and  C_23 
REMARK    6  A    between atoms: OG1_24  and  CB_28 
REMARK    7  A    between atoms: N_26  and  CA_27 
REMARK    8  A    between atoms: CA_27  and  CB_28 
REMARK    9  A    between atoms: CA_27  and  C_30 
ROOT
HETATM    1  O   UNK A   0       1.893   8.174  87.839  1.00  0.00    -0.388 OA
HETATM    2  N   UNK A   0       4.680   7.620  87.673  1.00  0.00     0.096 N 
HETATM    3  C   UNK A   0       4.176   8.996  87.781  1.00  0.00     0.299 C 
HETATM    4  C   UNK A   0       3.686   6.771  87.002  1.00  0.00     0.299 C 
HETATM    5  C   UNK A   0       2.840   9.001  88.519  1.00  0.00     0.198 C 
HETATM    6  C   UNK A   0       2.362   6.828  87.757  1.00  0.00     0.198 C 
ENDROOT
BRANCH   2   7
HETATM    7  C   UNK A   0       5.956   7.591  86.959  1.00  0.00     0.311 C 
BRANCH   7   8
HETATM    8  C   UNK A   0       7.047   6.980  87.771  1.00  0.00    -0.030 A 
HETATM    9  C   UNK A   0       6.845   6.722  89.128  1.00  0.00     0.010 A 
HETATM   10  C   UNK A   0       7.866   6.153  89.889  1.00  0.00     0.021 A 
HETATM   11  C   UNK A   0       9.087   5.839  89.292  1.00  0.00     0.018 A 
HETATM   12  C   UNK A   0       9.289   6.096  87.938  1.00  0.00     0.021 A 
HETATM   13  C   UNK A   0       8.269   6.666  87.177  1.00  0.00     0.010 A 
BRANCH  11  14
HETATM   14  C   UNK A   0      10.133   5.253  90.072  1.00  0.00    -0.061 C 
HETATM   15  C   UNK A   0      11.012   4.761  90.729  1.00  0.00    -0.061 C 
BRANCH  15  16
HETATM   16  C   UNK A   0      12.057   4.176  91.509  1.00  0.00     0.018 A 
HETATM   17  C   UNK A   0      13.312   3.957  90.940  1.00  0.00     0.022 A 
HETATM   18  C   UNK A   0      14.333   3.388  91.703  1.00  0.00     0.018 A 
HETATM   19  C   UNK A   0      14.076   3.052  93.015  1.00  0.00     0.032 A 
HETATM   20  C   UNK A   0      12.844   3.258  93.600  1.00  0.00     0.018 A 
HETATM   21  C   UNK A   0      11.823   3.826  92.839  1.00  0.00     0.022 A 
BRANCH  19  22
HETATM   22  C   UNK A   0      15.162   2.445  93.827  1.00  0.00     0.252 C 
HETATM   23  O   UNK A   0      16.306   2.881  93.720  1.00  0.00    -0.268 OA
ENDBRANCH  19  22
ENDBRANCH  15  16
ENDBRANCH  11  14
ENDBRANCH   7   8
ENDBRANCH   2   7
TORSDOF 9
ENDMDL
MODEL 3
REMARK VINA RESULT:      -7.1      1.056      1.580
REMARK  9 active torsions:
REMARK  status: ('A' for Active; 'I' for Inactive)
REMARK    1  A    between atoms: N_3  and  C_6 
REMARK    2  A    between atoms: C_6  and  C_9 
REMARK    3  A    between atoms: C_14  and  C_17 
REMARK       I    between atoms: N_26  and  C_15 
REMARK    4  A    between atoms: C_15  and  C_16 
REMARK    5  A    between atoms: C_20  and  C_23 
REMARK    6  A    between atoms: OG1_24  and  CB_28 
REMARK    7  A    between atoms: N_26  and  CA_27 
REMARK    8  A    between atoms: CA_27  and  CB_28 
REMARK    9  A    between atoms: CA_27  and  C_30 
ROOT
HETATM    1  O   UNK A   0       1.943   6.993  86.759  1.00  0.00    -0.388 OA
HETATM    2  N   UNK A   0       4.094   7.946  88.362  1.00  0.00     0.096 N 
HETATM    3  C   UNK A   0       2.912   8.776  88.092  1.00  0.00     0.299 C 
HETATM    4  C   UNK A   0       4.319   7.013  87.249  1.00  0.00     0.299 C 
HETATM    5  C   UNK A   0       1.698   7.882  87.851  1.00  0.00     0.198 C 
HETATM    6  C   UNK A   0       3.073   6.162  87.027  1.00  0.00     0.198 C 
ENDROOT
BRANCH   2   7
HETATM    7  C   UNK A   0       5.272   8.782  88.586  1.00  0.00     0.311 C 
BRANCH   7   8
HETATM    8  C   UNK A   0       6.419   8.009  89.143  1.00  0.00    -0.030 A 
HETATM    9  C   UNK A   0       7.559   7.797  88.366  1.00  0.00     0.010 A 
HETATM   10  C   UNK A   0       8.631   7.072  88.885  1.00  0.00     0.021 A 
HETATM   11  C   UNK A   0       8.565   6.563  90.181  1.00  0.00     0.018 A 
HETATM   12  C   UNK A   0       7.428   6.775  90.958  1.00  0.00     0.021 A 
HETATM   13  C   UNK A   0       6.355   7.498  90.439  1.00  0.00     0.010 A 
BRANCH  11  14
HETATM   14  C   UNK A   0       9.666   5.821  90.714  1.00  0.00    -0.061 C 
HETATM   15  C   UNK A   0      10.592   5.197  91.162  1.00  0.00    -0.061 C 
BRANCH  15  16
HETATM   16  C   UNK A   0      11.693   4.456  91.694  1.00  0.00     0.018 A 
HETATM   17  C   UNK A   0      12.816   4.215  90.903  1.00  0.00     0.022 A 
HETATM   18  C   UNK A   0      13.891   3.494  91.423  1.00  0.00     0.018 A 
HETATM   19  C   UNK A   0      13.819   3.032  92.721  1.00  0.00     0.032 A 
HETATM   20  C   UNK A   0      12.720   3.258  93.522  1.00  0.00     0.018 A 
HETATM   21  C   UNK A   0      11.644   3.978  93.003  1.00  0.00     0.022 A 
BRANCH  19  22
HETATM   22  C   UNK A   0      14.964   2.263  93.274  1.00  0.00     0.252 C 
HETATM   23  O   UNK A   0      16.053   2.817  93.401  1.00  0.00    -0.268 OA
ENDBRANCH  19  22
ENDBRANCH  15  16
ENDBRANCH  11  14
ENDBRANCH   7   8
ENDBRANCH   2   7
TORSDOF 9
ENDMDL
MODEL 4
REMARK VINA RESULT:      -6.9      1.423      2.020
REMARK  9 active torsions:
REMARK  status: ('A' for Active; 'I' for Inactive)
REMARK    1  A    between atoms: N_3  and  C_6 
REMARK    2  A    between atoms: C_6  and  C_9 
REMARK    3  A    between atoms: C_14  and  C_17 
REMARK       I    between atoms: N_26  and  C_15 
REMARK    4  A    between atoms: C_15  and  C_16 
REMARK    5  A    between atoms: C_20  and  C_23 
REMARK    6  A    between atoms: OG1_24  and  CB_28 
REMARK    7  A    between atoms: N_26  and  CA_27 
REMARK    8  A    between atoms: CA_27  and  CB_28 
REMARK    9  A    between atoms: CA_27  and  C_30 
ROOT
HETATM    1  O   UNK A   0       4.883  11.176  88.662  1.00  0.00    -0.388 OA
HETATM    2  N   UNK A   0       5.262   8.355  88.666  1.00  0.00     0.096 N 
HETATM    3  C   UNK A   0       6.381   9.280  88.895  1.00  0.00     0.299 C 
HETATM    4  C   UNK A   0       4.247   8.993  87.817  1.00  0.00     0.299 C 
HETATM    5  C   UNK A   0       5.861  10.576  89.513  1.00  0.00     0.198 C 
HETATM    6  C   UNK A   0       3.778  10.294  88.460  1.00  0.00     0.198 C 
ENDROOT
BRANCH   2   7
HETATM    7  C   UNK A   0       5.736   7.109  88.064  1.00  0.00     0.311 C 
BRANCH   7   8
HETATM    8  C   UNK A   0       6.923   6.551  88.773  1.00  0.00    -0.030 A 
HETATM    9  C   UNK A   0       8.160   6.505  88.129  1.00  0.00     0.010 A 
HETATM   10  C   UNK A   0       9.271   5.981  88.790  1.00  0.00     0.021 A 
HETATM   11  C   UNK A   0       9.144   5.506  90.095  1.00  0.00     0.018 A 
HETATM   12  C   UNK A   0       7.909   5.552  90.739  1.00  0.00     0.021 A 
HETATM   13  C   UNK A   0       6.798   6.075  90.078  1.00  0.00     0.010 A 
BRANCH  11  14
HETATM   14  C   UNK A   0      10.284   4.970  90.774  1.00  0.00    -0.061 C 
HETATM   15  C   UNK A   0      11.242   4.521  91.345  1.00  0.00    -0.061 C 
BRANCH  15  16
HETATM   16  C   UNK A   0      12.381   3.985  92.024  1.00  0.00     0.018 A 
HETATM   17  C   UNK A   0      13.575   3.787  91.330  1.00  0.00     0.022 A 
HETATM   18  C   UNK A   0      14.686   3.267  91.993  1.00  0.00     0.018 A 
HETATM   19  C   UNK A   0      14.579   2.958  93.333  1.00  0.00     0.032 A 
HETATM   20  C   UNK A   0      13.410   3.145  94.041  1.00  0.00     0.018 A 
HETATM   21  C   UNK A   0      12.298   3.665  93.379  1.00  0.00     0.022 A 
BRANCH  19  22
HETATM   22  C   UNK A   0      15.763   2.402  94.039  1.00  0.00     0.252 C 
HETATM   23  O   UNK A   0      16.883   2.815  93.748  1.00  0.00    -0.268 OA
ENDBRANCH  19  22
ENDBRANCH  15  16
ENDBRANCH  11  14
ENDBRANCH   7   8
ENDBRANCH   2   7
TORSDOF 9
ENDMDL
MODEL 5
REMARK VINA RESULT:      -6.9      1.506      1.906
REMARK  9 active torsions:
REMARK  status: ('A' for Active; 'I' for Inactive)
REMARK    1  A    between atoms: N_3  and  C_6 
REMARK    2  A    between atoms: C_6  and  C_9 
REMARK    3  A    between atoms: C_14  and  C_17 
REMARK       I    between atoms: N_26  and  C_15 
REMARK    4  A    between atoms: C_15  and  C_16 
REMARK    5  A    between atoms: C_20  and  C_23 
REMARK    6  A    between atoms: OG1_24  and  CB_28 
REMARK    7  A    between atoms: N_26  and  CA_27 
REMARK    8  A    between atoms: CA_27  and  CB_28 
REMARK    9  A    between atoms: CA_27  and  C_30 
ROOT
HETATM    1  O   UNK A   0       2.888  11.209  89.723  1.00  0.00    -0.388 OA
HETATM    2  N   UNK A   0       4.695   9.270  88.684  1.00  0.00     0.096 N 
HETATM    3  C   UNK A   0       3.816  10.051  87.803  1.00  0.00     0.299 C 
HETATM    4  C   UNK A   0       4.069   9.109  90.004  1.00  0.00     0.299 C 
HETATM    5  C   UNK A   0       3.503  11.399  88.447  1.00  0.00     0.198 C 
HETATM    6  C   UNK A   0       3.750  10.477  90.596  1.00  0.00     0.198 C 
ENDROOT
BRANCH   2   7
HETATM    7  C   UNK A   0       4.999   7.969  88.091  1.00  0.00     0.311 C 
BRANCH   7   8
HETATM    8  C   UNK A   0       6.203   7.335  88.701  1.00  0.00    -0.030 A 
HETATM    9  C   UNK A   0       7.463   7.901  88.506  1.00  0.00     0.010 A 
HETATM   10  C   UNK A   0       8.590   7.308  89.074  1.00  0.00     0.021 A 
HETATM   11  C   UNK A   0       8.456   6.149  89.838  1.00  0.00     0.018 A 
HETATM   12  C   UNK A   0       7.198   5.582  90.034  1.00  0.00     0.021 A 
HETATM   13  C   UNK A   0       6.071   6.175  89.465  1.00  0.00     0.010 A 
BRANCH  11  14
HETATM   14  C   UNK A   0       9.611   5.541  90.423  1.00  0.00    -0.061 C 
HETATM   15  C   UNK A   0      10.582   5.029  90.914  1.00  0.00    -0.061 C 
BRANCH  15  16
HETATM   16  C   UNK A   0      11.738   4.421  91.498  1.00  0.00     0.018 A 
HETATM   17  C   UNK A   0      11.693   3.963  92.815  1.00  0.00     0.022 A 
HETATM   18  C   UNK A   0      12.819   3.368  93.383  1.00  0.00     0.018 A 
HETATM   19  C   UNK A   0      13.963   3.243  92.622  1.00  0.00     0.032 A 
HETATM   20  C   UNK A   0      14.032   3.688  91.318  1.00  0.00     0.018 A 
HETATM   21  C   UNK A   0      12.906   4.284  90.749  1.00  0.00     0.022 A 
BRANCH  19  22
HETATM   22  C   UNK A   0      15.163   2.610  93.228  1.00  0.00     0.252 C 
HETATM   23  O   UNK A   0      15.844   3.255  94.022  1.00  0.00    -0.268 OA
ENDBRANCH  19  22
ENDBRANCH  15  16
ENDBRANCH  11  14
ENDBRANCH   7   8
ENDBRANCH   2   7
TORSDOF 9
ENDMDL
MODEL 6
REMARK VINA RESULT:      -6.6      3.944     10.435
REMARK  9 active torsions:
REMARK  status: ('A' for Active; 'I' for Inactive)
REMARK    1  A    between atoms: N_3  and  C_6 
REMARK    2  A    between atoms: C_6  and  C_9 
REMARK    3  A    between atoms: C_14  and  C_17 
REMARK       I    between atoms: N_26  and  C_15 
REMARK    4  A    between atoms: C_15  and  C_16 
REMARK    5  A    between atoms: C_20  and  C_23 
REMARK    6  A    between atoms: OG1_24  and  CB_28 
REMARK    7  A    between atoms: N_26  and  CA_27 
REMARK    8  A    between atoms: CA_27  and  CB_28 
REMARK    9  A    between atoms: CA_27  and  C_30 
ROOT
HETATM    1  O   UNK A   0      14.556   3.377  92.029  1.00  0.00    -0.388 OA
HETATM    2  N   UNK A   0      11.844   4.191  92.309  1.00  0.00     0.096 N 
HETATM    3  C   UNK A   0      12.479   3.292  93.282  1.00  0.00     0.299 C 
HETATM    4  C   UNK A   0      12.463   4.023  90.988  1.00  0.00     0.299 C 
HETATM    5  C   UNK A   0      13.982   3.556  93.325  1.00  0.00     0.198 C 
HETATM    6  C   UNK A   0      13.965   4.270  91.085  1.00  0.00     0.198 C 
ENDROOT
BRANCH   2   7
HETATM    7  C   UNK A   0      10.404   3.948  92.243  1.00  0.00     0.311 C 
BRANCH   7   8
HETATM    8  C   UNK A   0       9.631   5.188  91.948  1.00  0.00    -0.030 A 
HETATM    9  C   UNK A   0       9.905   6.363  92.650  1.00  0.00     0.010 A 
HETATM   10  C   UNK A   0       9.181   7.523  92.377  1.00  0.00     0.021 A 
HETATM   11  C   UNK A   0       8.185   7.509  91.401  1.00  0.00     0.018 A 
HETATM   12  C   UNK A   0       7.911   6.337  90.699  1.00  0.00     0.021 A 
HETATM   13  C   UNK A   0       8.634   5.176  90.973  1.00  0.00     0.010 A 
BRANCH  11  14
HETATM   14  C   UNK A   0       7.444   8.700  91.119  1.00  0.00    -0.061 C 
HETATM   15  C   UNK A   0       6.821   9.701  90.883  1.00  0.00    -0.061 C 
BRANCH  15  16
HETATM   16  C   UNK A   0       6.081  10.892  90.602  1.00  0.00     0.018 A 
HETATM   17  C   UNK A   0       5.235  11.431  91.572  1.00  0.00     0.022 A 
HETATM   18  C   UNK A   0       4.516  12.594  91.298  1.00  0.00     0.018 A 
HETATM   19  C   UNK A   0       4.658  13.192  90.064  1.00  0.00     0.032 A 
HETATM   20  C   UNK A   0       5.488  12.678  89.089  1.00  0.00     0.018 A 
HETATM   21  C   UNK A   0       6.208  11.515  89.361  1.00  0.00     0.022 A 
BRANCH  19  22
HETATM   22  C   UNK A   0       3.890  14.430  89.772  1.00  0.00     0.252 C 
HETATM   23  O   UNK A   0       4.476  15.509  89.755  1.00  0.00    -0.268 OA
ENDBRANCH  19  22
ENDBRANCH  15  16
ENDBRANCH  11  14
ENDBRANCH   7   8
ENDBRANCH   2   7
TORSDOF 9
ENDMDL
MODEL 7
REMARK VINA RESULT:      -6.4      3.696     10.311
REMARK  9 active torsions:
REMARK  status: ('A' for Active; 'I' for Inactive)
REMARK    1  A    between atoms: N_3  and  C_6 
REMARK    2  A    between atoms: C_6  and  C_9 
REMARK    3  A    between atoms: C_14  and  C_17 
REMARK       I    between atoms: N_26  and  C_15 
REMARK    4  A    between atoms: C_15  and  C_16 
REMARK    5  A    between atoms: C_20  and  C_23 
REMARK    6  A    between atoms: OG1_24  and  CB_28 
REMARK    7  A    between atoms: N_26  and  CA_27 
REMARK    8  A    between atoms: CA_27  and  CB_28 
REMARK    9  A    between atoms: CA_27  and  C_30 
ROOT
HETATM    1  O   UNK A   0      16.151   3.048  93.667  1.00  0.00    -0.388 OA
HETATM    2  N   UNK A   0      13.470   2.960  92.713  1.00  0.00     0.096 N 
HETATM    3  C   UNK A   0      14.205   1.733  93.053  1.00  0.00     0.299 C 
HETATM    4  C   UNK A   0      14.408   4.003  92.275  1.00  0.00     0.299 C 
HETATM    5  C   UNK A   0      15.250   2.038  94.124  1.00  0.00     0.198 C 
HETATM    6  C   UNK A   0      15.448   4.254  93.363  1.00  0.00     0.198 C 
ENDROOT
BRANCH   2   7
HETATM    7  C   UNK A   0      12.470   2.694  91.680  1.00  0.00     0.311 C 
BRANCH   7   8
HETATM    8  C   UNK A   0      11.596   3.873  91.419  1.00  0.00    -0.030 A 
HETATM    9  C   UNK A   0      11.354   4.284  90.108  1.00  0.00     0.010 A 
HETATM   10  C   UNK A   0      10.538   5.388  89.862  1.00  0.00     0.021 A 
HETATM   11  C   UNK A   0       9.963   6.079  90.928  1.00  0.00     0.018 A 
HETATM   12  C   UNK A   0      10.203   5.669  92.238  1.00  0.00     0.021 A 
HETATM   13  C   UNK A   0      11.020   4.565  92.484  1.00  0.00     0.010 A 
BRANCH  11  14
HETATM   14  C   UNK A   0       9.124   7.210  90.676  1.00  0.00    -0.061 C 
HETATM   15  C   UNK A   0       8.419   8.161  90.465  1.00  0.00    -0.061 C 
BRANCH  15  16
HETATM   16  C   UNK A   0       7.581   9.292  90.214  1.00  0.00     0.018 A 
HETATM   17  C   UNK A   0       6.351   9.406  90.862  1.00  0.00     0.022 A 
HETATM   18  C   UNK A   0       5.536  10.511  90.619  1.00  0.00     0.018 A 
HETATM   19  C   UNK A   0       5.968  11.476  89.734  1.00  0.00     0.032 A 
HETATM   20  C   UNK A   0       7.179  11.387  89.081  1.00  0.00     0.018 A 
HETATM   21  C   UNK A   0       7.995  10.283  89.323  1.00  0.00     0.022 A 
BRANCH  19  22
HETATM   22  C   UNK A   0       5.097  12.652  89.474  1.00  0.00     0.252 C 
HETATM   23  O   UNK A   0       5.089  13.156  88.354  1.00  0.00    -0.268 OA
ENDBRANCH  19  22
ENDBRANCH  15  16
ENDBRANCH  11  14
ENDBRANCH   7   8
ENDBRANCH   2   7
TORSDOF 9
ENDMDL
MODEL 8
REMARK VINA RESULT:      -6.3      2.397      3.084
REMARK  9 active torsions:
REMARK  status: ('A' for Active; 'I' for Inactive)
REMARK    1  A    between atoms: N_3  and  C_6 
REMARK    2  A    between atoms: C_6  and  C_9 
REMARK    3  A    between atoms: C_14  and  C_17 
REMARK       I    between atoms: N_26  and  C_15 
REMARK    4  A    between atoms: C_15  and  C_16 
REMARK    5  A    between atoms: C_20  and  C_23 
REMARK    6  A    between atoms: OG1_24  and  CB_28 
REMARK    7  A    between atoms: N_26  and  CA_27 
REMARK    8  A    between atoms: CA_27  and  CB_28 
REMARK    9  A    between atoms: CA_27  and  C_30 
ROOT
HETATM    1  O   UNK A   0       2.300  10.319  87.907  1.00  0.00    -0.388 OA
HETATM    2  N   UNK A   0       4.235   9.738  89.913  1.00  0.00     0.096 N 
HETATM    3  C   UNK A   0       3.050   8.892  89.722  1.00  0.00     0.299 C 
HETATM    4  C   UNK A   0       3.938  11.119  89.508  1.00  0.00     0.299 C 
HETATM    5  C   UNK A   0       2.589   8.967  88.268  1.00  0.00     0.198 C 
HETATM    6  C   UNK A   0       3.457  11.142  88.061  1.00  0.00     0.198 C 
ENDROOT
BRANCH   2   7
HETATM    7  C   UNK A   0       4.688   9.690  91.302  1.00  0.00     0.311 C 
BRANCH   7   8
HETATM    8  C   UNK A   0       5.874   8.805  91.482  1.00  0.00    -0.030 A 
HETATM    9  C   UNK A   0       7.139   9.247  91.091  1.00  0.00     0.010 A 
HETATM   10  C   UNK A   0       8.249   8.419  91.257  1.00  0.00     0.021 A 
HETATM   11  C   UNK A   0       8.094   7.151  91.817  1.00  0.00     0.018 A 
HETATM   12  C   UNK A   0       6.832   6.709  92.208  1.00  0.00     0.021 A 
HETATM   13  C   UNK A   0       5.722   7.536  92.041  1.00  0.00     0.010 A 
BRANCH  11  14
HETATM   14  C   UNK A   0       9.234   6.303  91.989  1.00  0.00    -0.061 C 
HETATM   15  C   UNK A   0      10.191   5.591  92.134  1.00  0.00    -0.061 C 
BRANCH  15  16
HETATM   16  C   UNK A   0      11.330   4.744  92.306  1.00  0.00     0.018 A 
HETATM   17  C   UNK A   0      12.137   4.430  91.212  1.00  0.00     0.022 A 
HETATM   18  C   UNK A   0      13.250   3.606  91.381  1.00  0.00     0.018 A 
HETATM   19  C   UNK A   0      13.531   3.116  92.639  1.00  0.00     0.032 A 
HETATM   20  C   UNK A   0      12.750   3.412  93.736  1.00  0.00     0.018 A 
HETATM   21  C   UNK A   0      11.636   4.236  93.568  1.00  0.00     0.022 A 
BRANCH  19  22
HETATM   22  C   UNK A   0      14.716   2.237  92.819  1.00  0.00     0.252 C 
HETATM   23  O   UNK A   0      15.345   2.286  93.872  1.00  0.00    -0.268 OA
ENDBRANCH  19  22
ENDBRANCH  15  16
ENDBRANCH  11  14
ENDBRANCH   7   8
ENDBRANCH   2   7
TORSDOF 9
ENDMDL
MODEL 9
REMARK VINA RESULT:      -6.2      3.359      4.279
REMARK  9 active torsions:
REMARK  status: ('A' for Active; 'I' for Inactive)
REMARK    1  A    between atoms: N_3  and  C_6 
REMARK    2  A    between atoms: C_6  and  C_9 
REMARK    3  A    between atoms: C_14  and  C_17 
REMARK       I    between atoms: N_26  and  C_15 
REMARK    4  A    between atoms: C_15  and  C_16 
REMARK    5  A    between atoms: C_20  and  C_23 
REMARK    6  A    between atoms: OG1_24  and  CB_28 
REMARK    7  A    between atoms: N_26  and  CA_27 
REMARK    8  A    between atoms: CA_27  and  CB_28 
REMARK    9  A    between atoms: CA_27  and  C_30 
ROOT
HETATM    1  O   UNK A   0       4.161  15.114  89.782  1.00  0.00    -0.388 OA
HETATM    2  N   UNK A   0       4.743  12.340  89.512  1.00  0.00     0.096 N 
HETATM    3  C   UNK A   0       4.925  13.275  88.393  1.00  0.00     0.299 C 
HETATM    4  C   UNK A   0       3.673  12.819  90.400  1.00  0.00     0.299 C 
HETATM    5  C   UNK A   0       5.221  14.673  88.931  1.00  0.00     0.198 C 
HETATM    6  C   UNK A   0       3.998  14.227  90.889  1.00  0.00     0.198 C 
ENDROOT
BRANCH   2   7
HETATM    7  C   UNK A   0       4.447  10.996  89.021  1.00  0.00     0.311 C 
BRANCH   7   8
HETATM    8  C   UNK A   0       5.504  10.011  89.390  1.00  0.00    -0.030 A 
HETATM    9  C   UNK A   0       5.485   8.729  88.838  1.00  0.00     0.010 A 
HETATM   10  C   UNK A   0       6.472   7.807  89.185  1.00  0.00     0.021 A 
HETATM   11  C   UNK A   0       7.478   8.167  90.081  1.00  0.00     0.018 A 
HETATM   12  C   UNK A   0       7.498   9.446  90.632  1.00  0.00     0.021 A 
HETATM   13  C   UNK A   0       6.511  10.369  90.287  1.00  0.00     0.010 A 
BRANCH  11  14
HETATM   14  C   UNK A   0       8.491   7.220  90.435  1.00  0.00    -0.061 C 
HETATM   15  C   UNK A   0       9.342   6.425  90.733  1.00  0.00    -0.061 C 
BRANCH  15  16
HETATM   16  C   UNK A   0      10.354   5.479  91.086  1.00  0.00     0.018 A 
HETATM   17  C   UNK A   0      10.584   5.175  92.428  1.00  0.00     0.022 A 
HETATM   18  C   UNK A   0      11.570   4.249  92.773  1.00  0.00     0.018 A 
HETATM   19  C   UNK A   0      12.301   3.650  91.769  1.00  0.00     0.032 A 
HETATM   20  C   UNK A   0      12.093   3.934  90.436  1.00  0.00     0.018 A 
HETATM   21  C   UNK A   0      11.108   4.859  90.090  1.00  0.00     0.022 A 
BRANCH  19  22
HETATM   22  C   UNK A   0      13.352   2.666  92.137  1.00  0.00     0.252 C 
HETATM   23  O   UNK A   0      13.592   2.460  93.324  1.00  0.00    -0.268 OA
ENDBRANCH  19  22
ENDBRANCH  15  16
ENDBRANCH  11  14
ENDBRANCH   7   8
ENDBRANCH   2   7
TORSDOF 9
ENDMDL
