MODEL 1
REMARK VINA RESULT:      -7.1      0.000      0.000
REMARK  10 active torsions:
REMARK  status: ('A' for Active; 'I' for Inactive)
REMARK    1  A    between atoms: O_2  and  C_16 
REMARK    2  A    between atoms: N_5  and  C_9 
REMARK    3  A    between atoms: N_6  and  C_13 
REMARK       I    between atoms: N_6  and  C_22 
REMARK    4  A    between atoms: C_9  and  C_12 
REMARK    5  A    between atoms: C_13  and  C_16 
REMARK    6  A    between atoms: C_13  and  C_21 
REMARK    7  A    between atoms: C_19  and  C_24 
REMARK    8  A    between atoms: C_22  and  C_23 
REMARK    9  A    between atoms: C_27  and  C_30 
REMARK   10  A    between atoms: N_33  and  S_34 
ROOT
HETATM    1  C   UNL     1       5.924  11.140  89.603  1.00  0.00     0.056 A 
HETATM    2  C   UNL     1       5.402  10.035  90.243  1.00  0.00     0.005 A 
HETATM    3  C   UNL     1       7.249  11.214  89.226  1.00  0.00     0.005 A 
HETATM    4  C   UNL     1       7.585   9.007  90.150  1.00  0.00     0.042 A 
HETATM    5  C   UNL     1       6.241   8.957  90.520  1.00  0.00     0.008 A 
HETATM    6  C   UNL     1       8.089  10.135  89.503  1.00  0.00     0.008 A 
ENDROOT
BRANCH   1   7
HETATM    7  C   UNL     1       5.029  12.288  89.306  1.00  0.00     0.254 C 
HETATM    8  O   UNL     1       4.955  12.708  88.154  1.00  0.00    -0.268 OA
HETATM    9  N   UNL     1       4.309  12.791  90.380  1.00  0.00    -0.337 N 
HETATM   10  HN  UNL     1       4.403  12.376  91.300  1.00  0.00     0.164 HD
BRANCH   9  11
HETATM   11  C   UNL     1       3.382  13.887  90.248  1.00  0.00     0.172 C 
BRANCH  11  12
HETATM   12  C   UNL     1       2.045  13.621  90.951  1.00  0.00     0.136 C 
HETATM   13  C   UNL     1       2.119  12.446  91.921  1.00  0.00     0.034 C 
BRANCH  12  14
HETATM   14  O   UNL     1       1.641  14.788  91.666  1.00  0.00    -0.383 OA
HETATM   15  H   UNL     1       1.802  14.636  92.613  1.00  0.00     0.210 HD
ENDBRANCH  12  14
ENDBRANCH  11  12
BRANCH  11  16
HETATM   16  C   UNL     1       4.058  15.138  90.798  1.00  0.00     0.398 A 
HETATM   17  O   UNL     1       5.205  15.467  90.498  1.00  0.00    -0.136 OA
HETATM   18  N   UNL     1       4.983  15.625  91.994  1.00  0.00     0.142 N 
HETATM   19  HN  UNL     1       5.908  15.951  91.950  1.00  0.00     0.338 HD
BRANCH  18  20
HETATM   20  S   UNL     1       4.189  15.202  93.053  1.00  0.00     0.076 SA
HETATM   21  H   UNL     1       4.752  14.706  93.975  1.00  0.00     0.136 HD
ENDBRANCH  18  20
ENDBRANCH  11  16
ENDBRANCH   9  11
ENDBRANCH   1   7
BRANCH   4  22
HETATM   22  C   UNL     1       8.447   7.903  90.436  1.00  0.00    -0.059 C 
HETATM   23  C   UNL     1       9.171   6.974  90.677  1.00  0.00    -0.059 C 
BRANCH  23  24
HETATM   24  C   UNL     1      10.034   5.870  90.964  1.00  0.00     0.042 A 
HETATM   25  C   UNL     1      10.802   5.303  89.947  1.00  0.00     0.008 A 
HETATM   26  C   UNL     1      11.642   4.225  90.226  1.00  0.00    -0.002 A 
HETATM   27  C   UNL     1      11.714   3.715  91.523  1.00  0.00     0.011 A 
HETATM   28  C   UNL     1      10.946   4.283  92.539  1.00  0.00    -0.002 A 
HETATM   29  C   UNL     1      10.106   5.361  92.259  1.00  0.00     0.008 A 
BRANCH  27  30
HETATM   30  C   UNL     1      12.614   2.564  91.821  1.00  0.00     0.277 C 
BRANCH  30  31
HETATM   31  N   UNL     1      13.618   2.889  92.832  1.00  0.00     0.147 N 
HETATM   32  C   UNL     1      14.506   1.743  93.070  1.00  0.00     0.283 C 
HETATM   33  C   UNL     1      15.553   2.109  94.120  1.00  0.00     0.178 C 
HETATM   34  O   UNL     1      16.307   3.246  93.694  1.00  0.00    -0.350 OA
HETATM   35  C   UNL     1      15.455   4.373  93.490  1.00  0.00     0.178 C 
HETATM   36  C   UNL     1      14.407   4.061  92.427  1.00  0.00     0.283 C 
ENDBRANCH  30  31
ENDBRANCH  27  30
ENDBRANCH  23  24
ENDBRANCH   4  22
TORSDOF 10
ENDMDL
