MODEL 1
REMARK VINA RESULT:      -6.2      0.000      0.000
REMARK  12 active torsions:
REMARK  status: ('A' for Active; 'I' for Inactive)
REMARK    1  A    between atoms: O_2  and  C_16 
REMARK    2  A    between atoms: N_5  and  C_9 
REMARK    3  A    between atoms: N_6  and  C_13 
REMARK       I    between atoms: N_6  and  C_22 
REMARK    4  A    between atoms: C_9  and  C_12 
REMARK    5  A    between atoms: C_13  and  C_16 
REMARK    6  A    between atoms: C_13  and  C_21 
REMARK    7  A    between atoms: C_19  and  C_24 
REMARK    8  A    between atoms: C_21  and  C_33 
REMARK    9  A    between atoms: C_22  and  C_23 
REMARK   10  A    between atoms: C_27  and  C_30 
REMARK   11  A    between atoms: C_33  and  C_34 
REMARK   12  A    between atoms: C_34  and  C_35 
ROOT
HETATM    1  O   UNL     1      16.351   4.371  94.115  1.00  0.00    -0.350 OA
HETATM    2  N   UNL     1      14.562   2.748  92.610  1.00  0.00     0.147 N 
HETATM    3  C   UNL     1      14.431   4.211  92.639  1.00  0.00     0.283 C 
HETATM    4  C   UNL     1      15.164   2.270  93.862  1.00  0.00     0.283 C 
HETATM    5  C   UNL     1      15.797   4.847  92.887  1.00  0.00     0.178 C 
HETATM    6  C   UNL     1      16.510   2.952  94.082  1.00  0.00     0.178 C 
ENDROOT
BRANCH   2   7
HETATM    7  C   UNL     1      13.263   2.116  92.384  1.00  0.00     0.277 C 
BRANCH   7   8
HETATM    8  C   UNL     1      12.148   3.106  92.351  1.00  0.00     0.011 A 
HETATM    9  C   UNL     1      11.917   3.931  93.453  1.00  0.00    -0.002 A 
HETATM   10  C   UNL     1      10.873   4.855  93.425  1.00  0.00     0.008 A 
HETATM   11  C   UNL     1      10.063   4.956  92.294  1.00  0.00     0.042 A 
HETATM   12  C   UNL     1      10.293   4.134  91.194  1.00  0.00     0.008 A 
HETATM   13  C   UNL     1      11.336   3.208  91.222  1.00  0.00    -0.002 A 
BRANCH  11  14
HETATM   14  C   UNL     1       8.994   5.907  92.265  1.00  0.00    -0.059 C 
HETATM   15  C   UNL     1       8.095   6.705  92.241  1.00  0.00    -0.059 C 
BRANCH  15  16
HETATM   16  C   UNL     1       7.027   7.655  92.212  1.00  0.00     0.042 A 
HETATM   17  C   UNL     1       5.705   7.215  92.144  1.00  0.00     0.008 A 
HETATM   18  C   UNL     1       4.663   8.142  92.119  1.00  0.00     0.005 A 
HETATM   19  C   UNL     1       4.966   9.487  92.162  1.00  0.00     0.056 A 
HETATM   20  C   UNL     1       6.265   9.947  92.228  1.00  0.00     0.005 A 
HETATM   21  C   UNL     1       7.307   9.021  92.253  1.00  0.00     0.008 A 
BRANCH  19  22
HETATM   22  C   UNL     1       3.856  10.474  92.132  1.00  0.00     0.254 C 
HETATM   23  O   UNL     1       2.734  10.125  92.490  1.00  0.00    -0.268 OA
HETATM   24  N   UNL     1       4.192  11.754  91.714  1.00  0.00    -0.335 N 
HETATM   25  HN  UNL     1       5.147  11.976  91.458  1.00  0.00     0.164 HD
BRANCH  24  26
HETATM   26  C   UNL     1       3.232  12.828  91.655  1.00  0.00     0.166 C 
BRANCH  26  27
HETATM   27  C   UNL     1       3.193  13.661  92.942  1.00  0.00     0.138 C 
HETATM   28  C   UNL     1       2.312  13.034  94.017  1.00  0.00     0.034 C 
BRANCH  27  29
HETATM   29  O   UNL     1       4.517  13.808  93.456  1.00  0.00    -0.383 OA
HETATM   30  H   UNL     1       4.871  14.659  93.148  1.00  0.00     0.210 HD
ENDBRANCH  27  29
ENDBRANCH  26  27
BRANCH  26  31
HETATM   31  C   UNL     1       3.574  13.692  90.446  1.00  0.00     0.181 C 
HETATM   32  O   UNL     1       3.653  14.917  90.499  1.00  0.00    -0.294 OA
BRANCH  31  33
HETATM   33  C   UNL     1       4.922  13.183  89.704  1.00  0.00     0.138 C 
BRANCH  33  34
HETATM   34  C   UNL     1       4.403  12.736  88.468  1.00  0.00     0.208 C 
HETATM   35  O   UNL     1       4.849  13.271  87.479  1.00  0.00    -0.289 OA
BRANCH  34  36
HETATM   36  C   UNL     1       3.692  11.609  88.161  1.00  0.00     0.194 C 
HETATM   37  O   UNL     1       2.888  10.798  88.969  1.00  0.00    -0.185 OA
ENDBRANCH  34  36
ENDBRANCH  33  34
ENDBRANCH  31  33
ENDBRANCH  26  31
ENDBRANCH  24  26
ENDBRANCH  19  22
ENDBRANCH  15  16
ENDBRANCH  11  14
ENDBRANCH   7   8
ENDBRANCH   2   7
TORSDOF 12
ENDMDL
