MODEL 1
REMARK VINA RESULT:      -5.9      0.000      0.000
REMARK  12 active torsions:
REMARK  status: ('A' for Active; 'I' for Inactive)
REMARK    1  A    between atoms: O_2  and  C_16 
REMARK    2  A    between atoms: N_5  and  C_9 
REMARK    3  A    between atoms: N_6  and  C_13 
REMARK       I    between atoms: N_6  and  C_22 
REMARK    4  A    between atoms: C_9  and  C_12 
REMARK    5  A    between atoms: C_13  and  C_16 
REMARK    6  A    between atoms: C_13  and  C_21 
REMARK    7  A    between atoms: C_19  and  C_24 
REMARK    8  A    between atoms: C_21  and  C_33 
REMARK    9  A    between atoms: C_22  and  C_23 
REMARK   10  A    between atoms: C_27  and  C_30 
REMARK   11  A    between atoms: C_33  and  C_34 
REMARK   12  A    between atoms: C_34  and  C_35 
ROOT
HETATM    1  O   UNL     1      16.517   4.345  94.124  1.00  0.00    -0.350 OA
HETATM    2  N   UNL     1      14.743   2.648  92.683  1.00  0.00     0.147 N 
HETATM    3  C   UNL     1      14.580   4.108  92.681  1.00  0.00     0.283 C 
HETATM    4  C   UNL     1      15.374   2.213  93.937  1.00  0.00     0.283 C 
HETATM    5  C   UNL     1      15.934   4.780  92.894  1.00  0.00     0.178 C 
HETATM    6  C   UNL     1      16.708   2.930  94.122  1.00  0.00     0.178 C 
ENDROOT
BRANCH   2   7
HETATM    7  C   UNL     1      13.456   1.982  92.491  1.00  0.00     0.277 C 
BRANCH   7   8
HETATM    8  C   UNL     1      12.316   2.943  92.479  1.00  0.00     0.011 A 
HETATM    9  C   UNL     1      11.533   3.080  91.332  1.00  0.00    -0.002 A 
HETATM   10  C   UNL     1      10.467   3.981  91.320  1.00  0.00     0.008 A 
HETATM   11  C   UNL     1      10.185   4.741  92.454  1.00  0.00     0.042 A 
HETATM   12  C   UNL     1      10.966   4.605  93.599  1.00  0.00     0.008 A 
HETATM   13  C   UNL     1      12.032   3.705  93.612  1.00  0.00    -0.002 A 
BRANCH  11  14
HETATM   14  C   UNL     1       9.091   5.663  92.441  1.00  0.00    -0.059 C 
HETATM   15  C   UNL     1       8.171   6.438  92.430  1.00  0.00    -0.059 C 
BRANCH  15  16
HETATM   16  C   UNL     1       7.077   7.358  92.417  1.00  0.00     0.042 A 
HETATM   17  C   UNL     1       6.053   7.209  91.481  1.00  0.00     0.008 A 
HETATM   18  C   UNL     1       4.985   8.106  91.470  1.00  0.00     0.005 A 
HETATM   19  C   UNL     1       4.964   9.129  92.394  1.00  0.00     0.056 A 
HETATM   20  C   UNL     1       5.964   9.298  93.329  1.00  0.00     0.005 A 
HETATM   21  C   UNL     1       7.033   8.402  93.341  1.00  0.00     0.008 A 
BRANCH  19  22
HETATM   22  C   UNL     1       3.826  10.085  92.381  1.00  0.00     0.254 C 
HETATM   23  O   UNL     1       2.762   9.759  92.902  1.00  0.00    -0.268 OA
HETATM   24  N   UNL     1       4.072  11.315  91.786  1.00  0.00    -0.335 N 
HETATM   25  HN  UNL     1       4.985  11.524  91.399  1.00  0.00     0.164 HD
BRANCH  24  26
HETATM   26  C   UNL     1       3.078  12.355  91.716  1.00  0.00     0.166 C 
BRANCH  26  27
HETATM   27  C   UNL     1       3.006  13.194  92.999  1.00  0.00     0.138 C 
HETATM   28  C   UNL     1       4.361  13.767  93.398  1.00  0.00     0.034 C 
BRANCH  27  29
HETATM   29  O   UNL     1       2.085  14.269  92.815  1.00  0.00    -0.383 OA
HETATM   30  H   UNL     1       2.549  14.995  92.366  1.00  0.00     0.210 HD
ENDBRANCH  27  29
ENDBRANCH  26  27
BRANCH  26  31
HETATM   31  C   UNL     1       3.396  13.223  90.503  1.00  0.00     0.181 C 
HETATM   32  O   UNL     1       3.438  14.451  90.551  1.00  0.00    -0.294 OA
BRANCH  31  33
HETATM   33  C   UNL     1       4.762  12.752  89.767  1.00  0.00     0.138 C 
BRANCH  33  34
HETATM   34  C   UNL     1       4.277  12.404  88.487  1.00  0.00     0.208 C 
HETATM   35  O   UNL     1       4.734  13.029  87.557  1.00  0.00    -0.289 OA
BRANCH  34  36
HETATM   36  C   UNL     1       3.593  11.296  88.068  1.00  0.00     0.194 C 
HETATM   37  O   UNL     1       2.972  10.283  88.808  1.00  0.00    -0.185 OA
ENDBRANCH  34  36
ENDBRANCH  33  34
ENDBRANCH  31  33
ENDBRANCH  26  31
ENDBRANCH  24  26
ENDBRANCH  19  22
ENDBRANCH  15  16
ENDBRANCH  11  14
ENDBRANCH   7   8
ENDBRANCH   2   7
TORSDOF 12
ENDMDL
