MODEL 1
REMARK VINA RESULT:      -6.4      0.000      0.000
REMARK  14 active torsions:
REMARK  status: ('A' for Active; 'I' for Inactive)
REMARK    1  A    between atoms: O_2  and  C_18 
REMARK    2  A    between atoms: C_5  and  C_8 
REMARK    3  A    between atoms: C_5  and  O_35 
REMARK    4  A    between atoms: C_5  and  C_36 
REMARK    5  A    between atoms: N_6  and  C_11 
REMARK    6  A    between atoms: N_7  and  C_15 
REMARK       I    between atoms: N_7  and  C_24 
REMARK    7  A    between atoms: C_8  and  C_23 
REMARK    8  A    between atoms: C_11  and  C_14 
REMARK    9  A    between atoms: C_15  and  C_18 
REMARK   10  A    between atoms: C_15  and  C_23 
REMARK   11  A    between atoms: C_21  and  C_26 
REMARK   12  A    between atoms: C_24  and  C_25 
REMARK   13  A    between atoms: C_29  and  C_32 
REMARK   14  A    between atoms: C_36  and  O_39 
ROOT
HETATM    1  O   UNL     1      16.494   3.128  93.422  1.00  0.00    -0.350 OA
HETATM    2  N   UNL     1      13.744   2.748  92.790  1.00  0.00     0.147 N 
HETATM    3  C   UNL     1      14.592   1.632  93.232  1.00  0.00     0.283 C 
HETATM    4  C   UNL     1      14.560   3.756  92.099  1.00  0.00     0.283 C 
HETATM    5  C   UNL     1      15.715   2.157  94.124  1.00  0.00     0.178 C 
HETATM    6  C   UNL     1      15.683   4.231  93.016  1.00  0.00     0.178 C 
ENDROOT
BRANCH   2   7
HETATM    7  C   UNL     1      12.667   2.268  91.926  1.00  0.00     0.277 C 
BRANCH   7   8
HETATM    8  C   UNL     1      11.564   3.262  91.789  1.00  0.00     0.011 A 
HETATM    9  C   UNL     1      11.452   4.309  92.705  1.00  0.00    -0.002 A 
HETATM   10  C   UNL     1      10.419   5.237  92.580  1.00  0.00     0.008 A 
HETATM   11  C   UNL     1       9.500   5.119  91.538  1.00  0.00     0.042 A 
HETATM   12  C   UNL     1       9.610   4.074  90.623  1.00  0.00     0.008 A 
HETATM   13  C   UNL     1      10.643   3.145  90.748  1.00  0.00    -0.002 A 
BRANCH  11  14
HETATM   14  C   UNL     1       8.441   6.073  91.408  1.00  0.00    -0.059 C 
HETATM   15  C   UNL     1       7.552   6.875  91.299  1.00  0.00    -0.059 C 
BRANCH  15  16
HETATM   16  C   UNL     1       6.494   7.828  91.168  1.00  0.00     0.042 A 
HETATM   17  C   UNL     1       6.024   8.177  89.902  1.00  0.00     0.008 A 
HETATM   18  C   UNL     1       4.990   9.105  89.775  1.00  0.00     0.005 A 
HETATM   19  C   UNL     1       4.450   9.661  90.916  1.00  0.00     0.056 A 
HETATM   20  C   UNL     1       4.897   9.333  92.178  1.00  0.00     0.005 A 
HETATM   21  C   UNL     1       5.931   8.405  92.307  1.00  0.00     0.008 A 
BRANCH  19  22
HETATM   22  C   UNL     1       3.350  10.651  90.780  1.00  0.00     0.254 C 
HETATM   23  O   UNL     1       2.541  10.527  89.864  1.00  0.00    -0.268 OA
HETATM   24  N   UNL     1       3.310  11.652  91.741  1.00  0.00    -0.335 N 
HETATM   25  HN  UNL     1       3.998  11.676  92.485  1.00  0.00     0.164 HD
BRANCH  24  26
HETATM   26  C   UNL     1       2.291  12.670  91.759  1.00  0.00     0.169 C 
BRANCH  26  27
HETATM   27  C   UNL     1       1.689  12.884  93.154  1.00  0.00     0.138 C 
HETATM   28  C   UNL     1       1.480  11.574  93.906  1.00  0.00     0.034 C 
BRANCH  27  29
HETATM   29  O   UNL     1       2.549  13.726  93.920  1.00  0.00    -0.383 OA
HETATM   30  H   UNL     1       2.026  14.476  94.251  1.00  0.00     0.210 HD
ENDBRANCH  27  29
ENDBRANCH  26  27
BRANCH  26  31
HETATM   31  C   UNL     1       2.907  13.956  91.218  1.00  0.00     0.194 C 
HETATM   32  O   UNL     1       3.240  14.894  91.940  1.00  0.00    -0.289 OA
BRANCH  31  33
HETATM   33  C   UNL     1       3.006  13.948  89.848  1.00  0.00     0.053 C 
BRANCH  33  34
HETATM   34  C   UNL     1       4.309  13.929  89.330  1.00  0.00     0.220 C 
BRANCH  34  35
HETATM   35  O   UNL     1       5.100  13.934  90.292  1.00  0.00    -0.371 OA
HETATM   36  H   UNL     1       5.894  14.108  89.809  1.00  0.00     0.211 HD
ENDBRANCH  34  35
BRANCH  34  37
HETATM   37  C   UNL     1       4.546  12.861  88.448  1.00  0.00     0.185 C 
HETATM   38  O   UNL     1       5.675  12.757  89.133  1.00  0.00    -0.647 OA
BRANCH  37  39
HETATM   39  O   UNL     1       3.994  12.357  87.517  1.00  0.00    -0.774 OA
HETATM   40  H   UNL     1       4.712  11.747  86.885  1.00  0.00     0.167 HD
ENDBRANCH  37  39
ENDBRANCH  34  37
ENDBRANCH  33  34
ENDBRANCH  31  33
ENDBRANCH  26  31
ENDBRANCH  24  26
ENDBRANCH  19  22
ENDBRANCH  15  16
ENDBRANCH  11  14
ENDBRANCH   7   8
ENDBRANCH   2   7
TORSDOF 14
ENDMDL
MODEL 2
REMARK VINA RESULT:      -6.4      1.440      2.396
REMARK  14 active torsions:
REMARK  status: ('A' for Active; 'I' for Inactive)
REMARK    1  A    between atoms: O_2  and  C_18 
REMARK    2  A    between atoms: C_5  and  C_8 
REMARK    3  A    between atoms: C_5  and  O_35 
REMARK    4  A    between atoms: C_5  and  C_36 
REMARK    5  A    between atoms: N_6  and  C_11 
REMARK    6  A    between atoms: N_7  and  C_15 
REMARK       I    between atoms: N_7  and  C_24 
REMARK    7  A    between atoms: C_8  and  C_23 
REMARK    8  A    between atoms: C_11  and  C_14 
REMARK    9  A    between atoms: C_15  and  C_18 
REMARK   10  A    between atoms: C_15  and  C_23 
REMARK   11  A    between atoms: C_21  and  C_26 
REMARK   12  A    between atoms: C_24  and  C_25 
REMARK   13  A    between atoms: C_29  and  C_32 
REMARK   14  A    between atoms: C_36  and  O_39 
ROOT
HETATM    1  O   UNL     1      16.337   4.269  94.124  1.00  0.00    -0.350 OA
HETATM    2  N   UNL     1      14.514   2.738  92.564  1.00  0.00     0.147 N 
HETATM    3  C   UNL     1      14.479   4.207  92.564  1.00  0.00     0.283 C 
HETATM    4  C   UNL     1      15.026   2.247  93.851  1.00  0.00     0.283 C 
HETATM    5  C   UNL     1      15.871   4.757  92.865  1.00  0.00     0.178 C 
HETATM    6  C   UNL     1      16.403   2.842  94.122  1.00  0.00     0.178 C 
ENDROOT
BRANCH   2   7
HETATM    7  C   UNL     1      13.187   2.189  92.288  1.00  0.00     0.277 C 
BRANCH   7   8
HETATM    8  C   UNL     1      12.123   3.233  92.319  1.00  0.00     0.011 A 
HETATM    9  C   UNL     1      11.381   3.505  91.170  1.00  0.00    -0.002 A 
HETATM   10  C   UNL     1      10.386   4.483  91.197  1.00  0.00     0.008 A 
HETATM   11  C   UNL     1      10.133   5.186  92.375  1.00  0.00     0.042 A 
HETATM   12  C   UNL     1      10.874   4.915  93.523  1.00  0.00     0.008 A 
HETATM   13  C   UNL     1      11.869   3.938  93.496  1.00  0.00    -0.002 A 
BRANCH  11  14
HETATM   14  C   UNL     1       9.112   6.187  92.403  1.00  0.00    -0.059 C 
HETATM   15  C   UNL     1       8.253   7.028  92.428  1.00  0.00    -0.059 C 
BRANCH  15  16
HETATM   16  C   UNL     1       7.233   8.029  92.457  1.00  0.00     0.042 A 
HETATM   17  C   UNL     1       7.538   9.323  92.882  1.00  0.00     0.008 A 
HETATM   18  C   UNL     1       6.543  10.300  92.908  1.00  0.00     0.005 A 
HETATM   19  C   UNL     1       5.267   9.962  92.508  1.00  0.00     0.056 A 
HETATM   20  C   UNL     1       4.940   8.691  92.085  1.00  0.00     0.005 A 
HETATM   21  C   UNL     1       5.934   7.713  92.058  1.00  0.00     0.008 A 
BRANCH  19  22
HETATM   22  C   UNL     1       4.206  11.003  92.538  1.00  0.00     0.254 C 
HETATM   23  O   UNL     1       3.261  10.874  93.312  1.00  0.00    -0.268 OA
HETATM   24  N   UNL     1       4.387  12.080  91.681  1.00  0.00    -0.335 N 
HETATM   25  HN  UNL     1       5.207  12.131  91.088  1.00  0.00     0.164 HD
BRANCH  24  26
HETATM   26  C   UNL     1       3.460  13.180  91.612  1.00  0.00     0.169 C 
BRANCH  26  27
HETATM   27  C   UNL     1       3.920  14.397  92.425  1.00  0.00     0.138 C 
HETATM   28  C   UNL     1       4.798  15.343  91.614  1.00  0.00     0.034 C 
BRANCH  27  29
HETATM   29  O   UNL     1       2.780  15.113  92.899  1.00  0.00    -0.383 OA
HETATM   30  H   UNL     1       1.983  14.611  92.659  1.00  0.00     0.210 HD
ENDBRANCH  27  29
ENDBRANCH  26  27
BRANCH  26  31
HETATM   31  C   UNL     1       3.269  13.537  90.142  1.00  0.00     0.194 C 
HETATM   32  O   UNL     1       2.344  14.239  89.738  1.00  0.00    -0.289 OA
BRANCH  31  33
HETATM   33  C   UNL     1       4.218  12.953  89.338  1.00  0.00     0.053 C 
BRANCH  33  34
HETATM   34  C   UNL     1       3.727  12.196  88.265  1.00  0.00     0.220 C 
BRANCH  34  35
HETATM   35  O   UNL     1       4.459  12.413  87.281  1.00  0.00    -0.371 OA
HETATM   36  H   UNL     1       5.294  12.340  87.717  1.00  0.00     0.211 HD
ENDBRANCH  34  35
BRANCH  34  37
HETATM   37  C   UNL     1       3.613  10.825  88.553  1.00  0.00     0.185 C 
HETATM   38  O   UNL     1       2.421  10.970  87.995  1.00  0.00    -0.647 OA
BRANCH  37  39
HETATM   39  O   UNL     1       4.274   9.986  89.088  1.00  0.00    -0.774 OA
HETATM   40  H   UNL     1       4.384  10.186  90.199  1.00  0.00     0.167 HD
ENDBRANCH  37  39
ENDBRANCH  34  37
ENDBRANCH  33  34
ENDBRANCH  31  33
ENDBRANCH  26  31
ENDBRANCH  24  26
ENDBRANCH  19  22
ENDBRANCH  15  16
ENDBRANCH  11  14
ENDBRANCH   7   8
ENDBRANCH   2   7
TORSDOF 14
ENDMDL
MODEL 3
REMARK VINA RESULT:      -5.6      2.499     12.967
REMARK  14 active torsions:
REMARK  status: ('A' for Active; 'I' for Inactive)
REMARK    1  A    between atoms: O_2  and  C_18 
REMARK    2  A    between atoms: C_5  and  C_8 
REMARK    3  A    between atoms: C_5  and  O_35 
REMARK    4  A    between atoms: C_5  and  C_36 
REMARK    5  A    between atoms: N_6  and  C_11 
REMARK    6  A    between atoms: N_7  and  C_15 
REMARK       I    between atoms: N_7  and  C_24 
REMARK    7  A    between atoms: C_8  and  C_23 
REMARK    8  A    between atoms: C_11  and  C_14 
REMARK    9  A    between atoms: C_15  and  C_18 
REMARK   10  A    between atoms: C_15  and  C_23 
REMARK   11  A    between atoms: C_21  and  C_26 
REMARK   12  A    between atoms: C_24  and  C_25 
REMARK   13  A    between atoms: C_29  and  C_32 
REMARK   14  A    between atoms: C_36  and  O_39 
ROOT
HETATM    1  O   UNL     1       2.930  14.992  93.882  1.00  0.00    -0.350 OA
HETATM    2  N   UNL     1       2.580  14.600  91.084  1.00  0.00     0.147 N 
HETATM    3  C   UNL     1       1.566  14.163  92.054  1.00  0.00     0.283 C 
HETATM    4  C   UNL     1       3.912  14.574  91.704  1.00  0.00     0.283 C 
HETATM    5  C   UNL     1       1.626  15.045  93.298  1.00  0.00     0.178 C 
HETATM    6  C   UNL     1       3.918  15.445  92.956  1.00  0.00     0.178 C 
ENDROOT
BRANCH   2   7
HETATM    7  C   UNL     1       2.547  13.762  89.887  1.00  0.00     0.277 C 
BRANCH   7   8
HETATM    8  C   UNL     1       3.531  12.644  89.950  1.00  0.00     0.011 A 
HETATM    9  C   UNL     1       3.223  11.483  90.660  1.00  0.00    -0.002 A 
HETATM   10  C   UNL     1       4.143  10.437  90.720  1.00  0.00     0.008 A 
HETATM   11  C   UNL     1       5.371  10.552  90.069  1.00  0.00     0.042 A 
HETATM   12  C   UNL     1       5.681  11.710  89.360  1.00  0.00     0.008 A 
HETATM   13  C   UNL     1       4.760  12.757  89.299  1.00  0.00    -0.002 A 
BRANCH  11  14
HETATM   14  C   UNL     1       6.315   9.478  90.130  1.00  0.00    -0.059 C 
HETATM   15  C   UNL     1       7.108   8.576  90.180  1.00  0.00    -0.059 C 
BRANCH  15  16
HETATM   16  C   UNL     1       8.052   7.504  90.241  1.00  0.00     0.042 A 
HETATM   17  C   UNL     1       7.776   6.377  91.017  1.00  0.00     0.008 A 
HETATM   18  C   UNL     1       8.696   5.330  91.074  1.00  0.00     0.005 A 
HETATM   19  C   UNL     1       9.868   5.432  90.355  1.00  0.00     0.056 A 
HETATM   20  C   UNL     1      10.164   6.535  89.582  1.00  0.00     0.005 A 
HETATM   21  C   UNL     1       9.245   7.583  89.524  1.00  0.00     0.008 A 
BRANCH  19  22
HETATM   22  C   UNL     1      10.848   4.317  90.418  1.00  0.00     0.254 C 
HETATM   23  O   UNL     1      10.725   3.365  89.650  1.00  0.00    -0.268 OA
HETATM   24  N   UNL     1      11.868   4.455  91.349  1.00  0.00    -0.335 N 
HETATM   25  HN  UNL     1      11.920   5.281  91.933  1.00  0.00     0.164 HD
BRANCH  24  26
HETATM   26  C   UNL     1      12.907   3.470  91.513  1.00  0.00     0.169 C 
BRANCH  26  27
HETATM   27  C   UNL     1      14.270   3.956  91.003  1.00  0.00     0.138 C 
HETATM   28  C   UNL     1      15.029   2.872  90.246  1.00  0.00     0.034 C 
BRANCH  27  29
HETATM   29  O   UNL     1      14.085   5.079  90.143  1.00  0.00    -0.383 OA
HETATM   30  H   UNL     1      14.818   5.700  90.290  1.00  0.00     0.210 HD
ENDBRANCH  27  29
ENDBRANCH  26  27
BRANCH  26  31
HETATM   31  C   UNL     1      12.968   3.100  92.991  1.00  0.00     0.194 C 
HETATM   32  O   UNL     1      12.128   2.389  93.539  1.00  0.00    -0.289 OA
BRANCH  31  33
HETATM   33  C   UNL     1      14.038   3.681  93.628  1.00  0.00     0.053 C 
BRANCH  33  34
HETATM   34  C   UNL     1      15.008   2.796  94.122  1.00  0.00     0.220 C 
BRANCH  34  35
HETATM   35  O   UNL     1      14.808   1.683  93.601  1.00  0.00    -0.371 OA
HETATM   36  H   UNL     1      13.933   1.841  93.281  1.00  0.00     0.211 HD
ENDBRANCH  34  35
BRANCH  34  37
HETATM   37  C   UNL     1      16.325   3.247  93.932  1.00  0.00     0.185 C 
HETATM   38  O   UNL     1      15.753   4.440  93.968  1.00  0.00    -0.647 OA
BRANCH  37  39
HETATM   39  O   UNL     1      17.402   2.756  93.770  1.00  0.00    -0.774 OA
HETATM   40  H   UNL     1      17.366   1.907  93.018  1.00  0.00     0.167 HD
ENDBRANCH  37  39
ENDBRANCH  34  37
ENDBRANCH  33  34
ENDBRANCH  31  33
ENDBRANCH  26  31
ENDBRANCH  24  26
ENDBRANCH  19  22
ENDBRANCH  15  16
ENDBRANCH  11  14
ENDBRANCH   7   8
ENDBRANCH   2   7
TORSDOF 14
ENDMDL
MODEL 4
REMARK VINA RESULT:      -5.2      2.717     12.437
REMARK  14 active torsions:
REMARK  status: ('A' for Active; 'I' for Inactive)
REMARK    1  A    between atoms: O_2  and  C_18 
REMARK    2  A    between atoms: C_5  and  C_8 
REMARK    3  A    between atoms: C_5  and  O_35 
REMARK    4  A    between atoms: C_5  and  C_36 
REMARK    5  A    between atoms: N_6  and  C_11 
REMARK    6  A    between atoms: N_7  and  C_15 
REMARK       I    between atoms: N_7  and  C_24 
REMARK    7  A    between atoms: C_8  and  C_23 
REMARK    8  A    between atoms: C_11  and  C_14 
REMARK    9  A    between atoms: C_15  and  C_18 
REMARK   10  A    between atoms: C_15  and  C_23 
REMARK   11  A    between atoms: C_21  and  C_26 
REMARK   12  A    between atoms: C_24  and  C_25 
REMARK   13  A    between atoms: C_29  and  C_32 
REMARK   14  A    between atoms: C_36  and  O_39 
ROOT
HETATM    1  O   UNL     1       2.848  14.374  94.099  1.00  0.00    -0.350 OA
HETATM    2  N   UNL     1       2.871  14.638  91.265  1.00  0.00     0.147 N 
HETATM    3  C   UNL     1       1.742  14.015  91.969  1.00  0.00     0.283 C 
HETATM    4  C   UNL     1       4.111  14.442  92.028  1.00  0.00     0.283 C 
HETATM    5  C   UNL     1       1.632  14.588  93.380  1.00  0.00     0.178 C 
HETATM    6  C   UNL     1       3.946  15.004  93.437  1.00  0.00     0.178 C 
ENDROOT
BRANCH   2   7
HETATM    7  C   UNL     1       3.001  14.096  89.913  1.00  0.00     0.277 C 
BRANCH   7   8
HETATM    8  C   UNL     1       3.917  12.922  89.859  1.00  0.00     0.011 A 
HETATM    9  C   UNL     1       3.510  11.695  90.385  1.00  0.00    -0.002 A 
HETATM   10  C   UNL     1       4.367  10.596  90.336  1.00  0.00     0.008 A 
HETATM   11  C   UNL     1       5.630  10.723  89.759  1.00  0.00     0.042 A 
HETATM   12  C   UNL     1       6.038  11.947  89.233  1.00  0.00     0.008 A 
HETATM   13  C   UNL     1       5.181  13.047  89.282  1.00  0.00    -0.002 A 
BRANCH  11  14
HETATM   14  C   UNL     1       6.508   9.595  89.707  1.00  0.00    -0.059 C 
HETATM   15  C   UNL     1       7.246   8.647  89.663  1.00  0.00    -0.059 C 
BRANCH  15  16
HETATM   16  C   UNL     1       8.124   7.520  89.611  1.00  0.00     0.042 A 
HETATM   17  C   UNL     1       8.989   7.260  90.675  1.00  0.00     0.008 A 
HETATM   18  C   UNL     1       9.844   6.159  90.624  1.00  0.00     0.005 A 
HETATM   19  C   UNL     1       9.814   5.343  89.513  1.00  0.00     0.056 A 
HETATM   20  C   UNL     1       8.970   5.578  88.449  1.00  0.00     0.005 A 
HETATM   21  C   UNL     1       8.115   6.679  88.498  1.00  0.00     0.008 A 
BRANCH  19  22
HETATM   22  C   UNL     1      10.727   4.171  89.459  1.00  0.00     0.254 C 
HETATM   23  O   UNL     1      10.669   3.410  88.497  1.00  0.00    -0.268 OA
HETATM   24  N   UNL     1      11.613   4.041  90.519  1.00  0.00    -0.335 N 
HETATM   25  HN  UNL     1      11.620   4.724  91.268  1.00  0.00     0.164 HD
BRANCH  24  26
HETATM   26  C   UNL     1      12.576   2.972  90.599  1.00  0.00     0.169 C 
BRANCH  26  27
HETATM   27  C   UNL     1      14.023   3.479  90.648  1.00  0.00     0.138 C 
HETATM   28  C   UNL     1      14.106   4.997  90.766  1.00  0.00     0.034 C 
BRANCH  27  29
HETATM   29  O   UNL     1      14.697   2.890  91.760  1.00  0.00    -0.383 OA
HETATM   30  H   UNL     1      14.155   3.030  92.554  1.00  0.00     0.210 HD
ENDBRANCH  27  29
ENDBRANCH  26  27
BRANCH  26  31
HETATM   31  C   UNL     1      12.240   2.133  91.828  1.00  0.00     0.194 C 
HETATM   32  O   UNL     1      12.719   1.019  92.029  1.00  0.00    -0.289 OA
BRANCH  31  33
HETATM   33  C   UNL     1      11.322   2.751  92.643  1.00  0.00     0.053 C 
BRANCH  33  34
HETATM   34  C   UNL     1      11.816   3.229  93.865  1.00  0.00     0.220 C 
BRANCH  34  35
HETATM   35  O   UNL     1      12.995   2.844  93.975  1.00  0.00    -0.371 OA
HETATM   36  H   UNL     1      13.193   3.255  94.803  1.00  0.00     0.211 HD
ENDBRANCH  34  35
BRANCH  34  37
HETATM   37  C   UNL     1      11.694   4.622  94.011  1.00  0.00     0.185 C 
HETATM   38  O   UNL     1      13.017   4.577  94.015  1.00  0.00    -0.647 OA
BRANCH  37  39
HETATM   39  O   UNL     1      10.807   5.414  94.124  1.00  0.00    -0.774 OA
HETATM   40  H   UNL     1       9.817   4.905  94.343  1.00  0.00     0.167 HD
ENDBRANCH  37  39
ENDBRANCH  34  37
ENDBRANCH  33  34
ENDBRANCH  31  33
ENDBRANCH  26  31
ENDBRANCH  24  26
ENDBRANCH  19  22
ENDBRANCH  15  16
ENDBRANCH  11  14
ENDBRANCH   7   8
ENDBRANCH   2   7
TORSDOF 14
ENDMDL
