MODEL 1
REMARK VINA RESULT:      -6.9      0.000      0.000
REMARK  10 active torsions:
REMARK  status: ('A' for Active; 'I' for Inactive)
REMARK    1  A    between atoms: O_2  and  C_16 
REMARK    2  A    between atoms: N_5  and  C_9 
REMARK    3  A    between atoms: N_6  and  C_13 
REMARK       I    between atoms: N_6  and  C_22 
REMARK    4  A    between atoms: C_9  and  C_12 
REMARK    5  A    between atoms: C_13  and  C_16 
REMARK    6  A    between atoms: C_13  and  C_21 
REMARK    7  A    between atoms: C_19  and  C_24 
REMARK    8  A    between atoms: C_22  and  C_23 
REMARK    9  A    between atoms: C_27  and  C_30 
REMARK   10  A    between atoms: N_33  and  S_34 
ROOT
HETATM    1  C   UNL     1       5.741  11.161  89.713  1.00  0.00     0.056 A 
HETATM    2  C   UNL     1       7.076  11.275  89.390  1.00  0.00     0.005 A 
HETATM    3  C   UNL     1       5.216  10.020  90.284  1.00  0.00     0.005 A 
HETATM    4  C   UNL     1       7.421   9.035  90.226  1.00  0.00     0.042 A 
HETATM    5  C   UNL     1       7.927  10.200  89.649  1.00  0.00     0.008 A 
HETATM    6  C   UNL     1       6.066   8.945  90.544  1.00  0.00     0.008 A 
ENDROOT
BRANCH   1   7
HETATM    7  C   UNL     1       4.835  12.307  89.439  1.00  0.00     0.254 C 
HETATM    8  O   UNL     1       4.720  12.718  88.287  1.00  0.00    -0.268 OA
HETATM    9  N   UNL     1       4.155  12.819  90.534  1.00  0.00    -0.337 N 
HETATM   10  HN  UNL     1       4.281  12.411  91.453  1.00  0.00     0.164 HD
BRANCH   9  11
HETATM   11  C   UNL     1       3.224  13.914  90.426  1.00  0.00     0.172 C 
BRANCH  11  12
HETATM   12  C   UNL     1       1.898  13.639  91.148  1.00  0.00     0.136 C 
HETATM   13  C   UNL     1       2.022  12.539  92.197  1.00  0.00     0.034 C 
BRANCH  12  14
HETATM   14  O   UNL     1       1.442  14.834  91.781  1.00  0.00    -0.383 OA
HETATM   15  H   UNL     1       1.062  14.597  92.643  1.00  0.00     0.210 HD
ENDBRANCH  12  14
ENDBRANCH  11  12
BRANCH  11  16
HETATM   16  C   UNL     1       3.906  15.162  90.976  1.00  0.00     0.398 A 
HETATM   17  O   UNL     1       5.009  15.546  90.593  1.00  0.00    -0.136 OA
HETATM   18  N   UNL     1       4.920  15.625  92.108  1.00  0.00     0.142 N 
HETATM   19  HN  UNL     1       5.825  15.986  91.999  1.00  0.00     0.338 HD
BRANCH  18  20
HETATM   20  S   UNL     1       4.239  15.123  93.211  1.00  0.00     0.076 SA
HETATM   21  H   UNL     1       4.478  15.629  94.259  1.00  0.00     0.136 HD
ENDBRANCH  18  20
ENDBRANCH  11  16
ENDBRANCH   9  11
ENDBRANCH   1   7
BRANCH   4  22
HETATM   22  C   UNL     1       8.292   7.932  90.488  1.00  0.00    -0.059 C 
HETATM   23  C   UNL     1       9.024   7.004  90.709  1.00  0.00    -0.059 C 
BRANCH  23  24
HETATM   24  C   UNL     1       9.896   5.901  90.971  1.00  0.00     0.042 A 
HETATM   25  C   UNL     1      10.655   5.352  89.937  1.00  0.00     0.008 A 
HETATM   26  C   UNL     1      11.504   4.275  90.192  1.00  0.00    -0.002 A 
HETATM   27  C   UNL     1      11.595   3.749  91.481  1.00  0.00     0.011 A 
HETATM   28  C   UNL     1      10.835   4.299  92.514  1.00  0.00    -0.002 A 
HETATM   29  C   UNL     1       9.986   5.376  92.258  1.00  0.00     0.008 A 
BRANCH  27  30
HETATM   30  C   UNL     1      12.504   2.599  91.753  1.00  0.00     0.277 C 
BRANCH  30  31
HETATM   31  N   UNL     1      13.511   2.913  92.765  1.00  0.00     0.147 N 
HETATM   32  C   UNL     1      14.324   1.728  93.075  1.00  0.00     0.283 C 
HETATM   33  C   UNL     1      15.375   2.082  94.124  1.00  0.00     0.178 C 
HETATM   34  O   UNL     1      16.204   3.148  93.657  1.00  0.00    -0.350 OA
HETATM   35  C   UNL     1      15.426   4.313  93.383  1.00  0.00     0.178 C 
HETATM   36  C   UNL     1      14.376   4.013  92.317  1.00  0.00     0.283 C 
ENDBRANCH  30  31
ENDBRANCH  27  30
ENDBRANCH  23  24
ENDBRANCH   4  22
TORSDOF 10
ENDMDL
MODEL 2
REMARK VINA RESULT:      -6.6      1.444      2.147
REMARK  10 active torsions:
REMARK  status: ('A' for Active; 'I' for Inactive)
REMARK    1  A    between atoms: O_2  and  C_16 
REMARK    2  A    between atoms: N_5  and  C_9 
REMARK    3  A    between atoms: N_6  and  C_13 
REMARK       I    between atoms: N_6  and  C_22 
REMARK    4  A    between atoms: C_9  and  C_12 
REMARK    5  A    between atoms: C_13  and  C_16 
REMARK    6  A    between atoms: C_13  and  C_21 
REMARK    7  A    between atoms: C_19  and  C_24 
REMARK    8  A    between atoms: C_22  and  C_23 
REMARK    9  A    between atoms: C_27  and  C_30 
REMARK   10  A    between atoms: N_33  and  S_34 
ROOT
HETATM    1  C   UNL     1       5.253  10.568  90.923  1.00  0.00     0.056 A 
HETATM    2  C   UNL     1       6.230  10.690  91.888  1.00  0.00     0.005 A 
HETATM    3  C   UNL     1       5.184   9.479  90.079  1.00  0.00     0.005 A 
HETATM    4  C   UNL     1       7.135   8.568  91.174  1.00  0.00     0.042 A 
HETATM    5  C   UNL     1       7.182   9.680  92.016  1.00  0.00     0.008 A 
HETATM    6  C   UNL     1       6.136   8.467  90.206  1.00  0.00     0.008 A 
ENDROOT
BRANCH   1   7
HETATM    7  C   UNL     1       4.237  11.644  90.788  1.00  0.00     0.254 C 
HETATM    8  O   UNL     1       3.246  11.450  90.089  1.00  0.00    -0.268 OA
HETATM    9  N   UNL     1       4.485  12.807  91.505  1.00  0.00    -0.337 N 
HETATM   10  HN  UNL     1       5.314  12.886  92.082  1.00  0.00     0.164 HD
BRANCH   9  11
HETATM   11  C   UNL     1       3.583  13.930  91.496  1.00  0.00     0.172 C 
BRANCH  11  12
HETATM   12  C   UNL     1       3.559  14.663  90.149  1.00  0.00     0.136 C 
HETATM   13  C   UNL     1       4.943  14.771  89.519  1.00  0.00     0.034 C 
BRANCH  12  14
HETATM   14  O   UNL     1       2.692  13.976  89.247  1.00  0.00    -0.383 OA
HETATM   15  H   UNL     1       3.061  13.091  89.084  1.00  0.00     0.210 HD
ENDBRANCH  12  14
ENDBRANCH  11  12
BRANCH  11  16
HETATM   16  C   UNL     1       2.197  13.417  91.873  1.00  0.00     0.398 A 
HETATM   17  O   UNL     1       1.195  14.130  91.868  1.00  0.00    -0.136 OA
HETATM   18  N   UNL     1       1.225  13.270  93.121  1.00  0.00     0.142 N 
HETATM   19  HN  UNL     1       0.372  13.727  93.281  1.00  0.00     0.338 HD
BRANCH  18  20
HETATM   20  S   UNL     1       2.070  12.545  93.954  1.00  0.00     0.076 SA
HETATM   21  H   UNL     1       1.574  12.055  94.916  1.00  0.00     0.136 HD
ENDBRANCH  18  20
ENDBRANCH  11  16
ENDBRANCH   9  11
ENDBRANCH   1   7
BRANCH   4  22
HETATM   22  C   UNL     1       8.113   7.533  91.303  1.00  0.00    -0.059 C 
HETATM   23  C   UNL     1       8.935   6.662  91.411  1.00  0.00    -0.059 C 
BRANCH  23  24
HETATM   24  C   UNL     1       9.913   5.626  91.540  1.00  0.00     0.042 A 
HETATM   25  C   UNL     1      10.483   5.357  92.784  1.00  0.00     0.008 A 
HETATM   26  C   UNL     1      11.438   4.348  92.908  1.00  0.00    -0.002 A 
HETATM   27  C   UNL     1      11.820   3.607  91.789  1.00  0.00     0.011 A 
HETATM   28  C   UNL     1      11.249   3.878  90.546  1.00  0.00    -0.002 A 
HETATM   29  C   UNL     1      10.294   4.887  90.422  1.00  0.00     0.008 A 
BRANCH  27  30
HETATM   30  C   UNL     1      12.840   2.528  91.925  1.00  0.00     0.277 C 
BRANCH  30  31
HETATM   31  N   UNL     1      13.852   2.841  92.931  1.00  0.00     0.147 N 
HETATM   32  C   UNL     1      14.803   1.729  93.077  1.00  0.00     0.283 C 
HETATM   33  C   UNL     1      15.856   2.083  94.124  1.00  0.00     0.178 C 
HETATM   34  O   UNL     1      16.541   3.281  93.755  1.00  0.00    -0.350 OA
HETATM   35  C   UNL     1      15.628   4.373  93.642  1.00  0.00     0.178 C 
HETATM   36  C   UNL     1      14.570   4.075  92.584  1.00  0.00     0.283 C 
ENDBRANCH  30  31
ENDBRANCH  27  30
ENDBRANCH  23  24
ENDBRANCH   4  22
TORSDOF 10
ENDMDL
MODEL 3
REMARK VINA RESULT:      -6.6      1.592      1.789
REMARK  10 active torsions:
REMARK  status: ('A' for Active; 'I' for Inactive)
REMARK    1  A    between atoms: O_2  and  C_16 
REMARK    2  A    between atoms: N_5  and  C_9 
REMARK    3  A    between atoms: N_6  and  C_13 
REMARK       I    between atoms: N_6  and  C_22 
REMARK    4  A    between atoms: C_9  and  C_12 
REMARK    5  A    between atoms: C_13  and  C_16 
REMARK    6  A    between atoms: C_13  and  C_21 
REMARK    7  A    between atoms: C_19  and  C_24 
REMARK    8  A    between atoms: C_22  and  C_23 
REMARK    9  A    between atoms: C_27  and  C_30 
REMARK   10  A    between atoms: N_33  and  S_34 
ROOT
HETATM    1  C   UNL     1       4.869   9.656  90.580  1.00  0.00     0.056 A 
HETATM    2  C   UNL     1       5.364   9.477  91.855  1.00  0.00     0.005 A 
HETATM    3  C   UNL     1       5.358   8.958  89.496  1.00  0.00     0.005 A 
HETATM    4  C   UNL     1       6.907   7.841  90.975  1.00  0.00     0.042 A 
HETATM    5  C   UNL     1       6.395   8.560  92.056  1.00  0.00     0.008 A 
HETATM    6  C   UNL     1       6.389   8.040  89.695  1.00  0.00     0.008 A 
ENDROOT
BRANCH   1   7
HETATM    7  C   UNL     1       3.769  10.632  90.368  1.00  0.00     0.254 C 
HETATM    8  O   UNL     1       2.706  10.243  89.891  1.00  0.00    -0.268 OA
HETATM    9  N   UNL     1       4.030  11.938  90.759  1.00  0.00    -0.337 N 
HETATM   10  HN  UNL     1       4.924  12.181  91.170  1.00  0.00     0.164 HD
BRANCH   9  11
HETATM   11  C   UNL     1       3.057  12.993  90.640  1.00  0.00     0.172 C 
BRANCH  11  12
HETATM   12  C   UNL     1       2.729  13.653  91.985  1.00  0.00     0.136 C 
HETATM   13  C   UNL     1       1.279  13.436  92.404  1.00  0.00     0.034 C 
BRANCH  12  14
HETATM   14  O   UNL     1       3.587  13.127  92.997  1.00  0.00    -0.383 OA
HETATM   15  H   UNL     1       3.970  12.296  92.670  1.00  0.00     0.210 HD
ENDBRANCH  12  14
ENDBRANCH  11  12
BRANCH  11  16
HETATM   16  C   UNL     1       3.593  14.011  89.639  1.00  0.00     0.398 A 
HETATM   17  O   UNL     1       4.248  13.695  88.648  1.00  0.00    -0.136 OA
HETATM   18  N   UNL     1       4.878  14.895  89.336  1.00  0.00     0.142 N 
HETATM   19  HN  UNL     1       5.503  14.816  88.584  1.00  0.00     0.338 HD
BRANCH  18  20
HETATM   20  S   UNL     1       4.953  15.571  90.548  1.00  0.00     0.076 SA
HETATM   21  H   UNL     1       5.416  14.971  91.464  1.00  0.00     0.136 HD
ENDBRANCH  18  20
ENDBRANCH  11  16
ENDBRANCH   9  11
ENDBRANCH   1   7
BRANCH   4  22
HETATM   22  C   UNL     1       7.967   6.903  91.180  1.00  0.00    -0.059 C 
HETATM   23  C   UNL     1       8.858   6.114  91.351  1.00  0.00    -0.059 C 
BRANCH  23  24
HETATM   24  C   UNL     1       9.918   5.176  91.556  1.00  0.00     0.042 A 
HETATM   25  C   UNL     1      10.414   4.440  90.481  1.00  0.00     0.008 A 
HETATM   26  C   UNL     1      11.446   3.524  90.681  1.00  0.00    -0.002 A 
HETATM   27  C   UNL     1      11.983   3.345  91.956  1.00  0.00     0.011 A 
HETATM   28  C   UNL     1      11.486   4.083  93.031  1.00  0.00    -0.002 A 
HETATM   29  C   UNL     1      10.453   4.999  92.830  1.00  0.00     0.008 A 
BRANCH  27  30
HETATM   30  C   UNL     1      13.088   2.367  92.168  1.00  0.00     0.277 C 
BRANCH  30  31
HETATM   31  N   UNL     1      14.107   2.869  93.089  1.00  0.00     0.147 N 
HETATM   32  C   UNL     1      15.243   1.939  93.165  1.00  0.00     0.283 C 
HETATM   33  C   UNL     1      16.297   2.489  94.123  1.00  0.00     0.178 C 
HETATM   34  O   UNL     1      16.736   3.779  93.692  1.00  0.00    -0.350 OA
HETATM   35  C   UNL     1      15.642   4.696  93.646  1.00  0.00     0.178 C 
HETATM   36  C   UNL     1      14.573   4.200  92.678  1.00  0.00     0.283 C 
ENDBRANCH  30  31
ENDBRANCH  27  30
ENDBRANCH  23  24
ENDBRANCH   4  22
TORSDOF 10
ENDMDL
MODEL 4
REMARK VINA RESULT:      -6.5      1.323      1.924
REMARK  10 active torsions:
REMARK  status: ('A' for Active; 'I' for Inactive)
REMARK    1  A    between atoms: O_2  and  C_16 
REMARK    2  A    between atoms: N_5  and  C_9 
REMARK    3  A    between atoms: N_6  and  C_13 
REMARK       I    between atoms: N_6  and  C_22 
REMARK    4  A    between atoms: C_9  and  C_12 
REMARK    5  A    between atoms: C_13  and  C_16 
REMARK    6  A    between atoms: C_13  and  C_21 
REMARK    7  A    between atoms: C_19  and  C_24 
REMARK    8  A    between atoms: C_22  and  C_23 
REMARK    9  A    between atoms: C_27  and  C_30 
REMARK   10  A    between atoms: N_33  and  S_34 
ROOT
HETATM    1  C   UNL     1       4.925   9.652  90.292  1.00  0.00     0.056 A 
HETATM    2  C   UNL     1       4.633   8.305  90.253  1.00  0.00     0.005 A 
HETATM    3  C   UNL     1       6.198  10.123  90.531  1.00  0.00     0.005 A 
HETATM    4  C   UNL     1       6.959   7.838  90.709  1.00  0.00     0.042 A 
HETATM    5  C   UNL     1       5.661   7.386  90.465  1.00  0.00     0.008 A 
HETATM    6  C   UNL     1       7.228   9.206  90.742  1.00  0.00     0.008 A 
ENDROOT
BRANCH   1   7
HETATM    7  C   UNL     1       3.829  10.630  90.065  1.00  0.00     0.254 C 
HETATM    8  O   UNL     1       2.799  10.258  89.509  1.00  0.00    -0.268 OA
HETATM    9  N   UNL     1       4.056  11.917  90.535  1.00  0.00    -0.337 N 
HETATM   10  HN  UNL     1       4.922  12.145  91.007  1.00  0.00     0.164 HD
BRANCH   9  11
HETATM   11  C   UNL     1       3.080  12.970  90.412  1.00  0.00     0.172 C 
BRANCH  11  12
HETATM   12  C   UNL     1       2.508  13.410  91.765  1.00  0.00     0.136 C 
HETATM   13  C   UNL     1       1.373  14.417  91.619  1.00  0.00     0.034 C 
BRANCH  12  14
HETATM   14  O   UNL     1       2.027  12.269  92.474  1.00  0.00    -0.383 OA
HETATM   15  H   UNL     1       1.061  12.344  92.553  1.00  0.00     0.210 HD
ENDBRANCH  12  14
ENDBRANCH  11  12
BRANCH  11  16
HETATM   16  C   UNL     1       3.742  14.135  89.684  1.00  0.00     0.398 A 
HETATM   17  O   UNL     1       4.572  13.982  88.790  1.00  0.00    -0.136 OA
HETATM   18  N   UNL     1       5.024  15.071  89.749  1.00  0.00     0.142 N 
HETATM   19  HN  UNL     1       5.773  15.116  89.117  1.00  0.00     0.338 HD
BRANCH  18  20
HETATM   20  S   UNL     1       4.859  15.556  91.041  1.00  0.00     0.076 SA
HETATM   21  H   UNL     1       5.835  15.960  91.585  1.00  0.00     0.136 HD
ENDBRANCH  18  20
ENDBRANCH  11  16
ENDBRANCH   9  11
ENDBRANCH   1   7
BRANCH   4  22
HETATM   22  C   UNL     1       8.012   6.896  90.928  1.00  0.00    -0.059 C 
HETATM   23  C   UNL     1       8.899   6.105  91.113  1.00  0.00    -0.059 C 
BRANCH  23  24
HETATM   24  C   UNL     1       9.953   5.163  91.333  1.00  0.00     0.042 A 
HETATM   25  C   UNL     1      10.310   4.810  92.634  1.00  0.00     0.008 A 
HETATM   26  C   UNL     1      11.339   3.893  92.849  1.00  0.00    -0.002 A 
HETATM   27  C   UNL     1      12.009   3.330  91.763  1.00  0.00     0.011 A 
HETATM   28  C   UNL     1      11.651   3.684  90.463  1.00  0.00    -0.002 A 
HETATM   29  C   UNL     1      10.622   4.602  90.248  1.00  0.00     0.008 A 
BRANCH  27  30
HETATM   30  C   UNL     1      13.108   2.348  91.994  1.00  0.00     0.277 C 
BRANCH  30  31
HETATM   31  N   UNL     1      14.070   2.814  92.991  1.00  0.00     0.147 N 
HETATM   32  C   UNL     1      15.215   1.898  93.077  1.00  0.00     0.283 C 
HETATM   33  C   UNL     1      16.211   2.410  94.115  1.00  0.00     0.178 C 
HETATM   34  O   UNL     1      16.649   3.727  93.776  1.00  0.00    -0.350 OA
HETATM   35  C   UNL     1      15.545   4.630  93.722  1.00  0.00     0.178 C 
HETATM   36  C   UNL     1      14.534   4.172  92.676  1.00  0.00     0.283 C 
ENDBRANCH  30  31
ENDBRANCH  27  30
ENDBRANCH  23  24
ENDBRANCH   4  22
TORSDOF 10
ENDMDL
MODEL 5
REMARK VINA RESULT:      -6.1      1.654      2.179
REMARK  10 active torsions:
REMARK  status: ('A' for Active; 'I' for Inactive)
REMARK    1  A    between atoms: O_2  and  C_16 
REMARK    2  A    between atoms: N_5  and  C_9 
REMARK    3  A    between atoms: N_6  and  C_13 
REMARK       I    between atoms: N_6  and  C_22 
REMARK    4  A    between atoms: C_9  and  C_12 
REMARK    5  A    between atoms: C_13  and  C_16 
REMARK    6  A    between atoms: C_13  and  C_21 
REMARK    7  A    between atoms: C_19  and  C_24 
REMARK    8  A    between atoms: C_22  and  C_23 
REMARK    9  A    between atoms: C_27  and  C_30 
REMARK   10  A    between atoms: N_33  and  S_34 
ROOT
HETATM    1  C   UNL     1       5.667   9.257  89.521  1.00  0.00     0.056 A 
HETATM    2  C   UNL     1       5.382   7.910  89.603  1.00  0.00     0.005 A 
HETATM    3  C   UNL     1       6.924   9.760  89.784  1.00  0.00     0.005 A 
HETATM    4  C   UNL     1       7.678   7.511  90.237  1.00  0.00     0.042 A 
HETATM    5  C   UNL     1       6.398   7.026  89.965  1.00  0.00     0.008 A 
HETATM    6  C   UNL     1       7.941   8.878  90.147  1.00  0.00     0.008 A 
ENDROOT
BRANCH   1   7
HETATM    7  C   UNL     1       4.584  10.198  89.134  1.00  0.00     0.254 C 
HETATM    8  O   UNL     1       3.776   9.860  88.272  1.00  0.00    -0.268 OA
HETATM    9  N   UNL     1       4.558  11.408  89.813  1.00  0.00    -0.337 N 
HETATM   10  HN  UNL     1       5.244  11.608  90.531  1.00  0.00     0.164 HD
BRANCH   9  11
HETATM   11  C   UNL     1       3.556  12.413  89.567  1.00  0.00     0.172 C 
BRANCH  11  12
HETATM   12  C   UNL     1       3.036  13.061  90.857  1.00  0.00     0.136 C 
HETATM   13  C   UNL     1       1.849  13.985  90.609  1.00  0.00     0.034 C 
BRANCH  12  14
HETATM   14  O   UNL     1       2.647  12.044  91.779  1.00  0.00    -0.383 OA
HETATM   15  H   UNL     1       2.519  11.217  91.284  1.00  0.00     0.210 HD
ENDBRANCH  12  14
ENDBRANCH  11  12
BRANCH  11  16
HETATM   16  C   UNL     1       4.159  13.453  88.629  1.00  0.00     0.398 A 
HETATM   17  O   UNL     1       5.058  13.193  87.831  1.00  0.00    -0.136 OA
HETATM   18  N   UNL     1       5.346  14.506  88.542  1.00  0.00     0.142 N 
HETATM   19  HN  UNL     1       6.129  14.488  87.951  1.00  0.00     0.338 HD
BRANCH  18  20
HETATM   20  S   UNL     1       5.051  15.242  89.684  1.00  0.00     0.076 SA
HETATM   21  H   UNL     1       4.408  14.692  90.518  1.00  0.00     0.136 HD
ENDBRANCH  18  20
ENDBRANCH  11  16
ENDBRANCH   9  11
ENDBRANCH   1   7
BRANCH   4  22
HETATM   22  C   UNL     1       8.720   6.605  90.611  1.00  0.00    -0.059 C 
HETATM   23  C   UNL     1       9.595   5.844  90.925  1.00  0.00    -0.059 C 
BRANCH  23  24
HETATM   24  C   UNL     1      10.637   4.937  91.299  1.00  0.00     0.042 A 
HETATM   25  C   UNL     1      11.564   4.513  90.348  1.00  0.00     0.008 A 
HETATM   26  C   UNL     1      12.579   3.627  90.711  1.00  0.00    -0.002 A 
HETATM   27  C   UNL     1      12.666   3.168  92.026  1.00  0.00     0.011 A 
HETATM   28  C   UNL     1      11.738   3.594  92.976  1.00  0.00    -0.002 A 
HETATM   29  C   UNL     1      10.723   4.479  92.612  1.00  0.00     0.008 A 
BRANCH  27  30
HETATM   30  C   UNL     1      13.753   2.224  92.414  1.00  0.00     0.277 C 
BRANCH  30  31
HETATM   31  N   UNL     1      14.711   2.827  93.338  1.00  0.00     0.147 N 
HETATM   32  C   UNL     1      16.047   2.243  93.156  1.00  0.00     0.283 C 
HETATM   33  C   UNL     1      17.032   2.894  94.123  1.00  0.00     0.178 C 
HETATM   34  O   UNL     1      17.073   4.307  93.914  1.00  0.00    -0.350 OA
HETATM   35  C   UNL     1      15.784   4.887  94.120  1.00  0.00     0.178 C 
HETATM   36  C   UNL     1      14.770   4.283  93.154  1.00  0.00     0.283 C 
ENDBRANCH  30  31
ENDBRANCH  27  30
ENDBRANCH  23  24
ENDBRANCH   4  22
TORSDOF 10
ENDMDL
MODEL 6
REMARK VINA RESULT:      -5.7      3.040      4.036
REMARK  10 active torsions:
REMARK  status: ('A' for Active; 'I' for Inactive)
REMARK    1  A    between atoms: O_2  and  C_16 
REMARK    2  A    between atoms: N_5  and  C_9 
REMARK    3  A    between atoms: N_6  and  C_13 
REMARK       I    between atoms: N_6  and  C_22 
REMARK    4  A    between atoms: C_9  and  C_12 
REMARK    5  A    between atoms: C_13  and  C_16 
REMARK    6  A    between atoms: C_13  and  C_21 
REMARK    7  A    between atoms: C_19  and  C_24 
REMARK    8  A    between atoms: C_22  and  C_23 
REMARK    9  A    between atoms: C_27  and  C_30 
REMARK   10  A    between atoms: N_33  and  S_34 
ROOT
HETATM    1  C   UNL     1       6.143   7.467  88.265  1.00  0.00     0.056 A 
HETATM    2  C   UNL     1       6.044   7.287  89.629  1.00  0.00     0.005 A 
HETATM    3  C   UNL     1       7.209   6.988  87.534  1.00  0.00     0.005 A 
HETATM    4  C   UNL     1       8.149   6.102  89.576  1.00  0.00     0.042 A 
HETATM    5  C   UNL     1       7.059   6.597  90.293  1.00  0.00     0.008 A 
HETATM    6  C   UNL     1       8.224   6.298  88.197  1.00  0.00     0.008 A 
ENDROOT
BRANCH   1   7
HETATM    7  C   UNL     1       5.061   8.200  87.558  1.00  0.00     0.254 C 
HETATM    8  O   UNL     1       5.221   8.518  86.382  1.00  0.00    -0.268 OA
HETATM    9  N   UNL     1       3.913   8.452  88.298  1.00  0.00    -0.337 N 
HETATM   10  HN  UNL     1       3.843   8.137  89.258  1.00  0.00     0.164 HD
BRANCH   9  11
HETATM   11  C   UNL     1       2.769   9.131  87.746  1.00  0.00     0.172 C 
BRANCH  11  12
HETATM   12  C   UNL     1       1.462   8.354  87.949  1.00  0.00     0.136 C 
HETATM   13  C   UNL     1       1.511   6.959  87.336  1.00  0.00     0.034 C 
BRANCH  12  14
HETATM   14  O   UNL     1       1.189   8.237  89.345  1.00  0.00    -0.383 OA
HETATM   15  H   UNL     1       0.359   7.743  89.453  1.00  0.00     0.210 HD
ENDBRANCH  12  14
ENDBRANCH  11  12
BRANCH  11  16
HETATM   16  C   UNL     1       2.695  10.515  88.383  1.00  0.00     0.398 A 
HETATM   17  O   UNL     1       3.105  11.531  87.826  1.00  0.00    -0.136 OA
HETATM   18  N   UNL     1       3.544  11.514  89.281  1.00  0.00     0.142 N 
HETATM   19  HN  UNL     1       3.927  12.380  89.026  1.00  0.00     0.338 HD
BRANCH  18  20
HETATM   20  S   UNL     1       3.766  10.675  90.367  1.00  0.00     0.076 SA
HETATM   21  H   UNL     1       3.277   9.593  90.311  1.00  0.00     0.136 HD
ENDBRANCH  18  20
ENDBRANCH  11  16
ENDBRANCH   9  11
ENDBRANCH   1   7
BRANCH   4  22
HETATM   22  C   UNL     1       9.190   5.398  90.257  1.00  0.00    -0.059 C 
HETATM   23  C   UNL     1      10.065   4.805  90.829  1.00  0.00    -0.059 C 
BRANCH  23  24
HETATM   24  C   UNL     1      11.108   4.099  91.509  1.00  0.00     0.042 A 
HETATM   25  C   UNL     1      12.218   3.643  90.799  1.00  0.00     0.008 A 
HETATM   26  C   UNL     1      13.233   2.954  91.462  1.00  0.00    -0.002 A 
HETATM   27  C   UNL     1      13.139   2.723  92.835  1.00  0.00     0.011 A 
HETATM   28  C   UNL     1      12.028   3.180  93.543  1.00  0.00    -0.002 A 
HETATM   29  C   UNL     1      11.012   3.869  92.880  1.00  0.00     0.008 A 
BRANCH  27  30
HETATM   30  C   UNL     1      14.226   1.988  93.542  1.00  0.00     0.277 C 
BRANCH  30  31
HETATM   31  N   UNL     1      15.268   2.882  94.043  1.00  0.00     0.147 N 
HETATM   32  C   UNL     1      16.595   2.433  93.599  1.00  0.00     0.283 C 
HETATM   33  C   UNL     1      17.666   3.387  94.124  1.00  0.00     0.178 C 
HETATM   34  O   UNL     1      17.411   4.718  93.670  1.00  0.00    -0.350 OA
HETATM   35  C   UNL     1      16.136   5.173  94.124  1.00  0.00     0.178 C 
HETATM   36  C   UNL     1      15.029   4.262  93.600  1.00  0.00     0.283 C 
ENDBRANCH  30  31
ENDBRANCH  27  30
ENDBRANCH  23  24
ENDBRANCH   4  22
TORSDOF 10
ENDMDL
MODEL 7
REMARK VINA RESULT:      -5.3      3.537     12.350
REMARK  10 active torsions:
REMARK  status: ('A' for Active; 'I' for Inactive)
REMARK    1  A    between atoms: O_2  and  C_16 
REMARK    2  A    between atoms: N_5  and  C_9 
REMARK    3  A    between atoms: N_6  and  C_13 
REMARK       I    between atoms: N_6  and  C_22 
REMARK    4  A    between atoms: C_9  and  C_12 
REMARK    5  A    between atoms: C_13  and  C_16 
REMARK    6  A    between atoms: C_13  and  C_21 
REMARK    7  A    between atoms: C_19  and  C_24 
REMARK    8  A    between atoms: C_22  and  C_23 
REMARK    9  A    between atoms: C_27  and  C_30 
REMARK   10  A    between atoms: N_33  and  S_34 
ROOT
HETATM    1  C   UNL     1      10.052   5.772  89.753  1.00  0.00     0.056 A 
HETATM    2  C   UNL     1      10.259   6.879  88.957  1.00  0.00     0.005 A 
HETATM    3  C   UNL     1       8.954   5.655  90.579  1.00  0.00     0.005 A 
HETATM    4  C   UNL     1       8.208   7.822  89.816  1.00  0.00     0.042 A 
HETATM    5  C   UNL     1       9.327   7.916  88.988  1.00  0.00     0.008 A 
HETATM    6  C   UNL     1       8.021   6.691  90.611  1.00  0.00     0.008 A 
ENDROOT
BRANCH   1   7
HETATM    7  C   UNL     1      11.044   4.666  89.717  1.00  0.00     0.254 C 
HETATM    8  O   UNL     1      11.188   4.023  88.681  1.00  0.00    -0.268 OA
HETATM    9  N   UNL     1      11.765   4.459  90.885  1.00  0.00    -0.337 N 
HETATM   10  HN  UNL     1      11.609   5.047  91.695  1.00  0.00     0.164 HD
BRANCH   9  11
HETATM   11  C   UNL     1      12.780   3.442  91.000  1.00  0.00     0.172 C 
BRANCH  11  12
HETATM   12  C   UNL     1      14.188   4.025  91.171  1.00  0.00     0.136 C 
HETATM   13  C   UNL     1      15.282   3.025  90.812  1.00  0.00     0.034 C 
BRANCH  12  14
HETATM   14  O   UNL     1      14.330   5.182  90.348  1.00  0.00    -0.383 OA
HETATM   15  H   UNL     1      14.340   4.895  89.419  1.00  0.00     0.210 HD
ENDBRANCH  12  14
ENDBRANCH  11  12
BRANCH  11  16
HETATM   16  C   UNL     1      12.406   2.541  92.172  1.00  0.00     0.398 A 
HETATM   17  O   UNL     1      11.266   2.475  92.629  1.00  0.00    -0.136 OA
HETATM   18  N   UNL     1      12.283   2.553  93.756  1.00  0.00     0.142 N 
HETATM   19  HN  UNL     1      11.470   2.480  94.301  1.00  0.00     0.338 HD
BRANCH  18  20
HETATM   20  S   UNL     1      13.581   2.947  94.059  1.00  0.00     0.076 SA
HETATM   21  H   UNL     1      13.765   3.375  95.153  1.00  0.00     0.136 HD
ENDBRANCH  18  20
ENDBRANCH  11  16
ENDBRANCH   9  11
ENDBRANCH   1   7
BRANCH   4  22
HETATM   22  C   UNL     1       7.254   8.886  89.851  1.00  0.00    -0.059 C 
HETATM   23  C   UNL     1       6.451   9.781  89.879  1.00  0.00    -0.059 C 
BRANCH  23  24
HETATM   24  C   UNL     1       5.496  10.845  89.914  1.00  0.00     0.042 A 
HETATM   25  C   UNL     1       5.772  12.050  89.268  1.00  0.00     0.008 A 
HETATM   26  C   UNL     1       4.842  13.088  89.303  1.00  0.00    -0.002 A 
HETATM   27  C   UNL     1       3.635  12.921  89.984  1.00  0.00     0.011 A 
HETATM   28  C   UNL     1       3.361  11.715  90.630  1.00  0.00    -0.002 A 
HETATM   29  C   UNL     1       4.292  10.677  90.594  1.00  0.00     0.008 A 
BRANCH  27  30
HETATM   30  C   UNL     1       2.641  14.031  90.020  1.00  0.00     0.277 C 
BRANCH  30  31
HETATM   31  N   UNL     1       2.622  14.720  91.309  1.00  0.00     0.147 N 
HETATM   32  C   UNL     1       1.724  14.038  92.251  1.00  0.00     0.283 C 
HETATM   33  C   UNL     1       1.729  14.768  93.591  1.00  0.00     0.178 C 
HETATM   34  O   UNL     1       3.055  14.828  94.120  1.00  0.00    -0.350 OA
HETATM   35  C   UNL     1       3.927  15.518  93.224  1.00  0.00     0.178 C 
HETATM   36  C   UNL     1       3.975  14.807  91.875  1.00  0.00     0.283 C 
ENDBRANCH  30  31
ENDBRANCH  27  30
ENDBRANCH  23  24
ENDBRANCH   4  22
TORSDOF 10
ENDMDL
MODEL 8
REMARK VINA RESULT:      -5.3      3.576     12.557
REMARK  10 active torsions:
REMARK  status: ('A' for Active; 'I' for Inactive)
REMARK    1  A    between atoms: O_2  and  C_16 
REMARK    2  A    between atoms: N_5  and  C_9 
REMARK    3  A    between atoms: N_6  and  C_13 
REMARK       I    between atoms: N_6  and  C_22 
REMARK    4  A    between atoms: C_9  and  C_12 
REMARK    5  A    between atoms: C_13  and  C_16 
REMARK    6  A    between atoms: C_13  and  C_21 
REMARK    7  A    between atoms: C_19  and  C_24 
REMARK    8  A    between atoms: C_22  and  C_23 
REMARK    9  A    between atoms: C_27  and  C_30 
REMARK   10  A    between atoms: N_33  and  S_34 
ROOT
HETATM    1  C   UNL     1      10.245   5.074  92.070  1.00  0.00     0.056 A 
HETATM    2  C   UNL     1      10.171   5.572  90.786  1.00  0.00     0.005 A 
HETATM    3  C   UNL     1       9.462   5.561  93.095  1.00  0.00     0.005 A 
HETATM    4  C   UNL     1       8.472   7.116  91.534  1.00  0.00     0.042 A 
HETATM    5  C   UNL     1       9.274   6.605  90.514  1.00  0.00     0.008 A 
HETATM    6  C   UNL     1       8.565   6.595  92.824  1.00  0.00     0.008 A 
ENDROOT
BRANCH   1   7
HETATM    7  C   UNL     1      11.199   3.971  92.358  1.00  0.00     0.254 C 
HETATM    8  O   UNL     1      10.810   2.808  92.289  1.00  0.00    -0.268 OA
HETATM    9  N   UNL     1      12.496   4.355  92.667  1.00  0.00    -0.337 N 
HETATM   10  HN  UNL     1      12.752   5.336  92.681  1.00  0.00     0.164 HD
BRANCH   9  11
HETATM   11  C   UNL     1      13.541   3.403  92.947  1.00  0.00     0.172 C 
BRANCH  11  12
HETATM   12  C   UNL     1      14.061   2.704  91.684  1.00  0.00     0.136 C 
HETATM   13  C   UNL     1      14.096   3.633  90.475  1.00  0.00     0.034 C 
BRANCH  12  14
HETATM   14  O   UNL     1      15.376   2.204  91.923  1.00  0.00    -0.383 OA
HETATM   15  H   UNL     1      15.947   2.951  92.167  1.00  0.00     0.210 HD
ENDBRANCH  12  14
ENDBRANCH  11  12
BRANCH  11  16
HETATM   16  C   UNL     1      14.661   4.141  93.673  1.00  0.00     0.398 A 
HETATM   17  O   UNL     1      15.206   5.145  93.219  1.00  0.00    -0.136 OA
HETATM   18  N   UNL     1      16.245   4.191  93.784  1.00  0.00     0.142 N 
HETATM   19  HN  UNL     1      16.849   4.913  93.508  1.00  0.00     0.338 HD
BRANCH  18  20
HETATM   20  S   UNL     1      16.469   2.861  94.122  1.00  0.00     0.076 SA
HETATM   21  H   UNL     1      15.541   2.125  94.026  1.00  0.00     0.136 HD
ENDBRANCH  18  20
ENDBRANCH  11  16
ENDBRANCH   9  11
ENDBRANCH   1   7
BRANCH   4  22
HETATM   22  C   UNL     1       7.554   8.177  91.257  1.00  0.00    -0.059 C 
HETATM   23  C   UNL     1       6.784   9.070  91.023  1.00  0.00    -0.059 C 
BRANCH  23  24
HETATM   24  C   UNL     1       5.866  10.132  90.745  1.00  0.00     0.042 A 
HETATM   25  C   UNL     1       6.207  11.123  89.824  1.00  0.00     0.008 A 
HETATM   26  C   UNL     1       5.314  12.159  89.554  1.00  0.00    -0.002 A 
HETATM   27  C   UNL     1       4.079  12.203  90.203  1.00  0.00     0.011 A 
HETATM   28  C   UNL     1       3.740  11.211  91.123  1.00  0.00    -0.002 A 
HETATM   29  C   UNL     1       4.634  10.175  91.394  1.00  0.00     0.008 A 
BRANCH  27  30
HETATM   30  C   UNL     1       3.124  13.310  89.912  1.00  0.00     0.277 C 
BRANCH  30  31
HETATM   31  N   UNL     1       3.018  14.260  91.019  1.00  0.00     0.147 N 
HETATM   32  C   UNL     1       2.025  13.803  92.001  1.00  0.00     0.283 C 
HETATM   33  C   UNL     1       1.939  14.803  93.152  1.00  0.00     0.178 C 
HETATM   34  O   UNL     1       3.218  14.961  93.770  1.00  0.00    -0.350 OA
HETATM   35  C   UNL     1       4.181  15.434  92.828  1.00  0.00     0.178 C 
HETATM   36  C   UNL     1       4.321  14.450  91.671  1.00  0.00     0.283 C 
ENDBRANCH  30  31
ENDBRANCH  27  30
ENDBRANCH  23  24
ENDBRANCH   4  22
TORSDOF 10
ENDMDL
MODEL 9
REMARK VINA RESULT:      -5.2      3.762     12.621
REMARK  10 active torsions:
REMARK  status: ('A' for Active; 'I' for Inactive)
REMARK    1  A    between atoms: O_2  and  C_16 
REMARK    2  A    between atoms: N_5  and  C_9 
REMARK    3  A    between atoms: N_6  and  C_13 
REMARK       I    between atoms: N_6  and  C_22 
REMARK    4  A    between atoms: C_9  and  C_12 
REMARK    5  A    between atoms: C_13  and  C_16 
REMARK    6  A    between atoms: C_13  and  C_21 
REMARK    7  A    between atoms: C_19  and  C_24 
REMARK    8  A    between atoms: C_22  and  C_23 
REMARK    9  A    between atoms: C_27  and  C_30 
REMARK   10  A    between atoms: N_33  and  S_34 
ROOT
HETATM    1  C   UNL     1      10.444   4.718  92.788  1.00  0.00     0.056 A 
HETATM    2  C   UNL     1      10.486   5.786  93.658  1.00  0.00     0.005 A 
HETATM    3  C   UNL     1       9.451   4.578  91.842  1.00  0.00     0.005 A 
HETATM    4  C   UNL     1       8.472   6.639  92.633  1.00  0.00     0.042 A 
HETATM    5  C   UNL     1       9.489   6.759  93.581  1.00  0.00     0.008 A 
HETATM    6  C   UNL     1       8.453   5.549  91.763  1.00  0.00     0.008 A 
ENDROOT
BRANCH   1   7
HETATM    7  C   UNL     1      11.508   3.684  92.869  1.00  0.00     0.254 C 
HETATM    8  O   UNL     1      11.207   2.501  92.730  1.00  0.00    -0.268 OA
HETATM    9  N   UNL     1      12.798   4.153  93.078  1.00  0.00    -0.337 N 
HETATM   10  HN  UNL     1      12.975   5.147  93.159  1.00  0.00     0.164 HD
BRANCH   9  11
HETATM   11  C   UNL     1      13.939   3.276  93.156  1.00  0.00     0.172 C 
BRANCH  11  12
HETATM   12  C   UNL     1      14.339   2.700  91.792  1.00  0.00     0.136 C 
HETATM   13  C   UNL     1      14.128   3.693  90.654  1.00  0.00     0.034 C 
BRANCH  12  14
HETATM   14  O   UNL     1      15.712   2.314  91.821  1.00  0.00    -0.383 OA
HETATM   15  H   UNL     1      16.029   2.242  90.905  1.00  0.00     0.210 HD
ENDBRANCH  12  14
ENDBRANCH  11  12
BRANCH  11  16
HETATM   16  C   UNL     1      15.086   4.060  93.785  1.00  0.00     0.398 A 
HETATM   17  O   UNL     1      15.566   5.070  93.274  1.00  0.00    -0.136 OA
HETATM   18  N   UNL     1      16.671   4.157  93.779  1.00  0.00     0.142 N 
HETATM   19  HN  UNL     1      17.232   4.891  93.447  1.00  0.00     0.338 HD
BRANCH  18  20
HETATM   20  S   UNL     1      16.959   2.842  94.123  1.00  0.00     0.076 SA
HETATM   21  H   UNL     1      16.578   2.001  93.375  1.00  0.00     0.136 HD
ENDBRANCH  18  20
ENDBRANCH  11  16
ENDBRANCH   9  11
ENDBRANCH   1   7
BRANCH   4  22
HETATM   22  C   UNL     1       7.449   7.634  92.556  1.00  0.00    -0.059 C 
HETATM   23  C   UNL     1       6.587   8.470  92.490  1.00  0.00    -0.059 C 
BRANCH  23  24
HETATM   24  C   UNL     1       5.562   9.466  92.413  1.00  0.00     0.042 A 
HETATM   25  C   UNL     1       5.665  10.631  93.172  1.00  0.00     0.008 A 
HETATM   26  C   UNL     1       4.664  11.600  93.099  1.00  0.00    -0.002 A 
HETATM   27  C   UNL     1       3.563  11.404  92.265  1.00  0.00     0.011 A 
HETATM   28  C   UNL     1       3.462  10.238  91.506  1.00  0.00    -0.002 A 
HETATM   29  C   UNL     1       4.462   9.269  91.580  1.00  0.00     0.008 A 
BRANCH  27  30
HETATM   30  C   UNL     1       2.496  12.442  92.186  1.00  0.00     0.277 C 
BRANCH  30  31
HETATM   31  N   UNL     1       2.956  13.666  91.532  1.00  0.00     0.147 N 
HETATM   32  C   UNL     1       3.951  14.357  92.364  1.00  0.00     0.283 C 
HETATM   33  C   UNL     1       4.425  15.625  91.658  1.00  0.00     0.178 C 
HETATM   34  O   UNL     1       4.979  15.304  90.380  1.00  0.00    -0.350 OA
HETATM   35  C   UNL     1       4.008  14.659  89.554  1.00  0.00     0.178 C 
HETATM   36  C   UNL     1       3.524  13.370  90.210  1.00  0.00     0.283 C 
ENDBRANCH  30  31
ENDBRANCH  27  30
ENDBRANCH  23  24
ENDBRANCH   4  22
TORSDOF 10
ENDMDL
