MODEL 1
REMARK VINA RESULT:      -6.8      0.000      0.000
REMARK  10 active torsions:
REMARK  status: ('A' for Active; 'I' for Inactive)
REMARK    1  A    between atoms: O_2  and  C_16 
REMARK    2  A    between atoms: N_5  and  C_9 
REMARK    3  A    between atoms: N_6  and  C_13 
REMARK       I    between atoms: N_6  and  C_22 
REMARK    4  A    between atoms: C_9  and  C_12 
REMARK    5  A    between atoms: C_13  and  C_16 
REMARK    6  A    between atoms: C_13  and  C_21 
REMARK    7  A    between atoms: C_19  and  C_24 
REMARK    8  A    between atoms: C_22  and  C_23 
REMARK    9  A    between atoms: C_27  and  C_30 
REMARK   10  A    between atoms: N_33  and  S_34 
ROOT
HETATM    1  C   UNL     1       5.812  11.412  90.272  1.00  0.00     0.056 A 
HETATM    2  C   UNL     1       5.548  10.555  91.321  1.00  0.00     0.005 A 
HETATM    3  C   UNL     1       6.872  11.217  89.412  1.00  0.00     0.005 A 
HETATM    4  C   UNL     1       7.462   9.236  90.663  1.00  0.00     0.042 A 
HETATM    5  C   UNL     1       6.383   9.455  91.519  1.00  0.00     0.008 A 
HETATM    6  C   UNL     1       7.707  10.117  89.609  1.00  0.00     0.008 A 
ENDROOT
BRANCH   1   7
HETATM    7  C   UNL     1       4.922  12.582  90.060  1.00  0.00     0.254 C 
HETATM    8  O   UNL     1       4.959  13.177  88.986  1.00  0.00    -0.268 OA
HETATM    9  N   UNL     1       4.080  12.905  91.115  1.00  0.00    -0.337 N 
HETATM   10  HN  UNL     1       4.087  12.352  91.965  1.00  0.00     0.164 HD
BRANCH   9  11
HETATM   11  C   UNL     1       3.142  13.997  91.053  1.00  0.00     0.172 C 
BRANCH  11  12
HETATM   12  C   UNL     1       1.808  13.673  91.737  1.00  0.00     0.136 C 
HETATM   13  C   UNL     1       1.892  12.439  92.628  1.00  0.00     0.034 C 
BRANCH  12  14
HETATM   14  O   UNL     1       1.392  14.788  92.525  1.00  0.00    -0.383 OA
HETATM   15  H   UNL     1       1.949  15.550  92.293  1.00  0.00     0.210 HD
ENDBRANCH  12  14
ENDBRANCH  11  12
BRANCH  11  16
HETATM   16  C   UNL     1       3.806  15.217  91.684  1.00  0.00     0.398 A 
HETATM   17  O   UNL     1       4.916  15.625  91.346  1.00  0.00    -0.136 OA
HETATM   18  N   UNL     1       4.792  15.623  92.861  1.00  0.00     0.142 N 
HETATM   19  HN  UNL     1       5.698  15.993  92.791  1.00  0.00     0.338 HD
BRANCH  18  20
HETATM   20  S   UNL     1       4.090  15.061  93.920  1.00  0.00     0.076 SA
HETATM   21  H   UNL     1       4.554  15.209  95.004  1.00  0.00     0.136 HD
ENDBRANCH  18  20
ENDBRANCH  11  16
ENDBRANCH   9  11
ENDBRANCH   1   7
BRANCH   4  22
HETATM   22  C   UNL     1       8.319   8.110  90.867  1.00  0.00    -0.059 C 
HETATM   23  C   UNL     1       9.039   7.164  91.040  1.00  0.00    -0.059 C 
BRANCH  23  24
HETATM   24  C   UNL     1       9.896   6.036  91.246  1.00  0.00     0.042 A 
HETATM   25  C   UNL     1      10.188   5.611  92.541  1.00  0.00     0.008 A 
HETATM   26  C   UNL     1      11.025   4.513  92.742  1.00  0.00    -0.002 A 
HETATM   27  C   UNL     1      11.568   3.840  91.646  1.00  0.00     0.011 A 
HETATM   28  C   UNL     1      11.274   4.267  90.351  1.00  0.00    -0.002 A 
HETATM   29  C   UNL     1      10.438   5.365  90.151  1.00  0.00     0.008 A 
BRANCH  27  30
HETATM   30  C   UNL     1      12.460   2.666  91.862  1.00  0.00     0.277 C 
BRANCH  30  31
HETATM   31  N   UNL     1      13.524   2.944  92.826  1.00  0.00     0.147 N 
HETATM   32  C   UNL     1      14.314   1.734  93.092  1.00  0.00     0.283 C 
HETATM   33  C   UNL     1      15.423   2.051  94.091  1.00  0.00     0.178 C 
HETATM   34  O   UNL     1      16.262   3.094  93.589  1.00  0.00    -0.350 OA
HETATM   35  C   UNL     1      15.507   4.283  93.357  1.00  0.00     0.178 C 
HETATM   36  C   UNL     1      14.399   4.020  92.341  1.00  0.00     0.283 C 
ENDBRANCH  30  31
ENDBRANCH  27  30
ENDBRANCH  23  24
ENDBRANCH   4  22
TORSDOF 10
ENDMDL
