MODEL 1
REMARK VINA RESULT:      -7.0      0.000      0.000
REMARK  10 active torsions:
REMARK  status: ('A' for Active; 'I' for Inactive)
REMARK    1  A    between atoms: O_2  and  C_18 
REMARK    2  A    between atoms: O_5  and  N_8 
REMARK    3  A    between atoms: N_6  and  C_11 
REMARK    4  A    between atoms: N_7  and  C_15 
REMARK       I    between atoms: N_7  and  C_24 
REMARK       I    between atoms: N_8  and  C_23 
REMARK    5  A    between atoms: C_11  and  C_14 
REMARK    6  A    between atoms: C_15  and  C_18 
REMARK    7  A    between atoms: C_15  and  C_23 
REMARK    8  A    between atoms: C_21  and  C_26 
REMARK    9  A    between atoms: C_24  and  C_25 
REMARK   10  A    between atoms: C_29  and  C_32 
ROOT
HETATM    1  O   UNK     0      16.793   4.247  94.119  0.00  0.00    -0.388 OA
HETATM    2  N   UNK     0      14.824   2.654  92.820  0.00  0.00     0.096 N 
HETATM    3  C   UNK     0      14.720   4.120  92.864  0.00  0.00     0.299 C 
HETATM    4  C   UNK     0      15.552   2.166  93.998  0.00  0.00     0.299 C 
HETATM    5  C   UNK     0      16.114   4.734  92.960  0.00  0.00     0.198 C 
HETATM    6  C   UNK     0      16.926   2.826  94.068  0.00  0.00     0.198 C 
ENDROOT
BRANCH   2   7
HETATM    7  C   UNK     0      13.498   2.044  92.738  0.00  0.00     0.311 C 
BRANCH   7   8
HETATM    8  C   UNK     0      12.437   3.034  92.398  0.00  0.00    -0.030 A 
HETATM    9  C   UNK     0      11.867   3.817  93.402  0.00  0.00     0.010 A 
HETATM   10  C   UNK     0      10.872   4.742  93.085  0.00  0.00     0.021 A 
HETATM   11  C   UNK     0      10.450   4.885  91.764  0.00  0.00     0.018 A 
HETATM   12  C   UNK     0      11.018   4.103  90.760  0.00  0.00     0.021 A 
HETATM   13  C   UNK     0      12.012   3.178  91.077  0.00  0.00     0.010 A 
BRANCH  11  14
HETATM   14  C   UNK     0       9.431   5.835  91.439  0.00  0.00    -0.061 C 
HETATM   15  C   UNK     0       8.575   6.634  91.165  0.00  0.00    -0.061 C 
BRANCH  15  16
HETATM   16  C   UNK     0       7.558   7.584  90.841  0.00  0.00     0.018 A 
HETATM   17  C   UNK     0       6.214   7.214  90.903  0.00  0.00     0.022 A 
HETATM   18  C   UNK     0       5.221   8.142  90.587  0.00  0.00     0.018 A 
HETATM   19  C   UNK     0       5.594   9.418  90.218  0.00  0.00     0.032 A 
HETATM   20  C   UNK     0       6.915   9.808  90.149  0.00  0.00     0.018 A 
HETATM   21  C   UNK     0       7.908   8.880  90.463  0.00  0.00     0.022 A 
BRANCH  19  22
HETATM   22  C   UNK     0       4.536  10.405  89.881  0.00  0.00     0.252 C 
HETATM   23  O   UNK     0       3.524  10.024  89.298  0.00  0.00    -0.268 OA
HETATM   24  N   UNK     0       4.773  11.712  90.285  0.00  0.00    -0.341 N 
HETATM   25  H   UNK     0       5.622  11.948  90.785  0.00  0.00     0.163 HD
BRANCH  24  26
HETATM   26  C   UNK     0       3.832  12.778  90.052  0.00  0.00     0.207 C 
BRANCH  26  27
HETATM   27  C   UNK     0       3.603  13.649  91.294  0.00  0.00     0.146 C 
HETATM   28  C   UNK     0       2.142  13.671  91.731  0.00  0.00     0.042 C 
BRANCH  27  29
HETATM   29  O   UNK     0       4.401  13.162  92.372  0.00  0.00    -0.393 OA
HETATM   30  H   UNK     0       4.681  13.921  92.911  0.00  0.00     0.210 HD
ENDBRANCH  27  29
ENDBRANCH  26  27
BRANCH  26  31
HETATM   31  C   UNK     0       4.347  13.608  88.881  0.00  0.00     0.266 C 
HETATM   32  O   UNK     0       4.616  14.804  88.975  0.00  0.00    -0.269 OA
HETATM   33  N   UNK     0       4.434  12.873  87.723  0.00  0.00    -0.236 N 
HETATM   34  H   UNK     0       4.138  11.913  87.590  0.00  0.00     0.197 HD
BRANCH  33  35
HETATM   35  O   UNK     0       4.865  13.573  86.588  0.00  0.00    -0.287 OA
HETATM   36  H   UNK     0       5.555  12.970  86.262  0.00  0.00     0.244 HD
ENDBRANCH  33  35
ENDBRANCH  26  31
ENDBRANCH  24  26
ENDBRANCH  19  22
ENDBRANCH  15  16
ENDBRANCH  11  14
ENDBRANCH   7   8
ENDBRANCH   2   7
TORSDOF 10
ENDMDL
