MODEL 1
REMARK VINA RESULT:      -6.1      0.000      0.000
REMARK  12 active torsions:
REMARK  status: ('A' for Active; 'I' for Inactive)
REMARK    1  A    between atoms: O_2  and  C_16 
REMARK    2  A    between atoms: N_5  and  C_9 
REMARK    3  A    between atoms: N_6  and  C_13 
REMARK       I    between atoms: N_6  and  C_22 
REMARK    4  A    between atoms: C_9  and  C_12 
REMARK    5  A    between atoms: C_13  and  C_16 
REMARK    6  A    between atoms: C_13  and  C_21 
REMARK    7  A    between atoms: C_19  and  C_24 
REMARK    8  A    between atoms: C_21  and  C_33 
REMARK    9  A    between atoms: C_22  and  C_23 
REMARK   10  A    between atoms: C_27  and  C_30 
REMARK   11  A    between atoms: C_33  and  C_34 
REMARK   12  A    between atoms: C_34  and  C_35 
ROOT
HETATM    1  O   UNL     1      16.336   2.803  94.029  1.00  0.00    -0.350 OA
HETATM    2  N   UNL     1      13.961   3.054  92.480  1.00  0.00     0.147 N 
HETATM    3  C   UNL     1      14.527   1.738  92.810  1.00  0.00     0.283 C 
HETATM    4  C   UNL     1      15.030   4.060  92.417  1.00  0.00     0.283 C 
HETATM    5  C   UNL     1      15.300   1.823  94.124  1.00  0.00     0.178 C 
HETATM    6  C   UNL     1      15.791   4.090  93.738  1.00  0.00     0.178 C 
ENDROOT
BRANCH   2   7
HETATM    7  C   UNL     1      13.225   2.998  91.218  1.00  0.00     0.277 C 
BRANCH   7   8
HETATM    8  C   UNL     1      12.052   3.919  91.204  1.00  0.00     0.011 A 
HETATM    9  C   UNL     1      11.472   4.327  92.406  1.00  0.00    -0.002 A 
HETATM   10  C   UNL     1      10.374   5.187  92.394  1.00  0.00     0.008 A 
HETATM   11  C   UNL     1       9.858   5.640  91.180  1.00  0.00     0.042 A 
HETATM   12  C   UNL     1      10.436   5.233  89.979  1.00  0.00     0.008 A 
HETATM   13  C   UNL     1      11.534   4.373  89.991  1.00  0.00    -0.002 A 
BRANCH  11  14
HETATM   14  C   UNL     1       8.733   6.523  91.168  1.00  0.00    -0.059 C 
HETATM   15  C   UNL     1       7.788   7.267  91.158  1.00  0.00    -0.059 C 
BRANCH  15  16
HETATM   16  C   UNL     1       6.664   8.150  91.145  1.00  0.00     0.042 A 
HETATM   17  C   UNL     1       5.671   8.001  90.176  1.00  0.00     0.008 A 
HETATM   18  C   UNL     1       4.574   8.862  90.166  1.00  0.00     0.005 A 
HETATM   19  C   UNL     1       4.493   9.851  91.124  1.00  0.00     0.056 A 
HETATM   20  C   UNL     1       5.461  10.019  92.092  1.00  0.00     0.005 A 
HETATM   21  C   UNL     1       6.559   9.159  92.103  1.00  0.00     0.008 A 
BRANCH  19  22
HETATM   22  C   UNL     1       3.324  10.768  91.111  1.00  0.00     0.254 C 
HETATM   23  O   UNL     1       2.319  10.451  90.480  1.00  0.00    -0.268 OA
HETATM   24  N   UNL     1       3.458  11.933  91.855  1.00  0.00    -0.335 N 
HETATM   25  HN  UNL     1       4.309  12.116  92.372  1.00  0.00     0.164 HD
BRANCH  24  26
HETATM   26  C   UNL     1       2.404  12.910  91.961  1.00  0.00     0.166 C 
BRANCH  26  27
HETATM   27  C   UNL     1       2.334  13.558  93.350  1.00  0.00     0.138 C 
HETATM   28  C   UNL     1       3.710  13.925  93.893  1.00  0.00     0.034 C 
BRANCH  27  29
HETATM   29  O   UNL     1       1.531  14.737  93.286  1.00  0.00    -0.383 OA
HETATM   30  H   UNL     1       1.607  15.109  92.391  1.00  0.00     0.210 HD
ENDBRANCH  27  29
ENDBRANCH  26  27
BRANCH  26  31
HETATM   31  C   UNL     1       2.626  13.954  90.872  1.00  0.00     0.181 C 
HETATM   32  O   UNL     1       1.832  14.866  90.647  1.00  0.00    -0.294 OA
BRANCH  31  33
HETATM   33  C   UNL     1       4.088  14.645  90.989  1.00  0.00     0.138 C 
BRANCH  33  34
HETATM   34  C   UNL     1       4.516  14.607  89.643  1.00  0.00     0.208 C 
HETATM   35  O   UNL     1       5.132  15.572  89.253  1.00  0.00    -0.289 OA
BRANCH  34  36
HETATM   36  C   UNL     1       4.613  13.556  88.773  1.00  0.00     0.194 C 
HETATM   37  O   UNL     1       5.737  12.855  88.323  1.00  0.00    -0.185 OA
ENDBRANCH  34  36
ENDBRANCH  33  34
ENDBRANCH  31  33
ENDBRANCH  26  31
ENDBRANCH  24  26
ENDBRANCH  19  22
ENDBRANCH  15  16
ENDBRANCH  11  14
ENDBRANCH   7   8
ENDBRANCH   2   7
TORSDOF 12
ENDMDL
MODEL 2
REMARK VINA RESULT:      -6.0      1.524      2.021
REMARK  12 active torsions:
REMARK  status: ('A' for Active; 'I' for Inactive)
REMARK    1  A    between atoms: O_2  and  C_16 
REMARK    2  A    between atoms: N_5  and  C_9 
REMARK    3  A    between atoms: N_6  and  C_13 
REMARK       I    between atoms: N_6  and  C_22 
REMARK    4  A    between atoms: C_9  and  C_12 
REMARK    5  A    between atoms: C_13  and  C_16 
REMARK    6  A    between atoms: C_13  and  C_21 
REMARK    7  A    between atoms: C_19  and  C_24 
REMARK    8  A    between atoms: C_21  and  C_33 
REMARK    9  A    between atoms: C_22  and  C_23 
REMARK   10  A    between atoms: C_27  and  C_30 
REMARK   11  A    between atoms: C_33  and  C_34 
REMARK   12  A    between atoms: C_34  and  C_35 
ROOT
HETATM    1  O   UNL     1      16.551   4.268  94.093  1.00  0.00    -0.350 OA
HETATM    2  N   UNL     1      14.682   2.706  92.620  1.00  0.00     0.147 N 
HETATM    3  C   UNL     1      14.652   4.174  92.584  1.00  0.00     0.283 C 
HETATM    4  C   UNL     1      15.227   2.244  93.904  1.00  0.00     0.283 C 
HETATM    5  C   UNL     1      16.053   4.727  92.834  1.00  0.00     0.178 C 
HETATM    6  C   UNL     1      16.613   2.842  94.124  1.00  0.00     0.178 C 
ENDROOT
BRANCH   2   7
HETATM    7  C   UNL     1      13.347   2.155  92.393  1.00  0.00     0.277 C 
BRANCH   7   8
HETATM    8  C   UNL     1      12.287   3.202  92.425  1.00  0.00     0.011 A 
HETATM    9  C   UNL     1      11.936   3.801  93.636  1.00  0.00    -0.002 A 
HETATM   10  C   UNL     1      10.943   4.780  93.667  1.00  0.00     0.008 A 
HETATM   11  C   UNL     1      10.304   5.161  92.488  1.00  0.00     0.042 A 
HETATM   12  C   UNL     1      10.654   4.564  91.279  1.00  0.00     0.008 A 
HETATM   13  C   UNL     1      11.646   3.585  91.247  1.00  0.00    -0.002 A 
BRANCH  11  14
HETATM   14  C   UNL     1       9.286   6.167  92.520  1.00  0.00    -0.059 C 
HETATM   15  C   UNL     1       8.431   7.011  92.547  1.00  0.00    -0.059 C 
BRANCH  15  16
HETATM   16  C   UNL     1       7.414   8.016  92.580  1.00  0.00     0.042 A 
HETATM   17  C   UNL     1       6.070   7.645  92.616  1.00  0.00     0.008 A 
HETATM   18  C   UNL     1       5.078   8.625  92.651  1.00  0.00     0.005 A 
HETATM   19  C   UNL     1       5.453   9.953  92.650  1.00  0.00     0.056 A 
HETATM   20  C   UNL     1       6.774  10.345  92.615  1.00  0.00     0.005 A 
HETATM   21  C   UNL     1       7.767   9.365  92.580  1.00  0.00     0.008 A 
BRANCH  19  22
HETATM   22  C   UNL     1       4.396  10.997  92.685  1.00  0.00     0.254 C 
HETATM   23  O   UNL     1       3.465  10.881  93.479  1.00  0.00    -0.268 OA
HETATM   24  N   UNL     1       4.563  12.061  91.810  1.00  0.00    -0.335 N 
HETATM   25  HN  UNL     1       5.371  12.102  91.201  1.00  0.00     0.164 HD
BRANCH  24  26
HETATM   26  C   UNL     1       3.637  13.163  91.743  1.00  0.00     0.166 C 
BRANCH  26  27
HETATM   27  C   UNL     1       3.861  14.195  92.855  1.00  0.00     0.138 C 
HETATM   28  C   UNL     1       2.556  14.659  93.493  1.00  0.00     0.034 C 
BRANCH  27  29
HETATM   29  O   UNL     1       4.697  13.634  93.866  1.00  0.00    -0.383 OA
HETATM   30  H   UNL     1       5.083  12.811  93.521  1.00  0.00     0.210 HD
ENDBRANCH  27  29
ENDBRANCH  26  27
BRANCH  26  31
HETATM   31  C   UNL     1       3.767  13.798  90.363  1.00  0.00     0.181 C 
HETATM   32  O   UNL     1       3.703  15.011  90.175  1.00  0.00    -0.294 OA
BRANCH  31  33
HETATM   33  C   UNL     1       5.099  13.290  89.590  1.00  0.00     0.138 C 
BRANCH  33  34
HETATM   34  C   UNL     1       4.553  12.851  88.364  1.00  0.00     0.208 C 
HETATM   35  O   UNL     1       4.950  13.416  87.371  1.00  0.00    -0.289 OA
BRANCH  34  36
HETATM   36  C   UNL     1       3.865  11.708  88.057  1.00  0.00     0.194 C 
HETATM   37  O   UNL     1       2.630  11.244  88.523  1.00  0.00    -0.185 OA
ENDBRANCH  34  36
ENDBRANCH  33  34
ENDBRANCH  31  33
ENDBRANCH  26  31
ENDBRANCH  24  26
ENDBRANCH  19  22
ENDBRANCH  15  16
ENDBRANCH  11  14
ENDBRANCH   7   8
ENDBRANCH   2   7
TORSDOF 12
ENDMDL
MODEL 3
REMARK VINA RESULT:      -4.7      2.757     12.420
REMARK  12 active torsions:
REMARK  status: ('A' for Active; 'I' for Inactive)
REMARK    1  A    between atoms: O_2  and  C_16 
REMARK    2  A    between atoms: N_5  and  C_9 
REMARK    3  A    between atoms: N_6  and  C_13 
REMARK       I    between atoms: N_6  and  C_22 
REMARK    4  A    between atoms: C_9  and  C_12 
REMARK    5  A    between atoms: C_13  and  C_16 
REMARK    6  A    between atoms: C_13  and  C_21 
REMARK    7  A    between atoms: C_19  and  C_24 
REMARK    8  A    between atoms: C_21  and  C_33 
REMARK    9  A    between atoms: C_22  and  C_23 
REMARK   10  A    between atoms: C_27  and  C_30 
REMARK   11  A    between atoms: C_33  and  C_34 
REMARK   12  A    between atoms: C_34  and  C_35 
ROOT
HETATM    1  O   UNL     1       3.012  14.604  94.051  1.00  0.00    -0.350 OA
HETATM    2  N   UNL     1       2.689  14.626  91.223  1.00  0.00     0.147 N 
HETATM    3  C   UNL     1       1.753  13.906  92.097  1.00  0.00     0.283 C 
HETATM    4  C   UNL     1       4.019  14.680  91.846  1.00  0.00     0.283 C 
HETATM    5  C   UNL     1       1.707  14.575  93.469  1.00  0.00     0.178 C 
HETATM    6  C   UNL     1       3.921  15.329  93.222  1.00  0.00     0.178 C 
ENDROOT
BRANCH   2   7
HETATM    7  C   UNL     1       2.757  13.996  89.906  1.00  0.00     0.277 C 
BRANCH   7   8
HETATM    8  C   UNL     1       3.750  12.885  89.858  1.00  0.00     0.011 A 
HETATM    9  C   UNL     1       3.436  11.646  90.420  1.00  0.00    -0.002 A 
HETATM   10  C   UNL     1       4.365  10.607  90.378  1.00  0.00     0.008 A 
HETATM   11  C   UNL     1       5.605  10.805  89.772  1.00  0.00     0.042 A 
HETATM   12  C   UNL     1       5.919  12.041  89.211  1.00  0.00     0.008 A 
HETATM   13  C   UNL     1       4.991  13.082  89.253  1.00  0.00    -0.002 A 
BRANCH  11  14
HETATM   14  C   UNL     1       6.557   9.738  89.727  1.00  0.00    -0.059 C 
HETATM   15  C   UNL     1       7.357   8.841  89.689  1.00  0.00    -0.059 C 
BRANCH  15  16
HETATM   16  C   UNL     1       8.308   7.775  89.643  1.00  0.00     0.042 A 
HETATM   17  C   UNL     1       9.206   7.688  88.578  1.00  0.00     0.008 A 
HETATM   18  C   UNL     1      10.136   6.649  88.535  1.00  0.00     0.005 A 
HETATM   19  C   UNL     1      10.148   5.722  89.556  1.00  0.00     0.056 A 
HETATM   20  C   UNL     1       9.271   5.786  90.619  1.00  0.00     0.005 A 
HETATM   21  C   UNL     1       8.340   6.824  90.663  1.00  0.00     0.008 A 
BRANCH  19  22
HETATM   22  C   UNL     1      11.137   4.615  89.509  1.00  0.00     0.254 C 
HETATM   23  O   UNL     1      11.299   3.999  88.458  1.00  0.00    -0.268 OA
HETATM   24  N   UNL     1      11.837   4.373  90.683  1.00  0.00    -0.335 N 
HETATM   25  HN  UNL     1      11.667   4.939  91.507  1.00  0.00     0.164 HD
BRANCH  24  26
HETATM   26  C   UNL     1      12.846   3.350  90.789  1.00  0.00     0.166 C 
BRANCH  26  27
HETATM   27  C   UNL     1      14.264   3.924  90.892  1.00  0.00     0.138 C 
HETATM   28  C   UNL     1      15.301   3.046  90.199  1.00  0.00     0.034 C 
BRANCH  27  29
HETATM   29  O   UNL     1      14.296   5.226  90.308  1.00  0.00    -0.383 OA
HETATM   30  H   UNL     1      14.959   5.756  90.781  1.00  0.00     0.210 HD
ENDBRANCH  27  29
ENDBRANCH  26  27
BRANCH  26  31
HETATM   31  C   UNL     1      12.508   2.486  91.999  1.00  0.00     0.181 C 
HETATM   32  O   UNL     1      13.035   1.395  92.211  1.00  0.00    -0.294 OA
BRANCH  31  33
HETATM   33  C   UNL     1      12.622   3.319  93.385  1.00  0.00     0.138 C 
BRANCH  33  34
HETATM   34  C   UNL     1      11.383   3.998  93.399  1.00  0.00     0.208 C 
HETATM   35  O   UNL     1      10.448   3.409  92.906  1.00  0.00    -0.289 OA
BRANCH  34  36
HETATM   36  C   UNL     1      10.975   5.085  94.121  1.00  0.00     0.194 C 
HETATM   37  O   UNL     1      10.191   6.181  93.741  1.00  0.00    -0.185 OA
ENDBRANCH  34  36
ENDBRANCH  33  34
ENDBRANCH  31  33
ENDBRANCH  26  31
ENDBRANCH  24  26
ENDBRANCH  19  22
ENDBRANCH  15  16
ENDBRANCH  11  14
ENDBRANCH   7   8
ENDBRANCH   2   7
TORSDOF 12
ENDMDL
MODEL 4
REMARK VINA RESULT:      -3.8      1.436      3.062
REMARK  12 active torsions:
REMARK  status: ('A' for Active; 'I' for Inactive)
REMARK    1  A    between atoms: O_2  and  C_16 
REMARK    2  A    between atoms: N_5  and  C_9 
REMARK    3  A    between atoms: N_6  and  C_13 
REMARK       I    between atoms: N_6  and  C_22 
REMARK    4  A    between atoms: C_9  and  C_12 
REMARK    5  A    between atoms: C_13  and  C_16 
REMARK    6  A    between atoms: C_13  and  C_21 
REMARK    7  A    between atoms: C_19  and  C_24 
REMARK    8  A    between atoms: C_21  and  C_33 
REMARK    9  A    between atoms: C_22  and  C_23 
REMARK   10  A    between atoms: C_27  and  C_30 
REMARK   11  A    between atoms: C_33  and  C_34 
REMARK   12  A    between atoms: C_34  and  C_35 
ROOT
HETATM    1  O   UNL     1      17.092   4.281  94.124  1.00  0.00    -0.350 OA
HETATM    2  N   UNL     1      14.873   2.852  93.058  1.00  0.00     0.147 N 
HETATM    3  C   UNL     1      14.872   4.319  93.144  1.00  0.00     0.283 C 
HETATM    4  C   UNL     1      15.713   2.286  94.123  1.00  0.00     0.283 C 
HETATM    5  C   UNL     1      16.304   4.842  93.072  1.00  0.00     0.178 C 
HETATM    6  C   UNL     1      17.124   2.857  94.029  1.00  0.00     0.178 C 
ENDROOT
BRANCH   2   7
HETATM    7  C   UNL     1      13.511   2.327  93.136  1.00  0.00     0.277 C 
BRANCH   7   8
HETATM    8  C   UNL     1      12.484   3.372  92.861  1.00  0.00     0.011 A 
HETATM    9  C   UNL     1      11.808   3.981  93.920  1.00  0.00    -0.002 A 
HETATM   10  C   UNL     1      10.846   4.957  93.664  1.00  0.00     0.008 A 
HETATM   11  C   UNL     1      10.560   5.325  92.350  1.00  0.00     0.042 A 
HETATM   12  C   UNL     1      11.234   4.718  91.292  1.00  0.00     0.008 A 
HETATM   13  C   UNL     1      12.196   3.742  91.547  1.00  0.00    -0.002 A 
BRANCH  11  14
HETATM   14  C   UNL     1       9.574   6.328  92.087  1.00  0.00    -0.059 C 
HETATM   15  C   UNL     1       8.745   7.171  91.867  1.00  0.00    -0.059 C 
BRANCH  15  16
HETATM   16  C   UNL     1       7.761   8.174  91.605  1.00  0.00     0.042 A 
HETATM   17  C   UNL     1       8.031   9.510  91.903  1.00  0.00     0.008 A 
HETATM   18  C   UNL     1       7.071  10.488  91.644  1.00  0.00     0.005 A 
HETATM   19  C   UNL     1       5.864  10.110  91.094  1.00  0.00     0.056 A 
HETATM   20  C   UNL     1       5.573   8.796  90.792  1.00  0.00     0.005 A 
HETATM   21  C   UNL     1       6.532   7.817  91.050  1.00  0.00     0.008 A 
BRANCH  19  22
HETATM   22  C   UNL     1       4.841  11.152  90.821  1.00  0.00     0.254 C 
HETATM   23  O   UNL     1       4.054  10.991  89.892  1.00  0.00    -0.268 OA
HETATM   24  N   UNL     1       4.842  12.244  91.678  1.00  0.00    -0.335 N 
HETATM   25  HN  UNL     1       5.507  12.297  92.440  1.00  0.00     0.164 HD
BRANCH  24  26
HETATM   26  C   UNL     1       3.897  13.325  91.558  1.00  0.00     0.166 C 
BRANCH  26  27
HETATM   27  C   UNL     1       3.247  13.393  90.170  1.00  0.00     0.138 C 
HETATM   28  C   UNL     1       1.930  14.163  90.180  1.00  0.00     0.034 C 
BRANCH  27  29
HETATM   29  O   UNL     1       4.143  14.020  89.253  1.00  0.00    -0.383 OA
HETATM   30  H   UNL     1       4.747  13.342  88.906  1.00  0.00     0.210 HD
ENDBRANCH  27  29
ENDBRANCH  26  27
BRANCH  26  31
HETATM   31  C   UNL     1       2.850  13.152  92.653  1.00  0.00     0.181 C 
HETATM   32  O   UNL     1       2.388  14.095  93.293  1.00  0.00    -0.294 OA
BRANCH  31  33
HETATM   33  C   UNL     1       1.578  12.289  92.139  1.00  0.00     0.138 C 
BRANCH  33  34
HETATM   34  C   UNL     1       1.859  11.025  92.704  1.00  0.00     0.208 C 
HETATM   35  O   UNL     1       2.290  11.031  93.834  1.00  0.00    -0.289 OA
BRANCH  34  36
HETATM   36  C   UNL     1       1.469   9.773  92.316  1.00  0.00     0.194 C 
HETATM   37  O   UNL     1       1.506   9.164  91.056  1.00  0.00    -0.185 OA
ENDBRANCH  34  36
ENDBRANCH  33  34
ENDBRANCH  31  33
ENDBRANCH  26  31
ENDBRANCH  24  26
ENDBRANCH  19  22
ENDBRANCH  15  16
ENDBRANCH  11  14
ENDBRANCH   7   8
ENDBRANCH   2   7
TORSDOF 12
ENDMDL
MODEL 5
REMARK VINA RESULT:      -3.4      2.331     12.852
REMARK  12 active torsions:
REMARK  status: ('A' for Active; 'I' for Inactive)
REMARK    1  A    between atoms: O_2  and  C_16 
REMARK    2  A    between atoms: N_5  and  C_9 
REMARK    3  A    between atoms: N_6  and  C_13 
REMARK       I    between atoms: N_6  and  C_22 
REMARK    4  A    between atoms: C_9  and  C_12 
REMARK    5  A    between atoms: C_13  and  C_16 
REMARK    6  A    between atoms: C_13  and  C_21 
REMARK    7  A    between atoms: C_19  and  C_24 
REMARK    8  A    between atoms: C_21  and  C_33 
REMARK    9  A    between atoms: C_22  and  C_23 
REMARK   10  A    between atoms: C_27  and  C_30 
REMARK   11  A    between atoms: C_33  and  C_34 
REMARK   12  A    between atoms: C_34  and  C_35 
ROOT
HETATM    1  O   UNL     1       2.128  15.611  93.386  1.00  0.00    -0.350 OA
HETATM    2  N   UNL     1       2.806  13.374  91.761  1.00  0.00     0.147 N 
HETATM    3  C   UNL     1       3.755  14.472  91.991  1.00  0.00     0.283 C 
HETATM    4  C   UNL     1       1.427  13.876  91.843  1.00  0.00     0.283 C 
HETATM    5  C   UNL     1       3.472  15.127  93.341  1.00  0.00     0.178 C 
HETATM    6  C   UNL     1       1.198  14.544  93.195  1.00  0.00     0.178 C 
ENDROOT
BRANCH   2   7
HETATM    7  C   UNL     1       3.053  12.739  90.468  1.00  0.00     0.277 C 
BRANCH   7   8
HETATM    8  C   UNL     1       4.184  11.769  90.518  1.00  0.00     0.011 A 
HETATM    9  C   UNL     1       5.238  11.881  89.611  1.00  0.00    -0.002 A 
HETATM   10  C   UNL     1       6.295  10.973  89.655  1.00  0.00     0.008 A 
HETATM   11  C   UNL     1       6.299   9.955  90.608  1.00  0.00     0.042 A 
HETATM   12  C   UNL     1       5.247   9.842  91.515  1.00  0.00     0.008 A 
HETATM   13  C   UNL     1       4.189  10.750  91.470  1.00  0.00    -0.002 A 
BRANCH  11  14
HETATM   14  C   UNL     1       7.385   9.024  90.655  1.00  0.00    -0.059 C 
HETATM   15  C   UNL     1       8.297   8.242  90.695  1.00  0.00    -0.059 C 
BRANCH  15  16
HETATM   16  C   UNL     1       9.382   7.312  90.741  1.00  0.00     0.042 A 
HETATM   17  C   UNL     1       9.918   6.808  89.556  1.00  0.00     0.008 A 
HETATM   18  C   UNL     1      10.978   5.902  89.602  1.00  0.00     0.005 A 
HETATM   19  C   UNL     1      11.478   5.522  90.830  1.00  0.00     0.056 A 
HETATM   20  C   UNL     1      10.965   6.006  92.015  1.00  0.00     0.005 A 
HETATM   21  C   UNL     1       9.905   6.911  91.971  1.00  0.00     0.008 A 
BRANCH  19  22
HETATM   22  C   UNL     1      12.606   4.556  90.878  1.00  0.00     0.254 C 
HETATM   23  O   UNL     1      12.887   3.911  89.871  1.00  0.00    -0.268 OA
HETATM   24  N   UNL     1      13.286   4.475  92.085  1.00  0.00    -0.335 N 
HETATM   25  HN  UNL     1      13.013   5.058  92.868  1.00  0.00     0.164 HD
BRANCH  24  26
HETATM   26  C   UNL     1      14.417   3.603  92.281  1.00  0.00     0.166 C 
BRANCH  26  27
HETATM   27  C   UNL     1      15.390   4.124  93.346  1.00  0.00     0.138 C 
HETATM   28  C   UNL     1      16.508   3.133  93.650  1.00  0.00     0.034 C 
BRANCH  27  29
HETATM   29  O   UNL     1      15.968   5.353  92.904  1.00  0.00    -0.383 OA
HETATM   30  H   UNL     1      16.906   5.358  93.160  1.00  0.00     0.210 HD
ENDBRANCH  27  29
ENDBRANCH  26  27
BRANCH  26  31
HETATM   31  C   UNL     1      13.882   2.223  92.647  1.00  0.00     0.181 C 
HETATM   32  O   UNL     1      14.582   1.345  93.151  1.00  0.00    -0.294 OA
BRANCH  31  33
HETATM   33  C   UNL     1      12.547   2.316  93.562  1.00  0.00     0.138 C 
BRANCH  33  34
HETATM   34  C   UNL     1      11.536   2.165  92.587  1.00  0.00     0.208 C 
HETATM   35  O   UNL     1      11.733   1.321  91.743  1.00  0.00    -0.289 OA
BRANCH  34  36
HETATM   36  C   UNL     1      10.239   2.599  92.578  1.00  0.00     0.194 C 
HETATM   37  O   UNL     1       9.432   3.016  91.514  1.00  0.00    -0.185 OA
ENDBRANCH  34  36
ENDBRANCH  33  34
ENDBRANCH  31  33
ENDBRANCH  26  31
ENDBRANCH  24  26
ENDBRANCH  19  22
ENDBRANCH  15  16
ENDBRANCH  11  14
ENDBRANCH   7   8
ENDBRANCH   2   7
TORSDOF 12
ENDMDL
