MODEL 1
REMARK VINA RESULT:      -6.6      0.000      0.000
REMARK  14 active torsions:
REMARK  status: ('A' for Active; 'I' for Inactive)
REMARK    1  A    between atoms: O_2  and  C_18 
REMARK    2  A    between atoms: C_5  and  C_8 
REMARK    3  A    between atoms: C_5  and  O_35 
REMARK    4  A    between atoms: C_5  and  C_36 
REMARK    5  A    between atoms: N_6  and  C_11 
REMARK    6  A    between atoms: N_7  and  C_15 
REMARK       I    between atoms: N_7  and  C_24 
REMARK    7  A    between atoms: C_8  and  C_23 
REMARK    8  A    between atoms: C_11  and  C_14 
REMARK    9  A    between atoms: C_15  and  C_18 
REMARK   10  A    between atoms: C_15  and  C_23 
REMARK   11  A    between atoms: C_21  and  C_26 
REMARK   12  A    between atoms: C_24  and  C_25 
REMARK   13  A    between atoms: C_29  and  C_32 
REMARK   14  A    between atoms: C_36  and  O_39 
ROOT
HETATM    1  O   UNL     1      16.678   3.326  93.878  1.00  0.00    -0.350 OA
HETATM    2  N   UNL     1      14.076   2.903  92.805  1.00  0.00     0.147 N 
HETATM    3  C   UNL     1      15.026   1.795  92.973  1.00  0.00     0.283 C 
HETATM    4  C   UNL     1      14.802   4.161  92.586  1.00  0.00     0.283 C 
HETATM    5  C   UNL     1      15.981   2.103  94.124  1.00  0.00     0.178 C 
HETATM    6  C   UNL     1      15.762   4.413  93.745  1.00  0.00     0.178 C 
ENDROOT
BRANCH   2   7
HETATM    7  C   UNL     1      13.157   2.634  91.701  1.00  0.00     0.277 C 
BRANCH   7   8
HETATM    8  C   UNL     1      12.005   3.580  91.677  1.00  0.00     0.011 A 
HETATM    9  C   UNL     1      11.558   4.103  90.463  1.00  0.00    -0.002 A 
HETATM   10  C   UNL     1      10.482   4.990  90.440  1.00  0.00     0.008 A 
HETATM   11  C   UNL     1       9.851   5.351  91.630  1.00  0.00     0.042 A 
HETATM   12  C   UNL     1      10.296   4.828  92.843  1.00  0.00     0.008 A 
HETATM   13  C   UNL     1      11.373   3.942  92.867  1.00  0.00    -0.002 A 
BRANCH  11  14
HETATM   14  C   UNL     1       8.745   6.258  91.606  1.00  0.00    -0.059 C 
HETATM   15  C   UNL     1       7.817   7.021  91.585  1.00  0.00    -0.059 C 
BRANCH  15  16
HETATM   16  C   UNL     1       6.711   7.928  91.560  1.00  0.00     0.042 A 
HETATM   17  C   UNL     1       5.449   7.477  91.174  1.00  0.00     0.008 A 
HETATM   18  C   UNL     1       4.370   8.361  91.153  1.00  0.00     0.005 A 
HETATM   19  C   UNL     1       4.578   9.675  91.517  1.00  0.00     0.056 A 
HETATM   20  C   UNL     1       5.816  10.145  91.902  1.00  0.00     0.005 A 
HETATM   21  C   UNL     1       6.895   9.262  91.924  1.00  0.00     0.008 A 
BRANCH  19  22
HETATM   22  C   UNL     1       3.429  10.617  91.492  1.00  0.00     0.254 C 
HETATM   23  O   UNL     1       2.294  10.175  91.328  1.00  0.00    -0.268 OA
HETATM   24  N   UNL     1       3.736  11.956  91.686  1.00  0.00    -0.335 N 
HETATM   25  HN  UNL     1       4.695  12.245  91.841  1.00  0.00     0.164 HD
BRANCH  24  26
HETATM   26  C   UNL     1       2.730  12.987  91.713  1.00  0.00     0.169 C 
BRANCH  26  27
HETATM   27  C   UNL     1       2.766  13.818  93.002  1.00  0.00     0.138 C 
HETATM   28  C   UNL     1       4.179  13.987  93.548  1.00  0.00     0.034 C 
BRANCH  27  29
HETATM   29  O   UNL     1       2.208  15.108  92.753  1.00  0.00    -0.383 OA
HETATM   30  H   UNL     1       1.740  15.398  93.554  1.00  0.00     0.210 HD
ENDBRANCH  27  29
ENDBRANCH  26  27
BRANCH  26  31
HETATM   31  C   UNL     1       2.929  13.864  90.481  1.00  0.00     0.194 C 
HETATM   32  O   UNL     1       1.996  14.272  89.792  1.00  0.00    -0.289 OA
BRANCH  31  33
HETATM   33  C   UNL     1       4.257  14.103  90.223  1.00  0.00     0.053 C 
BRANCH  33  34
HETATM   34  C   UNL     1       4.621  14.125  88.870  1.00  0.00     0.220 C 
BRANCH  34  35
HETATM   35  O   UNL     1       5.691  14.755  88.774  1.00  0.00    -0.371 OA
HETATM   36  H   UNL     1       5.338  15.629  88.846  1.00  0.00     0.211 HD
ENDBRANCH  34  35
BRANCH  34  37
HETATM   37  C   UNL     1       4.701  12.847  88.290  1.00  0.00     0.185 C 
HETATM   38  O   UNL     1       5.644  12.668  89.202  1.00  0.00    -0.647 OA
BRANCH  37  39
HETATM   39  O   UNL     1       4.185  12.265  87.384  1.00  0.00    -0.774 OA
HETATM   40  H   UNL     1       4.405  12.761  86.388  1.00  0.00     0.167 HD
ENDBRANCH  37  39
ENDBRANCH  34  37
ENDBRANCH  33  34
ENDBRANCH  31  33
ENDBRANCH  26  31
ENDBRANCH  24  26
ENDBRANCH  19  22
ENDBRANCH  15  16
ENDBRANCH  11  14
ENDBRANCH   7   8
ENDBRANCH   2   7
TORSDOF 14
ENDMDL
MODEL 2
REMARK VINA RESULT:      -5.8      1.230      1.796
REMARK  14 active torsions:
REMARK  status: ('A' for Active; 'I' for Inactive)
REMARK    1  A    between atoms: O_2  and  C_18 
REMARK    2  A    between atoms: C_5  and  C_8 
REMARK    3  A    between atoms: C_5  and  O_35 
REMARK    4  A    between atoms: C_5  and  C_36 
REMARK    5  A    between atoms: N_6  and  C_11 
REMARK    6  A    between atoms: N_7  and  C_15 
REMARK       I    between atoms: N_7  and  C_24 
REMARK    7  A    between atoms: C_8  and  C_23 
REMARK    8  A    between atoms: C_11  and  C_14 
REMARK    9  A    between atoms: C_15  and  C_18 
REMARK   10  A    between atoms: C_15  and  C_23 
REMARK   11  A    between atoms: C_21  and  C_26 
REMARK   12  A    between atoms: C_24  and  C_25 
REMARK   13  A    between atoms: C_29  and  C_32 
REMARK   14  A    between atoms: C_36  and  O_39 
ROOT
HETATM    1  O   UNL     1      17.251   3.782  93.709  1.00  0.00    -0.350 OA
HETATM    2  N   UNL     1      14.541   3.040  93.257  1.00  0.00     0.147 N 
HETATM    3  C   UNL     1      15.625   2.048  93.223  1.00  0.00     0.283 C 
HETATM    4  C   UNL     1      15.053   4.359  92.861  1.00  0.00     0.283 C 
HETATM    5  C   UNL     1      16.770   2.502  94.124  1.00  0.00     0.178 C 
HETATM    6  C   UNL     1      16.211   4.759  93.769  1.00  0.00     0.178 C 
ENDROOT
BRANCH   2   7
HETATM    7  C   UNL     1      13.436   2.629  92.392  1.00  0.00     0.277 C 
BRANCH   7   8
HETATM    8  C   UNL     1      12.342   3.641  92.350  1.00  0.00     0.011 A 
HETATM    9  C   UNL     1      11.803   4.134  93.538  1.00  0.00    -0.002 A 
HETATM   10  C   UNL     1      10.777   5.079  93.500  1.00  0.00     0.008 A 
HETATM   11  C   UNL     1      10.294   5.532  92.273  1.00  0.00     0.042 A 
HETATM   12  C   UNL     1      10.832   5.041  91.085  1.00  0.00     0.008 A 
HETATM   13  C   UNL     1      11.857   4.095  91.123  1.00  0.00    -0.002 A 
BRANCH  11  14
HETATM   14  C   UNL     1       9.244   6.503  92.234  1.00  0.00    -0.059 C 
HETATM   15  C   UNL     1       8.362   7.319  92.200  1.00  0.00    -0.059 C 
BRANCH  15  16
HETATM   16  C   UNL     1       7.312   8.289  92.160  1.00  0.00     0.042 A 
HETATM   17  C   UNL     1       7.531   9.573  92.660  1.00  0.00     0.008 A 
HETATM   18  C   UNL     1       6.507  10.520  92.619  1.00  0.00     0.005 A 
HETATM   19  C   UNL     1       5.290  10.162  92.077  1.00  0.00     0.056 A 
HETATM   20  C   UNL     1       5.049   8.900  91.577  1.00  0.00     0.005 A 
HETATM   21  C   UNL     1       6.071   7.952  91.618  1.00  0.00     0.008 A 
BRANCH  19  22
HETATM   22  C   UNL     1       4.199  11.171  92.035  1.00  0.00     0.254 C 
HETATM   23  O   UNL     1       3.113  10.901  92.540  1.00  0.00    -0.268 OA
HETATM   24  N   UNL     1       4.514  12.381  91.432  1.00  0.00    -0.335 N 
HETATM   25  HN  UNL     1       5.442  12.542  91.059  1.00  0.00     0.164 HD
BRANCH  24  26
HETATM   26  C   UNL     1       3.571  13.467  91.335  1.00  0.00     0.169 C 
BRANCH  26  27
HETATM   27  C   UNL     1       3.904  14.628  92.281  1.00  0.00     0.138 C 
HETATM   28  C   UNL     1       4.253  14.154  93.687  1.00  0.00     0.034 C 
BRANCH  27  29
HETATM   29  O   UNL     1       5.004  15.371  91.756  1.00  0.00    -0.383 OA
HETATM   30  H   UNL     1       4.681  15.911  91.015  1.00  0.00     0.210 HD
ENDBRANCH  27  29
ENDBRANCH  26  27
BRANCH  26  31
HETATM   31  C   UNL     1       3.539  13.927  89.881  1.00  0.00     0.194 C 
HETATM   32  O   UNL     1       3.907  15.045  89.525  1.00  0.00    -0.289 OA
BRANCH  31  33
HETATM   33  C   UNL     1       3.022  12.968  89.044  1.00  0.00     0.053 C 
BRANCH  33  34
HETATM   34  C   UNL     1       3.943  12.343  88.191  1.00  0.00     0.220 C 
BRANCH  34  35
HETATM   35  O   UNL     1       5.048  12.893  88.355  1.00  0.00    -0.371 OA
HETATM   36  H   UNL     1       5.130  12.753  89.286  1.00  0.00     0.211 HD
ENDBRANCH  34  35
BRANCH  34  37
HETATM   37  C   UNL     1       4.010  10.949  88.365  1.00  0.00     0.185 C 
HETATM   38  O   UNL     1       2.762  11.102  88.782  1.00  0.00    -0.647 OA
BRANCH  37  39
HETATM   39  O   UNL     1       4.830  10.091  88.235  1.00  0.00    -0.774 OA
HETATM   40  H   UNL     1       5.872  10.469  88.474  1.00  0.00     0.167 HD
ENDBRANCH  37  39
ENDBRANCH  34  37
ENDBRANCH  33  34
ENDBRANCH  31  33
ENDBRANCH  26  31
ENDBRANCH  24  26
ENDBRANCH  19  22
ENDBRANCH  15  16
ENDBRANCH  11  14
ENDBRANCH   7   8
ENDBRANCH   2   7
TORSDOF 14
ENDMDL
MODEL 3
REMARK VINA RESULT:      -4.1      1.808      2.736
REMARK  14 active torsions:
REMARK  status: ('A' for Active; 'I' for Inactive)
REMARK    1  A    between atoms: O_2  and  C_18 
REMARK    2  A    between atoms: C_5  and  C_8 
REMARK    3  A    between atoms: C_5  and  O_35 
REMARK    4  A    between atoms: C_5  and  C_36 
REMARK    5  A    between atoms: N_6  and  C_11 
REMARK    6  A    between atoms: N_7  and  C_15 
REMARK       I    between atoms: N_7  and  C_24 
REMARK    7  A    between atoms: C_8  and  C_23 
REMARK    8  A    between atoms: C_11  and  C_14 
REMARK    9  A    between atoms: C_15  and  C_18 
REMARK   10  A    between atoms: C_15  and  C_23 
REMARK   11  A    between atoms: C_21  and  C_26 
REMARK   12  A    between atoms: C_24  and  C_25 
REMARK   13  A    between atoms: C_29  and  C_32 
REMARK   14  A    between atoms: C_36  and  O_39 
ROOT
HETATM    1  O   UNL     1      17.060   3.905  93.228  1.00  0.00    -0.350 OA
HETATM    2  N   UNL     1      15.002   1.994  92.766  1.00  0.00     0.147 N 
HETATM    3  C   UNL     1      15.179   3.159  91.889  1.00  0.00     0.283 C 
HETATM    4  C   UNL     1      15.466   2.311  94.124  1.00  0.00     0.283 C 
HETATM    5  C   UNL     1      16.642   3.596  91.898  1.00  0.00     0.178 C 
HETATM    6  C   UNL     1      16.921   2.768  94.081  1.00  0.00     0.178 C 
ENDROOT
BRANCH   2   7
HETATM    7  C   UNL     1      13.605   1.565  92.781  1.00  0.00     0.277 C 
BRANCH   7   8
HETATM    8  C   UNL     1      12.657   2.713  92.702  1.00  0.00     0.011 A 
HETATM    9  C   UNL     1      12.049   3.031  91.487  1.00  0.00    -0.002 A 
HETATM   10  C   UNL     1      11.164   4.106  91.411  1.00  0.00     0.008 A 
HETATM   11  C   UNL     1      10.886   4.861  92.550  1.00  0.00     0.042 A 
HETATM   12  C   UNL     1      11.492   4.544  93.764  1.00  0.00     0.008 A 
HETATM   13  C   UNL     1      12.378   3.469  93.840  1.00  0.00    -0.002 A 
BRANCH  11  14
HETATM   14  C   UNL     1       9.976   5.963  92.472  1.00  0.00    -0.059 C 
HETATM   15  C   UNL     1       9.211   6.888  92.406  1.00  0.00    -0.059 C 
BRANCH  15  16
HETATM   16  C   UNL     1       8.302   7.988  92.329  1.00  0.00     0.042 A 
HETATM   17  C   UNL     1       6.956   7.803  92.647  1.00  0.00     0.008 A 
HETATM   18  C   UNL     1       6.069   8.878  92.574  1.00  0.00     0.005 A 
HETATM   19  C   UNL     1       6.547  10.111  92.186  1.00  0.00     0.056 A 
HETATM   20  C   UNL     1       7.872  10.320  91.865  1.00  0.00     0.005 A 
HETATM   21  C   UNL     1       8.760   9.246  91.938  1.00  0.00     0.008 A 
BRANCH  19  22
HETATM   22  C   UNL     1       5.602  11.255  92.106  1.00  0.00     0.254 C 
HETATM   23  O   UNL     1       5.121  11.709  93.142  1.00  0.00    -0.268 OA
HETATM   24  N   UNL     1       5.349  11.748  90.834  1.00  0.00    -0.335 N 
HETATM   25  HN  UNL     1       5.802  11.337  90.026  1.00  0.00     0.164 HD
BRANCH  24  26
HETATM   26  C   UNL     1       4.475  12.868  90.595  1.00  0.00     0.169 C 
BRANCH  26  27
HETATM   27  C   UNL     1       5.157  13.998  89.815  1.00  0.00     0.138 C 
HETATM   28  C   UNL     1       5.862  13.498  88.559  1.00  0.00     0.034 C 
BRANCH  27  29
HETATM   29  O   UNL     1       4.186  14.975  89.443  1.00  0.00    -0.383 OA
HETATM   30  H   UNL     1       3.394  14.512  89.124  1.00  0.00     0.210 HD
ENDBRANCH  27  29
ENDBRANCH  26  27
BRANCH  26  31
HETATM   31  C   UNL     1       3.244  12.349  89.858  1.00  0.00     0.194 C 
HETATM   32  O   UNL     1       2.240  13.033  89.667  1.00  0.00    -0.289 OA
BRANCH  31  33
HETATM   33  C   UNL     1       3.382  11.037  89.477  1.00  0.00     0.053 C 
BRANCH  33  34
HETATM   34  C   UNL     1       2.614  10.637  88.374  1.00  0.00     0.220 C 
BRANCH  34  35
HETATM   35  O   UNL     1       2.897  11.388  87.422  1.00  0.00    -0.371 OA
HETATM   36  H   UNL     1       3.795  11.119  87.302  1.00  0.00     0.211 HD
ENDBRANCH  34  35
BRANCH  34  37
HETATM   37  C   UNL     1       2.767   9.279  88.047  1.00  0.00     0.185 C 
HETATM   38  O   UNL     1       1.445   9.309  87.990  1.00  0.00    -0.647 OA
BRANCH  37  39
HETATM   39  O   UNL     1       3.669   8.504  87.934  1.00  0.00    -0.774 OA
HETATM   40  H   UNL     1       3.851   7.932  88.897  1.00  0.00     0.167 HD
ENDBRANCH  37  39
ENDBRANCH  34  37
ENDBRANCH  33  34
ENDBRANCH  31  33
ENDBRANCH  26  31
ENDBRANCH  24  26
ENDBRANCH  19  22
ENDBRANCH  15  16
ENDBRANCH  11  14
ENDBRANCH   7   8
ENDBRANCH   2   7
TORSDOF 14
ENDMDL
