MODEL 1
REMARK VINA RESULT:      -6.2      0.000      0.000
REMARK  12 active torsions:
REMARK  status: ('A' for Active; 'I' for Inactive)
REMARK    1  A    between atoms: O_2  and  C_16 
REMARK    2  A    between atoms: N_5  and  C_9 
REMARK    3  A    between atoms: N_6  and  C_13 
REMARK       I    between atoms: N_6  and  C_22 
REMARK    4  A    between atoms: C_9  and  C_12 
REMARK    5  A    between atoms: C_13  and  C_16 
REMARK    6  A    between atoms: C_13  and  C_21 
REMARK    7  A    between atoms: C_19  and  C_24 
REMARK    8  A    between atoms: C_21  and  C_33 
REMARK    9  A    between atoms: C_22  and  C_23 
REMARK   10  A    between atoms: C_27  and  C_30 
REMARK   11  A    between atoms: C_33  and  C_34 
REMARK   12  A    between atoms: C_34  and  C_35 
ROOT
HETATM    1  O   UNL     1      16.934   3.774  93.890  1.00  0.00    -0.350 OA
HETATM    2  N   UNL     1      14.398   3.129  92.771  1.00  0.00     0.147 N 
HETATM    3  C   UNL     1      15.438   2.107  92.955  1.00  0.00     0.283 C 
HETATM    4  C   UNL     1      15.016   4.446  92.566  1.00  0.00     0.283 C 
HETATM    5  C   UNL     1      16.342   2.495  94.123  1.00  0.00     0.178 C 
HETATM    6  C   UNL     1      15.930   4.778  93.742  1.00  0.00     0.178 C 
ENDROOT
BRANCH   2   7
HETATM    7  C   UNL     1      13.526   2.783  91.650  1.00  0.00     0.277 C 
BRANCH   7   8
HETATM    8  C   UNL     1      12.322   3.659  91.576  1.00  0.00     0.011 A 
HETATM    9  C   UNL     1      11.550   3.880  92.717  1.00  0.00    -0.002 A 
HETATM   10  C   UNL     1      10.422   4.698  92.649  1.00  0.00     0.008 A 
HETATM   11  C   UNL     1      10.068   5.295  91.440  1.00  0.00     0.042 A 
HETATM   12  C   UNL     1      10.838   5.076  90.300  1.00  0.00     0.008 A 
HETATM   13  C   UNL     1      11.966   4.258  90.367  1.00  0.00    -0.002 A 
BRANCH  11  14
HETATM   14  C   UNL     1       8.912   6.136  91.370  1.00  0.00    -0.059 C 
HETATM   15  C   UNL     1       7.941   6.842  91.312  1.00  0.00    -0.059 C 
BRANCH  15  16
HETATM   16  C   UNL     1       6.787   7.683  91.242  1.00  0.00     0.042 A 
HETATM   17  C   UNL     1       5.553   7.143  90.876  1.00  0.00     0.008 A 
HETATM   18  C   UNL     1       4.427   7.963  90.811  1.00  0.00     0.005 A 
HETATM   19  C   UNL     1       4.558   9.302  91.113  1.00  0.00     0.056 A 
HETATM   20  C   UNL     1       5.766   9.859  91.477  1.00  0.00     0.005 A 
HETATM   21  C   UNL     1       6.893   9.041  91.542  1.00  0.00     0.008 A 
BRANCH  19  22
HETATM   22  C   UNL     1       3.358  10.175  91.041  1.00  0.00     0.254 C 
HETATM   23  O   UNL     1       2.292   9.699  90.658  1.00  0.00    -0.268 OA
HETATM   24  N   UNL     1       3.537  11.490  91.448  1.00  0.00    -0.335 N 
HETATM   25  HN  UNL     1       4.442  11.806  91.778  1.00  0.00     0.164 HD
BRANCH  24  26
HETATM   26  C   UNL     1       2.464  12.451  91.460  1.00  0.00     0.166 C 
BRANCH  26  27
HETATM   27  C   UNL     1       2.188  13.016  92.859  1.00  0.00     0.138 C 
HETATM   28  C   UNL     1       3.376  12.852  93.800  1.00  0.00     0.034 C 
BRANCH  27  29
HETATM   29  O   UNL     1       1.863  14.402  92.759  1.00  0.00    -0.383 OA
HETATM   30  H   UNL     1       2.636  14.917  93.046  1.00  0.00     0.210 HD
ENDBRANCH  27  29
ENDBRANCH  26  27
BRANCH  26  31
HETATM   31  C   UNL     1       2.822  13.560  90.475  1.00  0.00     0.181 C 
HETATM   32  O   UNL     1       2.133  14.567  90.321  1.00  0.00    -0.294 OA
BRANCH  31  33
HETATM   33  C   UNL     1       4.343  14.080  90.681  1.00  0.00     0.138 C 
BRANCH  33  34
HETATM   34  C   UNL     1       4.716  14.370  89.350  1.00  0.00     0.208 C 
HETATM   35  O   UNL     1       5.165  15.475  89.151  1.00  0.00    -0.289 OA
BRANCH  34  36
HETATM   36  C   UNL     1       4.930  13.535  88.287  1.00  0.00     0.194 C 
HETATM   37  O   UNL     1       4.925  12.137  88.219  1.00  0.00    -0.185 OA
ENDBRANCH  34  36
ENDBRANCH  33  34
ENDBRANCH  31  33
ENDBRANCH  26  31
ENDBRANCH  24  26
ENDBRANCH  19  22
ENDBRANCH  15  16
ENDBRANCH  11  14
ENDBRANCH   7   8
ENDBRANCH   2   7
TORSDOF 12
ENDMDL
