MODEL 1
REMARK VINA RESULT:      -7.6      0.000      0.000
REMARK  9 active torsions:
REMARK  status: ('A' for Active; 'I' for Inactive)
REMARK    1  A    between atoms: N_3  and  C_6 
REMARK    2  A    between atoms: C_6  and  C_9 
REMARK    3  A    between atoms: C_14  and  C_17 
REMARK       I    between atoms: N_26  and  C_15 
REMARK    4  A    between atoms: C_15  and  C_16 
REMARK    5  A    between atoms: C_20  and  C_23 
REMARK    6  A    between atoms: OG1_24  and  CB_28 
REMARK    7  A    between atoms: N_26  and  CA_27 
REMARK    8  A    between atoms: CA_27  and  CB_28 
REMARK    9  A    between atoms: CA_27  and  C_30 
ROOT
HETATM    1  O   UNK A   0       1.905   8.241  87.910  1.00  0.00    -0.388 OA
HETATM    2  N   UNK A   0       4.666   7.581  87.693  1.00  0.00     0.096 N 
HETATM    3  C   UNK A   0       4.220   8.970  87.871  1.00  0.00     0.299 C 
HETATM    4  C   UNK A   0       3.632   6.807  86.991  1.00  0.00     0.299 C 
HETATM    5  C   UNK A   0       2.890   8.995  88.620  1.00  0.00     0.198 C 
HETATM    6  C   UNK A   0       2.317   6.882  87.760  1.00  0.00     0.198 C 
ENDROOT
BRANCH   2   7
HETATM    7  C   UNK A   0       5.934   7.533  86.967  1.00  0.00     0.311 C 
BRANCH   7   8
HETATM    8  C   UNK A   0       7.030   6.933  87.779  1.00  0.00    -0.030 A 
HETATM    9  C   UNK A   0       8.269   6.671  87.191  1.00  0.00     0.010 A 
HETATM   10  C   UNK A   0       9.295   6.107  87.949  1.00  0.00     0.021 A 
HETATM   11  C   UNK A   0       9.083   5.808  89.294  1.00  0.00     0.018 A 
HETATM   12  C   UNK A   0       7.847   6.069  89.882  1.00  0.00     0.021 A 
HETATM   13  C   UNK A   0       6.820   6.632  89.125  1.00  0.00     0.010 A 
BRANCH  11  14
HETATM   14  C   UNK A   0      10.136   5.231  90.072  1.00  0.00    -0.061 C 
HETATM   15  C   UNK A   0      11.021   4.747  90.727  1.00  0.00    -0.061 C 
BRANCH  15  16
HETATM   16  C   UNK A   0      12.073   4.170  91.505  1.00  0.00     0.018 A 
HETATM   17  C   UNK A   0      11.839   3.806  92.831  1.00  0.00     0.022 A 
HETATM   18  C   UNK A   0      12.865   3.241  93.589  1.00  0.00     0.018 A 
HETATM   19  C   UNK A   0      14.100   3.052  93.004  1.00  0.00     0.032 A 
HETATM   20  C   UNK A   0      14.356   3.404  91.695  1.00  0.00     0.018 A 
HETATM   21  C   UNK A   0      13.331   3.969  90.936  1.00  0.00     0.022 A 
BRANCH  19  22
HETATM   22  C   UNK A   0      15.193   2.452  93.812  1.00  0.00     0.252 C 
HETATM   23  O   UNK A   0      16.340   2.870  93.674  1.00  0.00    -0.268 OA
ENDBRANCH  19  22
ENDBRANCH  15  16
ENDBRANCH  11  14
ENDBRANCH   7   8
ENDBRANCH   2   7
TORSDOF 9
ENDMDL
