MODEL 1
REMARK VINA RESULT:      -6.9      0.000      0.000
REMARK  10 active torsions:
REMARK  status: ('A' for Active; 'I' for Inactive)
REMARK    1  A    between atoms: O_2  and  C_18 
REMARK    2  A    between atoms: O_5  and  N_8 
REMARK    3  A    between atoms: N_6  and  C_11 
REMARK    4  A    between atoms: N_7  and  C_15 
REMARK       I    between atoms: N_7  and  C_24 
REMARK       I    between atoms: N_8  and  C_23 
REMARK    5  A    between atoms: C_11  and  C_14 
REMARK    6  A    between atoms: C_15  and  C_18 
REMARK    7  A    between atoms: C_15  and  C_23 
REMARK    8  A    between atoms: C_21  and  C_26 
REMARK    9  A    between atoms: C_24  and  C_25 
REMARK   10  A    between atoms: C_29  and  C_32 
ROOT
HETATM    1  O   UNK     0      16.558   4.422  94.123  0.00  0.00    -0.388 OA
HETATM    2  N   UNK     0      14.912   2.712  92.552  0.00  0.00     0.096 N 
HETATM    3  C   UNK     0      14.718   4.169  92.561  0.00  0.00     0.299 C 
HETATM    4  C   UNK     0      15.472   2.271  93.836  0.00  0.00     0.299 C 
HETATM    5  C   UNK     0      16.042   4.864  92.866  0.00  0.00     0.198 C 
HETATM    6  C   UNK     0      16.778   3.011  94.113  0.00  0.00     0.198 C 
ENDROOT
BRANCH   2   7
HETATM    7  C   UNK     0      13.653   2.024  92.272  0.00  0.00     0.311 C 
BRANCH   7   8
HETATM    8  C   UNK     0      12.538   2.973  91.990  0.00  0.00    -0.030 A 
HETATM    9  C   UNK     0      12.423   3.557  90.728  0.00  0.00     0.010 A 
HETATM   10  C   UNK     0      11.382   4.446  90.464  0.00  0.00     0.021 A 
HETATM   11  C   UNK     0      10.454   4.749  91.460  0.00  0.00     0.018 A 
HETATM   12  C   UNK     0      10.568   4.166  92.721  0.00  0.00     0.021 A 
HETATM   13  C   UNK     0      11.609   3.277  92.986  0.00  0.00     0.010 A 
BRANCH  11  14
HETATM   14  C   UNK     0       9.385   5.660  91.188  0.00  0.00    -0.061 C 
HETATM   15  C   UNK     0       8.486   6.425  90.960  0.00  0.00    -0.061 C 
BRANCH  15  16
HETATM   16  C   UNK     0       7.418   7.334  90.689  0.00  0.00     0.018 A 
HETATM   17  C   UNK     0       7.682   8.554  90.064  0.00  0.00     0.022 A 
HETATM   18  C   UNK     0       6.639   9.441  89.798  0.00  0.00     0.018 A 
HETATM   19  C   UNK     0       5.356   9.089  90.161  0.00  0.00     0.032 A 
HETATM   20  C   UNK     0       5.068   7.890  90.780  0.00  0.00     0.018 A 
HETATM   21  C   UNK     0       6.111   7.004  91.047  0.00  0.00     0.022 A 
BRANCH  19  22
HETATM   22  C   UNK     0       4.245  10.035  89.879  0.00  0.00     0.252 C 
HETATM   23  O   UNK     0       3.170   9.595  89.479  0.00  0.00    -0.268 OA
HETATM   24  N   UNK     0       4.512  11.375  90.121  0.00  0.00    -0.341 N 
HETATM   25  H   UNK     0       5.416  11.662  90.477  0.00  0.00     0.163 HD
BRANCH  24  26
HETATM   26  C   UNK     0       3.529  12.410  89.920  0.00  0.00     0.207 C 
BRANCH  26  27
HETATM   27  C   UNK     0       3.161  13.140  91.218  0.00  0.00     0.146 C 
HETATM   28  C   UNK     0       2.366  12.261  92.177  0.00  0.00     0.042 C 
BRANCH  27  29
HETATM   29  O   UNK     0       4.351  13.581  91.871  0.00  0.00    -0.393 OA
HETATM   30  H   UNK     0       4.741  12.823  92.338  0.00  0.00     0.210 HD
ENDBRANCH  27  29
ENDBRANCH  26  27
BRANCH  26  31
HETATM   31  C   UNK     0       4.079  13.377  88.876  0.00  0.00     0.266 C 
HETATM   32  O   UNK     0       4.222  14.580  89.087  0.00  0.00    -0.269 OA
HETATM   33  N   UNK     0       4.352  12.753  87.683  0.00  0.00    -0.236 N 
HETATM   34  H   UNK     0       4.164  11.786  87.447  0.00  0.00     0.197 HD
BRANCH  33  35
HETATM   35  O   UNK     0       4.827  13.581  86.656  0.00  0.00    -0.287 OA
HETATM   36  H   UNK     0       5.220  12.918  86.064  0.00  0.00     0.244 HD
ENDBRANCH  33  35
ENDBRANCH  26  31
ENDBRANCH  24  26
ENDBRANCH  19  22
ENDBRANCH  15  16
ENDBRANCH  11  14
ENDBRANCH   7   8
ENDBRANCH   2   7
TORSDOF 10
ENDMDL
