MODEL 1
REMARK VINA RESULT:      -7.0      0.000      0.000
REMARK  10 active torsions:
REMARK  status: ('A' for Active; 'I' for Inactive)
REMARK    1  A    between atoms: O_2  and  C_18 
REMARK    2  A    between atoms: O_5  and  N_8 
REMARK    3  A    between atoms: N_6  and  C_11 
REMARK    4  A    between atoms: N_7  and  C_15 
REMARK       I    between atoms: N_7  and  C_24 
REMARK       I    between atoms: N_8  and  C_23 
REMARK    5  A    between atoms: C_11  and  C_14 
REMARK    6  A    between atoms: C_15  and  C_18 
REMARK    7  A    between atoms: C_15  and  C_23 
REMARK    8  A    between atoms: C_21  and  C_26 
REMARK    9  A    between atoms: C_24  and  C_25 
REMARK   10  A    between atoms: C_29  and  C_32 
ROOT
HETATM    1  O   UNK     0      16.504   4.296  94.107  0.00  0.00    -0.388 OA
HETATM    2  N   UNK     0      14.737   2.576  92.686  0.00  0.00     0.096 N 
HETATM    3  C   UNK     0      14.557   4.035  92.683  0.00  0.00     0.299 C 
HETATM    4  C   UNK     0      15.383   2.152  93.934  0.00  0.00     0.299 C 
HETATM    5  C   UNK     0      15.905   4.723  92.882  0.00  0.00     0.198 C 
HETATM    6  C   UNK     0      16.712   2.884  94.105  0.00  0.00     0.198 C 
ENDROOT
BRANCH   2   7
HETATM    7  C   UNK     0      13.456   1.896  92.507  0.00  0.00     0.311 C 
BRANCH   7   8
HETATM    8  C   UNK     0      12.345   2.846  92.213  0.00  0.00    -0.030 A 
HETATM    9  C   UNK     0      11.815   3.635  93.235  0.00  0.00     0.010 A 
HETATM   10  C   UNK     0      10.774   4.522  92.962  0.00  0.00     0.021 A 
HETATM   11  C   UNK     0      10.265   4.621  91.668  0.00  0.00     0.018 A 
HETATM   12  C   UNK     0      10.793   3.834  90.647  0.00  0.00     0.021 A 
HETATM   13  C   UNK     0      11.833   2.946  90.919  0.00  0.00     0.010 A 
BRANCH  11  14
HETATM   14  C   UNK     0       9.198   5.533  91.388  0.00  0.00    -0.061 C 
HETATM   15  C   UNK     0       8.302   6.299  91.152  0.00  0.00    -0.061 C 
BRANCH  15  16
HETATM   16  C   UNK     0       7.238   7.211  90.873  0.00  0.00     0.018 A 
HETATM   17  C   UNK     0       7.340   8.544  91.273  0.00  0.00     0.022 A 
HETATM   18  C   UNK     0       6.302   9.435  90.998  0.00  0.00     0.018 A 
HETATM   19  C   UNK     0       5.187   8.974  90.331  0.00  0.00     0.032 A 
HETATM   20  C   UNK     0       5.061   7.662  89.926  0.00  0.00     0.018 A 
HETATM   21  C   UNK     0       6.099   6.770  90.200  0.00  0.00     0.022 A 
BRANCH  19  22
HETATM   22  C   UNK     0       4.081   9.923  90.041  0.00  0.00     0.252 C 
HETATM   23  O   UNK     0       2.981   9.481  89.716  0.00  0.00    -0.268 OA
HETATM   24  N   UNK     0       4.381  11.270  90.187  0.00  0.00    -0.341 N 
HETATM   25  H   UNK     0       5.306  11.560  90.482  0.00  0.00     0.163 HD
BRANCH  24  26
HETATM   26  C   UNK     0       3.409  12.310  89.965  0.00  0.00     0.207 C 
BRANCH  26  27
HETATM   27  C   UNK     0       2.995  13.021  91.260  0.00  0.00     0.146 C 
HETATM   28  C   UNK     0       2.167  12.128  92.178  0.00  0.00     0.042 C 
BRANCH  27  29
HETATM   29  O   UNK     0       4.161  13.452  91.962  0.00  0.00    -0.393 OA
HETATM   30  H   UNK     0       3.903  13.677  92.871  0.00  0.00     0.210 HD
ENDBRANCH  27  29
ENDBRANCH  26  27
BRANCH  26  31
HETATM   31  C   UNK     0       3.998  13.292  88.958  0.00  0.00     0.266 C 
HETATM   32  O   UNK     0       4.139  14.490  89.194  0.00  0.00    -0.269 OA
HETATM   33  N   UNK     0       4.308  12.687  87.764  0.00  0.00    -0.236 N 
HETATM   34  H   UNK     0       4.122  11.725  87.505  0.00  0.00     0.197 HD
BRANCH  33  35
HETATM   35  O   UNK     0       4.820  13.530  86.768  0.00  0.00    -0.287 OA
HETATM   36  H   UNK     0       4.533  14.395  87.106  0.00  0.00     0.244 HD
ENDBRANCH  33  35
ENDBRANCH  26  31
ENDBRANCH  24  26
ENDBRANCH  19  22
ENDBRANCH  15  16
ENDBRANCH  11  14
ENDBRANCH   7   8
ENDBRANCH   2   7
TORSDOF 10
ENDMDL
MODEL 2
REMARK VINA RESULT:      -6.6      1.449      2.060
REMARK  10 active torsions:
REMARK  status: ('A' for Active; 'I' for Inactive)
REMARK    1  A    between atoms: O_2  and  C_18 
REMARK    2  A    between atoms: O_5  and  N_8 
REMARK    3  A    between atoms: N_6  and  C_11 
REMARK    4  A    between atoms: N_7  and  C_15 
REMARK       I    between atoms: N_7  and  C_24 
REMARK       I    between atoms: N_8  and  C_23 
REMARK    5  A    between atoms: C_11  and  C_14 
REMARK    6  A    between atoms: C_15  and  C_18 
REMARK    7  A    between atoms: C_15  and  C_23 
REMARK    8  A    between atoms: C_21  and  C_26 
REMARK    9  A    between atoms: C_24  and  C_25 
REMARK   10  A    between atoms: C_29  and  C_32 
ROOT
HETATM    1  O   UNK     0      16.570   3.100  93.573  0.00  0.00    -0.388 OA
HETATM    2  N   UNK     0      13.850   2.801  92.787  0.00  0.00     0.096 N 
HETATM    3  C   UNK     0      14.683   1.639  93.129  0.00  0.00     0.299 C 
HETATM    4  C   UNK     0      14.689   3.882  92.254  0.00  0.00     0.299 C 
HETATM    5  C   UNK     0      15.766   2.053  94.122  0.00  0.00     0.198 C 
HETATM    6  C   UNK     0      15.772   4.244  93.267  0.00  0.00     0.198 C 
ENDROOT
BRANCH   2   7
HETATM    7  C   UNK     0      12.812   2.429  91.828  0.00  0.00     0.311 C 
BRANCH   7   8
HETATM    8  C   UNK     0      11.729   3.449  91.739  0.00  0.00    -0.030 A 
HETATM    9  C   UNK     0      11.213   3.811  90.494  0.00  0.00     0.010 A 
HETATM   10  C   UNK     0      10.202   4.767  90.409  0.00  0.00     0.021 A 
HETATM   11  C   UNK     0       9.705   5.360  91.570  0.00  0.00     0.018 A 
HETATM   12  C   UNK     0      10.219   4.999  92.814  0.00  0.00     0.021 A 
HETATM   13  C   UNK     0      11.231   4.043  92.899  0.00  0.00     0.010 A 
BRANCH  11  14
HETATM   14  C   UNK     0       8.665   6.339  91.483  0.00  0.00    -0.061 C 
HETATM   15  C   UNK     0       7.792   7.162  91.410  0.00  0.00    -0.061 C 
BRANCH  15  16
HETATM   16  C   UNK     0       6.755   8.141  91.325  0.00  0.00     0.018 A 
HETATM   17  C   UNK     0       6.730   9.210  92.222  0.00  0.00     0.022 A 
HETATM   18  C   UNK     0       5.718  10.167  92.138  0.00  0.00     0.018 A 
HETATM   19  C   UNK     0       4.755  10.034  91.159  0.00  0.00     0.032 A 
HETATM   20  C   UNK     0       4.757   8.987  90.262  0.00  0.00     0.018 A 
HETATM   21  C   UNK     0       5.768   8.030  90.346  0.00  0.00     0.022 A 
BRANCH  19  22
HETATM   22  C   UNK     0       3.677  11.053  91.071  0.00  0.00     0.252 C 
HETATM   23  O   UNK     0       2.661  10.796  90.430  0.00  0.00    -0.268 OA
HETATM   24  N   UNK     0       3.900  12.236  91.761  0.00  0.00    -0.341 N 
HETATM   25  H   UNK     0       4.754  12.368  92.291  0.00  0.00     0.163 HD
BRANCH  24  26
HETATM   26  C   UNK     0       2.939  13.309  91.792  0.00  0.00     0.207 C 
BRANCH  26  27
HETATM   27  C   UNK     0       2.904  14.036  93.142  0.00  0.00     0.146 C 
HETATM   28  C   UNK     0       4.004  13.566  94.087  0.00  0.00     0.042 C 
BRANCH  27  29
HETATM   29  O   UNK     0       3.044  15.441  92.931  0.00  0.00    -0.393 OA
HETATM   30  H   UNK     0       3.875  15.596  92.452  0.00  0.00     0.210 HD
ENDBRANCH  27  29
ENDBRANCH  26  27
BRANCH  26  31
HETATM   31  C   UNK     0       3.275  14.268  90.654  0.00  0.00     0.266 C 
HETATM   32  O   UNK     0       2.480  14.551  89.760  0.00  0.00    -0.269 OA
HETATM   33  N   UNK     0       4.564  14.736  90.733  0.00  0.00    -0.236 N 
HETATM   34  H   UNK     0       5.272  14.456  91.402  0.00  0.00     0.197 HD
BRANCH  33  35
HETATM   35  O   UNK     0       4.966  15.595  89.700  0.00  0.00    -0.287 OA
HETATM   36  H   UNK     0       5.930  15.577  89.823  0.00  0.00     0.244 HD
ENDBRANCH  33  35
ENDBRANCH  26  31
ENDBRANCH  24  26
ENDBRANCH  19  22
ENDBRANCH  15  16
ENDBRANCH  11  14
ENDBRANCH   7   8
ENDBRANCH   2   7
TORSDOF 10
ENDMDL
MODEL 3
REMARK VINA RESULT:      -5.5      2.880     12.304
REMARK  10 active torsions:
REMARK  status: ('A' for Active; 'I' for Inactive)
REMARK    1  A    between atoms: O_2  and  C_18 
REMARK    2  A    between atoms: O_5  and  N_8 
REMARK    3  A    between atoms: N_6  and  C_11 
REMARK    4  A    between atoms: N_7  and  C_15 
REMARK       I    between atoms: N_7  and  C_24 
REMARK       I    between atoms: N_8  and  C_23 
REMARK    5  A    between atoms: C_11  and  C_14 
REMARK    6  A    between atoms: C_15  and  C_18 
REMARK    7  A    between atoms: C_15  and  C_23 
REMARK    8  A    between atoms: C_21  and  C_26 
REMARK    9  A    between atoms: C_24  and  C_25 
REMARK   10  A    between atoms: C_29  and  C_32 
ROOT
HETATM    1  O   UNK     0       2.911  14.746  94.077  0.00  0.00    -0.388 OA
HETATM    2  N   UNK     0       2.631  14.723  91.244  0.00  0.00     0.096 N 
HETATM    3  C   UNK     0       1.730  13.951  92.111  0.00  0.00     0.299 C 
HETATM    4  C   UNK     0       3.945  14.867  91.885  0.00  0.00     0.299 C 
HETATM    5  C   UNK     0       1.621  14.627  93.475  0.00  0.00     0.198 C 
HETATM    6  C   UNK     0       3.784  15.521  93.254  0.00  0.00     0.198 C 
ENDROOT
BRANCH   2   7
HETATM    7  C   UNK     0       2.760  14.087  89.934  0.00  0.00     0.311 C 
BRANCH   7   8
HETATM    8  C   UNK     0       3.761  12.982  89.935  0.00  0.00    -0.030 A 
HETATM    9  C   UNK     0       4.974  13.142  89.264  0.00  0.00     0.010 A 
HETATM   10  C   UNK     0       5.911  12.108  89.262  0.00  0.00     0.021 A 
HETATM   11  C   UNK     0       5.635  10.917  89.932  0.00  0.00     0.018 A 
HETATM   12  C   UNK     0       4.424  10.757  90.602  0.00  0.00     0.021 A 
HETATM   13  C   UNK     0       3.487  11.790  90.604  0.00  0.00     0.010 A 
BRANCH  11  14
HETATM   14  C   UNK     0       6.597   9.858  89.932  0.00  0.00    -0.061 C 
HETATM   15  C   UNK     0       7.405   8.968  89.932  0.00  0.00    -0.061 C 
BRANCH  15  16
HETATM   16  C   UNK     0       8.367   7.911  89.931  0.00  0.00     0.018 A 
HETATM   17  C   UNK     0       8.207   6.824  90.792  0.00  0.00     0.022 A 
HETATM   18  C   UNK     0       9.145   5.791  90.791  0.00  0.00     0.018 A 
HETATM   19  C   UNK     0      10.219   5.867  89.930  0.00  0.00     0.032 A 
HETATM   20  C   UNK     0      10.400   6.930  89.070  0.00  0.00     0.018 A 
HETATM   21  C   UNK     0       9.463   7.964  89.071  0.00  0.00     0.022 A 
BRANCH  19  22
HETATM   22  C   UNK     0      11.219   4.767  89.930  0.00  0.00     0.252 C 
HETATM   23  O   UNK     0      11.393   4.115  88.904  0.00  0.00    -0.268 OA
HETATM   24  N   UNK     0      11.912   4.576  91.118  0.00  0.00    -0.341 N 
HETATM   25  H   UNK     0      11.732   5.171  91.918  0.00  0.00     0.163 HD
BRANCH  24  26
HETATM   26  C   UNK     0      12.929   3.567  91.268  0.00  0.00     0.207 C 
BRANCH  26  27
HETATM   27  C   UNK     0      14.127   4.050  92.095  0.00  0.00     0.146 C 
HETATM   28  C   UNK     0      13.859   4.001  93.595  0.00  0.00     0.042 C 
BRANCH  27  29
HETATM   29  O   UNK     0      15.266   3.242  91.802  0.00  0.00    -0.393 OA
HETATM   30  H   UNK     0      15.506   2.749  92.605  0.00  0.00     0.210 HD
ENDBRANCH  27  29
ENDBRANCH  26  27
BRANCH  26  31
HETATM   31  C   UNK     0      12.278   2.340  91.899  0.00  0.00     0.266 C 
HETATM   32  O   UNK     0      12.857   1.262  92.018  0.00  0.00    -0.269 OA
HETATM   33  N   UNK     0      10.978   2.577  92.273  0.00  0.00    -0.236 N 
HETATM   34  H   UNK     0      10.443   3.423  92.108  0.00  0.00     0.197 HD
BRANCH  33  35
HETATM   35  O   UNK     0      10.294   1.486  92.828  0.00  0.00    -0.287 OA
HETATM   36  H   UNK     0       9.407   1.870  92.931  0.00  0.00     0.244 HD
ENDBRANCH  33  35
ENDBRANCH  26  31
ENDBRANCH  24  26
ENDBRANCH  19  22
ENDBRANCH  15  16
ENDBRANCH  11  14
ENDBRANCH   7   8
ENDBRANCH   2   7
TORSDOF 10
ENDMDL
MODEL 4
REMARK VINA RESULT:      -5.1      1.936     12.343
REMARK  10 active torsions:
REMARK  status: ('A' for Active; 'I' for Inactive)
REMARK    1  A    between atoms: O_2  and  C_18 
REMARK    2  A    between atoms: O_5  and  N_8 
REMARK    3  A    between atoms: N_6  and  C_11 
REMARK    4  A    between atoms: N_7  and  C_15 
REMARK       I    between atoms: N_7  and  C_24 
REMARK       I    between atoms: N_8  and  C_23 
REMARK    5  A    between atoms: C_11  and  C_14 
REMARK    6  A    between atoms: C_15  and  C_18 
REMARK    7  A    between atoms: C_15  and  C_23 
REMARK    8  A    between atoms: C_21  and  C_26 
REMARK    9  A    between atoms: C_24  and  C_25 
REMARK   10  A    between atoms: C_29  and  C_32 
ROOT
HETATM    1  O   UNK     0       5.561  14.473  88.371  0.00  0.00    -0.388 OA
HETATM    2  N   UNK     0       3.702  13.242  90.140  0.00  0.00     0.096 N 
HETATM    3  C   UNK     0       4.530  14.379  90.566  0.00  0.00     0.299 C 
HETATM    4  C   UNK     0       4.400  12.472  89.102  0.00  0.00     0.299 C 
HETATM    5  C   UNK     0       4.877  15.246  89.359  0.00  0.00     0.198 C 
HETATM    6  C   UNK     0       4.750  13.384  87.929  0.00  0.00     0.198 C 
ENDROOT
BRANCH   2   7
HETATM    7  C   UNK     0       3.366  12.390  91.280  0.00  0.00     0.311 C 
BRANCH   7   8
HETATM    8  C   UNK     0       4.370  11.311  91.498  0.00  0.00    -0.030 A 
HETATM    9  C   UNK     0       5.337  11.450  92.494  0.00  0.00     0.010 A 
HETATM   10  C   UNK     0       6.279  10.441  92.698  0.00  0.00     0.021 A 
HETATM   11  C   UNK     0       6.252   9.293  91.906  0.00  0.00     0.018 A 
HETATM   12  C   UNK     0       5.287   9.153  90.911  0.00  0.00     0.021 A 
HETATM   13  C   UNK     0       4.345  10.162  90.707  0.00  0.00     0.010 A 
BRANCH  11  14
HETATM   14  C   UNK     0       7.217   8.258  92.116  0.00  0.00    -0.061 C 
HETATM   15  C   UNK     0       8.028   7.388  92.292  0.00  0.00    -0.061 C 
BRANCH  15  16
HETATM   16  C   UNK     0       8.990   6.353  92.502  0.00  0.00     0.018 A 
HETATM   17  C   UNK     0       9.259   5.436  91.485  0.00  0.00     0.022 A 
HETATM   18  C   UNK     0      10.200   4.426  91.688  0.00  0.00     0.018 A 
HETATM   19  C   UNK     0      10.851   4.357  92.902  0.00  0.00     0.032 A 
HETATM   20  C   UNK     0      10.603   5.250  93.923  0.00  0.00     0.018 A 
HETATM   21  C   UNK     0       9.662   6.259  93.720  0.00  0.00     0.022 A 
BRANCH  19  22
HETATM   22  C   UNK     0      11.852   3.280  93.119  0.00  0.00     0.252 C 
HETATM   23  O   UNK     0      11.584   2.133  92.771  0.00  0.00    -0.268 OA
HETATM   24  N   UNK     0      13.054   3.673  93.690  0.00  0.00    -0.341 N 
HETATM   25  H   UNK     0      13.215   4.645  93.928  0.00  0.00     0.163 HD
BRANCH  24  26
HETATM   26  C   UNK     0      14.133   2.751  93.941  0.00  0.00     0.207 C 
BRANCH  26  27
HETATM   27  C   UNK     0      14.227   1.646  92.881  0.00  0.00     0.146 C 
HETATM   28  C   UNK     0      14.986   2.093  91.637  0.00  0.00     0.042 C 
BRANCH  27  29
HETATM   29  O   UNK     0      14.880   0.506  93.438  0.00  0.00    -0.393 OA
HETATM   30  H   UNK     0      15.839   0.621  93.330  0.00  0.00     0.210 HD
ENDBRANCH  27  29
ENDBRANCH  26  27
BRANCH  26  31
HETATM   31  C   UNK     0      15.426   3.556  94.019  0.00  0.00     0.266 C 
HETATM   32  O   UNK     0      16.535   3.034  94.112  0.00  0.00    -0.269 OA
HETATM   33  N   UNK     0      15.195   4.910  94.013  0.00  0.00    -0.236 N 
HETATM   34  H   UNK     0      14.293   5.373  94.028  0.00  0.00     0.197 HD
BRANCH  33  35
HETATM   35  O   UNK     0      16.332   5.723  94.121  0.00  0.00    -0.287 OA
HETATM   36  H   UNK     0      16.298   5.947  95.066  0.00  0.00     0.244 HD
ENDBRANCH  33  35
ENDBRANCH  26  31
ENDBRANCH  24  26
ENDBRANCH  19  22
ENDBRANCH  15  16
ENDBRANCH  11  14
ENDBRANCH   7   8
ENDBRANCH   2   7
TORSDOF 10
ENDMDL
MODEL 5
REMARK VINA RESULT:      -5.1      2.137     12.495
REMARK  10 active torsions:
REMARK  status: ('A' for Active; 'I' for Inactive)
REMARK    1  A    between atoms: O_2  and  C_18 
REMARK    2  A    between atoms: O_5  and  N_8 
REMARK    3  A    between atoms: N_6  and  C_11 
REMARK    4  A    between atoms: N_7  and  C_15 
REMARK       I    between atoms: N_7  and  C_24 
REMARK       I    between atoms: N_8  and  C_23 
REMARK    5  A    between atoms: C_11  and  C_14 
REMARK    6  A    between atoms: C_15  and  C_18 
REMARK    7  A    between atoms: C_15  and  C_23 
REMARK    8  A    between atoms: C_21  and  C_26 
REMARK    9  A    between atoms: C_24  and  C_25 
REMARK   10  A    between atoms: C_29  and  C_32 
ROOT
HETATM    1  O   UNK     0       3.243  14.322  92.275  0.00  0.00    -0.388 OA
HETATM    2  N   UNK     0       3.967  13.954  89.547  0.00  0.00     0.096 N 
HETATM    3  C   UNK     0       2.973  13.092  90.201  0.00  0.00     0.299 C 
HETATM    4  C   UNK     0       4.931  14.451  90.538  0.00  0.00     0.299 C 
HETATM    5  C   UNK     0       2.282  13.860  91.325  0.00  0.00     0.198 C 
HETATM    6  C   UNK     0       4.195  15.186  91.654  0.00  0.00     0.198 C 
ENDROOT
BRANCH   2   7
HETATM    7  C   UNK     0       4.650  13.235  88.473  0.00  0.00     0.311 C 
BRANCH   7   8
HETATM    8  C   UNK     0       5.492  12.117  88.984  0.00  0.00    -0.030 A 
HETATM    9  C   UNK     0       4.889  10.995  89.554  0.00  0.00     0.010 A 
HETATM   10  C   UNK     0       5.676   9.948  90.034  0.00  0.00     0.021 A 
HETATM   11  C   UNK     0       7.066  10.024  89.943  0.00  0.00     0.018 A 
HETATM   12  C   UNK     0       7.669  11.144  89.375  0.00  0.00     0.021 A 
HETATM   13  C   UNK     0       6.882  12.191  88.895  0.00  0.00     0.010 A 
BRANCH  11  14
HETATM   14  C   UNK     0       7.873   8.949  90.434  0.00  0.00    -0.061 C 
HETATM   15  C   UNK     0       8.552   8.047  90.847  0.00  0.00    -0.061 C 
BRANCH  15  16
HETATM   16  C   UNK     0       9.358   6.973  91.336  0.00  0.00     0.018 A 
HETATM   17  C   UNK     0       9.943   6.077  90.440  0.00  0.00     0.022 A 
HETATM   18  C   UNK     0      10.732   5.030  90.917  0.00  0.00     0.018 A 
HETATM   19  C   UNK     0      10.918   4.902  92.278  0.00  0.00     0.032 A 
HETATM   20  C   UNK     0      10.351   5.774  93.184  0.00  0.00     0.018 A 
HETATM   21  C   UNK     0       9.561   6.820  92.707  0.00  0.00     0.022 A 
BRANCH  19  22
HETATM   22  C   UNK     0      11.757   3.786  92.785  0.00  0.00     0.252 C 
HETATM   23  O   UNK     0      11.336   2.634  92.703  0.00  0.00    -0.268 OA
HETATM   24  N   UNK     0      12.993   4.142  93.305  0.00  0.00    -0.341 N 
HETATM   25  H   UNK     0      13.284   5.112  93.318  0.00  0.00     0.163 HD
BRANCH  24  26
HETATM   26  C   UNK     0      13.929   3.171  93.814  0.00  0.00     0.207 C 
BRANCH  26  27
HETATM   27  C   UNK     0      14.018   1.916  92.937  0.00  0.00     0.146 C 
HETATM   28  C   UNK     0      14.689   2.186  91.596  0.00  0.00     0.042 C 
BRANCH  27  29
HETATM   29  O   UNK     0      14.750   0.903  93.627  0.00  0.00    -0.393 OA
HETATM   30  H   UNK     0      14.545   0.970  94.574  0.00  0.00     0.210 HD
ENDBRANCH  27  29
ENDBRANCH  26  27
BRANCH  26  31
HETATM   31  C   UNK     0      15.286   3.855  93.941  0.00  0.00     0.266 C 
HETATM   32  O   UNK     0      15.424   5.077  93.927  0.00  0.00    -0.269 OA
HETATM   33  N   UNK     0      16.317   2.951  94.033  0.00  0.00    -0.236 N 
HETATM   34  H   UNK     0      16.248   1.943  93.958  0.00  0.00     0.197 HD
BRANCH  33  35
HETATM   35  O   UNK     0      17.604   3.500  94.114  0.00  0.00    -0.287 OA
HETATM   36  H   UNK     0      17.464   4.172  94.803  0.00  0.00     0.244 HD
ENDBRANCH  33  35
ENDBRANCH  26  31
ENDBRANCH  24  26
ENDBRANCH  19  22
ENDBRANCH  15  16
ENDBRANCH  11  14
ENDBRANCH   7   8
ENDBRANCH   2   7
TORSDOF 10
ENDMDL
MODEL 6
REMARK VINA RESULT:      -5.0      1.721      2.200
REMARK  10 active torsions:
REMARK  status: ('A' for Active; 'I' for Inactive)
REMARK    1  A    between atoms: O_2  and  C_18 
REMARK    2  A    between atoms: O_5  and  N_8 
REMARK    3  A    between atoms: N_6  and  C_11 
REMARK    4  A    between atoms: N_7  and  C_15 
REMARK       I    between atoms: N_7  and  C_24 
REMARK       I    between atoms: N_8  and  C_23 
REMARK    5  A    between atoms: C_11  and  C_14 
REMARK    6  A    between atoms: C_15  and  C_18 
REMARK    7  A    between atoms: C_15  and  C_23 
REMARK    8  A    between atoms: C_21  and  C_26 
REMARK    9  A    between atoms: C_24  and  C_25 
REMARK   10  A    between atoms: C_29  and  C_32 
ROOT
HETATM    1  O   UNK     0      16.904   2.902  92.826  0.00  0.00    -0.388 OA
HETATM    2  N   UNK     0      14.079   2.901  93.174  0.00  0.00     0.096 N 
HETATM    3  C   UNK     0      14.955   2.062  94.003  0.00  0.00     0.299 C 
HETATM    4  C   UNK     0      14.691   3.120  91.857  0.00  0.00     0.299 C 
HETATM    5  C   UNK     0      16.332   2.710  94.121  0.00  0.00     0.198 C 
HETATM    6  C   UNK     0      16.074   3.743  92.025  0.00  0.00     0.198 C 
ENDROOT
BRANCH   2   7
HETATM    7  C   UNK     0      12.757   2.294  93.039  0.00  0.00     0.311 C 
BRANCH   7   8
HETATM    8  C   UNK     0      11.670   3.311  92.955  0.00  0.00    -0.030 A 
HETATM    9  C   UNK     0      11.621   4.355  93.879  0.00  0.00     0.010 A 
HETATM   10  C   UNK     0      10.603   5.306  93.802  0.00  0.00     0.021 A 
HETATM   11  C   UNK     0       9.637   5.213  92.801  0.00  0.00     0.018 A 
HETATM   12  C   UNK     0       9.686   4.171  91.877  0.00  0.00     0.021 A 
HETATM   13  C   UNK     0      10.703   3.219  91.954  0.00  0.00     0.010 A 
BRANCH  11  14
HETATM   14  C   UNK     0       8.595   6.190  92.721  0.00  0.00    -0.061 C 
HETATM   15  C   UNK     0       7.719   7.011  92.654  0.00  0.00    -0.061 C 
BRANCH  15  16
HETATM   16  C   UNK     0       6.679   7.987  92.575  0.00  0.00     0.018 A 
HETATM   17  C   UNK     0       5.815   7.999  91.478  0.00  0.00     0.022 A 
HETATM   18  C   UNK     0       4.799   8.950  91.402  0.00  0.00     0.018 A 
HETATM   19  C   UNK     0       4.667   9.868  92.423  0.00  0.00     0.032 A 
HETATM   20  C   UNK     0       5.507   9.879  93.516  0.00  0.00     0.018 A 
HETATM   21  C   UNK     0       6.524   8.928  93.593  0.00  0.00     0.022 A 
BRANCH  19  22
HETATM   22  C   UNK     0       3.585  10.883  92.340  0.00  0.00     0.252 C 
HETATM   23  O   UNK     0       2.432  10.554  92.609  0.00  0.00    -0.268 OA
HETATM   24  N   UNK     0       3.978  12.164  91.978  0.00  0.00    -0.341 N 
HETATM   25  H   UNK     0       4.954  12.368  91.795  0.00  0.00     0.163 HD
BRANCH  24  26
HETATM   26  C   UNK     0       3.050  13.262  91.878  0.00  0.00     0.207 C 
BRANCH  26  27
HETATM   27  C   UNK     0       3.377  14.405  92.847  0.00  0.00     0.146 C 
HETATM   28  C   UNK     0       4.269  13.957  94.000  0.00  0.00     0.042 C 
BRANCH  27  29
HETATM   29  O   UNK     0       4.029  15.459  92.139  0.00  0.00    -0.393 OA
HETATM   30  H   UNK     0       3.349  15.999  91.701  0.00  0.00     0.210 HD
ENDBRANCH  27  29
ENDBRANCH  26  27
BRANCH  26  31
HETATM   31  C   UNK     0       3.052  13.743  90.431  0.00  0.00     0.266 C 
HETATM   32  O   UNK     0       2.064  14.232  89.887  0.00  0.00    -0.269 OA
HETATM   33  N   UNK     0       4.261  13.529  89.815  0.00  0.00    -0.236 N 
HETATM   34  H   UNK     0       5.065  13.050  90.204  0.00  0.00     0.197 HD
BRANCH  33  35
HETATM   35  O   UNK     0       4.335  13.910  88.467  0.00  0.00    -0.287 OA
HETATM   36  H   UNK     0       4.772  14.774  88.554  0.00  0.00     0.244 HD
ENDBRANCH  33  35
ENDBRANCH  26  31
ENDBRANCH  24  26
ENDBRANCH  19  22
ENDBRANCH  15  16
ENDBRANCH  11  14
ENDBRANCH   7   8
ENDBRANCH   2   7
TORSDOF 10
ENDMDL
