MODEL 1
REMARK VINA RESULT:      -6.1      0.000      0.000
REMARK  14 active torsions:
REMARK  status: ('A' for Active; 'I' for Inactive)
REMARK    1  A    between atoms: O_2  and  C_18 
REMARK    2  A    between atoms: C_5  and  C_8 
REMARK    3  A    between atoms: C_5  and  O_35 
REMARK    4  A    between atoms: C_5  and  C_36 
REMARK    5  A    between atoms: N_6  and  C_11 
REMARK    6  A    between atoms: N_7  and  C_15 
REMARK       I    between atoms: N_7  and  C_24 
REMARK    7  A    between atoms: C_8  and  C_23 
REMARK    8  A    between atoms: C_11  and  C_14 
REMARK    9  A    between atoms: C_15  and  C_18 
REMARK   10  A    between atoms: C_15  and  C_23 
REMARK   11  A    between atoms: C_21  and  C_26 
REMARK   12  A    between atoms: C_24  and  C_25 
REMARK   13  A    between atoms: C_29  and  C_32 
REMARK   14  A    between atoms: C_36  and  O_39 
ROOT
HETATM    1  O   UNL     1      16.710   3.098  93.829  1.00  0.00    -0.350 OA
HETATM    2  N   UNL     1      14.009   3.053  92.931  1.00  0.00     0.147 N 
HETATM    3  C   UNL     1      14.803   1.821  93.040  1.00  0.00     0.283 C 
HETATM    4  C   UNL     1      14.890   4.198  92.661  1.00  0.00     0.283 C 
HETATM    5  C   UNL     1      15.865   1.984  94.124  1.00  0.00     0.178 C 
HETATM    6  C   UNL     1      15.950   4.305  93.752  1.00  0.00     0.178 C 
ENDROOT
BRANCH   2   7
HETATM    7  C   UNL     1      12.991   2.923  91.890  1.00  0.00     0.277 C 
BRANCH   7   8
HETATM    8  C   UNL     1      11.883   3.906  92.054  1.00  0.00     0.011 A 
HETATM    9  C   UNL     1      11.207   4.387  90.932  1.00  0.00    -0.002 A 
HETATM   10  C   UNL     1      10.171   5.308  91.083  1.00  0.00     0.008 A 
HETATM   11  C   UNL     1       9.810   5.747  92.357  1.00  0.00     0.042 A 
HETATM   12  C   UNL     1      10.484   5.268  93.478  1.00  0.00     0.008 A 
HETATM   13  C   UNL     1      11.521   4.347  93.327  1.00  0.00    -0.002 A 
BRANCH  11  14
HETATM   14  C   UNL     1       8.746   6.691  92.512  1.00  0.00    -0.059 C 
HETATM   15  C   UNL     1       7.852   7.484  92.642  1.00  0.00    -0.059 C 
BRANCH  15  16
HETATM   16  C   UNL     1       6.788   8.426  92.798  1.00  0.00     0.042 A 
HETATM   17  C   UNL     1       5.571   8.019  93.346  1.00  0.00     0.008 A 
HETATM   18  C   UNL     1       4.534   8.939  93.500  1.00  0.00     0.005 A 
HETATM   19  C   UNL     1       4.737  10.244  93.103  1.00  0.00     0.056 A 
HETATM   20  C   UNL     1       5.930  10.671  92.558  1.00  0.00     0.005 A 
HETATM   21  C   UNL     1       6.967   9.752  92.404  1.00  0.00     0.008 A 
BRANCH  19  22
HETATM   22  C   UNL     1       3.631  11.223  93.266  1.00  0.00     0.254 C 
HETATM   23  O   UNL     1       2.762  11.013  94.109  1.00  0.00    -0.268 OA
HETATM   24  N   UNL     1       3.684  12.341  92.445  1.00  0.00    -0.335 N 
HETATM   25  HN  UNL     1       4.446  12.460  91.788  1.00  0.00     0.164 HD
BRANCH  24  26
HETATM   26  C   UNL     1       2.698  13.391  92.500  1.00  0.00     0.169 C 
BRANCH  26  27
HETATM   27  C   UNL     1       3.103  14.536  93.437  1.00  0.00     0.138 C 
HETATM   28  C   UNL     1       4.308  15.315  92.921  1.00  0.00     0.034 C 
BRANCH  27  29
HETATM   29  O   UNL     1       2.005  15.434  93.596  1.00  0.00    -0.383 OA
HETATM   30  H   UNL     1       1.193  14.908  93.693  1.00  0.00     0.210 HD
ENDBRANCH  27  29
ENDBRANCH  26  27
BRANCH  26  31
HETATM   31  C   UNL     1       2.471  13.893  91.078  1.00  0.00     0.194 C 
HETATM   32  O   UNL     1       1.766  14.865  90.815  1.00  0.00    -0.289 OA
BRANCH  31  33
HETATM   33  C   UNL     1       3.110  13.113  90.144  1.00  0.00     0.053 C 
BRANCH  33  34
HETATM   34  C   UNL     1       3.824  13.805  89.156  1.00  0.00     0.220 C 
BRANCH  34  35
HETATM   35  O   UNL     1       4.599  14.593  89.729  1.00  0.00    -0.371 OA
HETATM   36  H   UNL     1       4.076  14.758  90.499  1.00  0.00     0.211 HD
ENDBRANCH  34  35
BRANCH  34  37
HETATM   37  C   UNL     1       4.492  12.961  88.253  1.00  0.00     0.185 C 
HETATM   38  O   UNL     1       4.599  12.176  89.313  1.00  0.00    -0.647 OA
BRANCH  37  39
HETATM   39  O   UNL     1       4.824  12.996  87.106  1.00  0.00    -0.774 OA
HETATM   40  H   UNL     1       4.290  13.822  86.541  1.00  0.00     0.167 HD
ENDBRANCH  37  39
ENDBRANCH  34  37
ENDBRANCH  33  34
ENDBRANCH  31  33
ENDBRANCH  26  31
ENDBRANCH  24  26
ENDBRANCH  19  22
ENDBRANCH  15  16
ENDBRANCH  11  14
ENDBRANCH   7   8
ENDBRANCH   2   7
TORSDOF 14
ENDMDL
