MODEL 1
REMARK VINA RESULT:      -5.5      0.000      0.000
REMARK  11 active torsions:
REMARK  status: ('A' for Active; 'I' for Inactive)
REMARK    1  A    between atoms: O_2  and  C_18 
REMARK    2  A    between atoms: O_5  and  P_8 
REMARK    3  A    between atoms: N_6  and  C_11 
REMARK    4  A    between atoms: N_7  and  C_15 
REMARK       I    between atoms: N_7  and  C_24 
REMARK    5  A    between atoms: P_8  and  C_23 
REMARK    6  A    between atoms: C_11  and  C_14 
REMARK    7  A    between atoms: C_15  and  C_18 
REMARK    8  A    between atoms: C_15  and  C_23 
REMARK    9  A    between atoms: C_21  and  C_26 
REMARK   10  A    between atoms: C_24  and  C_25 
REMARK   11  A    between atoms: C_29  and  C_32 
ROOT
HETATM    1  O   UNL     1       3.014  14.889  94.039  1.00  0.00     0.000 OA
HETATM    2  N   UNL     1       2.634  14.788  91.220  1.00  0.00     0.000 N 
HETATM    3  C   UNL     1       1.717  14.104  92.143  1.00  0.00     0.000 C 
HETATM    4  C   UNL     1       3.976  14.871  91.812  1.00  0.00     0.000 C 
HETATM    5  C   UNL     1       1.698  14.832  93.485  1.00  0.00     0.000 C 
HETATM    6  C   UNL     1       3.904  15.579  93.161  1.00  0.00     0.000 C 
ENDROOT
BRANCH   2   7
HETATM    7  C   UNL     1       2.677  14.101  89.930  1.00  0.00     0.000 C 
BRANCH   7   8
HETATM    8  C   UNL     1       3.667  12.987  89.912  1.00  0.00     0.000 A 
HETATM    9  C   UNL     1       4.901  13.161  89.284  1.00  0.00     0.000 A 
HETATM   10  C   UNL     1       5.827  12.118  89.265  1.00  0.00     0.000 A 
HETATM   11  C   UNL     1       5.519  10.903  89.876  1.00  0.00     0.000 A 
HETATM   12  C   UNL     1       4.288  10.728  90.504  1.00  0.00     0.000 A 
HETATM   13  C   UNL     1       3.361  11.770  90.522  1.00  0.00     0.000 A 
BRANCH  11  14
HETATM   14  C   UNL     1       6.470   9.834  89.858  1.00  0.00     0.000 C 
HETATM   15  C   UNL     1       7.270   8.936  89.843  1.00  0.00     0.000 C 
BRANCH  15  16
HETATM   16  C   UNL     1       8.221   7.869  89.825  1.00  0.00     0.000 A 
HETATM   17  C   UNL     1       9.001   7.650  88.689  1.00  0.00     0.000 A 
HETATM   18  C   UNL     1       9.931   6.610  88.674  1.00  0.00     0.000 A 
HETATM   19  C   UNL     1      10.060   5.814  89.792  1.00  0.00     0.000 A 
HETATM   20  C   UNL     1       9.300   6.010  90.926  1.00  0.00     0.000 A 
HETATM   21  C   UNL     1       8.370   7.049  90.944  1.00  0.00     0.000 A 
BRANCH  19  22
HETATM   22  C   UNL     1      11.049   4.705  89.774  1.00  0.00     0.000 C 
HETATM   23  O   UNL     1      11.178   4.033  88.754  1.00  0.00     0.000 OA
HETATM   24  N   UNL     1      11.786   4.529  90.937  1.00  0.00     0.000 N 
HETATM   25  HN  UNL     1      11.643   5.140  91.732  1.00  0.00     0.000 HD
BRANCH  24  26
HETATM   26  C   UNL     1      12.800   3.513  91.066  1.00  0.00     0.000 C 
BRANCH  26  27
HETATM   27  C   UNL     1      14.197   4.096  91.314  1.00  0.00     0.000 C 
HETATM   28  C   UNL     1      15.306   3.080  91.065  1.00  0.00     0.000 C 
BRANCH  27  29
HETATM   29  O   UNL     1      14.401   5.223  90.463  1.00  0.00     0.000 OA
HETATM   30  H   UNL     1      14.408   4.913  89.542  1.00  0.00     0.000 HD
ENDBRANCH  27  29
ENDBRANCH  26  27
BRANCH  26  31
HETATM   31  C   UNL     1      12.381   2.578  92.195  1.00  0.00     0.000 C 
HETATM   32  O   UNL     1      11.977   1.433  92.002  1.00  0.00     0.000 OA
BRANCH  31  33
HETATM   33  P   UNL     1      12.473   3.178  93.428  1.00  0.00     0.000 P 
HETATM   34  H   UNL     1      12.197   2.224  94.385  1.00  0.00     0.000 HD
BRANCH  33  35
HETATM   35  O   UNL     1      11.613   4.264  93.643  1.00  0.00     0.000 OA
HETATM   36  H   UNL     1      11.950   4.889  92.978  1.00  0.00     0.000 HD
ENDBRANCH  33  35
ENDBRANCH  31  33
ENDBRANCH  26  31
ENDBRANCH  24  26
ENDBRANCH  19  22
ENDBRANCH  15  16
ENDBRANCH  11  14
ENDBRANCH   7   8
ENDBRANCH   2   7
TORSDOF 11
ENDMDL
