MODEL 1
REMARK VINA RESULT:      -6.9      0.000      0.000
REMARK  10 active torsions:
REMARK  status: ('A' for Active; 'I' for Inactive)
REMARK    1  A    between atoms: O_2  and  C_18 
REMARK    2  A    between atoms: O_5  and  N_8 
REMARK    3  A    between atoms: N_6  and  C_11 
REMARK    4  A    between atoms: N_7  and  C_15 
REMARK       I    between atoms: N_7  and  C_24 
REMARK       I    between atoms: N_8  and  C_23 
REMARK    5  A    between atoms: C_11  and  C_14 
REMARK    6  A    between atoms: C_15  and  C_18 
REMARK    7  A    between atoms: C_15  and  C_23 
REMARK    8  A    between atoms: C_21  and  C_26 
REMARK    9  A    between atoms: C_24  and  C_25 
REMARK   10  A    between atoms: C_29  and  C_32 
ROOT
HETATM    1  O   UNK     0      16.314   4.343  94.004  0.00  0.00    -0.388 OA
HETATM    2  N   UNK     0      14.648   2.536  92.568  0.00  0.00     0.096 N 
HETATM    3  C   UNK     0      14.490   3.991  92.442  0.00  0.00     0.299 C 
HETATM    4  C   UNK     0      15.181   2.200  93.895  0.00  0.00     0.299 C 
HETATM    5  C   UNK     0      15.826   4.681  92.704  0.00  0.00     0.198 C 
HETATM    6  C   UNK     0      16.500   2.932  94.124  0.00  0.00     0.198 C 
ENDROOT
BRANCH   2   7
HETATM    7  C   UNK     0      13.377   1.854  92.331  0.00  0.00     0.311 C 
BRANCH   7   8
HETATM    8  C   UNK     0      12.251   2.809  92.123  0.00  0.00    -0.030 A 
HETATM    9  C   UNK     0      11.814   3.611  93.178  0.00  0.00     0.010 A 
HETATM   10  C   UNK     0      10.759   4.503  92.984  0.00  0.00     0.021 A 
HETATM   11  C   UNK     0      10.144   4.593  91.736  0.00  0.00     0.018 A 
HETATM   12  C   UNK     0      10.580   3.793  90.682  0.00  0.00     0.021 A 
HETATM   13  C   UNK     0      11.634   2.901  90.875  0.00  0.00     0.010 A 
BRANCH  11  14
HETATM   14  C   UNK     0       9.063   5.510  91.538  0.00  0.00    -0.061 C 
HETATM   15  C   UNK     0       8.155   6.280  91.370  0.00  0.00    -0.061 C 
BRANCH  15  16
HETATM   16  C   UNK     0       7.077   7.196  91.171  0.00  0.00     0.018 A 
HETATM   17  C   UNK     0       6.873   8.239  92.076  0.00  0.00     0.022 A 
HETATM   18  C   UNK     0       5.822   9.135  91.881  0.00  0.00     0.018 A 
HETATM   19  C   UNK     0       4.999   8.969  90.787  0.00  0.00     0.032 A 
HETATM   20  C   UNK     0       5.178   7.947  89.879  0.00  0.00     0.018 A 
HETATM   21  C   UNK     0       6.229   7.050  90.074  0.00  0.00     0.022 A 
BRANCH  19  22
HETATM   22  C   UNK     0       3.878   9.923  90.581  0.00  0.00     0.252 C 
HETATM   23  O   UNK     0       2.722   9.520  90.682  0.00  0.00    -0.268 OA
HETATM   24  N   UNK     0       4.238  11.234  90.305  0.00  0.00    -0.341 N 
HETATM   25  H   UNK     0       5.215  11.499  90.261  0.00  0.00     0.163 HD
BRANCH  24  26
HETATM   26  C   UNK     0       3.267  12.280  90.105  0.00  0.00     0.207 C 
BRANCH  26  27
HETATM   27  C   UNK     0       2.914  13.018  91.402  0.00  0.00     0.146 C 
HETATM   28  C   UNK     0       4.130  13.670  92.052  0.00  0.00     0.042 C 
BRANCH  27  29
HETATM   29  O   UNK     0       1.940  14.025  91.129  0.00  0.00    -0.393 OA
HETATM   30  H   UNK     0       1.640  14.397  91.975  0.00  0.00     0.210 HD
ENDBRANCH  27  29
ENDBRANCH  26  27
BRANCH  26  31
HETATM   31  C   UNK     0       3.823  13.237  89.056  0.00  0.00     0.266 C 
HETATM   32  O   UNK     0       3.843  14.457  89.206  0.00  0.00    -0.269 OA
HETATM   33  N   UNK     0       4.253  12.579  87.929  0.00  0.00    -0.236 N 
HETATM   34  H   UNK     0       4.170  11.588  87.736  0.00  0.00     0.197 HD
BRANCH  33  35
HETATM   35  O   UNK     0       4.744  13.392  86.898  0.00  0.00    -0.287 OA
HETATM   36  H   UNK     0       3.943  13.896  86.676  0.00  0.00     0.244 HD
ENDBRANCH  33  35
ENDBRANCH  26  31
ENDBRANCH  24  26
ENDBRANCH  19  22
ENDBRANCH  15  16
ENDBRANCH  11  14
ENDBRANCH   7   8
ENDBRANCH   2   7
TORSDOF 10
ENDMDL
