MODEL 1
REMARK VINA RESULT:      -7.0      0.000      0.000
REMARK  9 active torsions:
REMARK  status: ('A' for Active; 'I' for Inactive)
REMARK    1  A    between atoms: O_2  and  C_17 
REMARK    2  A    between atoms: N_5  and  C_10 
REMARK    3  A    between atoms: N_6  and  C_14 
REMARK       I    between atoms: N_6  and  C_23 
REMARK       I    between atoms: N_7  and  C_22 
REMARK    4  A    between atoms: C_10  and  C_13 
REMARK    5  A    between atoms: C_14  and  C_17 
REMARK    6  A    between atoms: C_14  and  C_22 
REMARK    7  A    between atoms: C_20  and  C_25 
REMARK    8  A    between atoms: C_23  and  C_24 
REMARK    9  A    between atoms: C_28  and  C_31 
ROOT
HETATM    1  O   UNL     1      16.801   3.875  93.824  1.00  0.00    -0.388 OA
HETATM    2  N   UNL     1      14.245   2.722  93.333  1.00  0.00     0.096 N 
HETATM    3  C   UNL     1      15.481   1.942  93.182  1.00  0.00     0.299 C 
HETATM    4  C   UNL     1      14.511   4.143  93.069  1.00  0.00     0.299 C 
HETATM    5  C   UNL     1      16.559   2.496  94.111  1.00  0.00     0.198 C 
HETATM    6  C   UNL     1      15.611   4.645  93.998  1.00  0.00     0.198 C 
ENDROOT
BRANCH   2   7
HETATM    7  C   UNL     1      13.201   2.215  92.444  1.00  0.00     0.311 C 
BRANCH   7   8
HETATM    8  C   UNL     1      12.228   3.273  92.048  1.00  0.00    -0.030 A 
HETATM    9  C   UNL     1      12.226   3.764  90.742  1.00  0.00     0.010 A 
HETATM   10  C   UNL     1      11.318   4.755  90.371  1.00  0.00     0.021 A 
HETATM   11  C   UNL     1      10.412   5.254  91.306  1.00  0.00     0.018 A 
HETATM   12  C   UNL     1      10.413   4.764  92.611  1.00  0.00     0.021 A 
HETATM   13  C   UNL     1      11.321   3.773  92.982  1.00  0.00     0.010 A 
BRANCH  11  14
HETATM   14  C   UNL     1       9.479   6.269  90.925  1.00  0.00    -0.061 C 
HETATM   15  C   UNL     1       8.694   7.123  90.606  1.00  0.00    -0.061 C 
BRANCH  15  16
HETATM   16  C   UNL     1       7.762   8.138  90.226  1.00  0.00     0.018 A 
HETATM   17  C   UNL     1       6.739   7.842  89.324  1.00  0.00     0.022 A 
HETATM   18  C   UNL     1       5.828   8.832  88.956  1.00  0.00     0.018 A 
HETATM   19  C   UNL     1       5.960  10.094  89.497  1.00  0.00     0.032 A 
HETATM   20  C   UNL     1       6.963  10.412  90.389  1.00  0.00     0.018 A 
HETATM   21  C   UNL     1       7.874   9.422  90.758  1.00  0.00     0.022 A 
BRANCH  19  22
HETATM   22  C   UNL     1       4.991  11.149  89.102  1.00  0.00     0.252 C 
HETATM   23  O   UNL     1       4.184  10.917  88.205  1.00  0.00    -0.268 OA
HETATM   24  N   UNL     1       5.060  12.337  89.817  1.00  0.00    -0.342 N 
HETATM   25  H   UNL     1       5.737  12.447  90.563  1.00  0.00     0.163 HD
BRANCH  24  26
HETATM   26  C   UNL     1       4.173  13.444  89.569  1.00  0.00     0.199 C 
BRANCH  26  27
HETATM   27  C   UNL     1       3.614  14.057  90.859  1.00  0.00     0.145 C 
HETATM   28  C   UNL     1       2.180  13.621  91.139  1.00  0.00     0.042 C 
BRANCH  27  29
HETATM   29  O   UNL     1       4.436  13.680  91.962  1.00  0.00    -0.393 OA
HETATM   30  H   UNL     1       4.871  14.478  92.306  1.00  0.00     0.210 HD
ENDBRANCH  27  29
ENDBRANCH  26  27
BRANCH  26  31
HETATM   31  C   UNL     1       4.936  14.479  88.749  1.00  0.00     0.220 C 
HETATM   32  O   UNL     1       5.303  14.279  87.592  1.00  0.00    -0.278 OA
HETATM   33  N   UNL     1       5.192  15.623  89.465  1.00  0.00    -0.271 NA
HETATM   34  H   UNL     1       4.984  15.786  90.444  1.00  0.00     0.127 HD
HETATM   35  H   UNL     1       6.418  16.075  89.977  1.00  0.00     0.127 HD
ENDBRANCH  26  31
ENDBRANCH  24  26
ENDBRANCH  19  22
ENDBRANCH  15  16
ENDBRANCH  11  14
ENDBRANCH   7   8
ENDBRANCH   2   7
TORSDOF 9
ENDMDL
