MODEL 1
REMARK VINA RESULT:      -7.6      0.000      0.000
REMARK  9 active torsions:
REMARK  status: ('A' for Active; 'I' for Inactive)
REMARK    1  A    between atoms: N_3  and  C_6 
REMARK    2  A    between atoms: C_6  and  C_9 
REMARK    3  A    between atoms: C_14  and  C_17 
REMARK       I    between atoms: N_26  and  C_15 
REMARK    4  A    between atoms: C_15  and  C_16 
REMARK    5  A    between atoms: C_20  and  C_23 
REMARK    6  A    between atoms: OG1_24  and  CB_28 
REMARK    7  A    between atoms: N_26  and  CA_27 
REMARK    8  A    between atoms: CA_27  and  CB_28 
REMARK    9  A    between atoms: CA_27  and  C_30 
ROOT
HETATM    1  O   UNK A   0       1.915   8.018  87.813  1.00  0.00    -0.388 OA
HETATM    2  N   UNK A   0       4.717   7.539  87.674  1.00  0.00     0.096 N 
HETATM    3  C   UNK A   0       4.175   8.901  87.777  1.00  0.00     0.299 C 
HETATM    4  C   UNK A   0       3.752   6.664  86.994  1.00  0.00     0.299 C 
HETATM    5  C   UNK A   0       2.832   8.870  88.503  1.00  0.00     0.198 C 
HETATM    6  C   UNK A   0       2.420   6.685  87.736  1.00  0.00     0.198 C 
ENDROOT
BRANCH   2   7
HETATM    7  C   UNK A   0       5.999   7.544  86.973  1.00  0.00     0.311 C 
BRANCH   7   8
HETATM    8  C   UNK A   0       7.094   6.942  87.786  1.00  0.00    -0.030 A 
HETATM    9  C   UNK A   0       6.881   6.651  89.134  1.00  0.00     0.010 A 
HETATM   10  C   UNK A   0       7.905   6.090  89.897  1.00  0.00     0.021 A 
HETATM   11  C   UNK A   0       9.141   5.818  89.311  1.00  0.00     0.018 A 
HETATM   12  C   UNK A   0       9.355   6.108  87.965  1.00  0.00     0.021 A 
HETATM   13  C   UNK A   0       8.331   6.670  87.202  1.00  0.00     0.010 A 
BRANCH  11  14
HETATM   14  C   UNK A   0      10.191   5.241  90.093  1.00  0.00    -0.061 C 
HETATM   15  C   UNK A   0      11.073   4.756  90.750  1.00  0.00    -0.061 C 
BRANCH  15  16
HETATM   16  C   UNK A   0      12.121   4.179  91.533  1.00  0.00     0.018 A 
HETATM   17  C   UNK A   0      11.897   3.864  92.873  1.00  0.00     0.022 A 
HETATM   18  C   UNK A   0      12.919   3.298  93.635  1.00  0.00     0.018 A 
HETATM   19  C   UNK A   0      14.141   3.060  93.041  1.00  0.00     0.032 A 
HETATM   20  C   UNK A   0      14.387   3.363  91.718  1.00  0.00     0.018 A 
HETATM   21  C   UNK A   0      13.366   3.929  90.955  1.00  0.00     0.022 A 
BRANCH  19  22
HETATM   22  C   UNK A   0      15.230   2.459  93.854  1.00  0.00     0.252 C 
HETATM   23  O   UNK A   0      16.376   2.885  93.729  1.00  0.00    -0.268 OA
ENDBRANCH  19  22
ENDBRANCH  15  16
ENDBRANCH  11  14
ENDBRANCH   7   8
ENDBRANCH   2   7
TORSDOF 9
ENDMDL
