MODEL 1
REMARK VINA RESULT:      -6.9      0.000      0.000
REMARK  11 active torsions:
REMARK  status: ('A' for Active; 'I' for Inactive)
REMARK    1  A    between atoms: O_2  and  C_18 
REMARK    2  A    between atoms: O_5  and  P_8 
REMARK    3  A    between atoms: N_6  and  C_11 
REMARK    4  A    between atoms: N_7  and  C_15 
REMARK       I    between atoms: N_7  and  C_24 
REMARK    5  A    between atoms: P_8  and  C_23 
REMARK    6  A    between atoms: C_11  and  C_14 
REMARK    7  A    between atoms: C_15  and  C_18 
REMARK    8  A    between atoms: C_15  and  C_23 
REMARK    9  A    between atoms: C_21  and  C_26 
REMARK   10  A    between atoms: C_24  and  C_25 
REMARK   11  A    between atoms: C_29  and  C_32 
ROOT
HETATM    1  O   UNL     1      15.890   3.884  94.124  1.00  0.00     0.000 OA
HETATM    2  N   UNL     1      14.112   2.559  92.338  1.00  0.00     0.000 N 
HETATM    3  C   UNL     1      14.162   4.025  92.424  1.00  0.00     0.000 C 
HETATM    4  C   UNL     1      14.490   1.966  93.628  1.00  0.00     0.000 C 
HETATM    5  C   UNL     1      15.555   4.470  92.864  1.00  0.00     0.000 C 
HETATM    6  C   UNL     1      15.873   2.459  94.040  1.00  0.00     0.000 C 
ENDROOT
BRANCH   2   7
HETATM    7  C   UNL     1      12.783   2.110  91.928  1.00  0.00     0.000 C 
BRANCH   7   8
HETATM    8  C   UNL     1      11.864   3.247  91.636  1.00  0.00     0.000 A 
HETATM    9  C   UNL     1      11.010   3.725  92.630  1.00  0.00     0.000 A 
HETATM   10  C   UNL     1      10.148   4.788  92.358  1.00  0.00     0.000 A 
HETATM   11  C   UNL     1      10.143   5.372  91.092  1.00  0.00     0.000 A 
HETATM   12  C   UNL     1      10.996   4.896  90.098  1.00  0.00     0.000 A 
HETATM   13  C   UNL     1      11.857   3.833  90.370  1.00  0.00     0.000 A 
BRANCH  11  14
HETATM   14  C   UNL     1       9.261   6.464  90.812  1.00  0.00     0.000 C 
HETATM   15  C   UNL     1       8.520   7.381  90.578  1.00  0.00     0.000 C 
BRANCH  15  16
HETATM   16  C   UNL     1       7.639   8.472  90.298  1.00  0.00     0.000 A 
HETATM   17  C   UNL     1       6.313   8.223  89.942  1.00  0.00     0.000 A 
HETATM   18  C   UNL     1       5.453   9.287  89.672  1.00  0.00     0.000 A 
HETATM   19  C   UNL     1       5.937  10.575  89.765  1.00  0.00     0.000 A 
HETATM   20  C   UNL     1       7.243  10.848  90.115  1.00  0.00     0.000 A 
HETATM   21  C   UNL     1       8.104   9.784  90.385  1.00  0.00     0.000 A 
BRANCH  19  22
HETATM   22  C   UNL     1       5.021  11.709  89.475  1.00  0.00     0.000 C 
HETATM   23  O   UNL     1       4.670  11.915  88.316  1.00  0.00     0.000 OA
HETATM   24  N   UNL     1       4.604  12.450  90.572  1.00  0.00     0.000 N 
HETATM   25  HN  UNL     1       4.916  12.205  91.505  1.00  0.00     0.000 HD
BRANCH  24  26
HETATM   26  C   UNL     1       3.697  13.563  90.457  1.00  0.00     0.000 C 
BRANCH  26  27
HETATM   27  C   UNL     1       2.375  13.331  91.198  1.00  0.00     0.000 C 
HETATM   28  C   UNL     1       2.353  12.006  91.952  1.00  0.00     0.000 C 
BRANCH  27  29
HETATM   29  O   UNL     1       2.152  14.394  92.123  1.00  0.00     0.000 OA
HETATM   30  H   UNL     1       1.671  14.037  92.888  1.00  0.00     0.000 HD
ENDBRANCH  27  29
ENDBRANCH  26  27
BRANCH  26  31
HETATM   31  C   UNL     1       4.415  14.804  90.979  1.00  0.00     0.000 C 
HETATM   32  O   UNL     1       4.556  15.042  92.177  1.00  0.00     0.000 OA
BRANCH  31  33
HETATM   33  P   UNL     1       4.839  15.624  89.962  1.00  0.00     0.000 P 
HETATM   34  H   UNL     1       3.838  16.540  89.711  1.00  0.00     0.000 HD
BRANCH  33  35
HETATM   35  O   UNL     1       5.152  14.986  88.753  1.00  0.00     0.000 OA
HETATM   36  H   UNL     1       4.504  15.406  88.162  1.00  0.00     0.000 HD
ENDBRANCH  33  35
ENDBRANCH  31  33
ENDBRANCH  26  31
ENDBRANCH  24  26
ENDBRANCH  19  22
ENDBRANCH  15  16
ENDBRANCH  11  14
ENDBRANCH   7   8
ENDBRANCH   2   7
TORSDOF 11
ENDMDL
