MODEL 1
REMARK VINA RESULT:      -6.9      0.000      0.000
REMARK  10 active torsions:
REMARK  status: ('A' for Active; 'I' for Inactive)
REMARK    1  A    between atoms: O_2  and  C_18 
REMARK    2  A    between atoms: O_5  and  N_8 
REMARK    3  A    between atoms: N_6  and  C_11 
REMARK    4  A    between atoms: N_7  and  C_15 
REMARK       I    between atoms: N_7  and  C_24 
REMARK       I    between atoms: N_8  and  C_23 
REMARK    5  A    between atoms: C_11  and  C_14 
REMARK    6  A    between atoms: C_15  and  C_18 
REMARK    7  A    between atoms: C_15  and  C_23 
REMARK    8  A    between atoms: C_21  and  C_26 
REMARK    9  A    between atoms: C_24  and  C_25 
REMARK   10  A    between atoms: C_29  and  C_32 
ROOT
HETATM    1  O   UNK     0      16.880   4.550  94.123  0.00  0.00    -0.388 OA
HETATM    2  N   UNK     0      15.022   2.795  92.871  0.00  0.00     0.096 N 
HETATM    3  C   UNK     0      14.827   4.251  92.863  0.00  0.00     0.299 C 
HETATM    4  C   UNK     0      15.770   2.393  94.070  0.00  0.00     0.299 C 
HETATM    5  C   UNK     0      16.180   4.954  92.944  0.00  0.00     0.198 C 
HETATM    6  C   UNK     0      17.100   3.139  94.124  0.00  0.00     0.198 C 
ENDROOT
BRANCH   2   7
HETATM    7  C   UNK     0      13.737   2.100  92.805  0.00  0.00     0.311 C 
BRANCH   7   8
HETATM    8  C   UNK     0      12.613   3.017  92.459  0.00  0.00    -0.030 A 
HETATM    9  C   UNK     0      11.980   3.752  93.463  0.00  0.00     0.010 A 
HETATM   10  C   UNK     0      10.927   4.608  93.142  0.00  0.00     0.021 A 
HETATM   11  C   UNK     0      10.510   4.731  91.817  0.00  0.00     0.018 A 
HETATM   12  C   UNK     0      11.141   3.999  90.814  0.00  0.00     0.021 A 
HETATM   13  C   UNK     0      12.194   3.141  91.135  0.00  0.00     0.010 A 
BRANCH  11  14
HETATM   14  C   UNK     0       9.431   5.612  91.487  0.00  0.00    -0.061 C 
HETATM   15  C   UNK     0       8.525   6.352  91.210  0.00  0.00    -0.061 C 
BRANCH  15  16
HETATM   16  C   UNK     0       7.448   7.231  90.882  0.00  0.00     0.018 A 
HETATM   17  C   UNK     0       7.558   8.090  89.786  0.00  0.00     0.022 A 
HETATM   18  C   UNK     0       6.506   8.947  89.465  0.00  0.00     0.018 A 
HETATM   19  C   UNK     0       5.368   8.927  90.243  0.00  0.00     0.032 A 
HETATM   20  C   UNK     0       5.234   8.089  91.330  0.00  0.00     0.018 A 
HETATM   21  C   UNK     0       6.286   7.232  91.653  0.00  0.00     0.022 A 
BRANCH  19  22
HETATM   22  C   UNK     0       4.248   9.842  89.901  0.00  0.00     0.252 C 
HETATM   23  O   UNK     0       3.207   9.373  89.449  0.00  0.00    -0.268 OA
HETATM   24  N   UNK     0       4.467  11.190  90.149  0.00  0.00    -0.341 N 
HETATM   25  H   UNK     0       5.345  11.503  90.548  0.00  0.00     0.163 HD
BRANCH  24  26
HETATM   26  C   UNK     0       3.470  12.198  89.893  0.00  0.00     0.207 C 
BRANCH  26  27
HETATM   27  C   UNK     0       2.957  12.865  91.176  0.00  0.00     0.146 C 
HETATM   28  C   UNK     0       2.312  11.869  92.134  0.00  0.00     0.042 C 
BRANCH  27  29
HETATM   29  O   UNK     0       4.039  13.515  91.842  0.00  0.00    -0.393 OA
HETATM   30  H   UNK     0       3.939  13.370  92.798  0.00  0.00     0.210 HD
ENDBRANCH  27  29
ENDBRANCH  26  27
BRANCH  26  31
HETATM   31  C   UNK     0       4.076  13.223  88.940  0.00  0.00     0.266 C 
HETATM   32  O   UNK     0       4.214  14.409  89.232  0.00  0.00    -0.269 OA
HETATM   33  N   UNK     0       4.407  12.671  87.726  0.00  0.00    -0.236 N 
HETATM   34  H   UNK     0       4.226  11.721  87.422  0.00  0.00     0.197 HD
BRANCH  33  35
HETATM   35  O   UNK     0       4.937  13.557  86.777  0.00  0.00    -0.287 OA
HETATM   36  H   UNK     0       5.616  14.000  87.313  0.00  0.00     0.244 HD
ENDBRANCH  33  35
ENDBRANCH  26  31
ENDBRANCH  24  26
ENDBRANCH  19  22
ENDBRANCH  15  16
ENDBRANCH  11  14
ENDBRANCH   7   8
ENDBRANCH   2   7
TORSDOF 10
ENDMDL
MODEL 2
REMARK VINA RESULT:      -6.7      1.569      2.216
REMARK  10 active torsions:
REMARK  status: ('A' for Active; 'I' for Inactive)
REMARK    1  A    between atoms: O_2  and  C_18 
REMARK    2  A    between atoms: O_5  and  N_8 
REMARK    3  A    between atoms: N_6  and  C_11 
REMARK    4  A    between atoms: N_7  and  C_15 
REMARK       I    between atoms: N_7  and  C_24 
REMARK       I    between atoms: N_8  and  C_23 
REMARK    5  A    between atoms: C_11  and  C_14 
REMARK    6  A    between atoms: C_15  and  C_18 
REMARK    7  A    between atoms: C_15  and  C_23 
REMARK    8  A    between atoms: C_21  and  C_26 
REMARK    9  A    between atoms: C_24  and  C_25 
REMARK   10  A    between atoms: C_29  and  C_32 
ROOT
HETATM    1  O   UNK     0      16.606   3.303  93.926  0.00  0.00    -0.388 OA
HETATM    2  N   UNK     0      14.059   3.067  92.678  0.00  0.00     0.096 N 
HETATM    3  C   UNK     0      14.914   1.893  92.908  0.00  0.00     0.299 C 
HETATM    4  C   UNK     0      14.887   4.268  92.511  0.00  0.00     0.299 C 
HETATM    5  C   UNK     0      15.808   2.135  94.121  0.00  0.00     0.198 C 
HETATM    6  C   UNK     0      15.783   4.454  93.733  0.00  0.00     0.198 C 
ENDROOT
BRANCH   2   7
HETATM    7  C   UNK     0      13.201   2.862  91.513  0.00  0.00     0.311 C 
BRANCH   7   8
HETATM    8  C   UNK     0      12.056   3.816  91.476  0.00  0.00    -0.030 A 
HETATM    9  C   UNK     0      11.618   4.332  90.255  0.00  0.00     0.010 A 
HETATM   10  C   UNK     0      10.549   5.227  90.219  0.00  0.00     0.021 A 
HETATM   11  C   UNK     0       9.917   5.603  91.404  0.00  0.00     0.018 A 
HETATM   12  C   UNK     0      10.353   5.089  92.623  0.00  0.00     0.021 A 
HETATM   13  C   UNK     0      11.422   4.195  92.659  0.00  0.00     0.010 A 
BRANCH  11  14
HETATM   14  C   UNK     0       8.818   6.520  91.367  0.00  0.00    -0.061 C 
HETATM   15  C   UNK     0       7.895   7.290  91.335  0.00  0.00    -0.061 C 
BRANCH  15  16
HETATM   16  C   UNK     0       6.799   8.205  91.299  0.00  0.00     0.018 A 
HETATM   17  C   UNK     0       6.885   9.422  91.978  0.00  0.00     0.022 A 
HETATM   18  C   UNK     0       5.816  10.317  91.941  0.00  0.00     0.018 A 
HETATM   19  C   UNK     0       4.686   9.977  91.226  0.00  0.00     0.032 A 
HETATM   20  C   UNK     0       4.577   8.782  90.547  0.00  0.00     0.018 A 
HETATM   21  C   UNK     0       5.645   7.886  90.584  0.00  0.00     0.022 A 
BRANCH  19  22
HETATM   22  C   UNK     0       3.547  10.931  91.189  0.00  0.00     0.252 C 
HETATM   23  O   UNK     0       2.495  10.587  90.656  0.00  0.00    -0.268 OA
HETATM   24  N   UNK     0       3.762  12.159  91.797  0.00  0.00    -0.341 N 
HETATM   25  H   UNK     0       4.650  12.364  92.240  0.00  0.00     0.163 HD
BRANCH  24  26
HETATM   26  C   UNK     0       2.747  13.180  91.865  0.00  0.00     0.207 C 
BRANCH  26  27
HETATM   27  C   UNK     0       2.764  13.947  93.193  0.00  0.00     0.146 C 
HETATM   28  C   UNK     0       4.049  13.720  93.982  0.00  0.00     0.042 C 
BRANCH  27  29
HETATM   29  O   UNK     0       2.617  15.344  92.939  0.00  0.00    -0.393 OA
HETATM   30  H   UNK     0       3.453  15.676  92.571  0.00  0.00     0.210 HD
ENDBRANCH  27  29
ENDBRANCH  26  27
BRANCH  26  31
HETATM   31  C   UNK     0       2.950  14.118  90.680  0.00  0.00     0.266 C 
HETATM   32  O   UNK     0       2.023  14.522  89.979  0.00  0.00    -0.269 OA
HETATM   33  N   UNK     0       4.275  14.416  90.474  0.00  0.00    -0.236 N 
HETATM   34  H   UNK     0       5.068  14.031  90.974  0.00  0.00     0.197 HD
BRANCH  33  35
HETATM   35  O   UNK     0       4.551  15.244  89.377  0.00  0.00    -0.287 OA
HETATM   36  H   UNK     0       4.124  14.739  88.665  0.00  0.00     0.244 HD
ENDBRANCH  33  35
ENDBRANCH  26  31
ENDBRANCH  24  26
ENDBRANCH  19  22
ENDBRANCH  15  16
ENDBRANCH  11  14
ENDBRANCH   7   8
ENDBRANCH   2   7
TORSDOF 10
ENDMDL
MODEL 3
REMARK VINA RESULT:      -6.2      1.886      2.967
REMARK  10 active torsions:
REMARK  status: ('A' for Active; 'I' for Inactive)
REMARK    1  A    between atoms: O_2  and  C_18 
REMARK    2  A    between atoms: O_5  and  N_8 
REMARK    3  A    between atoms: N_6  and  C_11 
REMARK    4  A    between atoms: N_7  and  C_15 
REMARK       I    between atoms: N_7  and  C_24 
REMARK       I    between atoms: N_8  and  C_23 
REMARK    5  A    between atoms: C_11  and  C_14 
REMARK    6  A    between atoms: C_15  and  C_18 
REMARK    7  A    between atoms: C_15  and  C_23 
REMARK    8  A    between atoms: C_21  and  C_26 
REMARK    9  A    between atoms: C_24  and  C_25 
REMARK   10  A    between atoms: C_29  and  C_32 
ROOT
HETATM    1  O   UNK     0      16.256   3.734  94.124  0.00  0.00    -0.388 OA
HETATM    2  N   UNK     0      14.255   2.534  92.495  0.00  0.00     0.096 N 
HETATM    3  C   UNK     0      14.373   3.994  92.615  0.00  0.00     0.299 C 
HETATM    4  C   UNK     0      14.735   1.887  93.723  0.00  0.00     0.299 C 
HETATM    5  C   UNK     0      15.821   4.371  92.921  0.00  0.00     0.198 C 
HETATM    6  C   UNK     0      16.173   2.314  94.004  0.00  0.00     0.198 C 
ENDROOT
BRANCH   2   7
HETATM    7  C   UNK     0      12.873   2.148  92.212  0.00  0.00     0.311 C 
BRANCH   7   8
HETATM    8  C   UNK     0      11.942   3.312  92.238  0.00  0.00    -0.030 A 
HETATM    9  C   UNK     0      11.352   3.759  91.055  0.00  0.00     0.010 A 
HETATM   10  C   UNK     0      10.483   4.849  91.077  0.00  0.00     0.021 A 
HETATM   11  C   UNK     0      10.202   5.491  92.283  0.00  0.00     0.018 A 
HETATM   12  C   UNK     0      10.790   5.046  93.465  0.00  0.00     0.021 A 
HETATM   13  C   UNK     0      11.661   3.956  93.443  0.00  0.00     0.010 A 
BRANCH  11  14
HETATM   14  C   UNK     0       9.308   6.608  92.307  0.00  0.00    -0.061 C 
HETATM   15  C   UNK     0       8.557   7.546  92.327  0.00  0.00    -0.061 C 
BRANCH  15  16
HETATM   16  C   UNK     0       7.663   8.661  92.350  0.00  0.00     0.018 A 
HETATM   17  C   UNK     0       7.129   9.150  91.157  0.00  0.00     0.022 A 
HETATM   18  C   UNK     0       6.255  10.237  91.179  0.00  0.00     0.018 A 
HETATM   19  C   UNK     0       5.934  10.810  92.392  0.00  0.00     0.032 A 
HETATM   20  C   UNK     0       6.449  10.346  93.584  0.00  0.00     0.018 A 
HETATM   21  C   UNK     0       7.324   9.260  93.563  0.00  0.00     0.022 A 
BRANCH  19  22
HETATM   22  C   UNK     0       5.005  11.969  92.414  0.00  0.00     0.252 C 
HETATM   23  O   UNK     0       4.486  12.302  93.478  0.00  0.00    -0.268 OA
HETATM   24  N   UNK     0       4.810  12.616  91.202  0.00  0.00    -0.341 N 
HETATM   25  H   UNK     0       5.293  12.300  90.369  0.00  0.00     0.163 HD
BRANCH  24  26
HETATM   26  C   UNK     0       3.958  13.770  91.067  0.00  0.00     0.207 C 
BRANCH  26  27
HETATM   27  C   UNK     0       3.693  14.144  89.603  0.00  0.00     0.146 C 
HETATM   28  C   UNK     0       4.894  14.817  88.946  0.00  0.00     0.042 C 
BRANCH  27  29
HETATM   29  O   UNK     0       3.357  12.971  88.864  0.00  0.00    -0.393 OA
HETATM   30  H   UNK     0       2.389  12.918  88.800  0.00  0.00     0.210 HD
ENDBRANCH  27  29
ENDBRANCH  26  27
BRANCH  26  31
HETATM   31  C   UNK     0       2.658  13.479  91.809  0.00  0.00     0.266 C 
HETATM   32  O   UNK     0       1.805  12.701  91.385  0.00  0.00    -0.269 OA
HETATM   33  N   UNK     0       2.545  14.210  92.966  0.00  0.00    -0.236 N 
HETATM   34  H   UNK     0       3.184  14.923  93.298  0.00  0.00     0.197 HD
BRANCH  33  35
HETATM   35  O   UNK     0       1.358  14.028  93.690  0.00  0.00    -0.287 OA
HETATM   36  H   UNK     0       1.656  13.384  94.355  0.00  0.00     0.244 HD
ENDBRANCH  33  35
ENDBRANCH  26  31
ENDBRANCH  24  26
ENDBRANCH  19  22
ENDBRANCH  15  16
ENDBRANCH  11  14
ENDBRANCH   7   8
ENDBRANCH   2   7
TORSDOF 10
ENDMDL
MODEL 4
REMARK VINA RESULT:      -5.7      1.753      2.244
REMARK  10 active torsions:
REMARK  status: ('A' for Active; 'I' for Inactive)
REMARK    1  A    between atoms: O_2  and  C_18 
REMARK    2  A    between atoms: O_5  and  N_8 
REMARK    3  A    between atoms: N_6  and  C_11 
REMARK    4  A    between atoms: N_7  and  C_15 
REMARK       I    between atoms: N_7  and  C_24 
REMARK       I    between atoms: N_8  and  C_23 
REMARK    5  A    between atoms: C_11  and  C_14 
REMARK    6  A    between atoms: C_15  and  C_18 
REMARK    7  A    between atoms: C_15  and  C_23 
REMARK    8  A    between atoms: C_21  and  C_26 
REMARK    9  A    between atoms: C_24  and  C_25 
REMARK   10  A    between atoms: C_29  and  C_32 
ROOT
HETATM    1  O   UNK     0      15.667   4.512  92.977  0.00  0.00    -0.388 OA
HETATM    2  N   UNK     0      13.686   2.646  92.143  0.00  0.00     0.096 N 
HETATM    3  C   UNK     0      13.743   4.005  91.587  0.00  0.00     0.299 C 
HETATM    4  C   UNK     0      14.221   2.639  93.511  0.00  0.00     0.299 C 
HETATM    5  C   UNK     0      15.178   4.523  91.634  0.00  0.00     0.198 C 
HETATM    6  C   UNK     0      15.644   3.189  93.514  0.00  0.00     0.198 C 
ENDROOT
BRANCH   2   7
HETATM    7  C   UNK     0      12.318   2.133  92.117  0.00  0.00     0.311 C 
BRANCH   7   8
HETATM    8  C   UNK     0      11.304   3.223  92.038  0.00  0.00    -0.030 A 
HETATM    9  C   UNK     0      10.502   3.347  90.903  0.00  0.00     0.010 A 
HETATM   10  C   UNK     0       9.554   4.368  90.826  0.00  0.00     0.021 A 
HETATM   11  C   UNK     0       9.408   5.262  91.886  0.00  0.00     0.018 A 
HETATM   12  C   UNK     0      10.209   5.139  93.020  0.00  0.00     0.021 A 
HETATM   13  C   UNK     0      11.157   4.119  93.096  0.00  0.00     0.010 A 
BRANCH  11  14
HETATM   14  C   UNK     0       8.435   6.308  91.809  0.00  0.00    -0.061 C 
HETATM   15  C   UNK     0       7.617   7.187  91.744  0.00  0.00    -0.061 C 
BRANCH  15  16
HETATM   16  C   UNK     0       6.644   8.231  91.667  0.00  0.00     0.018 A 
HETATM   17  C   UNK     0       6.922   9.484  92.214  0.00  0.00     0.022 A 
HETATM   18  C   UNK     0       5.973  10.504  92.137  0.00  0.00     0.018 A 
HETATM   19  C   UNK     0       4.769  10.248  91.516  0.00  0.00     0.032 A 
HETATM   20  C   UNK     0       4.470   9.019  90.968  0.00  0.00     0.018 A 
HETATM   21  C   UNK     0       5.418   7.998  91.045  0.00  0.00     0.022 A 
BRANCH  19  22
HETATM   22  C   UNK     0       3.758  11.334  91.436  0.00  0.00     0.252 C 
HETATM   23  O   UNK     0       2.647  11.087  90.973  0.00  0.00    -0.268 OA
HETATM   24  N   UNK     0       4.154  12.571  91.928  0.00  0.00    -0.341 N 
HETATM   25  H   UNK     0       5.080  12.694  92.319  0.00  0.00     0.163 HD
BRANCH  24  26
HETATM   26  C   UNK     0       3.279  13.715  91.942  0.00  0.00     0.207 C 
BRANCH  26  27
HETATM   27  C   UNK     0       3.595  14.689  93.084  0.00  0.00     0.146 C 
HETATM   28  C   UNK     0       2.337  15.241  93.746  0.00  0.00     0.042 C 
BRANCH  27  29
HETATM   29  O   UNK     0       4.385  14.027  94.071  0.00  0.00    -0.393 OA
HETATM   30  H   UNK     0       5.022  14.667  94.431  0.00  0.00     0.210 HD
ENDBRANCH  27  29
ENDBRANCH  26  27
BRANCH  26  31
HETATM   31  C   UNK     0       3.386  14.401  90.584  0.00  0.00     0.266 C 
HETATM   32  O   UNK     0       2.483  14.377  89.749  0.00  0.00    -0.269 OA
HETATM   33  N   UNK     0       4.607  15.002  90.400  0.00  0.00    -0.236 N 
HETATM   34  H   UNK     0       5.402  14.964  91.028  0.00  0.00     0.197 HD
BRANCH  33  35
HETATM   35  O   UNK     0       4.801  15.623  89.158  0.00  0.00    -0.287 OA
HETATM   36  H   UNK     0       3.878  15.774  88.893  0.00  0.00     0.244 HD
ENDBRANCH  33  35
ENDBRANCH  26  31
ENDBRANCH  24  26
ENDBRANCH  19  22
ENDBRANCH  15  16
ENDBRANCH  11  14
ENDBRANCH   7   8
ENDBRANCH   2   7
TORSDOF 10
ENDMDL
MODEL 5
REMARK VINA RESULT:      -5.5      2.665     12.770
REMARK  10 active torsions:
REMARK  status: ('A' for Active; 'I' for Inactive)
REMARK    1  A    between atoms: O_2  and  C_18 
REMARK    2  A    between atoms: O_5  and  N_8 
REMARK    3  A    between atoms: N_6  and  C_11 
REMARK    4  A    between atoms: N_7  and  C_15 
REMARK       I    between atoms: N_7  and  C_24 
REMARK       I    between atoms: N_8  and  C_23 
REMARK    5  A    between atoms: C_11  and  C_14 
REMARK    6  A    between atoms: C_15  and  C_18 
REMARK    7  A    between atoms: C_15  and  C_23 
REMARK    8  A    between atoms: C_21  and  C_26 
REMARK    9  A    between atoms: C_24  and  C_25 
REMARK   10  A    between atoms: C_29  and  C_32 
ROOT
HETATM    1  O   UNK     0       2.025  15.561  93.260  0.00  0.00    -0.388 OA
HETATM    2  N   UNK     0       3.518  13.556  91.898  0.00  0.00     0.096 N 
HETATM    3  C   UNK     0       3.981  14.950  91.959  0.00  0.00     0.299 C 
HETATM    4  C   UNK     0       2.052  13.509  91.965  0.00  0.00     0.299 C 
HETATM    5  C   UNK     0       3.453  15.615  93.228  0.00  0.00     0.198 C 
HETATM    6  C   UNK     0       1.569  14.208  93.233  0.00  0.00     0.198 C 
ENDROOT
BRANCH   2   7
HETATM    7  C   UNK     0       4.004  12.902  90.685  0.00  0.00     0.311 C 
BRANCH   7   8
HETATM    8  C   UNK     0       4.967  11.802  90.978  0.00  0.00    -0.030 A 
HETATM    9  C   UNK     0       5.303  11.506  92.300  0.00  0.00     0.010 A 
HETATM   10  C   UNK     0       6.206  10.479  92.576  0.00  0.00     0.021 A 
HETATM   11  C   UNK     0       6.769   9.748  91.530  0.00  0.00     0.018 A 
HETATM   12  C   UNK     0       6.433  10.043  90.211  0.00  0.00     0.021 A 
HETATM   13  C   UNK     0       5.532  11.070  89.934  0.00  0.00     0.010 A 
BRANCH  11  14
HETATM   14  C   UNK     0       7.693   8.692  91.814  0.00  0.00    -0.061 C 
HETATM   15  C   UNK     0       8.469   7.806  92.052  0.00  0.00    -0.061 C 
BRANCH  15  16
HETATM   16  C   UNK     0       9.391   6.751  92.335  0.00  0.00     0.018 A 
HETATM   17  C   UNK     0       9.640   5.768  91.377  0.00  0.00     0.022 A 
HETATM   18  C   UNK     0      10.542   4.739  91.653  0.00  0.00     0.018 A 
HETATM   19  C   UNK     0      11.174   4.717  92.878  0.00  0.00     0.032 A 
HETATM   20  C   UNK     0      10.945   5.677  93.842  0.00  0.00     0.018 A 
HETATM   21  C   UNK     0      10.043   6.705  93.567  0.00  0.00     0.022 A 
BRANCH  19  22
HETATM   22  C   UNK     0      12.132   3.621  93.172  0.00  0.00     0.252 C 
HETATM   23  O   UNK     0      11.825   2.465  92.892  0.00  0.00    -0.268 OA
HETATM   24  N   UNK     0      13.342   4.005  93.733  0.00  0.00    -0.341 N 
HETATM   25  H   UNK     0      13.536   4.983  93.914  0.00  0.00     0.163 HD
BRANCH  24  26
HETATM   26  C   UNK     0      14.383   3.061  94.053  0.00  0.00     0.207 C 
BRANCH  26  27
HETATM   27  C   UNK     0      14.327   1.798  93.184  0.00  0.00     0.146 C 
HETATM   28  C   UNK     0      15.186   1.913  91.930  0.00  0.00     0.042 C 
BRANCH  27  29
HETATM   29  O   UNK     0      14.767   0.675  93.946  0.00  0.00    -0.393 OA
HETATM   30  H   UNK     0      13.993   0.281  94.384  0.00  0.00     0.210 HD
ENDBRANCH  27  29
ENDBRANCH  26  27
BRANCH  26  31
HETATM   31  C   UNK     0      15.722   3.777  93.905  0.00  0.00     0.266 C 
HETATM   32  O   UNK     0      15.817   4.962  93.590  0.00  0.00    -0.269 OA
HETATM   33  N   UNK     0      16.787   2.937  94.124  0.00  0.00    -0.236 N 
HETATM   34  H   UNK     0      16.747   1.939  94.296  0.00  0.00     0.197 HD
BRANCH  33  35
HETATM   35  O   UNK     0      18.057   3.509  93.969  0.00  0.00    -0.287 OA
HETATM   36  H   UNK     0      18.534   2.767  93.559  0.00  0.00     0.244 HD
ENDBRANCH  33  35
ENDBRANCH  26  31
ENDBRANCH  24  26
ENDBRANCH  19  22
ENDBRANCH  15  16
ENDBRANCH  11  14
ENDBRANCH   7   8
ENDBRANCH   2   7
TORSDOF 10
ENDMDL
MODEL 6
REMARK VINA RESULT:      -5.4      2.898     12.266
REMARK  10 active torsions:
REMARK  status: ('A' for Active; 'I' for Inactive)
REMARK    1  A    between atoms: O_2  and  C_18 
REMARK    2  A    between atoms: O_5  and  N_8 
REMARK    3  A    between atoms: N_6  and  C_11 
REMARK    4  A    between atoms: N_7  and  C_15 
REMARK       I    between atoms: N_7  and  C_24 
REMARK       I    between atoms: N_8  and  C_23 
REMARK    5  A    between atoms: C_11  and  C_14 
REMARK    6  A    between atoms: C_15  and  C_18 
REMARK    7  A    between atoms: C_15  and  C_23 
REMARK    8  A    between atoms: C_21  and  C_26 
REMARK    9  A    between atoms: C_24  and  C_25 
REMARK   10  A    between atoms: C_29  and  C_32 
ROOT
HETATM    1  O   UNK     0       2.721  14.260  94.097  0.00  0.00    -0.388 OA
HETATM    2  N   UNK     0       2.634  14.469  91.260  0.00  0.00     0.096 N 
HETATM    3  C   UNK     0       1.784  13.515  91.986  0.00  0.00     0.299 C 
HETATM    4  C   UNK     0       3.873  14.712  92.010  0.00  0.00     0.299 C 
HETATM    5  C   UNK     0       1.499  14.042  93.390  0.00  0.00     0.198 C 
HETATM    6  C   UNK     0       3.539  15.210  93.413  0.00  0.00     0.198 C 
ENDROOT
BRANCH   2   7
HETATM    7  C   UNK     0       2.930  13.979  89.914  0.00  0.00     0.311 C 
BRANCH   7   8
HETATM    8  C   UNK     0       3.935  12.878  89.918  0.00  0.00    -0.030 A 
HETATM    9  C   UNK     0       3.690  11.714  90.648  0.00  0.00     0.010 A 
HETATM   10  C   UNK     0       4.631  10.685  90.654  0.00  0.00     0.021 A 
HETATM   11  C   UNK     0       5.815  10.819  89.930  0.00  0.00     0.018 A 
HETATM   12  C   UNK     0       6.060  11.980  89.201  0.00  0.00     0.021 A 
HETATM   13  C   UNK     0       5.120  13.011  89.195  0.00  0.00     0.010 A 
BRANCH  11  14
HETATM   14  C   UNK     0       6.779   9.762  89.935  0.00  0.00    -0.061 C 
HETATM   15  C   UNK     0       7.589   8.873  89.939  0.00  0.00    -0.061 C 
BRANCH  15  16
HETATM   16  C   UNK     0       8.550   7.816  89.943  0.00  0.00     0.018 A 
HETATM   17  C   UNK     0       9.376   7.621  88.835  0.00  0.00     0.022 A 
HETATM   18  C   UNK     0      10.316   6.590  88.840  0.00  0.00     0.018 A 
HETATM   19  C   UNK     0      10.411   5.780  89.952  0.00  0.00     0.032 A 
HETATM   20  C   UNK     0       9.607   5.952  91.059  0.00  0.00     0.018 A 
HETATM   21  C   UNK     0       8.666   6.981  91.054  0.00  0.00     0.022 A 
BRANCH  19  22
HETATM   22  C   UNK     0      11.412   4.681  89.956  0.00  0.00     0.252 C 
HETATM   23  O   UNK     0      11.593   4.031  88.929  0.00  0.00    -0.268 OA
HETATM   24  N   UNK     0      12.098   4.488  91.147  0.00  0.00    -0.341 N 
HETATM   25  H   UNK     0      11.912   5.081  91.948  0.00  0.00     0.163 HD
BRANCH  24  26
HETATM   26  C   UNK     0      13.115   3.480  91.301  0.00  0.00     0.207 C 
BRANCH  26  27
HETATM   27  C   UNK     0      14.333   3.980  92.088  0.00  0.00     0.146 C 
HETATM   28  C   UNK     0      13.998   4.303  93.540  0.00  0.00     0.042 C 
BRANCH  27  29
HETATM   29  O   UNK     0      15.360   2.990  92.059  0.00  0.00    -0.393 OA
HETATM   30  H   UNK     0      16.060   3.258  92.678  0.00  0.00     0.210 HD
ENDBRANCH  27  29
ENDBRANCH  26  27
BRANCH  26  31
HETATM   31  C   UNK     0      12.475   2.272  91.979  0.00  0.00     0.266 C 
HETATM   32  O   UNK     0      13.079   1.221  92.183  0.00  0.00    -0.269 OA
HETATM   33  N   UNK     0      11.155   2.491  92.289  0.00  0.00    -0.236 N 
HETATM   34  H   UNK     0      10.604   3.308  92.056  0.00  0.00     0.197 HD
BRANCH  33  35
HETATM   35  O   UNK     0      10.481   1.413  92.882  0.00  0.00    -0.287 OA
HETATM   36  H   UNK     0      10.055   1.865  93.630  0.00  0.00     0.244 HD
ENDBRANCH  33  35
ENDBRANCH  26  31
ENDBRANCH  24  26
ENDBRANCH  19  22
ENDBRANCH  15  16
ENDBRANCH  11  14
ENDBRANCH   7   8
ENDBRANCH   2   7
TORSDOF 10
ENDMDL
MODEL 7
REMARK VINA RESULT:      -4.6      2.413     12.470
REMARK  10 active torsions:
REMARK  status: ('A' for Active; 'I' for Inactive)
REMARK    1  A    between atoms: O_2  and  C_18 
REMARK    2  A    between atoms: O_5  and  N_8 
REMARK    3  A    between atoms: N_6  and  C_11 
REMARK    4  A    between atoms: N_7  and  C_15 
REMARK       I    between atoms: N_7  and  C_24 
REMARK       I    between atoms: N_8  and  C_23 
REMARK    5  A    between atoms: C_11  and  C_14 
REMARK    6  A    between atoms: C_15  and  C_18 
REMARK    7  A    between atoms: C_15  and  C_23 
REMARK    8  A    between atoms: C_21  and  C_26 
REMARK    9  A    between atoms: C_24  and  C_25 
REMARK   10  A    between atoms: C_29  and  C_32 
ROOT
HETATM    1  O   UNK     0       4.080  14.602  89.445  0.00  0.00    -0.388 OA
HETATM    2  N   UNK     0       3.176  14.047  92.086  0.00  0.00     0.096 N 
HETATM    3  C   UNK     0       4.545  14.513  91.826  0.00  0.00     0.299 C 
HETATM    4  C   UNK     0       2.670  13.298  90.928  0.00  0.00     0.299 C 
HETATM    5  C   UNK     0       4.569  15.358  90.554  0.00  0.00     0.198 C 
HETATM    6  C   UNK     0       2.739  14.171  89.678  0.00  0.00     0.198 C 
ENDROOT
BRANCH   2   7
HETATM    7  C   UNK     0       3.130  13.226  93.295  0.00  0.00     0.311 C 
BRANCH   7   8
HETATM    8  C   UNK     0       4.116  12.108  93.260  0.00  0.00    -0.030 A 
HETATM    9  C   UNK     0       3.798  10.920  92.600  0.00  0.00     0.010 A 
HETATM   10  C   UNK     0       4.718   9.872  92.568  0.00  0.00     0.021 A 
HETATM   11  C   UNK     0       5.956  10.014  93.194  0.00  0.00     0.018 A 
HETATM   12  C   UNK     0       6.274  11.200  93.853  0.00  0.00     0.021 A 
HETATM   13  C   UNK     0       5.354  12.247  93.886  0.00  0.00     0.010 A 
BRANCH  11  14
HETATM   14  C   UNK     0       6.901   8.940  93.160  0.00  0.00    -0.061 C 
HETATM   15  C   UNK     0       7.695   8.038  93.131  0.00  0.00    -0.061 C 
BRANCH  15  16
HETATM   16  C   UNK     0       8.639   6.966  93.097  0.00  0.00     0.018 A 
HETATM   17  C   UNK     0       9.775   7.013  93.906  0.00  0.00     0.022 A 
HETATM   18  C   UNK     0      10.697   5.966  93.875  0.00  0.00     0.018 A 
HETATM   19  C   UNK     0      10.462   4.896  93.037  0.00  0.00     0.032 A 
HETATM   20  C   UNK     0       9.348   4.826  92.227  0.00  0.00     0.018 A 
HETATM   21  C   UNK     0       8.427   5.873  92.257  0.00  0.00     0.022 A 
BRANCH  19  22
HETATM   22  C   UNK     0      11.445   3.782  93.002  0.00  0.00     0.252 C 
HETATM   23  O   UNK     0      11.046   2.636  92.811  0.00  0.00    -0.268 OA
HETATM   24  N   UNK     0      12.776   4.140  93.170  0.00  0.00    -0.341 N 
HETATM   25  H   UNK     0      13.033   5.111  93.298  0.00  0.00     0.163 HD
BRANCH  24  26
HETATM   26  C   UNK     0      13.847   3.178  93.137  0.00  0.00     0.207 C 
BRANCH  26  27
HETATM   27  C   UNK     0      14.102   2.620  91.731  0.00  0.00     0.146 C 
HETATM   28  C   UNK     0      13.887   3.665  90.641  0.00  0.00     0.042 C 
BRANCH  27  29
HETATM   29  O   UNK     0      15.439   2.130  91.646  0.00  0.00    -0.393 OA
HETATM   30  H   UNK     0      15.937   2.469  92.409  0.00  0.00     0.210 HD
ENDBRANCH  27  29
ENDBRANCH  26  27
BRANCH  26  31
HETATM   31  C   UNK     0      15.095   3.850  93.700  0.00  0.00     0.266 C 
HETATM   32  O   UNK     0      15.103   5.009  94.111  0.00  0.00    -0.269 OA
HETATM   33  N   UNK     0      16.194   3.027  93.655  0.00  0.00    -0.236 N 
HETATM   34  H   UNK     0      16.243   2.103  93.242  0.00  0.00     0.197 HD
BRANCH  33  35
HETATM   35  O   UNK     0      17.393   3.584  94.120  0.00  0.00    -0.287 OA
HETATM   36  H   UNK     0      17.846   2.784  94.436  0.00  0.00     0.244 HD
ENDBRANCH  33  35
ENDBRANCH  26  31
ENDBRANCH  24  26
ENDBRANCH  19  22
ENDBRANCH  15  16
ENDBRANCH  11  14
ENDBRANCH   7   8
ENDBRANCH   2   7
TORSDOF 10
ENDMDL
MODEL 8
REMARK VINA RESULT:      -4.3      1.931     12.436
REMARK  10 active torsions:
REMARK  status: ('A' for Active; 'I' for Inactive)
REMARK    1  A    between atoms: O_2  and  C_18 
REMARK    2  A    between atoms: O_5  and  N_8 
REMARK    3  A    between atoms: N_6  and  C_11 
REMARK    4  A    between atoms: N_7  and  C_15 
REMARK       I    between atoms: N_7  and  C_24 
REMARK       I    between atoms: N_8  and  C_23 
REMARK    5  A    between atoms: C_11  and  C_14 
REMARK    6  A    between atoms: C_15  and  C_18 
REMARK    7  A    between atoms: C_15  and  C_23 
REMARK    8  A    between atoms: C_21  and  C_26 
REMARK    9  A    between atoms: C_24  and  C_25 
REMARK   10  A    between atoms: C_29  and  C_32 
ROOT
HETATM    1  O   UNK     0       5.379  14.538  88.406  0.00  0.00    -0.388 OA
HETATM    2  N   UNK     0       3.514  12.917  89.818  0.00  0.00     0.096 N 
HETATM    3  C   UNK     0       3.965  14.211  90.350  0.00  0.00     0.299 C 
HETATM    4  C   UNK     0       4.563  12.326  88.977  0.00  0.00     0.299 C 
HETATM    5  C   UNK     0       4.353  15.136  89.200  0.00  0.00     0.198 C 
HETATM    6  C   UNK     0       4.938  13.295  87.859  0.00  0.00     0.198 C 
ENDROOT
BRANCH   2   7
HETATM    7  C   UNK     0       3.147  12.010  90.905  0.00  0.00     0.311 C 
BRANCH   7   8
HETATM    8  C   UNK     0       4.192  10.978  91.160  0.00  0.00    -0.030 A 
HETATM    9  C   UNK     0       5.519  11.364  91.359  0.00  0.00     0.010 A 
HETATM   10  C   UNK     0       6.497  10.399  91.596  0.00  0.00     0.021 A 
HETATM   11  C   UNK     0       6.149   9.049  91.637  0.00  0.00     0.018 A 
HETATM   12  C   UNK     0       4.825   8.663  91.439  0.00  0.00     0.021 A 
HETATM   13  C   UNK     0       3.846   9.627  91.201  0.00  0.00     0.010 A 
BRANCH  11  14
HETATM   14  C   UNK     0       7.153   8.060  91.882  0.00  0.00    -0.061 C 
HETATM   15  C   UNK     0       7.997   7.229  92.089  0.00  0.00    -0.061 C 
BRANCH  15  16
HETATM   16  C   UNK     0       9.000   6.242  92.334  0.00  0.00     0.018 A 
HETATM   17  C   UNK     0       9.232   5.236  91.395  0.00  0.00     0.022 A 
HETATM   18  C   UNK     0      10.213   4.273  91.633  0.00  0.00     0.018 A 
HETATM   19  C   UNK     0      10.940   4.337  92.803  0.00  0.00     0.032 A 
HETATM   20  C   UNK     0      10.730   5.320  93.747  0.00  0.00     0.018 A 
HETATM   21  C   UNK     0       9.749   6.283  93.510  0.00  0.00     0.022 A 
BRANCH  19  22
HETATM   22  C   UNK     0      11.984   3.310  93.056  0.00  0.00     0.252 C 
HETATM   23  O   UNK     0      11.826   2.174  92.617  0.00  0.00    -0.268 OA
HETATM   24  N   UNK     0      13.096   3.737  93.769  0.00  0.00    -0.341 N 
HETATM   25  H   UNK     0      13.169   4.699  94.079  0.00  0.00     0.163 HD
BRANCH  24  26
HETATM   26  C   UNK     0      14.203   2.866  94.073  0.00  0.00     0.207 C 
BRANCH  26  27
HETATM   27  C   UNK     0      14.318   1.689  93.096  0.00  0.00     0.146 C 
HETATM   28  C   UNK     0      15.033   2.070  91.805  0.00  0.00     0.042 C 
BRANCH  27  29
HETATM   29  O   UNK     0      15.027   0.619  93.720  0.00  0.00    -0.393 OA
HETATM   30  H   UNK     0      15.557   0.168  93.041  0.00  0.00     0.210 HD
ENDBRANCH  27  29
ENDBRANCH  26  27
BRANCH  26  31
HETATM   31  C   UNK     0      15.473   3.710  94.077  0.00  0.00     0.266 C 
HETATM   32  O   UNK     0      15.461   4.938  94.009  0.00  0.00    -0.269 OA
HETATM   33  N   UNK     0      16.609   2.939  94.124  0.00  0.00    -0.236 N 
HETATM   34  H   UNK     0      16.657   1.927  94.090  0.00  0.00     0.197 HD
BRANCH  33  35
HETATM   35  O   UNK     0      17.823   3.639  94.092  0.00  0.00    -0.287 OA
HETATM   36  H   UNK     0      18.380   3.000  93.616  0.00  0.00     0.244 HD
ENDBRANCH  33  35
ENDBRANCH  26  31
ENDBRANCH  24  26
ENDBRANCH  19  22
ENDBRANCH  15  16
ENDBRANCH  11  14
ENDBRANCH   7   8
ENDBRANCH   2   7
TORSDOF 10
ENDMDL
MODEL 9
REMARK VINA RESULT:      -4.2      1.702     12.347
REMARK  10 active torsions:
REMARK  status: ('A' for Active; 'I' for Inactive)
REMARK    1  A    between atoms: O_2  and  C_18 
REMARK    2  A    between atoms: O_5  and  N_8 
REMARK    3  A    between atoms: N_6  and  C_11 
REMARK    4  A    between atoms: N_7  and  C_15 
REMARK       I    between atoms: N_7  and  C_24 
REMARK       I    between atoms: N_8  and  C_23 
REMARK    5  A    between atoms: C_11  and  C_14 
REMARK    6  A    between atoms: C_15  and  C_18 
REMARK    7  A    between atoms: C_15  and  C_23 
REMARK    8  A    between atoms: C_21  and  C_26 
REMARK    9  A    between atoms: C_24  and  C_25 
REMARK   10  A    between atoms: C_29  and  C_32 
ROOT
HETATM    1  O   UNK     0       4.788  14.304  89.378  0.00  0.00    -0.388 OA
HETATM    2  N   UNK     0       3.359  11.905  88.829  0.00  0.00     0.096 N 
HETATM    3  C   UNK     0       3.086  12.703  90.032  0.00  0.00     0.299 C 
HETATM    4  C   UNK     0       4.759  12.076  88.418  0.00  0.00     0.299 C 
HETATM    5  C   UNK     0       3.420  14.169  89.766  0.00  0.00     0.198 C 
HETATM    6  C   UNK     0       5.055  13.556  88.191  0.00  0.00     0.198 C 
ENDROOT
BRANCH   2   7
HETATM    7  C   UNK     0       3.056  10.494  89.064  0.00  0.00     0.311 C 
BRANCH   7   8
HETATM    8  C   UNK     0       4.267   9.706  89.427  0.00  0.00    -0.030 A 
HETATM    9  C   UNK     0       4.866   8.873  88.481  0.00  0.00     0.010 A 
HETATM   10  C   UNK     0       5.998   8.133  88.821  0.00  0.00     0.021 A 
HETATM   11  C   UNK     0       6.533   8.228  90.106  0.00  0.00     0.018 A 
HETATM   12  C   UNK     0       5.936   9.059  91.051  0.00  0.00     0.021 A 
HETATM   13  C   UNK     0       4.803   9.799  90.712  0.00  0.00     0.010 A 
BRANCH  11  14
HETATM   14  C   UNK     0       7.696   7.470  90.453  0.00  0.00    -0.061 C 
HETATM   15  C   UNK     0       8.673   6.834  90.746  0.00  0.00    -0.061 C 
BRANCH  15  16
HETATM   16  C   UNK     0       9.835   6.079  91.093  0.00  0.00     0.018 A 
HETATM   17  C   UNK     0      10.130   5.832  92.435  0.00  0.00     0.022 A 
HETATM   18  C   UNK     0      11.263   5.093  92.774  0.00  0.00     0.018 A 
HETATM   19  C   UNK     0      12.075   4.617  91.766  0.00  0.00     0.032 A 
HETATM   20  C   UNK     0      11.806   4.847  90.433  0.00  0.00     0.018 A 
HETATM   21  C   UNK     0      10.674   5.587  90.093  0.00  0.00     0.022 A 
BRANCH  19  22
HETATM   22  C   UNK     0      13.284   3.831  92.129  0.00  0.00     0.252 C 
HETATM   23  O   UNK     0      14.136   3.611  91.271  0.00  0.00    -0.268 OA
HETATM   24  N   UNK     0      13.366   3.418  93.451  0.00  0.00    -0.341 N 
HETATM   25  H   UNK     0      12.635   3.658  94.110  0.00  0.00     0.163 HD
BRANCH  24  26
HETATM   26  C   UNK     0      14.487   2.669  93.961  0.00  0.00     0.207 C 
BRANCH  26  27
HETATM   27  C   UNK     0      14.755   1.386  93.165  0.00  0.00     0.146 C 
HETATM   28  C   UNK     0      13.492   0.821  92.525  0.00  0.00     0.042 C 
BRANCH  27  29
HETATM   29  O   UNK     0      15.714   1.650  92.142  0.00  0.00    -0.393 OA
HETATM   30  H   UNK     0      15.651   2.590  91.900  0.00  0.00     0.210 HD
ENDBRANCH  27  29
ENDBRANCH  26  27
BRANCH  26  31
HETATM   31  C   UNK     0      15.703   3.590  93.956  0.00  0.00     0.266 C 
HETATM   32  O   UNK     0      16.857   3.175  94.048  0.00  0.00    -0.269 OA
HETATM   33  N   UNK     0      15.350   4.915  93.876  0.00  0.00    -0.236 N 
HETATM   34  H   UNK     0      14.411   5.295  93.889  0.00  0.00     0.197 HD
BRANCH  33  35
HETATM   35  O   UNK     0      16.411   5.831  93.904  0.00  0.00    -0.287 OA
HETATM   36  H   UNK     0      16.759   5.723  93.002  0.00  0.00     0.244 HD
ENDBRANCH  33  35
ENDBRANCH  26  31
ENDBRANCH  24  26
ENDBRANCH  19  22
ENDBRANCH  15  16
ENDBRANCH  11  14
ENDBRANCH   7   8
ENDBRANCH   2   7
TORSDOF 10
ENDMDL
