MODEL 1
REMARK VINA RESULT:      -7.5      0.000      0.000
REMARK  9 active torsions:
REMARK  status: ('A' for Active; 'I' for Inactive)
REMARK    1  A    between atoms: N_3  and  C_6 
REMARK    2  A    between atoms: C_6  and  C_9 
REMARK    3  A    between atoms: C_14  and  C_17 
REMARK       I    between atoms: N_26  and  C_15 
REMARK    4  A    between atoms: C_15  and  C_16 
REMARK    5  A    between atoms: C_20  and  C_23 
REMARK    6  A    between atoms: OG1_24  and  CB_28 
REMARK    7  A    between atoms: N_26  and  CA_27 
REMARK    8  A    between atoms: CA_27  and  CB_28 
REMARK    9  A    between atoms: CA_27  and  C_30 
ROOT
HETATM    1  O   UNK A   0       1.807   8.022  87.857  1.00  0.00    -0.388 OA
HETATM    2  N   UNK A   0       4.606   7.538  87.683  1.00  0.00     0.096 N 
HETATM    3  C   UNK A   0       4.066   8.903  87.759  1.00  0.00     0.299 C 
HETATM    4  C   UNK A   0       3.631   6.645  87.042  1.00  0.00     0.299 C 
HETATM    5  C   UNK A   0       2.736   8.891  88.508  1.00  0.00     0.198 C 
HETATM    6  C   UNK A   0       2.311   6.687  87.807  1.00  0.00     0.198 C 
ENDROOT
BRANCH   2   7
HETATM    7  C   UNK A   0       5.877   7.524  86.959  1.00  0.00     0.311 C 
BRANCH   7   8
HETATM    8  C   UNK A   0       6.982   6.928  87.763  1.00  0.00    -0.030 A 
HETATM    9  C   UNK A   0       8.229   6.709  87.178  1.00  0.00     0.010 A 
HETATM   10  C   UNK A   0       9.263   6.150  87.928  1.00  0.00     0.021 A 
HETATM   11  C   UNK A   0       9.049   5.812  89.265  1.00  0.00     0.018 A 
HETATM   12  C   UNK A   0       7.804   6.031  89.850  1.00  0.00     0.021 A 
HETATM   13  C   UNK A   0       6.770   6.589  89.100  1.00  0.00     0.010 A 
BRANCH  11  14
HETATM   14  C   UNK A   0      10.111   5.240  90.035  1.00  0.00    -0.061 C 
HETATM   15  C   UNK A   0      11.003   4.760  90.682  1.00  0.00    -0.061 C 
BRANCH  15  16
HETATM   16  C   UNK A   0      12.064   4.190  91.453  1.00  0.00     0.018 A 
HETATM   17  C   UNK A   0      13.305   3.953  90.861  1.00  0.00     0.022 A 
HETATM   18  C   UNK A   0      14.340   3.399  91.613  1.00  0.00     0.018 A 
HETATM   19  C   UNK A   0      14.113   3.095  92.939  1.00  0.00     0.032 A 
HETATM   20  C   UNK A   0      12.895   3.319  93.547  1.00  0.00     0.018 A 
HETATM   21  C   UNK A   0      11.859   3.873  92.795  1.00  0.00     0.022 A 
BRANCH  19  22
HETATM   22  C   UNK A   0      15.216   2.503  93.740  1.00  0.00     0.252 C 
HETATM   23  O   UNK A   0      16.335   3.005  93.681  1.00  0.00    -0.268 OA
ENDBRANCH  19  22
ENDBRANCH  15  16
ENDBRANCH  11  14
ENDBRANCH   7   8
ENDBRANCH   2   7
TORSDOF 9
ENDMDL
MODEL 2
REMARK VINA RESULT:      -7.5      0.166      1.019
REMARK  9 active torsions:
REMARK  status: ('A' for Active; 'I' for Inactive)
REMARK    1  A    between atoms: N_3  and  C_6 
REMARK    2  A    between atoms: C_6  and  C_9 
REMARK    3  A    between atoms: C_14  and  C_17 
REMARK       I    between atoms: N_26  and  C_15 
REMARK    4  A    between atoms: C_15  and  C_16 
REMARK    5  A    between atoms: C_20  and  C_23 
REMARK    6  A    between atoms: OG1_24  and  CB_28 
REMARK    7  A    between atoms: N_26  and  CA_27 
REMARK    8  A    between atoms: CA_27  and  CB_28 
REMARK    9  A    between atoms: CA_27  and  C_30 
ROOT
HETATM    1  O   UNK A   0       1.954   8.012  87.803  1.00  0.00    -0.388 OA
HETATM    2  N   UNK A   0       4.756   7.528  87.675  1.00  0.00     0.096 N 
HETATM    3  C   UNK A   0       4.216   8.891  87.770  1.00  0.00     0.299 C 
HETATM    4  C   UNK A   0       3.793   6.650  86.996  1.00  0.00     0.299 C 
HETATM    5  C   UNK A   0       2.870   8.865  88.491  1.00  0.00     0.198 C 
HETATM    6  C   UNK A   0       2.458   6.677  87.734  1.00  0.00     0.198 C 
ENDROOT
BRANCH   2   7
HETATM    7  C   UNK A   0       6.041   7.527  86.978  1.00  0.00     0.311 C 
BRANCH   7   8
HETATM    8  C   UNK A   0       7.131   6.922  87.796  1.00  0.00    -0.030 A 
HETATM    9  C   UNK A   0       6.928   6.678  89.155  1.00  0.00     0.010 A 
HETATM   10  C   UNK A   0       7.948   6.113  89.921  1.00  0.00     0.021 A 
HETATM   11  C   UNK A   0       9.168   5.790  89.328  1.00  0.00     0.018 A 
HETATM   12  C   UNK A   0       9.371   6.033  87.971  1.00  0.00     0.021 A 
HETATM   13  C   UNK A   0       8.352   6.599  87.204  1.00  0.00     0.010 A 
BRANCH  11  14
HETATM   14  C   UNK A   0      10.213   5.209  90.113  1.00  0.00    -0.061 C 
HETATM   15  C   UNK A   0      11.090   4.720  90.774  1.00  0.00    -0.061 C 
BRANCH  15  16
HETATM   16  C   UNK A   0      12.134   4.139  91.560  1.00  0.00     0.018 A 
HETATM   17  C   UNK A   0      13.402   3.957  91.008  1.00  0.00     0.022 A 
HETATM   18  C   UNK A   0      14.421   3.392  91.775  1.00  0.00     0.018 A 
HETATM   19  C   UNK A   0      14.149   3.022  93.076  1.00  0.00     0.032 A 
HETATM   20  C   UNK A   0      12.904   3.191  93.644  1.00  0.00     0.018 A 
HETATM   21  C   UNK A   0      11.884   3.756  92.878  1.00  0.00     0.022 A 
BRANCH  19  22
HETATM   22  C   UNK A   0      15.234   2.419  93.892  1.00  0.00     0.252 C 
HETATM   23  O   UNK A   0      16.400   2.732  93.665  1.00  0.00    -0.268 OA
ENDBRANCH  19  22
ENDBRANCH  15  16
ENDBRANCH  11  14
ENDBRANCH   7   8
ENDBRANCH   2   7
TORSDOF 9
ENDMDL
MODEL 3
REMARK VINA RESULT:      -7.5      0.088      1.427
REMARK  9 active torsions:
REMARK  status: ('A' for Active; 'I' for Inactive)
REMARK    1  A    between atoms: N_3  and  C_6 
REMARK    2  A    between atoms: C_6  and  C_9 
REMARK    3  A    between atoms: C_14  and  C_17 
REMARK       I    between atoms: N_26  and  C_15 
REMARK    4  A    between atoms: C_15  and  C_16 
REMARK    5  A    between atoms: C_20  and  C_23 
REMARK    6  A    between atoms: OG1_24  and  CB_28 
REMARK    7  A    between atoms: N_26  and  CA_27 
REMARK    8  A    between atoms: CA_27  and  CB_28 
REMARK    9  A    between atoms: CA_27  and  C_30 
ROOT
HETATM    1  O   UNK A   0       1.769   8.052  87.862  1.00  0.00    -0.388 OA
HETATM    2  N   UNK A   0       4.571   7.580  87.699  1.00  0.00     0.096 N 
HETATM    3  C   UNK A   0       4.026   8.941  87.801  1.00  0.00     0.299 C 
HETATM    4  C   UNK A   0       3.603   6.699  87.031  1.00  0.00     0.299 C 
HETATM    5  C   UNK A   0       2.690   8.908  88.539  1.00  0.00     0.198 C 
HETATM    6  C   UNK A   0       2.277   6.720  87.786  1.00  0.00     0.198 C 
ENDROOT
BRANCH   2   7
HETATM    7  C   UNK A   0       5.847   7.585  86.985  1.00  0.00     0.311 C 
BRANCH   7   8
HETATM    8  C   UNK A   0       6.948   6.979  87.786  1.00  0.00    -0.030 A 
HETATM    9  C   UNK A   0       6.746   6.680  89.134  1.00  0.00     0.010 A 
HETATM   10  C   UNK A   0       7.777   6.115  89.885  1.00  0.00     0.021 A 
HETATM   11  C   UNK A   0       9.008   5.847  89.287  1.00  0.00     0.018 A 
HETATM   12  C   UNK A   0       9.210   6.145  87.941  1.00  0.00     0.021 A 
HETATM   13  C   UNK A   0       8.181   6.711  87.190  1.00  0.00     0.010 A 
BRANCH  11  14
HETATM   14  C   UNK A   0      10.064   5.265  90.057  1.00  0.00    -0.061 C 
HETATM   15  C   UNK A   0      10.951   4.775  90.704  1.00  0.00    -0.061 C 
BRANCH  15  16
HETATM   16  C   UNK A   0      12.006   4.193  91.473  1.00  0.00     0.018 A 
HETATM   17  C   UNK A   0      11.778   3.817  92.797  1.00  0.00     0.022 A 
HETATM   18  C   UNK A   0      12.807   3.246  93.546  1.00  0.00     0.018 A 
HETATM   19  C   UNK A   0      14.039   3.064  92.955  1.00  0.00     0.032 A 
HETATM   20  C   UNK A   0      14.291   3.427  91.649  1.00  0.00     0.018 A 
HETATM   21  C   UNK A   0      13.262   3.998  90.899  1.00  0.00     0.022 A 
BRANCH  19  22
HETATM   22  C   UNK A   0      15.136   2.457  93.754  1.00  0.00     0.252 C 
HETATM   23  O   UNK A   0      16.195   3.067  93.879  1.00  0.00    -0.268 OA
ENDBRANCH  19  22
ENDBRANCH  15  16
ENDBRANCH  11  14
ENDBRANCH   7   8
ENDBRANCH   2   7
TORSDOF 9
ENDMDL
MODEL 4
REMARK VINA RESULT:      -6.9      1.493      2.127
REMARK  9 active torsions:
REMARK  status: ('A' for Active; 'I' for Inactive)
REMARK    1  A    between atoms: N_3  and  C_6 
REMARK    2  A    between atoms: C_6  and  C_9 
REMARK    3  A    between atoms: C_14  and  C_17 
REMARK       I    between atoms: N_26  and  C_15 
REMARK    4  A    between atoms: C_15  and  C_16 
REMARK    5  A    between atoms: C_20  and  C_23 
REMARK    6  A    between atoms: OG1_24  and  CB_28 
REMARK    7  A    between atoms: N_26  and  CA_27 
REMARK    8  A    between atoms: CA_27  and  CB_28 
REMARK    9  A    between atoms: CA_27  and  C_30 
ROOT
HETATM    1  O   UNK A   0       2.755  11.211  89.663  1.00  0.00    -0.388 OA
HETATM    2  N   UNK A   0       4.572   9.234  88.720  1.00  0.00     0.096 N 
HETATM    3  C   UNK A   0       3.785  10.059  87.792  1.00  0.00     0.299 C 
HETATM    4  C   UNK A   0       3.846   9.069  89.986  1.00  0.00     0.299 C 
HETATM    5  C   UNK A   0       3.467  11.404  88.439  1.00  0.00     0.198 C 
HETATM    6  C   UNK A   0       3.526  10.436  90.581  1.00  0.00     0.198 C 
ENDROOT
BRANCH   2   7
HETATM    7  C   UNK A   0       4.880   7.935  88.124  1.00  0.00     0.311 C 
BRANCH   7   8
HETATM    8  C   UNK A   0       6.100   7.314  88.714  1.00  0.00    -0.030 A 
HETATM    9  C   UNK A   0       7.356   7.863  88.453  1.00  0.00     0.010 A 
HETATM   10  C   UNK A   0       8.499   7.282  89.003  1.00  0.00     0.021 A 
HETATM   11  C   UNK A   0       8.384   6.153  89.814  1.00  0.00     0.018 A 
HETATM   12  C   UNK A   0       7.130   5.605  90.075  1.00  0.00     0.021 A 
HETATM   13  C   UNK A   0       5.987   6.185  89.525  1.00  0.00     0.010 A 
BRANCH  11  14
HETATM   14  C   UNK A   0       9.556   5.558  90.380  1.00  0.00    -0.061 C 
HETATM   15  C   UNK A   0      10.540   5.058  90.856  1.00  0.00    -0.061 C 
BRANCH  15  16
HETATM   16  C   UNK A   0      11.711   4.463  91.421  1.00  0.00     0.018 A 
HETATM   17  C   UNK A   0      11.718   4.079  92.762  1.00  0.00     0.022 A 
HETATM   18  C   UNK A   0      12.860   3.496  93.313  1.00  0.00     0.018 A 
HETATM   19  C   UNK A   0      13.966   3.309  92.511  1.00  0.00     0.032 A 
HETATM   20  C   UNK A   0      13.984   3.681  91.183  1.00  0.00     0.018 A 
HETATM   21  C   UNK A   0      12.843   4.264  90.631  1.00  0.00     0.022 A 
BRANCH  19  22
HETATM   22  C   UNK A   0      15.182   2.690  93.099  1.00  0.00     0.252 C 
HETATM   23  O   UNK A   0      15.897   3.358  93.841  1.00  0.00    -0.268 OA
ENDBRANCH  19  22
ENDBRANCH  15  16
ENDBRANCH  11  14
ENDBRANCH   7   8
ENDBRANCH   2   7
TORSDOF 9
ENDMDL
MODEL 5
REMARK VINA RESULT:      -6.9      1.519      2.116
REMARK  9 active torsions:
REMARK  status: ('A' for Active; 'I' for Inactive)
REMARK    1  A    between atoms: N_3  and  C_6 
REMARK    2  A    between atoms: C_6  and  C_9 
REMARK    3  A    between atoms: C_14  and  C_17 
REMARK       I    between atoms: N_26  and  C_15 
REMARK    4  A    between atoms: C_15  and  C_16 
REMARK    5  A    between atoms: C_20  and  C_23 
REMARK    6  A    between atoms: OG1_24  and  CB_28 
REMARK    7  A    between atoms: N_26  and  CA_27 
REMARK    8  A    between atoms: CA_27  and  CB_28 
REMARK    9  A    between atoms: CA_27  and  C_30 
ROOT
HETATM    1  O   UNK A   0       4.906  11.273  88.734  1.00  0.00    -0.388 OA
HETATM    2  N   UNK A   0       5.297   8.454  88.712  1.00  0.00     0.096 N 
HETATM    3  C   UNK A   0       6.417   9.383  88.921  1.00  0.00     0.299 C 
HETATM    4  C   UNK A   0       4.260   9.093  87.891  1.00  0.00     0.299 C 
HETATM    5  C   UNK A   0       5.906  10.672  89.559  1.00  0.00     0.198 C 
HETATM    6  C   UNK A   0       3.801  10.388  88.552  1.00  0.00     0.198 C 
ENDROOT
BRANCH   2   7
HETATM    7  C   UNK A   0       5.762   7.215  88.092  1.00  0.00     0.311 C 
BRANCH   7   8
HETATM    8  C   UNK A   0       6.949   6.641  88.788  1.00  0.00    -0.030 A 
HETATM    9  C   UNK A   0       6.820   6.133  90.081  1.00  0.00     0.010 A 
HETATM   10  C   UNK A   0       7.930   5.598  90.734  1.00  0.00     0.021 A 
HETATM   11  C   UNK A   0       9.168   5.570  90.093  1.00  0.00     0.018 A 
HETATM   12  C   UNK A   0       9.298   6.076  88.802  1.00  0.00     0.021 A 
HETATM   13  C   UNK A   0       8.188   6.612  88.148  1.00  0.00     0.010 A 
BRANCH  11  14
HETATM   14  C   UNK A   0      10.306   5.019  90.762  1.00  0.00    -0.061 C 
HETATM   15  C   UNK A   0      11.264   4.557  91.324  1.00  0.00    -0.061 C 
BRANCH  15  16
HETATM   16  C   UNK A   0      12.401   4.007  91.994  1.00  0.00     0.018 A 
HETATM   17  C   UNK A   0      13.559   3.715  91.272  1.00  0.00     0.022 A 
HETATM   18  C   UNK A   0      14.670   3.181  91.926  1.00  0.00     0.018 A 
HETATM   19  C   UNK A   0      14.598   2.953  93.284  1.00  0.00     0.032 A 
HETATM   20  C   UNK A   0      13.465   3.233  94.019  1.00  0.00     0.018 A 
HETATM   21  C   UNK A   0      12.354   3.766  93.367  1.00  0.00     0.022 A 
BRANCH  19  22
HETATM   22  C   UNK A   0      15.781   2.383  93.980  1.00  0.00     0.252 C 
HETATM   23  O   UNK A   0      16.902   2.794  93.692  1.00  0.00    -0.268 OA
ENDBRANCH  19  22
ENDBRANCH  15  16
ENDBRANCH  11  14
ENDBRANCH   7   8
ENDBRANCH   2   7
TORSDOF 9
ENDMDL
MODEL 6
REMARK VINA RESULT:      -6.6      3.992     10.475
REMARK  9 active torsions:
REMARK  status: ('A' for Active; 'I' for Inactive)
REMARK    1  A    between atoms: N_3  and  C_6 
REMARK    2  A    between atoms: C_6  and  C_9 
REMARK    3  A    between atoms: C_14  and  C_17 
REMARK       I    between atoms: N_26  and  C_15 
REMARK    4  A    between atoms: C_15  and  C_16 
REMARK    5  A    between atoms: C_20  and  C_23 
REMARK    6  A    between atoms: OG1_24  and  CB_28 
REMARK    7  A    between atoms: N_26  and  CA_27 
REMARK    8  A    between atoms: CA_27  and  CB_28 
REMARK    9  A    between atoms: CA_27  and  C_30 
ROOT
HETATM    1  O   UNK A   0      14.585   3.349  92.125  1.00  0.00    -0.388 OA
HETATM    2  N   UNK A   0      11.871   4.186  92.311  1.00  0.00     0.096 N 
HETATM    3  C   UNK A   0      12.489   3.347  93.347  1.00  0.00     0.299 C 
HETATM    4  C   UNK A   0      12.511   3.934  91.012  1.00  0.00     0.299 C 
HETATM    5  C   UNK A   0      13.992   3.611  93.398  1.00  0.00     0.198 C 
HETATM    6  C   UNK A   0      14.012   4.182  91.117  1.00  0.00     0.198 C 
ENDROOT
BRANCH   2   7
HETATM    7  C   UNK A   0      10.432   3.942  92.237  1.00  0.00     0.311 C 
BRANCH   7   8
HETATM    8  C   UNK A   0       9.660   5.183  91.942  1.00  0.00    -0.030 A 
HETATM    9  C   UNK A   0       9.816   6.310  92.751  1.00  0.00     0.010 A 
HETATM   10  C   UNK A   0       9.093   7.470  92.478  1.00  0.00     0.021 A 
HETATM   11  C   UNK A   0       8.216   7.505  91.394  1.00  0.00     0.018 A 
HETATM   12  C   UNK A   0       8.059   6.381  90.586  1.00  0.00     0.021 A 
HETATM   13  C   UNK A   0       8.781   5.220  90.860  1.00  0.00     0.010 A 
BRANCH  11  14
HETATM   14  C   UNK A   0       7.475   8.696  91.113  1.00  0.00    -0.061 C 
HETATM   15  C   UNK A   0       6.854   9.698  90.875  1.00  0.00    -0.061 C 
BRANCH  15  16
HETATM   16  C   UNK A   0       6.114  10.888  90.593  1.00  0.00     0.018 A 
HETATM   17  C   UNK A   0       5.243  11.410  91.550  1.00  0.00     0.022 A 
HETATM   18  C   UNK A   0       4.523  12.573  91.275  1.00  0.00     0.018 A 
HETATM   19  C   UNK A   0       4.690  13.187  90.052  1.00  0.00     0.032 A 
HETATM   20  C   UNK A   0       5.544  12.690  89.089  1.00  0.00     0.018 A 
HETATM   21  C   UNK A   0       6.264  11.528  89.363  1.00  0.00     0.022 A 
BRANCH  19  22
HETATM   22  C   UNK A   0       3.922  14.425  89.759  1.00  0.00     0.252 C 
HETATM   23  O   UNK A   0       4.505  15.506  89.757  1.00  0.00    -0.268 OA
ENDBRANCH  19  22
ENDBRANCH  15  16
ENDBRANCH  11  14
ENDBRANCH   7   8
ENDBRANCH   2   7
TORSDOF 9
ENDMDL
MODEL 7
REMARK VINA RESULT:      -6.4      1.856      2.745
REMARK  9 active torsions:
REMARK  status: ('A' for Active; 'I' for Inactive)
REMARK    1  A    between atoms: N_3  and  C_6 
REMARK    2  A    between atoms: C_6  and  C_9 
REMARK    3  A    between atoms: C_14  and  C_17 
REMARK       I    between atoms: N_26  and  C_15 
REMARK    4  A    between atoms: C_15  and  C_16 
REMARK    5  A    between atoms: C_20  and  C_23 
REMARK    6  A    between atoms: OG1_24  and  CB_28 
REMARK    7  A    between atoms: N_26  and  CA_27 
REMARK    8  A    between atoms: CA_27  and  CB_28 
REMARK    9  A    between atoms: CA_27  and  C_30 
ROOT
HETATM    1  O   UNK A   0       2.422   9.498  88.031  1.00  0.00    -0.388 OA
HETATM    2  N   UNK A   0       3.891   8.016  89.967  1.00  0.00     0.096 N 
HETATM    3  C   UNK A   0       2.625   7.515  89.415  1.00  0.00     0.299 C 
HETATM    4  C   UNK A   0       3.898   9.486  89.956  1.00  0.00     0.299 C 
HETATM    5  C   UNK A   0       2.419   8.070  88.008  1.00  0.00     0.198 C 
HETATM    6  C   UNK A   0       3.661   9.994  88.538  1.00  0.00     0.198 C 
ENDROOT
BRANCH   2   7
HETATM    7  C   UNK A   0       4.104   7.505  91.320  1.00  0.00     0.311 C 
BRANCH   7   8
HETATM    8  C   UNK A   0       5.466   6.927  91.501  1.00  0.00    -0.030 A 
HETATM    9  C   UNK A   0       6.167   6.438  90.398  1.00  0.00     0.010 A 
HETATM   10  C   UNK A   0       7.441   5.895  90.566  1.00  0.00     0.021 A 
HETATM   11  C   UNK A   0       8.013   5.843  91.837  1.00  0.00     0.018 A 
HETATM   12  C   UNK A   0       7.314   6.331  92.939  1.00  0.00     0.021 A 
HETATM   13  C   UNK A   0       6.040   6.873  92.771  1.00  0.00     0.010 A 
BRANCH  11  14
HETATM   14  C   UNK A   0       9.320   5.288  92.009  1.00  0.00    -0.061 C 
HETATM   15  C   UNK A   0      10.419   4.821  92.153  1.00  0.00    -0.061 C 
BRANCH  15  16
HETATM   16  C   UNK A   0      11.726   4.266  92.324  1.00  0.00     0.018 A 
HETATM   17  C   UNK A   0      12.083   3.689  93.543  1.00  0.00     0.022 A 
HETATM   18  C   UNK A   0      13.357   3.146  93.709  1.00  0.00     0.018 A 
HETATM   19  C   UNK A   0      14.244   3.191  92.654  1.00  0.00     0.032 A 
HETATM   20  C   UNK A   0      13.915   3.756  91.439  1.00  0.00     0.018 A 
HETATM   21  C   UNK A   0      12.641   4.300  91.272  1.00  0.00     0.022 A 
BRANCH  19  22
HETATM   22  C   UNK A   0      15.601   2.614  92.832  1.00  0.00     0.252 C 
HETATM   23  O   UNK A   0      16.299   2.999  93.767  1.00  0.00    -0.268 OA
ENDBRANCH  19  22
ENDBRANCH  15  16
ENDBRANCH  11  14
ENDBRANCH   7   8
ENDBRANCH   2   7
TORSDOF 9
ENDMDL
MODEL 8
REMARK VINA RESULT:      -6.4      3.831     10.267
REMARK  9 active torsions:
REMARK  status: ('A' for Active; 'I' for Inactive)
REMARK    1  A    between atoms: N_3  and  C_6 
REMARK    2  A    between atoms: C_6  and  C_9 
REMARK    3  A    between atoms: C_14  and  C_17 
REMARK       I    between atoms: N_26  and  C_15 
REMARK    4  A    between atoms: C_15  and  C_16 
REMARK    5  A    between atoms: C_20  and  C_23 
REMARK    6  A    between atoms: OG1_24  and  CB_28 
REMARK    7  A    between atoms: N_26  and  CA_27 
REMARK    8  A    between atoms: CA_27  and  CB_28 
REMARK    9  A    between atoms: CA_27  and  C_30 
ROOT
HETATM    1  O   UNK A   0      14.046   2.847  92.781  1.00  0.00    -0.388 OA
HETATM    2  N   UNK A   0      11.959   4.020  91.242  1.00  0.00     0.096 N 
HETATM    3  C   UNK A   0      11.706   2.885  92.141  1.00  0.00     0.299 C 
HETATM    4  C   UNK A   0      13.343   3.974  90.751  1.00  0.00     0.299 C 
HETATM    5  C   UNK A   0      12.712   2.901  93.289  1.00  0.00     0.198 C 
HETATM    6  C   UNK A   0      14.310   3.963  91.930  1.00  0.00     0.198 C 
ENDROOT
BRANCH   2   7
HETATM    7  C   UNK A   0      11.012   4.018  90.128  1.00  0.00     0.311 C 
BRANCH   7   8
HETATM    8  C   UNK A   0      10.195   5.264  90.075  1.00  0.00    -0.030 A 
HETATM    9  C   UNK A   0       9.885   5.944  91.254  1.00  0.00     0.010 A 
HETATM   10  C   UNK A   0       9.119   7.109  91.206  1.00  0.00     0.021 A 
HETATM   11  C   UNK A   0       8.665   7.594  89.980  1.00  0.00     0.018 A 
HETATM   12  C   UNK A   0       8.975   6.916  88.802  1.00  0.00     0.021 A 
HETATM   13  C   UNK A   0       9.740   5.751  88.850  1.00  0.00     0.010 A 
BRANCH  11  14
HETATM   14  C   UNK A   0       7.882   8.790  89.931  1.00  0.00    -0.061 C 
HETATM   15  C   UNK A   0       7.223   9.794  89.890  1.00  0.00    -0.061 C 
BRANCH  15  16
HETATM   16  C   UNK A   0       6.440  10.990  89.842  1.00  0.00     0.018 A 
HETATM   17  C   UNK A   0       6.725  11.971  88.892  1.00  0.00     0.022 A 
HETATM   18  C   UNK A   0       5.959  13.136  88.843  1.00  0.00     0.018 A 
HETATM   19  C   UNK A   0       4.926  13.293  89.743  1.00  0.00     0.032 A 
HETATM   20  C   UNK A   0       4.625  12.338  90.691  1.00  0.00     0.018 A 
HETATM   21  C   UNK A   0       5.390  11.173  90.741  1.00  0.00     0.022 A 
BRANCH  19  22
HETATM   22  C   UNK A   0       4.112  14.535  89.692  1.00  0.00     0.252 C 
HETATM   23  O   UNK A   0       4.677  15.625  89.741  1.00  0.00    -0.268 OA
ENDBRANCH  19  22
ENDBRANCH  15  16
ENDBRANCH  11  14
ENDBRANCH   7   8
ENDBRANCH   2   7
TORSDOF 9
ENDMDL
MODEL 9
REMARK VINA RESULT:      -6.3      3.486      4.443
REMARK  9 active torsions:
REMARK  status: ('A' for Active; 'I' for Inactive)
REMARK    1  A    between atoms: N_3  and  C_6 
REMARK    2  A    between atoms: C_6  and  C_9 
REMARK    3  A    between atoms: C_14  and  C_17 
REMARK       I    between atoms: N_26  and  C_15 
REMARK    4  A    between atoms: C_15  and  C_16 
REMARK    5  A    between atoms: C_20  and  C_23 
REMARK    6  A    between atoms: OG1_24  and  CB_28 
REMARK    7  A    between atoms: N_26  and  CA_27 
REMARK    8  A    between atoms: CA_27  and  CB_28 
REMARK    9  A    between atoms: CA_27  and  C_30 
ROOT
HETATM    1  O   UNK A   0       4.160  15.144  90.254  1.00  0.00    -0.388 OA
HETATM    2  N   UNK A   0       4.930  12.505  89.516  1.00  0.00     0.096 N 
HETATM    3  C   UNK A   0       4.904  13.600  88.536  1.00  0.00     0.299 C 
HETATM    4  C   UNK A   0       3.937  12.749  90.570  1.00  0.00     0.299 C 
HETATM    5  C   UNK A   0       5.146  14.931  89.242  1.00  0.00     0.198 C 
HETATM    6  C   UNK A   0       4.200  14.100  91.228  1.00  0.00     0.198 C 
ENDROOT
BRANCH   2   7
HETATM    7  C   UNK A   0       4.690  11.219  88.862  1.00  0.00     0.311 C 
BRANCH   7   8
HETATM    8  C   UNK A   0       5.689  10.186  89.258  1.00  0.00    -0.030 A 
HETATM    9  C   UNK A   0       5.382   8.832  89.120  1.00  0.00     0.010 A 
HETATM   10  C   UNK A   0       6.315   7.864  89.492  1.00  0.00     0.021 A 
HETATM   11  C   UNK A   0       7.555   8.250  90.000  1.00  0.00     0.018 A 
HETATM   12  C   UNK A   0       7.862   9.602  90.138  1.00  0.00     0.021 A 
HETATM   13  C   UNK A   0       6.930  10.571  89.766  1.00  0.00     0.010 A 
BRANCH  11  14
HETATM   14  C   UNK A   0       8.512   7.257  90.379  1.00  0.00    -0.061 C 
HETATM   15  C   UNK A   0       9.317   6.422  90.697  1.00  0.00    -0.061 C 
BRANCH  15  16
HETATM   16  C   UNK A   0      10.274   5.430  91.076  1.00  0.00     0.018 A 
HETATM   17  C   UNK A   0      10.606   5.259  92.420  1.00  0.00     0.022 A 
HETATM   18  C   UNK A   0      11.538   4.289  92.789  1.00  0.00     0.018 A 
HETATM   19  C   UNK A   0      12.116   3.513  91.807  1.00  0.00     0.032 A 
HETATM   20  C   UNK A   0      11.805   3.662  90.472  1.00  0.00     0.018 A 
HETATM   21  C   UNK A   0      10.873   4.632  90.101  1.00  0.00     0.022 A 
BRANCH  19  22
HETATM   22  C   UNK A   0      13.110   2.481  92.201  1.00  0.00     0.252 C 
HETATM   23  O   UNK A   0      14.167   2.833  92.718  1.00  0.00    -0.268 OA
ENDBRANCH  19  22
ENDBRANCH  15  16
ENDBRANCH  11  14
ENDBRANCH   7   8
ENDBRANCH   2   7
TORSDOF 9
ENDMDL
