MODEL 1
REMARK VINA RESULT:      -6.2      0.000      0.000
REMARK  12 active torsions:
REMARK  status: ('A' for Active; 'I' for Inactive)
REMARK    1  A    between atoms: O_2  and  C_16 
REMARK    2  A    between atoms: N_5  and  C_9 
REMARK    3  A    between atoms: N_6  and  C_13 
REMARK       I    between atoms: N_6  and  C_22 
REMARK    4  A    between atoms: C_9  and  C_12 
REMARK    5  A    between atoms: C_13  and  C_16 
REMARK    6  A    between atoms: C_13  and  C_21 
REMARK    7  A    between atoms: C_19  and  C_24 
REMARK    8  A    between atoms: C_21  and  C_33 
REMARK    9  A    between atoms: C_22  and  C_23 
REMARK   10  A    between atoms: C_27  and  C_30 
REMARK   11  A    between atoms: C_33  and  C_34 
REMARK   12  A    between atoms: C_34  and  C_35 
ROOT
HETATM    1  O   UNL     1      16.838   3.738  93.839  1.00  0.00    -0.350 OA
HETATM    2  N   UNL     1      14.257   3.057  92.852  1.00  0.00     0.147 N 
HETATM    3  C   UNL     1      15.311   2.045  93.007  1.00  0.00     0.283 C 
HETATM    4  C   UNL     1      14.856   4.373  92.593  1.00  0.00     0.283 C 
HETATM    5  C   UNL     1      16.266   2.460  94.124  1.00  0.00     0.178 C 
HETATM    6  C   UNL     1      15.821   4.733  93.718  1.00  0.00     0.178 C 
ENDROOT
BRANCH   2   7
HETATM    7  C   UNL     1      13.336   2.685  91.780  1.00  0.00     0.277 C 
BRANCH   7   8
HETATM    8  C   UNL     1      12.170   3.609  91.686  1.00  0.00     0.011 A 
HETATM    9  C   UNL     1      11.417   3.898  92.825  1.00  0.00    -0.002 A 
HETATM   10  C   UNL     1      10.325   4.761  92.738  1.00  0.00     0.008 A 
HETATM   11  C   UNL     1       9.987   5.335  91.513  1.00  0.00     0.042 A 
HETATM   12  C   UNL     1      10.738   5.048  90.376  1.00  0.00     0.008 A 
HETATM   13  C   UNL     1      11.830   4.184  90.462  1.00  0.00    -0.002 A 
BRANCH  11  14
HETATM   14  C   UNL     1       8.867   6.222  91.425  1.00  0.00    -0.059 C 
HETATM   15  C   UNL     1       7.926   6.967  91.352  1.00  0.00    -0.059 C 
BRANCH  15  16
HETATM   16  C   UNL     1       6.808   7.853  91.264  1.00  0.00     0.042 A 
HETATM   17  C   UNL     1       6.902   9.146  91.781  1.00  0.00     0.008 A 
HETATM   18  C   UNL     1       5.811  10.011  91.693  1.00  0.00     0.005 A 
HETATM   19  C   UNL     1       4.653   9.566  91.091  1.00  0.00     0.056 A 
HETATM   20  C   UNL     1       4.536   8.293  90.572  1.00  0.00     0.005 A 
HETATM   21  C   UNL     1       5.625   7.427  90.660  1.00  0.00     0.008 A 
BRANCH  19  22
HETATM   22  C   UNL     1       3.492  10.488  90.999  1.00  0.00     0.254 C 
HETATM   23  O   UNL     1       2.494  10.135  90.375  1.00  0.00    -0.268 OA
HETATM   24  N   UNL     1       3.622  11.699  91.665  1.00  0.00    -0.335 N 
HETATM   25  HN  UNL     1       4.468  11.911  92.181  1.00  0.00     0.164 HD
BRANCH  24  26
HETATM   26  C   UNL     1       2.574  12.687  91.690  1.00  0.00     0.166 C 
BRANCH  26  27
HETATM   27  C   UNL     1       2.557  13.502  92.989  1.00  0.00     0.138 C 
HETATM   28  C   UNL     1       1.496  13.015  93.970  1.00  0.00     0.034 C 
BRANCH  27  29
HETATM   29  O   UNL     1       3.837  13.427  93.616  1.00  0.00    -0.383 OA
HETATM   30  H   UNL     1       3.756  13.781  94.518  1.00  0.00     0.210 HD
ENDBRANCH  27  29
ENDBRANCH  26  27
BRANCH  26  31
HETATM   31  C   UNL     1       2.754  13.588  90.473  1.00  0.00     0.181 C 
HETATM   32  O   UNL     1       1.870  14.333  90.054  1.00  0.00    -0.294 OA
BRANCH  31  33
HETATM   33  C   UNL     1       4.093  14.495  90.588  1.00  0.00     0.138 C 
BRANCH  33  34
HETATM   34  C   UNL     1       4.686  14.268  89.326  1.00  0.00     0.208 C 
HETATM   35  O   UNL     1       5.214  15.225  88.807  1.00  0.00    -0.289 OA
BRANCH  34  36
HETATM   36  C   UNL     1       5.025  13.099  88.702  1.00  0.00     0.194 C 
HETATM   37  O   UNL     1       6.254  12.433  88.635  1.00  0.00    -0.185 OA
ENDBRANCH  34  36
ENDBRANCH  33  34
ENDBRANCH  31  33
ENDBRANCH  26  31
ENDBRANCH  24  26
ENDBRANCH  19  22
ENDBRANCH  15  16
ENDBRANCH  11  14
ENDBRANCH   7   8
ENDBRANCH   2   7
TORSDOF 12
ENDMDL
MODEL 2
REMARK VINA RESULT:      -4.3      2.598     12.682
REMARK  12 active torsions:
REMARK  status: ('A' for Active; 'I' for Inactive)
REMARK    1  A    between atoms: O_2  and  C_16 
REMARK    2  A    between atoms: N_5  and  C_9 
REMARK    3  A    between atoms: N_6  and  C_13 
REMARK       I    between atoms: N_6  and  C_22 
REMARK    4  A    between atoms: C_9  and  C_12 
REMARK    5  A    between atoms: C_13  and  C_16 
REMARK    6  A    between atoms: C_13  and  C_21 
REMARK    7  A    between atoms: C_19  and  C_24 
REMARK    8  A    between atoms: C_21  and  C_33 
REMARK    9  A    between atoms: C_22  and  C_23 
REMARK   10  A    between atoms: C_27  and  C_30 
REMARK   11  A    between atoms: C_33  and  C_34 
REMARK   12  A    between atoms: C_34  and  C_35 
ROOT
HETATM    1  O   UNL     1       3.213  14.919  94.105  1.00  0.00    -0.350 OA
HETATM    2  N   UNL     1       2.722  14.692  91.310  1.00  0.00     0.147 N 
HETATM    3  C   UNL     1       1.740  14.233  92.302  1.00  0.00     0.283 C 
HETATM    4  C   UNL     1       4.080  14.592  91.863  1.00  0.00     0.283 C 
HETATM    5  C   UNL     1       1.887  15.043  93.588  1.00  0.00     0.178 C 
HETATM    6  C   UNL     1       4.172  15.392  93.158  1.00  0.00     0.178 C 
ENDROOT
BRANCH   2   7
HETATM    7  C   UNL     1       2.607  13.923  90.073  1.00  0.00     0.277 C 
BRANCH   7   8
HETATM    8  C   UNL     1       3.589  12.804  90.006  1.00  0.00     0.011 A 
HETATM    9  C   UNL     1       4.795  12.975  89.324  1.00  0.00    -0.002 A 
HETATM   10  C   UNL     1       5.714  11.928  89.259  1.00  0.00     0.008 A 
HETATM   11  C   UNL     1       5.428  10.712  89.877  1.00  0.00     0.042 A 
HETATM   12  C   UNL     1       4.225  10.539  90.559  1.00  0.00     0.008 A 
HETATM   13  C   UNL     1       3.305  11.586  90.623  1.00  0.00    -0.002 A 
BRANCH  11  14
HETATM   14  C   UNL     1       6.373   9.638  89.812  1.00  0.00    -0.059 C 
HETATM   15  C   UNL     1       7.166   8.737  89.758  1.00  0.00    -0.059 C 
BRANCH  15  16
HETATM   16  C   UNL     1       8.110   7.664  89.694  1.00  0.00     0.042 A 
HETATM   17  C   UNL     1       9.475   7.941  89.612  1.00  0.00     0.008 A 
HETATM   18  C   UNL     1      10.395   6.895  89.552  1.00  0.00     0.005 A 
HETATM   19  C   UNL     1       9.930   5.597  89.577  1.00  0.00     0.056 A 
HETATM   20  C   UNL     1       8.586   5.297  89.657  1.00  0.00     0.005 A 
HETATM   21  C   UNL     1       7.665   6.342  89.716  1.00  0.00     0.008 A 
BRANCH  19  22
HETATM   22  C   UNL     1      10.911   4.482  89.511  1.00  0.00     0.254 C 
HETATM   23  O   UNL     1      11.036   3.854  88.462  1.00  0.00    -0.268 OA
HETATM   24  N   UNL     1      11.645   4.250  90.666  1.00  0.00    -0.335 N 
HETATM   25  HN  UNL     1      11.505   4.826  91.487  1.00  0.00     0.164 HD
BRANCH  24  26
HETATM   26  C   UNL     1      12.651   3.221  90.751  1.00  0.00     0.166 C 
BRANCH  26  27
HETATM   27  C   UNL     1      14.078   3.784  90.738  1.00  0.00     0.138 C 
HETATM   28  C   UNL     1      14.946   3.147  89.658  1.00  0.00     0.034 C 
BRANCH  27  29
HETATM   29  O   UNL     1      14.033   5.194  90.525  1.00  0.00    -0.383 OA
HETATM   30  H   UNL     1      14.925   5.553  90.668  1.00  0.00     0.210 HD
ENDBRANCH  27  29
ENDBRANCH  26  27
BRANCH  26  31
HETATM   31  C   UNL     1      12.385   2.414  92.017  1.00  0.00     0.181 C 
HETATM   32  O   UNL     1      13.041   1.422  92.330  1.00  0.00    -0.294 OA
BRANCH  31  33
HETATM   33  C   UNL     1      12.337   3.358  93.335  1.00  0.00     0.138 C 
BRANCH  33  34
HETATM   34  C   UNL     1      13.711   3.457  93.649  1.00  0.00     0.208 C 
HETATM   35  O   UNL     1      14.149   4.577  93.772  1.00  0.00    -0.289 OA
BRANCH  34  36
HETATM   36  C   UNL     1      14.583   2.515  94.124  1.00  0.00     0.194 C 
HETATM   37  O   UNL     1      15.974   2.427  94.001  1.00  0.00    -0.185 OA
ENDBRANCH  34  36
ENDBRANCH  33  34
ENDBRANCH  31  33
ENDBRANCH  26  31
ENDBRANCH  24  26
ENDBRANCH  19  22
ENDBRANCH  15  16
ENDBRANCH  11  14
ENDBRANCH   7   8
ENDBRANCH   2   7
TORSDOF 12
ENDMDL
MODEL 3
REMARK VINA RESULT:      -3.5      1.168      1.901
REMARK  12 active torsions:
REMARK  status: ('A' for Active; 'I' for Inactive)
REMARK    1  A    between atoms: O_2  and  C_16 
REMARK    2  A    between atoms: N_5  and  C_9 
REMARK    3  A    between atoms: N_6  and  C_13 
REMARK       I    between atoms: N_6  and  C_22 
REMARK    4  A    between atoms: C_9  and  C_12 
REMARK    5  A    between atoms: C_13  and  C_16 
REMARK    6  A    between atoms: C_13  and  C_21 
REMARK    7  A    between atoms: C_19  and  C_24 
REMARK    8  A    between atoms: C_21  and  C_33 
REMARK    9  A    between atoms: C_22  and  C_23 
REMARK   10  A    between atoms: C_27  and  C_30 
REMARK   11  A    between atoms: C_33  and  C_34 
REMARK   12  A    between atoms: C_34  and  C_35 
ROOT
HETATM    1  O   UNL     1      17.816   4.199  93.104  1.00  0.00    -0.350 OA
HETATM    2  N   UNL     1      15.149   3.320  93.565  1.00  0.00     0.147 N 
HETATM    3  C   UNL     1      16.292   2.407  93.702  1.00  0.00     0.283 C 
HETATM    4  C   UNL     1      15.454   4.366  92.579  1.00  0.00     0.283 C 
HETATM    5  C   UNL     1      17.541   3.197  94.085  1.00  0.00     0.178 C 
HETATM    6  C   UNL     1      16.722   5.108  92.987  1.00  0.00     0.178 C 
ENDROOT
BRANCH   2   7
HETATM    7  C   UNL     1      13.942   2.586  93.188  1.00  0.00     0.277 C 
BRANCH   7   8
HETATM    8  C   UNL     1      12.775   3.486  92.965  1.00  0.00     0.011 A 
HETATM    9  C   UNL     1      12.436   3.878  91.669  1.00  0.00    -0.002 A 
HETATM   10  C   UNL     1      11.346   4.723  91.460  1.00  0.00     0.008 A 
HETATM   11  C   UNL     1      10.595   5.173  92.545  1.00  0.00     0.042 A 
HETATM   12  C   UNL     1      10.933   4.782  93.839  1.00  0.00     0.008 A 
HETATM   13  C   UNL     1      12.023   3.938  94.049  1.00  0.00    -0.002 A 
BRANCH  11  14
HETATM   14  C   UNL     1       9.475   6.037  92.329  1.00  0.00    -0.059 C 
HETATM   15  C   UNL     1       8.534   6.763  92.149  1.00  0.00    -0.059 C 
BRANCH  15  16
HETATM   16  C   UNL     1       7.415   7.627  91.934  1.00  0.00     0.042 A 
HETATM   17  C   UNL     1       6.148   7.085  91.721  1.00  0.00     0.008 A 
HETATM   18  C   UNL     1       5.056   7.929  91.514  1.00  0.00     0.005 A 
HETATM   19  C   UNL     1       5.256   9.293  91.526  1.00  0.00     0.056 A 
HETATM   20  C   UNL     1       6.499   9.853  91.735  1.00  0.00     0.005 A 
HETATM   21  C   UNL     1       7.591   9.011  91.941  1.00  0.00     0.008 A 
BRANCH  19  22
HETATM   22  C   UNL     1       4.093  10.191  91.304  1.00  0.00     0.254 C 
HETATM   23  O   UNL     1       3.363   9.999  90.335  1.00  0.00    -0.268 OA
HETATM   24  N   UNL     1       3.906  11.189  92.250  1.00  0.00    -0.335 N 
HETATM   25  HN  UNL     1       4.536  11.272  93.040  1.00  0.00     0.164 HD
BRANCH  24  26
HETATM   26  C   UNL     1       2.810  12.122  92.187  1.00  0.00     0.166 C 
BRANCH  26  27
HETATM   27  C   UNL     1       1.751  11.870  93.268  1.00  0.00     0.138 C 
HETATM   28  C   UNL     1       2.071  10.649  94.124  1.00  0.00     0.034 C 
BRANCH  27  29
HETATM   29  O   UNL     1       1.649  13.015  94.113  1.00  0.00    -0.383 OA
HETATM   30  H   UNL     1       2.318  12.937  94.814  1.00  0.00     0.210 HD
ENDBRANCH  27  29
ENDBRANCH  26  27
BRANCH  26  31
HETATM   31  C   UNL     1       3.389  13.529  92.296  1.00  0.00     0.181 C 
HETATM   32  O   UNL     1       3.919  13.957  93.320  1.00  0.00    -0.294 OA
BRANCH  31  33
HETATM   33  C   UNL     1       4.418  13.853  91.086  1.00  0.00     0.138 C 
BRANCH  33  34
HETATM   34  C   UNL     1       3.557  13.780  89.969  1.00  0.00     0.208 C 
HETATM   35  O   UNL     1       2.500  14.359  90.073  1.00  0.00    -0.289 OA
BRANCH  34  36
HETATM   36  C   UNL     1       3.811  13.414  88.675  1.00  0.00     0.194 C 
HETATM   37  O   UNL     1       5.020  13.355  87.973  1.00  0.00    -0.185 OA
ENDBRANCH  34  36
ENDBRANCH  33  34
ENDBRANCH  31  33
ENDBRANCH  26  31
ENDBRANCH  24  26
ENDBRANCH  19  22
ENDBRANCH  15  16
ENDBRANCH  11  14
ENDBRANCH   7   8
ENDBRANCH   2   7
TORSDOF 12
ENDMDL
