MODEL 1
REMARK VINA RESULT:      -6.5      0.000      0.000
REMARK  10 active torsions:
REMARK  status: ('A' for Active; 'I' for Inactive)
REMARK    1  A    between atoms: O_2  and  C_18 
REMARK    2  A    between atoms: O_5  and  N_8 
REMARK    3  A    between atoms: N_6  and  C_11 
REMARK    4  A    between atoms: N_7  and  C_15 
REMARK       I    between atoms: N_7  and  C_24 
REMARK       I    between atoms: N_8  and  C_23 
REMARK    5  A    between atoms: C_11  and  C_14 
REMARK    6  A    between atoms: C_15  and  C_18 
REMARK    7  A    between atoms: C_15  and  C_23 
REMARK    8  A    between atoms: C_21  and  C_26 
REMARK    9  A    between atoms: C_24  and  C_25 
REMARK   10  A    between atoms: C_29  and  C_32 
ROOT
HETATM    1  O   UNK     0      16.514   3.294  93.760  0.00  0.00    -0.388 OA
HETATM    2  N   UNK     0      13.865   2.789  92.849  0.00  0.00     0.096 N 
HETATM    3  C   UNK     0      14.830   1.698  93.045  0.00  0.00     0.299 C 
HETATM    4  C   UNK     0      14.571   4.031  92.508  0.00  0.00     0.299 C 
HETATM    5  C   UNK     0      15.838   2.088  94.124  0.00  0.00     0.198 C 
HETATM    6  C   UNK     0      15.585   4.366  93.597  0.00  0.00     0.198 C 
ENDROOT
BRANCH   2   7
HETATM    7  C   UNK     0      12.895   2.441  91.812  0.00  0.00     0.311 C 
BRANCH   7   8
HETATM    8  C   UNK     0      11.801   3.447  91.697  0.00  0.00    -0.030 A 
HETATM    9  C   UNK     0      11.492   4.001  90.454  0.00  0.00     0.010 A 
HETATM   10  C   UNK     0      10.470   4.944  90.346  0.00  0.00     0.021 A 
HETATM   11  C   UNK     0       9.757   5.331  91.480  0.00  0.00     0.018 A 
HETATM   12  C   UNK     0      10.064   4.779  92.721  0.00  0.00     0.021 A 
HETATM   13  C   UNK     0      11.087   3.836  92.830  0.00  0.00     0.010 A 
BRANCH  11  14
HETATM   14  C   UNK     0       8.707   6.297  91.368  0.00  0.00    -0.061 C 
HETATM   15  C   UNK     0       7.825   7.109  91.275  0.00  0.00    -0.061 C 
BRANCH  15  16
HETATM   16  C   UNK     0       6.776   8.073  91.164  0.00  0.00     0.018 A 
HETATM   17  C   UNK     0       6.571   8.745  89.958  0.00  0.00     0.022 A 
HETATM   18  C   UNK     0       5.546   9.685  89.849  0.00  0.00     0.018 A 
HETATM   19  C   UNK     0       4.749   9.931  90.947  0.00  0.00     0.032 A 
HETATM   20  C   UNK     0       4.931   9.282  92.150  0.00  0.00     0.018 A 
HETATM   21  C   UNK     0       5.956   8.343  92.260  0.00  0.00     0.022 A 
BRANCH  19  22
HETATM   22  C   UNK     0       3.658  10.934  90.831  0.00  0.00     0.252 C 
HETATM   23  O   UNK     0       2.689  10.686  90.119  0.00  0.00    -0.268 OA
HETATM   24  N   UNK     0       3.817  12.093  91.578  0.00  0.00    -0.341 N 
HETATM   25  H   UNK     0       4.633  12.218  92.164  0.00  0.00     0.163 HD
BRANCH  24  26
HETATM   26  C   UNK     0       2.835  13.148  91.590  0.00  0.00     0.207 C 
BRANCH  26  27
HETATM   27  C   UNK     0       2.734  13.849  92.950  0.00  0.00     0.146 C 
HETATM   28  C   UNK     0       4.000  13.691  93.784  0.00  0.00     0.042 C 
BRANCH  27  29
HETATM   29  O   UNK     0       2.480  15.240  92.753  0.00  0.00    -0.393 OA
HETATM   30  H   UNK     0       2.441  15.410  91.796  0.00  0.00     0.210 HD
ENDBRANCH  27  29
ENDBRANCH  26  27
BRANCH  26  31
HETATM   31  C   UNK     0       3.196  14.133  90.483  0.00  0.00     0.266 C 
HETATM   32  O   UNK     0       2.395  14.500  89.626  0.00  0.00    -0.269 OA
HETATM   33  N   UNK     0       4.513  14.520  90.542  0.00  0.00    -0.236 N 
HETATM   34  H   UNK     0       5.220  14.170  91.178  0.00  0.00     0.197 HD
BRANCH  33  35
HETATM   35  O   UNK     0       4.937  15.398  89.535  0.00  0.00    -0.287 OA
HETATM   36  H   UNK     0       4.147  15.960  89.449  0.00  0.00     0.244 HD
ENDBRANCH  33  35
ENDBRANCH  26  31
ENDBRANCH  24  26
ENDBRANCH  19  22
ENDBRANCH  15  16
ENDBRANCH  11  14
ENDBRANCH   7   8
ENDBRANCH   2   7
TORSDOF 10
ENDMDL
MODEL 2
REMARK VINA RESULT:      -6.5      1.418      2.036
REMARK  10 active torsions:
REMARK  status: ('A' for Active; 'I' for Inactive)
REMARK    1  A    between atoms: O_2  and  C_18 
REMARK    2  A    between atoms: O_5  and  N_8 
REMARK    3  A    between atoms: N_6  and  C_11 
REMARK    4  A    between atoms: N_7  and  C_15 
REMARK       I    between atoms: N_7  and  C_24 
REMARK       I    between atoms: N_8  and  C_23 
REMARK    5  A    between atoms: C_11  and  C_14 
REMARK    6  A    between atoms: C_15  and  C_18 
REMARK    7  A    between atoms: C_15  and  C_23 
REMARK    8  A    between atoms: C_21  and  C_26 
REMARK    9  A    between atoms: C_24  and  C_25 
REMARK   10  A    between atoms: C_29  and  C_32 
ROOT
HETATM    1  O   UNK     0      16.631   4.357  94.124  0.00  0.00    -0.388 OA
HETATM    2  N   UNK     0      14.910   2.644  92.639  0.00  0.00     0.096 N 
HETATM    3  C   UNK     0      14.731   4.103  92.636  0.00  0.00     0.299 C 
HETATM    4  C   UNK     0      15.515   2.214  93.906  0.00  0.00     0.299 C 
HETATM    5  C   UNK     0      16.073   4.789  92.882  0.00  0.00     0.198 C 
HETATM    6  C   UNK     0      16.838   2.944  94.123  0.00  0.00     0.198 C 
ENDROOT
BRANCH   2   7
HETATM    7  C   UNK     0      13.635   1.966  92.415  0.00  0.00     0.311 C 
BRANCH   7   8
HETATM    8  C   UNK     0      12.533   2.918  92.095  0.00  0.00    -0.030 A 
HETATM    9  C   UNK     0      12.341   3.344  90.781  0.00  0.00     0.010 A 
HETATM   10  C   UNK     0      11.312   4.237  90.480  0.00  0.00     0.021 A 
HETATM   11  C   UNK     0      10.475   4.700  91.494  0.00  0.00     0.018 A 
HETATM   12  C   UNK     0      10.666   4.275  92.808  0.00  0.00     0.021 A 
HETATM   13  C   UNK     0      11.695   3.383  93.108  0.00  0.00     0.010 A 
BRANCH  11  14
HETATM   14  C   UNK     0       9.418   5.614  91.186  0.00  0.00    -0.061 C 
HETATM   15  C   UNK     0       8.530   6.382  90.927  0.00  0.00    -0.061 C 
BRANCH  15  16
HETATM   16  C   UNK     0       7.474   7.294  90.619  0.00  0.00     0.018 A 
HETATM   17  C   UNK     0       6.851   8.009  91.643  0.00  0.00     0.022 A 
HETATM   18  C   UNK     0       5.821   8.901  91.343  0.00  0.00     0.018 A 
HETATM   19  C   UNK     0       5.438   9.058  90.028  0.00  0.00     0.032 A 
HETATM   20  C   UNK     0       6.036   8.363  88.998  0.00  0.00     0.018 A 
HETATM   21  C   UNK     0       7.066   7.471  89.298  0.00  0.00     0.022 A 
BRANCH  19  22
HETATM   22  C   UNK     0       4.339  10.007  89.709  0.00  0.00     0.252 C 
HETATM   23  O   UNK     0       3.315   9.583  89.178  0.00  0.00    -0.268 OA
HETATM   24  N   UNK     0       4.555  11.330  90.069  0.00  0.00    -0.341 N 
HETATM   25  H   UNK     0       5.416  11.603  90.527  0.00  0.00     0.163 HD
BRANCH  24  26
HETATM   26  C   UNK     0       3.575  12.363  89.848  0.00  0.00     0.207 C 
BRANCH  26  27
HETATM   27  C   UNK     0       3.136  13.052  91.146  0.00  0.00     0.146 C 
HETATM   28  C   UNK     0       2.264  12.155  92.017  0.00  0.00     0.042 C 
BRANCH  27  29
HETATM   29  O   UNK     0       4.289  13.443  91.892  0.00  0.00    -0.393 OA
HETATM   30  H   UNK     0       5.055  12.954  91.547  0.00  0.00     0.210 HD
ENDBRANCH  27  29
ENDBRANCH  26  27
BRANCH  26  31
HETATM   31  C   UNK     0       4.167  13.364  88.862  0.00  0.00     0.266 C 
HETATM   32  O   UNK     0       4.422  14.529  89.161  0.00  0.00    -0.269 OA
HETATM   33  N   UNK     0       4.341  12.821  87.612  0.00  0.00    -0.236 N 
HETATM   34  H   UNK     0       4.060  11.896  87.308  0.00  0.00     0.197 HD
BRANCH  33  35
HETATM   35  O   UNK     0       4.847  13.689  86.634  0.00  0.00    -0.287 OA
HETATM   36  H   UNK     0       4.784  13.121  85.847  0.00  0.00     0.244 HD
ENDBRANCH  33  35
ENDBRANCH  26  31
ENDBRANCH  24  26
ENDBRANCH  19  22
ENDBRANCH  15  16
ENDBRANCH  11  14
ENDBRANCH   7   8
ENDBRANCH   2   7
TORSDOF 10
ENDMDL
MODEL 3
REMARK VINA RESULT:      -5.5      2.490     12.510
REMARK  10 active torsions:
REMARK  status: ('A' for Active; 'I' for Inactive)
REMARK    1  A    between atoms: O_2  and  C_18 
REMARK    2  A    between atoms: O_5  and  N_8 
REMARK    3  A    between atoms: N_6  and  C_11 
REMARK    4  A    between atoms: N_7  and  C_15 
REMARK       I    between atoms: N_7  and  C_24 
REMARK       I    between atoms: N_8  and  C_23 
REMARK    5  A    between atoms: C_11  and  C_14 
REMARK    6  A    between atoms: C_15  and  C_18 
REMARK    7  A    between atoms: C_15  and  C_23 
REMARK    8  A    between atoms: C_21  and  C_26 
REMARK    9  A    between atoms: C_24  and  C_25 
REMARK   10  A    between atoms: C_29  and  C_32 
ROOT
HETATM    1  O   UNK     0       2.653  14.526  94.124  0.00  0.00    -0.388 OA
HETATM    2  N   UNK     0       2.567  14.671  91.283  0.00  0.00     0.096 N 
HETATM    3  C   UNK     0       1.587  13.881  92.041  0.00  0.00     0.299 C 
HETATM    4  C   UNK     0       3.837  14.736  92.017  0.00  0.00     0.299 C 
HETATM    5  C   UNK     0       1.404  14.483  93.432  0.00  0.00     0.198 C 
HETATM    6  C   UNK     0       3.602  15.317  93.408  0.00  0.00     0.198 C 
ENDROOT
BRANCH   2   7
HETATM    7  C   UNK     0       2.766  14.106  89.949  0.00  0.00     0.311 C 
BRANCH   7   8
HETATM    8  C   UNK     0       3.769  13.003  89.944  0.00  0.00    -0.030 A 
HETATM    9  C   UNK     0       3.490  11.804  90.601  0.00  0.00     0.010 A 
HETATM   10  C   UNK     0       4.428  10.772  90.598  0.00  0.00     0.021 A 
HETATM   11  C   UNK     0       5.645  10.939  89.937  0.00  0.00     0.018 A 
HETATM   12  C   UNK     0       5.925  12.136  89.281  0.00  0.00     0.021 A 
HETATM   13  C   UNK     0       4.987  13.168  89.284  0.00  0.00     0.010 A 
BRANCH  11  14
HETATM   14  C   UNK     0       6.606   9.880  89.933  0.00  0.00    -0.061 C 
HETATM   15  C   UNK     0       7.414   8.989  89.930  0.00  0.00    -0.061 C 
BRANCH  15  16
HETATM   16  C   UNK     0       8.375   7.931  89.927  0.00  0.00     0.018 A 
HETATM   17  C   UNK     0       8.423   7.031  90.992  0.00  0.00     0.022 A 
HETATM   18  C   UNK     0       9.359   5.997  90.989  0.00  0.00     0.018 A 
HETATM   19  C   UNK     0      10.225   5.885  89.921  0.00  0.00     0.032 A 
HETATM   20  C   UNK     0      10.198   6.761  88.857  0.00  0.00     0.018 A 
HETATM   21  C   UNK     0       9.263   7.796  88.860  0.00  0.00     0.022 A 
BRANCH  19  22
HETATM   22  C   UNK     0      11.223   4.784  89.919  0.00  0.00     0.252 C 
HETATM   23  O   UNK     0      11.400   4.138  88.890  0.00  0.00    -0.268 OA
HETATM   24  N   UNK     0      11.911   4.586  91.108  0.00  0.00    -0.341 N 
HETATM   25  H   UNK     0      11.729   5.176  91.911  0.00  0.00     0.163 HD
BRANCH  24  26
HETATM   26  C   UNK     0      12.927   3.574  91.256  0.00  0.00     0.207 C 
BRANCH  26  27
HETATM   27  C   UNK     0      14.128   4.055  92.080  0.00  0.00     0.146 C 
HETATM   28  C   UNK     0      13.837   4.082  93.576  0.00  0.00     0.042 C 
BRANCH  27  29
HETATM   29  O   UNK     0      15.245   3.200  91.840  0.00  0.00    -0.393 OA
HETATM   30  H   UNK     0      16.041   3.631  92.194  0.00  0.00     0.210 HD
ENDBRANCH  27  29
ENDBRANCH  26  27
BRANCH  26  31
HETATM   31  C   UNK     0      12.275   2.349  91.890  0.00  0.00     0.266 C 
HETATM   32  O   UNK     0      12.856   1.273  92.019  0.00  0.00    -0.269 OA
HETATM   33  N   UNK     0      10.972   2.585  92.254  0.00  0.00    -0.236 N 
HETATM   34  H   UNK     0      10.436   3.428  92.082  0.00  0.00     0.197 HD
BRANCH  33  35
HETATM   35  O   UNK     0      10.287   1.495  92.811  0.00  0.00    -0.287 OA
HETATM   36  H   UNK     0      10.731   0.760  92.355  0.00  0.00     0.244 HD
ENDBRANCH  33  35
ENDBRANCH  26  31
ENDBRANCH  24  26
ENDBRANCH  19  22
ENDBRANCH  15  16
ENDBRANCH  11  14
ENDBRANCH   7   8
ENDBRANCH   2   7
TORSDOF 10
ENDMDL
MODEL 4
REMARK VINA RESULT:      -5.0      1.946     12.703
REMARK  10 active torsions:
REMARK  status: ('A' for Active; 'I' for Inactive)
REMARK    1  A    between atoms: O_2  and  C_18 
REMARK    2  A    between atoms: O_5  and  N_8 
REMARK    3  A    between atoms: N_6  and  C_11 
REMARK    4  A    between atoms: N_7  and  C_15 
REMARK       I    between atoms: N_7  and  C_24 
REMARK       I    between atoms: N_8  and  C_23 
REMARK    5  A    between atoms: C_11  and  C_14 
REMARK    6  A    between atoms: C_15  and  C_18 
REMARK    7  A    between atoms: C_15  and  C_23 
REMARK    8  A    between atoms: C_21  and  C_26 
REMARK    9  A    between atoms: C_24  and  C_25 
REMARK   10  A    between atoms: C_29  and  C_32 
ROOT
HETATM    1  O   UNK     0       3.213  14.394  92.238  0.00  0.00    -0.388 OA
HETATM    2  N   UNK     0       4.014  14.062  89.527  0.00  0.00     0.096 N 
HETATM    3  C   UNK     0       2.972  13.218  90.129  0.00  0.00     0.299 C 
HETATM    4  C   UNK     0       4.961  14.505  90.559  0.00  0.00     0.299 C 
HETATM    5  C   UNK     0       2.269  13.983  91.247  0.00  0.00     0.198 C 
HETATM    6  C   UNK     0       4.212  15.240  91.668  0.00  0.00     0.198 C 
ENDROOT
BRANCH   2   7
HETATM    7  C   UNK     0       4.709  13.344  88.460  0.00  0.00     0.311 C 
BRANCH   7   8
HETATM    8  C   UNK     0       5.540  12.221  88.978  0.00  0.00    -0.030 A 
HETATM    9  C   UNK     0       6.931  12.275  88.869  0.00  0.00     0.010 A 
HETATM   10  C   UNK     0       7.709  11.223  89.352  0.00  0.00     0.021 A 
HETATM   11  C   UNK     0       7.098  10.119  89.944  0.00  0.00     0.018 A 
HETATM   12  C   UNK     0       5.710  10.064  90.054  0.00  0.00     0.021 A 
HETATM   13  C   UNK     0       4.931  11.115  89.571  0.00  0.00     0.010 A 
BRANCH  11  14
HETATM   14  C   UNK     0       7.897   9.041  90.441  0.00  0.00    -0.061 C 
HETATM   15  C   UNK     0       8.568   8.135  90.859  0.00  0.00    -0.061 C 
BRANCH  15  16
HETATM   16  C   UNK     0       9.366   7.060  91.356  0.00  0.00     0.018 A 
HETATM   17  C   UNK     0       9.538   6.898  92.732  0.00  0.00     0.022 A 
HETATM   18  C   UNK     0      10.315   5.847  93.218  0.00  0.00     0.018 A 
HETATM   19  C   UNK     0      10.902   4.980  92.320  0.00  0.00     0.032 A 
HETATM   20  C   UNK     0      10.748   5.118  90.956  0.00  0.00     0.018 A 
HETATM   21  C   UNK     0       9.972   6.170  90.469  0.00  0.00     0.022 A 
BRANCH  19  22
HETATM   22  C   UNK     0      11.731   3.862  92.838  0.00  0.00     0.252 C 
HETATM   23  O   UNK     0      11.213   2.761  93.012  0.00  0.00    -0.268 OA
HETATM   24  N   UNK     0      13.069   4.152  93.068  0.00  0.00    -0.341 N 
HETATM   25  H   UNK     0      13.432   5.079  92.878  0.00  0.00     0.163 HD
BRANCH  24  26
HETATM   26  C   UNK     0      14.005   3.167  93.547  0.00  0.00     0.207 C 
BRANCH  26  27
HETATM   27  C   UNK     0      14.144   1.970  92.599  0.00  0.00     0.146 C 
HETATM   28  C   UNK     0      14.985   2.294  91.368  0.00  0.00     0.042 C 
BRANCH  27  29
HETATM   29  O   UNK     0      14.744   0.877  93.294  0.00  0.00    -0.393 OA
HETATM   30  H   UNK     0      15.686   1.079  93.424  0.00  0.00     0.210 HD
ENDBRANCH  27  29
ENDBRANCH  26  27
BRANCH  26  31
HETATM   31  C   UNK     0      15.345   3.864  93.761  0.00  0.00     0.266 C 
HETATM   32  O   UNK     0      15.478   5.086  93.725  0.00  0.00    -0.269 OA
HETATM   33  N   UNK     0      16.369   2.970  93.957  0.00  0.00    -0.236 N 
HETATM   34  H   UNK     0      16.311   1.959  93.904  0.00  0.00     0.197 HD
BRANCH  33  35
HETATM   35  O   UNK     0      17.644   3.529  94.124  0.00  0.00    -0.287 OA
HETATM   36  H   UNK     0      17.971   2.999  94.870  0.00  0.00     0.244 HD
ENDBRANCH  33  35
ENDBRANCH  26  31
ENDBRANCH  24  26
ENDBRANCH  19  22
ENDBRANCH  15  16
ENDBRANCH  11  14
ENDBRANCH   7   8
ENDBRANCH   2   7
TORSDOF 10
ENDMDL
MODEL 5
REMARK VINA RESULT:      -4.9      1.887     12.608
REMARK  10 active torsions:
REMARK  status: ('A' for Active; 'I' for Inactive)
REMARK    1  A    between atoms: O_2  and  C_18 
REMARK    2  A    between atoms: O_5  and  N_8 
REMARK    3  A    between atoms: N_6  and  C_11 
REMARK    4  A    between atoms: N_7  and  C_15 
REMARK       I    between atoms: N_7  and  C_24 
REMARK       I    between atoms: N_8  and  C_23 
REMARK    5  A    between atoms: C_11  and  C_14 
REMARK    6  A    between atoms: C_15  and  C_18 
REMARK    7  A    between atoms: C_15  and  C_23 
REMARK    8  A    between atoms: C_21  and  C_26 
REMARK    9  A    between atoms: C_24  and  C_25 
REMARK   10  A    between atoms: C_29  and  C_32 
ROOT
HETATM    1  O   UNK     0       5.107  14.603  88.971  0.00  0.00    -0.388 OA
HETATM    2  N   UNK     0       3.593  13.483  91.105  0.00  0.00     0.096 N 
HETATM    3  C   UNK     0       4.437  14.669  91.303  0.00  0.00     0.299 C 
HETATM    4  C   UNK     0       4.145  12.644  90.033  0.00  0.00     0.299 C 
HETATM    5  C   UNK     0       4.560  15.440  89.991  0.00  0.00     0.198 C 
HETATM    6  C   UNK     0       4.275  13.463  88.751  0.00  0.00     0.198 C 
ENDROOT
BRANCH   2   7
HETATM    7  C   UNK     0       3.470  12.722  92.347  0.00  0.00     0.311 C 
BRANCH   7   8
HETATM    8  C   UNK     0       4.466  11.616  92.437  0.00  0.00    -0.030 A 
HETATM    9  C   UNK     0       4.281  10.451  91.691  0.00  0.00     0.010 A 
HETATM   10  C   UNK     0       5.211   9.414  91.776  0.00  0.00     0.021 A 
HETATM   11  C   UNK     0       6.325   9.544  92.604  0.00  0.00     0.018 A 
HETATM   12  C   UNK     0       6.510  10.707  93.349  0.00  0.00     0.021 A 
HETATM   13  C   UNK     0       5.581  11.744  93.265  0.00  0.00     0.010 A 
BRANCH  11  14
HETATM   14  C   UNK     0       7.279   8.482  92.689  0.00  0.00    -0.061 C 
HETATM   15  C   UNK     0       8.082   7.589  92.760  0.00  0.00    -0.061 C 
BRANCH  15  16
HETATM   16  C   UNK     0       9.034   6.527  92.844  0.00  0.00     0.018 A 
HETATM   17  C   UNK     0       9.032   5.512  91.886  0.00  0.00     0.022 A 
HETATM   18  C   UNK     0       9.963   4.476  91.967  0.00  0.00     0.018 A 
HETATM   19  C   UNK     0      10.875   4.479  93.001  0.00  0.00     0.032 A 
HETATM   20  C   UNK     0      10.898   5.469  93.960  0.00  0.00     0.018 A 
HETATM   21  C   UNK     0       9.966   6.505  93.881  0.00  0.00     0.022 A 
BRANCH  19  22
HETATM   22  C   UNK     0      11.865   3.374  93.088  0.00  0.00     0.252 C 
HETATM   23  O   UNK     0      11.568   2.267  92.647  0.00  0.00    -0.268 OA
HETATM   24  N   UNK     0      13.089   3.698  93.655  0.00  0.00    -0.341 N 
HETATM   25  H   UNK     0      13.272   4.642  93.975  0.00  0.00     0.163 HD
BRANCH  24  26
HETATM   26  C   UNK     0      14.160   2.743  93.787  0.00  0.00     0.207 C 
BRANCH  26  27
HETATM   27  C   UNK     0      14.222   1.755  92.615  0.00  0.00     0.146 C 
HETATM   28  C   UNK     0      15.027   2.295  91.438  0.00  0.00     0.042 C 
BRANCH  27  29
HETATM   29  O   UNK     0      14.808   0.530  93.054  0.00  0.00    -0.393 OA
HETATM   30  H   UNK     0      14.911  -0.052  92.283  0.00  0.00     0.210 HD
ENDBRANCH  27  29
ENDBRANCH  26  27
BRANCH  26  31
HETATM   31  C   UNK     0      15.464   3.521  93.926  0.00  0.00     0.266 C 
HETATM   32  O   UNK     0      16.550   2.979  94.124  0.00  0.00    -0.269 OA
HETATM   33  N   UNK     0      15.270   4.879  93.842  0.00  0.00    -0.236 N 
HETATM   34  H   UNK     0      14.382   5.361  93.769  0.00  0.00     0.197 HD
BRANCH  33  35
HETATM   35  O   UNK     0      16.417   5.670  93.998  0.00  0.00    -0.287 OA
HETATM   36  H   UNK     0      17.031   5.206  93.404  0.00  0.00     0.244 HD
ENDBRANCH  33  35
ENDBRANCH  26  31
ENDBRANCH  24  26
ENDBRANCH  19  22
ENDBRANCH  15  16
ENDBRANCH  11  14
ENDBRANCH   7   8
ENDBRANCH   2   7
TORSDOF 10
ENDMDL
MODEL 6
REMARK VINA RESULT:      -4.7      2.097     12.790
REMARK  10 active torsions:
REMARK  status: ('A' for Active; 'I' for Inactive)
REMARK    1  A    between atoms: O_2  and  C_18 
REMARK    2  A    between atoms: O_5  and  N_8 
REMARK    3  A    between atoms: N_6  and  C_11 
REMARK    4  A    between atoms: N_7  and  C_15 
REMARK       I    between atoms: N_7  and  C_24 
REMARK       I    between atoms: N_8  and  C_23 
REMARK    5  A    between atoms: C_11  and  C_14 
REMARK    6  A    between atoms: C_15  and  C_18 
REMARK    7  A    between atoms: C_15  and  C_23 
REMARK    8  A    between atoms: C_21  and  C_26 
REMARK    9  A    between atoms: C_24  and  C_25 
REMARK   10  A    between atoms: C_29  and  C_32 
ROOT
HETATM    1  O   UNK     0       1.672  12.794  93.701  0.00  0.00    -0.388 OA
HETATM    2  N   UNK     0       3.023  13.258  91.238  0.00  0.00     0.096 N 
HETATM    3  C   UNK     0       2.648  11.903  91.665  0.00  0.00     0.299 C 
HETATM    4  C   UNK     0       3.251  14.110  92.412  0.00  0.00     0.299 C 
HETATM    5  C   UNK     0       1.416  11.966  92.565  0.00  0.00     0.198 C 
HETATM    6  C   UNK     0       2.006  14.122  93.295  0.00  0.00     0.198 C 
ENDROOT
BRANCH   2   7
HETATM    7  C   UNK     0       4.208  13.222  90.383  0.00  0.00     0.311 C 
BRANCH   7   8
HETATM    8  C   UNK     0       5.120  12.093  90.723  0.00  0.00    -0.030 A 
HETATM    9  C   UNK     0       5.744  11.371  89.705  0.00  0.00     0.010 A 
HETATM   10  C   UNK     0       6.596  10.313  90.022  0.00  0.00     0.021 A 
HETATM   11  C   UNK     0       6.825   9.980  91.357  0.00  0.00     0.018 A 
HETATM   12  C   UNK     0       6.202  10.700  92.374  0.00  0.00     0.021 A 
HETATM   13  C   UNK     0       5.350  11.758  92.058  0.00  0.00     0.010 A 
BRANCH  11  14
HETATM   14  C   UNK     0       7.700   8.896  91.682  0.00  0.00    -0.061 C 
HETATM   15  C   UNK     0       8.436   7.985  91.955  0.00  0.00    -0.061 C 
BRANCH  15  16
HETATM   16  C   UNK     0       9.310   6.902  92.278  0.00  0.00     0.018 A 
HETATM   17  C   UNK     0       9.610   6.623  93.613  0.00  0.00     0.022 A 
HETATM   18  C   UNK     0      10.462   5.565  93.929  0.00  0.00     0.018 A 
HETATM   19  C   UNK     0      10.993   4.808  92.906  0.00  0.00     0.032 A 
HETATM   20  C   UNK     0      10.713   5.063  91.580  0.00  0.00     0.018 A 
HETATM   21  C   UNK     0       9.863   6.122  91.263  0.00  0.00     0.022 A 
BRANCH  19  22
HETATM   22  C   UNK     0      11.902   3.682  93.243  0.00  0.00     0.252 C 
HETATM   23  O   UNK     0      11.461   2.535  93.243  0.00  0.00    -0.268 OA
HETATM   24  N   UNK     0      13.219   4.024  93.516  0.00  0.00    -0.341 N 
HETATM   25  H   UNK     0      13.517   4.992  93.472  0.00  0.00     0.163 HD
BRANCH  24  26
HETATM   26  C   UNK     0      14.225   3.043  93.835  0.00  0.00     0.207 C 
BRANCH  26  27
HETATM   27  C   UNK     0      14.246   1.871  92.846  0.00  0.00     0.146 C 
HETATM   28  C   UNK     0      15.044   2.185  91.586  0.00  0.00     0.042 C 
BRANCH  27  29
HETATM   29  O   UNK     0      14.811   0.723  93.479  0.00  0.00    -0.393 OA
HETATM   30  H   UNK     0      15.428   0.304  92.855  0.00  0.00     0.210 HD
ENDBRANCH  27  29
ENDBRANCH  26  27
BRANCH  26  31
HETATM   31  C   UNK     0      15.573   3.755  93.880  0.00  0.00     0.266 C 
HETATM   32  O   UNK     0      15.691   4.973  93.758  0.00  0.00    -0.269 OA
HETATM   33  N   UNK     0      16.619   2.878  94.030  0.00  0.00    -0.236 N 
HETATM   34  H   UNK     0      16.565   1.866  94.044  0.00  0.00     0.197 HD
BRANCH  33  35
HETATM   35  O   UNK     0      17.899   3.450  94.042  0.00  0.00    -0.287 OA
HETATM   36  H   UNK     0      17.667   4.394  94.076  0.00  0.00     0.244 HD
ENDBRANCH  33  35
ENDBRANCH  26  31
ENDBRANCH  24  26
ENDBRANCH  19  22
ENDBRANCH  15  16
ENDBRANCH  11  14
ENDBRANCH   7   8
ENDBRANCH   2   7
TORSDOF 10
ENDMDL
MODEL 7
REMARK VINA RESULT:      -4.2      2.139     12.535
REMARK  10 active torsions:
REMARK  status: ('A' for Active; 'I' for Inactive)
REMARK    1  A    between atoms: O_2  and  C_18 
REMARK    2  A    between atoms: O_5  and  N_8 
REMARK    3  A    between atoms: N_6  and  C_11 
REMARK    4  A    between atoms: N_7  and  C_15 
REMARK       I    between atoms: N_7  and  C_24 
REMARK       I    between atoms: N_8  and  C_23 
REMARK    5  A    between atoms: C_11  and  C_14 
REMARK    6  A    between atoms: C_15  and  C_18 
REMARK    7  A    between atoms: C_15  and  C_23 
REMARK    8  A    between atoms: C_21  and  C_26 
REMARK    9  A    between atoms: C_24  and  C_25 
REMARK   10  A    between atoms: C_29  and  C_32 
ROOT
HETATM    1  O   UNK     0       2.495  14.542  94.123  0.00  0.00    -0.388 OA
HETATM    2  N   UNK     0       2.487  14.426  91.279  0.00  0.00     0.096 N 
HETATM    3  C   UNK     0       1.696  13.489  92.088  0.00  0.00     0.299 C 
HETATM    4  C   UNK     0       3.675  14.857  92.027  0.00  0.00     0.299 C 
HETATM    5  C   UNK     0       1.320  14.141  93.416  0.00  0.00     0.198 C 
HETATM    6  C   UNK     0       3.254  15.477  93.356  0.00  0.00     0.198 C 
ENDROOT
BRANCH   2   7
HETATM    7  C   UNK     0       2.868  13.818  90.006  0.00  0.00     0.311 C 
BRANCH   7   8
HETATM    8  C   UNK     0       3.856  12.715  90.176  0.00  0.00    -0.030 A 
HETATM    9  C   UNK     0       4.200  12.280  91.457  0.00  0.00     0.010 A 
HETATM   10  C   UNK     0       5.126  11.249  91.618  0.00  0.00     0.021 A 
HETATM   11  C   UNK     0       5.706  10.653  90.498  0.00  0.00     0.018 A 
HETATM   12  C   UNK     0       5.363  11.087  89.219  0.00  0.00     0.021 A 
HETATM   13  C   UNK     0       4.438  12.118  89.058  0.00  0.00     0.010 A 
BRANCH  11  14
HETATM   14  C   UNK     0       6.655   9.595  90.664  0.00  0.00    -0.061 C 
HETATM   15  C   UNK     0       7.452   8.705  90.803  0.00  0.00    -0.061 C 
BRANCH  15  16
HETATM   16  C   UNK     0       8.400   7.649  90.968  0.00  0.00     0.018 A 
HETATM   17  C   UNK     0       9.048   7.114  89.854  0.00  0.00     0.022 A 
HETATM   18  C   UNK     0       9.975   6.084  90.016  0.00  0.00     0.018 A 
HETATM   19  C   UNK     0      10.234   5.614  91.286  0.00  0.00     0.032 A 
HETATM   20  C   UNK     0       9.607   6.125  92.403  0.00  0.00     0.018 A 
HETATM   21  C   UNK     0       8.679   7.154  92.242  0.00  0.00     0.022 A 
BRANCH  19  22
HETATM   22  C   UNK     0      11.220   4.515  91.457  0.00  0.00     0.252 C 
HETATM   23  O   UNK     0      11.407   3.728  90.533  0.00  0.00    -0.268 OA
HETATM   24  N   UNK     0      11.888   4.482  92.674  0.00  0.00    -0.341 N 
HETATM   25  H   UNK     0      11.700   5.182  93.381  0.00  0.00     0.163 HD
BRANCH  24  26
HETATM   26  C   UNK     0      12.890   3.494  92.981  0.00  0.00     0.207 C 
BRANCH  26  27
HETATM   27  C   UNK     0      12.762   2.230  92.121  0.00  0.00     0.146 C 
HETATM   28  C   UNK     0      13.890   1.236  92.371  0.00  0.00     0.042 C 
BRANCH  27  29
HETATM   29  O   UNK     0      11.514   1.593  92.392  0.00  0.00    -0.393 OA
HETATM   30  H   UNK     0      11.662   0.633  92.424  0.00  0.00     0.210 HD
ENDBRANCH  27  29
ENDBRANCH  26  27
BRANCH  26  31
HETATM   31  C   UNK     0      14.257   4.146  92.806  0.00  0.00     0.266 C 
HETATM   32  O   UNK     0      14.600   4.717  91.772  0.00  0.00    -0.269 OA
HETATM   33  N   UNK     0      15.055   3.985  93.914  0.00  0.00    -0.236 N 
HETATM   34  H   UNK     0      14.838   3.447  94.744  0.00  0.00     0.197 HD
BRANCH  33  35
HETATM   35  O   UNK     0      16.346   4.525  93.820  0.00  0.00    -0.287 OA
HETATM   36  H   UNK     0      16.172   5.293  93.250  0.00  0.00     0.244 HD
ENDBRANCH  33  35
ENDBRANCH  26  31
ENDBRANCH  24  26
ENDBRANCH  19  22
ENDBRANCH  15  16
ENDBRANCH  11  14
ENDBRANCH   7   8
ENDBRANCH   2   7
TORSDOF 10
ENDMDL
