MODEL 1
REMARK VINA RESULT:      -7.5      0.000      0.000
REMARK  9 active torsions:
REMARK  status: ('A' for Active; 'I' for Inactive)
REMARK    1  A    between atoms: N_3  and  C_6 
REMARK    2  A    between atoms: C_6  and  C_9 
REMARK    3  A    between atoms: C_14  and  C_17 
REMARK       I    between atoms: N_26  and  C_15 
REMARK    4  A    between atoms: C_15  and  C_16 
REMARK    5  A    between atoms: C_20  and  C_23 
REMARK    6  A    between atoms: OG1_24  and  CB_28 
REMARK    7  A    between atoms: N_26  and  CA_27 
REMARK    8  A    between atoms: CA_27  and  CB_28 
REMARK    9  A    between atoms: CA_27  and  C_30 
ROOT
HETATM    1  O   UNK A   0       1.897   8.194  87.844  1.00  0.00    -0.388 OA
HETATM    2  N   UNK A   0       4.677   7.609  87.667  1.00  0.00     0.096 N 
HETATM    3  C   UNK A   0       4.189   8.991  87.781  1.00  0.00     0.299 C 
HETATM    4  C   UNK A   0       3.672   6.773  86.997  1.00  0.00     0.299 C 
HETATM    5  C   UNK A   0       2.856   9.008  88.524  1.00  0.00     0.198 C 
HETATM    6  C   UNK A   0       2.351   6.843  87.757  1.00  0.00     0.198 C 
ENDROOT
BRANCH   2   7
HETATM    7  C   UNK A   0       5.950   7.568  86.948  1.00  0.00     0.311 C 
BRANCH   7   8
HETATM    8  C   UNK A   0       7.042   6.962  87.762  1.00  0.00    -0.030 A 
HETATM    9  C   UNK A   0       6.797   6.578  89.081  1.00  0.00     0.010 A 
HETATM   10  C   UNK A   0       7.819   6.013  89.844  1.00  0.00     0.021 A 
HETATM   11  C   UNK A   0       9.084   5.830  89.287  1.00  0.00     0.018 A 
HETATM   12  C   UNK A   0       9.329   6.212  87.969  1.00  0.00     0.021 A 
HETATM   13  C   UNK A   0       8.308   6.778  87.206  1.00  0.00     0.010 A 
BRANCH  11  14
HETATM   14  C   UNK A   0      10.131   5.248  90.069  1.00  0.00    -0.061 C 
HETATM   15  C   UNK A   0      11.011   4.759  90.727  1.00  0.00    -0.061 C 
BRANCH  15  16
HETATM   16  C   UNK A   0      12.057   4.177  91.509  1.00  0.00     0.018 A 
HETATM   17  C   UNK A   0      11.820   3.826  92.838  1.00  0.00     0.022 A 
HETATM   18  C   UNK A   0      12.840   3.256  93.600  1.00  0.00     0.018 A 
HETATM   19  C   UNK A   0      14.072   3.049  93.016  1.00  0.00     0.032 A 
HETATM   20  C   UNK A   0      14.332   3.388  91.705  1.00  0.00     0.018 A 
HETATM   21  C   UNK A   0      13.313   3.958  90.942  1.00  0.00     0.022 A 
BRANCH  19  22
HETATM   22  C   UNK A   0      15.159   2.444  93.829  1.00  0.00     0.252 C 
HETATM   23  O   UNK A   0      16.304   2.875  93.716  1.00  0.00    -0.268 OA
ENDBRANCH  19  22
ENDBRANCH  15  16
ENDBRANCH  11  14
ENDBRANCH   7   8
ENDBRANCH   2   7
TORSDOF 9
ENDMDL
MODEL 2
REMARK VINA RESULT:      -7.5      0.122      1.427
REMARK  9 active torsions:
REMARK  status: ('A' for Active; 'I' for Inactive)
REMARK    1  A    between atoms: N_3  and  C_6 
REMARK    2  A    between atoms: C_6  and  C_9 
REMARK    3  A    between atoms: C_14  and  C_17 
REMARK       I    between atoms: N_26  and  C_15 
REMARK    4  A    between atoms: C_15  and  C_16 
REMARK    5  A    between atoms: C_20  and  C_23 
REMARK    6  A    between atoms: OG1_24  and  CB_28 
REMARK    7  A    between atoms: N_26  and  CA_27 
REMARK    8  A    between atoms: CA_27  and  CB_28 
REMARK    9  A    between atoms: CA_27  and  C_30 
ROOT
HETATM    1  O   UNK A   0       1.783   8.010  87.831  1.00  0.00    -0.388 OA
HETATM    2  N   UNK A   0       4.589   7.556  87.685  1.00  0.00     0.096 N 
HETATM    3  C   UNK A   0       4.036   8.912  87.798  1.00  0.00     0.299 C 
HETATM    4  C   UNK A   0       3.631   6.677  87.001  1.00  0.00     0.299 C 
HETATM    5  C   UNK A   0       2.694   8.865  88.525  1.00  0.00     0.198 C 
HETATM    6  C   UNK A   0       2.300   6.682  87.745  1.00  0.00     0.198 C 
ENDROOT
BRANCH   2   7
HETATM    7  C   UNK A   0       5.871   7.576  86.982  1.00  0.00     0.311 C 
BRANCH   7   8
HETATM    8  C   UNK A   0       6.970   6.971  87.787  1.00  0.00    -0.030 A 
HETATM    9  C   UNK A   0       8.183   6.648  87.178  1.00  0.00     0.010 A 
HETATM   10  C   UNK A   0       9.211   6.080  87.930  1.00  0.00     0.021 A 
HETATM   11  C   UNK A   0       9.027   5.838  89.290  1.00  0.00     0.018 A 
HETATM   12  C   UNK A   0       7.816   6.160  89.900  1.00  0.00     0.021 A 
HETATM   13  C   UNK A   0       6.787   6.727  89.148  1.00  0.00     0.010 A 
BRANCH  11  14
HETATM   14  C   UNK A   0      10.083   5.257  90.062  1.00  0.00    -0.061 C 
HETATM   15  C   UNK A   0      10.970   4.768  90.710  1.00  0.00    -0.061 C 
BRANCH  15  16
HETATM   16  C   UNK A   0      12.026   4.188  91.480  1.00  0.00     0.018 A 
HETATM   17  C   UNK A   0      13.284   4.000  90.906  1.00  0.00     0.022 A 
HETATM   18  C   UNK A   0      14.314   3.436  91.659  1.00  0.00     0.018 A 
HETATM   19  C   UNK A   0      14.064   3.075  92.966  1.00  0.00     0.032 A 
HETATM   20  C   UNK A   0      12.830   3.250  93.555  1.00  0.00     0.018 A 
HETATM   21  C   UNK A   0      11.798   3.813  92.804  1.00  0.00     0.022 A 
BRANCH  19  22
HETATM   22  C   UNK A   0      15.162   2.472  93.766  1.00  0.00     0.252 C 
HETATM   23  O   UNK A   0      16.285   2.969  93.714  1.00  0.00    -0.268 OA
ENDBRANCH  19  22
ENDBRANCH  15  16
ENDBRANCH  11  14
ENDBRANCH   7   8
ENDBRANCH   2   7
TORSDOF 9
ENDMDL
MODEL 3
REMARK VINA RESULT:      -6.9      1.486      2.117
REMARK  9 active torsions:
REMARK  status: ('A' for Active; 'I' for Inactive)
REMARK    1  A    between atoms: N_3  and  C_6 
REMARK    2  A    between atoms: C_6  and  C_9 
REMARK    3  A    between atoms: C_14  and  C_17 
REMARK       I    between atoms: N_26  and  C_15 
REMARK    4  A    between atoms: C_15  and  C_16 
REMARK    5  A    between atoms: C_20  and  C_23 
REMARK    6  A    between atoms: OG1_24  and  CB_28 
REMARK    7  A    between atoms: N_26  and  CA_27 
REMARK    8  A    between atoms: CA_27  and  CB_28 
REMARK    9  A    between atoms: CA_27  and  C_30 
ROOT
HETATM    1  O   UNK A   0       2.839  11.265  89.608  1.00  0.00    -0.388 OA
HETATM    2  N   UNK A   0       4.619   9.241  88.692  1.00  0.00     0.096 N 
HETATM    3  C   UNK A   0       3.860  10.078  87.753  1.00  0.00     0.299 C 
HETATM    4  C   UNK A   0       3.878   9.100  89.954  1.00  0.00     0.299 C 
HETATM    5  C   UNK A   0       3.567  11.434  88.390  1.00  0.00     0.198 C 
HETATM    6  C   UNK A   0       3.584  10.478  90.538  1.00  0.00     0.198 C 
ENDROOT
BRANCH   2   7
HETATM    7  C   UNK A   0       4.901   7.931  88.107  1.00  0.00     0.311 C 
BRANCH   7   8
HETATM    8  C   UNK A   0       6.117   7.298  88.692  1.00  0.00    -0.030 A 
HETATM    9  C   UNK A   0       5.992   6.169  89.503  1.00  0.00     0.010 A 
HETATM   10  C   UNK A   0       7.129   5.576  90.053  1.00  0.00     0.021 A 
HETATM   11  C   UNK A   0       8.389   6.112  89.790  1.00  0.00     0.018 A 
HETATM   12  C   UNK A   0       8.515   7.239  88.981  1.00  0.00     0.021 A 
HETATM   13  C   UNK A   0       7.379   7.832  88.431  1.00  0.00     0.010 A 
BRANCH  11  14
HETATM   14  C   UNK A   0       9.555   5.503  90.353  1.00  0.00    -0.061 C 
HETATM   15  C   UNK A   0      10.535   4.990  90.825  1.00  0.00    -0.061 C 
BRANCH  15  16
HETATM   16  C   UNK A   0      11.701   4.382  91.387  1.00  0.00     0.018 A 
HETATM   17  C   UNK A   0      12.888   4.344  90.655  1.00  0.00     0.022 A 
HETATM   18  C   UNK A   0      14.026   3.753  91.204  1.00  0.00     0.018 A 
HETATM   19  C   UNK A   0      13.951   3.214  92.471  1.00  0.00     0.032 A 
HETATM   20  C   UNK A   0      12.790   3.239  93.215  1.00  0.00     0.018 A 
HETATM   21  C   UNK A   0      11.652   3.830  92.667  1.00  0.00     0.022 A 
BRANCH  19  22
HETATM   22  C   UNK A   0      15.163   2.583  93.055  1.00  0.00     0.252 C 
HETATM   23  O   UNK A   0      15.064   1.950  94.103  1.00  0.00    -0.268 OA
ENDBRANCH  19  22
ENDBRANCH  15  16
ENDBRANCH  11  14
ENDBRANCH   7   8
ENDBRANCH   2   7
TORSDOF 9
ENDMDL
MODEL 4
REMARK VINA RESULT:      -6.6      3.921     10.466
REMARK  9 active torsions:
REMARK  status: ('A' for Active; 'I' for Inactive)
REMARK    1  A    between atoms: N_3  and  C_6 
REMARK    2  A    between atoms: C_6  and  C_9 
REMARK    3  A    between atoms: C_14  and  C_17 
REMARK       I    between atoms: N_26  and  C_15 
REMARK    4  A    between atoms: C_15  and  C_16 
REMARK    5  A    between atoms: C_20  and  C_23 
REMARK    6  A    between atoms: OG1_24  and  CB_28 
REMARK    7  A    between atoms: N_26  and  CA_27 
REMARK    8  A    between atoms: CA_27  and  CB_28 
REMARK    9  A    between atoms: CA_27  and  C_30 
ROOT
HETATM    1  O   UNK A   0      14.619   3.361  92.179  1.00  0.00    -0.388 OA
HETATM    2  N   UNK A   0      11.897   4.179  92.324  1.00  0.00     0.096 N 
HETATM    3  C   UNK A   0      12.503   3.341  93.367  1.00  0.00     0.299 C 
HETATM    4  C   UNK A   0      12.559   3.936  91.035  1.00  0.00     0.299 C 
HETATM    5  C   UNK A   0      14.003   3.614  93.443  1.00  0.00     0.198 C 
HETATM    6  C   UNK A   0      14.056   4.194  91.165  1.00  0.00     0.198 C 
ENDROOT
BRANCH   2   7
HETATM    7  C   UNK A   0      10.460   3.925  92.226  1.00  0.00     0.311 C 
BRANCH   7   8
HETATM    8  C   UNK A   0       9.683   5.164  91.940  1.00  0.00    -0.030 A 
HETATM    9  C   UNK A   0       9.853   6.294  92.742  1.00  0.00     0.010 A 
HETATM   10  C   UNK A   0       9.124   7.453  92.477  1.00  0.00     0.021 A 
HETATM   11  C   UNK A   0       8.228   7.483  91.409  1.00  0.00     0.018 A 
HETATM   12  C   UNK A   0       8.058   6.356  90.608  1.00  0.00     0.021 A 
HETATM   13  C   UNK A   0       8.785   5.196  90.873  1.00  0.00     0.010 A 
BRANCH  11  14
HETATM   14  C   UNK A   0       7.482   8.674  91.136  1.00  0.00    -0.061 C 
HETATM   15  C   UNK A   0       6.856   9.674  90.905  1.00  0.00    -0.061 C 
BRANCH  15  16
HETATM   16  C   UNK A   0       6.110  10.862  90.631  1.00  0.00     0.018 A 
HETATM   17  C   UNK A   0       6.199  11.467  89.377  1.00  0.00     0.022 A 
HETATM   18  C   UNK A   0       5.469  12.625  89.110  1.00  0.00     0.018 A 
HETATM   19  C   UNK A   0       4.668  13.152  90.101  1.00  0.00     0.032 A 
HETATM   20  C   UNK A   0       4.564  12.574  91.348  1.00  0.00     0.018 A 
HETATM   21  C   UNK A   0       5.293  11.415  91.617  1.00  0.00     0.022 A 
BRANCH  19  22
HETATM   22  C   UNK A   0       3.892  14.387  89.816  1.00  0.00     0.252 C 
HETATM   23  O   UNK A   0       4.490  15.451  89.675  1.00  0.00    -0.268 OA
ENDBRANCH  19  22
ENDBRANCH  15  16
ENDBRANCH  11  14
ENDBRANCH   7   8
ENDBRANCH   2   7
TORSDOF 9
ENDMDL
MODEL 5
REMARK VINA RESULT:      -6.6      3.939     10.415
REMARK  9 active torsions:
REMARK  status: ('A' for Active; 'I' for Inactive)
REMARK    1  A    between atoms: N_3  and  C_6 
REMARK    2  A    between atoms: C_6  and  C_9 
REMARK    3  A    between atoms: C_14  and  C_17 
REMARK       I    between atoms: N_26  and  C_15 
REMARK    4  A    between atoms: C_15  and  C_16 
REMARK    5  A    between atoms: C_20  and  C_23 
REMARK    6  A    between atoms: OG1_24  and  CB_28 
REMARK    7  A    between atoms: N_26  and  CA_27 
REMARK    8  A    between atoms: CA_27  and  CB_28 
REMARK    9  A    between atoms: CA_27  and  C_30 
ROOT
HETATM    1  O   UNK A   0      14.536   3.262  91.978  1.00  0.00    -0.388 OA
HETATM    2  N   UNK A   0      11.855   4.182  92.240  1.00  0.00     0.096 N 
HETATM    3  C   UNK A   0      12.505   3.398  93.300  1.00  0.00     0.299 C 
HETATM    4  C   UNK A   0      12.422   3.827  90.932  1.00  0.00     0.299 C 
HETATM    5  C   UNK A   0      14.014   3.624  93.258  1.00  0.00     0.198 C 
HETATM    6  C   UNK A   0      13.931   4.042  90.946  1.00  0.00     0.198 C 
ENDROOT
BRANCH   2   7
HETATM    7  C   UNK A   0      10.408   3.972  92.254  1.00  0.00     0.311 C 
BRANCH   7   8
HETATM    8  C   UNK A   0       9.651   5.218  91.943  1.00  0.00    -0.030 A 
HETATM    9  C   UNK A   0       8.692   5.215  90.928  1.00  0.00     0.010 A 
HETATM   10  C   UNK A   0       7.985   6.380  90.634  1.00  0.00     0.021 A 
HETATM   11  C   UNK A   0       8.234   7.547  91.356  1.00  0.00     0.018 A 
HETATM   12  C   UNK A   0       9.190   7.551  92.369  1.00  0.00     0.021 A 
HETATM   13  C   UNK A   0       9.899   6.386  92.663  1.00  0.00     0.010 A 
BRANCH  11  14
HETATM   14  C   UNK A   0       7.506   8.742  91.056  1.00  0.00    -0.061 C 
HETATM   15  C   UNK A   0       6.894   9.746  90.804  1.00  0.00    -0.061 C 
BRANCH  15  16
HETATM   16  C   UNK A   0       6.167  10.940  90.505  1.00  0.00     0.018 A 
HETATM   17  C   UNK A   0       5.269  11.460  91.437  1.00  0.00     0.022 A 
HETATM   18  C   UNK A   0       4.562  12.626  91.146  1.00  0.00     0.018 A 
HETATM   19  C   UNK A   0       4.768  13.246  89.931  1.00  0.00     0.032 A 
HETATM   20  C   UNK A   0       5.650  12.751  88.993  1.00  0.00     0.018 A 
HETATM   21  C   UNK A   0       6.358  11.585  89.283  1.00  0.00     0.022 A 
BRANCH  19  22
HETATM   22  C   UNK A   0       4.013  14.488  89.621  1.00  0.00     0.252 C 
HETATM   23  O   UNK A   0       4.584  15.572  89.699  1.00  0.00    -0.268 OA
ENDBRANCH  19  22
ENDBRANCH  15  16
ENDBRANCH  11  14
ENDBRANCH   7   8
ENDBRANCH   2   7
TORSDOF 9
ENDMDL
MODEL 6
REMARK VINA RESULT:      -6.6      3.578     10.359
REMARK  9 active torsions:
REMARK  status: ('A' for Active; 'I' for Inactive)
REMARK    1  A    between atoms: N_3  and  C_6 
REMARK    2  A    between atoms: C_6  and  C_9 
REMARK    3  A    between atoms: C_14  and  C_17 
REMARK       I    between atoms: N_26  and  C_15 
REMARK    4  A    between atoms: C_15  and  C_16 
REMARK    5  A    between atoms: C_20  and  C_23 
REMARK    6  A    between atoms: OG1_24  and  CB_28 
REMARK    7  A    between atoms: N_26  and  CA_27 
REMARK    8  A    between atoms: CA_27  and  CB_28 
REMARK    9  A    between atoms: CA_27  and  C_30 
ROOT
HETATM    1  O   UNK A   0      16.217   3.131  93.611  1.00  0.00    -0.388 OA
HETATM    2  N   UNK A   0      13.490   2.898  92.830  1.00  0.00     0.096 N 
HETATM    3  C   UNK A   0      14.308   1.713  93.122  1.00  0.00     0.299 C 
HETATM    4  C   UNK A   0      14.341   3.988  92.334  1.00  0.00     0.299 C 
HETATM    5  C   UNK A   0      15.402   2.075  94.124  1.00  0.00     0.198 C 
HETATM    6  C   UNK A   0      15.434   4.296  93.353  1.00  0.00     0.198 C 
ENDROOT
BRANCH   2   7
HETATM    7  C   UNK A   0      12.441   2.577  91.863  1.00  0.00     0.311 C 
BRANCH   7   8
HETATM    8  C   UNK A   0      11.592   3.757  91.533  1.00  0.00    -0.030 A 
HETATM    9  C   UNK A   0      10.937   4.451  92.551  1.00  0.00     0.010 A 
HETATM   10  C   UNK A   0      10.141   5.554  92.243  1.00  0.00     0.021 A 
HETATM   11  C   UNK A   0      10.002   5.964  90.917  1.00  0.00     0.018 A 
HETATM   12  C   UNK A   0      10.657   5.272  89.899  1.00  0.00     0.021 A 
HETATM   13  C   UNK A   0      11.452   4.169  90.207  1.00  0.00     0.010 A 
BRANCH  11  14
HETATM   14  C   UNK A   0       9.187   7.097  90.601  1.00  0.00    -0.061 C 
HETATM   15  C   UNK A   0       8.503   8.049  90.335  1.00  0.00    -0.061 C 
BRANCH  15  16
HETATM   16  C   UNK A   0       7.688   9.180  90.019  1.00  0.00     0.018 A 
HETATM   17  C   UNK A   0       8.260  10.305  89.423  1.00  0.00     0.022 A 
HETATM   18  C   UNK A   0       7.464  11.408  89.112  1.00  0.00     0.018 A 
HETATM   19  C   UNK A   0       6.117  11.361  89.403  1.00  0.00     0.032 A 
HETATM   20  C   UNK A   0       5.528  10.261  89.992  1.00  0.00     0.018 A 
HETATM   21  C   UNK A   0       6.323   9.158  90.303  1.00  0.00     0.022 A 
BRANCH  19  22
HETATM   22  C   UNK A   0       5.270  12.537  89.073  1.00  0.00     0.252 C 
HETATM   23  O   UNK A   0       5.056  12.810  87.895  1.00  0.00    -0.268 OA
ENDBRANCH  19  22
ENDBRANCH  15  16
ENDBRANCH  11  14
ENDBRANCH   7   8
ENDBRANCH   2   7
TORSDOF 9
ENDMDL
MODEL 7
REMARK VINA RESULT:      -6.5      1.824      2.637
REMARK  9 active torsions:
REMARK  status: ('A' for Active; 'I' for Inactive)
REMARK    1  A    between atoms: N_3  and  C_6 
REMARK    2  A    between atoms: C_6  and  C_9 
REMARK    3  A    between atoms: C_14  and  C_17 
REMARK       I    between atoms: N_26  and  C_15 
REMARK    4  A    between atoms: C_15  and  C_16 
REMARK    5  A    between atoms: C_20  and  C_23 
REMARK    6  A    between atoms: OG1_24  and  CB_28 
REMARK    7  A    between atoms: N_26  and  CA_27 
REMARK    8  A    between atoms: CA_27  and  CB_28 
REMARK    9  A    between atoms: CA_27  and  C_30 
ROOT
HETATM    1  O   UNK A   0       2.922  11.469  89.105  1.00  0.00    -0.388 OA
HETATM    2  N   UNK A   0       4.123   8.965  89.726  1.00  0.00     0.096 N 
HETATM    3  C   UNK A   0       3.709   9.299  88.356  1.00  0.00     0.299 C 
HETATM    4  C   UNK A   0       3.274   9.672  90.695  1.00  0.00     0.299 C 
HETATM    5  C   UNK A   0       3.762  10.811  88.155  1.00  0.00     0.198 C 
HETATM    6  C   UNK A   0       3.337  11.174  90.439  1.00  0.00     0.198 C 
ENDROOT
BRANCH   2   7
HETATM    7  C   UNK A   0       4.069   7.520  89.945  1.00  0.00     0.311 C 
BRANCH   7   8
HETATM    8  C   UNK A   0       5.395   6.954  90.325  1.00  0.00    -0.030 A 
HETATM    9  C   UNK A   0       5.890   7.146  91.615  1.00  0.00     0.010 A 
HETATM   10  C   UNK A   0       7.131   6.618  91.972  1.00  0.00     0.021 A 
HETATM   11  C   UNK A   0       7.875   5.898  91.038  1.00  0.00     0.018 A 
HETATM   12  C   UNK A   0       7.382   5.705  89.749  1.00  0.00     0.021 A 
HETATM   13  C   UNK A   0       6.141   6.233  89.392  1.00  0.00     0.010 A 
BRANCH  11  14
HETATM   14  C   UNK A   0       9.147   5.355  91.404  1.00  0.00    -0.061 C 
HETATM   15  C   UNK A   0      10.216   4.899  91.711  1.00  0.00    -0.061 C 
BRANCH  15  16
HETATM   16  C   UNK A   0      11.488   4.357  92.077  1.00  0.00     0.018 A 
HETATM   17  C   UNK A   0      12.501   4.252  91.123  1.00  0.00     0.022 A 
HETATM   18  C   UNK A   0      13.742   3.726  91.481  1.00  0.00     0.018 A 
HETATM   19  C   UNK A   0      13.943   3.318  92.783  1.00  0.00     0.032 A 
HETATM   20  C   UNK A   0      12.958   3.411  93.744  1.00  0.00     0.018 A 
HETATM   21  C   UNK A   0      11.716   3.937  93.388  1.00  0.00     0.022 A 
BRANCH  19  22
HETATM   22  C   UNK A   0      15.265   2.756  93.163  1.00  0.00     0.252 C 
HETATM   23  O   UNK A   0      16.108   3.494  93.669  1.00  0.00    -0.268 OA
ENDBRANCH  19  22
ENDBRANCH  15  16
ENDBRANCH  11  14
ENDBRANCH   7   8
ENDBRANCH   2   7
TORSDOF 9
ENDMDL
MODEL 8
REMARK VINA RESULT:      -6.4      1.881      2.936
REMARK  9 active torsions:
REMARK  status: ('A' for Active; 'I' for Inactive)
REMARK    1  A    between atoms: N_3  and  C_6 
REMARK    2  A    between atoms: C_6  and  C_9 
REMARK    3  A    between atoms: C_14  and  C_17 
REMARK       I    between atoms: N_26  and  C_15 
REMARK    4  A    between atoms: C_15  and  C_16 
REMARK    5  A    between atoms: C_20  and  C_23 
REMARK    6  A    between atoms: OG1_24  and  CB_28 
REMARK    7  A    between atoms: N_26  and  CA_27 
REMARK    8  A    between atoms: CA_27  and  CB_28 
REMARK    9  A    between atoms: CA_27  and  C_30 
ROOT
HETATM    1  O   UNK A   0       2.330   9.610  88.119  1.00  0.00    -0.388 OA
HETATM    2  N   UNK A   0       3.840   8.172  90.056  1.00  0.00     0.096 N 
HETATM    3  C   UNK A   0       2.561   7.660  89.545  1.00  0.00     0.299 C 
HETATM    4  C   UNK A   0       3.850   9.640  90.009  1.00  0.00     0.299 C 
HETATM    5  C   UNK A   0       2.324   8.181  88.130  1.00  0.00     0.198 C 
HETATM    6  C   UNK A   0       3.582  10.115  88.585  1.00  0.00     0.198 C 
ENDROOT
BRANCH   2   7
HETATM    7  C   UNK A   0       4.083   7.693  91.416  1.00  0.00     0.311 C 
BRANCH   7   8
HETATM    8  C   UNK A   0       5.436   7.087  91.572  1.00  0.00    -0.030 A 
HETATM    9  C   UNK A   0       6.172   6.725  90.442  1.00  0.00     0.010 A 
HETATM   10  C   UNK A   0       7.437   6.156  90.587  1.00  0.00     0.021 A 
HETATM   11  C   UNK A   0       7.967   5.952  91.860  1.00  0.00     0.018 A 
HETATM   12  C   UNK A   0       7.234   6.313  92.989  1.00  0.00     0.021 A 
HETATM   13  C   UNK A   0       5.968   6.881  92.845  1.00  0.00     0.010 A 
BRANCH  11  14
HETATM   14  C   UNK A   0       9.266   5.370  92.008  1.00  0.00    -0.061 C 
HETATM   15  C   UNK A   0      10.357   4.881  92.132  1.00  0.00    -0.061 C 
BRANCH  15  16
HETATM   16  C   UNK A   0      11.655   4.301  92.280  1.00  0.00     0.018 A 
HETATM   17  C   UNK A   0      12.534   4.273  91.196  1.00  0.00     0.022 A 
HETATM   18  C   UNK A   0      13.801   3.709  91.342  1.00  0.00     0.018 A 
HETATM   19  C   UNK A   0      14.162   3.187  92.567  1.00  0.00     0.032 A 
HETATM   20  C   UNK A   0      13.312   3.202  93.653  1.00  0.00     0.018 A 
HETATM   21  C   UNK A   0      12.044   3.766  93.508  1.00  0.00     0.022 A 
BRANCH  19  22
HETATM   22  C   UNK A   0      15.511   2.585  92.721  1.00  0.00     0.252 C 
HETATM   23  O   UNK A   0      16.167   2.832  93.730  1.00  0.00    -0.268 OA
ENDBRANCH  19  22
ENDBRANCH  15  16
ENDBRANCH  11  14
ENDBRANCH   7   8
ENDBRANCH   2   7
TORSDOF 9
ENDMDL
MODEL 9
REMARK VINA RESULT:      -6.3      2.609      3.156
REMARK  9 active torsions:
REMARK  status: ('A' for Active; 'I' for Inactive)
REMARK    1  A    between atoms: N_3  and  C_6 
REMARK    2  A    between atoms: C_6  and  C_9 
REMARK    3  A    between atoms: C_14  and  C_17 
REMARK       I    between atoms: N_26  and  C_15 
REMARK    4  A    between atoms: C_15  and  C_16 
REMARK    5  A    between atoms: C_20  and  C_23 
REMARK    6  A    between atoms: OG1_24  and  CB_28 
REMARK    7  A    between atoms: N_26  and  CA_27 
REMARK    8  A    between atoms: CA_27  and  CB_28 
REMARK    9  A    between atoms: CA_27  and  C_30 
ROOT
HETATM    1  O   UNK A   0       3.973  12.972  91.057  1.00  0.00    -0.388 OA
HETATM    2  N   UNK A   0       5.428  10.870  89.803  1.00  0.00     0.096 N 
HETATM    3  C   UNK A   0       4.748  11.909  89.017  1.00  0.00     0.299 C 
HETATM    4  C   UNK A   0       4.729  10.667  91.080  1.00  0.00     0.299 C 
HETATM    5  C   UNK A   0       4.665  13.200  89.827  1.00  0.00     0.198 C 
HETATM    6  C   UNK A   0       4.646  11.986  91.841  1.00  0.00     0.198 C 
ENDROOT
BRANCH   2   7
HETATM    7  C   UNK A   0       5.509   9.620  89.050  1.00  0.00     0.311 C 
BRANCH   7   8
HETATM    8  C   UNK A   0       6.594   8.727  89.547  1.00  0.00    -0.030 A 
HETATM    9  C   UNK A   0       7.896   9.215  89.672  1.00  0.00     0.010 A 
HETATM   10  C   UNK A   0       8.912   8.379  90.134  1.00  0.00     0.021 A 
HETATM   11  C   UNK A   0       8.626   7.058  90.474  1.00  0.00     0.018 A 
HETATM   12  C   UNK A   0       7.327   6.569  90.351  1.00  0.00     0.021 A 
HETATM   13  C   UNK A   0       6.310   7.404  89.887  1.00  0.00     0.010 A 
BRANCH  11  14
HETATM   14  C   UNK A   0       9.669   6.201  90.951  1.00  0.00    -0.061 C 
HETATM   15  C   UNK A   0      10.545   5.481  91.351  1.00  0.00    -0.061 C 
BRANCH  15  16
HETATM   16  C   UNK A   0      11.587   4.626  91.827  1.00  0.00     0.018 A 
HETATM   17  C   UNK A   0      11.526   4.108  93.121  1.00  0.00     0.022 A 
HETATM   18  C   UNK A   0      12.542   3.272  93.585  1.00  0.00     0.018 A 
HETATM   19  C   UNK A   0      13.593   2.971  92.744  1.00  0.00     0.032 A 
HETATM   20  C   UNK A   0      13.676   3.471  91.461  1.00  0.00     0.018 A 
HETATM   21  C   UNK A   0      12.661   4.308  90.997  1.00  0.00     0.022 A 
BRANCH  19  22
HETATM   22  C   UNK A   0      14.676   2.082  93.239  1.00  0.00     0.252 C 
HETATM   23  O   UNK A   0      15.817   2.525  93.341  1.00  0.00    -0.268 OA
ENDBRANCH  19  22
ENDBRANCH  15  16
ENDBRANCH  11  14
ENDBRANCH   7   8
ENDBRANCH   2   7
TORSDOF 9
ENDMDL
