MODEL 1
REMARK VINA RESULT:      -6.8      0.000      0.000
REMARK  10 active torsions:
REMARK  status: ('A' for Active; 'I' for Inactive)
REMARK    1  A    between atoms: O_2  and  C_16 
REMARK    2  A    between atoms: N_5  and  C_9 
REMARK    3  A    between atoms: N_6  and  C_13 
REMARK       I    between atoms: N_6  and  C_22 
REMARK    4  A    between atoms: C_9  and  C_12 
REMARK    5  A    between atoms: C_13  and  C_16 
REMARK    6  A    between atoms: C_13  and  C_21 
REMARK    7  A    between atoms: C_19  and  C_24 
REMARK    8  A    between atoms: C_22  and  C_23 
REMARK    9  A    between atoms: C_27  and  C_30 
REMARK   10  A    between atoms: N_33  and  S_34 
ROOT
HETATM    1  C   UNL     1       5.785  11.212  89.889  1.00  0.00     0.056 A 
HETATM    2  C   UNL     1       7.058  11.231  89.358  1.00  0.00     0.005 A 
HETATM    3  C   UNL     1       5.321  10.161  90.652  1.00  0.00     0.005 A 
HETATM    4  C   UNL     1       7.461   9.076  90.370  1.00  0.00     0.042 A 
HETATM    5  C   UNL     1       7.906  10.151  89.601  1.00  0.00     0.008 A 
HETATM    6  C   UNL     1       6.169   9.080  90.896  1.00  0.00     0.008 A 
ENDROOT
BRANCH   1   7
HETATM    7  C   UNL     1       4.882  12.364  89.631  1.00  0.00     0.254 C 
HETATM    8  O   UNL     1       4.802  12.820  88.494  1.00  0.00    -0.268 OA
HETATM    9  N   UNL     1       4.164  12.830  90.724  1.00  0.00    -0.337 N 
HETATM   10  HN  UNL     1       4.264  12.387  91.630  1.00  0.00     0.164 HD
BRANCH   9  11
HETATM   11  C   UNL     1       3.231  13.924  90.630  1.00  0.00     0.172 C 
BRANCH  11  12
HETATM   12  C   UNL     1       1.869  13.597  91.255  1.00  0.00     0.136 C 
HETATM   13  C   UNL     1       1.957  12.492  92.302  1.00  0.00     0.034 C 
BRANCH  12  14
HETATM   14  O   UNL     1       1.330  14.770  91.864  1.00  0.00    -0.383 OA
HETATM   15  H   UNL     1       0.413  14.877  91.562  1.00  0.00     0.210 HD
ENDBRANCH  12  14
ENDBRANCH  11  12
BRANCH  11  16
HETATM   16  C   UNL     1       3.869  15.139  91.294  1.00  0.00     0.398 A 
HETATM   17  O   UNL     1       4.964  15.588  90.958  1.00  0.00    -0.136 OA
HETATM   18  N   UNL     1       4.858  15.532  92.474  1.00  0.00     0.142 N 
HETATM   19  HN  UNL     1       5.753  15.929  92.407  1.00  0.00     0.338 HD
BRANCH  18  20
HETATM   20  S   UNL     1       4.182  14.916  93.521  1.00  0.00     0.076 SA
HETATM   21  H   UNL     1       3.106  14.478  93.274  1.00  0.00     0.136 HD
ENDBRANCH  18  20
ENDBRANCH  11  16
ENDBRANCH   9  11
ENDBRANCH   1   7
BRANCH   4  22
HETATM   22  C   UNL     1       8.329   7.967  90.617  1.00  0.00    -0.059 C 
HETATM   23  C   UNL     1       9.059   7.034  90.825  1.00  0.00    -0.059 C 
BRANCH  23  24
HETATM   24  C   UNL     1       9.927   5.924  91.072  1.00  0.00     0.042 A 
HETATM   25  C   UNL     1      10.097   5.449  92.372  1.00  0.00     0.008 A 
HETATM   26  C   UNL     1      10.944   4.368  92.614  1.00  0.00    -0.002 A 
HETATM   27  C   UNL     1      11.621   3.762  91.554  1.00  0.00     0.011 A 
HETATM   28  C   UNL     1      11.449   4.238  90.255  1.00  0.00    -0.002 A 
HETATM   29  C   UNL     1      10.602   5.320  90.014  1.00  0.00     0.008 A 
BRANCH  27  30
HETATM   30  C   UNL     1      12.525   2.605  91.813  1.00  0.00     0.277 C 
BRANCH  30  31
HETATM   31  N   UNL     1      13.552   2.913  92.807  1.00  0.00     0.147 N 
HETATM   32  C   UNL     1      14.372   1.727  93.091  1.00  0.00     0.283 C 
HETATM   33  C   UNL     1      15.444   2.075  94.122  1.00  0.00     0.178 C 
HETATM   34  O   UNL     1      16.262   3.145  93.646  1.00  0.00    -0.350 OA
HETATM   35  C   UNL     1      15.477   4.311  93.396  1.00  0.00     0.178 C 
HETATM   36  C   UNL     1      14.406   4.018  92.350  1.00  0.00     0.283 C 
ENDBRANCH  30  31
ENDBRANCH  27  30
ENDBRANCH  23  24
ENDBRANCH   4  22
TORSDOF 10
ENDMDL
