MODEL 1
REMARK VINA RESULT:      -6.9      0.000      0.000
REMARK  11 active torsions:
REMARK  status: ('A' for Active; 'I' for Inactive)
REMARK    1  A    between atoms: O_2  and  C_18 
REMARK    2  A    between atoms: O_5  and  P_8 
REMARK    3  A    between atoms: N_6  and  C_11 
REMARK    4  A    between atoms: N_7  and  C_15 
REMARK       I    between atoms: N_7  and  C_24 
REMARK    5  A    between atoms: P_8  and  C_23 
REMARK    6  A    between atoms: C_11  and  C_14 
REMARK    7  A    between atoms: C_15  and  C_18 
REMARK    8  A    between atoms: C_15  and  C_23 
REMARK    9  A    between atoms: C_21  and  C_26 
REMARK   10  A    between atoms: C_24  and  C_25 
REMARK   11  A    between atoms: C_29  and  C_32 
ROOT
HETATM    1  O   UNL     1      16.365   4.197  94.124  1.00  0.00     0.000 OA
HETATM    2  N   UNL     1      14.507   2.672  92.599  1.00  0.00     0.000 N 
HETATM    3  C   UNL     1      14.420   4.137  92.675  1.00  0.00     0.000 C 
HETATM    4  C   UNL     1      15.113   2.141  93.828  1.00  0.00     0.000 C 
HETATM    5  C   UNL     1      15.807   4.726  92.920  1.00  0.00     0.000 C 
HETATM    6  C   UNL     1      16.482   2.776  94.047  1.00  0.00     0.000 C 
ENDROOT
BRANCH   2   7
HETATM    7  C   UNL     1      13.187   2.086  92.375  1.00  0.00     0.000 C 
BRANCH   7   8
HETATM    8  C   UNL     1      12.151   3.116  92.078  1.00  0.00     0.000 A 
HETATM    9  C   UNL     1      11.813   3.402  90.755  1.00  0.00     0.000 A 
HETATM   10  C   UNL     1      10.845   4.367  90.475  1.00  0.00     0.000 A 
HETATM   11  C   UNL     1      10.215   5.044  91.519  1.00  0.00     0.000 A 
HETATM   12  C   UNL     1      10.552   4.759  92.841  1.00  0.00     0.000 A 
HETATM   13  C   UNL     1      11.520   3.795  93.121  1.00  0.00     0.000 A 
BRANCH  11  14
HETATM   14  C   UNL     1       9.221   6.032  91.232  1.00  0.00     0.000 C 
HETATM   15  C   UNL     1       8.385   6.863  90.991  1.00  0.00     0.000 C 
BRANCH  15  16
HETATM   16  C   UNL     1       7.392   7.850  90.705  1.00  0.00     0.000 A 
HETATM   17  C   UNL     1       7.720   9.205  90.759  1.00  0.00     0.000 A 
HETATM   18  C   UNL     1       6.751  10.167  90.477  1.00  0.00     0.000 A 
HETATM   19  C   UNL     1       5.477   9.754  90.147  1.00  0.00     0.000 A 
HETATM   20  C   UNL     1       5.128   8.422  90.086  1.00  0.00     0.000 A 
HETATM   21  C   UNL     1       6.096   7.458  90.368  1.00  0.00     0.000 A 
BRANCH  19  22
HETATM   22  C   UNL     1       4.444  10.781  89.849  1.00  0.00     0.000 C 
HETATM   23  O   UNL     1       3.372  10.429  89.363  1.00  0.00     0.000 OA
HETATM   24  N   UNL     1       4.775  12.088  90.175  1.00  0.00     0.000 N 
HETATM   25  HN  UNL     1       5.671  12.301  90.597  1.00  0.00     0.000 HD
BRANCH  24  26
HETATM   26  C   UNL     1       3.871  13.191  89.969  1.00  0.00     0.000 C 
BRANCH  26  27
HETATM   27  C   UNL     1       3.306  13.749  91.282  1.00  0.00     0.000 C 
HETATM   28  C   UNL     1       2.361  12.771  91.972  1.00  0.00     0.000 C 
BRANCH  27  29
HETATM   29  O   UNL     1       4.379  14.061  92.169  1.00  0.00     0.000 OA
HETATM   30  H   UNL     1       4.367  15.018  92.337  1.00  0.00     0.000 HD
ENDBRANCH  27  29
ENDBRANCH  26  27
BRANCH  26  31
HETATM   31  C   UNL     1       4.618  14.266  89.186  1.00  0.00     0.000 C 
HETATM   32  O   UNL     1       4.560  15.462  89.468  1.00  0.00     0.000 OA
BRANCH  31  33
HETATM   33  P   UNL     1       5.318  13.744  88.126  1.00  0.00     0.000 P 
HETATM   34  H   UNL     1       5.914  14.793  87.455  1.00  0.00     0.000 HD
BRANCH  33  35
HETATM   35  O   UNL     1       4.564  13.012  87.198  1.00  0.00     0.000 OA
HETATM   36  H   UNL     1       3.665  13.270  87.463  1.00  0.00     0.000 HD
ENDBRANCH  33  35
ENDBRANCH  31  33
ENDBRANCH  26  31
ENDBRANCH  24  26
ENDBRANCH  19  22
ENDBRANCH  15  16
ENDBRANCH  11  14
ENDBRANCH   7   8
ENDBRANCH   2   7
TORSDOF 11
ENDMDL
