MODEL 1
REMARK VINA RESULT:      -6.7      0.000      0.000
REMARK  11 active torsions:
REMARK  status: ('A' for Active; 'I' for Inactive)
REMARK    1  A    between atoms: O_2  and  C_18 
REMARK    2  A    between atoms: O_5  and  P_8 
REMARK    3  A    between atoms: N_6  and  C_11 
REMARK    4  A    between atoms: N_7  and  C_15 
REMARK       I    between atoms: N_7  and  C_24 
REMARK    5  A    between atoms: P_8  and  C_23 
REMARK    6  A    between atoms: C_11  and  C_14 
REMARK    7  A    between atoms: C_15  and  C_18 
REMARK    8  A    between atoms: C_15  and  C_23 
REMARK    9  A    between atoms: C_21  and  C_26 
REMARK   10  A    between atoms: C_24  and  C_25 
REMARK   11  A    between atoms: C_29  and  C_32 
ROOT
HETATM    1  O   UNL     1      16.154   4.030  94.075  1.00  0.00     0.000 OA
HETATM    2  N   UNL     1      14.234   2.715  92.436  1.00  0.00     0.000 N 
HETATM    3  C   UNL     1      14.418   4.172  92.385  1.00  0.00     0.000 C 
HETATM    4  C   UNL     1      14.578   2.210  93.772  1.00  0.00     0.000 C 
HETATM    5  C   UNL     1      15.852   4.526  92.769  1.00  0.00     0.000 C 
HETATM    6  C   UNL     1      16.007   2.610  94.124  1.00  0.00     0.000 C 
ENDROOT
BRANCH   2   7
HETATM    7  C   UNL     1      12.862   2.354  92.081  1.00  0.00     0.000 C 
BRANCH   7   8
HETATM    8  C   UNL     1      11.930   3.514  92.165  1.00  0.00     0.000 A 
HETATM    9  C   UNL     1      11.604   4.057  93.408  1.00  0.00     0.000 A 
HETATM   10  C   UNL     1      10.729   5.141  93.488  1.00  0.00     0.000 A 
HETATM   11  C   UNL     1      10.184   5.682  92.324  1.00  0.00     0.000 A 
HETATM   12  C   UNL     1      10.509   5.141  91.082  1.00  0.00     0.000 A 
HETATM   13  C   UNL     1      11.383   4.057  91.002  1.00  0.00     0.000 A 
BRANCH  11  14
HETATM   14  C   UNL     1       9.289   6.796  92.406  1.00  0.00     0.000 C 
HETATM   15  C   UNL     1       8.537   7.732  92.475  1.00  0.00     0.000 C 
BRANCH  15  16
HETATM   16  C   UNL     1       7.643   8.844  92.555  1.00  0.00     0.000 A 
HETATM   17  C   UNL     1       6.861   9.190  91.453  1.00  0.00     0.000 A 
HETATM   18  C   UNL     1       5.986  10.274  91.533  1.00  0.00     0.000 A 
HETATM   19  C   UNL     1       5.913  10.986  92.712  1.00  0.00     0.000 A 
HETATM   20  C   UNL     1       6.676  10.664  93.815  1.00  0.00     0.000 A 
HETATM   21  C   UNL     1       7.551   9.581  93.736  1.00  0.00     0.000 A 
BRANCH  19  22
HETATM   22  C   UNL     1       4.983  12.142  92.796  1.00  0.00     0.000 C 
HETATM   23  O   UNL     1       4.755  12.650  93.892  1.00  0.00     0.000 OA
HETATM   24  N   UNL     1       4.450  12.582  91.593  1.00  0.00     0.000 N 
HETATM   25  HN  UNL     1       4.704  12.129  90.723  1.00  0.00     0.000 HD
BRANCH  24  26
HETATM   26  C   UNL     1       3.553  13.706  91.507  1.00  0.00     0.000 C 
BRANCH  26  27
HETATM   27  C   UNL     1       3.517  14.332  90.107  1.00  0.00     0.000 C 
HETATM   28  C   UNL     1       4.800  15.083  89.770  1.00  0.00     0.000 C 
BRANCH  27  29
HETATM   29  O   UNL     1       3.309  13.310  89.133  1.00  0.00     0.000 OA
HETATM   30  H   UNL     1       2.938  13.721  88.334  1.00  0.00     0.000 HD
ENDBRANCH  27  29
ENDBRANCH  26  27
BRANCH  26  31
HETATM   31  C   UNL     1       2.169  13.231  91.938  1.00  0.00     0.000 C 
HETATM   32  O   UNL     1       1.683  12.163  91.570  1.00  0.00     0.000 OA
BRANCH  31  33
HETATM   33  P   UNL     1       1.532  14.147  92.740  1.00  0.00     0.000 P 
HETATM   34  H   UNL     1       0.349  14.500  92.123  1.00  0.00     0.000 HD
BRANCH  33  35
HETATM   35  O   UNL     1       2.245  15.324  93.007  1.00  0.00     0.000 OA
HETATM   36  H   UNL     1       3.157  14.990  92.960  1.00  0.00     0.000 HD
ENDBRANCH  33  35
ENDBRANCH  31  33
ENDBRANCH  26  31
ENDBRANCH  24  26
ENDBRANCH  19  22
ENDBRANCH  15  16
ENDBRANCH  11  14
ENDBRANCH   7   8
ENDBRANCH   2   7
TORSDOF 11
ENDMDL
