MODEL 1
REMARK VINA RESULT:      -7.0      0.000      0.000
REMARK  10 active torsions:
REMARK  status: ('A' for Active; 'I' for Inactive)
REMARK    1  A    between atoms: O_2  and  C_16 
REMARK    2  A    between atoms: N_5  and  C_9 
REMARK    3  A    between atoms: N_6  and  C_13 
REMARK       I    between atoms: N_6  and  C_22 
REMARK    4  A    between atoms: C_9  and  C_12 
REMARK    5  A    between atoms: C_13  and  C_16 
REMARK    6  A    between atoms: C_13  and  C_21 
REMARK    7  A    between atoms: C_19  and  C_24 
REMARK    8  A    between atoms: C_22  and  C_23 
REMARK    9  A    between atoms: C_27  and  C_30 
REMARK   10  A    between atoms: N_33  and  S_34 
ROOT
HETATM    1  C   UNL     1       5.862  11.164  89.757  1.00  0.00     0.056 A 
HETATM    2  C   UNL     1       5.400  10.125  90.538  1.00  0.00     0.005 A 
HETATM    3  C   UNL     1       7.133  11.173  89.221  1.00  0.00     0.005 A 
HETATM    4  C   UNL     1       7.538   9.033  90.267  1.00  0.00     0.042 A 
HETATM    5  C   UNL     1       6.247   9.048  90.797  1.00  0.00     0.008 A 
HETATM    6  C   UNL     1       7.981  10.096  89.479  1.00  0.00     0.008 A 
ENDROOT
BRANCH   1   7
HETATM    7  C   UNL     1       4.959  12.310  89.480  1.00  0.00     0.254 C 
HETATM    8  O   UNL     1       4.927  12.789  88.349  1.00  0.00    -0.268 OA
HETATM    9  N   UNL     1       4.184  12.745  90.546  1.00  0.00    -0.337 N 
HETATM   10  HN  UNL     1       4.246  12.285  91.447  1.00  0.00     0.164 HD
BRANCH   9  11
HETATM   11  C   UNL     1       3.243  13.830  90.430  1.00  0.00     0.172 C 
BRANCH  11  12
HETATM   12  C   UNL     1       1.945  13.576  91.207  1.00  0.00     0.136 C 
HETATM   13  C   UNL     1       2.015  12.317  92.064  1.00  0.00     0.034 C 
BRANCH  12  14
HETATM   14  O   UNL     1       1.667  14.695  92.049  1.00  0.00    -0.383 OA
HETATM   15  H   UNL     1       2.380  15.346  91.936  1.00  0.00     0.210 HD
ENDBRANCH  12  14
ENDBRANCH  11  12
BRANCH  11  16
HETATM   16  C   UNL     1       3.936  15.102  90.907  1.00  0.00     0.398 A 
HETATM   17  O   UNL     1       5.053  15.441  90.521  1.00  0.00    -0.136 OA
HETATM   18  N   UNL     1       4.936  15.625  92.026  1.00  0.00     0.142 N 
HETATM   19  HN  UNL     1       5.849  15.963  91.911  1.00  0.00     0.338 HD
BRANCH  18  20
HETATM   20  S   UNL     1       4.225  15.210  93.146  1.00  0.00     0.076 SA
HETATM   21  H   UNL     1       3.334  15.912  93.500  1.00  0.00     0.136 HD
ENDBRANCH  18  20
ENDBRANCH  11  16
ENDBRANCH   9  11
ENDBRANCH   1   7
BRANCH   4  22
HETATM   22  C   UNL     1       8.407   7.930  90.534  1.00  0.00    -0.059 C 
HETATM   23  C   UNL     1       9.139   7.003  90.759  1.00  0.00    -0.059 C 
BRANCH  23  24
HETATM   24  C   UNL     1      10.009   5.899  91.027  1.00  0.00     0.042 A 
HETATM   25  C   UNL     1      10.153   5.428  92.332  1.00  0.00     0.008 A 
HETATM   26  C   UNL     1      11.003   4.354  92.594  1.00  0.00    -0.002 A 
HETATM   27  C   UNL     1      11.706   3.750  91.550  1.00  0.00     0.011 A 
HETATM   28  C   UNL     1      11.560   4.222  90.246  1.00  0.00    -0.002 A 
HETATM   29  C   UNL     1      10.710   5.297  89.985  1.00  0.00     0.008 A 
BRANCH  27  30
HETATM   30  C   UNL     1      12.612   2.600  91.831  1.00  0.00     0.277 C 
BRANCH  30  31
HETATM   31  N   UNL     1      13.632   2.925  92.827  1.00  0.00     0.147 N 
HETATM   32  C   UNL     1      14.491   1.762  93.090  1.00  0.00     0.283 C 
HETATM   33  C   UNL     1      15.554   2.128  94.124  1.00  0.00     0.178 C 
HETATM   34  O   UNL     1      16.336   3.232  93.663  1.00  0.00    -0.350 OA
HETATM   35  C   UNL     1      15.512   4.376  93.434  1.00  0.00     0.178 C 
HETATM   36  C   UNL     1      14.448   4.065  92.386  1.00  0.00     0.283 C 
ENDBRANCH  30  31
ENDBRANCH  27  30
ENDBRANCH  23  24
ENDBRANCH   4  22
TORSDOF 10
ENDMDL
