MODEL 1
REMARK VINA RESULT:      -6.4      0.000      0.000
REMARK  11 active torsions:
REMARK  status: ('A' for Active; 'I' for Inactive)
REMARK    1  A    between atoms: O_2  and  C_18 
REMARK    2  A    between atoms: O_5  and  P_8 
REMARK    3  A    between atoms: N_6  and  C_11 
REMARK    4  A    between atoms: N_7  and  C_15 
REMARK       I    between atoms: N_7  and  C_24 
REMARK    5  A    between atoms: P_8  and  C_23 
REMARK    6  A    between atoms: C_11  and  C_14 
REMARK    7  A    between atoms: C_15  and  C_18 
REMARK    8  A    between atoms: C_15  and  C_23 
REMARK    9  A    between atoms: C_21  and  C_26 
REMARK   10  A    between atoms: C_24  and  C_25 
REMARK   11  A    between atoms: C_29  and  C_32 
ROOT
HETATM    1  O   UNL     1      16.051   3.534  94.124  1.00  0.00     0.000 OA
HETATM    2  N   UNL     1      14.090   2.698  92.238  1.00  0.00     0.000 N 
HETATM    3  C   UNL     1      14.056   4.039  92.838  1.00  0.00     0.000 C 
HETATM    4  C   UNL     1      14.719   1.748  93.165  1.00  0.00     0.000 C 
HETATM    5  C   UNL     1      15.470   4.472  93.216  1.00  0.00     0.000 C 
HETATM    6  C   UNL     1      16.116   2.234  93.536  1.00  0.00     0.000 C 
ENDROOT
BRANCH   2   7
HETATM    7  C   UNL     1      12.744   2.258  91.877  1.00  0.00     0.000 C 
BRANCH   7   8
HETATM    8  C   UNL     1      11.818   3.402  91.636  1.00  0.00     0.000 A 
HETATM    9  C   UNL     1      11.835   4.066  90.409  1.00  0.00     0.000 A 
HETATM   10  C   UNL     1      10.971   5.137  90.184  1.00  0.00     0.000 A 
HETATM   11  C   UNL     1      10.089   5.543  91.185  1.00  0.00     0.000 A 
HETATM   12  C   UNL     1      10.071   4.880  92.410  1.00  0.00     0.000 A 
HETATM   13  C   UNL     1      10.935   3.809  92.637  1.00  0.00     0.000 A 
BRANCH  11  14
HETATM   14  C   UNL     1       9.201   6.641  90.953  1.00  0.00     0.000 C 
HETATM   15  C   UNL     1       8.455   7.563  90.757  1.00  0.00     0.000 C 
BRANCH  15  16
HETATM   16  C   UNL     1       7.567   8.659  90.526  1.00  0.00     0.000 A 
HETATM   17  C   UNL     1       6.257   8.607  91.003  1.00  0.00     0.000 A 
HETATM   18  C   UNL     1       5.392   9.679  90.780  1.00  0.00     0.000 A 
HETATM   19  C   UNL     1       5.856  10.777  90.086  1.00  0.00     0.000 A 
HETATM   20  C   UNL     1       7.146  10.852  89.604  1.00  0.00     0.000 A 
HETATM   21  C   UNL     1       8.012   9.781  89.827  1.00  0.00     0.000 A 
BRANCH  19  22
HETATM   22  C   UNL     1       4.934  11.917  89.847  1.00  0.00     0.000 C 
HETATM   23  O   UNL     1       4.513  12.120  88.710  1.00  0.00     0.000 OA
HETATM   24  N   UNL     1       4.593  12.668  90.963  1.00  0.00     0.000 N 
HETATM   25  HN  UNL     1       4.960  12.426  91.876  1.00  0.00     0.000 HD
BRANCH  24  26
HETATM   26  C   UNL     1       3.691  13.789  90.897  1.00  0.00     0.000 C 
BRANCH  26  27
HETATM   27  C   UNL     1       2.461  13.615  91.798  1.00  0.00     0.000 C 
HETATM   28  C   UNL     1       2.804  12.973  93.137  1.00  0.00     0.000 C 
BRANCH  27  29
HETATM   29  O   UNL     1       1.859  14.887  92.034  1.00  0.00     0.000 OA
HETATM   30  H   UNL     1       2.435  15.391  92.633  1.00  0.00     0.000 HD
ENDBRANCH  27  29
ENDBRANCH  26  27
BRANCH  26  31
HETATM   31  C   UNL     1       4.477  15.042  91.269  1.00  0.00     0.000 C 
HETATM   32  O   UNL     1       4.500  15.505  92.408  1.00  0.00     0.000 OA
BRANCH  31  33
HETATM   33  P   UNL     1       5.110  15.598  90.184  1.00  0.00     0.000 P 
HETATM   34  H   UNL     1       4.766  16.934  90.131  1.00  0.00     0.000 HD
BRANCH  33  35
HETATM   35  O   UNL     1       4.805  15.027  88.940  1.00  0.00     0.000 OA
HETATM   36  H   UNL     1       4.909  15.802  88.362  1.00  0.00     0.000 HD
ENDBRANCH  33  35
ENDBRANCH  31  33
ENDBRANCH  26  31
ENDBRANCH  24  26
ENDBRANCH  19  22
ENDBRANCH  15  16
ENDBRANCH  11  14
ENDBRANCH   7   8
ENDBRANCH   2   7
TORSDOF 11
ENDMDL
MODEL 2
REMARK VINA RESULT:      -5.7      1.390      2.019
REMARK  11 active torsions:
REMARK  status: ('A' for Active; 'I' for Inactive)
REMARK    1  A    between atoms: O_2  and  C_18 
REMARK    2  A    between atoms: O_5  and  P_8 
REMARK    3  A    between atoms: N_6  and  C_11 
REMARK    4  A    between atoms: N_7  and  C_15 
REMARK       I    between atoms: N_7  and  C_24 
REMARK    5  A    between atoms: P_8  and  C_23 
REMARK    6  A    between atoms: C_11  and  C_14 
REMARK    7  A    between atoms: C_15  and  C_18 
REMARK    8  A    between atoms: C_15  and  C_23 
REMARK    9  A    between atoms: C_21  and  C_26 
REMARK   10  A    between atoms: C_24  and  C_25 
REMARK   11  A    between atoms: C_29  and  C_32 
ROOT
HETATM    1  O   UNL     1      16.373   2.982  93.686  1.00  0.00     0.000 OA
HETATM    2  N   UNL     1      13.729   2.906  92.633  1.00  0.00     0.000 N 
HETATM    3  C   UNL     1      14.438   1.678  93.018  1.00  0.00     0.000 C 
HETATM    4  C   UNL     1      14.693   3.934  92.217  1.00  0.00     0.000 C 
HETATM    5  C   UNL     1      15.445   1.987  94.123  1.00  0.00     0.000 C 
HETATM    6  C   UNL     1      15.694   4.190  93.339  1.00  0.00     0.000 C 
ENDROOT
BRANCH   2   7
HETATM    7  C   UNL     1      12.766   2.634  91.567  1.00  0.00     0.000 C 
BRANCH   7   8
HETATM    8  C   UNL     1      11.652   3.624  91.544  1.00  0.00     0.000 A 
HETATM    9  C   UNL     1      11.003   3.914  90.343  1.00  0.00     0.000 A 
HETATM   10  C   UNL     1       9.962   4.842  90.319  1.00  0.00     0.000 A 
HETATM   11  C   UNL     1       9.568   5.477  91.496  1.00  0.00     0.000 A 
HETATM   12  C   UNL     1      10.215   5.188  92.696  1.00  0.00     0.000 A 
HETATM   13  C   UNL     1      11.257   4.261  92.720  1.00  0.00     0.000 A 
BRANCH  11  14
HETATM   14  C   UNL     1       8.498   6.427  91.472  1.00  0.00     0.000 C 
HETATM   15  C   UNL     1       7.599   7.225  91.452  1.00  0.00     0.000 C 
BRANCH  15  16
HETATM   16  C   UNL     1       6.531   8.174  91.429  1.00  0.00     0.000 A 
HETATM   17  C   UNL     1       6.626   9.311  90.625  1.00  0.00     0.000 A 
HETATM   18  C   UNL     1       5.582  10.235  90.600  1.00  0.00     0.000 A 
HETATM   19  C   UNL     1       4.468  10.004  91.378  1.00  0.00     0.000 A 
HETATM   20  C   UNL     1       4.349   8.889  92.182  1.00  0.00     0.000 A 
HETATM   21  C   UNL     1       5.393   7.963  92.207  1.00  0.00     0.000 A 
BRANCH  19  22
HETATM   22  C   UNL     1       3.357  10.990  91.353  1.00  0.00     0.000 C 
HETATM   23  O   UNL     1       2.214  10.601  91.127  1.00  0.00     0.000 OA
HETATM   24  N   UNL     1       3.707  12.307  91.618  1.00  0.00     0.000 N 
HETATM   25  HN  UNL     1       4.669  12.551  91.821  1.00  0.00     0.000 HD
BRANCH  24  26
HETATM   26  C   UNL     1       2.740  13.374  91.653  1.00  0.00     0.000 C 
BRANCH  26  27
HETATM   27  C   UNL     1       2.909  14.288  92.874  1.00  0.00     0.000 C 
HETATM   28  C   UNL     1       1.580  14.836  93.382  1.00  0.00     0.000 C 
BRANCH  27  29
HETATM   29  O   UNL     1       3.546  13.565  93.927  1.00  0.00     0.000 OA
HETATM   30  H   UNL     1       4.467  13.868  93.990  1.00  0.00     0.000 HD
ENDBRANCH  27  29
ENDBRANCH  26  27
BRANCH  26  31
HETATM   31  C   UNL     1       2.864  14.159  90.351  1.00  0.00     0.000 C 
HETATM   32  O   UNL     1       1.893  14.490  89.673  1.00  0.00     0.000 OA
BRANCH  31  33
HETATM   33  P   UNL     1       4.174  14.410  90.020  1.00  0.00     0.000 P 
HETATM   34  H   UNL     1       4.353  15.779  90.009  1.00  0.00     0.000 HD
BRANCH  33  35
HETATM   35  O   UNL     1       4.595  13.912  88.778  1.00  0.00     0.000 OA
HETATM   36  H   UNL     1       4.637  14.737  88.265  1.00  0.00     0.000 HD
ENDBRANCH  33  35
ENDBRANCH  31  33
ENDBRANCH  26  31
ENDBRANCH  24  26
ENDBRANCH  19  22
ENDBRANCH  15  16
ENDBRANCH  11  14
ENDBRANCH   7   8
ENDBRANCH   2   7
TORSDOF 11
ENDMDL
MODEL 3
REMARK VINA RESULT:      -5.4      1.995      2.981
REMARK  11 active torsions:
REMARK  status: ('A' for Active; 'I' for Inactive)
REMARK    1  A    between atoms: O_2  and  C_18 
REMARK    2  A    between atoms: O_5  and  P_8 
REMARK    3  A    between atoms: N_6  and  C_11 
REMARK    4  A    between atoms: N_7  and  C_15 
REMARK       I    between atoms: N_7  and  C_24 
REMARK    5  A    between atoms: P_8  and  C_23 
REMARK    6  A    between atoms: C_11  and  C_14 
REMARK    7  A    between atoms: C_15  and  C_18 
REMARK    8  A    between atoms: C_15  and  C_23 
REMARK    9  A    between atoms: C_21  and  C_26 
REMARK   10  A    between atoms: C_24  and  C_25 
REMARK   11  A    between atoms: C_29  and  C_32 
ROOT
HETATM    1  O   UNL     1      16.698   2.530  92.820  1.00  0.00     0.000 OA
HETATM    2  N   UNL     1      13.903   2.963  93.142  1.00  0.00     0.000 N 
HETATM    3  C   UNL     1      14.658   2.102  94.063  1.00  0.00     0.000 C 
HETATM    4  C   UNL     1      14.532   2.952  91.813  1.00  0.00     0.000 C 
HETATM    5  C   UNL     1      16.113   2.559  94.123  1.00  0.00     0.000 C 
HETATM    6  C   UNL     1      15.989   3.388  91.926  1.00  0.00     0.000 C 
ENDROOT
BRANCH   2   7
HETATM    7  C   UNL     1      12.508   2.536  93.060  1.00  0.00     0.000 C 
BRANCH   7   8
HETATM    8  C   UNL     1      11.561   3.687  93.052  1.00  0.00     0.000 A 
HETATM    9  C   UNL     1      11.549   4.587  94.119  1.00  0.00     0.000 A 
HETATM   10  C   UNL     1      10.662   5.663  94.113  1.00  0.00     0.000 A 
HETATM   11  C   UNL     1       9.789   5.841  93.039  1.00  0.00     0.000 A 
HETATM   12  C   UNL     1       9.801   4.943  91.973  1.00  0.00     0.000 A 
HETATM   13  C   UNL     1      10.687   3.866  91.979  1.00  0.00     0.000 A 
BRANCH  11  14
HETATM   14  C   UNL     1       8.881   6.946  93.032  1.00  0.00     0.000 C 
HETATM   15  C   UNL     1       8.118   7.875  93.027  1.00  0.00     0.000 C 
BRANCH  15  16
HETATM   16  C   UNL     1       7.210   8.980  93.021  1.00  0.00     0.000 A 
HETATM   17  C   UNL     1       7.327   9.982  93.985  1.00  0.00     0.000 A 
HETATM   18  C   UNL     1       6.443  11.061  93.977  1.00  0.00     0.000 A 
HETATM   19  C   UNL     1       5.465  11.115  93.007  1.00  0.00     0.000 A 
HETATM   20  C   UNL     1       5.329  10.137  92.044  1.00  0.00     0.000 A 
HETATM   21  C   UNL     1       6.212   9.057  92.050  1.00  0.00     0.000 A 
BRANCH  19  22
HETATM   22  C   UNL     1       4.523  12.264  93.000  1.00  0.00     0.000 C 
HETATM   23  O   UNL     1       3.999  12.616  94.054  1.00  0.00     0.000 OA
HETATM   24  N   UNL     1       4.323  12.879  91.772  1.00  0.00     0.000 N 
HETATM   25  HN  UNL     1       4.810  12.548  90.947  1.00  0.00     0.000 HD
BRANCH  24  26
HETATM   26  C   UNL     1       3.458  14.020  91.608  1.00  0.00     0.000 C 
BRANCH  26  27
HETATM   27  C   UNL     1       3.534  14.624  90.200  1.00  0.00     0.000 C 
HETATM   28  C   UNL     1       4.909  15.203  89.885  1.00  0.00     0.000 C 
BRANCH  27  29
HETATM   29  O   UNL     1       3.220  13.622  89.233  1.00  0.00     0.000 OA
HETATM   30  H   UNL     1       2.596  14.001  88.592  1.00  0.00     0.000 HD
ENDBRANCH  27  29
ENDBRANCH  26  27
BRANCH  26  31
HETATM   31  C   UNL     1       2.038  13.581  91.948  1.00  0.00     0.000 C 
HETATM   32  O   UNL     1       1.525  12.561  91.491  1.00  0.00     0.000 OA
BRANCH  31  33
HETATM   33  P   UNL     1       1.404  14.472  92.780  1.00  0.00     0.000 P 
HETATM   34  H   UNL     1       0.938  15.515  92.006  1.00  0.00     0.000 HD
BRANCH  33  35
HETATM   35  O   UNL     1       2.191  15.015  93.805  1.00  0.00     0.000 OA
HETATM   36  H   UNL     1       1.882  15.937  93.792  1.00  0.00     0.000 HD
ENDBRANCH  33  35
ENDBRANCH  31  33
ENDBRANCH  26  31
ENDBRANCH  24  26
ENDBRANCH  19  22
ENDBRANCH  15  16
ENDBRANCH  11  14
ENDBRANCH   7   8
ENDBRANCH   2   7
TORSDOF 11
ENDMDL
MODEL 4
REMARK VINA RESULT:      -4.5      1.368      1.758
REMARK  11 active torsions:
REMARK  status: ('A' for Active; 'I' for Inactive)
REMARK    1  A    between atoms: O_2  and  C_18 
REMARK    2  A    between atoms: O_5  and  P_8 
REMARK    3  A    between atoms: N_6  and  C_11 
REMARK    4  A    between atoms: N_7  and  C_15 
REMARK       I    between atoms: N_7  and  C_24 
REMARK    5  A    between atoms: P_8  and  C_23 
REMARK    6  A    between atoms: C_11  and  C_14 
REMARK    7  A    between atoms: C_15  and  C_18 
REMARK    8  A    between atoms: C_15  and  C_23 
REMARK    9  A    between atoms: C_21  and  C_26 
REMARK   10  A    between atoms: C_24  and  C_25 
REMARK   11  A    between atoms: C_29  and  C_32 
ROOT
HETATM    1  O   UNL     1      16.936   2.429  92.486  1.00  0.00     0.000 OA
HETATM    2  N   UNL     1      14.209   2.922  93.135  1.00  0.00     0.000 N 
HETATM    3  C   UNL     1      15.145   2.367  94.123  1.00  0.00     0.000 C 
HETATM    4  C   UNL     1      14.618   2.531  91.779  1.00  0.00     0.000 C 
HETATM    5  C   UNL     1      16.565   2.831  93.806  1.00  0.00     0.000 C 
HETATM    6  C   UNL     1      16.049   2.989  91.517  1.00  0.00     0.000 C 
ENDROOT
BRANCH   2   7
HETATM    7  C   UNL     1      12.843   2.482  93.413  1.00  0.00     0.000 C 
BRANCH   7   8
HETATM    8  C   UNL     1      11.832   3.530  93.093  1.00  0.00     0.000 A 
HETATM    9  C   UNL     1      11.210   4.236  94.124  1.00  0.00     0.000 A 
HETATM   10  C   UNL     1      10.263   5.215  93.826  1.00  0.00     0.000 A 
HETATM   11  C   UNL     1       9.940   5.490  92.497  1.00  0.00     0.000 A 
HETATM   12  C   UNL     1      10.561   4.786  91.467  1.00  0.00     0.000 A 
HETATM   13  C   UNL     1      11.507   3.806  91.765  1.00  0.00     0.000 A 
BRANCH  11  14
HETATM   14  C   UNL     1       8.970   6.496  92.191  1.00  0.00     0.000 C 
HETATM   15  C   UNL     1       8.154   7.341  91.934  1.00  0.00     0.000 C 
BRANCH  15  16
HETATM   16  C   UNL     1       7.184   8.346  91.628  1.00  0.00     0.000 A 
HETATM   17  C   UNL     1       6.262   8.135  90.603  1.00  0.00     0.000 A 
HETATM   18  C   UNL     1       5.314   9.114  90.308  1.00  0.00     0.000 A 
HETATM   19  C   UNL     1       5.309  10.281  91.043  1.00  0.00     0.000 A 
HETATM   20  C   UNL     1       6.211  10.514  92.060  1.00  0.00     0.000 A 
HETATM   21  C   UNL     1       7.159   9.535  92.357  1.00  0.00     0.000 A 
BRANCH  19  22
HETATM   22  C   UNL     1       4.300  11.325  90.726  1.00  0.00     0.000 C 
HETATM   23  O   UNL     1       3.405  11.071  89.923  1.00  0.00     0.000 OA
HETATM   24  N   UNL     1       4.440  12.531  91.400  1.00  0.00     0.000 N 
HETATM   25  HN  UNL     1       5.191  12.660  92.068  1.00  0.00     0.000 HD
BRANCH  24  26
HETATM   26  C   UNL     1       3.528  13.631  91.219  1.00  0.00     0.000 C 
BRANCH  26  27
HETATM   27  C   UNL     1       2.586  13.824  92.414  1.00  0.00     0.000 C 
HETATM   28  C   UNL     1       1.247  13.121  92.222  1.00  0.00     0.000 C 
BRANCH  27  29
HETATM   29  O   UNL     1       3.207  13.322  93.597  1.00  0.00     0.000 OA
HETATM   30  H   UNL     1       2.515  13.160  94.260  1.00  0.00     0.000 HD
ENDBRANCH  27  29
ENDBRANCH  26  27
BRANCH  26  31
HETATM   31  C   UNL     1       4.356  14.885  90.957  1.00  0.00     0.000 C 
HETATM   32  O   UNL     1       4.754  15.624  91.855  1.00  0.00     0.000 OA
BRANCH  31  33
HETATM   33  P   UNL     1       4.562  15.100  89.616  1.00  0.00     0.000 P 
HETATM   34  H   UNL     1       3.327  15.170  89.003  1.00  0.00     0.000 HD
BRANCH  33  35
HETATM   35  O   UNL     1       5.317  14.123  88.950  1.00  0.00     0.000 OA
HETATM   36  H   UNL     1       4.963  13.317  89.364  1.00  0.00     0.000 HD
ENDBRANCH  33  35
ENDBRANCH  31  33
ENDBRANCH  26  31
ENDBRANCH  24  26
ENDBRANCH  19  22
ENDBRANCH  15  16
ENDBRANCH  11  14
ENDBRANCH   7   8
ENDBRANCH   2   7
TORSDOF 11
ENDMDL
MODEL 5
REMARK VINA RESULT:      -4.3      3.659     12.617
REMARK  11 active torsions:
REMARK  status: ('A' for Active; 'I' for Inactive)
REMARK    1  A    between atoms: O_2  and  C_18 
REMARK    2  A    between atoms: O_5  and  P_8 
REMARK    3  A    between atoms: N_6  and  C_11 
REMARK    4  A    between atoms: N_7  and  C_15 
REMARK       I    between atoms: N_7  and  C_24 
REMARK    5  A    between atoms: P_8  and  C_23 
REMARK    6  A    between atoms: C_11  and  C_14 
REMARK    7  A    between atoms: C_15  and  C_18 
REMARK    8  A    between atoms: C_15  and  C_23 
REMARK    9  A    between atoms: C_21  and  C_26 
REMARK   10  A    between atoms: C_24  and  C_25 
REMARK   11  A    between atoms: C_29  and  C_32 
ROOT
HETATM    1  O   UNL     1       3.773  14.674  89.425  1.00  0.00     0.000 OA
HETATM    2  N   UNL     1       3.099  14.280  92.162  1.00  0.00     0.000 N 
HETATM    3  C   UNL     1       4.385  14.869  91.765  1.00  0.00     0.000 C 
HETATM    4  C   UNL     1       2.616  13.372  91.113  1.00  0.00     0.000 C 
HETATM    5  C   UNL     1       4.234  15.584  90.425  1.00  0.00     0.000 C 
HETATM    6  C   UNL     1       2.508  14.121  89.789  1.00  0.00     0.000 C 
ENDROOT
BRANCH   2   7
HETATM    7  C   UNL     1       3.222  13.581  93.440  1.00  0.00     0.000 C 
BRANCH   7   8
HETATM    8  C   UNL     1       4.176  12.437  93.371  1.00  0.00     0.000 A 
HETATM    9  C   UNL     1       3.893  11.342  92.552  1.00  0.00     0.000 A 
HETATM   10  C   UNL     1       4.783  10.271  92.489  1.00  0.00     0.000 A 
HETATM   11  C   UNL     1       5.956  10.295  93.242  1.00  0.00     0.000 A 
HETATM   12  C   UNL     1       6.240  11.387  94.059  1.00  0.00     0.000 A 
HETATM   13  C   UNL     1       5.350  12.458  94.124  1.00  0.00     0.000 A 
BRANCH  11  14
HETATM   14  C   UNL     1       6.870   9.196  93.175  1.00  0.00     0.000 C 
HETATM   15  C   UNL     1       7.638   8.272  93.118  1.00  0.00     0.000 C 
BRANCH  15  16
HETATM   16  C   UNL     1       8.552   7.175  93.050  1.00  0.00     0.000 A 
HETATM   17  C   UNL     1       8.505   6.295  91.968  1.00  0.00     0.000 A 
HETATM   18  C   UNL     1       9.398   5.226  91.901  1.00  0.00     0.000 A 
HETATM   19  C   UNL     1      10.318   5.061  92.915  1.00  0.00     0.000 A 
HETATM   20  C   UNL     1      10.384   5.916  93.995  1.00  0.00     0.000 A 
HETATM   21  C   UNL     1       9.491   6.985  94.064  1.00  0.00     0.000 A 
BRANCH  19  22
HETATM   22  C   UNL     1      11.268   3.921  92.844  1.00  0.00     0.000 C 
HETATM   23  O   UNL     1      10.840   2.775  92.964  1.00  0.00     0.000 OA
HETATM   24  N   UNL     1      12.597   4.250  92.616  1.00  0.00     0.000 N 
HETATM   25  HN  UNL     1      12.873   5.218  92.502  1.00  0.00     0.000 HD
BRANCH  24  26
HETATM   26  C   UNL     1      13.633   3.255  92.498  1.00  0.00     0.000 C 
BRANCH  26  27
HETATM   27  C   UNL     1      14.149   3.104  91.061  1.00  0.00     0.000 C 
HETATM   28  C   UNL     1      13.215   3.738  90.036  1.00  0.00     0.000 C 
BRANCH  27  29
HETATM   29  O   UNL     1      15.437   3.709  90.951  1.00  0.00     0.000 OA
HETATM   30  H   UNL     1      15.324   4.600  90.579  1.00  0.00     0.000 HD
ENDBRANCH  27  29
ENDBRANCH  26  27
BRANCH  26  31
HETATM   31  C   UNL     1      14.758   3.638  93.454  1.00  0.00     0.000 C 
HETATM   32  O   UNL     1      15.149   4.795  93.599  1.00  0.00     0.000 OA
BRANCH  31  33
HETATM   33  P   UNL     1      15.294   2.544  94.089  1.00  0.00     0.000 P 
HETATM   34  H   UNL     1      14.838   2.547  95.392  1.00  0.00     0.000 HD
BRANCH  33  35
HETATM   35  O   UNL     1      16.694   2.484  94.123  1.00  0.00     0.000 OA
HETATM   36  H   UNL     1      16.822   1.730  94.724  1.00  0.00     0.000 HD
ENDBRANCH  33  35
ENDBRANCH  31  33
ENDBRANCH  26  31
ENDBRANCH  24  26
ENDBRANCH  19  22
ENDBRANCH  15  16
ENDBRANCH  11  14
ENDBRANCH   7   8
ENDBRANCH   2   7
TORSDOF 11
ENDMDL
MODEL 6
REMARK VINA RESULT:      -4.3      1.552      2.458
REMARK  11 active torsions:
REMARK  status: ('A' for Active; 'I' for Inactive)
REMARK    1  A    between atoms: O_2  and  C_18 
REMARK    2  A    between atoms: O_5  and  P_8 
REMARK    3  A    between atoms: N_6  and  C_11 
REMARK    4  A    between atoms: N_7  and  C_15 
REMARK       I    between atoms: N_7  and  C_24 
REMARK    5  A    between atoms: P_8  and  C_23 
REMARK    6  A    between atoms: C_11  and  C_14 
REMARK    7  A    between atoms: C_15  and  C_18 
REMARK    8  A    between atoms: C_15  and  C_23 
REMARK    9  A    between atoms: C_21  and  C_26 
REMARK   10  A    between atoms: C_24  and  C_25 
REMARK   11  A    between atoms: C_29  and  C_32 
ROOT
HETATM    1  O   UNL     1      16.684   2.464  93.033  1.00  0.00     0.000 OA
HETATM    2  N   UNL     1      13.902   2.884  92.602  1.00  0.00     0.000 N 
HETATM    3  C   UNL     1      14.405   2.296  93.851  1.00  0.00     0.000 C 
HETATM    4  C   UNL     1      14.812   2.566  91.493  1.00  0.00     0.000 C 
HETATM    5  C   UNL     1      15.822   2.795  94.124  1.00  0.00     0.000 C 
HETATM    6  C   UNL     1      16.219   3.058  91.821  1.00  0.00     0.000 C 
ENDROOT
BRANCH   2   7
HETATM    7  C   UNL     1      12.549   2.411  92.316  1.00  0.00     0.000 C 
BRANCH   7   8
HETATM    8  C   UNL     1      11.579   3.531  92.150  1.00  0.00     0.000 A 
HETATM    9  C   UNL     1      11.330   4.400  93.213  1.00  0.00     0.000 A 
HETATM   10  C   UNL     1      10.421   5.447  93.060  1.00  0.00     0.000 A 
HETATM   11  C   UNL     1       9.763   5.625  91.843  1.00  0.00     0.000 A 
HETATM   12  C   UNL     1      10.010   4.757  90.781  1.00  0.00     0.000 A 
HETATM   13  C   UNL     1      10.919   3.710  90.934  1.00  0.00     0.000 A 
BRANCH  11  14
HETATM   14  C   UNL     1       8.832   6.700  91.686  1.00  0.00     0.000 C 
HETATM   15  C   UNL     1       8.049   7.603  91.553  1.00  0.00     0.000 C 
BRANCH  15  16
HETATM   16  C   UNL     1       7.118   8.676  91.396  1.00  0.00     0.000 A 
HETATM   17  C   UNL     1       7.362   9.677  90.455  1.00  0.00     0.000 A 
HETATM   18  C   UNL     1       6.452  10.723  90.300  1.00  0.00     0.000 A 
HETATM   19  C   UNL     1       5.320  10.745  91.088  1.00  0.00     0.000 A 
HETATM   20  C   UNL     1       5.057   9.768  92.026  1.00  0.00     0.000 A 
HETATM   21  C   UNL     1       5.966   8.721  92.182  1.00  0.00     0.000 A 
BRANCH  19  22
HETATM   22  C   UNL     1       4.353  11.860  90.924  1.00  0.00     0.000 C 
HETATM   23  O   UNL     1       3.359  11.694  90.221  1.00  0.00     0.000 OA
HETATM   24  N   UNL     1       4.646  13.026  91.618  1.00  0.00     0.000 N 
HETATM   25  HN  UNL     1       5.473  13.082  92.201  1.00  0.00     0.000 HD
BRANCH  24  26
HETATM   26  C   UNL     1       3.792  14.187  91.580  1.00  0.00     0.000 C 
BRANCH  26  27
HETATM   27  C   UNL     1       3.740  14.840  90.193  1.00  0.00     0.000 C 
HETATM   28  C   UNL     1       5.070  14.747  89.454  1.00  0.00     0.000 C 
BRANCH  27  29
HETATM   29  O   UNL     1       2.728  14.211  89.407  1.00  0.00     0.000 OA
HETATM   30  H   UNL     1       2.954  13.269  89.316  1.00  0.00     0.000 HD
ENDBRANCH  27  29
ENDBRANCH  26  27
BRANCH  26  31
HETATM   31  C   UNL     1       2.404  13.759  92.045  1.00  0.00     0.000 C 
HETATM   32  O   UNL     1       1.375  14.053  91.439  1.00  0.00     0.000 OA
BRANCH  31  33
HETATM   33  P   UNL     1       2.445  13.053  93.222  1.00  0.00     0.000 P 
HETATM   34  H   UNL     1       3.748  13.064  93.677  1.00  0.00     0.000 HD
BRANCH  33  35
HETATM   35  O   UNL     1       2.028  11.717  93.147  1.00  0.00     0.000 OA
HETATM   36  H   UNL     1       1.357  11.704  93.851  1.00  0.00     0.000 HD
ENDBRANCH  33  35
ENDBRANCH  31  33
ENDBRANCH  26  31
ENDBRANCH  24  26
ENDBRANCH  19  22
ENDBRANCH  15  16
ENDBRANCH  11  14
ENDBRANCH   7   8
ENDBRANCH   2   7
TORSDOF 11
ENDMDL
MODEL 7
REMARK VINA RESULT:      -3.9      3.325     12.825
REMARK  11 active torsions:
REMARK  status: ('A' for Active; 'I' for Inactive)
REMARK    1  A    between atoms: O_2  and  C_18 
REMARK    2  A    between atoms: O_5  and  P_8 
REMARK    3  A    between atoms: N_6  and  C_11 
REMARK    4  A    between atoms: N_7  and  C_15 
REMARK       I    between atoms: N_7  and  C_24 
REMARK    5  A    between atoms: P_8  and  C_23 
REMARK    6  A    between atoms: C_11  and  C_14 
REMARK    7  A    between atoms: C_15  and  C_18 
REMARK    8  A    between atoms: C_15  and  C_23 
REMARK    9  A    between atoms: C_21  and  C_26 
REMARK   10  A    between atoms: C_24  and  C_25 
REMARK   11  A    between atoms: C_29  and  C_32 
ROOT
HETATM    1  O   UNL     1       1.316  14.273  92.221  1.00  0.00     0.000 OA
HETATM    2  N   UNL     1       3.735  13.164  91.212  1.00  0.00     0.000 N 
HETATM    3  C   UNL     1       3.519  14.616  91.262  1.00  0.00     0.000 C 
HETATM    4  C   UNL     1       2.450  12.468  91.062  1.00  0.00     0.000 C 
HETATM    5  C   UNL     1       2.558  14.957  92.398  1.00  0.00     0.000 C 
HETATM    6  C   UNL     1       1.514  12.859  92.202  1.00  0.00     0.000 C 
ENDROOT
BRANCH   2   7
HETATM    7  C   UNL     1       4.646  12.814  90.123  1.00  0.00     0.000 C 
BRANCH   7   8
HETATM    8  C   UNL     1       5.566  11.699  90.488  1.00  0.00     0.000 A 
HETATM    9  C   UNL     1       6.258  11.012  89.490  1.00  0.00     0.000 A 
HETATM   10  C   UNL     1       7.118   9.968  89.830  1.00  0.00     0.000 A 
HETATM   11  C   UNL     1       7.285   9.612  91.167  1.00  0.00     0.000 A 
HETATM   12  C   UNL     1       6.594  10.296  92.165  1.00  0.00     0.000 A 
HETATM   13  C   UNL     1       5.734  11.341  91.825  1.00  0.00     0.000 A 
BRANCH  11  14
HETATM   14  C   UNL     1       8.169   8.542  91.516  1.00  0.00     0.000 C 
HETATM   15  C   UNL     1       8.911   7.643  91.810  1.00  0.00     0.000 C 
BRANCH  15  16
HETATM   16  C   UNL     1       9.794   6.574  92.159  1.00  0.00     0.000 A 
HETATM   17  C   UNL     1       9.939   6.199  93.495  1.00  0.00     0.000 A 
HETATM   18  C   UNL     1      10.798   5.154  93.836  1.00  0.00     0.000 A 
HETATM   19  C   UNL     1      11.491   4.508  92.834  1.00  0.00     0.000 A 
HETATM   20  C   UNL     1      11.365   4.859  91.506  1.00  0.00     0.000 A 
HETATM   21  C   UNL     1      10.507   5.904  91.165  1.00  0.00     0.000 A 
BRANCH  19  22
HETATM   22  C   UNL     1      12.408   3.396  93.197  1.00  0.00     0.000 C 
HETATM   23  O   UNL     1      12.017   2.236  93.087  1.00  0.00     0.000 OA
HETATM   24  N   UNL     1      13.676   3.767  93.622  1.00  0.00     0.000 N 
HETATM   25  HN  UNL     1      13.936   4.746  93.664  1.00  0.00     0.000 HD
BRANCH  24  26
HETATM   26  C   UNL     1      14.685   2.805  93.986  1.00  0.00     0.000 C 
BRANCH  26  27
HETATM   27  C   UNL     1      14.759   1.624  93.009  1.00  0.00     0.000 C 
HETATM   28  C   UNL     1      15.899   1.766  92.008  1.00  0.00     0.000 C 
BRANCH  27  29
HETATM   29  O   UNL     1      14.931   0.411  93.740  1.00  0.00     0.000 OA
HETATM   30  H   UNL     1      14.062  -0.015  93.834  1.00  0.00     0.000 HD
ENDBRANCH  27  29
ENDBRANCH  26  27
BRANCH  26  31
HETATM   31  C   UNL     1      16.019   3.539  94.070  1.00  0.00     0.000 C 
HETATM   32  O   UNL     1      17.101   2.957  94.124  1.00  0.00     0.000 OA
BRANCH  31  33
HETATM   33  P   UNL     1      15.860   4.903  94.118  1.00  0.00     0.000 P 
HETATM   34  H   UNL     1      14.506   5.169  94.151  1.00  0.00     0.000 HD
BRANCH  33  35
HETATM   35  O   UNL     1      16.413   5.619  93.048  1.00  0.00     0.000 OA
HETATM   36  H   UNL     1      16.720   4.887  92.487  1.00  0.00     0.000 HD
ENDBRANCH  33  35
ENDBRANCH  31  33
ENDBRANCH  26  31
ENDBRANCH  24  26
ENDBRANCH  19  22
ENDBRANCH  15  16
ENDBRANCH  11  14
ENDBRANCH   7   8
ENDBRANCH   2   7
TORSDOF 11
ENDMDL
MODEL 8
REMARK VINA RESULT:      -3.8      3.356     12.650
REMARK  11 active torsions:
REMARK  status: ('A' for Active; 'I' for Inactive)
REMARK    1  A    between atoms: O_2  and  C_18 
REMARK    2  A    between atoms: O_5  and  P_8 
REMARK    3  A    between atoms: N_6  and  C_11 
REMARK    4  A    between atoms: N_7  and  C_15 
REMARK       I    between atoms: N_7  and  C_24 
REMARK    5  A    between atoms: P_8  and  C_23 
REMARK    6  A    between atoms: C_11  and  C_14 
REMARK    7  A    between atoms: C_15  and  C_18 
REMARK    8  A    between atoms: C_15  and  C_23 
REMARK    9  A    between atoms: C_21  and  C_26 
REMARK   10  A    between atoms: C_24  and  C_25 
REMARK   11  A    between atoms: C_29  and  C_32 
ROOT
HETATM    1  O   UNL     1       3.402  13.712  89.120  1.00  0.00     0.000 OA
HETATM    2  N   UNL     1       2.994  12.150  91.464  1.00  0.00     0.000 N 
HETATM    3  C   UNL     1       2.763  13.602  91.459  1.00  0.00     0.000 C 
HETATM    4  C   UNL     1       4.024  11.801  90.477  1.00  0.00     0.000 C 
HETATM    5  C   UNL     1       2.378  14.059  90.054  1.00  0.00     0.000 C 
HETATM    6  C   UNL     1       3.610  12.300  89.097  1.00  0.00     0.000 C 
ENDROOT
BRANCH   2   7
HETATM    7  C   UNL     1       3.375  11.692  92.799  1.00  0.00     0.000 C 
BRANCH   7   8
HETATM    8  C   UNL     1       4.461  10.671  92.760  1.00  0.00     0.000 A 
HETATM    9  C   UNL     1       5.797  11.075  92.760  1.00  0.00     0.000 A 
HETATM   10  C   UNL     1       6.814  10.121  92.722  1.00  0.00     0.000 A 
HETATM   11  C   UNL     1       6.494   8.764  92.684  1.00  0.00     0.000 A 
HETATM   12  C   UNL     1       5.161   8.360  92.684  1.00  0.00     0.000 A 
HETATM   13  C   UNL     1       4.144   9.313  92.722  1.00  0.00     0.000 A 
BRANCH  11  14
HETATM   14  C   UNL     1       7.537   7.785  92.647  1.00  0.00     0.000 C 
HETATM   15  C   UNL     1       8.413   6.962  92.615  1.00  0.00     0.000 C 
BRANCH  15  16
HETATM   16  C   UNL     1       9.456   5.984  92.576  1.00  0.00     0.000 A 
HETATM   17  C   UNL     1      10.371   5.901  93.625  1.00  0.00     0.000 A 
HETATM   18  C   UNL     1      11.386   4.945  93.589  1.00  0.00     0.000 A 
HETATM   19  C   UNL     1      11.462   4.094  92.506  1.00  0.00     0.000 A 
HETATM   20  C   UNL     1      10.570   4.157  91.457  1.00  0.00     0.000 A 
HETATM   21  C   UNL     1       9.554   5.113  91.492  1.00  0.00     0.000 A 
BRANCH  19  22
HETATM   22  C   UNL     1      12.545   3.077  92.467  1.00  0.00     0.000 C 
HETATM   23  O   UNL     1      12.321   1.982  91.958  1.00  0.00     0.000 OA
HETATM   24  N   UNL     1      13.765   3.467  93.002  1.00  0.00     0.000 N 
HETATM   25  HN  UNL     1      13.884   4.398  93.383  1.00  0.00     0.000 HD
BRANCH  24  26
HETATM   26  C   UNL     1      14.918   2.602  93.016  1.00  0.00     0.000 C 
BRANCH  26  27
HETATM   27  C   UNL     1      15.342   2.156  91.611  1.00  0.00     0.000 C 
HETATM   28  C   UNL     1      14.882   3.125  90.527  1.00  0.00     0.000 C 
BRANCH  27  29
HETATM   29  O   UNL     1      16.763   2.039  91.555  1.00  0.00     0.000 OA
HETATM   30  H   UNL     1      17.040   2.127  90.628  1.00  0.00     0.000 HD
ENDBRANCH  27  29
ENDBRANCH  26  27
BRANCH  26  31
HETATM   31  C   UNL     1      16.046   3.342  93.727  1.00  0.00     0.000 C 
HETATM   32  O   UNL     1      17.067   2.783  94.124  1.00  0.00     0.000 OA
BRANCH  31  33
HETATM   33  P   UNL     1      15.766   4.676  93.898  1.00  0.00     0.000 P 
HETATM   34  H   UNL     1      14.414   4.855  93.683  1.00  0.00     0.000 HD
BRANCH  33  35
HETATM   35  O   UNL     1      16.456   5.558  93.054  1.00  0.00     0.000 OA
HETATM   36  H   UNL     1      17.338   5.534  93.462  1.00  0.00     0.000 HD
ENDBRANCH  33  35
ENDBRANCH  31  33
ENDBRANCH  26  31
ENDBRANCH  24  26
ENDBRANCH  19  22
ENDBRANCH  15  16
ENDBRANCH  11  14
ENDBRANCH   7   8
ENDBRANCH   2   7
TORSDOF 11
ENDMDL
