MODEL 1
REMARK VINA RESULT:      -7.0      0.000      0.000
REMARK  10 active torsions:
REMARK  status: ('A' for Active; 'I' for Inactive)
REMARK    1  A    between atoms: O_2  and  C_18 
REMARK    2  A    between atoms: O_5  and  N_8 
REMARK    3  A    between atoms: N_6  and  C_11 
REMARK    4  A    between atoms: N_7  and  C_15 
REMARK       I    between atoms: N_7  and  C_24 
REMARK       I    between atoms: N_8  and  C_23 
REMARK    5  A    between atoms: C_11  and  C_14 
REMARK    6  A    between atoms: C_15  and  C_18 
REMARK    7  A    between atoms: C_15  and  C_23 
REMARK    8  A    between atoms: C_21  and  C_26 
REMARK    9  A    between atoms: C_24  and  C_25 
REMARK   10  A    between atoms: C_29  and  C_32 
ROOT
HETATM    1  O   UNK     0      16.552   4.347  94.059  0.00  0.00    -0.388 OA
HETATM    2  N   UNK     0      14.733   2.587  92.755  0.00  0.00     0.096 N 
HETATM    3  C   UNK     0      14.572   4.047  92.686  0.00  0.00     0.299 C 
HETATM    4  C   UNK     0      15.398   2.213  94.010  0.00  0.00     0.299 C 
HETATM    5  C   UNK     0      15.934   4.723  92.827  0.00  0.00     0.198 C 
HETATM    6  C   UNK     0      16.739   2.932  94.120  0.00  0.00     0.198 C 
ENDROOT
BRANCH   2   7
HETATM    7  C   UNK     0      13.439   1.918  92.634  0.00  0.00     0.311 C 
BRANCH   7   8
HETATM    8  C   UNK     0      12.336   2.868  92.308  0.00  0.00    -0.030 A 
HETATM    9  C   UNK     0      11.809   3.690  93.305  0.00  0.00     0.010 A 
HETATM   10  C   UNK     0      10.776   4.578  93.002  0.00  0.00     0.021 A 
HETATM   11  C   UNK     0      10.273   4.644  91.703  0.00  0.00     0.018 A 
HETATM   12  C   UNK     0      10.800   3.823  90.707  0.00  0.00     0.021 A 
HETATM   13  C   UNK     0      11.832   2.935  91.010  0.00  0.00     0.010 A 
BRANCH  11  14
HETATM   14  C   UNK     0       9.216   5.556  91.392  0.00  0.00    -0.061 C 
HETATM   15  C   UNK     0       8.326   6.322  91.131  0.00  0.00    -0.061 C 
BRANCH  15  16
HETATM   16  C   UNK     0       7.269   7.231  90.820  0.00  0.00     0.018 A 
HETATM   17  C   UNK     0       6.232   7.432  91.731  0.00  0.00     0.022 A 
HETATM   18  C   UNK     0       5.201   8.321  91.429  0.00  0.00     0.018 A 
HETATM   19  C   UNK     0       5.230   8.991  90.223  0.00  0.00     0.032 A 
HETATM   20  C   UNK     0       6.244   8.810  89.306  0.00  0.00     0.018 A 
HETATM   21  C   UNK     0       7.274   7.920  89.607  0.00  0.00     0.022 A 
BRANCH  19  22
HETATM   22  C   UNK     0       4.131   9.937  89.901  0.00  0.00     0.252 C 
HETATM   23  O   UNK     0       3.073   9.498  89.456  0.00  0.00    -0.268 OA
HETATM   24  N   UNK     0       4.386  11.277  90.158  0.00  0.00    -0.341 N 
HETATM   25  H   UNK     0       5.276  11.563  90.550  0.00  0.00     0.163 HD
BRANCH  24  26
HETATM   26  C   UNK     0       3.412  12.311  89.921  0.00  0.00     0.207 C 
BRANCH  26  27
HETATM   27  C   UNK     0       2.979  13.025  91.208  0.00  0.00     0.146 C 
HETATM   28  C   UNK     0       2.107  12.147  92.098  0.00  0.00     0.042 C 
BRANCH  27  29
HETATM   29  O   UNK     0       4.135  13.426  91.944  0.00  0.00    -0.393 OA
HETATM   30  H   UNK     0       4.886  12.881  91.652  0.00  0.00     0.210 HD
ENDBRANCH  27  29
ENDBRANCH  26  27
BRANCH  26  31
HETATM   31  C   UNK     0       4.009  13.292  88.917  0.00  0.00     0.266 C 
HETATM   32  O   UNK     0       4.185  14.483  89.168  0.00  0.00    -0.269 OA
HETATM   33  N   UNK     0       4.281  12.696  87.709  0.00  0.00    -0.236 N 
HETATM   34  H   UNK     0       4.067  11.743  87.441  0.00  0.00     0.197 HD
BRANCH  33  35
HETATM   35  O   UNK     0       4.798  13.540  86.716  0.00  0.00    -0.287 OA
HETATM   36  H   UNK     0       4.222  13.303  85.969  0.00  0.00     0.244 HD
ENDBRANCH  33  35
ENDBRANCH  26  31
ENDBRANCH  24  26
ENDBRANCH  19  22
ENDBRANCH  15  16
ENDBRANCH  11  14
ENDBRANCH   7   8
ENDBRANCH   2   7
TORSDOF 10
ENDMDL
MODEL 2
REMARK VINA RESULT:      -6.9      0.388      1.227
REMARK  10 active torsions:
REMARK  status: ('A' for Active; 'I' for Inactive)
REMARK    1  A    between atoms: O_2  and  C_18 
REMARK    2  A    between atoms: O_5  and  N_8 
REMARK    3  A    between atoms: N_6  and  C_11 
REMARK    4  A    between atoms: N_7  and  C_15 
REMARK       I    between atoms: N_7  and  C_24 
REMARK       I    between atoms: N_8  and  C_23 
REMARK    5  A    between atoms: C_11  and  C_14 
REMARK    6  A    between atoms: C_15  and  C_18 
REMARK    7  A    between atoms: C_15  and  C_23 
REMARK    8  A    between atoms: C_21  and  C_26 
REMARK    9  A    between atoms: C_24  and  C_25 
REMARK   10  A    between atoms: C_29  and  C_32 
ROOT
HETATM    1  O   UNK     0      16.239   4.263  94.089  0.00  0.00    -0.388 OA
HETATM    2  N   UNK     0      14.603   2.526  92.537  0.00  0.00     0.096 N 
HETATM    3  C   UNK     0      14.423   3.984  92.502  0.00  0.00     0.299 C 
HETATM    4  C   UNK     0      15.137   2.116  93.842  0.00  0.00     0.299 C 
HETATM    5  C   UNK     0      15.749   4.675  92.811  0.00  0.00     0.198 C 
HETATM    6  C   UNK     0      16.445   2.850  94.121  0.00  0.00     0.198 C 
ENDROOT
BRANCH   2   7
HETATM    7  C   UNK     0      13.342   1.843  92.254  0.00  0.00     0.311 C 
BRANCH   7   8
HETATM    8  C   UNK     0      12.237   2.795  91.945  0.00  0.00    -0.030 A 
HETATM    9  C   UNK     0      11.981   3.159  90.623  0.00  0.00     0.010 A 
HETATM   10  C   UNK     0      10.949   4.051  90.332  0.00  0.00     0.021 A 
HETATM   11  C   UNK     0      10.172   4.577  91.365  0.00  0.00     0.018 A 
HETATM   12  C   UNK     0      10.426   4.213  92.685  0.00  0.00     0.021 A 
HETATM   13  C   UNK     0      11.459   3.322  92.976  0.00  0.00     0.010 A 
BRANCH  11  14
HETATM   14  C   UNK     0       9.112   5.490  91.067  0.00  0.00    -0.061 C 
HETATM   15  C   UNK     0       8.221   6.258  90.816  0.00  0.00    -0.061 C 
BRANCH  15  16
HETATM   16  C   UNK     0       7.163   7.171  90.518  0.00  0.00     0.018 A 
HETATM   17  C   UNK     0       7.379   8.218  89.620  0.00  0.00     0.022 A 
HETATM   18  C   UNK     0       6.346   9.108  89.327  0.00  0.00     0.018 A 
HETATM   19  C   UNK     0       5.121   8.932  89.936  0.00  0.00     0.032 A 
HETATM   20  C   UNK     0       4.882   7.907  90.827  0.00  0.00     0.018 A 
HETATM   21  C   UNK     0       5.915   7.016  91.121  0.00  0.00     0.022 A 
BRANCH  19  22
HETATM   22  C   UNK     0       4.022   9.883  89.625  0.00  0.00     0.252 C 
HETATM   23  O   UNK     0       3.021   9.472  89.043  0.00  0.00    -0.268 OA
HETATM   24  N   UNK     0       4.210  11.190  90.051  0.00  0.00    -0.341 N 
HETATM   25  H   UNK     0       5.053  11.451  90.549  0.00  0.00     0.163 HD
BRANCH  24  26
HETATM   26  C   UNK     0       3.225  12.222  89.846  0.00  0.00     0.207 C 
BRANCH  26  27
HETATM   27  C   UNK     0       2.740  12.849  91.159  0.00  0.00     0.146 C 
HETATM   28  C   UNK     0       2.109  11.826  92.097  0.00  0.00     0.042 C 
BRANCH  27  29
HETATM   29  O   UNK     0       3.838  13.473  91.824  0.00  0.00    -0.393 OA
HETATM   30  H   UNK     0       4.434  13.841  91.150  0.00  0.00     0.210 HD
ENDBRANCH  27  29
ENDBRANCH  26  27
BRANCH  26  31
HETATM   31  C   UNK     0       3.834  13.270  88.922  0.00  0.00     0.266 C 
HETATM   32  O   UNK     0       3.860  14.469  89.194  0.00  0.00    -0.269 OA
HETATM   33  N   UNK     0       4.306  12.722  87.754  0.00  0.00    -0.236 N 
HETATM   34  H   UNK     0       4.221  11.756  87.459  0.00  0.00     0.197 HD
BRANCH  33  35
HETATM   35  O   UNK     0       4.849  13.627  86.830  0.00  0.00    -0.287 OA
HETATM   36  H   UNK     0       4.443  13.302  86.009  0.00  0.00     0.244 HD
ENDBRANCH  33  35
ENDBRANCH  26  31
ENDBRANCH  24  26
ENDBRANCH  19  22
ENDBRANCH  15  16
ENDBRANCH  11  14
ENDBRANCH   7   8
ENDBRANCH   2   7
TORSDOF 10
ENDMDL
MODEL 3
REMARK VINA RESULT:      -6.7      1.428      1.788
REMARK  10 active torsions:
REMARK  status: ('A' for Active; 'I' for Inactive)
REMARK    1  A    between atoms: O_2  and  C_18 
REMARK    2  A    between atoms: O_5  and  N_8 
REMARK    3  A    between atoms: N_6  and  C_11 
REMARK    4  A    between atoms: N_7  and  C_15 
REMARK       I    between atoms: N_7  and  C_24 
REMARK       I    between atoms: N_8  and  C_23 
REMARK    5  A    between atoms: C_11  and  C_14 
REMARK    6  A    between atoms: C_15  and  C_18 
REMARK    7  A    between atoms: C_15  and  C_23 
REMARK    8  A    between atoms: C_21  and  C_26 
REMARK    9  A    between atoms: C_24  and  C_25 
REMARK   10  A    between atoms: C_29  and  C_32 
ROOT
HETATM    1  O   UNK     0      16.910   3.711  93.849  0.00  0.00    -0.388 OA
HETATM    2  N   UNK     0      14.316   3.094  92.853  0.00  0.00     0.096 N 
HETATM    3  C   UNK     0      15.347   2.058  93.003  0.00  0.00     0.299 C 
HETATM    4  C   UNK     0      14.945   4.397  92.603  0.00  0.00     0.299 C 
HETATM    5  C   UNK     0      16.309   2.444  94.124  0.00  0.00     0.198 C 
HETATM    6  C   UNK     0      15.916   4.729  93.732  0.00  0.00     0.198 C 
ENDROOT
BRANCH   2   7
HETATM    7  C   UNK     0      13.389   2.749  91.777  0.00  0.00     0.311 C 
BRANCH   7   8
HETATM    8  C   UNK     0      12.257   3.714  91.671  0.00  0.00    -0.030 A 
HETATM    9  C   UNK     0      11.559   4.097  92.817  0.00  0.00     0.010 A 
HETATM   10  C   UNK     0      10.499   4.998  92.719  0.00  0.00     0.021 A 
HETATM   11  C   UNK     0      10.139   5.517  91.475  0.00  0.00     0.018 A 
HETATM   12  C   UNK     0      10.836   5.135  90.331  0.00  0.00     0.021 A 
HETATM   13  C   UNK     0      11.896   4.234  90.428  0.00  0.00     0.010 A 
BRANCH  11  14
HETATM   14  C   UNK     0       9.053   6.443  91.375  0.00  0.00    -0.061 C 
HETATM   15  C   UNK     0       8.140   7.221  91.292  0.00  0.00    -0.061 C 
BRANCH  15  16
HETATM   16  C   UNK     0       7.055   8.145  91.192  0.00  0.00     0.018 A 
HETATM   17  C   UNK     0       5.739   7.680  91.227  0.00  0.00     0.022 A 
HETATM   18  C   UNK     0       4.679   8.582  91.132  0.00  0.00     0.018 A 
HETATM   19  C   UNK     0       4.957   9.927  91.005  0.00  0.00     0.032 A 
HETATM   20  C   UNK     0       6.248  10.411  90.967  0.00  0.00     0.018 A 
HETATM   21  C   UNK     0       7.308   9.510  91.061  0.00  0.00     0.022 A 
BRANCH  19  22
HETATM   22  C   UNK     0       3.828  10.886  90.901  0.00  0.00     0.252 C 
HETATM   23  O   UNK     0       2.818  10.560  90.283  0.00  0.00    -0.268 OA
HETATM   24  N   UNK     0       4.000  12.101  91.551  0.00  0.00    -0.341 N 
HETATM   25  H   UNK     0       4.853  12.291  92.064  0.00  0.00     0.163 HD
BRANCH  24  26
HETATM   26  C   UNK     0       2.987  13.125  91.563  0.00  0.00     0.207 C 
BRANCH  26  27
HETATM   27  C   UNK     0       2.921  13.879  92.897  0.00  0.00     0.146 C 
HETATM   28  C   UNK     0       4.183  13.699  93.732  0.00  0.00     0.042 C 
BRANCH  27  29
HETATM   29  O   UNK     0       2.725  15.271  92.649  0.00  0.00    -0.393 OA
HETATM   30  H   UNK     0       1.771  15.455  92.681  0.00  0.00     0.210 HD
ENDBRANCH  27  29
ENDBRANCH  26  27
BRANCH  26  31
HETATM   31  C   UNK     0       3.269  14.073  90.403  0.00  0.00     0.266 C 
HETATM   32  O   UNK     0       2.403  14.437  89.609  0.00  0.00    -0.269 OA
HETATM   33  N   UNK     0       4.593  14.431  90.335  0.00  0.00    -0.236 N 
HETATM   34  H   UNK     0       5.347  14.081  90.915  0.00  0.00     0.197 HD
BRANCH  33  35
HETATM   35  O   UNK     0       4.944  15.273  89.270  0.00  0.00    -0.287 OA
HETATM   36  H   UNK     0       4.943  14.636  88.536  0.00  0.00     0.244 HD
ENDBRANCH  33  35
ENDBRANCH  26  31
ENDBRANCH  24  26
ENDBRANCH  19  22
ENDBRANCH  15  16
ENDBRANCH  11  14
ENDBRANCH   7   8
ENDBRANCH   2   7
TORSDOF 10
ENDMDL
MODEL 4
REMARK VINA RESULT:      -6.2      1.797      2.366
REMARK  10 active torsions:
REMARK  status: ('A' for Active; 'I' for Inactive)
REMARK    1  A    between atoms: O_2  and  C_18 
REMARK    2  A    between atoms: O_5  and  N_8 
REMARK    3  A    between atoms: N_6  and  C_11 
REMARK    4  A    between atoms: N_7  and  C_15 
REMARK       I    between atoms: N_7  and  C_24 
REMARK       I    between atoms: N_8  and  C_23 
REMARK    5  A    between atoms: C_11  and  C_14 
REMARK    6  A    between atoms: C_15  and  C_18 
REMARK    7  A    between atoms: C_15  and  C_23 
REMARK    8  A    between atoms: C_21  and  C_26 
REMARK    9  A    between atoms: C_24  and  C_25 
REMARK   10  A    between atoms: C_29  and  C_32 
ROOT
HETATM    1  O   UNK     0      16.576   4.211  93.804  0.00  0.00    -0.388 OA
HETATM    2  N   UNK     0      14.457   2.594  92.805  0.00  0.00     0.096 N 
HETATM    3  C   UNK     0      14.546   4.026  92.487  0.00  0.00     0.299 C 
HETATM    4  C   UNK     0      15.075   2.329  94.110  0.00  0.00     0.299 C 
HETATM    5  C   UNK     0      16.005   4.474  92.521  0.00  0.00     0.198 C 
HETATM    6  C   UNK     0      16.521   2.816  94.107  0.00  0.00     0.198 C 
ENDROOT
BRANCH   2   7
HETATM    7  C   UNK     0      13.066   2.146  92.788  0.00  0.00     0.311 C 
BRANCH   7   8
HETATM    8  C   UNK     0      12.102   3.284  92.803  0.00  0.00    -0.030 A 
HETATM    9  C   UNK     0      11.890   4.002  93.980  0.00  0.00     0.010 A 
HETATM   10  C   UNK     0      10.987   5.065  93.996  0.00  0.00     0.021 A 
HETATM   11  C   UNK     0      10.299   5.410  92.834  0.00  0.00     0.018 A 
HETATM   12  C   UNK     0      10.510   4.694  91.657  0.00  0.00     0.021 A 
HETATM   13  C   UNK     0      11.412   3.631  91.641  0.00  0.00     0.010 A 
BRANCH  11  14
HETATM   14  C   UNK     0       9.374   6.502  92.849  0.00  0.00    -0.061 C 
HETATM   15  C   UNK     0       8.598   7.420  92.862  0.00  0.00    -0.061 C 
BRANCH  15  16
HETATM   16  C   UNK     0       7.675   8.511  92.879  0.00  0.00     0.018 A 
HETATM   17  C   UNK     0       7.471   9.268  91.725  0.00  0.00     0.022 A 
HETATM   18  C   UNK     0       6.568  10.332  91.740  0.00  0.00     0.018 A 
HETATM   19  C   UNK     0       5.890  10.614  92.908  0.00  0.00     0.032 A 
HETATM   20  C   UNK     0       6.074   9.881  94.061  0.00  0.00     0.018 A 
HETATM   21  C   UNK     0       6.977   8.818  94.047  0.00  0.00     0.022 A 
BRANCH  19  22
HETATM   22  C   UNK     0       4.930  11.748  92.924  0.00  0.00     0.252 C 
HETATM   23  O   UNK     0       4.529  12.179  94.003  0.00  0.00    -0.268 OA
HETATM   24  N   UNK     0       4.572  12.259  91.684  0.00  0.00    -0.341 N 
HETATM   25  H   UNK     0       4.963  11.868  90.836  0.00  0.00     0.163 HD
BRANCH  24  26
HETATM   26  C   UNK     0       3.670  13.374  91.536  0.00  0.00     0.207 C 
BRANCH  26  27
HETATM   27  C   UNK     0       4.257  14.687  92.069  0.00  0.00     0.146 C 
HETATM   28  C   UNK     0       4.946  15.502  90.981  0.00  0.00     0.042 C 
BRANCH  27  29
HETATM   29  O   UNK     0       3.217  15.473  92.650  0.00  0.00    -0.393 OA
HETATM   30  H   UNK     0       3.326  15.458  93.615  0.00  0.00     0.210 HD
ENDBRANCH  27  29
ENDBRANCH  26  27
BRANCH  26  31
HETATM   31  C   UNK     0       3.309  13.487  90.059  0.00  0.00     0.266 C 
HETATM   32  O   UNK     0       2.412  14.218  89.643  0.00  0.00    -0.269 OA
HETATM   33  N   UNK     0       4.071  12.657  89.273  0.00  0.00    -0.236 N 
HETATM   34  H   UNK     0       4.754  11.979  89.590  0.00  0.00     0.197 HD
BRANCH  33  35
HETATM   35  O   UNK     0       3.775  12.673  87.903  0.00  0.00    -0.287 OA
HETATM   36  H   UNK     0       2.914  12.220  87.905  0.00  0.00     0.244 HD
ENDBRANCH  33  35
ENDBRANCH  26  31
ENDBRANCH  24  26
ENDBRANCH  19  22
ENDBRANCH  15  16
ENDBRANCH  11  14
ENDBRANCH   7   8
ENDBRANCH   2   7
TORSDOF 10
ENDMDL
MODEL 5
REMARK VINA RESULT:      -6.1      2.117      2.806
REMARK  10 active torsions:
REMARK  status: ('A' for Active; 'I' for Inactive)
REMARK    1  A    between atoms: O_2  and  C_18 
REMARK    2  A    between atoms: O_5  and  N_8 
REMARK    3  A    between atoms: N_6  and  C_11 
REMARK    4  A    between atoms: N_7  and  C_15 
REMARK       I    between atoms: N_7  and  C_24 
REMARK       I    between atoms: N_8  and  C_23 
REMARK    5  A    between atoms: C_11  and  C_14 
REMARK    6  A    between atoms: C_15  and  C_18 
REMARK    7  A    between atoms: C_15  and  C_23 
REMARK    8  A    between atoms: C_21  and  C_26 
REMARK    9  A    between atoms: C_24  and  C_25 
REMARK   10  A    between atoms: C_29  and  C_32 
ROOT
HETATM    1  O   UNK     0      16.809   3.046  93.782  0.00  0.00    -0.388 OA
HETATM    2  N   UNK     0      14.118   3.132  92.858  0.00  0.00     0.096 N 
HETATM    3  C   UNK     0      14.828   1.858  93.037  0.00  0.00     0.299 C 
HETATM    4  C   UNK     0      15.074   4.200  92.539  0.00  0.00     0.299 C 
HETATM    5  C   UNK     0      15.890   2.006  94.124  0.00  0.00     0.198 C 
HETATM    6  C   UNK     0      16.130   4.294  93.637  0.00  0.00     0.198 C 
ENDROOT
BRANCH   2   7
HETATM    7  C   UNK     0      13.102   3.016  91.813  0.00  0.00     0.311 C 
BRANCH   7   8
HETATM    8  C   UNK     0      11.980   3.979  92.003  0.00  0.00    -0.030 A 
HETATM    9  C   UNK     0      11.407   4.608  90.897  0.00  0.00     0.010 A 
HETATM   10  C   UNK     0      10.359   5.510  91.073  0.00  0.00     0.021 A 
HETATM   11  C   UNK     0       9.882   5.782  92.355  0.00  0.00     0.018 A 
HETATM   12  C   UNK     0      10.452   5.154  93.460  0.00  0.00     0.021 A 
HETATM   13  C   UNK     0      11.502   4.252  93.285  0.00  0.00     0.010 A 
BRANCH  11  14
HETATM   14  C   UNK     0       8.805   6.706  92.536  0.00  0.00    -0.061 C 
HETATM   15  C   UNK     0       7.899   7.483  92.687  0.00  0.00    -0.061 C 
BRANCH  15  16
HETATM   16  C   UNK     0       6.824   8.407  92.866  0.00  0.00     0.018 A 
HETATM   17  C   UNK     0       5.586   7.954  93.325  0.00  0.00     0.022 A 
HETATM   18  C   UNK     0       4.537   8.856  93.502  0.00  0.00     0.018 A 
HETATM   19  C   UNK     0       4.749  10.189  93.218  0.00  0.00     0.032 A 
HETATM   20  C   UNK     0       5.962  10.661  92.763  0.00  0.00     0.018 A 
HETATM   21  C   UNK     0       7.011   9.760  92.585  0.00  0.00     0.022 A 
BRANCH  19  22
HETATM   22  C   UNK     0       3.630  11.149  93.405  0.00  0.00     0.252 C 
HETATM   23  O   UNK     0       2.671  10.825  94.101  0.00  0.00    -0.268 OA
HETATM   24  N   UNK     0       3.774  12.380  92.780  0.00  0.00    -0.341 N 
HETATM   25  H   UNK     0       4.607  12.587  92.241  0.00  0.00     0.163 HD
BRANCH  24  26
HETATM   26  C   UNK     0       2.787  13.424  92.887  0.00  0.00     0.207 C 
BRANCH  26  27
HETATM   27  C   UNK     0       3.284  14.630  93.694  0.00  0.00     0.146 C 
HETATM   28  C   UNK     0       4.547  15.248  93.104  0.00  0.00     0.042 C 
BRANCH  27  29
HETATM   29  O   UNK     0       2.262  15.625  93.745  0.00  0.00    -0.393 OA
HETATM   30  H   UNK     0       2.663  16.459  94.041  0.00  0.00     0.210 HD
ENDBRANCH  27  29
ENDBRANCH  26  27
BRANCH  26  31
HETATM   31  C   UNK     0       2.385  13.831  91.473  0.00  0.00     0.266 C 
HETATM   32  O   UNK     0       1.376  14.491  91.228  0.00  0.00    -0.269 OA
HETATM   33  N   UNK     0       3.253  13.345  90.526  0.00  0.00    -0.236 N 
HETATM   34  H   UNK     0       4.040  12.727  90.685  0.00  0.00     0.197 HD
BRANCH  33  35
HETATM   35  O   UNK     0       2.932  13.643  89.194  0.00  0.00    -0.287 OA
HETATM   36  H   UNK     0       2.781  12.748  88.846  0.00  0.00     0.244 HD
ENDBRANCH  33  35
ENDBRANCH  26  31
ENDBRANCH  24  26
ENDBRANCH  19  22
ENDBRANCH  15  16
ENDBRANCH  11  14
ENDBRANCH   7   8
ENDBRANCH   2   7
TORSDOF 10
ENDMDL
MODEL 6
REMARK VINA RESULT:      -5.8      1.516      2.639
REMARK  10 active torsions:
REMARK  status: ('A' for Active; 'I' for Inactive)
REMARK    1  A    between atoms: O_2  and  C_18 
REMARK    2  A    between atoms: O_5  and  N_8 
REMARK    3  A    between atoms: N_6  and  C_11 
REMARK    4  A    between atoms: N_7  and  C_15 
REMARK       I    between atoms: N_7  and  C_24 
REMARK       I    between atoms: N_8  and  C_23 
REMARK    5  A    between atoms: C_11  and  C_14 
REMARK    6  A    between atoms: C_15  and  C_18 
REMARK    7  A    between atoms: C_15  and  C_23 
REMARK    8  A    between atoms: C_21  and  C_26 
REMARK    9  A    between atoms: C_24  and  C_25 
REMARK   10  A    between atoms: C_29  and  C_32 
ROOT
HETATM    1  O   UNK     0      17.113   4.128  93.756  0.00  0.00    -0.388 OA
HETATM    2  N   UNK     0      14.503   2.996  93.655  0.00  0.00     0.096 N 
HETATM    3  C   UNK     0      15.700   2.194  93.366  0.00  0.00     0.299 C 
HETATM    4  C   UNK     0      14.745   4.403  93.307  0.00  0.00     0.299 C 
HETATM    5  C   UNK     0      16.899   2.763  94.121  0.00  0.00     0.198 C 
HETATM    6  C   UNK     0      15.966   4.921  94.061  0.00  0.00     0.198 C 
ENDROOT
BRANCH   2   7
HETATM    7  C   UNK     0      13.344   2.475  92.933  0.00  0.00     0.311 C 
BRANCH   7   8
HETATM    8  C   UNK     0      12.310   3.521  92.687  0.00  0.00    -0.030 A 
HETATM    9  C   UNK     0      11.656   4.120  93.764  0.00  0.00     0.010 A 
HETATM   10  C   UNK     0      10.687   5.097  93.535  0.00  0.00     0.021 A 
HETATM   11  C   UNK     0      10.375   5.475  92.230  0.00  0.00     0.018 A 
HETATM   12  C   UNK     0      11.028   4.878  91.154  0.00  0.00     0.021 A 
HETATM   13  C   UNK     0      11.996   3.900  91.382  0.00  0.00     0.010 A 
BRANCH  11  14
HETATM   14  C   UNK     0       9.383   6.479  91.995  0.00  0.00    -0.061 C 
HETATM   15  C   UNK     0       8.549   7.323  91.797  0.00  0.00    -0.061 C 
BRANCH  15  16
HETATM   16  C   UNK     0       7.559   8.326  91.562  0.00  0.00     0.018 A 
HETATM   17  C   UNK     0       7.927   9.548  90.997  0.00  0.00     0.022 A 
HETATM   18  C   UNK     0       6.960  10.527  90.766  0.00  0.00     0.018 A 
HETATM   19  C   UNK     0       5.649  10.263  91.103  0.00  0.00     0.032 A 
HETATM   20  C   UNK     0       5.260   9.063  91.662  0.00  0.00     0.018 A 
HETATM   21  C   UNK     0       6.227   8.085  91.895  0.00  0.00     0.022 A 
BRANCH  19  22
HETATM   22  C   UNK     0       4.621  11.306  90.857  0.00  0.00     0.252 C 
HETATM   23  O   UNK     0       3.517  10.973  90.432  0.00  0.00    -0.268 OA
HETATM   24  N   UNK     0       4.992  12.609  91.160  0.00  0.00    -0.341 N 
HETATM   25  H   UNK     0       5.914  12.806  91.532  0.00  0.00     0.163 HD
BRANCH  24  26
HETATM   26  C   UNK     0       4.098  13.728  91.000  0.00  0.00     0.207 C 
BRANCH  26  27
HETATM   27  C   UNK     0       3.876  14.104  89.530  0.00  0.00     0.146 C 
HETATM   28  C   UNK     0       5.182  14.194  88.747  0.00  0.00     0.042 C 
BRANCH  27  29
HETATM   29  O   UNK     0       3.031  13.135  88.911  0.00  0.00    -0.393 OA
HETATM   30  H   UNK     0       3.153  12.287  89.369  0.00  0.00     0.210 HD
ENDBRANCH  27  29
ENDBRANCH  26  27
BRANCH  26  31
HETATM   31  C   UNK     0       2.782  13.374  91.686  0.00  0.00     0.266 C 
HETATM   32  O   UNK     0       1.695  13.810  91.313  0.00  0.00    -0.269 OA
HETATM   33  N   UNK     0       2.968  12.557  92.775  0.00  0.00    -0.236 N 
HETATM   34  H   UNK     0       3.854  12.253  93.162  0.00  0.00     0.197 HD
BRANCH  33  35
HETATM   35  O   UNK     0       1.809  12.216  93.486  0.00  0.00    -0.287 OA
HETATM   36  H   UNK     0       2.143  12.264  94.398  0.00  0.00     0.244 HD
ENDBRANCH  33  35
ENDBRANCH  26  31
ENDBRANCH  24  26
ENDBRANCH  19  22
ENDBRANCH  15  16
ENDBRANCH  11  14
ENDBRANCH   7   8
ENDBRANCH   2   7
TORSDOF 10
ENDMDL
MODEL 7
REMARK VINA RESULT:      -4.8      1.951     12.604
REMARK  10 active torsions:
REMARK  status: ('A' for Active; 'I' for Inactive)
REMARK    1  A    between atoms: O_2  and  C_18 
REMARK    2  A    between atoms: O_5  and  N_8 
REMARK    3  A    between atoms: N_6  and  C_11 
REMARK    4  A    between atoms: N_7  and  C_15 
REMARK       I    between atoms: N_7  and  C_24 
REMARK       I    between atoms: N_8  and  C_23 
REMARK    5  A    between atoms: C_11  and  C_14 
REMARK    6  A    between atoms: C_15  and  C_18 
REMARK    7  A    between atoms: C_15  and  C_23 
REMARK    8  A    between atoms: C_21  and  C_26 
REMARK    9  A    between atoms: C_24  and  C_25 
REMARK   10  A    between atoms: C_29  and  C_32 
ROOT
HETATM    1  O   UNK     0       2.232  13.487  91.957  0.00  0.00    -0.388 OA
HETATM    2  N   UNK     0       3.138  12.456  89.463  0.00  0.00     0.096 N 
HETATM    3  C   UNK     0       3.245  11.673  90.703  0.00  0.00     0.299 C 
HETATM    4  C   UNK     0       3.198  13.891  89.768  0.00  0.00     0.299 C 
HETATM    5  C   UNK     0       2.143  12.090  91.674  0.00  0.00     0.198 C 
HETATM    6  C   UNK     0       2.098  14.256  90.761  0.00  0.00     0.198 C 
ENDROOT
BRANCH   2   7
HETATM    7  C   UNK     0       4.191  12.081  88.522  0.00  0.00     0.311 C 
BRANCH   7   8
HETATM    8  C   UNK     0       5.131  11.074  89.092  0.00  0.00    -0.030 A 
HETATM    9  C   UNK     0       6.390  11.473  89.543  0.00  0.00     0.010 A 
HETATM   10  C   UNK     0       7.271  10.532  90.075  0.00  0.00     0.021 A 
HETATM   11  C   UNK     0       6.892   9.192  90.158  0.00  0.00     0.018 A 
HETATM   12  C   UNK     0       5.635   8.793  89.709  0.00  0.00     0.021 A 
HETATM   13  C   UNK     0       4.754   9.734  89.176  0.00  0.00     0.010 A 
BRANCH  11  14
HETATM   14  C   UNK     0       7.795   8.227  90.706  0.00  0.00    -0.061 C 
HETATM   15  C   UNK     0       8.553   7.416  91.167  0.00  0.00    -0.061 C 
BRANCH  15  16
HETATM   16  C   UNK     0       9.455   6.453  91.715  0.00  0.00     0.018 A 
HETATM   17  C   UNK     0       9.737   6.461  93.082  0.00  0.00     0.022 A 
HETATM   18  C   UNK     0      10.615   5.520  93.618  0.00  0.00     0.018 A 
HETATM   19  C   UNK     0      11.192   4.591  92.776  0.00  0.00     0.032 A 
HETATM   20  C   UNK     0      10.931   4.562  91.423  0.00  0.00     0.018 A 
HETATM   21  C   UNK     0      10.053   5.504  90.886  0.00  0.00     0.022 A 
BRANCH  19  22
HETATM   22  C   UNK     0      12.130   3.590  93.348  0.00  0.00     0.252 C 
HETATM   23  O   UNK     0      11.703   2.484  93.669  0.00  0.00    -0.268 OA
HETATM   24  N   UNK     0      13.455   3.989  93.453  0.00  0.00    -0.341 N 
HETATM   25  H   UNK     0      13.739   4.911  93.144  0.00  0.00     0.163 HD
BRANCH  24  26
HETATM   26  C   UNK     0      14.487   3.123  93.964  0.00  0.00     0.207 C 
BRANCH  26  27
HETATM   27  C   UNK     0      14.532   1.767  93.249  0.00  0.00     0.146 C 
HETATM   28  C   UNK     0      15.357   1.809  91.967  0.00  0.00     0.042 C 
BRANCH  27  29
HETATM   29  O   UNK     0      15.086   0.784  94.124  0.00  0.00    -0.393 OA
HETATM   30  H   UNK     0      15.241  -0.027  93.612  0.00  0.00     0.210 HD
ENDBRANCH  27  29
ENDBRANCH  26  27
BRANCH  26  31
HETATM   31  C   UNK     0      15.817   3.860  93.840  0.00  0.00     0.266 C 
HETATM   32  O   UNK     0      15.897   5.057  93.572  0.00  0.00    -0.269 OA
HETATM   33  N   UNK     0      16.892   3.024  94.022  0.00  0.00    -0.236 N 
HETATM   34  H   UNK     0      16.865   2.020  94.155  0.00  0.00     0.197 HD
BRANCH  33  35
HETATM   35  O   UNK     0      18.156   3.617  93.886  0.00  0.00    -0.287 OA
HETATM   36  H   UNK     0      18.314   3.474  92.938  0.00  0.00     0.244 HD
ENDBRANCH  33  35
ENDBRANCH  26  31
ENDBRANCH  24  26
ENDBRANCH  19  22
ENDBRANCH  15  16
ENDBRANCH  11  14
ENDBRANCH   7   8
ENDBRANCH   2   7
TORSDOF 10
ENDMDL
MODEL 8
REMARK VINA RESULT:      -4.6      1.567      2.085
REMARK  10 active torsions:
REMARK  status: ('A' for Active; 'I' for Inactive)
REMARK    1  A    between atoms: O_2  and  C_18 
REMARK    2  A    between atoms: O_5  and  N_8 
REMARK    3  A    between atoms: N_6  and  C_11 
REMARK    4  A    between atoms: N_7  and  C_15 
REMARK       I    between atoms: N_7  and  C_24 
REMARK       I    between atoms: N_8  and  C_23 
REMARK    5  A    between atoms: C_11  and  C_14 
REMARK    6  A    between atoms: C_15  and  C_18 
REMARK    7  A    between atoms: C_15  and  C_23 
REMARK    8  A    between atoms: C_21  and  C_26 
REMARK    9  A    between atoms: C_24  and  C_25 
REMARK   10  A    between atoms: C_29  and  C_32 
ROOT
HETATM    1  O   UNK     0      16.732   2.505  92.163  0.00  0.00    -0.388 OA
HETATM    2  N   UNK     0      14.136   3.040  93.201  0.00  0.00     0.096 N 
HETATM    3  C   UNK     0      15.213   2.520  94.056  0.00  0.00     0.299 C 
HETATM    4  C   UNK     0      14.332   2.592  91.816  0.00  0.00     0.299 C 
HETATM    5  C   UNK     0      16.567   2.962  93.507  0.00  0.00     0.198 C 
HETATM    6  C   UNK     0      15.707   3.032  91.320  0.00  0.00     0.198 C 
ENDROOT
BRANCH   2   7
HETATM    7  C   UNK     0      12.829   2.619  93.702  0.00  0.00     0.311 C 
BRANCH   7   8
HETATM    8  C   UNK     0      11.743   3.566  93.319  0.00  0.00    -0.030 A 
HETATM    9  C   UNK     0      11.004   3.345  92.156  0.00  0.00     0.010 A 
HETATM   10  C   UNK     0       9.989   4.231  91.796  0.00  0.00     0.021 A 
HETATM   11  C   UNK     0       9.712   5.336  92.600  0.00  0.00     0.018 A 
HETATM   12  C   UNK     0      10.448   5.558  93.761  0.00  0.00     0.021 A 
HETATM   13  C   UNK     0      11.464   4.672  94.122  0.00  0.00     0.010 A 
BRANCH  11  14
HETATM   14  C   UNK     0       8.669   6.244  92.231  0.00  0.00    -0.061 C 
HETATM   15  C   UNK     0       7.793   7.006  91.920  0.00  0.00    -0.061 C 
BRANCH  15  16
HETATM   16  C   UNK     0       6.752   7.914  91.552  0.00  0.00     0.018 A 
HETATM   17  C   UNK     0       7.065   9.231  91.214  0.00  0.00     0.022 A 
HETATM   18  C   UNK     0       6.049  10.117  90.852  0.00  0.00     0.018 A 
HETATM   19  C   UNK     0       4.746   9.666  90.836  0.00  0.00     0.032 A 
HETATM   20  C   UNK     0       4.411   8.370  91.166  0.00  0.00     0.018 A 
HETATM   21  C   UNK     0       5.426   7.484  91.529  0.00  0.00     0.022 A 
BRANCH  19  22
HETATM   22  C   UNK     0       3.665  10.611  90.453  0.00  0.00     0.252 C 
HETATM   23  O   UNK     0       3.032  10.410  89.419  0.00  0.00    -0.268 OA
HETATM   24  N   UNK     0       3.434  11.660  91.331  0.00  0.00    -0.341 N 
HETATM   25  H   UNK     0       3.980  11.747  92.180  0.00  0.00     0.163 HD
BRANCH  24  26
HETATM   26  C   UNK     0       2.405  12.644  91.111  0.00  0.00     0.207 C 
BRANCH  26  27
HETATM   27  C   UNK     0       1.737  13.105  92.413  0.00  0.00     0.146 C 
HETATM   28  C   UNK     0       1.977  12.139  93.567  0.00  0.00     0.042 C 
BRANCH  27  29
HETATM   29  O   UNK     0       2.236  14.393  92.775  0.00  0.00    -0.393 OA
HETATM   30  H   UNK     0       3.009  14.269  93.351  0.00  0.00     0.210 HD
ENDBRANCH  27  29
ENDBRANCH  26  27
BRANCH  26  31
HETATM   31  C   UNK     0       3.033  13.816  90.364  0.00  0.00     0.266 C 
HETATM   32  O   UNK     0       2.378  14.607  89.689  0.00  0.00    -0.269 OA
HETATM   33  N   UNK     0       4.399  13.850  90.507  0.00  0.00    -0.236 N 
HETATM   34  H   UNK     0       4.977  13.165  90.980  0.00  0.00     0.197 HD
BRANCH  33  35
HETATM   35  O   UNK     0       5.058  14.878  89.818  0.00  0.00    -0.287 OA
HETATM   36  H   UNK     0       5.636  15.217  90.523  0.00  0.00     0.244 HD
ENDBRANCH  33  35
ENDBRANCH  26  31
ENDBRANCH  24  26
ENDBRANCH  19  22
ENDBRANCH  15  16
ENDBRANCH  11  14
ENDBRANCH   7   8
ENDBRANCH   2   7
TORSDOF 10
ENDMDL
MODEL 9
REMARK VINA RESULT:      -4.5      2.154     12.372
REMARK  10 active torsions:
REMARK  status: ('A' for Active; 'I' for Inactive)
REMARK    1  A    between atoms: O_2  and  C_18 
REMARK    2  A    between atoms: O_5  and  N_8 
REMARK    3  A    between atoms: N_6  and  C_11 
REMARK    4  A    between atoms: N_7  and  C_15 
REMARK       I    between atoms: N_7  and  C_24 
REMARK       I    between atoms: N_8  and  C_23 
REMARK    5  A    between atoms: C_11  and  C_14 
REMARK    6  A    between atoms: C_15  and  C_18 
REMARK    7  A    between atoms: C_15  and  C_23 
REMARK    8  A    between atoms: C_21  and  C_26 
REMARK    9  A    between atoms: C_24  and  C_25 
REMARK   10  A    between atoms: C_29  and  C_32 
ROOT
HETATM    1  O   UNK     0       5.630  15.382  89.556  0.00  0.00    -0.388 OA
HETATM    2  N   UNK     0       3.525  13.572  90.185  0.00  0.00     0.096 N 
HETATM    3  C   UNK     0       4.246  14.307  91.234  0.00  0.00     0.299 C 
HETATM    4  C   UNK     0       4.404  13.355  89.029  0.00  0.00     0.299 C 
HETATM    5  C   UNK     0       4.773  15.625  90.673  0.00  0.00     0.198 C 
HETATM    6  C   UNK     0       4.929  14.695  88.519  0.00  0.00     0.198 C 
ENDROOT
BRANCH   2   7
HETATM    7  C   UNK     0       3.020  12.300  90.699  0.00  0.00     0.311 C 
BRANCH   7   8
HETATM    8  C   UNK     0       4.115  11.336  91.005  0.00  0.00    -0.030 A 
HETATM    9  C   UNK     0       4.878  10.796  89.969  0.00  0.00     0.010 A 
HETATM   10  C   UNK     0       5.901   9.892  90.254  0.00  0.00     0.021 A 
HETATM   11  C   UNK     0       6.162   9.530  91.575  0.00  0.00     0.018 A 
HETATM   12  C   UNK     0       5.401  10.069  92.611  0.00  0.00     0.021 A 
HETATM   13  C   UNK     0       4.377  10.972  92.326  0.00  0.00     0.010 A 
BRANCH  11  14
HETATM   14  C   UNK     0       7.213   8.605  91.867  0.00  0.00    -0.061 C 
HETATM   15  C   UNK     0       8.097   7.827  92.113  0.00  0.00    -0.061 C 
BRANCH  15  16
HETATM   16  C   UNK     0       9.145   6.901  92.405  0.00  0.00     0.018 A 
HETATM   17  C   UNK     0       9.694   6.125  91.384  0.00  0.00     0.022 A 
HETATM   18  C   UNK     0      10.719   5.223  91.668  0.00  0.00     0.018 A 
HETATM   19  C   UNK     0      11.174   5.118  92.966  0.00  0.00     0.032 A 
HETATM   20  C   UNK     0      10.648   5.873  93.994  0.00  0.00     0.018 A 
HETATM   21  C   UNK     0       9.622   6.775  93.710  0.00  0.00     0.022 A 
BRANCH  19  22
HETATM   22  C   UNK     0      12.265   4.155  93.269  0.00  0.00     0.252 C 
HETATM   23  O   UNK     0      12.082   3.292  94.124  0.00  0.00    -0.268 OA
HETATM   24  N   UNK     0      13.426   4.299  92.524  0.00  0.00    -0.341 N 
HETATM   25  H   UNK     0      13.496   5.021  91.816  0.00  0.00     0.163 HD
BRANCH  24  26
HETATM   26  C   UNK     0      14.563   3.428  92.684  0.00  0.00     0.207 C 
BRANCH  26  27
HETATM   27  C   UNK     0      15.425   3.794  93.899  0.00  0.00     0.146 C 
HETATM   28  C   UNK     0      16.774   3.084  93.892  0.00  0.00     0.042 C 
BRANCH  27  29
HETATM   29  O   UNK     0      15.643   5.204  93.921  0.00  0.00    -0.393 OA
HETATM   30  H   UNK     0      16.592   5.364  94.058  0.00  0.00     0.210 HD
ENDBRANCH  27  29
ENDBRANCH  26  27
BRANCH  26  31
HETATM   31  C   UNK     0      14.043   1.997  92.783  0.00  0.00     0.266 C 
HETATM   32  O   UNK     0      14.509   1.169  93.564  0.00  0.00    -0.269 OA
HETATM   33  N   UNK     0      13.037   1.747  91.882  0.00  0.00    -0.236 N 
HETATM   34  H   UNK     0      12.692   2.376  91.167  0.00  0.00     0.197 HD
BRANCH  33  35
HETATM   35  O   UNK     0      12.529   0.440  91.883  0.00  0.00    -0.287 OA
HETATM   36  H   UNK     0      11.714   0.570  92.398  0.00  0.00     0.244 HD
ENDBRANCH  33  35
ENDBRANCH  26  31
ENDBRANCH  24  26
ENDBRANCH  19  22
ENDBRANCH  15  16
ENDBRANCH  11  14
ENDBRANCH   7   8
ENDBRANCH   2   7
TORSDOF 10
ENDMDL
