MODEL 1
REMARK VINA RESULT:      -6.9      0.000      0.000
REMARK  11 active torsions:
REMARK  status: ('A' for Active; 'I' for Inactive)
REMARK    1  A    between atoms: O_2  and  C_18 
REMARK    2  A    between atoms: O_5  and  P_8 
REMARK    3  A    between atoms: N_6  and  C_11 
REMARK    4  A    between atoms: N_7  and  C_15 
REMARK       I    between atoms: N_7  and  C_24 
REMARK    5  A    between atoms: P_8  and  C_23 
REMARK    6  A    between atoms: C_11  and  C_14 
REMARK    7  A    between atoms: C_15  and  C_18 
REMARK    8  A    between atoms: C_15  and  C_23 
REMARK    9  A    between atoms: C_21  and  C_26 
REMARK   10  A    between atoms: C_24  and  C_25 
REMARK   11  A    between atoms: C_29  and  C_32 
ROOT
HETATM    1  O   UNL     1      16.030   4.109  94.124  1.00  0.00     0.000 OA
HETATM    2  N   UNL     1      14.297   2.712  92.350  1.00  0.00     0.000 N 
HETATM    3  C   UNL     1      14.373   4.180  92.351  1.00  0.00     0.000 C 
HETATM    4  C   UNL     1      14.611   2.190  93.687  1.00  0.00     0.000 C 
HETATM    5  C   UNL     1      15.757   4.625  92.819  1.00  0.00     0.000 C 
HETATM    6  C   UNL     1      15.988   2.682  94.124  1.00  0.00     0.000 C 
ENDROOT
BRANCH   2   7
HETATM    7  C   UNL     1      12.975   2.264  91.914  1.00  0.00     0.000 C 
BRANCH   7   8
HETATM    8  C   UNL     1      12.056   3.401  91.623  1.00  0.00     0.000 A 
HETATM    9  C   UNL     1      11.969   3.912  90.328  1.00  0.00     0.000 A 
HETATM   10  C   UNL     1      11.112   4.978  90.055  1.00  0.00     0.000 A 
HETATM   11  C   UNL     1      10.341   5.530  91.077  1.00  0.00     0.000 A 
HETATM   12  C   UNL     1      10.427   5.021  92.371  1.00  0.00     0.000 A 
HETATM   13  C   UNL     1      11.285   3.956  92.644  1.00  0.00     0.000 A 
BRANCH  11  14
HETATM   14  C   UNL     1       9.460   6.622  90.796  1.00  0.00     0.000 C 
HETATM   15  C   UNL     1       8.720   7.540  90.560  1.00  0.00     0.000 C 
BRANCH  15  16
HETATM   16  C   UNL     1       7.839   8.631  90.278  1.00  0.00     0.000 A 
HETATM   17  C   UNL     1       6.497   8.557  90.651  1.00  0.00     0.000 A 
HETATM   18  C   UNL     1       5.639   9.622  90.379  1.00  0.00     0.000 A 
HETATM   19  C   UNL     1       6.142  10.737  89.741  1.00  0.00     0.000 A 
HETATM   20  C   UNL     1       7.465  10.834  89.362  1.00  0.00     0.000 A 
HETATM   21  C   UNL     1       8.323   9.769  89.634  1.00  0.00     0.000 A 
BRANCH  19  22
HETATM   22  C   UNL     1       5.227  11.871  89.450  1.00  0.00     0.000 C 
HETATM   23  O   UNL     1       5.038  12.204  88.282  1.00  0.00     0.000 OA
HETATM   24  N   UNL     1       4.625  12.465  90.550  1.00  0.00     0.000 N 
HETATM   25  HN  UNL     1       4.811  12.120  91.485  1.00  0.00     0.000 HD
BRANCH  24  26
HETATM   26  C   UNL     1       3.695  13.559  90.429  1.00  0.00     0.000 C 
BRANCH  26  27
HETATM   27  C   UNL     1       2.302  13.217  90.972  1.00  0.00     0.000 C 
HETATM   28  C   UNL     1       2.356  12.254  92.153  1.00  0.00     0.000 C 
BRANCH  27  29
HETATM   29  O   UNL     1       1.642  14.414  91.380  1.00  0.00     0.000 OA
HETATM   30  H   UNL     1       1.802  14.542  92.331  1.00  0.00     0.000 HD
ENDBRANCH  27  29
ENDBRANCH  26  27
BRANCH  26  31
HETATM   31  C   UNL     1       4.293  14.760  91.154  1.00  0.00     0.000 C 
HETATM   32  O   UNL     1       4.171  14.942  92.364  1.00  0.00     0.000 OA
BRANCH  31  33
HETATM   33  P   UNL     1       4.938  15.617  90.294  1.00  0.00     0.000 P 
HETATM   34  H   UNL     1       4.369  16.866  90.436  1.00  0.00     0.000 HD
BRANCH  33  35
HETATM   35  O   UNL     1       4.886  15.272  88.936  1.00  0.00     0.000 OA
HETATM   36  H   UNL     1       4.002  14.869  88.892  1.00  0.00     0.000 HD
ENDBRANCH  33  35
ENDBRANCH  31  33
ENDBRANCH  26  31
ENDBRANCH  24  26
ENDBRANCH  19  22
ENDBRANCH  15  16
ENDBRANCH  11  14
ENDBRANCH   7   8
ENDBRANCH   2   7
TORSDOF 11
ENDMDL
