MODEL 1
REMARK VINA RESULT:      -6.1      0.000      0.000
REMARK  12 active torsions:
REMARK  status: ('A' for Active; 'I' for Inactive)
REMARK    1  A    between atoms: O_2  and  C_16 
REMARK    2  A    between atoms: N_5  and  C_9 
REMARK    3  A    between atoms: N_6  and  C_13 
REMARK       I    between atoms: N_6  and  C_22 
REMARK    4  A    between atoms: C_9  and  C_12 
REMARK    5  A    between atoms: C_13  and  C_16 
REMARK    6  A    between atoms: C_13  and  C_21 
REMARK    7  A    between atoms: C_19  and  C_24 
REMARK    8  A    between atoms: C_21  and  C_33 
REMARK    9  A    between atoms: C_22  and  C_23 
REMARK   10  A    between atoms: C_27  and  C_30 
REMARK   11  A    between atoms: C_33  and  C_34 
REMARK   12  A    between atoms: C_34  and  C_35 
ROOT
HETATM    1  O   UNL     1      16.673   4.272  94.103  1.00  0.00    -0.350 OA
HETATM    2  N   UNL     1      14.790   2.708  92.651  1.00  0.00     0.147 N 
HETATM    3  C   UNL     1      14.750   4.177  92.626  1.00  0.00     0.283 C 
HETATM    4  C   UNL     1      15.358   2.242  93.923  1.00  0.00     0.283 C 
HETATM    5  C   UNL     1      16.152   4.736  92.856  1.00  0.00     0.178 C 
HETATM    6  C   UNL     1      16.744   2.846  94.124  1.00  0.00     0.178 C 
ENDROOT
BRANCH   2   7
HETATM    7  C   UNL     1      13.455   2.150  92.443  1.00  0.00     0.277 C 
BRANCH   7   8
HETATM    8  C   UNL     1      12.397   3.201  92.419  1.00  0.00     0.011 A 
HETATM    9  C   UNL     1      11.908   3.668  91.198  1.00  0.00    -0.002 A 
HETATM   10  C   UNL     1      10.921   4.653  91.174  1.00  0.00     0.008 A 
HETATM   11  C   UNL     1      10.422   5.168  92.370  1.00  0.00     0.042 A 
HETATM   12  C   UNL     1      10.910   4.702  93.589  1.00  0.00     0.008 A 
HETATM   13  C   UNL     1      11.898   3.718  93.614  1.00  0.00    -0.002 A 
BRANCH  11  14
HETATM   14  C   UNL     1       9.407   6.177  92.345  1.00  0.00    -0.059 C 
HETATM   15  C   UNL     1       8.555   7.024  92.325  1.00  0.00    -0.059 C 
BRANCH  15  16
HETATM   16  C   UNL     1       7.542   8.033  92.301  1.00  0.00     0.042 A 
HETATM   17  C   UNL     1       7.757   9.252  92.944  1.00  0.00     0.008 A 
HETATM   18  C   UNL     1       6.769  10.237  92.918  1.00  0.00     0.005 A 
HETATM   19  C   UNL     1       5.590   9.981  92.249  1.00  0.00     0.056 A 
HETATM   20  C   UNL     1       5.354   8.784  91.606  1.00  0.00     0.005 A 
HETATM   21  C   UNL     1       6.340   7.799  91.632  1.00  0.00     0.008 A 
BRANCH  19  22
HETATM   22  C   UNL     1       4.538  11.030  92.223  1.00  0.00     0.254 C 
HETATM   23  O   UNL     1       3.443  10.793  92.727  1.00  0.00    -0.268 OA
HETATM   24  N   UNL     1       4.895  12.235  91.636  1.00  0.00    -0.335 N 
HETATM   25  HN  UNL     1       5.828  12.367  91.262  1.00  0.00     0.164 HD
BRANCH  24  26
HETATM   26  C   UNL     1       3.994  13.356  91.555  1.00  0.00     0.166 C 
BRANCH  26  27
HETATM   27  C   UNL     1       4.098  14.290  92.768  1.00  0.00     0.138 C 
HETATM   28  C   UNL     1       2.748  14.867  93.179  1.00  0.00     0.034 C 
BRANCH  27  29
HETATM   29  O   UNL     1       4.654  13.577  93.873  1.00  0.00    -0.383 OA
HETATM   30  H   UNL     1       4.311  12.668  93.852  1.00  0.00     0.210 HD
ENDBRANCH  27  29
ENDBRANCH  26  27
BRANCH  26  31
HETATM   31  C   UNL     1       4.288  14.099  90.256  1.00  0.00     0.181 C 
HETATM   32  O   UNL     1       4.533  15.303  90.214  1.00  0.00    -0.294 OA
BRANCH  31  33
HETATM   33  C   UNL     1       5.454  13.371  89.397  1.00  0.00     0.138 C 
BRANCH  33  34
HETATM   34  C   UNL     1       4.718  12.889  88.291  1.00  0.00     0.208 C 
HETATM   35  O   UNL     1       4.943  13.424  87.230  1.00  0.00    -0.289 OA
BRANCH  34  36
HETATM   36  C   UNL     1       4.000  11.735  88.138  1.00  0.00     0.194 C 
HETATM   37  O   UNL     1       3.079  11.122  88.994  1.00  0.00    -0.185 OA
ENDBRANCH  34  36
ENDBRANCH  33  34
ENDBRANCH  31  33
ENDBRANCH  26  31
ENDBRANCH  24  26
ENDBRANCH  19  22
ENDBRANCH  15  16
ENDBRANCH  11  14
ENDBRANCH   7   8
ENDBRANCH   2   7
TORSDOF 12
ENDMDL
