MODEL 1
REMARK VINA RESULT:      -7.0      0.000      0.000
REMARK  10 active torsions:
REMARK  status: ('A' for Active; 'I' for Inactive)
REMARK    1  A    between atoms: O_2  and  C_16 
REMARK    2  A    between atoms: N_5  and  C_9 
REMARK    3  A    between atoms: N_6  and  C_13 
REMARK       I    between atoms: N_6  and  C_22 
REMARK    4  A    between atoms: C_9  and  C_12 
REMARK    5  A    between atoms: C_13  and  C_16 
REMARK    6  A    between atoms: C_13  and  C_21 
REMARK    7  A    between atoms: C_19  and  C_24 
REMARK    8  A    between atoms: C_22  and  C_23 
REMARK    9  A    between atoms: C_27  and  C_30 
REMARK   10  A    between atoms: N_33  and  S_34 
ROOT
HETATM    1  C   UNL     1       5.713  11.015  89.621  1.00  0.00     0.056 A 
HETATM    2  C   UNL     1       7.063  11.186  89.394  1.00  0.00     0.005 A 
HETATM    3  C   UNL     1       5.192   9.833  90.104  1.00  0.00     0.005 A 
HETATM    4  C   UNL     1       7.428   8.921  90.151  1.00  0.00     0.042 A 
HETATM    5  C   UNL     1       7.931  10.127  89.662  1.00  0.00     0.008 A 
HETATM    6  C   UNL     1       6.059   8.774  90.372  1.00  0.00     0.008 A 
ENDROOT
BRANCH   1   7
HETATM    7  C   UNL     1       4.790  12.144  89.337  1.00  0.00     0.254 C 
HETATM    8  O   UNL     1       4.524  12.423  88.171  1.00  0.00    -0.268 OA
HETATM    9  N   UNL     1       4.268  12.795  90.446  1.00  0.00    -0.337 N 
HETATM   10  HN  UNL     1       4.513  12.493  91.382  1.00  0.00     0.164 HD
BRANCH   9  11
HETATM   11  C   UNL     1       3.340  13.892  90.336  1.00  0.00     0.172 C 
BRANCH  11  12
HETATM   12  C   UNL     1       2.002  13.611  91.032  1.00  0.00     0.136 C 
HETATM   13  C   UNL     1       2.068  12.400  91.956  1.00  0.00     0.034 C 
BRANCH  12  14
HETATM   14  O   UNL     1       1.611  14.754  91.792  1.00  0.00    -0.383 OA
HETATM   15  H   UNL     1       1.924  14.635  92.705  1.00  0.00     0.210 HD
ENDBRANCH  12  14
ENDBRANCH  11  12
BRANCH  11  16
HETATM   16  C   UNL     1       4.015  15.133  90.912  1.00  0.00     0.398 A 
HETATM   17  O   UNL     1       5.155  15.478  90.606  1.00  0.00    -0.136 OA
HETATM   18  N   UNL     1       4.954  15.592  92.108  1.00  0.00     0.142 N 
HETATM   19  HN  UNL     1       5.875  15.925  92.061  1.00  0.00     0.338 HD
BRANCH  18  20
HETATM   20  S   UNL     1       4.177  15.132  93.166  1.00  0.00     0.076 SA
HETATM   21  H   UNL     1       3.524  14.160  92.962  1.00  0.00     0.136 HD
ENDBRANCH  18  20
ENDBRANCH  11  16
ENDBRANCH   9  11
ENDBRANCH   1   7
BRANCH   4  22
HETATM   22  C   UNL     1       8.317   7.835  90.423  1.00  0.00    -0.059 C 
HETATM   23  C   UNL     1       9.065   6.922  90.651  1.00  0.00    -0.059 C 
BRANCH  23  24
HETATM   24  C   UNL     1       9.955   5.835  90.924  1.00  0.00     0.042 A 
HETATM   25  C   UNL     1      10.543   5.136  89.871  1.00  0.00     0.008 A 
HETATM   26  C   UNL     1      11.409   4.075  90.137  1.00  0.00    -0.002 A 
HETATM   27  C   UNL     1      11.687   3.716  91.456  1.00  0.00     0.011 A 
HETATM   28  C   UNL     1      11.098   4.416  92.508  1.00  0.00    -0.002 A 
HETATM   29  C   UNL     1      10.232   5.476  92.242  1.00  0.00     0.008 A 
BRANCH  27  30
HETATM   30  C   UNL     1      12.615   2.583  91.739  1.00  0.00     0.277 C 
BRANCH  30  31
HETATM   31  N   UNL     1      13.610   2.919  92.755  1.00  0.00     0.147 N 
HETATM   32  C   UNL     1      14.447   1.753  93.069  1.00  0.00     0.283 C 
HETATM   33  C   UNL     1      15.485   2.130  94.123  1.00  0.00     0.178 C 
HETATM   34  O   UNL     1      16.293   3.214  93.660  1.00  0.00    -0.350 OA
HETATM   35  C   UNL     1      15.490   4.362  93.382  1.00  0.00     0.178 C 
HETATM   36  C   UNL     1      14.452   4.038  92.312  1.00  0.00     0.283 C 
ENDBRANCH  30  31
ENDBRANCH  27  30
ENDBRANCH  23  24
ENDBRANCH   4  22
TORSDOF 10
ENDMDL
MODEL 2
REMARK VINA RESULT:      -6.8      1.360      1.753
REMARK  10 active torsions:
REMARK  status: ('A' for Active; 'I' for Inactive)
REMARK    1  A    between atoms: O_2  and  C_16 
REMARK    2  A    between atoms: N_5  and  C_9 
REMARK    3  A    between atoms: N_6  and  C_13 
REMARK       I    between atoms: N_6  and  C_22 
REMARK    4  A    between atoms: C_9  and  C_12 
REMARK    5  A    between atoms: C_13  and  C_16 
REMARK    6  A    between atoms: C_13  and  C_21 
REMARK    7  A    between atoms: C_19  and  C_24 
REMARK    8  A    between atoms: C_22  and  C_23 
REMARK    9  A    between atoms: C_27  and  C_30 
REMARK   10  A    between atoms: N_33  and  S_34 
ROOT
HETATM    1  C   UNL     1       4.864   9.671  90.505  1.00  0.00     0.056 A 
HETATM    2  C   UNL     1       6.165  10.124  90.452  1.00  0.00     0.005 A 
HETATM    3  C   UNL     1       4.553   8.348  90.739  1.00  0.00     0.005 A 
HETATM    4  C   UNL     1       6.916   7.868  90.879  1.00  0.00     0.042 A 
HETATM    5  C   UNL     1       7.204   9.212  90.641  1.00  0.00     0.008 A 
HETATM    6  C   UNL     1       5.591   7.436  90.928  1.00  0.00     0.008 A 
ENDROOT
BRANCH   1   7
HETATM    7  C   UNL     1       3.757  10.643  90.306  1.00  0.00     0.254 C 
HETATM    8  O   UNL     1       2.643  10.228  89.997  1.00  0.00    -0.268 OA
HETATM    9  N   UNL     1       4.075  11.978  90.514  1.00  0.00    -0.337 N 
HETATM   10  HN  UNL     1       5.013  12.244  90.793  1.00  0.00     0.164 HD
BRANCH   9  11
HETATM   11  C   UNL     1       3.106  13.036  90.384  1.00  0.00     0.172 C 
BRANCH  11  12
HETATM   12  C   UNL     1       2.655  13.598  91.738  1.00  0.00     0.136 C 
HETATM   13  C   UNL     1       1.374  12.945  92.244  1.00  0.00     0.034 C 
BRANCH  12  14
HETATM   14  O   UNL     1       3.688  13.402  92.704  1.00  0.00    -0.383 OA
HETATM   15  H   UNL     1       4.438  12.968  92.264  1.00  0.00     0.210 HD
ENDBRANCH  12  14
ENDBRANCH  11  12
BRANCH  11  16
HETATM   16  C   UNL     1       3.718  14.124  89.508  1.00  0.00     0.398 A 
HETATM   17  O   UNL     1       4.463  13.880  88.560  1.00  0.00    -0.136 OA
HETATM   18  N   UNL     1       5.016  15.032  89.383  1.00  0.00     0.142 N 
HETATM   19  HN  UNL     1       5.706  15.010  88.686  1.00  0.00     0.338 HD
BRANCH  18  20
HETATM   20  S   UNL     1       4.974  15.623  90.641  1.00  0.00     0.076 SA
HETATM   21  H   UNL     1       4.647  16.764  90.682  1.00  0.00     0.136 HD
ENDBRANCH  18  20
ENDBRANCH  11  16
ENDBRANCH   9  11
ENDBRANCH   1   7
BRANCH   4  22
HETATM   22  C   UNL     1       7.981   6.933  91.069  1.00  0.00    -0.059 C 
HETATM   23  C   UNL     1       8.877   6.148  91.230  1.00  0.00    -0.059 C 
BRANCH  23  24
HETATM   24  C   UNL     1       9.943   5.212  91.422  1.00  0.00     0.042 A 
HETATM   25  C   UNL     1      10.247   4.757  92.704  1.00  0.00     0.008 A 
HETATM   26  C   UNL     1      11.287   3.847  92.892  1.00  0.00    -0.002 A 
HETATM   27  C   UNL     1      12.021   3.391  91.796  1.00  0.00     0.011 A 
HETATM   28  C   UNL     1      11.715   3.847  90.513  1.00  0.00    -0.002 A 
HETATM   29  C   UNL     1      10.675   4.758  90.327  1.00  0.00     0.008 A 
BRANCH  27  30
HETATM   30  C   UNL     1      13.131   2.417  91.997  1.00  0.00     0.277 C 
BRANCH  30  31
HETATM   31  N   UNL     1      14.121   2.891  92.962  1.00  0.00     0.147 N 
HETATM   32  C   UNL     1      15.205   1.912  93.121  1.00  0.00     0.283 C 
HETATM   33  C   UNL     1      16.230   2.433  94.124  1.00  0.00     0.178 C 
HETATM   34  O   UNL     1      16.753   3.691  93.692  1.00  0.00    -0.350 OA
HETATM   35  C   UNL     1      15.710   4.657  93.565  1.00  0.00     0.178 C 
HETATM   36  C   UNL     1      14.672   4.190  92.550  1.00  0.00     0.283 C 
ENDBRANCH  30  31
ENDBRANCH  27  30
ENDBRANCH  23  24
ENDBRANCH   4  22
TORSDOF 10
ENDMDL
MODEL 3
REMARK VINA RESULT:      -6.8      1.484      1.969
REMARK  10 active torsions:
REMARK  status: ('A' for Active; 'I' for Inactive)
REMARK    1  A    between atoms: O_2  and  C_16 
REMARK    2  A    between atoms: N_5  and  C_9 
REMARK    3  A    between atoms: N_6  and  C_13 
REMARK       I    between atoms: N_6  and  C_22 
REMARK    4  A    between atoms: C_9  and  C_12 
REMARK    5  A    between atoms: C_13  and  C_16 
REMARK    6  A    between atoms: C_13  and  C_21 
REMARK    7  A    between atoms: C_19  and  C_24 
REMARK    8  A    between atoms: C_22  and  C_23 
REMARK    9  A    between atoms: C_27  and  C_30 
REMARK   10  A    between atoms: N_33  and  S_34 
ROOT
HETATM    1  C   UNL     1       5.260  10.490  91.018  1.00  0.00     0.056 A 
HETATM    2  C   UNL     1       6.407  10.752  91.738  1.00  0.00     0.005 A 
HETATM    3  C   UNL     1       5.034   9.271  90.412  1.00  0.00     0.005 A 
HETATM    4  C   UNL     1       7.167   8.511  91.253  1.00  0.00     0.042 A 
HETATM    5  C   UNL     1       7.372   9.752  91.857  1.00  0.00     0.008 A 
HETATM    6  C   UNL     1       5.998   8.270  90.531  1.00  0.00     0.008 A 
ENDROOT
BRANCH   1   7
HETATM    7  C   UNL     1       4.231  11.555  90.893  1.00  0.00     0.254 C 
HETATM    8  O   UNL     1       3.178  11.306  90.311  1.00  0.00    -0.268 OA
HETATM    9  N   UNL     1       4.543  12.772  91.482  1.00  0.00    -0.337 N 
HETATM   10  HN  UNL     1       5.423  12.897  91.968  1.00  0.00     0.164 HD
BRANCH   9  11
HETATM   11  C   UNL     1       3.639  13.894  91.466  1.00  0.00     0.172 C 
BRANCH  11  12
HETATM   12  C   UNL     1       3.618  14.622  90.116  1.00  0.00     0.136 C 
HETATM   13  C   UNL     1       4.984  14.634  89.438  1.00  0.00     0.034 C 
BRANCH  12  14
HETATM   14  O   UNL     1       2.676  13.992  89.249  1.00  0.00    -0.383 OA
HETATM   15  H   UNL     1       3.125  13.262  88.789  1.00  0.00     0.210 HD
ENDBRANCH  12  14
ENDBRANCH  11  12
BRANCH  11  16
HETATM   16  C   UNL     1       2.252  13.381  91.841  1.00  0.00     0.398 A 
HETATM   17  O   UNL     1       1.248  14.091  91.825  1.00  0.00    -0.136 OA
HETATM   18  N   UNL     1       1.275  13.242  93.086  1.00  0.00     0.142 N 
HETATM   19  HN  UNL     1       0.420  13.698  93.238  1.00  0.00     0.338 HD
BRANCH  18  20
HETATM   20  S   UNL     1       2.118  12.526  93.929  1.00  0.00     0.076 SA
HETATM   21  H   UNL     1       1.597  11.901  94.795  1.00  0.00     0.136 HD
ENDBRANCH  18  20
ENDBRANCH  11  16
ENDBRANCH   9  11
ENDBRANCH   1   7
BRANCH   4  22
HETATM   22  C   UNL     1       8.157   7.487  91.373  1.00  0.00    -0.059 C 
HETATM   23  C   UNL     1       8.990   6.625  91.473  1.00  0.00    -0.059 C 
BRANCH  23  24
HETATM   24  C   UNL     1       9.981   5.601  91.592  1.00  0.00     0.042 A 
HETATM   25  C   UNL     1      10.570   5.065  90.447  1.00  0.00     0.008 A 
HETATM   26  C   UNL     1      11.535   4.065  90.563  1.00  0.00    -0.002 A 
HETATM   27  C   UNL     1      11.912   3.602  91.824  1.00  0.00     0.011 A 
HETATM   28  C   UNL     1      11.322   4.140  92.969  1.00  0.00    -0.002 A 
HETATM   29  C   UNL     1      10.357   5.139  92.852  1.00  0.00     0.008 A 
BRANCH  27  30
HETATM   30  C   UNL     1      12.945   2.535  91.947  1.00  0.00     0.277 C 
BRANCH  30  31
HETATM   31  N   UNL     1      13.974   2.866  92.931  1.00  0.00     0.147 N 
HETATM   32  C   UNL     1      14.912   1.747  93.101  1.00  0.00     0.283 C 
HETATM   33  C   UNL     1      15.982   2.120  94.124  1.00  0.00     0.178 C 
HETATM   34  O   UNL     1      16.679   3.296  93.708  1.00  0.00    -0.350 OA
HETATM   35  C   UNL     1      15.779   4.396  93.570  1.00  0.00     0.178 C 
HETATM   36  C   UNL     1      14.704   4.078  92.536  1.00  0.00     0.283 C 
ENDBRANCH  30  31
ENDBRANCH  27  30
ENDBRANCH  23  24
ENDBRANCH   4  22
TORSDOF 10
ENDMDL
MODEL 4
REMARK VINA RESULT:      -6.5      1.527      2.069
REMARK  10 active torsions:
REMARK  status: ('A' for Active; 'I' for Inactive)
REMARK    1  A    between atoms: O_2  and  C_16 
REMARK    2  A    between atoms: N_5  and  C_9 
REMARK    3  A    between atoms: N_6  and  C_13 
REMARK       I    between atoms: N_6  and  C_22 
REMARK    4  A    between atoms: C_9  and  C_12 
REMARK    5  A    between atoms: C_13  and  C_16 
REMARK    6  A    between atoms: C_13  and  C_21 
REMARK    7  A    between atoms: C_19  and  C_24 
REMARK    8  A    between atoms: C_22  and  C_23 
REMARK    9  A    between atoms: C_27  and  C_30 
REMARK   10  A    between atoms: N_33  and  S_34 
ROOT
HETATM    1  C   UNL     1       4.487   9.897  91.099  1.00  0.00     0.056 A 
HETATM    2  C   UNL     1       4.270   8.613  90.647  1.00  0.00     0.005 A 
HETATM    3  C   UNL     1       5.690  10.291  91.647  1.00  0.00     0.005 A 
HETATM    4  C   UNL     1       6.527   8.052  91.299  1.00  0.00     0.042 A 
HETATM    5  C   UNL     1       5.301   7.679  90.749  1.00  0.00     0.008 A 
HETATM    6  C   UNL     1       6.722   9.358  91.749  1.00  0.00     0.008 A 
ENDROOT
BRANCH   1   7
HETATM    7  C   UNL     1       3.389  10.892  90.989  1.00  0.00     0.254 C 
HETATM    8  O   UNL     1       2.355  10.582  90.403  1.00  0.00    -0.268 OA
HETATM    9  N   UNL     1       3.617  12.120  91.596  1.00  0.00    -0.337 N 
HETATM   10  HN  UNL     1       4.487  12.296  92.084  1.00  0.00     0.164 HD
BRANCH   9  11
HETATM   11  C   UNL     1       2.640  13.178  91.596  1.00  0.00     0.172 C 
BRANCH  11  12
HETATM   12  C   UNL     1       2.586  13.935  92.930  1.00  0.00     0.136 C 
HETATM   13  C   UNL     1       3.888  13.828  93.715  1.00  0.00     0.034 C 
BRANCH  12  14
HETATM   14  O   UNL     1       2.304  15.313  92.685  1.00  0.00    -0.383 OA
HETATM   15  H   UNL     1       2.081  15.734  93.533  1.00  0.00     0.210 HD
ENDBRANCH  12  14
ENDBRANCH  11  12
BRANCH  11  16
HETATM   16  C   UNL     1       2.968  14.116  90.439  1.00  0.00     0.398 A 
HETATM   17  O   UNL     1       3.098  13.729  89.280  1.00  0.00    -0.136 OA
HETATM   18  N   UNL     1       4.203  14.711  89.636  1.00  0.00     0.142 N 
HETATM   19  HN  UNL     1       4.453  14.546  88.702  1.00  0.00     0.338 HD
BRANCH  18  20
HETATM   20  S   UNL     1       4.892  15.272  90.705  1.00  0.00     0.076 SA
HETATM   21  H   UNL     1       5.785  14.631  91.156  1.00  0.00     0.136 HD
ENDBRANCH  18  20
ENDBRANCH  11  16
ENDBRANCH   9  11
ENDBRANCH   1   7
BRANCH   4  22
HETATM   22  C   UNL     1       7.583   7.095  91.406  1.00  0.00    -0.059 C 
HETATM   23  C   UNL     1       8.472   6.290  91.495  1.00  0.00    -0.059 C 
BRANCH  23  24
HETATM   24  C   UNL     1       9.529   5.332  91.602  1.00  0.00     0.042 A 
HETATM   25  C   UNL     1      10.149   5.114  92.832  1.00  0.00     0.008 A 
HETATM   26  C   UNL     1      11.181   4.182  92.936  1.00  0.00    -0.002 A 
HETATM   27  C   UNL     1      11.591   3.467  91.810  1.00  0.00     0.011 A 
HETATM   28  C   UNL     1      10.970   3.686  90.581  1.00  0.00    -0.002 A 
HETATM   29  C   UNL     1       9.938   4.619  90.477  1.00  0.00     0.008 A 
BRANCH  27  30
HETATM   30  C   UNL     1      12.693   2.469  91.923  1.00  0.00     0.277 C 
BRANCH  30  31
HETATM   31  N   UNL     1      13.718   2.877  92.883  1.00  0.00     0.147 N 
HETATM   32  C   UNL     1      14.681   1.790  93.110  1.00  0.00     0.283 C 
HETATM   33  C   UNL     1      15.746   2.243  94.105  1.00  0.00     0.178 C 
HETATM   34  O   UNL     1      16.415   3.409  93.622  1.00  0.00    -0.350 OA
HETATM   35  C   UNL     1      15.490   4.480  93.429  1.00  0.00     0.178 C 
HETATM   36  C   UNL     1      14.419   4.082  92.418  1.00  0.00     0.283 C 
ENDBRANCH  30  31
ENDBRANCH  27  30
ENDBRANCH  23  24
ENDBRANCH   4  22
TORSDOF 10
ENDMDL
MODEL 5
REMARK VINA RESULT:      -6.3      1.578      1.791
REMARK  10 active torsions:
REMARK  status: ('A' for Active; 'I' for Inactive)
REMARK    1  A    between atoms: O_2  and  C_16 
REMARK    2  A    between atoms: N_5  and  C_9 
REMARK    3  A    between atoms: N_6  and  C_13 
REMARK       I    between atoms: N_6  and  C_22 
REMARK    4  A    between atoms: C_9  and  C_12 
REMARK    5  A    between atoms: C_13  and  C_16 
REMARK    6  A    between atoms: C_13  and  C_21 
REMARK    7  A    between atoms: C_19  and  C_24 
REMARK    8  A    between atoms: C_22  and  C_23 
REMARK    9  A    between atoms: C_27  and  C_30 
REMARK   10  A    between atoms: N_33  and  S_34 
ROOT
HETATM    1  C   UNL     1       5.793   9.552  90.017  1.00  0.00     0.056 A 
HETATM    2  C   UNL     1       7.061  10.022  90.289  1.00  0.00     0.005 A 
HETATM    3  C   UNL     1       5.480   8.210  90.062  1.00  0.00     0.005 A 
HETATM    4  C   UNL     1       7.771   7.745  90.671  1.00  0.00     0.042 A 
HETATM    5  C   UNL     1       8.062   9.108  90.619  1.00  0.00     0.008 A 
HETATM    6  C   UNL     1       6.480   7.295  90.393  1.00  0.00     0.008 A 
ENDROOT
BRANCH   1   7
HETATM    7  C   UNL     1       4.727  10.526  89.667  1.00  0.00     0.254 C 
HETATM    8  O   UNL     1       4.018  10.312  88.687  1.00  0.00    -0.268 OA
HETATM    9  N   UNL     1       4.599  11.618  90.514  1.00  0.00    -0.337 N 
HETATM   10  HN  UNL     1       5.205  11.716  91.320  1.00  0.00     0.164 HD
BRANCH   9  11
HETATM   11  C   UNL     1       3.597  12.635  90.321  1.00  0.00     0.172 C 
BRANCH  11  12
HETATM   12  C   UNL     1       2.615  12.732  91.496  1.00  0.00     0.136 C 
HETATM   13  C   UNL     1       2.205  11.363  92.028  1.00  0.00     0.034 C 
BRANCH  12  14
HETATM   14  O   UNL     1       3.210  13.482  92.555  1.00  0.00    -0.383 OA
HETATM   15  H   UNL     1       3.463  12.864  93.261  1.00  0.00     0.210 HD
ENDBRANCH  12  14
ENDBRANCH  11  12
BRANCH  11  16
HETATM   16  C   UNL     1       4.316  13.960  90.090  1.00  0.00     0.398 A 
HETATM   17  O   UNL     1       3.741  15.046  90.104  1.00  0.00    -0.136 OA
HETATM   18  N   UNL     1       4.705  14.975  88.931  1.00  0.00     0.142 N 
HETATM   19  HN  UNL     1       4.378  15.890  88.793  1.00  0.00     0.338 HD
BRANCH  18  20
HETATM   20  S   UNL     1       5.392  14.091  88.106  1.00  0.00     0.076 SA
HETATM   21  H   UNL     1       5.455  12.962  88.472  1.00  0.00     0.136 HD
ENDBRANCH  18  20
ENDBRANCH  11  16
ENDBRANCH   9  11
ENDBRANCH   1   7
BRANCH   4  22
HETATM   22  C   UNL     1       8.797   6.808  91.008  1.00  0.00    -0.059 C 
HETATM   23  C   UNL     1       9.660   6.020  91.291  1.00  0.00    -0.059 C 
BRANCH  23  24
HETATM   24  C   UNL     1      10.687   5.082  91.626  1.00  0.00     0.042 A 
HETATM   25  C   UNL     1      11.442   4.486  90.617  1.00  0.00     0.008 A 
HETATM   26  C   UNL     1      12.442   3.570  90.944  1.00  0.00    -0.002 A 
HETATM   27  C   UNL     1      12.687   3.252  92.280  1.00  0.00     0.011 A 
HETATM   28  C   UNL     1      11.931   3.850  93.289  1.00  0.00    -0.002 A 
HETATM   29  C   UNL     1      10.931   4.766  92.961  1.00  0.00     0.008 A 
BRANCH  27  30
HETATM   30  C   UNL     1      13.758   2.275  92.629  1.00  0.00     0.277 C 
BRANCH  30  31
HETATM   31  N   UNL     1      14.803   2.867  93.461  1.00  0.00     0.147 N 
HETATM   32  C   UNL     1      16.087   2.184  93.249  1.00  0.00     0.283 C 
HETATM   33  C   UNL     1      17.164   2.826  94.119  1.00  0.00     0.178 C 
HETATM   34  O   UNL     1      17.284   4.217  93.817  1.00  0.00    -0.350 OA
HETATM   35  C   UNL     1      16.048   4.895  94.051  1.00  0.00     0.178 C 
HETATM   36  C   UNL     1      14.944   4.303  93.180  1.00  0.00     0.283 C 
ENDBRANCH  30  31
ENDBRANCH  27  30
ENDBRANCH  23  24
ENDBRANCH   4  22
TORSDOF 10
ENDMDL
MODEL 6
REMARK VINA RESULT:      -5.8      3.047      4.076
REMARK  10 active torsions:
REMARK  status: ('A' for Active; 'I' for Inactive)
REMARK    1  A    between atoms: O_2  and  C_16 
REMARK    2  A    between atoms: N_5  and  C_9 
REMARK    3  A    between atoms: N_6  and  C_13 
REMARK       I    between atoms: N_6  and  C_22 
REMARK    4  A    between atoms: C_9  and  C_12 
REMARK    5  A    between atoms: C_13  and  C_16 
REMARK    6  A    between atoms: C_13  and  C_21 
REMARK    7  A    between atoms: C_19  and  C_24 
REMARK    8  A    between atoms: C_22  and  C_23 
REMARK    9  A    between atoms: C_27  and  C_30 
REMARK   10  A    between atoms: N_33  and  S_34 
ROOT
HETATM    1  C   UNL     1       6.218   7.306  88.213  1.00  0.00     0.056 A 
HETATM    2  C   UNL     1       5.861   6.359  89.150  1.00  0.00     0.005 A 
HETATM    3  C   UNL     1       7.535   7.621  87.950  1.00  0.00     0.005 A 
HETATM    4  C   UNL     1       8.205   5.999  89.609  1.00  0.00     0.042 A 
HETATM    5  C   UNL     1       6.865   5.697  89.857  1.00  0.00     0.008 A 
HETATM    6  C   UNL     1       8.540   6.960  88.656  1.00  0.00     0.008 A 
ENDROOT
BRANCH   1   7
HETATM    7  C   UNL     1       5.148   8.009  87.459  1.00  0.00     0.254 C 
HETATM    8  O   UNL     1       5.274   8.169  86.247  1.00  0.00    -0.268 OA
HETATM    9  N   UNL     1       4.049   8.418  88.201  1.00  0.00    -0.337 N 
HETATM   10  HN  UNL     1       4.003   8.228  89.196  1.00  0.00     0.164 HD
BRANCH   9  11
HETATM   11  C   UNL     1       2.920   9.090  87.610  1.00  0.00     0.172 C 
BRANCH  11  12
HETATM   12  C   UNL     1       1.613   8.302  87.763  1.00  0.00     0.136 C 
HETATM   13  C   UNL     1       1.664   6.946  87.066  1.00  0.00     0.034 C 
BRANCH  12  14
HETATM   14  O   UNL     1       1.337   8.100  89.149  1.00  0.00    -0.383 OA
HETATM   15  H   UNL     1       1.970   7.449  89.494  1.00  0.00     0.210 HD
ENDBRANCH  12  14
ENDBRANCH  11  12
BRANCH  11  16
HETATM   16  C   UNL     1       2.813  10.471  88.249  1.00  0.00     0.398 A 
HETATM   17  O   UNL     1       3.338  11.473  87.769  1.00  0.00    -0.136 OA
HETATM   18  N   UNL     1       3.564  11.426  89.271  1.00  0.00     0.142 N 
HETATM   19  HN  UNL     1       4.014  12.278  89.085  1.00  0.00     0.338 HD
BRANCH  18  20
HETATM   20  S   UNL     1       3.595  10.571  90.367  1.00  0.00     0.076 SA
HETATM   21  H   UNL     1       4.439   9.734  90.363  1.00  0.00     0.136 HD
ENDBRANCH  18  20
ENDBRANCH  11  16
ENDBRANCH   9  11
ENDBRANCH   1   7
BRANCH   4  22
HETATM   22  C   UNL     1       9.234   5.323  90.336  1.00  0.00    -0.059 C 
HETATM   23  C   UNL     1      10.099   4.754  90.946  1.00  0.00    -0.059 C 
BRANCH  23  24
HETATM   24  C   UNL     1      11.130   4.077  91.672  1.00  0.00     0.042 A 
HETATM   25  C   UNL     1      12.125   3.383  90.985  1.00  0.00     0.008 A 
HETATM   26  C   UNL     1      13.128   2.722  91.693  1.00  0.00    -0.002 A 
HETATM   27  C   UNL     1      13.137   2.756  93.088  1.00  0.00     0.011 A 
HETATM   28  C   UNL     1      12.141   3.452  93.773  1.00  0.00    -0.002 A 
HETATM   29  C   UNL     1      11.137   4.112  93.065  1.00  0.00     0.008 A 
BRANCH  27  30
HETATM   30  C   UNL     1      14.211   2.051  93.843  1.00  0.00     0.277 C 
BRANCH  30  31
HETATM   31  N   UNL     1      15.355   2.917  94.124  1.00  0.00     0.147 N 
HETATM   32  C   UNL     1      16.528   2.500  93.342  1.00  0.00     0.283 C 
HETATM   33  C   UNL     1      17.705   3.424  93.644  1.00  0.00     0.178 C 
HETATM   34  O   UNL     1      17.363   4.778  93.345  1.00  0.00    -0.350 OA
HETATM   35  C   UNL     1      16.243   5.201  94.124  1.00  0.00     0.178 C 
HETATM   36  C   UNL     1      15.031   4.321  93.835  1.00  0.00     0.283 C 
ENDBRANCH  30  31
ENDBRANCH  27  30
ENDBRANCH  23  24
ENDBRANCH   4  22
TORSDOF 10
ENDMDL
MODEL 7
REMARK VINA RESULT:      -5.6      2.797      3.760
REMARK  10 active torsions:
REMARK  status: ('A' for Active; 'I' for Inactive)
REMARK    1  A    between atoms: O_2  and  C_16 
REMARK    2  A    between atoms: N_5  and  C_9 
REMARK    3  A    between atoms: N_6  and  C_13 
REMARK       I    between atoms: N_6  and  C_22 
REMARK    4  A    between atoms: C_9  and  C_12 
REMARK    5  A    between atoms: C_13  and  C_16 
REMARK    6  A    between atoms: C_13  and  C_21 
REMARK    7  A    between atoms: C_19  and  C_24 
REMARK    8  A    between atoms: C_22  and  C_23 
REMARK    9  A    between atoms: C_27  and  C_30 
REMARK   10  A    between atoms: N_33  and  S_34 
ROOT
HETATM    1  C   UNL     1       6.149   8.467  89.065  1.00  0.00     0.056 A 
HETATM    2  C   UNL     1       6.160   8.168  90.411  1.00  0.00     0.005 A 
HETATM    3  C   UNL     1       7.118   8.003  88.200  1.00  0.00     0.005 A 
HETATM    4  C   UNL     1       8.177   6.887  90.062  1.00  0.00     0.042 A 
HETATM    5  C   UNL     1       7.185   7.369  90.916  1.00  0.00     0.008 A 
HETATM    6  C   UNL     1       8.144   7.204  88.704  1.00  0.00     0.008 A 
ENDROOT
BRANCH   1   7
HETATM    7  C   UNL     1       5.055   9.317  88.527  1.00  0.00     0.254 C 
HETATM    8  O   UNL     1       4.807   9.285  87.324  1.00  0.00    -0.268 OA
HETATM    9  N   UNL     1       4.366  10.082  89.458  1.00  0.00    -0.337 N 
HETATM   10  HN  UNL     1       4.611  10.039  90.440  1.00  0.00     0.164 HD
BRANCH   9  11
HETATM   11  C   UNL     1       3.265  10.938  89.095  1.00  0.00     0.172 C 
BRANCH  11  12
HETATM   12  C   UNL     1       3.709  12.366  88.757  1.00  0.00     0.136 C 
HETATM   13  C   UNL     1       4.721  12.915  89.757  1.00  0.00     0.034 C 
BRANCH  12  14
HETATM   14  O   UNL     1       4.288  12.390  87.452  1.00  0.00    -0.383 OA
HETATM   15  H   UNL     1       5.039  11.773  87.441  1.00  0.00     0.210 HD
ENDBRANCH  12  14
ENDBRANCH  11  12
BRANCH  11  16
HETATM   16  C   UNL     1       2.539  10.290  87.921  1.00  0.00     0.398 A 
HETATM   17  O   UNL     1       1.669  10.868  87.270  1.00  0.00    -0.136 OA
HETATM   18  N   UNL     1       1.239   9.443  87.581  1.00  0.00     0.142 N 
HETATM   19  HN  UNL     1       0.458   9.717  87.053  1.00  0.00     0.338 HD
BRANCH  18  20
HETATM   20  S   UNL     1       1.456   8.378  88.447  1.00  0.00     0.076 SA
HETATM   21  H   UNL     1       0.493   7.786  88.813  1.00  0.00     0.136 HD
ENDBRANCH  18  20
ENDBRANCH  11  16
ENDBRANCH   9  11
ENDBRANCH   1   7
BRANCH   4  22
HETATM   22  C   UNL     1       9.230   6.070  90.580  1.00  0.00    -0.059 C 
HETATM   23  C   UNL     1      10.116   5.384  91.015  1.00  0.00    -0.059 C 
BRANCH  23  24
HETATM   24  C   UNL     1      11.170   4.567  91.534  1.00  0.00     0.042 A 
HETATM   25  C   UNL     1      11.289   4.375  92.910  1.00  0.00     0.008 A 
HETATM   26  C   UNL     1      12.317   3.581  93.417  1.00  0.00    -0.002 A 
HETATM   27  C   UNL     1      13.225   2.977  92.546  1.00  0.00     0.011 A 
HETATM   28  C   UNL     1      13.105   3.170  91.170  1.00  0.00    -0.002 A 
HETATM   29  C   UNL     1      12.077   3.965  90.664  1.00  0.00     0.008 A 
BRANCH  27  30
HETATM   30  C   UNL     1      14.323   2.126  93.088  1.00  0.00     0.277 C 
BRANCH  30  31
HETATM   31  N   UNL     1      15.367   2.914  93.742  1.00  0.00     0.147 N 
HETATM   32  C   UNL     1      16.700   2.454  93.329  1.00  0.00     0.283 C 
HETATM   33  C   UNL     1      17.773   3.297  94.015  1.00  0.00     0.178 C 
HETATM   34  O   UNL     1      17.600   4.678  93.694  1.00  0.00    -0.350 OA
HETATM   35  C   UNL     1      16.318   5.141  94.119  1.00  0.00     0.178 C 
HETATM   36  C   UNL     1      15.211   4.343  93.437  1.00  0.00     0.283 C 
ENDBRANCH  30  31
ENDBRANCH  27  30
ENDBRANCH  23  24
ENDBRANCH   4  22
TORSDOF 10
ENDMDL
MODEL 8
REMARK VINA RESULT:      -5.6      3.626     12.385
REMARK  10 active torsions:
REMARK  status: ('A' for Active; 'I' for Inactive)
REMARK    1  A    between atoms: O_2  and  C_16 
REMARK    2  A    between atoms: N_5  and  C_9 
REMARK    3  A    between atoms: N_6  and  C_13 
REMARK       I    between atoms: N_6  and  C_22 
REMARK    4  A    between atoms: C_9  and  C_12 
REMARK    5  A    between atoms: C_13  and  C_16 
REMARK    6  A    between atoms: C_13  and  C_21 
REMARK    7  A    between atoms: C_19  and  C_24 
REMARK    8  A    between atoms: C_22  and  C_23 
REMARK    9  A    between atoms: C_27  and  C_30 
REMARK   10  A    between atoms: N_33  and  S_34 
ROOT
HETATM    1  C   UNL     1      10.160   5.669  89.967  1.00  0.00     0.056 A 
HETATM    2  C   UNL     1       9.483   5.950  91.135  1.00  0.00     0.005 A 
HETATM    3  C   UNL     1       9.947   6.379  88.804  1.00  0.00     0.005 A 
HETATM    4  C   UNL     1       8.317   7.720  89.977  1.00  0.00     0.042 A 
HETATM    5  C   UNL     1       8.550   6.988  91.141  1.00  0.00     0.008 A 
HETATM    6  C   UNL     1       9.015   7.416  88.808  1.00  0.00     0.008 A 
ENDROOT
BRANCH   1   7
HETATM    7  C   UNL     1      11.155   4.565  89.962  1.00  0.00     0.254 C 
HETATM    8  O   UNL     1      11.306   3.899  88.941  1.00  0.00    -0.268 OA
HETATM    9  N   UNL     1      11.870   4.386  91.138  1.00  0.00    -0.337 N 
HETATM   10  HN  UNL     1      11.708   4.991  91.934  1.00  0.00     0.164 HD
BRANCH   9  11
HETATM   11  C   UNL     1      12.886   3.374  91.281  1.00  0.00     0.172 C 
BRANCH  11  12
HETATM   12  C   UNL     1      14.306   3.933  91.126  1.00  0.00     0.136 C 
HETATM   13  C   UNL     1      15.207   3.017  90.304  1.00  0.00     0.034 C 
BRANCH  12  14
HETATM   14  O   UNL     1      14.249   5.213  90.497  1.00  0.00    -0.383 OA
HETATM   15  H   UNL     1      14.187   5.891  91.191  1.00  0.00     0.210 HD
ENDBRANCH  12  14
ENDBRANCH  11  12
BRANCH  11  16
HETATM   16  C   UNL     1      12.696   2.712  92.642  1.00  0.00     0.398 A 
HETATM   17  O   UNL     1      11.946   3.163  93.506  1.00  0.00    -0.136 OA
HETATM   18  N   UNL     1      13.268   2.736  94.123  1.00  0.00     0.142 N 
HETATM   19  HN  UNL     1      12.815   3.028  94.943  1.00  0.00     0.338 HD
BRANCH  18  20
HETATM   20  S   UNL     1      14.604   2.484  93.831  1.00  0.00     0.076 SA
HETATM   21  H   UNL     1      14.927   2.585  92.692  1.00  0.00     0.136 HD
ENDBRANCH  18  20
ENDBRANCH  11  16
ENDBRANCH   9  11
ENDBRANCH   1   7
BRANCH   4  22
HETATM   22  C   UNL     1       7.359   8.782  89.982  1.00  0.00    -0.059 C 
HETATM   23  C   UNL     1       6.553   9.674  89.987  1.00  0.00    -0.059 C 
BRANCH  23  24
HETATM   24  C   UNL     1       5.594  10.736  89.992  1.00  0.00     0.042 A 
HETATM   25  C   UNL     1       5.899  11.951  89.380  1.00  0.00     0.008 A 
HETATM   26  C   UNL     1       4.965  12.988  89.388  1.00  0.00    -0.002 A 
HETATM   27  C   UNL     1       3.727  12.807  90.006  1.00  0.00     0.011 A 
HETATM   28  C   UNL     1       3.425  11.590  90.617  1.00  0.00    -0.002 A 
HETATM   29  C   UNL     1       4.359  10.554  90.610  1.00  0.00     0.008 A 
BRANCH  27  30
HETATM   30  C   UNL     1       2.729  13.914  90.011  1.00  0.00     0.277 C 
BRANCH  30  31
HETATM   31  N   UNL     1       2.709  14.640  91.280  1.00  0.00     0.147 N 
HETATM   32  C   UNL     1       1.842  13.962  92.253  1.00  0.00     0.283 C 
HETATM   33  C   UNL     1       1.845  14.730  93.573  1.00  0.00     0.178 C 
HETATM   34  O   UNL     1       3.176  14.839  94.081  1.00  0.00    -0.350 OA
HETATM   35  C   UNL     1       4.019  15.525  93.154  1.00  0.00     0.178 C 
HETATM   36  C   UNL     1       4.067  14.777  91.825  1.00  0.00     0.283 C 
ENDBRANCH  30  31
ENDBRANCH  27  30
ENDBRANCH  23  24
ENDBRANCH   4  22
TORSDOF 10
ENDMDL
MODEL 9
REMARK VINA RESULT:      -5.4      3.712     12.599
REMARK  10 active torsions:
REMARK  status: ('A' for Active; 'I' for Inactive)
REMARK    1  A    between atoms: O_2  and  C_16 
REMARK    2  A    between atoms: N_5  and  C_9 
REMARK    3  A    between atoms: N_6  and  C_13 
REMARK       I    between atoms: N_6  and  C_22 
REMARK    4  A    between atoms: C_9  and  C_12 
REMARK    5  A    between atoms: C_13  and  C_16 
REMARK    6  A    between atoms: C_13  and  C_21 
REMARK    7  A    between atoms: C_19  and  C_24 
REMARK    8  A    between atoms: C_22  and  C_23 
REMARK    9  A    between atoms: C_27  and  C_30 
REMARK   10  A    between atoms: N_33  and  S_34 
ROOT
HETATM    1  C   UNL     1      10.447   4.733  92.647  1.00  0.00     0.056 A 
HETATM    2  C   UNL     1       9.409   4.531  91.762  1.00  0.00     0.005 A 
HETATM    3  C   UNL     1      10.533   5.860  93.438  1.00  0.00     0.005 A 
HETATM    4  C   UNL     1       8.475   6.650  92.450  1.00  0.00     0.042 A 
HETATM    5  C   UNL     1       8.411   5.501  91.662  1.00  0.00     0.008 A 
HETATM    6  C   UNL     1       9.536   6.830  93.338  1.00  0.00     0.008 A 
ENDROOT
BRANCH   1   7
HETATM    7  C   UNL     1      11.509   3.698  92.756  1.00  0.00     0.254 C 
HETATM    8  O   UNL     1      11.217   2.518  92.577  1.00  0.00    -0.268 OA
HETATM    9  N   UNL     1      12.786   4.165  93.034  1.00  0.00    -0.337 N 
HETATM   10  HN  UNL     1      12.957   5.158  93.144  1.00  0.00     0.164 HD
BRANCH   9  11
HETATM   11  C   UNL     1      13.924   3.289  93.146  1.00  0.00     0.172 C 
BRANCH  11  12
HETATM   12  C   UNL     1      14.380   2.731  91.791  1.00  0.00     0.136 C 
HETATM   13  C   UNL     1      14.234   3.747  90.663  1.00  0.00     0.034 C 
BRANCH  12  14
HETATM   14  O   UNL     1      15.745   2.326  91.877  1.00  0.00    -0.383 OA
HETATM   15  H   UNL     1      16.305   3.090  91.655  1.00  0.00     0.210 HD
ENDBRANCH  12  14
ENDBRANCH  11  12
BRANCH  11  16
HETATM   16  C   UNL     1      15.044   4.065  93.831  1.00  0.00     0.398 A 
HETATM   17  O   UNL     1      15.503   5.114  93.383  1.00  0.00    -0.136 OA
HETATM   18  N   UNL     1      16.627   4.203  93.850  1.00  0.00     0.142 N 
HETATM   19  HN  UNL     1      17.171   4.968  93.565  1.00  0.00     0.338 HD
BRANCH  18  20
HETATM   20  S   UNL     1      16.945   2.878  94.124  1.00  0.00     0.076 SA
HETATM   21  H   UNL     1      16.661   2.080  93.290  1.00  0.00     0.136 HD
ENDBRANCH  18  20
ENDBRANCH  11  16
ENDBRANCH   9  11
ENDBRANCH   1   7
BRANCH   4  22
HETATM   22  C   UNL     1       7.454   7.645  92.345  1.00  0.00    -0.059 C 
HETATM   23  C   UNL     1       6.595   8.482  92.256  1.00  0.00    -0.059 C 
BRANCH  23  24
HETATM   24  C   UNL     1       5.573   9.478  92.152  1.00  0.00     0.042 A 
HETATM   25  C   UNL     1       5.376  10.385  93.192  1.00  0.00     0.008 A 
HETATM   26  C   UNL     1       4.378  11.354  93.092  1.00  0.00    -0.002 A 
HETATM   27  C   UNL     1       3.579  11.417  91.949  1.00  0.00     0.011 A 
HETATM   28  C   UNL     1       3.778  10.509  90.909  1.00  0.00    -0.002 A 
HETATM   29  C   UNL     1       4.776   9.539  91.011  1.00  0.00     0.008 A 
BRANCH  27  30
HETATM   30  C   UNL     1       2.515  12.455  91.842  1.00  0.00     0.277 C 
BRANCH  30  31
HETATM   31  N   UNL     1       3.015  13.710  91.283  1.00  0.00     0.147 N 
HETATM   32  C   UNL     1       4.003  14.322  92.182  1.00  0.00     0.283 C 
HETATM   33  C   UNL     1       4.519  15.624  91.574  1.00  0.00     0.178 C 
HETATM   34  O   UNL     1       5.096  15.378  90.290  1.00  0.00    -0.350 OA
HETATM   35  C   UNL     1       4.133  14.812  89.401  1.00  0.00     0.178 C 
HETATM   36  C   UNL     1       3.608  13.492  89.957  1.00  0.00     0.283 C 
ENDBRANCH  30  31
ENDBRANCH  27  30
ENDBRANCH  23  24
ENDBRANCH   4  22
TORSDOF 10
ENDMDL
