MODEL 1
REMARK VINA RESULT:      -6.4      0.000      0.000
REMARK  14 active torsions:
REMARK  status: ('A' for Active; 'I' for Inactive)
REMARK    1  A    between atoms: O_2  and  C_18 
REMARK    2  A    between atoms: C_5  and  C_8 
REMARK    3  A    between atoms: C_5  and  O_35 
REMARK    4  A    between atoms: C_5  and  C_36 
REMARK    5  A    between atoms: N_6  and  C_11 
REMARK    6  A    between atoms: N_7  and  C_15 
REMARK       I    between atoms: N_7  and  C_24 
REMARK    7  A    between atoms: C_8  and  C_23 
REMARK    8  A    between atoms: C_11  and  C_14 
REMARK    9  A    between atoms: C_15  and  C_18 
REMARK   10  A    between atoms: C_15  and  C_23 
REMARK   11  A    between atoms: C_21  and  C_26 
REMARK   12  A    between atoms: C_24  and  C_25 
REMARK   13  A    between atoms: C_29  and  C_32 
REMARK   14  A    between atoms: C_36  and  O_39 
ROOT
HETATM    1  O   UNL     1      16.954   3.623  93.750  1.00  0.00    -0.350 OA
HETATM    2  N   UNL     1      14.297   3.116  92.863  1.00  0.00     0.147 N 
HETATM    3  C   UNL     1      15.264   2.026  93.056  1.00  0.00     0.283 C 
HETATM    4  C   UNL     1      15.001   4.357  92.511  1.00  0.00     0.283 C 
HETATM    5  C   UNL     1      16.281   2.420  94.124  1.00  0.00     0.178 C 
HETATM    6  C   UNL     1      16.024   4.695  93.590  1.00  0.00     0.178 C 
ENDROOT
BRANCH   2   7
HETATM    7  C   UNL     1      13.319   2.764  91.835  1.00  0.00     0.277 C 
BRANCH   7   8
HETATM    8  C   UNL     1      12.147   3.685  91.828  1.00  0.00     0.011 A 
HETATM    9  C   UNL     1      11.427   3.906  93.003  1.00  0.00    -0.002 A 
HETATM   10  C   UNL     1      10.329   4.766  92.997  1.00  0.00     0.008 A 
HETATM   11  C   UNL     1       9.952   5.406  91.817  1.00  0.00     0.042 A 
HETATM   12  C   UNL     1      10.671   5.187  90.643  1.00  0.00     0.008 A 
HETATM   13  C   UNL     1      11.768   4.326  90.649  1.00  0.00    -0.002 A 
BRANCH  11  14
HETATM   14  C   UNL     1       8.827   6.290  91.812  1.00  0.00    -0.059 C 
HETATM   15  C   UNL     1       7.882   7.033  91.806  1.00  0.00    -0.059 C 
BRANCH  15  16
HETATM   16  C   UNL     1       6.757   7.916  91.800  1.00  0.00     0.042 A 
HETATM   17  C   UNL     1       6.627   8.884  92.796  1.00  0.00     0.008 A 
HETATM   18  C   UNL     1       5.531   9.747  92.788  1.00  0.00     0.005 A 
HETATM   19  C   UNL     1       4.592   9.623  91.785  1.00  0.00     0.056 A 
HETATM   20  C   UNL     1       4.698   8.674  90.790  1.00  0.00     0.005 A 
HETATM   21  C   UNL     1       5.793   7.810  90.797  1.00  0.00     0.008 A 
BRANCH  19  22
HETATM   22  C   UNL     1       3.424  10.541  91.778  1.00  0.00     0.254 C 
HETATM   23  O   UNL     1       2.290  10.069  91.759  1.00  0.00    -0.268 OA
HETATM   24  N   UNL     1       3.716  11.898  91.820  1.00  0.00    -0.335 N 
HETATM   25  HN  UNL     1       4.678  12.214  91.860  1.00  0.00     0.164 HD
BRANCH  24  26
HETATM   26  C   UNL     1       2.693  12.911  91.843  1.00  0.00     0.169 C 
BRANCH  26  27
HETATM   27  C   UNL     1       2.675  13.708  93.154  1.00  0.00     0.138 C 
HETATM   28  C   UNL     1       3.971  13.560  93.944  1.00  0.00     0.034 C 
BRANCH  27  29
HETATM   29  O   UNL     1       2.461  15.090  92.870  1.00  0.00    -0.383 OA
HETATM   30  H   UNL     1       1.513  15.223  92.704  1.00  0.00     0.210 HD
ENDBRANCH  27  29
ENDBRANCH  26  27
BRANCH  26  31
HETATM   31  C   UNL     1       2.914  13.825  90.642  1.00  0.00     0.194 C 
HETATM   32  O   UNL     1       2.006  14.456  90.104  1.00  0.00    -0.289 OA
BRANCH  31  33
HETATM   33  C   UNL     1       4.223  13.823  90.223  1.00  0.00     0.053 C 
BRANCH  33  34
HETATM   34  C   UNL     1       4.427  14.088  88.862  1.00  0.00     0.220 C 
BRANCH  34  35
HETATM   35  O   UNL     1       5.318  14.955  88.773  1.00  0.00    -0.371 OA
HETATM   36  H   UNL     1       6.030  14.451  89.135  1.00  0.00     0.211 HD
ENDBRANCH  34  35
BRANCH  34  37
HETATM   37  C   UNL     1       4.722  12.941  88.105  1.00  0.00     0.185 C 
HETATM   38  O   UNL     1       5.970  13.251  88.418  1.00  0.00    -0.647 OA
BRANCH  37  39
HETATM   39  O   UNL     1       4.114  12.136  87.466  1.00  0.00    -0.774 OA
HETATM   40  H   UNL     1       3.032  12.066  87.802  1.00  0.00     0.167 HD
ENDBRANCH  37  39
ENDBRANCH  34  37
ENDBRANCH  33  34
ENDBRANCH  31  33
ENDBRANCH  26  31
ENDBRANCH  24  26
ENDBRANCH  19  22
ENDBRANCH  15  16
ENDBRANCH  11  14
ENDBRANCH   7   8
ENDBRANCH   2   7
TORSDOF 14
ENDMDL
