MODEL 1
REMARK VINA RESULT:      -5.2      0.000      0.000
REMARK  14 active torsions:
REMARK  status: ('A' for Active; 'I' for Inactive)
REMARK    1  A    between atoms: O_2  and  C_18 
REMARK    2  A    between atoms: C_5  and  C_8 
REMARK    3  A    between atoms: C_5  and  O_35 
REMARK    4  A    between atoms: C_5  and  C_36 
REMARK    5  A    between atoms: N_6  and  C_11 
REMARK    6  A    between atoms: N_7  and  C_15 
REMARK       I    between atoms: N_7  and  C_24 
REMARK    7  A    between atoms: C_8  and  C_23 
REMARK    8  A    between atoms: C_11  and  C_14 
REMARK    9  A    between atoms: C_15  and  C_18 
REMARK   10  A    between atoms: C_15  and  C_23 
REMARK   11  A    between atoms: C_21  and  C_26 
REMARK   12  A    between atoms: C_24  and  C_25 
REMARK   13  A    between atoms: C_29  and  C_32 
REMARK   14  A    between atoms: C_36  and  O_39 
ROOT
HETATM    1  O   UNL     1       2.983  15.030  94.096  1.00  0.00    -0.350 OA
HETATM    2  N   UNL     1       2.530  14.630  91.314  1.00  0.00     0.147 N 
HETATM    3  C   UNL     1       1.627  14.068  92.328  1.00  0.00     0.283 C 
HETATM    4  C   UNL     1       3.888  14.753  91.862  1.00  0.00     0.283 C 
HETATM    5  C   UNL     1       1.653  14.937  93.583  1.00  0.00     0.178 C 
HETATM    6  C   UNL     1       3.861  15.605  93.127  1.00  0.00     0.178 C 
ENDROOT
BRANCH   2   7
HETATM    7  C   UNL     1       2.530  13.807  90.107  1.00  0.00     0.277 C 
BRANCH   7   8
HETATM    8  C   UNL     1       3.524  12.698  90.175  1.00  0.00     0.011 A 
HETATM    9  C   UNL     1       4.718  12.788  89.459  1.00  0.00    -0.002 A 
HETATM   10  C   UNL     1       5.648  11.750  89.520  1.00  0.00     0.008 A 
HETATM   11  C   UNL     1       5.384  10.624  90.298  1.00  0.00     0.042 A 
HETATM   12  C   UNL     1       4.192  10.533  91.014  1.00  0.00     0.008 A 
HETATM   13  C   UNL     1       3.261  11.570  90.952  1.00  0.00    -0.002 A 
BRANCH  11  14
HETATM   14  C   UNL     1       6.339   9.560  90.363  1.00  0.00    -0.059 C 
HETATM   15  C   UNL     1       7.141   8.666  90.416  1.00  0.00    -0.059 C 
BRANCH  15  16
HETATM   16  C   UNL     1       8.096   7.604  90.480  1.00  0.00     0.042 A 
HETATM   17  C   UNL     1       7.856   6.501  91.299  1.00  0.00     0.008 A 
HETATM   18  C   UNL     1       8.786   5.463  91.359  1.00  0.00     0.005 A 
HETATM   19  C   UNL     1       9.933   5.551  90.599  1.00  0.00     0.056 A 
HETATM   20  C   UNL     1      10.193   6.631  89.781  1.00  0.00     0.005 A 
HETATM   21  C   UNL     1       9.264   7.670  89.721  1.00  0.00     0.008 A 
BRANCH  19  22
HETATM   22  C   UNL     1      10.925   4.447  90.664  1.00  0.00     0.254 C 
HETATM   23  O   UNL     1      10.837   3.514  89.869  1.00  0.00    -0.268 OA
HETATM   24  N   UNL     1      11.914   4.573  91.630  1.00  0.00    -0.335 N 
HETATM   25  HN  UNL     1      11.938   5.386  92.236  1.00  0.00     0.164 HD
BRANCH  24  26
HETATM   26  C   UNL     1      12.960   3.598  91.802  1.00  0.00     0.169 C 
BRANCH  26  27
HETATM   27  C   UNL     1      14.287   4.032  91.167  1.00  0.00     0.138 C 
HETATM   28  C   UNL     1      14.823   3.006  90.175  1.00  0.00     0.034 C 
BRANCH  27  29
HETATM   29  O   UNL     1      14.108   5.278  90.494  1.00  0.00    -0.383 OA
HETATM   30  H   UNL     1      14.974   5.573  90.165  1.00  0.00     0.210 HD
ENDBRANCH  27  29
ENDBRANCH  26  27
BRANCH  26  31
HETATM   31  C   UNL     1      13.118   3.342  93.297  1.00  0.00     0.194 C 
HETATM   32  O   UNL     1      12.249   2.804  93.980  1.00  0.00    -0.289 OA
BRANCH  31  33
HETATM   33  C   UNL     1      14.313   3.816  93.781  1.00  0.00     0.053 C 
BRANCH  33  34
HETATM   34  C   UNL     1      15.272   2.844  94.096  1.00  0.00     0.220 C 
BRANCH  34  35
HETATM   35  O   UNL     1      15.116   1.888  93.313  1.00  0.00    -0.371 OA
HETATM   36  H   UNL     1      14.476   2.286  92.744  1.00  0.00     0.211 HD
ENDBRANCH  34  35
BRANCH  34  37
HETATM   37  C   UNL     1      16.590   3.333  94.086  1.00  0.00     0.185 C 
HETATM   38  O   UNL     1      15.985   4.504  93.959  1.00  0.00    -0.647 OA
BRANCH  37  39
HETATM   39  O   UNL     1      17.692   2.875  94.124  1.00  0.00    -0.774 OA
HETATM   40  H   UNL     1      18.371   3.352  93.350  1.00  0.00     0.167 HD
ENDBRANCH  37  39
ENDBRANCH  34  37
ENDBRANCH  33  34
ENDBRANCH  31  33
ENDBRANCH  26  31
ENDBRANCH  24  26
ENDBRANCH  19  22
ENDBRANCH  15  16
ENDBRANCH  11  14
ENDBRANCH   7   8
ENDBRANCH   2   7
TORSDOF 14
ENDMDL
MODEL 2
REMARK VINA RESULT:      -4.8      1.651      2.205
REMARK  14 active torsions:
REMARK  status: ('A' for Active; 'I' for Inactive)
REMARK    1  A    between atoms: O_2  and  C_18 
REMARK    2  A    between atoms: C_5  and  C_8 
REMARK    3  A    between atoms: C_5  and  O_35 
REMARK    4  A    between atoms: C_5  and  C_36 
REMARK    5  A    between atoms: N_6  and  C_11 
REMARK    6  A    between atoms: N_7  and  C_15 
REMARK       I    between atoms: N_7  and  C_24 
REMARK    7  A    between atoms: C_8  and  C_23 
REMARK    8  A    between atoms: C_11  and  C_14 
REMARK    9  A    between atoms: C_15  and  C_18 
REMARK   10  A    between atoms: C_15  and  C_23 
REMARK   11  A    between atoms: C_21  and  C_26 
REMARK   12  A    between atoms: C_24  and  C_25 
REMARK   13  A    between atoms: C_29  and  C_32 
REMARK   14  A    between atoms: C_36  and  O_39 
ROOT
HETATM    1  O   UNL     1       3.185  14.661  93.934  1.00  0.00    -0.350 OA
HETATM    2  N   UNL     1       2.864  14.644  91.106  1.00  0.00     0.147 N 
HETATM    3  C   UNL     1       1.854  14.056  91.997  1.00  0.00     0.283 C 
HETATM    4  C   UNL     1       4.193  14.565  91.730  1.00  0.00     0.283 C 
HETATM    5  C   UNL     1       1.885  14.762  93.350  1.00  0.00     0.178 C 
HETATM    6  C   UNL     1       4.169  15.258  93.088  1.00  0.00     0.178 C 
ENDROOT
BRANCH   2   7
HETATM    7  C   UNL     1       2.860  13.975  89.806  1.00  0.00     0.277 C 
BRANCH   7   8
HETATM    8  C   UNL     1       3.818  12.835  89.751  1.00  0.00     0.011 A 
HETATM    9  C   UNL     1       5.078  13.011  89.177  1.00  0.00    -0.002 A 
HETATM   10  C   UNL     1       5.975  11.944  89.123  1.00  0.00     0.008 A 
HETATM   11  C   UNL     1       5.612  10.702  89.643  1.00  0.00     0.042 A 
HETATM   12  C   UNL     1       4.354  10.525  90.216  1.00  0.00     0.008 A 
HETATM   13  C   UNL     1       3.457  11.592  90.270  1.00  0.00    -0.002 A 
BRANCH  11  14
HETATM   14  C   UNL     1       6.533   9.609  89.589  1.00  0.00    -0.059 C 
HETATM   15  C   UNL     1       7.307   8.690  89.543  1.00  0.00    -0.059 C 
BRANCH  15  16
HETATM   16  C   UNL     1       8.228   7.597  89.490  1.00  0.00     0.042 A 
HETATM   17  C   UNL     1       7.904   6.384  90.097  1.00  0.00     0.008 A 
HETATM   18  C   UNL     1       8.802   5.317  90.042  1.00  0.00     0.005 A 
HETATM   19  C   UNL     1      10.000   5.488  89.381  1.00  0.00     0.056 A 
HETATM   20  C   UNL     1      10.343   6.677  88.774  1.00  0.00     0.005 A 
HETATM   21  C   UNL     1       9.447   7.745  88.828  1.00  0.00     0.008 A 
BRANCH  19  22
HETATM   22  C   UNL     1      10.957   4.352  89.325  1.00  0.00     0.254 C 
HETATM   23  O   UNL     1      11.153   3.786  88.252  1.00  0.00    -0.268 OA
HETATM   24  N   UNL     1      11.587   4.028  90.518  1.00  0.00    -0.335 N 
HETATM   25  HN  UNL     1      11.394   4.557  91.361  1.00  0.00     0.164 HD
BRANCH  24  26
HETATM   26  C   UNL     1      12.558   2.968  90.620  1.00  0.00     0.169 C 
BRANCH  26  27
HETATM   27  C   UNL     1      13.992   3.490  90.778  1.00  0.00     0.138 C 
HETATM   28  C   UNL     1      14.051   5.008  90.897  1.00  0.00     0.034 C 
BRANCH  27  29
HETATM   29  O   UNL     1      14.585   2.910  91.939  1.00  0.00    -0.383 OA
HETATM   30  H   UNL     1      14.576   1.944  91.836  1.00  0.00     0.210 HD
ENDBRANCH  27  29
ENDBRANCH  26  27
BRANCH  26  31
HETATM   31  C   UNL     1      12.158   2.081  91.794  1.00  0.00     0.194 C 
HETATM   32  O   UNL     1      12.656   0.976  91.998  1.00  0.00    -0.289 OA
BRANCH  31  33
HETATM   33  C   UNL     1      11.163   2.645  92.555  1.00  0.00     0.053 C 
BRANCH  33  34
HETATM   34  C   UNL     1      11.585   3.302  93.720  1.00  0.00     0.220 C 
BRANCH  34  35
HETATM   35  O   UNL     1      12.728   2.892  93.995  1.00  0.00    -0.371 OA
HETATM   36  H   UNL     1      12.719   2.109  93.467  1.00  0.00     0.211 HD
ENDBRANCH  34  35
BRANCH  34  37
HETATM   37  C   UNL     1      11.527   4.703  93.626  1.00  0.00     0.185 C 
HETATM   38  O   UNL     1      12.754   4.626  94.118  1.00  0.00    -0.647 OA
BRANCH  37  39
HETATM   39  O   UNL     1      10.724   5.525  93.300  1.00  0.00    -0.774 OA
HETATM   40  H   UNL     1      10.980   5.984  92.294  1.00  0.00     0.167 HD
ENDBRANCH  37  39
ENDBRANCH  34  37
ENDBRANCH  33  34
ENDBRANCH  31  33
ENDBRANCH  26  31
ENDBRANCH  24  26
ENDBRANCH  19  22
ENDBRANCH  15  16
ENDBRANCH  11  14
ENDBRANCH   7   8
ENDBRANCH   2   7
TORSDOF 14
ENDMDL
MODEL 3
REMARK VINA RESULT:      -4.5      2.787     13.146
REMARK  14 active torsions:
REMARK  status: ('A' for Active; 'I' for Inactive)
REMARK    1  A    between atoms: O_2  and  C_18 
REMARK    2  A    between atoms: C_5  and  C_8 
REMARK    3  A    between atoms: C_5  and  O_35 
REMARK    4  A    between atoms: C_5  and  C_36 
REMARK    5  A    between atoms: N_6  and  C_11 
REMARK    6  A    between atoms: N_7  and  C_15 
REMARK       I    between atoms: N_7  and  C_24 
REMARK    7  A    between atoms: C_8  and  C_23 
REMARK    8  A    between atoms: C_11  and  C_14 
REMARK    9  A    between atoms: C_15  and  C_18 
REMARK   10  A    between atoms: C_15  and  C_23 
REMARK   11  A    between atoms: C_21  and  C_26 
REMARK   12  A    between atoms: C_24  and  C_25 
REMARK   13  A    between atoms: C_29  and  C_32 
REMARK   14  A    between atoms: C_36  and  O_39 
ROOT
HETATM    1  O   UNL     1      15.957   2.730  91.205  1.00  0.00    -0.350 OA
HETATM    2  N   UNL     1      13.590   3.038  92.755  1.00  0.00     0.147 N 
HETATM    3  C   UNL     1      14.636   2.078  93.133  1.00  0.00     0.283 C 
HETATM    4  C   UNL     1      13.585   3.228  91.298  1.00  0.00     0.283 C 
HETATM    5  C   UNL     1      15.991   2.563  92.623  1.00  0.00     0.178 C 
HETATM    6  C   UNL     1      14.963   3.685  90.831  1.00  0.00     0.178 C 
ENDROOT
BRANCH   2   7
HETATM    7  C   UNL     1      12.281   2.588  93.225  1.00  0.00     0.277 C 
BRANCH   7   8
HETATM    8  C   UNL     1      11.265   3.679  93.206  1.00  0.00     0.011 A 
HETATM    9  C   UNL     1      11.350   4.726  94.124  1.00  0.00    -0.002 A 
HETATM   10  C   UNL     1      10.399   5.746  94.109  1.00  0.00     0.008 A 
HETATM   11  C   UNL     1       9.365   5.720  93.174  1.00  0.00     0.042 A 
HETATM   12  C   UNL     1       9.278   4.675  92.257  1.00  0.00     0.008 A 
HETATM   13  C   UNL     1      10.229   3.654  92.272  1.00  0.00    -0.002 A 
BRANCH  11  14
HETATM   14  C   UNL     1       8.391   6.767  93.157  1.00  0.00    -0.059 C 
HETATM   15  C   UNL     1       7.571   7.647  93.143  1.00  0.00    -0.059 C 
BRANCH  15  16
HETATM   16  C   UNL     1       6.597   8.694  93.127  1.00  0.00     0.042 A 
HETATM   17  C   UNL     1       6.998  10.016  92.931  1.00  0.00     0.008 A 
HETATM   18  C   UNL     1       6.048  11.036  92.912  1.00  0.00     0.005 A 
HETATM   19  C   UNL     1       4.719  10.712  93.089  1.00  0.00     0.056 A 
HETATM   20  C   UNL     1       4.297   9.414  93.284  1.00  0.00     0.005 A 
HETATM   21  C   UNL     1       5.247   8.393  93.303  1.00  0.00     0.008 A 
BRANCH  19  22
HETATM   22  C   UNL     1       3.706  11.800  93.071  1.00  0.00     0.254 C 
HETATM   23  O   UNL     1       2.637  11.634  93.653  1.00  0.00    -0.268 OA
HETATM   24  N   UNL     1       4.071  12.959  92.399  1.00  0.00    -0.335 N 
HETATM   25  HN  UNL     1       4.982  13.033  91.962  1.00  0.00     0.164 HD
BRANCH  24  26
HETATM   26  C   UNL     1       3.208  14.110  92.314  1.00  0.00     0.169 C 
BRANCH  26  27
HETATM   27  C   UNL     1       3.956  15.430  92.541  1.00  0.00     0.138 C 
HETATM   28  C   UNL     1       4.370  15.623  93.995  1.00  0.00     0.034 C 
BRANCH  27  29
HETATM   29  O   UNL     1       5.121  15.465  91.718  1.00  0.00    -0.383 OA
HETATM   30  H   UNL     1       5.886  15.208  92.261  1.00  0.00     0.210 HD
ENDBRANCH  27  29
ENDBRANCH  26  27
BRANCH  26  31
HETATM   31  C   UNL     1       2.530  14.084  90.948  1.00  0.00     0.194 C 
HETATM   32  O   UNL     1       1.325  13.887  90.802  1.00  0.00    -0.289 OA
BRANCH  31  33
HETATM   33  C   UNL     1       3.425  14.266  89.921  1.00  0.00     0.053 C 
BRANCH  33  34
HETATM   34  C   UNL     1       3.814  13.105  89.239  1.00  0.00     0.220 C 
BRANCH  34  35
HETATM   35  O   UNL     1       2.781  12.486  88.920  1.00  0.00    -0.371 OA
HETATM   36  H   UNL     1       3.180  11.650  88.731  1.00  0.00     0.211 HD
ENDBRANCH  34  35
BRANCH  34  37
HETATM   37  C   UNL     1       4.648  13.357  88.135  1.00  0.00     0.185 C 
HETATM   38  O   UNL     1       5.355  14.033  89.027  1.00  0.00    -0.647 OA
BRANCH  37  39
HETATM   39  O   UNL     1       4.652  13.106  86.968  1.00  0.00    -0.774 OA
HETATM   40  H   UNL     1       3.733  12.513  86.664  1.00  0.00     0.167 HD
ENDBRANCH  37  39
ENDBRANCH  34  37
ENDBRANCH  33  34
ENDBRANCH  31  33
ENDBRANCH  26  31
ENDBRANCH  24  26
ENDBRANCH  19  22
ENDBRANCH  15  16
ENDBRANCH  11  14
ENDBRANCH   7   8
ENDBRANCH   2   7
TORSDOF 14
ENDMDL
MODEL 4
REMARK VINA RESULT:      -2.6      1.878      3.805
REMARK  14 active torsions:
REMARK  status: ('A' for Active; 'I' for Inactive)
REMARK    1  A    between atoms: O_2  and  C_18 
REMARK    2  A    between atoms: C_5  and  C_8 
REMARK    3  A    between atoms: C_5  and  O_35 
REMARK    4  A    between atoms: C_5  and  C_36 
REMARK    5  A    between atoms: N_6  and  C_11 
REMARK    6  A    between atoms: N_7  and  C_15 
REMARK       I    between atoms: N_7  and  C_24 
REMARK    7  A    between atoms: C_8  and  C_23 
REMARK    8  A    between atoms: C_11  and  C_14 
REMARK    9  A    between atoms: C_15  and  C_18 
REMARK   10  A    between atoms: C_15  and  C_23 
REMARK   11  A    between atoms: C_21  and  C_26 
REMARK   12  A    between atoms: C_24  and  C_25 
REMARK   13  A    between atoms: C_29  and  C_32 
REMARK   14  A    between atoms: C_36  and  O_39 
ROOT
HETATM    1  O   UNL     1       3.000  15.625  93.845  1.00  0.00    -0.350 OA
HETATM    2  N   UNL     1       1.607  13.515  92.537  1.00  0.00     0.147 N 
HETATM    3  C   UNL     1       1.252  13.941  93.898  1.00  0.00     0.283 C 
HETATM    4  C   UNL     1       3.032  13.767  92.286  1.00  0.00     0.283 C 
HETATM    5  C   UNL     1       1.607  15.414  94.088  1.00  0.00     0.178 C 
HETATM    6  C   UNL     1       3.346  15.242  92.514  1.00  0.00     0.178 C 
ENDROOT
BRANCH   2   7
HETATM    7  C   UNL     1       1.285  12.103  92.337  1.00  0.00     0.277 C 
BRANCH   7   8
HETATM    8  C   UNL     1       2.487  11.227  92.436  1.00  0.00     0.011 A 
HETATM    9  C   UNL     1       3.032  10.933  93.686  1.00  0.00    -0.002 A 
HETATM   10  C   UNL     1       4.158  10.115  93.780  1.00  0.00     0.008 A 
HETATM   11  C   UNL     1       4.736   9.590  92.625  1.00  0.00     0.042 A 
HETATM   12  C   UNL     1       4.192   9.883  91.376  1.00  0.00     0.008 A 
HETATM   13  C   UNL     1       3.066  10.702  91.281  1.00  0.00    -0.002 A 
BRANCH  11  14
HETATM   14  C   UNL     1       5.890   8.749  92.721  1.00  0.00    -0.059 C 
HETATM   15  C   UNL     1       6.859   8.043  92.803  1.00  0.00    -0.059 C 
BRANCH  15  16
HETATM   16  C   UNL     1       8.011   7.202  92.900  1.00  0.00     0.042 A 
HETATM   17  C   UNL     1       8.090   6.037  92.136  1.00  0.00     0.008 A 
HETATM   18  C   UNL     1       9.216   5.219  92.229  1.00  0.00     0.005 A 
HETATM   19  C   UNL     1      10.236   5.582  93.082  1.00  0.00     0.056 A 
HETATM   20  C   UNL     1      10.182   6.728  93.849  1.00  0.00     0.005 A 
HETATM   21  C   UNL     1       9.057   7.547  93.757  1.00  0.00     0.008 A 
BRANCH  19  22
HETATM   22  C   UNL     1      11.434   4.709  93.183  1.00  0.00     0.254 C 
HETATM   23  O   UNL     1      11.516   3.907  94.110  1.00  0.00    -0.268 OA
HETATM   24  N   UNL     1      12.380   4.856  92.177  1.00  0.00    -0.335 N 
HETATM   25  HN  UNL     1      12.232   5.522  91.428  1.00  0.00     0.164 HD
BRANCH  24  26
HETATM   26  C   UNL     1      13.582   4.065  92.122  1.00  0.00     0.169 C 
BRANCH  26  27
HETATM   27  C   UNL     1      13.609   2.951  93.176  1.00  0.00     0.138 C 
HETATM   28  C   UNL     1      13.838   1.573  92.564  1.00  0.00     0.034 C 
BRANCH  27  29
HETATM   29  O   UNL     1      14.643   3.215  94.124  1.00  0.00    -0.383 OA
HETATM   30  H   UNL     1      15.036   4.079  93.914  1.00  0.00     0.210 HD
ENDBRANCH  27  29
ENDBRANCH  26  27
BRANCH  26  31
HETATM   31  C   UNL     1      13.702   3.497  90.712  1.00  0.00     0.194 C 
HETATM   32  O   UNL     1      14.772   3.416  90.111  1.00  0.00    -0.289 OA
BRANCH  31  33
HETATM   33  C   UNL     1      12.483   3.132  90.194  1.00  0.00     0.053 C 
BRANCH  33  34
HETATM   34  C   UNL     1      11.572   4.177  89.982  1.00  0.00     0.220 C 
BRANCH  34  35
HETATM   35  O   UNL     1      12.188   5.113  89.437  1.00  0.00    -0.371 OA
HETATM   36  H   UNL     1      11.447   5.550  89.046  1.00  0.00     0.211 HD
ENDBRANCH  34  35
BRANCH  34  37
HETATM   37  C   UNL     1      10.435   3.790  89.253  1.00  0.00     0.185 C 
HETATM   38  O   UNL     1      10.886   4.681  88.384  1.00  0.00    -0.647 OA
BRANCH  37  39
HETATM   39  O   UNL     1       9.511   3.049  89.404  1.00  0.00    -0.774 OA
HETATM   40  H   UNL     1       9.313   2.845  90.502  1.00  0.00     0.167 HD
ENDBRANCH  37  39
ENDBRANCH  34  37
ENDBRANCH  33  34
ENDBRANCH  31  33
ENDBRANCH  26  31
ENDBRANCH  24  26
ENDBRANCH  19  22
ENDBRANCH  15  16
ENDBRANCH  11  14
ENDBRANCH   7   8
ENDBRANCH   2   7
TORSDOF 14
ENDMDL
