MODEL 1
REMARK VINA RESULT:      -7.0      0.000      0.000
REMARK  11 active torsions:
REMARK  status: ('A' for Active; 'I' for Inactive)
REMARK    1  A    between atoms: O_2  and  C_18 
REMARK    2  A    between atoms: O_5  and  P_8 
REMARK    3  A    between atoms: N_6  and  C_11 
REMARK    4  A    between atoms: N_7  and  C_15 
REMARK       I    between atoms: N_7  and  C_24 
REMARK    5  A    between atoms: P_8  and  C_23 
REMARK    6  A    between atoms: C_11  and  C_14 
REMARK    7  A    between atoms: C_15  and  C_18 
REMARK    8  A    between atoms: C_15  and  C_23 
REMARK    9  A    between atoms: C_21  and  C_26 
REMARK   10  A    between atoms: C_24  and  C_25 
REMARK   11  A    between atoms: C_29  and  C_32 
ROOT
HETATM    1  O   UNL     1      16.078   3.980  94.124  1.00  0.00     0.000 OA
HETATM    2  N   UNL     1      14.315   2.618  92.352  1.00  0.00     0.000 N 
HETATM    3  C   UNL     1      14.343   4.086  92.430  1.00  0.00     0.000 C 
HETATM    4  C   UNL     1      14.707   2.038  93.644  1.00  0.00     0.000 C 
HETATM    5  C   UNL     1      15.730   4.554  92.862  1.00  0.00     0.000 C 
HETATM    6  C   UNL     1      16.084   2.554  94.048  1.00  0.00     0.000 C 
ENDROOT
BRANCH   2   7
HETATM    7  C   UNL     1      12.992   2.146  91.950  1.00  0.00     0.000 C 
BRANCH   7   8
HETATM    8  C   UNL     1      12.054   3.268  91.654  1.00  0.00     0.000 A 
HETATM    9  C   UNL     1      11.249   3.788  92.668  1.00  0.00     0.000 A 
HETATM   10  C   UNL     1      10.371   4.836  92.392  1.00  0.00     0.000 A 
HETATM   11  C   UNL     1      10.299   5.363  91.103  1.00  0.00     0.000 A 
HETATM   12  C   UNL     1      11.103   4.844  90.090  1.00  0.00     0.000 A 
HETATM   13  C   UNL     1      11.981   3.796  90.365  1.00  0.00     0.000 A 
BRANCH  11  14
HETATM   14  C   UNL     1       9.399   6.439  90.820  1.00  0.00     0.000 C 
HETATM   15  C   UNL     1       8.644   7.343  90.583  1.00  0.00     0.000 C 
BRANCH  15  16
HETATM   16  C   UNL     1       7.745   8.419  90.300  1.00  0.00     0.000 A 
HETATM   17  C   UNL     1       6.387   8.285  90.590  1.00  0.00     0.000 A 
HETATM   18  C   UNL     1       5.510   9.335  90.316  1.00  0.00     0.000 A 
HETATM   19  C   UNL     1       6.011  10.494  89.759  1.00  0.00     0.000 A 
HETATM   20  C   UNL     1       7.349  10.650  89.463  1.00  0.00     0.000 A 
HETATM   21  C   UNL     1       8.226   9.600  89.736  1.00  0.00     0.000 A 
BRANCH  19  22
HETATM   22  C   UNL     1       5.076  11.611  89.466  1.00  0.00     0.000 C 
HETATM   23  O   UNL     1       4.721  11.807  88.306  1.00  0.00     0.000 OA
HETATM   24  N   UNL     1       4.650  12.350  90.561  1.00  0.00     0.000 N 
HETATM   25  HN  UNL     1       4.966  12.114  91.494  1.00  0.00     0.000 HD
BRANCH  24  26
HETATM   26  C   UNL     1       3.725  13.449  90.442  1.00  0.00     0.000 C 
BRANCH  26  27
HETATM   27  C   UNL     1       2.426  13.219  91.225  1.00  0.00     0.000 C 
HETATM   28  C   UNL     1       2.620  12.288  92.416  1.00  0.00     0.000 C 
BRANCH  27  29
HETATM   29  O   UNL     1       1.922  14.470  91.691  1.00  0.00     0.000 OA
HETATM   30  H   UNL     1       1.151  14.296  92.257  1.00  0.00     0.000 HD
ENDBRANCH  27  29
ENDBRANCH  26  27
BRANCH  26  31
HETATM   31  C   UNL     1       4.439  14.712  90.912  1.00  0.00     0.000 C 
HETATM   32  O   UNL     1       4.523  15.033  92.096  1.00  0.00     0.000 OA
BRANCH  31  33
HETATM   33  P   UNL     1       4.933  15.450  89.863  1.00  0.00     0.000 P 
HETATM   34  H   UNL     1       4.042  16.473  89.609  1.00  0.00     0.000 HD
BRANCH  33  35
HETATM   35  O   UNL     1       5.135  14.749  88.665  1.00  0.00     0.000 OA
HETATM   36  H   UNL     1       4.959  15.454  88.019  1.00  0.00     0.000 HD
ENDBRANCH  33  35
ENDBRANCH  31  33
ENDBRANCH  26  31
ENDBRANCH  24  26
ENDBRANCH  19  22
ENDBRANCH  15  16
ENDBRANCH  11  14
ENDBRANCH   7   8
ENDBRANCH   2   7
TORSDOF 11
ENDMDL
