MODEL 1
REMARK VINA RESULT:      -6.8      0.000      0.000
REMARK  12 active torsions:
REMARK  status: ('A' for Active; 'I' for Inactive)
REMARK    1  A    between atoms: O_2  and  C_16 
REMARK    2  A    between atoms: N_5  and  C_9 
REMARK    3  A    between atoms: N_6  and  C_13 
REMARK       I    between atoms: N_6  and  C_22 
REMARK    4  A    between atoms: C_9  and  C_12 
REMARK    5  A    between atoms: C_13  and  C_16 
REMARK    6  A    between atoms: C_13  and  C_21 
REMARK    7  A    between atoms: C_19  and  C_24 
REMARK    8  A    between atoms: C_21  and  C_33 
REMARK    9  A    between atoms: C_22  and  C_23 
REMARK   10  A    between atoms: C_27  and  C_30 
REMARK   11  A    between atoms: C_33  and  C_34 
REMARK   12  A    between atoms: C_34  and  C_35 
ROOT
HETATM    1  O   UNL     1      17.303   4.680  93.774  1.00  0.00    -0.350 OA
HETATM    2  N   UNL     1      15.272   2.686  93.723  1.00  0.00     0.147 N 
HETATM    3  C   UNL     1      16.667   2.369  93.390  1.00  0.00     0.283 C 
HETATM    4  C   UNL     1      14.981   4.088  93.393  1.00  0.00     0.283 C 
HETATM    5  C   UNL     1      17.604   3.327  94.122  1.00  0.00     0.178 C 
HETATM    6  C   UNL     1      15.957   5.005  94.124  1.00  0.00     0.178 C 
ENDROOT
BRANCH   2   7
HETATM    7  C   UNL     1      14.356   1.787  93.024  1.00  0.00     0.277 C 
BRANCH   7   8
HETATM    8  C   UNL     1      13.256   2.520  92.335  1.00  0.00     0.011 A 
HETATM    9  C   UNL     1      11.943   2.397  92.792  1.00  0.00    -0.002 A 
HETATM   10  C   UNL     1      10.913   3.081  92.147  1.00  0.00     0.008 A 
HETATM   11  C   UNL     1      11.196   3.889  91.046  1.00  0.00     0.042 A 
HETATM   12  C   UNL     1      12.507   4.012  90.588  1.00  0.00     0.008 A 
HETATM   13  C   UNL     1      13.537   3.328  91.233  1.00  0.00    -0.002 A 
BRANCH  11  14
HETATM   14  C   UNL     1      10.140   4.592  90.385  1.00  0.00    -0.059 C 
HETATM   15  C   UNL     1       9.252   5.183  89.830  1.00  0.00    -0.059 C 
BRANCH  15  16
HETATM   16  C   UNL     1       8.197   5.886  89.169  1.00  0.00     0.042 A 
HETATM   17  C   UNL     1       8.398   6.399  87.887  1.00  0.00     0.008 A 
HETATM   18  C   UNL     1       7.368   7.083  87.242  1.00  0.00     0.005 A 
HETATM   19  C   UNL     1       6.161   7.236  87.891  1.00  0.00     0.056 A 
HETATM   20  C   UNL     1       5.937   6.739  89.158  1.00  0.00     0.005 A 
HETATM   21  C   UNL     1       6.967   6.055  89.804  1.00  0.00     0.008 A 
BRANCH  19  22
HETATM   22  C   UNL     1       5.064   7.966  87.203  1.00  0.00     0.254 C 
HETATM   23  O   UNL     1       4.888   7.789  86.000  1.00  0.00    -0.268 OA
HETATM   24  N   UNL     1       4.289   8.794  88.004  1.00  0.00    -0.335 N 
HETATM   25  HN  UNL     1       4.478   8.871  88.996  1.00  0.00     0.164 HD
BRANCH  24  26
HETATM   26  C   UNL     1       3.175   9.549  87.489  1.00  0.00     0.166 C 
BRANCH  26  27
HETATM   27  C   UNL     1       1.820   8.928  87.853  1.00  0.00     0.138 C 
HETATM   28  C   UNL     1       1.639   7.534  87.263  1.00  0.00     0.034 C 
BRANCH  27  29
HETATM   29  O   UNL     1       1.695   8.851  89.272  1.00  0.00    -0.383 OA
HETATM   30  H   UNL     1       2.050   9.671  89.655  1.00  0.00     0.210 HD
ENDBRANCH  27  29
ENDBRANCH  26  27
BRANCH  26  31
HETATM   31  C   UNL     1       3.292  10.974  88.020  1.00  0.00     0.181 C 
HETATM   32  O   UNL     1       2.388  11.536  88.635  1.00  0.00    -0.294 OA
BRANCH  31  33
HETATM   33  C   UNL     1       4.635  11.178  88.905  1.00  0.00     0.138 C 
BRANCH  33  34
HETATM   34  C   UNL     1       4.835  12.571  88.781  1.00  0.00     0.208 C 
HETATM   35  O   UNL     1       4.898  13.001  87.652  1.00  0.00    -0.289 OA
BRANCH  34  36
HETATM   36  C   UNL     1       4.688  13.573  89.700  1.00  0.00     0.194 C 
HETATM   37  O   UNL     1       4.657  14.962  89.526  1.00  0.00    -0.185 OA
ENDBRANCH  34  36
ENDBRANCH  33  34
ENDBRANCH  31  33
ENDBRANCH  26  31
ENDBRANCH  24  26
ENDBRANCH  19  22
ENDBRANCH  15  16
ENDBRANCH  11  14
ENDBRANCH   7   8
ENDBRANCH   2   7
TORSDOF 12
ENDMDL
MODEL 2
REMARK VINA RESULT:      -6.3      2.751      4.281
REMARK  12 active torsions:
REMARK  status: ('A' for Active; 'I' for Inactive)
REMARK    1  A    between atoms: O_2  and  C_16 
REMARK    2  A    between atoms: N_5  and  C_9 
REMARK    3  A    between atoms: N_6  and  C_13 
REMARK       I    between atoms: N_6  and  C_22 
REMARK    4  A    between atoms: C_9  and  C_12 
REMARK    5  A    between atoms: C_13  and  C_16 
REMARK    6  A    between atoms: C_13  and  C_21 
REMARK    7  A    between atoms: C_19  and  C_24 
REMARK    8  A    between atoms: C_21  and  C_33 
REMARK    9  A    between atoms: C_22  and  C_23 
REMARK   10  A    between atoms: C_27  and  C_30 
REMARK   11  A    between atoms: C_33  and  C_34 
REMARK   12  A    between atoms: C_34  and  C_35 
ROOT
HETATM    1  O   UNL     1      16.187   4.219  94.082  1.00  0.00    -0.350 OA
HETATM    2  N   UNL     1      14.387   2.651  92.531  1.00  0.00     0.147 N 
HETATM    3  C   UNL     1      14.361   4.120  92.486  1.00  0.00     0.283 C 
HETATM    4  C   UNL     1      14.870   2.196  93.842  1.00  0.00     0.283 C 
HETATM    5  C   UNL     1      15.749   4.672  92.799  1.00  0.00     0.178 C 
HETATM    6  C   UNL     1      16.245   2.793  94.123  1.00  0.00     0.178 C 
ENDROOT
BRANCH   2   7
HETATM    7  C   UNL     1      13.064   2.101  92.244  1.00  0.00     0.277 C 
BRANCH   7   8
HETATM    8  C   UNL     1      11.994   3.138  92.293  1.00  0.00     0.011 A 
HETATM    9  C   UNL     1      11.181   3.354  91.180  1.00  0.00    -0.002 A 
HETATM   10  C   UNL     1      10.182   4.325  91.224  1.00  0.00     0.008 A 
HETATM   11  C   UNL     1       9.994   5.079  92.382  1.00  0.00     0.042 A 
HETATM   12  C   UNL     1      10.805   4.865  93.495  1.00  0.00     0.008 A 
HETATM   13  C   UNL     1      11.806   3.894  93.451  1.00  0.00    -0.002 A 
BRANCH  11  14
HETATM   14  C   UNL     1       8.968   6.075  92.429  1.00  0.00    -0.059 C 
HETATM   15  C   UNL     1       8.104   6.911  92.468  1.00  0.00    -0.059 C 
BRANCH  15  16
HETATM   16  C   UNL     1       7.078   7.905  92.515  1.00  0.00     0.042 A 
HETATM   17  C   UNL     1       7.413   9.256  92.417  1.00  0.00     0.008 A 
HETATM   18  C   UNL     1       6.411  10.226  92.460  1.00  0.00     0.005 A 
HETATM   19  C   UNL     1       5.099   9.824  92.599  1.00  0.00     0.056 A 
HETATM   20  C   UNL     1       4.743   8.495  92.698  1.00  0.00     0.005 A 
HETATM   21  C   UNL     1       5.744   7.525  92.655  1.00  0.00     0.008 A 
BRANCH  19  22
HETATM   22  C   UNL     1       4.033  10.858  92.647  1.00  0.00     0.254 C 
HETATM   23  O   UNL     1       3.085  10.707  93.413  1.00  0.00    -0.268 OA
HETATM   24  N   UNL     1       4.212  11.955  91.815  1.00  0.00    -0.335 N 
HETATM   25  HN  UNL     1       5.034  12.023  91.226  1.00  0.00     0.164 HD
BRANCH  24  26
HETATM   26  C   UNL     1       3.278  13.051  91.766  1.00  0.00     0.166 C 
BRANCH  26  27
HETATM   27  C   UNL     1       3.676  14.211  92.687  1.00  0.00     0.138 C 
HETATM   28  C   UNL     1       2.468  14.944  93.258  1.00  0.00     0.034 C 
BRANCH  27  29
HETATM   29  O   UNL     1       4.470  13.715  93.764  1.00  0.00    -0.383 OA
HETATM   30  H   UNL     1       5.393  13.974  93.608  1.00  0.00     0.210 HD
ENDBRANCH  27  29
ENDBRANCH  26  27
BRANCH  26  31
HETATM   31  C   UNL     1       3.171  13.507  90.314  1.00  0.00     0.181 C 
HETATM   32  O   UNL     1       2.309  14.290  89.920  1.00  0.00    -0.294 OA
BRANCH  31  33
HETATM   33  C   UNL     1       4.584  14.071  89.754  1.00  0.00     0.138 C 
BRANCH  33  34
HETATM   34  C   UNL     1       4.779  13.246  88.624  1.00  0.00     0.208 C 
HETATM   35  O   UNL     1       5.853  13.339  88.076  1.00  0.00    -0.289 OA
BRANCH  34  36
HETATM   36  C   UNL     1       4.083  12.148  88.196  1.00  0.00     0.194 C 
HETATM   37  O   UNL     1       4.517  10.840  87.955  1.00  0.00    -0.185 OA
ENDBRANCH  34  36
ENDBRANCH  33  34
ENDBRANCH  31  33
ENDBRANCH  26  31
ENDBRANCH  24  26
ENDBRANCH  19  22
ENDBRANCH  15  16
ENDBRANCH  11  14
ENDBRANCH   7   8
ENDBRANCH   2   7
TORSDOF 12
ENDMDL
MODEL 3
REMARK VINA RESULT:      -5.3      2.526      3.905
REMARK  12 active torsions:
REMARK  status: ('A' for Active; 'I' for Inactive)
REMARK    1  A    between atoms: O_2  and  C_16 
REMARK    2  A    between atoms: N_5  and  C_9 
REMARK    3  A    between atoms: N_6  and  C_13 
REMARK       I    between atoms: N_6  and  C_22 
REMARK    4  A    between atoms: C_9  and  C_12 
REMARK    5  A    between atoms: C_13  and  C_16 
REMARK    6  A    between atoms: C_13  and  C_21 
REMARK    7  A    between atoms: C_19  and  C_24 
REMARK    8  A    between atoms: C_21  and  C_33 
REMARK    9  A    between atoms: C_22  and  C_23 
REMARK   10  A    between atoms: C_27  and  C_30 
REMARK   11  A    between atoms: C_33  and  C_34 
REMARK   12  A    between atoms: C_34  and  C_35 
ROOT
HETATM    1  O   UNL     1      16.812   3.627  93.717  1.00  0.00    -0.350 OA
HETATM    2  N   UNL     1      14.130   2.831  93.192  1.00  0.00     0.147 N 
HETATM    3  C   UNL     1      15.234   1.861  93.189  1.00  0.00     0.283 C 
HETATM    4  C   UNL     1      14.627   4.159  92.808  1.00  0.00     0.283 C 
HETATM    5  C   UNL     1      16.344   2.339  94.121  1.00  0.00     0.178 C 
HETATM    6  C   UNL     1      15.751   4.583  93.747  1.00  0.00     0.178 C 
ENDROOT
BRANCH   2   7
HETATM    7  C   UNL     1      13.058   2.398  92.297  1.00  0.00     0.277 C 
BRANCH   7   8
HETATM    8  C   UNL     1      12.069   3.481  92.030  1.00  0.00     0.011 A 
HETATM    9  C   UNL     1      11.404   4.095  93.092  1.00  0.00    -0.002 A 
HETATM   10  C   UNL     1      10.477   5.107  92.844  1.00  0.00     0.008 A 
HETATM   11  C   UNL     1      10.217   5.506  91.533  1.00  0.00     0.042 A 
HETATM   12  C   UNL     1      10.880   4.894  90.471  1.00  0.00     0.008 A 
HETATM   13  C   UNL     1      11.807   3.881  90.720  1.00  0.00    -0.002 A 
BRANCH  11  14
HETATM   14  C   UNL     1       9.268   6.545  91.278  1.00  0.00    -0.059 C 
HETATM   15  C   UNL     1       8.470   7.419  91.065  1.00  0.00    -0.059 C 
BRANCH  15  16
HETATM   16  C   UNL     1       7.522   8.459  90.810  1.00  0.00     0.042 A 
HETATM   17  C   UNL     1       6.158   8.166  90.784  1.00  0.00     0.008 A 
HETATM   18  C   UNL     1       5.233   9.181  90.539  1.00  0.00     0.005 A 
HETATM   19  C   UNL     1       5.692  10.464  90.325  1.00  0.00     0.056 A 
HETATM   20  C   UNL     1       7.035  10.778  90.344  1.00  0.00     0.005 A 
HETATM   21  C   UNL     1       7.961   9.764  90.590  1.00  0.00     0.008 A 
BRANCH  19  22
HETATM   22  C   UNL     1       4.707  11.544  90.061  1.00  0.00     0.254 C 
HETATM   23  O   UNL     1       3.959  11.450  89.091  1.00  0.00    -0.268 OA
HETATM   24  N   UNL     1       4.694  12.591  90.972  1.00  0.00    -0.335 N 
HETATM   25  HN  UNL     1       5.325  12.589  91.765  1.00  0.00     0.164 HD
BRANCH  24  26
HETATM   26  C   UNL     1       3.780  13.700  90.866  1.00  0.00     0.166 C 
BRANCH  26  27
HETATM   27  C   UNL     1       3.783  14.341  89.473  1.00  0.00     0.138 C 
HETATM   28  C   UNL     1       5.182  14.740  89.017  1.00  0.00     0.034 C 
BRANCH  27  29
HETATM   29  O   UNL     1       3.230  13.427  88.526  1.00  0.00    -0.383 OA
HETATM   30  H   UNL     1       3.503  12.528  88.775  1.00  0.00     0.210 HD
ENDBRANCH  27  29
ENDBRANCH  26  27
BRANCH  26  31
HETATM   31  C   UNL     1       2.390  13.196  91.242  1.00  0.00     0.181 C 
HETATM   32  O   UNL     1       2.153  12.018  91.504  1.00  0.00    -0.294 OA
BRANCH  31  33
HETATM   33  C   UNL     1       1.738  14.067  92.443  1.00  0.00     0.138 C 
BRANCH  33  34
HETATM   34  C   UNL     1       2.881  14.366  93.217  1.00  0.00     0.208 C 
HETATM   35  O   UNL     1       3.169  15.537  93.310  1.00  0.00    -0.289 OA
BRANCH  34  36
HETATM   36  C   UNL     1       3.567  13.600  94.119  1.00  0.00     0.194 C 
HETATM   37  O   UNL     1       4.881  13.120  94.084  1.00  0.00    -0.185 OA
ENDBRANCH  34  36
ENDBRANCH  33  34
ENDBRANCH  31  33
ENDBRANCH  26  31
ENDBRANCH  24  26
ENDBRANCH  19  22
ENDBRANCH  15  16
ENDBRANCH  11  14
ENDBRANCH   7   8
ENDBRANCH   2   7
TORSDOF 12
ENDMDL
