MODEL 1
REMARK VINA RESULT:      -6.6      0.000      0.000
REMARK  12 active torsions:
REMARK  status: ('A' for Active; 'I' for Inactive)
REMARK    1  A    between atoms: O_2  and  C_16 
REMARK    2  A    between atoms: N_5  and  C_9 
REMARK    3  A    between atoms: N_6  and  C_13 
REMARK       I    between atoms: N_6  and  C_22 
REMARK    4  A    between atoms: C_9  and  C_12 
REMARK    5  A    between atoms: C_13  and  C_16 
REMARK    6  A    between atoms: C_13  and  C_21 
REMARK    7  A    between atoms: C_19  and  C_24 
REMARK    8  A    between atoms: C_21  and  C_33 
REMARK    9  A    between atoms: C_22  and  C_23 
REMARK   10  A    between atoms: C_27  and  C_30 
REMARK   11  A    between atoms: C_33  and  C_34 
REMARK   12  A    between atoms: C_34  and  C_35 
ROOT
HETATM    1  O   UNL     1      17.309   4.733  93.753  1.00  0.00    -0.350 OA
HETATM    2  N   UNL     1      15.299   2.721  93.641  1.00  0.00     0.147 N 
HETATM    3  C   UNL     1      16.698   2.429  93.297  1.00  0.00     0.283 C 
HETATM    4  C   UNL     1      14.994   4.129  93.354  1.00  0.00     0.283 C 
HETATM    5  C   UNL     1      17.625   3.374  94.059  1.00  0.00     0.178 C 
HETATM    6  C   UNL     1      15.960   5.033  94.113  1.00  0.00     0.178 C 
ENDROOT
BRANCH   2   7
HETATM    7  C   UNL     1      14.392   1.834  92.914  1.00  0.00     0.277 C 
BRANCH   7   8
HETATM    8  C   UNL     1      13.273   2.575  92.266  1.00  0.00     0.011 A 
HETATM    9  C   UNL     1      11.995   2.534  92.825  1.00  0.00    -0.002 A 
HETATM   10  C   UNL     1      10.946   3.225  92.218  1.00  0.00     0.008 A 
HETATM   11  C   UNL     1      11.176   3.957  91.053  1.00  0.00     0.042 A 
HETATM   12  C   UNL     1      12.451   3.998  90.494  1.00  0.00     0.008 A 
HETATM   13  C   UNL     1      13.500   3.307  91.100  1.00  0.00    -0.002 A 
BRANCH  11  14
HETATM   14  C   UNL     1      10.100   4.667  90.432  1.00  0.00    -0.059 C 
HETATM   15  C   UNL     1       9.197   5.264  89.910  1.00  0.00    -0.059 C 
BRANCH  15  16
HETATM   16  C   UNL     1       8.123   5.974  89.289  1.00  0.00     0.042 A 
HETATM   17  C   UNL     1       8.307   6.557  88.034  1.00  0.00     0.008 A 
HETATM   18  C   UNL     1       7.258   7.247  87.427  1.00  0.00     0.005 A 
HETATM   19  C   UNL     1       6.049   7.338  88.086  1.00  0.00     0.056 A 
HETATM   20  C   UNL     1       5.843   6.771  89.326  1.00  0.00     0.005 A 
HETATM   21  C   UNL     1       6.891   6.081  89.935  1.00  0.00     0.008 A 
BRANCH  19  22
HETATM   22  C   UNL     1       4.933   8.075  87.439  1.00  0.00     0.254 C 
HETATM   23  O   UNL     1       4.624   7.801  86.282  1.00  0.00    -0.268 OA
HETATM   24  N   UNL     1       4.295   9.024  88.226  1.00  0.00    -0.335 N 
HETATM   25  HN  UNL     1       4.589   9.179  89.183  1.00  0.00     0.164 HD
BRANCH  24  26
HETATM   26  C   UNL     1       3.180   9.803  87.750  1.00  0.00     0.166 C 
BRANCH  26  27
HETATM   27  C   UNL     1       1.825   9.220  88.172  1.00  0.00     0.138 C 
HETATM   28  C   UNL     1       1.383   8.066  87.279  1.00  0.00     0.034 C 
BRANCH  27  29
HETATM   29  O   UNL     1       1.903   8.759  89.520  1.00  0.00    -0.383 OA
HETATM   30  H   UNL     1       2.612   9.249  89.970  1.00  0.00     0.210 HD
ENDBRANCH  27  29
ENDBRANCH  26  27
BRANCH  26  31
HETATM   31  C   UNL     1       3.354  11.228  88.264  1.00  0.00     0.181 C 
HETATM   32  O   UNL     1       2.491  11.816  88.914  1.00  0.00    -0.294 OA
BRANCH  31  33
HETATM   33  C   UNL     1       4.739  11.407  89.088  1.00  0.00     0.138 C 
BRANCH  33  34
HETATM   34  C   UNL     1       5.028  12.767  88.844  1.00  0.00     0.208 C 
HETATM   35  O   UNL     1       5.334  13.052  87.709  1.00  0.00    -0.289 OA
BRANCH  34  36
HETATM   36  C   UNL     1       4.754  13.880  89.591  1.00  0.00     0.194 C 
HETATM   37  O   UNL     1       4.861  15.237  89.265  1.00  0.00    -0.185 OA
ENDBRANCH  34  36
ENDBRANCH  33  34
ENDBRANCH  31  33
ENDBRANCH  26  31
ENDBRANCH  24  26
ENDBRANCH  19  22
ENDBRANCH  15  16
ENDBRANCH  11  14
ENDBRANCH   7   8
ENDBRANCH   2   7
TORSDOF 12
ENDMDL
MODEL 2
REMARK VINA RESULT:      -6.5      2.639      4.113
REMARK  12 active torsions:
REMARK  status: ('A' for Active; 'I' for Inactive)
REMARK    1  A    between atoms: O_2  and  C_16 
REMARK    2  A    between atoms: N_5  and  C_9 
REMARK    3  A    between atoms: N_6  and  C_13 
REMARK       I    between atoms: N_6  and  C_22 
REMARK    4  A    between atoms: C_9  and  C_12 
REMARK    5  A    between atoms: C_13  and  C_16 
REMARK    6  A    between atoms: C_13  and  C_21 
REMARK    7  A    between atoms: C_19  and  C_24 
REMARK    8  A    between atoms: C_21  and  C_33 
REMARK    9  A    between atoms: C_22  and  C_23 
REMARK   10  A    between atoms: C_27  and  C_30 
REMARK   11  A    between atoms: C_33  and  C_34 
REMARK   12  A    between atoms: C_34  and  C_35 
ROOT
HETATM    1  O   UNL     1      16.711   4.297  94.119  1.00  0.00    -0.350 OA
HETATM    2  N   UNL     1      14.739   2.751  92.769  1.00  0.00     0.147 N 
HETATM    3  C   UNL     1      14.699   4.220  92.764  1.00  0.00     0.283 C 
HETATM    4  C   UNL     1      15.385   2.270  93.998  1.00  0.00     0.283 C 
HETATM    5  C   UNL     1      16.113   4.776  92.913  1.00  0.00     0.178 C 
HETATM    6  C   UNL     1      16.782   2.871  94.119  1.00  0.00     0.178 C 
ENDROOT
BRANCH   2   7
HETATM    7  C   UNL     1      13.393   2.197  92.638  1.00  0.00     0.277 C 
BRANCH   7   8
HETATM    8  C   UNL     1      12.343   3.255  92.611  1.00  0.00     0.011 A 
HETATM    9  C   UNL     1      11.999   3.925  93.786  1.00  0.00    -0.002 A 
HETATM   10  C   UNL     1      11.016   4.914  93.762  1.00  0.00     0.008 A 
HETATM   11  C   UNL     1      10.377   5.232  92.564  1.00  0.00     0.042 A 
HETATM   12  C   UNL     1      10.720   4.563  91.390  1.00  0.00     0.008 A 
HETATM   13  C   UNL     1      11.703   3.574  91.414  1.00  0.00    -0.002 A 
BRANCH  11  14
HETATM   14  C   UNL     1       9.370   6.248  92.539  1.00  0.00    -0.059 C 
HETATM   15  C   UNL     1       8.523   7.101  92.518  1.00  0.00    -0.059 C 
BRANCH  15  16
HETATM   16  C   UNL     1       7.516   8.116  92.493  1.00  0.00     0.042 A 
HETATM   17  C   UNL     1       6.494   8.058  91.545  1.00  0.00     0.008 A 
HETATM   18  C   UNL     1       5.510   9.047  91.522  1.00  0.00     0.005 A 
HETATM   19  C   UNL     1       5.569  10.068  92.447  1.00  0.00     0.056 A 
HETATM   20  C   UNL     1       6.570  10.147  93.393  1.00  0.00     0.005 A 
HETATM   21  C   UNL     1       7.554   9.160  93.417  1.00  0.00     0.008 A 
BRANCH  19  22
HETATM   22  C   UNL     1       4.522  11.122  92.421  1.00  0.00     0.254 C 
HETATM   23  O   UNL     1       3.470  10.937  93.027  1.00  0.00    -0.268 OA
HETATM   24  N   UNL     1       4.836  12.274  91.713  1.00  0.00    -0.335 N 
HETATM   25  HN  UNL     1       5.736  12.366  91.257  1.00  0.00     0.164 HD
BRANCH  24  26
HETATM   26  C   UNL     1       3.934  13.394  91.615  1.00  0.00     0.166 C 
BRANCH  26  27
HETATM   27  C   UNL     1       4.032  14.341  92.818  1.00  0.00     0.138 C 
HETATM   28  C   UNL     1       2.709  15.034  93.125  1.00  0.00     0.034 C 
BRANCH  27  29
HETATM   29  O   UNL     1       4.450  13.608  93.969  1.00  0.00    -0.383 OA
HETATM   30  H   UNL     1       4.689  12.709  93.688  1.00  0.00     0.210 HD
ENDBRANCH  27  29
ENDBRANCH  26  27
BRANCH  26  31
HETATM   31  C   UNL     1       4.236  14.122  90.310  1.00  0.00     0.181 C 
HETATM   32  O   UNL     1       4.506  15.321  90.259  1.00  0.00    -0.294 OA
BRANCH  31  33
HETATM   33  C   UNL     1       5.380  13.364  89.447  1.00  0.00     0.138 C 
BRANCH  33  34
HETATM   34  C   UNL     1       4.630  12.905  88.342  1.00  0.00     0.208 C 
HETATM   35  O   UNL     1       4.897  13.406  87.273  1.00  0.00    -0.289 OA
BRANCH  34  36
HETATM   36  C   UNL     1       3.848  11.792  88.200  1.00  0.00     0.194 C 
HETATM   37  O   UNL     1       3.139  11.057  89.157  1.00  0.00    -0.185 OA
ENDBRANCH  34  36
ENDBRANCH  33  34
ENDBRANCH  31  33
ENDBRANCH  26  31
ENDBRANCH  24  26
ENDBRANCH  19  22
ENDBRANCH  15  16
ENDBRANCH  11  14
ENDBRANCH   7   8
ENDBRANCH   2   7
TORSDOF 12
ENDMDL
MODEL 3
REMARK VINA RESULT:      -6.4      2.581      4.004
REMARK  12 active torsions:
REMARK  status: ('A' for Active; 'I' for Inactive)
REMARK    1  A    between atoms: O_2  and  C_16 
REMARK    2  A    between atoms: N_5  and  C_9 
REMARK    3  A    between atoms: N_6  and  C_13 
REMARK       I    between atoms: N_6  and  C_22 
REMARK    4  A    between atoms: C_9  and  C_12 
REMARK    5  A    between atoms: C_13  and  C_16 
REMARK    6  A    between atoms: C_13  and  C_21 
REMARK    7  A    between atoms: C_19  and  C_24 
REMARK    8  A    between atoms: C_21  and  C_33 
REMARK    9  A    between atoms: C_22  and  C_23 
REMARK   10  A    between atoms: C_27  and  C_30 
REMARK   11  A    between atoms: C_33  and  C_34 
REMARK   12  A    between atoms: C_34  and  C_35 
ROOT
HETATM    1  O   UNL     1      16.452   3.127  93.877  1.00  0.00    -0.350 OA
HETATM    2  N   UNL     1      13.930   3.200  92.560  1.00  0.00     0.147 N 
HETATM    3  C   UNL     1      14.584   1.928  92.897  1.00  0.00     0.283 C 
HETATM    4  C   UNL     1      14.942   4.243  92.342  1.00  0.00     0.283 C 
HETATM    5  C   UNL     1      15.475   2.114  94.123  1.00  0.00     0.178 C 
HETATM    6  C   UNL     1      15.825   4.375  93.578  1.00  0.00     0.178 C 
ENDROOT
BRANCH   2   7
HETATM    7  C   UNL     1      13.078   3.048  91.382  1.00  0.00     0.277 C 
BRANCH   7   8
HETATM    8  C   UNL     1      11.895   3.955  91.415  1.00  0.00     0.011 A 
HETATM    9  C   UNL     1      11.338   4.328  92.638  1.00  0.00    -0.002 A 
HETATM   10  C   UNL     1      10.230   5.174  92.671  1.00  0.00     0.008 A 
HETATM   11  C   UNL     1       9.682   5.649  91.480  1.00  0.00     0.042 A 
HETATM   12  C   UNL     1      10.237   5.277  90.257  1.00  0.00     0.008 A 
HETATM   13  C   UNL     1      11.345   4.430  90.224  1.00  0.00    -0.002 A 
BRANCH  11  14
HETATM   14  C   UNL     1       8.546   6.519  91.513  1.00  0.00    -0.059 C 
HETATM   15  C   UNL     1       7.592   7.250  91.541  1.00  0.00    -0.059 C 
BRANCH  15  16
HETATM   16  C   UNL     1       6.457   8.119  91.576  1.00  0.00     0.042 A 
HETATM   17  C   UNL     1       6.487   9.272  92.362  1.00  0.00     0.008 A 
HETATM   18  C   UNL     1       5.381  10.121  92.393  1.00  0.00     0.005 A 
HETATM   19  C   UNL     1       4.272   9.800  91.638  1.00  0.00     0.056 A 
HETATM   20  C   UNL     1       4.219   8.667  90.853  1.00  0.00     0.005 A 
HETATM   21  C   UNL     1       5.324   7.817  90.821  1.00  0.00     0.008 A 
BRANCH  19  22
HETATM   22  C   UNL     1       3.094  10.705  91.673  1.00  0.00     0.254 C 
HETATM   23  O   UNL     1       1.982  10.252  91.413  1.00  0.00    -0.268 OA
HETATM   24  N   UNL     1       3.349  12.022  92.030  1.00  0.00    -0.335 N 
HETATM   25  HN  UNL     1       4.291  12.319  92.256  1.00  0.00     0.164 HD
BRANCH  24  26
HETATM   26  C   UNL     1       2.308  13.013  92.133  1.00  0.00     0.166 C 
BRANCH  26  27
HETATM   27  C   UNL     1       2.331  13.762  93.471  1.00  0.00     0.138 C 
HETATM   28  C   UNL     1       3.746  13.971  93.999  1.00  0.00     0.034 C 
BRANCH  27  29
HETATM   29  O   UNL     1       1.701  15.033  93.317  1.00  0.00    -0.383 OA
HETATM   30  H   UNL     1       0.834  14.999  93.755  1.00  0.00     0.210 HD
ENDBRANCH  27  29
ENDBRANCH  26  27
BRANCH  26  31
HETATM   31  C   UNL     1       2.461  13.972  90.957  1.00  0.00     0.181 C 
HETATM   32  O   UNL     1       1.640  14.850  90.698  1.00  0.00    -0.294 OA
BRANCH  31  33
HETATM   33  C   UNL     1       3.912  14.695  90.955  1.00  0.00     0.138 C 
BRANCH  33  34
HETATM   34  C   UNL     1       4.370  14.384  89.656  1.00  0.00     0.208 C 
HETATM   35  O   UNL     1       5.155  15.164  89.167  1.00  0.00    -0.289 OA
BRANCH  34  36
HETATM   36  C   UNL     1       4.313  13.212  88.952  1.00  0.00     0.194 C 
HETATM   37  O   UNL     1       4.937  12.846  87.754  1.00  0.00    -0.185 OA
ENDBRANCH  34  36
ENDBRANCH  33  34
ENDBRANCH  31  33
ENDBRANCH  26  31
ENDBRANCH  24  26
ENDBRANCH  19  22
ENDBRANCH  15  16
ENDBRANCH  11  14
ENDBRANCH   7   8
ENDBRANCH   2   7
TORSDOF 12
ENDMDL
MODEL 4
REMARK VINA RESULT:      -4.0      2.725      3.806
REMARK  12 active torsions:
REMARK  status: ('A' for Active; 'I' for Inactive)
REMARK    1  A    between atoms: O_2  and  C_16 
REMARK    2  A    between atoms: N_5  and  C_9 
REMARK    3  A    between atoms: N_6  and  C_13 
REMARK       I    between atoms: N_6  and  C_22 
REMARK    4  A    between atoms: C_9  and  C_12 
REMARK    5  A    between atoms: C_13  and  C_16 
REMARK    6  A    between atoms: C_13  and  C_21 
REMARK    7  A    between atoms: C_19  and  C_24 
REMARK    8  A    between atoms: C_21  and  C_33 
REMARK    9  A    between atoms: C_22  and  C_23 
REMARK   10  A    between atoms: C_27  and  C_30 
REMARK   11  A    between atoms: C_33  and  C_34 
REMARK   12  A    between atoms: C_34  and  C_35 
ROOT
HETATM    1  O   UNL     1      16.581   3.679  93.312  1.00  0.00    -0.350 OA
HETATM    2  N   UNL     1      14.377   1.971  92.742  1.00  0.00     0.147 N 
HETATM    3  C   UNL     1      14.677   3.142  91.907  1.00  0.00     0.283 C 
HETATM    4  C   UNL     1      14.832   2.205  94.119  1.00  0.00     0.283 C 
HETATM    5  C   UNL     1      16.171   3.448  91.963  1.00  0.00     0.178 C 
HETATM    6  C   UNL     1      16.321   2.533  94.124  1.00  0.00     0.178 C 
ENDROOT
BRANCH   2   7
HETATM    7  C   UNL     1      12.947   1.665  92.711  1.00  0.00     0.277 C 
BRANCH   7   8
HETATM    8  C   UNL     1      12.118   2.862  92.389  1.00  0.00     0.011 A 
HETATM    9  C   UNL     1      11.645   3.052  91.090  1.00  0.00    -0.002 A 
HETATM   10  C   UNL     1      10.871   4.172  90.787  1.00  0.00     0.008 A 
HETATM   11  C   UNL     1      10.568   5.099  91.784  1.00  0.00     0.042 A 
HETATM   12  C   UNL     1      11.039   4.910  93.081  1.00  0.00     0.008 A 
HETATM   13  C   UNL     1      11.814   3.791  93.384  1.00  0.00    -0.002 A 
BRANCH  11  14
HETATM   14  C   UNL     1       9.772   6.247  91.474  1.00  0.00    -0.059 C 
HETATM   15  C   UNL     1       9.103   7.212  91.212  1.00  0.00    -0.059 C 
BRANCH  15  16
HETATM   16  C   UNL     1       8.308   8.358  90.901  1.00  0.00     0.042 A 
HETATM   17  C   UNL     1       7.896   8.584  89.588  1.00  0.00     0.008 A 
HETATM   18  C   UNL     1       7.117   9.701  89.285  1.00  0.00     0.005 A 
HETATM   19  C   UNL     1       6.769  10.566  90.301  1.00  0.00     0.056 A 
HETATM   20  C   UNL     1       7.164  10.365  91.607  1.00  0.00     0.005 A 
HETATM   21  C   UNL     1       7.942   9.248  91.911  1.00  0.00     0.008 A 
BRANCH  19  22
HETATM   22  C   UNL     1       5.941  11.757  89.978  1.00  0.00     0.254 C 
HETATM   23  O   UNL     1       6.113  12.334  88.907  1.00  0.00    -0.268 OA
HETATM   24  N   UNL     1       4.997  12.118  90.929  1.00  0.00    -0.335 N 
HETATM   25  HN  UNL     1       4.894  11.578  91.780  1.00  0.00     0.164 HD
BRANCH  24  26
HETATM   26  C   UNL     1       4.103  13.234  90.750  1.00  0.00     0.166 C 
BRANCH  26  27
HETATM   27  C   UNL     1       3.462  13.264  89.357  1.00  0.00     0.138 C 
HETATM   28  C   UNL     1       2.997  11.886  88.899  1.00  0.00     0.034 C 
BRANCH  27  29
HETATM   29  O   UNL     1       2.344  14.151  89.365  1.00  0.00    -0.383 OA
HETATM   30  H   UNL     1       2.568  14.928  88.825  1.00  0.00     0.210 HD
ENDBRANCH  27  29
ENDBRANCH  26  27
BRANCH  26  31
HETATM   31  C   UNL     1       3.045  13.164  91.846  1.00  0.00     0.181 C 
HETATM   32  O   UNL     1       2.089  13.935  91.904  1.00  0.00    -0.294 OA
BRANCH  31  33
HETATM   33  C   UNL     1       2.432  11.671  91.997  1.00  0.00     0.138 C 
BRANCH  33  34
HETATM   34  C   UNL     1       2.629  11.432  93.375  1.00  0.00     0.208 C 
HETATM   35  O   UNL     1       1.729  11.771  94.108  1.00  0.00    -0.289 OA
BRANCH  34  36
HETATM   36  C   UNL     1       3.531  10.627  94.016  1.00  0.00     0.194 C 
HETATM   37  O   UNL     1       4.648   9.946  93.519  1.00  0.00    -0.185 OA
ENDBRANCH  34  36
ENDBRANCH  33  34
ENDBRANCH  31  33
ENDBRANCH  26  31
ENDBRANCH  24  26
ENDBRANCH  19  22
ENDBRANCH  15  16
ENDBRANCH  11  14
ENDBRANCH   7   8
ENDBRANCH   2   7
TORSDOF 12
ENDMDL
MODEL 5
REMARK VINA RESULT:      -4.0      3.685     12.808
REMARK  12 active torsions:
REMARK  status: ('A' for Active; 'I' for Inactive)
REMARK    1  A    between atoms: O_2  and  C_16 
REMARK    2  A    between atoms: N_5  and  C_9 
REMARK    3  A    between atoms: N_6  and  C_13 
REMARK       I    between atoms: N_6  and  C_22 
REMARK    4  A    between atoms: C_9  and  C_12 
REMARK    5  A    between atoms: C_13  and  C_16 
REMARK    6  A    between atoms: C_13  and  C_21 
REMARK    7  A    between atoms: C_19  and  C_24 
REMARK    8  A    between atoms: C_21  and  C_33 
REMARK    9  A    between atoms: C_22  and  C_23 
REMARK   10  A    between atoms: C_27  and  C_30 
REMARK   11  A    between atoms: C_33  and  C_34 
REMARK   12  A    between atoms: C_34  and  C_35 
ROOT
HETATM    1  O   UNL     1       2.164  14.803  94.094  1.00  0.00    -0.350 OA
HETATM    2  N   UNL     1       2.824  14.824  91.325  1.00  0.00     0.147 N 
HETATM    3  C   UNL     1       1.471  14.487  91.790  1.00  0.00     0.283 C 
HETATM    4  C   UNL     1       3.813  14.459  92.348  1.00  0.00     0.283 C 
HETATM    5  C   UNL     1       1.192  15.184  93.119  1.00  0.00     0.178 C 
HETATM    6  C   UNL     1       3.480  15.155  93.664  1.00  0.00     0.178 C 
ENDROOT
BRANCH   2   7
HETATM    7  C   UNL     1       3.117  14.158  90.057  1.00  0.00     0.277 C 
BRANCH   7   8
HETATM    8  C   UNL     1       4.043  13.003  90.224  1.00  0.00     0.011 A 
HETATM    9  C   UNL     1       5.326  13.054  89.676  1.00  0.00    -0.002 A 
HETATM   10  C   UNL     1       6.193  11.972  89.829  1.00  0.00     0.008 A 
HETATM   11  C   UNL     1       5.778  10.841  90.532  1.00  0.00     0.042 A 
HETATM   12  C   UNL     1       4.498  10.789  91.079  1.00  0.00     0.008 A 
HETATM   13  C   UNL     1       3.630  11.870  90.926  1.00  0.00    -0.002 A 
BRANCH  11  14
HETATM   14  C   UNL     1       6.669   9.733  90.690  1.00  0.00    -0.059 C 
HETATM   15  C   UNL     1       7.417   8.801  90.825  1.00  0.00    -0.059 C 
BRANCH  15  16
HETATM   16  C   UNL     1       8.306   7.693  90.983  1.00  0.00     0.042 A 
HETATM   17  C   UNL     1       8.678   7.276  92.262  1.00  0.00     0.008 A 
HETATM   18  C   UNL     1       9.544   6.193  92.417  1.00  0.00     0.005 A 
HETATM   19  C   UNL     1      10.016   5.552  91.291  1.00  0.00     0.056 A 
HETATM   20  C   UNL     1       9.664   5.945  90.017  1.00  0.00     0.005 A 
HETATM   21  C   UNL     1       8.799   7.027  89.861  1.00  0.00     0.008 A 
BRANCH  19  22
HETATM   22  C   UNL     1      10.940   4.399  91.457  1.00  0.00     0.254 C 
HETATM   23  O   UNL     1      10.481   3.260  91.470  1.00  0.00    -0.268 OA
HETATM   24  N   UNL     1      12.288   4.711  91.561  1.00  0.00    -0.335 N 
HETATM   25  HN  UNL     1      12.597   5.675  91.517  1.00  0.00     0.164 HD
BRANCH  24  26
HETATM   26  C   UNL     1      13.309   3.703  91.702  1.00  0.00     0.166 C 
BRANCH  26  27
HETATM   27  C   UNL     1      14.383   3.790  90.610  1.00  0.00     0.138 C 
HETATM   28  C   UNL     1      14.099   2.860  89.436  1.00  0.00     0.034 C 
BRANCH  27  29
HETATM   29  O   UNL     1      14.467   5.131  90.129  1.00  0.00    -0.383 OA
HETATM   30  H   UNL     1      14.748   5.702  90.864  1.00  0.00     0.210 HD
ENDBRANCH  27  29
ENDBRANCH  26  27
BRANCH  26  31
HETATM   31  C   UNL     1      13.918   3.848  93.092  1.00  0.00     0.181 C 
HETATM   32  O   UNL     1      13.248   4.088  94.095  1.00  0.00    -0.294 OA
BRANCH  31  33
HETATM   33  C   UNL     1      14.862   2.585  93.470  1.00  0.00     0.138 C 
BRANCH  33  34
HETATM   34  C   UNL     1      15.998   3.241  93.994  1.00  0.00     0.208 C 
HETATM   35  O   UNL     1      16.993   2.564  94.119  1.00  0.00    -0.289 OA
BRANCH  34  36
HETATM   36  C   UNL     1      16.272   4.575  94.124  1.00  0.00     0.194 C 
HETATM   37  O   UNL     1      16.331   5.584  93.156  1.00  0.00    -0.185 OA
ENDBRANCH  34  36
ENDBRANCH  33  34
ENDBRANCH  31  33
ENDBRANCH  26  31
ENDBRANCH  24  26
ENDBRANCH  19  22
ENDBRANCH  15  16
ENDBRANCH  11  14
ENDBRANCH   7   8
ENDBRANCH   2   7
TORSDOF 12
ENDMDL
MODEL 6
REMARK VINA RESULT:      -3.8      2.300      3.034
REMARK  12 active torsions:
REMARK  status: ('A' for Active; 'I' for Inactive)
REMARK    1  A    between atoms: O_2  and  C_16 
REMARK    2  A    between atoms: N_5  and  C_9 
REMARK    3  A    between atoms: N_6  and  C_13 
REMARK       I    between atoms: N_6  and  C_22 
REMARK    4  A    between atoms: C_9  and  C_12 
REMARK    5  A    between atoms: C_13  and  C_16 
REMARK    6  A    between atoms: C_13  and  C_21 
REMARK    7  A    between atoms: C_19  and  C_24 
REMARK    8  A    between atoms: C_21  and  C_33 
REMARK    9  A    between atoms: C_22  and  C_23 
REMARK   10  A    between atoms: C_27  and  C_30 
REMARK   11  A    between atoms: C_33  and  C_34 
REMARK   12  A    between atoms: C_34  and  C_35 
ROOT
HETATM    1  O   UNL     1      16.935   3.575  93.109  1.00  0.00    -0.350 OA
HETATM    2  N   UNL     1      14.795   1.737  92.729  1.00  0.00     0.147 N 
HETATM    3  C   UNL     1      15.074   2.802  91.755  1.00  0.00     0.283 C 
HETATM    4  C   UNL     1      15.216   2.159  94.072  1.00  0.00     0.283 C 
HETATM    5  C   UNL     1      16.558   3.161  91.794  1.00  0.00     0.178 C 
HETATM    6  C   UNL     1      16.695   2.534  94.057  1.00  0.00     0.178 C 
ENDROOT
BRANCH   2   7
HETATM    7  C   UNL     1      13.376   1.384  92.716  1.00  0.00     0.277 C 
BRANCH   7   8
HETATM    8  C   UNL     1      12.505   2.546  92.380  1.00  0.00     0.011 A 
HETATM    9  C   UNL     1      12.067   2.731  91.068  1.00  0.00    -0.002 A 
HETATM   10  C   UNL     1      11.253   3.818  90.751  1.00  0.00     0.008 A 
HETATM   11  C   UNL     1      10.876   4.719  91.747  1.00  0.00     0.042 A 
HETATM   12  C   UNL     1      11.313   4.535  93.057  1.00  0.00     0.008 A 
HETATM   13  C   UNL     1      12.127   3.448  93.374  1.00  0.00    -0.002 A 
BRANCH  11  14
HETATM   14  C   UNL     1      10.040   5.833  91.422  1.00  0.00    -0.059 C 
HETATM   15  C   UNL     1       9.337   6.770  91.149  1.00  0.00    -0.059 C 
BRANCH  15  16
HETATM   16  C   UNL     1       8.502   7.884  90.824  1.00  0.00     0.042 A 
HETATM   17  C   UNL     1       8.606   8.491  89.572  1.00  0.00     0.008 A 
HETATM   18  C   UNL     1       7.789   9.576  89.254  1.00  0.00     0.005 A 
HETATM   19  C   UNL     1       6.886  10.028  90.193  1.00  0.00     0.056 A 
HETATM   20  C   UNL     1       6.764   9.446  91.438  1.00  0.00     0.005 A 
HETATM   21  C   UNL     1       7.581   8.361  91.757  1.00  0.00     0.008 A 
BRANCH  19  22
HETATM   22  C   UNL     1       6.017  11.185  89.855  1.00  0.00     0.254 C 
HETATM   23  O   UNL     1       6.323  11.908  88.909  1.00  0.00    -0.268 OA
HETATM   24  N   UNL     1       4.885  11.346  90.642  1.00  0.00    -0.335 N 
HETATM   25  HN  UNL     1       4.685  10.694  91.391  1.00  0.00     0.164 HD
BRANCH  24  26
HETATM   26  C   UNL     1       3.933  12.405  90.423  1.00  0.00     0.166 C 
BRANCH  26  27
HETATM   27  C   UNL     1       2.870  12.041  89.378  1.00  0.00     0.138 C 
HETATM   28  C   UNL     1       3.416  12.072  87.955  1.00  0.00     0.034 C 
BRANCH  27  29
HETATM   29  O   UNL     1       2.360  10.736  89.651  1.00  0.00    -0.383 OA
HETATM   30  H   UNL     1       1.463  10.829  90.013  1.00  0.00     0.210 HD
ENDBRANCH  27  29
ENDBRANCH  26  27
BRANCH  26  31
HETATM   31  C   UNL     1       3.297  12.744  91.767  1.00  0.00     0.181 C 
HETATM   32  O   UNL     1       2.790  11.898  92.501  1.00  0.00    -0.294 OA
BRANCH  31  33
HETATM   33  C   UNL     1       4.293  13.616  92.702  1.00  0.00     0.138 C 
BRANCH  33  34
HETATM   34  C   UNL     1       4.087  14.914  92.187  1.00  0.00     0.208 C 
HETATM   35  O   UNL     1       3.338  15.625  92.818  1.00  0.00    -0.289 OA
BRANCH  34  36
HETATM   36  C   UNL     1       4.796  15.623  91.257  1.00  0.00     0.194 C 
HETATM   37  O   UNL     1       5.139  15.297  89.939  1.00  0.00    -0.185 OA
ENDBRANCH  34  36
ENDBRANCH  33  34
ENDBRANCH  31  33
ENDBRANCH  26  31
ENDBRANCH  24  26
ENDBRANCH  19  22
ENDBRANCH  15  16
ENDBRANCH  11  14
ENDBRANCH   7   8
ENDBRANCH   2   7
TORSDOF 12
ENDMDL
