MODEL 1
REMARK VINA RESULT:      -6.1      0.000      0.000
REMARK  12 active torsions:
REMARK  status: ('A' for Active; 'I' for Inactive)
REMARK    1  A    between atoms: O_2  and  C_16 
REMARK    2  A    between atoms: N_5  and  C_9 
REMARK    3  A    between atoms: N_6  and  C_13 
REMARK       I    between atoms: N_6  and  C_22 
REMARK    4  A    between atoms: C_9  and  C_12 
REMARK    5  A    between atoms: C_13  and  C_16 
REMARK    6  A    between atoms: C_13  and  C_21 
REMARK    7  A    between atoms: C_19  and  C_24 
REMARK    8  A    between atoms: C_21  and  C_33 
REMARK    9  A    between atoms: C_22  and  C_23 
REMARK   10  A    between atoms: C_27  and  C_30 
REMARK   11  A    between atoms: C_33  and  C_34 
REMARK   12  A    between atoms: C_34  and  C_35 
ROOT
HETATM    1  O   UNL     1      16.411   3.133  93.742  1.00  0.00    -0.350 OA
HETATM    2  N   UNL     1      13.809   2.892  92.612  1.00  0.00     0.147 N 
HETATM    3  C   UNL     1      14.598   1.709  92.983  1.00  0.00     0.283 C 
HETATM    4  C   UNL     1      14.703   4.001  92.253  1.00  0.00     0.283 C 
HETATM    5  C   UNL     1      15.550   2.058  94.124  1.00  0.00     0.178 C 
HETATM    6  C   UNL     1      15.652   4.296  93.410  1.00  0.00     0.178 C 
ENDROOT
BRANCH   2   7
HETATM    7  C   UNL     1      12.897   2.582  91.513  1.00  0.00     0.277 C 
BRANCH   7   8
HETATM    8  C   UNL     1      11.731   3.509  91.464  1.00  0.00     0.011 A 
HETATM    9  C   UNL     1      11.187   3.881  90.234  1.00  0.00    -0.002 A 
HETATM   10  C   UNL     1      10.097   4.750  90.187  1.00  0.00     0.008 A 
HETATM   11  C   UNL     1       9.551   5.245  91.370  1.00  0.00     0.042 A 
HETATM   12  C   UNL     1      10.092   4.875  92.599  1.00  0.00     0.008 A 
HETATM   13  C   UNL     1      11.183   4.007  92.647  1.00  0.00    -0.002 A 
BRANCH  11  14
HETATM   14  C   UNL     1       8.431   6.135  91.322  1.00  0.00    -0.059 C 
HETATM   15  C   UNL     1       7.490   6.883  91.282  1.00  0.00    -0.059 C 
BRANCH  15  16
HETATM   16  C   UNL     1       6.371   7.771  91.234  1.00  0.00     0.042 A 
HETATM   17  C   UNL     1       5.215   7.400  90.548  1.00  0.00     0.008 A 
HETATM   18  C   UNL     1       4.123   8.266  90.504  1.00  0.00     0.005 A 
HETATM   19  C   UNL     1       4.210   9.482  91.148  1.00  0.00     0.056 A 
HETATM   20  C   UNL     1       5.342   9.873  91.833  1.00  0.00     0.005 A 
HETATM   21  C   UNL     1       6.435   9.008  91.877  1.00  0.00     0.008 A 
BRANCH  19  22
HETATM   22  C   UNL     1       3.047  10.406  91.099  1.00  0.00     0.254 C 
HETATM   23  O   UNL     1       1.950   9.971  90.757  1.00  0.00    -0.268 OA
HETATM   24  N   UNL     1       3.295  11.717  91.479  1.00  0.00    -0.335 N 
HETATM   25  HN  UNL     1       4.223  11.999  91.775  1.00  0.00     0.164 HD
BRANCH  24  26
HETATM   26  C   UNL     1       2.265  12.725  91.508  1.00  0.00     0.166 C 
BRANCH  26  27
HETATM   27  C   UNL     1       2.100  13.364  92.892  1.00  0.00     0.138 C 
HETATM   28  C   UNL     1       3.437  13.686  93.551  1.00  0.00     0.034 C 
BRANCH  27  29
HETATM   29  O   UNL     1       1.340  14.567  92.774  1.00  0.00    -0.383 OA
HETATM   30  H   UNL     1       0.641  14.554  93.450  1.00  0.00     0.210 HD
ENDBRANCH  27  29
ENDBRANCH  26  27
BRANCH  26  31
HETATM   31  C   UNL     1       2.607  13.770  90.451  1.00  0.00     0.181 C 
HETATM   32  O   UNL     1       1.900  14.751  90.227  1.00  0.00    -0.294 OA
BRANCH  31  33
HETATM   33  C   UNL     1       4.118  14.331  90.625  1.00  0.00     0.138 C 
BRANCH  33  34
HETATM   34  C   UNL     1       4.558  14.350  89.282  1.00  0.00     0.208 C 
HETATM   35  O   UNL     1       4.978  15.409  88.875  1.00  0.00    -0.289 OA
BRANCH  34  36
HETATM   36  C   UNL     1       4.864  13.322  88.434  1.00  0.00     0.194 C 
HETATM   37  O   UNL     1       5.146  11.978  88.706  1.00  0.00    -0.185 OA
ENDBRANCH  34  36
ENDBRANCH  33  34
ENDBRANCH  31  33
ENDBRANCH  26  31
ENDBRANCH  24  26
ENDBRANCH  19  22
ENDBRANCH  15  16
ENDBRANCH  11  14
ENDBRANCH   7   8
ENDBRANCH   2   7
TORSDOF 12
ENDMDL
MODEL 2
REMARK VINA RESULT:      -5.7      1.483      2.041
REMARK  12 active torsions:
REMARK  status: ('A' for Active; 'I' for Inactive)
REMARK    1  A    between atoms: O_2  and  C_16 
REMARK    2  A    between atoms: N_5  and  C_9 
REMARK    3  A    between atoms: N_6  and  C_13 
REMARK       I    between atoms: N_6  and  C_22 
REMARK    4  A    between atoms: C_9  and  C_12 
REMARK    5  A    between atoms: C_13  and  C_16 
REMARK    6  A    between atoms: C_13  and  C_21 
REMARK    7  A    between atoms: C_19  and  C_24 
REMARK    8  A    between atoms: C_21  and  C_33 
REMARK    9  A    between atoms: C_22  and  C_23 
REMARK   10  A    between atoms: C_27  and  C_30 
REMARK   11  A    between atoms: C_33  and  C_34 
REMARK   12  A    between atoms: C_34  and  C_35 
ROOT
HETATM    1  O   UNL     1      16.536   4.263  94.123  1.00  0.00    -0.350 OA
HETATM    2  N   UNL     1      14.692   2.742  92.578  1.00  0.00     0.147 N 
HETATM    3  C   UNL     1      14.668   4.211  92.574  1.00  0.00     0.283 C 
HETATM    4  C   UNL     1      15.208   2.250  93.863  1.00  0.00     0.283 C 
HETATM    5  C   UNL     1      16.066   4.751  92.865  1.00  0.00     0.178 C 
HETATM    6  C   UNL     1      16.592   2.836  94.124  1.00  0.00     0.178 C 
ENDROOT
BRANCH   2   7
HETATM    7  C   UNL     1      13.360   2.202  92.312  1.00  0.00     0.277 C 
BRANCH   7   8
HETATM    8  C   UNL     1      12.300   3.249  92.373  1.00  0.00     0.011 A 
HETATM    9  C   UNL     1      11.567   3.565  91.228  1.00  0.00    -0.002 A 
HETATM   10  C   UNL     1      10.577   4.546  91.284  1.00  0.00     0.008 A 
HETATM   11  C   UNL     1      10.319   5.208  92.484  1.00  0.00     0.042 A 
HETATM   12  C   UNL     1      11.051   4.893  93.627  1.00  0.00     0.008 A 
HETATM   13  C   UNL     1      12.041   3.913  93.572  1.00  0.00    -0.002 A 
BRANCH  11  14
HETATM   14  C   UNL     1       9.302   6.213  92.541  1.00  0.00    -0.059 C 
HETATM   15  C   UNL     1       8.447   7.057  92.588  1.00  0.00    -0.059 C 
BRANCH  15  16
HETATM   16  C   UNL     1       7.430   8.060  92.646  1.00  0.00     0.042 A 
HETATM   17  C   UNL     1       7.306   8.862  93.781  1.00  0.00     0.008 A 
HETATM   18  C   UNL     1       6.316   9.843  93.836  1.00  0.00     0.005 A 
HETATM   19  C   UNL     1       5.473  10.000  92.756  1.00  0.00     0.056 A 
HETATM   20  C   UNL     1       5.574   9.220  91.623  1.00  0.00     0.005 A 
HETATM   21  C   UNL     1       6.564   8.239  91.567  1.00  0.00     0.008 A 
BRANCH  19  22
HETATM   22  C   UNL     1       4.417  11.043  92.816  1.00  0.00     0.254 C 
HETATM   23  O   UNL     1       3.613  11.031  93.745  1.00  0.00    -0.268 OA
HETATM   24  N   UNL     1       4.439  11.990  91.801  1.00  0.00    -0.335 N 
HETATM   25  HN  UNL     1       5.150  11.952  91.080  1.00  0.00     0.164 HD
BRANCH  24  26
HETATM   26  C   UNL     1       3.497  13.078  91.734  1.00  0.00     0.166 C 
BRANCH  26  27
HETATM   27  C   UNL     1       3.957  14.311  92.521  1.00  0.00     0.138 C 
HETATM   28  C   UNL     1       2.804  15.020  93.223  1.00  0.00     0.034 C 
BRANCH  27  29
HETATM   29  O   UNL     1       4.924  13.922  93.496  1.00  0.00    -0.383 OA
HETATM   30  H   UNL     1       5.734  14.438  93.346  1.00  0.00     0.210 HD
ENDBRANCH  27  29
ENDBRANCH  26  27
BRANCH  26  31
HETATM   31  C   UNL     1       3.273  13.411  90.263  1.00  0.00     0.181 C 
HETATM   32  O   UNL     1       2.314  14.069  89.863  1.00  0.00    -0.294 OA
BRANCH  31  33
HETATM   33  C   UNL     1       4.589  14.075  89.589  1.00  0.00     0.138 C 
BRANCH  33  34
HETATM   34  C   UNL     1       4.969  13.066  88.677  1.00  0.00     0.208 C 
HETATM   35  O   UNL     1       6.158  12.918  88.511  1.00  0.00    -0.289 OA
BRANCH  34  36
HETATM   36  C   UNL     1       4.249  12.027  88.154  1.00  0.00     0.194 C 
HETATM   37  O   UNL     1       4.564  10.666  88.059  1.00  0.00    -0.185 OA
ENDBRANCH  34  36
ENDBRANCH  33  34
ENDBRANCH  31  33
ENDBRANCH  26  31
ENDBRANCH  24  26
ENDBRANCH  19  22
ENDBRANCH  15  16
ENDBRANCH  11  14
ENDBRANCH   7   8
ENDBRANCH   2   7
TORSDOF 12
ENDMDL
MODEL 3
REMARK VINA RESULT:      -3.8      1.969     13.018
REMARK  12 active torsions:
REMARK  status: ('A' for Active; 'I' for Inactive)
REMARK    1  A    between atoms: O_2  and  C_16 
REMARK    2  A    between atoms: N_5  and  C_9 
REMARK    3  A    between atoms: N_6  and  C_13 
REMARK       I    between atoms: N_6  and  C_22 
REMARK    4  A    between atoms: C_9  and  C_12 
REMARK    5  A    between atoms: C_13  and  C_16 
REMARK    6  A    between atoms: C_13  and  C_21 
REMARK    7  A    between atoms: C_19  and  C_24 
REMARK    8  A    between atoms: C_21  and  C_33 
REMARK    9  A    between atoms: C_22  and  C_23 
REMARK   10  A    between atoms: C_27  and  C_30 
REMARK   11  A    between atoms: C_33  and  C_34 
REMARK   12  A    between atoms: C_34  and  C_35 
ROOT
HETATM    1  O   UNL     1       3.124  14.700  89.670  1.00  0.00    -0.350 OA
HETATM    2  N   UNL     1       2.911  14.226  92.468  1.00  0.00     0.147 N 
HETATM    3  C   UNL     1       4.214  14.243  91.789  1.00  0.00     0.283 C 
HETATM    4  C   UNL     1       1.862  13.796  91.534  1.00  0.00     0.283 C 
HETATM    5  C   UNL     1       4.146  15.148  90.562  1.00  0.00     0.178 C 
HETATM    6  C   UNL     1       1.849  14.711  90.313  1.00  0.00     0.178 C 
ENDROOT
BRANCH   2   7
HETATM    7  C   UNL     1       2.950  13.356  93.642  1.00  0.00     0.277 C 
BRANCH   7   8
HETATM    8  C   UNL     1       3.899  12.219  93.474  1.00  0.00     0.011 A 
HETATM    9  C   UNL     1       5.208  12.329  93.944  1.00  0.00    -0.002 A 
HETATM   10  C   UNL     1       6.098  11.266  93.785  1.00  0.00     0.008 A 
HETATM   11  C   UNL     1       5.676  10.093  93.160  1.00  0.00     0.042 A 
HETATM   12  C   UNL     1       4.369   9.982  92.691  1.00  0.00     0.008 A 
HETATM   13  C   UNL     1       3.479  11.045  92.849  1.00  0.00    -0.002 A 
BRANCH  11  14
HETATM   14  C   UNL     1       6.588   9.002  92.999  1.00  0.00    -0.059 C 
HETATM   15  C   UNL     1       7.354   8.085  92.865  1.00  0.00    -0.059 C 
BRANCH  15  16
HETATM   16  C   UNL     1       8.266   6.995  92.705  1.00  0.00     0.042 A 
HETATM   17  C   UNL     1       9.380   6.891  93.538  1.00  0.00     0.008 A 
HETATM   18  C   UNL     1      10.267   5.826  93.384  1.00  0.00     0.005 A 
HETATM   19  C   UNL     1      10.021   4.890  92.402  1.00  0.00     0.056 A 
HETATM   20  C   UNL     1       8.927   4.970  91.566  1.00  0.00     0.005 A 
HETATM   21  C   UNL     1       8.039   6.035  91.719  1.00  0.00     0.008 A 
BRANCH  19  22
HETATM   22  C   UNL     1      10.967   3.756  92.238  1.00  0.00     0.254 C 
HETATM   23  O   UNL     1      10.535   2.606  92.257  1.00  0.00    -0.268 OA
HETATM   24  N   UNL     1      12.298   4.099  92.045  1.00  0.00    -0.335 N 
HETATM   25  HN  UNL     1      12.578   5.073  92.016  1.00  0.00     0.164 HD
BRANCH  24  26
HETATM   26  C   UNL     1      13.332   3.115  91.846  1.00  0.00     0.166 C 
BRANCH  26  27
HETATM   27  C   UNL     1      14.378   3.554  90.814  1.00  0.00     0.138 C 
HETATM   28  C   UNL     1      13.873   3.428  89.381  1.00  0.00     0.034 C 
BRANCH  27  29
HETATM   29  O   UNL     1      14.749   4.910  91.057  1.00  0.00    -0.383 OA
HETATM   30  H   UNL     1      15.605   4.914  91.519  1.00  0.00     0.210 HD
ENDBRANCH  27  29
ENDBRANCH  26  27
BRANCH  26  31
HETATM   31  C   UNL     1      13.973   2.833  93.201  1.00  0.00     0.181 C 
HETATM   32  O   UNL     1      13.379   2.272  94.120  1.00  0.00    -0.294 OA
BRANCH  31  33
HETATM   33  C   UNL     1      15.393   2.065  93.046  1.00  0.00     0.138 C 
BRANCH  33  34
HETATM   34  C   UNL     1      16.277   3.009  93.614  1.00  0.00     0.208 C 
HETATM   35  O   UNL     1      17.455   2.829  93.404  1.00  0.00    -0.289 OA
BRANCH  34  36
HETATM   36  C   UNL     1      16.037   4.256  94.124  1.00  0.00     0.194 C 
HETATM   37  O   UNL     1      16.019   5.504  93.490  1.00  0.00    -0.185 OA
ENDBRANCH  34  36
ENDBRANCH  33  34
ENDBRANCH  31  33
ENDBRANCH  26  31
ENDBRANCH  24  26
ENDBRANCH  19  22
ENDBRANCH  15  16
ENDBRANCH  11  14
ENDBRANCH   7   8
ENDBRANCH   2   7
TORSDOF 12
ENDMDL
MODEL 4
REMARK VINA RESULT:      -3.6      2.635     12.465
REMARK  12 active torsions:
REMARK  status: ('A' for Active; 'I' for Inactive)
REMARK    1  A    between atoms: O_2  and  C_16 
REMARK    2  A    between atoms: N_5  and  C_9 
REMARK    3  A    between atoms: N_6  and  C_13 
REMARK       I    between atoms: N_6  and  C_22 
REMARK    4  A    between atoms: C_9  and  C_12 
REMARK    5  A    between atoms: C_13  and  C_16 
REMARK    6  A    between atoms: C_13  and  C_21 
REMARK    7  A    between atoms: C_19  and  C_24 
REMARK    8  A    between atoms: C_21  and  C_33 
REMARK    9  A    between atoms: C_22  and  C_23 
REMARK   10  A    between atoms: C_27  and  C_30 
REMARK   11  A    between atoms: C_33  and  C_34 
REMARK   12  A    between atoms: C_34  and  C_35 
ROOT
HETATM    1  O   UNL     1       2.888  14.636  93.843  1.00  0.00    -0.350 OA
HETATM    2  N   UNL     1       2.842  14.798  91.002  1.00  0.00     0.147 N 
HETATM    3  C   UNL     1       1.816  14.054  91.745  1.00  0.00     0.283 C 
HETATM    4  C   UNL     1       4.106  14.799  91.751  1.00  0.00     0.283 C 
HETATM    5  C   UNL     1       1.646  14.657  93.137  1.00  0.00     0.178 C 
HETATM    6  C   UNL     1       3.883  15.384  93.142  1.00  0.00     0.178 C 
ENDROOT
BRANCH   2   7
HETATM    7  C   UNL     1       3.028  14.230  89.668  1.00  0.00     0.277 C 
BRANCH   7   8
HETATM    8  C   UNL     1       3.963  13.069  89.671  1.00  0.00     0.011 A 
HETATM    9  C   UNL     1       3.612  11.893  90.335  1.00  0.00    -0.002 A 
HETATM   10  C   UNL     1       4.487  10.807  90.341  1.00  0.00     0.008 A 
HETATM   11  C   UNL     1       5.711  10.896  89.680  1.00  0.00     0.042 A 
HETATM   12  C   UNL     1       6.063  12.070  89.016  1.00  0.00     0.008 A 
HETATM   13  C   UNL     1       5.189  13.156  89.011  1.00  0.00    -0.002 A 
BRANCH  11  14
HETATM   14  C   UNL     1       6.608   9.781  89.684  1.00  0.00    -0.059 C 
HETATM   15  C   UNL     1       7.361   8.844  89.688  1.00  0.00    -0.059 C 
BRANCH  15  16
HETATM   16  C   UNL     1       8.257   7.730  89.692  1.00  0.00     0.042 A 
HETATM   17  C   UNL     1       8.435   6.975  88.532  1.00  0.00     0.008 A 
HETATM   18  C   UNL     1       9.311   5.889  88.537  1.00  0.00     0.005 A 
HETATM   19  C   UNL     1       9.988   5.583  89.698  1.00  0.00     0.056 A 
HETATM   20  C   UNL     1       9.829   6.313  90.858  1.00  0.00     0.005 A 
HETATM   21  C   UNL     1       8.953   7.399  90.855  1.00  0.00     0.008 A 
BRANCH  19  22
HETATM   22  C   UNL     1      10.920   4.426  89.703  1.00  0.00     0.254 C 
HETATM   23  O   UNL     1      10.780   3.541  88.862  1.00  0.00    -0.268 OA
HETATM   24  N   UNL     1      11.915   4.450  90.669  1.00  0.00    -0.335 N 
HETATM   25  HN  UNL     1      11.984   5.227  91.316  1.00  0.00     0.164 HD
BRANCH  24  26
HETATM   26  C   UNL     1      12.908   3.412  90.786  1.00  0.00     0.166 C 
BRANCH  26  27
HETATM   27  C   UNL     1      14.299   3.958  91.132  1.00  0.00     0.138 C 
HETATM   28  C   UNL     1      15.410   2.956  90.837  1.00  0.00     0.034 C 
BRANCH  27  29
HETATM   29  O   UNL     1      14.542   5.151  90.388  1.00  0.00    -0.383 OA
HETATM   30  H   UNL     1      15.410   5.503  90.650  1.00  0.00     0.210 HD
ENDBRANCH  27  29
ENDBRANCH  26  27
BRANCH  26  31
HETATM   31  C   UNL     1      12.424   2.421  91.839  1.00  0.00     0.181 C 
HETATM   32  O   UNL     1      13.151   1.978  92.727  1.00  0.00    -0.294 OA
BRANCH  31  33
HETATM   33  C   UNL     1      11.074   2.934  92.574  1.00  0.00     0.138 C 
BRANCH  33  34
HETATM   34  C   UNL     1      11.611   3.748  93.596  1.00  0.00     0.208 C 
HETATM   35  O   UNL     1      12.712   3.444  93.995  1.00  0.00    -0.289 OA
BRANCH  34  36
HETATM   36  C   UNL     1      11.240   4.991  94.027  1.00  0.00     0.194 C 
HETATM   37  O   UNL     1       9.971   5.574  94.124  1.00  0.00    -0.185 OA
ENDBRANCH  34  36
ENDBRANCH  33  34
ENDBRANCH  31  33
ENDBRANCH  26  31
ENDBRANCH  24  26
ENDBRANCH  19  22
ENDBRANCH  15  16
ENDBRANCH  11  14
ENDBRANCH   7   8
ENDBRANCH   2   7
TORSDOF 12
ENDMDL
