MODEL 1
REMARK VINA RESULT:      -6.8      0.000      0.000
REMARK  10 active torsions:
REMARK  status: ('A' for Active; 'I' for Inactive)
REMARK    1  A    between atoms: O_2  and  C_16 
REMARK    2  A    between atoms: N_5  and  C_9 
REMARK    3  A    between atoms: N_6  and  C_13 
REMARK       I    between atoms: N_6  and  C_22 
REMARK    4  A    between atoms: C_9  and  C_12 
REMARK    5  A    between atoms: C_13  and  C_16 
REMARK    6  A    between atoms: C_13  and  C_21 
REMARK    7  A    between atoms: C_19  and  C_24 
REMARK    8  A    between atoms: C_22  and  C_23 
REMARK    9  A    between atoms: C_27  and  C_30 
REMARK   10  A    between atoms: N_33  and  S_34 
ROOT
HETATM    1  C   UNL     1       5.782  11.185  89.722  1.00  0.00     0.056 A 
HETATM    2  C   UNL     1       5.233  10.029  90.236  1.00  0.00     0.005 A 
HETATM    3  C   UNL     1       7.131  11.307  89.461  1.00  0.00     0.005 A 
HETATM    4  C   UNL     1       7.439   9.044  90.247  1.00  0.00     0.042 A 
HETATM    5  C   UNL     1       6.071   8.945  90.502  1.00  0.00     0.008 A 
HETATM    6  C   UNL     1       7.969  10.224  89.727  1.00  0.00     0.008 A 
ENDROOT
BRANCH   1   7
HETATM    7  C   UNL     1       4.889  12.338  89.437  1.00  0.00     0.254 C 
HETATM    8  O   UNL     1       4.831  12.782  88.293  1.00  0.00    -0.268 OA
HETATM    9  N   UNL     1       4.154  12.818  90.512  1.00  0.00    -0.337 N 
HETATM   10  HN  UNL     1       4.236  12.384  91.424  1.00  0.00     0.164 HD
BRANCH   9  11
HETATM   11  C   UNL     1       3.227  13.915  90.390  1.00  0.00     0.172 C 
BRANCH  11  12
HETATM   12  C   UNL     1       1.894  13.647  91.099  1.00  0.00     0.136 C 
HETATM   13  C   UNL     1       1.977  12.481  92.078  1.00  0.00     0.034 C 
BRANCH  12  14
HETATM   14  O   UNL     1       1.487  14.818  91.807  1.00  0.00    -0.383 OA
HETATM   15  H   UNL     1       0.515  14.844  91.819  1.00  0.00     0.210 HD
ENDBRANCH  12  14
ENDBRANCH  11  12
BRANCH  11  16
HETATM   16  C   UNL     1       3.908  15.163  90.941  1.00  0.00     0.398 A 
HETATM   17  O   UNL     1       5.005  15.557  90.548  1.00  0.00    -0.136 OA
HETATM   18  N   UNL     1       4.931  15.625  92.065  1.00  0.00     0.142 N 
HETATM   19  HN  UNL     1       5.833  15.992  91.948  1.00  0.00     0.338 HD
BRANCH  18  20
HETATM   20  S   UNL     1       4.265  15.111  93.172  1.00  0.00     0.076 SA
HETATM   21  H   UNL     1       3.664  15.889  93.839  1.00  0.00     0.136 HD
ENDBRANCH  18  20
ENDBRANCH  11  16
ENDBRANCH   9  11
ENDBRANCH   1   7
BRANCH   4  22
HETATM   22  C   UNL     1       8.298   7.934  90.523  1.00  0.00    -0.059 C 
HETATM   23  C   UNL     1       9.020   7.001  90.753  1.00  0.00    -0.059 C 
BRANCH  23  24
HETATM   24  C   UNL     1       9.880   5.891  91.029  1.00  0.00     0.042 A 
HETATM   25  C   UNL     1      10.705   5.385  90.025  1.00  0.00     0.008 A 
HETATM   26  C   UNL     1      11.542   4.302  90.292  1.00  0.00    -0.002 A 
HETATM   27  C   UNL     1      11.555   3.727  91.564  1.00  0.00     0.011 A 
HETATM   28  C   UNL     1      10.730   4.236  92.567  1.00  0.00    -0.002 A 
HETATM   29  C   UNL     1       9.892   5.319  92.299  1.00  0.00     0.008 A 
BRANCH  27  30
HETATM   30  C   UNL     1      12.452   2.571  91.849  1.00  0.00     0.277 C 
BRANCH  30  31
HETATM   31  N   UNL     1      13.479   2.894  92.838  1.00  0.00     0.147 N 
HETATM   32  C   UNL     1      14.336   1.728  93.098  1.00  0.00     0.283 C 
HETATM   33  C   UNL     1      15.406   2.092  94.124  1.00  0.00     0.178 C 
HETATM   34  O   UNL     1      16.189   3.192  93.657  1.00  0.00    -0.350 OA
HETATM   35  C   UNL     1      15.368   4.339  93.432  1.00  0.00     0.178 C 
HETATM   36  C   UNL     1      14.297   4.030  92.391  1.00  0.00     0.283 C 
ENDBRANCH  30  31
ENDBRANCH  27  30
ENDBRANCH  23  24
ENDBRANCH   4  22
TORSDOF 10
ENDMDL
