MODEL 1
REMARK VINA RESULT:      -7.1      0.000      0.000
REMARK  9 active torsions:
REMARK  status: ('A' for Active; 'I' for Inactive)
REMARK    1  A    between atoms: O_2  and  C_17 
REMARK    2  A    between atoms: N_5  and  C_10 
REMARK    3  A    between atoms: N_6  and  C_14 
REMARK       I    between atoms: N_6  and  C_23 
REMARK       I    between atoms: N_7  and  C_22 
REMARK    4  A    between atoms: C_10  and  C_13 
REMARK    5  A    between atoms: C_14  and  C_17 
REMARK    6  A    between atoms: C_14  and  C_22 
REMARK    7  A    between atoms: C_20  and  C_25 
REMARK    8  A    between atoms: C_23  and  C_24 
REMARK    9  A    between atoms: C_28  and  C_31 
ROOT
HETATM    1  O   UNL     1      16.385   4.232  94.119  1.00  0.00    -0.388 OA
HETATM    2  N   UNL     1      14.584   2.582  92.657  1.00  0.00     0.096 N 
HETATM    3  C   UNL     1      14.464   4.047  92.648  1.00  0.00     0.299 C 
HETATM    4  C   UNL     1      15.183   2.134  93.922  1.00  0.00     0.299 C 
HETATM    5  C   UNL     1      15.834   4.680  92.880  1.00  0.00     0.198 C 
HETATM    6  C   UNL     1      16.534   2.812  94.124  1.00  0.00     0.198 C 
ENDROOT
BRANCH   2   7
HETATM    7  C   UNL     1      13.281   1.955  92.447  1.00  0.00     0.311 C 
BRANCH   7   8
HETATM    8  C   UNL     1      12.228   2.942  92.074  1.00  0.00    -0.030 A 
HETATM    9  C   UNL     1      11.851   3.087  90.739  1.00  0.00     0.010 A 
HETATM   10  C   UNL     1      10.868   4.012  90.388  1.00  0.00     0.021 A 
HETATM   11  C   UNL     1      10.261   4.790  91.374  1.00  0.00     0.018 A 
HETATM   12  C   UNL     1      10.637   4.646  92.708  1.00  0.00     0.021 A 
HETATM   13  C   UNL     1      11.621   3.722  93.058  1.00  0.00     0.010 A 
BRANCH  11  14
HETATM   14  C   UNL     1       9.251   5.738  91.014  1.00  0.00    -0.061 C 
HETATM   15  C   UNL     1       8.401   6.533  90.713  1.00  0.00    -0.061 C 
BRANCH  15  16
HETATM   16  C   UNL     1       7.392   7.480  90.354  1.00  0.00     0.018 A 
HETATM   17  C   UNL     1       7.298   8.691  91.041  1.00  0.00     0.022 A 
HETATM   18  C   UNL     1       6.314   9.615  90.689  1.00  0.00     0.018 A 
HETATM   19  C   UNL     1       5.448   9.309  89.660  1.00  0.00     0.032 A 
HETATM   20  C   UNL     1       5.521   8.119  88.967  1.00  0.00     0.018 A 
HETATM   21  C   UNL     1       6.504   7.194  89.317  1.00  0.00     0.022 A 
BRANCH  19  22
HETATM   22  C   UNL     1       4.400  10.294  89.287  1.00  0.00     0.252 C 
HETATM   23  O   UNL     1       3.263   9.896  89.045  1.00  0.00    -0.268 OA
HETATM   24  N   UNL     1       4.795  11.624  89.267  1.00  0.00    -0.342 N 
HETATM   25  H   UNL     1       5.746  11.881  89.504  1.00  0.00     0.163 HD
BRANCH  24  26
HETATM   26  C   UNL     1       3.888  12.698  88.948  1.00  0.00     0.199 C 
BRANCH  26  27
HETATM   27  C   UNL     1       3.189  13.272  90.187  1.00  0.00     0.145 C 
HETATM   28  C   UNL     1       4.177  13.792  91.226  1.00  0.00     0.042 C 
BRANCH  27  29
HETATM   29  O   UNL     1       2.323  14.337  89.797  1.00  0.00    -0.393 OA
HETATM   30  H   UNL     1       1.829  14.055  89.009  1.00  0.00     0.210 HD
ENDBRANCH  27  29
ENDBRANCH  26  27
BRANCH  26  31
HETATM   31  C   UNL     1       4.679  13.773  88.210  1.00  0.00     0.220 C 
HETATM   32  O   UNL     1       4.923  14.876  88.695  1.00  0.00    -0.278 OA
HETATM   33  N   UNL     1       5.042  13.374  86.947  1.00  0.00    -0.271 NA
HETATM   34  H   UNL     1       4.782  12.511  86.484  1.00  0.00     0.127 HD
HETATM   35  H   UNL     1       4.536  13.817  85.714  1.00  0.00     0.127 HD
ENDBRANCH  26  31
ENDBRANCH  24  26
ENDBRANCH  19  22
ENDBRANCH  15  16
ENDBRANCH  11  14
ENDBRANCH   7   8
ENDBRANCH   2   7
TORSDOF 9
ENDMDL
MODEL 2
REMARK VINA RESULT:      -7.1      1.997      2.829
REMARK  9 active torsions:
REMARK  status: ('A' for Active; 'I' for Inactive)
REMARK    1  A    between atoms: O_2  and  C_17 
REMARK    2  A    between atoms: N_5  and  C_10 
REMARK    3  A    between atoms: N_6  and  C_14 
REMARK       I    between atoms: N_6  and  C_23 
REMARK       I    between atoms: N_7  and  C_22 
REMARK    4  A    between atoms: C_10  and  C_13 
REMARK    5  A    between atoms: C_14  and  C_17 
REMARK    6  A    between atoms: C_14  and  C_22 
REMARK    7  A    between atoms: C_20  and  C_25 
REMARK    8  A    between atoms: C_23  and  C_24 
REMARK    9  A    between atoms: C_28  and  C_31 
ROOT
HETATM    1  O   UNL     1      16.279   3.834  94.124  1.00  0.00    -0.388 OA
HETATM    2  N   UNL     1      14.329   2.561  92.487  1.00  0.00     0.096 N 
HETATM    3  C   UNL     1      14.474   4.023  92.512  1.00  0.00     0.299 C 
HETATM    4  C   UNL     1      14.739   1.992  93.778  1.00  0.00     0.299 C 
HETATM    5  C   UNL     1      15.913   4.394  92.861  1.00  0.00     0.198 C 
HETATM    6  C   UNL     1      16.171   2.411  94.098  1.00  0.00     0.198 C 
ENDROOT
BRANCH   2   7
HETATM    7  C   UNL     1      12.954   2.183  92.165  1.00  0.00     0.311 C 
BRANCH   7   8
HETATM    8  C   UNL     1      12.014   3.338  92.243  1.00  0.00    -0.030 A 
HETATM    9  C   UNL     1      11.728   3.921  93.478  1.00  0.00     0.010 A 
HETATM   10  C   UNL     1      10.847   4.999  93.552  1.00  0.00     0.021 A 
HETATM   11  C   UNL     1      10.255   5.496  92.391  1.00  0.00     0.018 A 
HETATM   12  C   UNL     1      10.541   4.915  91.157  1.00  0.00     0.021 A 
HETATM   13  C   UNL     1      11.421   3.836  91.083  1.00  0.00     0.010 A 
BRANCH  11  14
HETATM   14  C   UNL     1       9.353   6.604  92.467  1.00  0.00    -0.061 C 
HETATM   15  C   UNL     1       8.595   7.535  92.532  1.00  0.00    -0.061 C 
BRANCH  15  16
HETATM   16  C   UNL     1       7.695   8.643  92.608  1.00  0.00     0.018 A 
HETATM   17  C   UNL     1       7.418   9.231  93.843  1.00  0.00     0.022 A 
HETATM   18  C   UNL     1       6.541  10.314  93.917  1.00  0.00     0.018 A 
HETATM   19  C   UNL     1       5.962  10.784  92.756  1.00  0.00     0.032 A 
HETATM   20  C   UNL     1       6.220  10.219  91.525  1.00  0.00     0.018 A 
HETATM   21  C   UNL     1       7.096   9.137  91.449  1.00  0.00     0.022 A 
BRANCH  19  22
HETATM   22  C   UNL     1       5.027  11.936  92.836  1.00  0.00     0.252 C 
HETATM   23  O   UNL     1       4.748  12.406  93.936  1.00  0.00    -0.268 OA
HETATM   24  N   UNL     1       4.549  12.416  91.625  1.00  0.00    -0.342 N 
HETATM   25  H   UNL     1       4.844  11.992  90.753  1.00  0.00     0.163 HD
BRANCH  24  26
HETATM   26  C   UNL     1       3.655  13.542  91.536  1.00  0.00     0.199 C 
BRANCH  26  27
HETATM   27  C   UNL     1       3.756  14.276  90.193  1.00  0.00     0.145 C 
HETATM   28  C   UNL     1       5.094  14.042  89.499  1.00  0.00     0.042 C 
BRANCH  27  29
HETATM   29  O   UNL     1       2.705  13.841  89.330  1.00  0.00    -0.393 OA
HETATM   30  H   UNL     1       2.354  14.617  88.863  1.00  0.00     0.210 HD
ENDBRANCH  27  29
ENDBRANCH  26  27
BRANCH  26  31
HETATM   31  C   UNL     1       2.239  13.032  91.783  1.00  0.00     0.220 C 
HETATM   32  O   UNL     1       1.922  11.850  91.665  1.00  0.00    -0.278 OA
HETATM   33  N   UNL     1       1.372  14.047  92.110  1.00  0.00    -0.271 NA
HETATM   34  H   UNL     1       1.578  15.039  92.129  1.00  0.00     0.127 HD
HETATM   35  H   UNL     1       0.342  14.597  91.332  1.00  0.00     0.127 HD
ENDBRANCH  26  31
ENDBRANCH  24  26
ENDBRANCH  19  22
ENDBRANCH  15  16
ENDBRANCH  11  14
ENDBRANCH   7   8
ENDBRANCH   2   7
TORSDOF 9
ENDMDL
MODEL 3
REMARK VINA RESULT:      -6.8      1.796      2.412
REMARK  9 active torsions:
REMARK  status: ('A' for Active; 'I' for Inactive)
REMARK    1  A    between atoms: O_2  and  C_17 
REMARK    2  A    between atoms: N_5  and  C_10 
REMARK    3  A    between atoms: N_6  and  C_14 
REMARK       I    between atoms: N_6  and  C_23 
REMARK       I    between atoms: N_7  and  C_22 
REMARK    4  A    between atoms: C_10  and  C_13 
REMARK    5  A    between atoms: C_14  and  C_17 
REMARK    6  A    between atoms: C_14  and  C_22 
REMARK    7  A    between atoms: C_20  and  C_25 
REMARK    8  A    between atoms: C_23  and  C_24 
REMARK    9  A    between atoms: C_28  and  C_31 
ROOT
HETATM    1  O   UNL     1      16.235   2.683  93.875  1.00  0.00    -0.388 OA
HETATM    2  N   UNL     1      13.708   2.789  92.569  1.00  0.00     0.096 N 
HETATM    3  C   UNL     1      14.347   1.508  92.902  1.00  0.00     0.299 C 
HETATM    4  C   UNL     1      14.732   3.820  92.348  1.00  0.00     0.299 C 
HETATM    5  C   UNL     1      15.247   1.682  94.124  1.00  0.00     0.198 C 
HETATM    6  C   UNL     1      15.622   3.939  93.580  1.00  0.00     0.198 C 
ENDROOT
BRANCH   2   7
HETATM    7  C   UNL     1      12.850   2.649  91.394  1.00  0.00     0.311 C 
BRANCH   7   8
HETATM    8  C   UNL     1      11.796   3.702  91.332  1.00  0.00    -0.030 A 
HETATM    9  C   UNL     1      11.319   4.137  90.095  1.00  0.00     0.010 A 
HETATM   10  C   UNL     1      10.335   5.124  90.035  1.00  0.00     0.021 A 
HETATM   11  C   UNL     1       9.828   5.673  91.212  1.00  0.00     0.018 A 
HETATM   12  C   UNL     1      10.303   5.239  92.447  1.00  0.00     0.021 A 
HETATM   13  C   UNL     1      11.288   4.253  92.508  1.00  0.00     0.010 A 
BRANCH  11  14
HETATM   14  C   UNL     1       8.817   6.684  91.150  1.00  0.00    -0.061 C 
HETATM   15  C   UNL     1       7.967   7.533  91.098  1.00  0.00    -0.061 C 
BRANCH  15  16
HETATM   16  C   UNL     1       6.956   8.542  91.037  1.00  0.00     0.018 A 
HETATM   17  C   UNL     1       5.651   8.200  90.682  1.00  0.00     0.022 A 
HETATM   18  C   UNL     1       4.665   9.185  90.626  1.00  0.00     0.018 A 
HETATM   19  C   UNL     1       5.005  10.488  90.925  1.00  0.00     0.032 A 
HETATM   20  C   UNL     1       6.288  10.851  91.278  1.00  0.00     0.018 A 
HETATM   21  C   UNL     1       7.275   9.867  91.335  1.00  0.00     0.022 A 
BRANCH  19  22
HETATM   22  C   UNL     1       3.954  11.536  90.863  1.00  0.00     0.252 C 
HETATM   23  O   UNL     1       2.864  11.264  90.364  1.00  0.00    -0.268 OA
HETATM   24  N   UNL     1       4.290  12.767  91.410  1.00  0.00    -0.342 N 
HETATM   25  H   UNL     1       5.202  12.911  91.827  1.00  0.00     0.163 HD
BRANCH  24  26
HETATM   26  C   UNL     1       3.371  13.876  91.447  1.00  0.00     0.199 C 
BRANCH  26  27
HETATM   27  C   UNL     1       2.674  14.024  92.805  1.00  0.00     0.145 C 
HETATM   28  C   UNL     1       1.340  13.287  92.860  1.00  0.00     0.042 C 
BRANCH  27  29
HETATM   29  O   UNL     1       3.524  13.521  93.835  1.00  0.00    -0.393 OA
HETATM   30  H   UNL     1       4.405  13.916  93.724  1.00  0.00     0.210 HD
ENDBRANCH  27  29
ENDBRANCH  26  27
BRANCH  26  31
HETATM   31  C   UNL     1       4.147  15.137  91.082  1.00  0.00     0.220 C 
HETATM   32  O   UNL     1       4.139  15.625  89.953  1.00  0.00    -0.278 OA
HETATM   33  N   UNL     1       4.872  15.625  92.142  1.00  0.00    -0.271 NA
HETATM   34  H   UNL     1       4.972  15.199  93.056  1.00  0.00     0.127 HD
HETATM   35  H   UNL     1       6.263  15.604  92.329  1.00  0.00     0.127 HD
ENDBRANCH  26  31
ENDBRANCH  24  26
ENDBRANCH  19  22
ENDBRANCH  15  16
ENDBRANCH  11  14
ENDBRANCH   7   8
ENDBRANCH   2   7
TORSDOF 9
ENDMDL
MODEL 4
REMARK VINA RESULT:      -6.5      2.632     12.252
REMARK  9 active torsions:
REMARK  status: ('A' for Active; 'I' for Inactive)
REMARK    1  A    between atoms: O_2  and  C_17 
REMARK    2  A    between atoms: N_5  and  C_10 
REMARK    3  A    between atoms: N_6  and  C_14 
REMARK       I    between atoms: N_6  and  C_23 
REMARK       I    between atoms: N_7  and  C_22 
REMARK    4  A    between atoms: C_10  and  C_13 
REMARK    5  A    between atoms: C_14  and  C_17 
REMARK    6  A    between atoms: C_14  and  C_22 
REMARK    7  A    between atoms: C_20  and  C_25 
REMARK    8  A    between atoms: C_23  and  C_24 
REMARK    9  A    between atoms: C_28  and  C_31 
ROOT
HETATM    1  O   UNL     1       2.981  14.805  94.089  1.00  0.00    -0.388 OA
HETATM    2  N   UNL     1       2.716  14.716  91.257  1.00  0.00     0.096 N 
HETATM    3  C   UNL     1       1.751  14.045  92.140  1.00  0.00     0.299 C 
HETATM    4  C   UNL     1       4.034  14.776  91.904  1.00  0.00     0.299 C 
HETATM    5  C   UNL     1       1.688  14.770  93.482  1.00  0.00     0.198 C 
HETATM    6  C   UNL     1       3.917  15.483  93.251  1.00  0.00     0.198 C 
ENDROOT
BRANCH   2   7
HETATM    7  C   UNL     1       2.800  14.031  89.968  1.00  0.00     0.311 C 
BRANCH   7   8
HETATM    8  C   UNL     1       3.800  12.925  89.977  1.00  0.00    -0.030 A 
HETATM    9  C   UNL     1       4.980  13.046  89.243  1.00  0.00     0.010 A 
HETATM   10  C   UNL     1       5.914  12.011  89.248  1.00  0.00     0.021 A 
HETATM   11  C   UNL     1       5.669  10.856  89.991  1.00  0.00     0.018 A 
HETATM   12  C   UNL     1       4.491  10.734  90.725  1.00  0.00     0.021 A 
HETATM   13  C   UNL     1       3.556  11.769  90.718  1.00  0.00     0.010 A 
BRANCH  11  14
HETATM   14  C   UNL     1       6.629   9.795  89.998  1.00  0.00    -0.061 C 
HETATM   15  C   UNL     1       7.436   8.904  90.005  1.00  0.00    -0.061 C 
BRANCH  15  16
HETATM   16  C   UNL     1       8.394   7.843  90.014  1.00  0.00     0.018 A 
HETATM   17  C   UNL     1       9.177   7.603  88.885  1.00  0.00     0.022 A 
HETATM   18  C   UNL     1      10.114   6.570  88.894  1.00  0.00     0.018 A 
HETATM   19  C   UNL     1      10.248   5.801  90.031  1.00  0.00     0.032 A 
HETATM   20  C   UNL     1       9.486   6.018  91.160  1.00  0.00     0.018 A 
HETATM   21  C   UNL     1       8.548   7.051  91.152  1.00  0.00     0.022 A 
BRANCH  19  22
HETATM   22  C   UNL     1      11.245   4.699  90.040  1.00  0.00     0.252 C 
HETATM   23  O   UNL     1      11.399   4.022  89.027  1.00  0.00    -0.268 OA
HETATM   24  N   UNL     1      11.959   4.535  91.219  1.00  0.00    -0.342 N 
HETATM   25  H   UNL     1      11.795   5.150  92.008  1.00  0.00     0.163 HD
BRANCH  24  26
HETATM   26  C   UNL     1      12.977   3.527  91.375  1.00  0.00     0.199 C 
BRANCH  26  27
HETATM   27  C   UNL     1      14.256   4.071  92.025  1.00  0.00     0.145 C 
HETATM   28  C   UNL     1      15.234   2.964  92.403  1.00  0.00     0.042 C 
BRANCH  27  29
HETATM   29  O   UNL     1      14.901   4.973  91.128  1.00  0.00    -0.393 OA
HETATM   30  H   UNL     1      15.157   4.479  90.331  1.00  0.00     0.210 HD
ENDBRANCH  27  29
ENDBRANCH  26  27
BRANCH  26  31
HETATM   31  C   UNL     1      12.381   2.386  92.193  1.00  0.00     0.220 C 
HETATM   32  O   UNL     1      12.181   1.264  91.731  1.00  0.00    -0.278 OA
HETATM   33  N   UNL     1      12.065   2.774  93.472  1.00  0.00    -0.271 NA
HETATM   34  H   UNL     1      12.133   3.709  93.857  1.00  0.00     0.127 HD
HETATM   35  H   UNL     1      10.794   2.977  94.033  1.00  0.00     0.127 HD
ENDBRANCH  26  31
ENDBRANCH  24  26
ENDBRANCH  19  22
ENDBRANCH  15  16
ENDBRANCH  11  14
ENDBRANCH   7   8
ENDBRANCH   2   7
TORSDOF 9
ENDMDL
MODEL 5
REMARK VINA RESULT:      -5.8      1.877     12.300
REMARK  9 active torsions:
REMARK  status: ('A' for Active; 'I' for Inactive)
REMARK    1  A    between atoms: O_2  and  C_17 
REMARK    2  A    between atoms: N_5  and  C_10 
REMARK    3  A    between atoms: N_6  and  C_14 
REMARK       I    between atoms: N_6  and  C_23 
REMARK       I    between atoms: N_7  and  C_22 
REMARK    4  A    between atoms: C_10  and  C_13 
REMARK    5  A    between atoms: C_14  and  C_17 
REMARK    6  A    between atoms: C_14  and  C_22 
REMARK    7  A    between atoms: C_20  and  C_25 
REMARK    8  A    between atoms: C_23  and  C_24 
REMARK    9  A    between atoms: C_28  and  C_31 
ROOT
HETATM    1  O   UNL     1       4.055  14.679  91.943  1.00  0.00    -0.388 OA
HETATM    2  N   UNL     1       3.614  13.178  89.565  1.00  0.00     0.096 N 
HETATM    3  C   UNL     1       3.132  12.707  90.871  1.00  0.00     0.299 C 
HETATM    4  C   UNL     1       4.817  14.004  89.741  1.00  0.00     0.299 C 
HETATM    5  C   UNL     1       2.867  13.901  91.785  1.00  0.00     0.198 C 
HETATM    6  C   UNL     1       4.514  15.166  90.681  1.00  0.00     0.198 C 
ENDROOT
BRANCH   2   7
HETATM    7  C   UNL     1       3.884  12.049  88.676  1.00  0.00     0.311 C 
BRANCH   7   8
HETATM    8  C   UNL     1       4.868  11.092  89.257  1.00  0.00    -0.030 A 
HETATM    9  C   UNL     1       6.216  11.442  89.340  1.00  0.00     0.010 A 
HETATM   10  C   UNL     1       7.138  10.546  89.880  1.00  0.00     0.021 A 
HETATM   11  C   UNL     1       6.711   9.301  90.340  1.00  0.00     0.018 A 
HETATM   12  C   UNL     1       5.365   8.950  90.259  1.00  0.00     0.021 A 
HETATM   13  C   UNL     1       4.443   9.845  89.717  1.00  0.00     0.010 A 
BRANCH  11  14
HETATM   14  C   UNL     1       7.657   8.383  90.897  1.00  0.00    -0.061 C 
HETATM   15  C   UNL     1       8.451   7.611  91.365  1.00  0.00    -0.061 C 
BRANCH  15  16
HETATM   16  C   UNL     1       9.395   6.693  91.922  1.00  0.00     0.018 A 
HETATM   17  C   UNL     1       9.880   5.638  91.147  1.00  0.00     0.022 A 
HETATM   18  C   UNL     1      10.803   4.744  91.689  1.00  0.00     0.018 A 
HETATM   19  C   UNL     1      11.221   4.925  92.991  1.00  0.00     0.032 A 
HETATM   20  C   UNL     1      10.757   5.959  93.777  1.00  0.00     0.018 A 
HETATM   21  C   UNL     1       9.833   6.853  93.236  1.00  0.00     0.022 A 
BRANCH  19  22
HETATM   22  C   UNL     1      12.203   3.971  93.568  1.00  0.00     0.252 C 
HETATM   23  O   UNL     1      11.796   2.953  94.124  1.00  0.00    -0.268 OA
HETATM   24  N   UNL     1      13.541   4.303  93.407  1.00  0.00    -0.342 N 
HETATM   25  H   UNL     1      13.804   5.149  92.914  1.00  0.00     0.163 HD
BRANCH  24  26
HETATM   26  C   UNL     1      14.612   3.468  93.890  1.00  0.00     0.199 C 
BRANCH  26  27
HETATM   27  C   UNL     1      14.723   2.144  93.124  1.00  0.00     0.145 C 
HETATM   28  C   UNL     1      14.663   0.930  94.045  1.00  0.00     0.042 C 
BRANCH  27  29
HETATM   29  O   UNL     1      13.665   2.054  92.169  1.00  0.00    -0.393 OA
HETATM   30  H   UNL     1      13.508   1.115  91.976  1.00  0.00     0.210 HD
ENDBRANCH  27  29
ENDBRANCH  26  27
BRANCH  26  31
HETATM   31  C   UNL     1      15.905   4.271  93.800  1.00  0.00     0.220 C 
HETATM   32  O   UNL     1      15.928   5.497  93.710  1.00  0.00    -0.278 OA
HETATM   33  N   UNL     1      17.017   3.464  93.792  1.00  0.00    -0.271 NA
HETATM   34  H   UNL     1      17.032   2.451  93.775  1.00  0.00     0.127 HD
HETATM   35  H   UNL     1      17.881   3.180  92.722  1.00  0.00     0.127 HD
ENDBRANCH  26  31
ENDBRANCH  24  26
ENDBRANCH  19  22
ENDBRANCH  15  16
ENDBRANCH  11  14
ENDBRANCH   7   8
ENDBRANCH   2   7
TORSDOF 9
ENDMDL
MODEL 6
REMARK VINA RESULT:      -5.5      1.886     12.251
REMARK  9 active torsions:
REMARK  status: ('A' for Active; 'I' for Inactive)
REMARK    1  A    between atoms: O_2  and  C_17 
REMARK    2  A    between atoms: N_5  and  C_10 
REMARK    3  A    between atoms: N_6  and  C_14 
REMARK       I    between atoms: N_6  and  C_23 
REMARK       I    between atoms: N_7  and  C_22 
REMARK    4  A    between atoms: C_10  and  C_13 
REMARK    5  A    between atoms: C_14  and  C_17 
REMARK    6  A    between atoms: C_14  and  C_22 
REMARK    7  A    between atoms: C_20  and  C_25 
REMARK    8  A    between atoms: C_23  and  C_24 
REMARK    9  A    between atoms: C_28  and  C_31 
ROOT
HETATM    1  O   UNL     1       5.674  14.279  88.146  1.00  0.00    -0.388 OA
HETATM    2  N   UNL     1       3.789  12.956  89.819  1.00  0.00     0.096 N 
HETATM    3  C   UNL     1       4.556  14.116  90.294  1.00  0.00     0.299 C 
HETATM    4  C   UNL     1       4.558  12.227  88.800  1.00  0.00     0.299 C 
HETATM    5  C   UNL     1       4.921  15.013  89.114  1.00  0.00     0.198 C 
HETATM    6  C   UNL     1       4.924  13.167  87.656  1.00  0.00     0.198 C 
ENDROOT
BRANCH   2   7
HETATM    7  C   UNL     1       3.437  12.077  90.932  1.00  0.00     0.311 C 
BRANCH   7   8
HETATM    8  C   UNL     1       4.501  11.074  91.223  1.00  0.00    -0.030 A 
HETATM    9  C   UNL     1       5.576  11.417  92.045  1.00  0.00     0.010 A 
HETATM   10  C   UNL     1       6.573  10.480  92.315  1.00  0.00     0.021 A 
HETATM   11  C   UNL     1       6.495   9.201  91.765  1.00  0.00     0.018 A 
HETATM   12  C   UNL     1       5.422   8.858  90.944  1.00  0.00     0.021 A 
HETATM   13  C   UNL     1       4.425   9.794  90.673  1.00  0.00     0.010 A 
BRANCH  11  14
HETATM   14  C   UNL     1       7.517   8.239  92.045  1.00  0.00    -0.061 C 
HETATM   15  C   UNL     1       8.376   7.432  92.279  1.00  0.00    -0.061 C 
BRANCH  15  16
HETATM   16  C   UNL     1       9.398   6.472  92.559  1.00  0.00     0.018 A 
HETATM   17  C   UNL     1       9.912   6.358  93.851  1.00  0.00     0.022 A 
HETATM   18  C   UNL     1      10.907   5.419  94.124  1.00  0.00     0.018 A 
HETATM   19  C   UNL     1      11.365   4.616  93.101  1.00  0.00     0.032 A 
HETATM   20  C   UNL     1      10.874   4.710  91.815  1.00  0.00     0.018 A 
HETATM   21  C   UNL     1       9.879   5.648  91.541  1.00  0.00     0.022 A 
BRANCH  19  22
HETATM   22  C   UNL     1      12.426   3.618  93.392  1.00  0.00     0.252 C 
HETATM   23  O   UNL     1      12.119   2.435  93.516  1.00  0.00    -0.268 OA
HETATM   24  N   UNL     1      13.720   4.114  93.478  1.00  0.00    -0.342 N 
HETATM   25  H   UNL     1      13.901   5.101  93.338  1.00  0.00     0.163 HD
BRANCH  24  26
HETATM   26  C   UNL     1      14.859   3.268  93.730  1.00  0.00     0.199 C 
BRANCH  26  27
HETATM   27  C   UNL     1      15.118   2.267  92.597  1.00  0.00     0.145 C 
HETATM   28  C   UNL     1      14.488   0.905  92.866  1.00  0.00     0.042 C 
BRANCH  27  29
HETATM   29  O   UNL     1      14.597   2.786  91.374  1.00  0.00    -0.393 OA
HETATM   30  H   UNL     1      15.300   3.291  90.932  1.00  0.00     0.210 HD
ENDBRANCH  27  29
ENDBRANCH  26  27
BRANCH  26  31
HETATM   31  C   UNL     1      16.067   4.170  93.960  1.00  0.00     0.220 C 
HETATM   32  O   UNL     1      15.992   5.398  93.980  1.00  0.00    -0.278 OA
HETATM   33  N   UNL     1      17.231   3.454  94.099  1.00  0.00    -0.271 NA
HETATM   34  H   UNL     1      17.342   2.452  93.999  1.00  0.00     0.127 HD
HETATM   35  H   UNL     1      18.300   3.344  93.196  1.00  0.00     0.127 HD
ENDBRANCH  26  31
ENDBRANCH  24  26
ENDBRANCH  19  22
ENDBRANCH  15  16
ENDBRANCH  11  14
ENDBRANCH   7   8
ENDBRANCH   2   7
TORSDOF 9
ENDMDL
MODEL 7
REMARK VINA RESULT:      -5.5      2.269      2.827
REMARK  9 active torsions:
REMARK  status: ('A' for Active; 'I' for Inactive)
REMARK    1  A    between atoms: O_2  and  C_17 
REMARK    2  A    between atoms: N_5  and  C_10 
REMARK    3  A    between atoms: N_6  and  C_14 
REMARK       I    between atoms: N_6  and  C_23 
REMARK       I    between atoms: N_7  and  C_22 
REMARK    4  A    between atoms: C_10  and  C_13 
REMARK    5  A    between atoms: C_14  and  C_17 
REMARK    6  A    between atoms: C_14  and  C_22 
REMARK    7  A    between atoms: C_20  and  C_25 
REMARK    8  A    between atoms: C_23  and  C_24 
REMARK    9  A    between atoms: C_28  and  C_31 
ROOT
HETATM    1  O   UNL     1      16.456   2.619  92.627  1.00  0.00    -0.388 OA
HETATM    2  N   UNL     1      13.677   2.984  93.121  1.00  0.00     0.096 N 
HETATM    3  C   UNL     1      14.524   2.208  94.037  1.00  0.00     0.299 C 
HETATM    4  C   UNL     1      14.211   2.906  91.754  1.00  0.00     0.299 C 
HETATM    5  C   UNL     1      15.963   2.714  93.965  1.00  0.00     0.198 C 
HETATM    6  C   UNL     1      15.656   3.395  91.735  1.00  0.00     0.198 C 
ENDROOT
BRANCH   2   7
HETATM    7  C   UNL     1      12.295   2.508  93.166  1.00  0.00     0.311 C 
BRANCH   7   8
HETATM    8  C   UNL     1      11.309   3.625  93.123  1.00  0.00    -0.030 A 
HETATM    9  C   UNL     1      10.385   3.699  92.080  1.00  0.00     0.010 A 
HETATM   10  C   UNL     1       9.463   4.745  92.037  1.00  0.00     0.021 A 
HETATM   11  C   UNL     1       9.464   5.715  93.039  1.00  0.00     0.018 A 
HETATM   12  C   UNL     1      10.385   5.642  94.081  1.00  0.00     0.021 A 
HETATM   13  C   UNL     1      11.308   4.597  94.124  1.00  0.00     0.010 A 
BRANCH  11  14
HETATM   14  C   UNL     1       8.517   6.786  92.996  1.00  0.00    -0.061 C 
HETATM   15  C   UNL     1       7.720   7.686  92.961  1.00  0.00    -0.061 C 
BRANCH  15  16
HETATM   16  C   UNL     1       6.774   8.757  92.920  1.00  0.00     0.018 A 
HETATM   17  C   UNL     1       7.149   9.998  92.404  1.00  0.00     0.022 A 
HETATM   18  C   UNL     1       6.224  11.042  92.361  1.00  0.00     0.018 A 
HETATM   19  C   UNL     1       4.947  10.821  92.833  1.00  0.00     0.032 A 
HETATM   20  C   UNL     1       4.553   9.604  93.348  1.00  0.00     0.018 A 
HETATM   21  C   UNL     1       5.476   8.560  93.392  1.00  0.00     0.022 A 
BRANCH  19  22
HETATM   22  C   UNL     1       3.964  11.934  92.789  1.00  0.00     0.252 C 
HETATM   23  O   UNL     1       3.090  11.997  93.650  1.00  0.00    -0.268 OA
HETATM   24  N   UNL     1       4.131  12.853  91.762  1.00  0.00    -0.342 N 
HETATM   25  H   UNL     1       4.892  12.751  91.101  1.00  0.00     0.163 HD
BRANCH  24  26
HETATM   26  C   UNL     1       3.274  14.000  91.600  1.00  0.00     0.199 C 
BRANCH  26  27
HETATM   27  C   UNL     1       3.994  15.324  91.883  1.00  0.00     0.145 C 
HETATM   28  C   UNL     1       4.507  15.415  93.316  1.00  0.00     0.042 C 
BRANCH  27  29
HETATM   29  O   UNL     1       5.094  15.470  90.986  1.00  0.00    -0.393 OA
HETATM   30  H   UNL     1       5.859  15.004  91.363  1.00  0.00     0.210 HD
ENDBRANCH  27  29
ENDBRANCH  26  27
BRANCH  26  31
HETATM   31  C   UNL     1       2.713  13.965  90.182  1.00  0.00     0.220 C 
HETATM   32  O   UNL     1       1.590  14.377  89.896  1.00  0.00    -0.278 OA
HETATM   33  N   UNL     1       3.588  13.392  89.292  1.00  0.00    -0.271 NA
HETATM   34  H   UNL     1       4.480  12.963  89.509  1.00  0.00     0.127 HD
HETATM   35  H   UNL     1       3.497  12.140  88.664  1.00  0.00     0.127 HD
ENDBRANCH  26  31
ENDBRANCH  24  26
ENDBRANCH  19  22
ENDBRANCH  15  16
ENDBRANCH  11  14
ENDBRANCH   7   8
ENDBRANCH   2   7
TORSDOF 9
ENDMDL
MODEL 8
REMARK VINA RESULT:      -5.1      2.138     12.346
REMARK  9 active torsions:
REMARK  status: ('A' for Active; 'I' for Inactive)
REMARK    1  A    between atoms: O_2  and  C_17 
REMARK    2  A    between atoms: N_5  and  C_10 
REMARK    3  A    between atoms: N_6  and  C_14 
REMARK       I    between atoms: N_6  and  C_23 
REMARK       I    between atoms: N_7  and  C_22 
REMARK    4  A    between atoms: C_10  and  C_13 
REMARK    5  A    between atoms: C_14  and  C_17 
REMARK    6  A    between atoms: C_14  and  C_22 
REMARK    7  A    between atoms: C_20  and  C_25 
REMARK    8  A    between atoms: C_23  and  C_24 
REMARK    9  A    between atoms: C_28  and  C_31 
ROOT
HETATM    1  O   UNL     1       4.456  13.736  89.005  1.00  0.00    -0.388 OA
HETATM    2  N   UNL     1       3.138  12.686  91.299  1.00  0.00     0.096 N 
HETATM    3  C   UNL     1       4.093  13.797  91.404  1.00  0.00     0.299 C 
HETATM    4  C   UNL     1       3.481  11.834  90.152  1.00  0.00     0.299 C 
HETATM    5  C   UNL     1       4.111  14.589  90.099  1.00  0.00     0.198 C 
HETATM    6  C   UNL     1       3.514  12.670  88.877  1.00  0.00     0.198 C 
ENDROOT
BRANCH   2   7
HETATM    7  C   UNL     1       3.112  11.907  92.536  1.00  0.00     0.311 C 
BRANCH   7   8
HETATM    8  C   UNL     1       4.205  10.896  92.593  1.00  0.00    -0.030 A 
HETATM    9  C   UNL     1       5.452  11.247  93.112  1.00  0.00     0.010 A 
HETATM   10  C   UNL     1       6.477  10.302  93.164  1.00  0.00     0.021 A 
HETATM   11  C   UNL     1       6.254   9.007  92.700  1.00  0.00     0.018 A 
HETATM   12  C   UNL     1       5.009   8.654  92.182  1.00  0.00     0.021 A 
HETATM   13  C   UNL     1       3.984   9.599  92.129  1.00  0.00     0.010 A 
BRANCH  11  14
HETATM   14  C   UNL     1       7.304   8.037  92.755  1.00  0.00    -0.061 C 
HETATM   15  C   UNL     1       8.187   7.222  92.803  1.00  0.00    -0.061 C 
BRANCH  15  16
HETATM   16  C   UNL     1       9.237   6.253  92.859  1.00  0.00     0.018 A 
HETATM   17  C   UNL     1       9.354   5.294  91.852  1.00  0.00     0.022 A 
HETATM   18  C   UNL     1      10.379   4.350  91.906  1.00  0.00     0.018 A 
HETATM   19  C   UNL     1      11.264   4.386  92.963  1.00  0.00     0.032 A 
HETATM   20  C   UNL     1      11.169   5.323  93.971  1.00  0.00     0.018 A 
HETATM   21  C   UNL     1      10.144   6.267  93.918  1.00  0.00     0.022 A 
BRANCH  19  22
HETATM   22  C   UNL     1      12.355   3.379  93.021  1.00  0.00     0.252 C 
HETATM   23  O   UNL     1      12.082   2.190  92.874  1.00  0.00    -0.268 OA
HETATM   24  N   UNL     1      13.635   3.880  93.217  1.00  0.00    -0.342 N 
HETATM   25  H   UNL     1      13.787   4.877  93.305  1.00  0.00     0.163 HD
BRANCH  24  26
HETATM   26  C   UNL     1      14.799   3.032  93.272  1.00  0.00     0.199 C 
BRANCH  26  27
HETATM   27  C   UNL     1      15.137   2.401  91.916  1.00  0.00     0.145 C 
HETATM   28  C   UNL     1      14.814   3.323  90.745  1.00  0.00     0.042 C 
BRANCH  27  29
HETATM   29  O   UNL     1      16.525   2.071  91.876  1.00  0.00    -0.393 OA
HETATM   30  H   UNL     1      16.877   2.335  91.009  1.00  0.00     0.210 HD
ENDBRANCH  27  29
ENDBRANCH  26  27
BRANCH  26  31
HETATM   31  C   UNL     1      15.960   3.869  93.799  1.00  0.00     0.220 C 
HETATM   32  O   UNL     1      17.044   3.385  94.119  1.00  0.00    -0.278 OA
HETATM   33  N   UNL     1      15.634   5.200  93.906  1.00  0.00    -0.271 NA
HETATM   34  H   UNL     1      14.726   5.618  93.738  1.00  0.00     0.127 HD
HETATM   35  H   UNL     1      15.411   5.951  95.071  1.00  0.00     0.127 HD
ENDBRANCH  26  31
ENDBRANCH  24  26
ENDBRANCH  19  22
ENDBRANCH  15  16
ENDBRANCH  11  14
ENDBRANCH   7   8
ENDBRANCH   2   7
TORSDOF 9
ENDMDL
MODEL 9
REMARK VINA RESULT:      -5.1      1.761     12.337
REMARK  9 active torsions:
REMARK  status: ('A' for Active; 'I' for Inactive)
REMARK    1  A    between atoms: O_2  and  C_17 
REMARK    2  A    between atoms: N_5  and  C_10 
REMARK    3  A    between atoms: N_6  and  C_14 
REMARK       I    between atoms: N_6  and  C_23 
REMARK       I    between atoms: N_7  and  C_22 
REMARK    4  A    between atoms: C_10  and  C_13 
REMARK    5  A    between atoms: C_14  and  C_17 
REMARK    6  A    between atoms: C_14  and  C_22 
REMARK    7  A    between atoms: C_20  and  C_25 
REMARK    8  A    between atoms: C_23  and  C_24 
REMARK    9  A    between atoms: C_28  and  C_31 
ROOT
HETATM    1  O   UNL     1       5.232  14.862  88.988  1.00  0.00    -0.388 OA
HETATM    2  N   UNL     1       3.302  12.862  89.602  1.00  0.00     0.096 N 
HETATM    3  C   UNL     1       3.615  13.943  90.547  1.00  0.00     0.299 C 
HETATM    4  C   UNL     1       4.475  12.568  88.768  1.00  0.00     0.299 C 
HETATM    5  C   UNL     1       4.087  15.177  89.782  1.00  0.00     0.198 C 
HETATM    6  C   UNL     1       4.927  13.833  88.046  1.00  0.00     0.198 C 
ENDROOT
BRANCH   2   7
HETATM    7  C   UNL     1       2.858  11.665  90.314  1.00  0.00     0.311 C 
BRANCH   7   8
HETATM    8  C   UNL     1       3.988  10.754  90.655  1.00  0.00    -0.030 A 
HETATM    9  C   UNL     1       4.930  11.140  91.610  1.00  0.00     0.010 A 
HETATM   10  C   UNL     1       5.988  10.290  91.928  1.00  0.00     0.021 A 
HETATM   11  C   UNL     1       6.103   9.053  91.293  1.00  0.00     0.018 A 
HETATM   12  C   UNL     1       5.163   8.667  90.340  1.00  0.00     0.021 A 
HETATM   13  C   UNL     1       4.105   9.517  90.021  1.00  0.00     0.010 A 
BRANCH  11  14
HETATM   14  C   UNL     1       7.188   8.180  91.621  1.00  0.00    -0.061 C 
HETATM   15  C   UNL     1       8.100   7.446  91.897  1.00  0.00    -0.061 C 
BRANCH  15  16
HETATM   16  C   UNL     1       9.184   6.573  92.224  1.00  0.00     0.018 A 
HETATM   17  C   UNL     1      10.110   6.216  91.244  1.00  0.00     0.022 A 
HETATM   18  C   UNL     1      11.169   5.366  91.564  1.00  0.00     0.018 A 
HETATM   19  C   UNL     1      11.278   4.894  92.856  1.00  0.00     0.032 A 
HETATM   20  C   UNL     1      10.375   5.232  93.842  1.00  0.00     0.018 A 
HETATM   21  C   UNL     1       9.316   6.081  93.523  1.00  0.00     0.022 A 
BRANCH  19  22
HETATM   22  C   UNL     1      12.405   3.987  93.196  1.00  0.00     0.252 C 
HETATM   23  O   UNL     1      12.271   3.181  94.113  1.00  0.00    -0.268 OA
HETATM   24  N   UNL     1      13.543   4.112  92.411  1.00  0.00    -0.342 N 
HETATM   25  H   UNL     1      13.573   4.784  91.653  1.00  0.00     0.163 HD
BRANCH  24  26
HETATM   26  C   UNL     1      14.710   3.287  92.601  1.00  0.00     0.199 C 
BRANCH  26  27
HETATM   27  C   UNL     1      15.612   3.788  93.736  1.00  0.00     0.145 C 
HETATM   28  C   UNL     1      17.007   3.175  93.686  1.00  0.00     0.042 C 
BRANCH  27  29
HETATM   29  O   UNL     1      15.728   5.209  93.662  1.00  0.00    -0.393 OA
HETATM   30  H   UNL     1      16.631   5.427  93.376  1.00  0.00     0.210 HD
ENDBRANCH  27  29
ENDBRANCH  26  27
BRANCH  26  31
HETATM   31  C   UNL     1      14.236   1.861  92.858  1.00  0.00     0.220 C 
HETATM   32  O   UNL     1      13.530   1.237  92.067  1.00  0.00    -0.278 OA
HETATM   33  N   UNL     1      14.656   1.386  94.076  1.00  0.00    -0.271 NA
HETATM   34  H   UNL     1      15.160   1.902  94.788  1.00  0.00     0.127 HD
HETATM   35  H   UNL     1      13.893   1.157  95.233  1.00  0.00     0.127 HD
ENDBRANCH  26  31
ENDBRANCH  24  26
ENDBRANCH  19  22
ENDBRANCH  15  16
ENDBRANCH  11  14
ENDBRANCH   7   8
ENDBRANCH   2   7
TORSDOF 9
ENDMDL
