MODEL 1
REMARK VINA RESULT:      -7.1      0.000      0.000
REMARK  10 active torsions:
REMARK  status: ('A' for Active; 'I' for Inactive)
REMARK    1  A    between atoms: O_2  and  C_18 
REMARK    2  A    between atoms: O_5  and  N_8 
REMARK    3  A    between atoms: N_6  and  C_11 
REMARK    4  A    between atoms: N_7  and  C_15 
REMARK       I    between atoms: N_7  and  C_24 
REMARK       I    between atoms: N_8  and  C_23 
REMARK    5  A    between atoms: C_11  and  C_14 
REMARK    6  A    between atoms: C_15  and  C_18 
REMARK    7  A    between atoms: C_15  and  C_23 
REMARK    8  A    between atoms: C_21  and  C_26 
REMARK    9  A    between atoms: C_24  and  C_25 
REMARK   10  A    between atoms: C_29  and  C_32 
ROOT
HETATM    1  O   UNK     0      16.676   4.319  94.113  0.00  0.00    -0.388 OA
HETATM    2  N   UNK     0      14.785   2.663  92.776  0.00  0.00     0.096 N 
HETATM    3  C   UNK     0      14.670   4.128  92.760  0.00  0.00     0.299 C 
HETATM    4  C   UNK     0      15.455   2.224  94.007  0.00  0.00     0.299 C 
HETATM    5  C   UNK     0      16.053   4.757  92.903  0.00  0.00     0.198 C 
HETATM    6  C   UNK     0      16.820   2.898  94.123  0.00  0.00     0.198 C 
ENDROOT
BRANCH   2   7
HETATM    7  C   UNK     0      13.469   2.039  92.650  0.00  0.00     0.311 C 
BRANCH   7   8
HETATM    8  C   UNK     0      12.396   3.031  92.356  0.00  0.00    -0.030 A 
HETATM    9  C   UNK     0      11.854   3.110  91.072  0.00  0.00     0.010 A 
HETATM   10  C   UNK     0      10.851   4.039  90.795  0.00  0.00     0.021 A 
HETATM   11  C   UNK     0      10.390   4.887  91.802  0.00  0.00     0.018 A 
HETATM   12  C   UNK     0      10.930   4.808  93.084  0.00  0.00     0.021 A 
HETATM   13  C   UNK     0      11.933   3.879  93.361  0.00  0.00     0.010 A 
BRANCH  11  14
HETATM   14  C   UNK     0       9.360   5.838  91.518  0.00  0.00    -0.061 C 
HETATM   15  C   UNK     0       8.494   6.638  91.279  0.00  0.00    -0.061 C 
BRANCH  15  16
HETATM   16  C   UNK     0       7.466   7.589  90.997  0.00  0.00     0.018 A 
HETATM   17  C   UNK     0       7.801   8.914  90.714  0.00  0.00     0.022 A 
HETATM   18  C   UNK     0       6.798   9.842  90.436  0.00  0.00     0.018 A 
HETATM   19  C   UNK     0       5.483   9.426  90.446  0.00  0.00     0.032 A 
HETATM   20  C   UNK     0       5.125   8.123  90.724  0.00  0.00     0.018 A 
HETATM   21  C   UNK     0       6.128   7.195  91.002  0.00  0.00     0.022 A 
BRANCH  19  22
HETATM   22  C   UNK     0       4.415  10.416  90.152  0.00  0.00     0.252 C 
HETATM   23  O   UNK     0       3.294  10.016  89.846  0.00  0.00    -0.268 OA
HETATM   24  N   UNK     0       4.772  11.751  90.275  0.00  0.00    -0.341 N 
HETATM   25  H   UNK     0       5.712  12.007  90.557  0.00  0.00     0.163 HD
BRANCH  24  26
HETATM   26  C   UNK     0       3.842  12.828  90.047  0.00  0.00     0.207 C 
BRANCH  26  27
HETATM   27  C   UNK     0       3.618  13.692  91.293  0.00  0.00     0.146 C 
HETATM   28  C   UNK     0       2.140  13.943  91.572  0.00  0.00     0.042 C 
BRANCH  27  29
HETATM   29  O   UNK     0       4.202  13.054  92.429  0.00  0.00    -0.393 OA
HETATM   30  H   UNK     0       4.579  12.206  92.141  0.00  0.00     0.210 HD
ENDBRANCH  27  29
ENDBRANCH  26  27
BRANCH  26  31
HETATM   31  C   UNK     0       4.369  13.660  88.882  0.00  0.00     0.266 C 
HETATM   32  O   UNK     0       4.709  14.835  88.999  0.00  0.00    -0.269 OA
HETATM   33  N   UNK     0       4.376  12.955  87.702  0.00  0.00    -0.236 N 
HETATM   34  H   UNK     0       4.021  12.018  87.553  0.00  0.00     0.197 HD
BRANCH  33  35
HETATM   35  O   UNK     0       4.812  13.662  86.572  0.00  0.00    -0.287 OA
HETATM   36  H   UNK     0       4.015  14.183  86.375  0.00  0.00     0.244 HD
ENDBRANCH  33  35
ENDBRANCH  26  31
ENDBRANCH  24  26
ENDBRANCH  19  22
ENDBRANCH  15  16
ENDBRANCH  11  14
ENDBRANCH   7   8
ENDBRANCH   2   7
TORSDOF 10
ENDMDL
MODEL 2
REMARK VINA RESULT:      -6.5      1.228      1.829
REMARK  10 active torsions:
REMARK  status: ('A' for Active; 'I' for Inactive)
REMARK    1  A    between atoms: O_2  and  C_18 
REMARK    2  A    between atoms: O_5  and  N_8 
REMARK    3  A    between atoms: N_6  and  C_11 
REMARK    4  A    between atoms: N_7  and  C_15 
REMARK       I    between atoms: N_7  and  C_24 
REMARK       I    between atoms: N_8  and  C_23 
REMARK    5  A    between atoms: C_11  and  C_14 
REMARK    6  A    between atoms: C_15  and  C_18 
REMARK    7  A    between atoms: C_15  and  C_23 
REMARK    8  A    between atoms: C_21  and  C_26 
REMARK    9  A    between atoms: C_24  and  C_25 
REMARK   10  A    between atoms: C_29  and  C_32 
ROOT
HETATM    1  O   UNK     0      16.874   3.806  93.790  0.00  0.00    -0.388 OA
HETATM    2  N   UNK     0      14.259   3.009  92.999  0.00  0.00     0.096 N 
HETATM    3  C   UNK     0      15.364   2.043  93.083  0.00  0.00     0.299 C 
HETATM    4  C   UNK     0      14.782   4.346  92.687  0.00  0.00     0.299 C 
HETATM    5  C   UNK     0      16.378   2.508  94.124  0.00  0.00     0.198 C 
HETATM    6  C   UNK     0      15.810   4.757  93.737  0.00  0.00     0.198 C 
ENDROOT
BRANCH   2   7
HETATM    7  C   UNK     0      13.279   2.589  91.998  0.00  0.00     0.311 C 
BRANCH   7   8
HETATM    8  C   UNK     0      12.150   3.554  91.869  0.00  0.00    -0.030 A 
HETATM    9  C   UNK     0      11.417   3.924  92.997  0.00  0.00     0.010 A 
HETATM   10  C   UNK     0      10.359   4.825  92.877  0.00  0.00     0.021 A 
HETATM   11  C   UNK     0      10.037   5.357  91.629  0.00  0.00     0.018 A 
HETATM   12  C   UNK     0      10.768   4.989  90.502  0.00  0.00     0.021 A 
HETATM   13  C   UNK     0      11.826   4.087  90.621  0.00  0.00     0.010 A 
BRANCH  11  14
HETATM   14  C   UNK     0       8.953   6.283  91.506  0.00  0.00    -0.061 C 
HETATM   15  C   UNK     0       8.042   7.061  91.402  0.00  0.00    -0.061 C 
BRANCH  15  16
HETATM   16  C   UNK     0       6.961   7.987  91.279  0.00  0.00     0.018 A 
HETATM   17  C   UNK     0       7.031   9.228  91.913  0.00  0.00     0.022 A 
HETATM   18  C   UNK     0       5.976  10.133  91.791  0.00  0.00     0.018 A 
HETATM   19  C   UNK     0       4.876   9.778  91.039  0.00  0.00     0.032 A 
HETATM   20  C   UNK     0       4.783   8.557  90.403  0.00  0.00     0.018 A 
HETATM   21  C   UNK     0       5.837   7.652  90.525  0.00  0.00     0.022 A 
BRANCH  19  22
HETATM   22  C   UNK     0       3.753  10.741  90.911  0.00  0.00     0.252 C 
HETATM   23  O   UNK     0       2.755  10.418  90.271  0.00  0.00    -0.268 OA
HETATM   24  N   UNK     0       3.915  11.955  91.564  0.00  0.00    -0.341 N 
HETATM   25  H   UNK     0       4.757  12.143  92.095  0.00  0.00     0.163 HD
BRANCH  24  26
HETATM   26  C   UNK     0       2.905  12.982  91.554  0.00  0.00     0.207 C 
BRANCH  26  27
HETATM   27  C   UNK     0       2.787  13.712  92.898  0.00  0.00     0.146 C 
HETATM   28  C   UNK     0       2.895  12.765  94.088  0.00  0.00     0.042 C 
BRANCH  27  29
HETATM   29  O   UNK     0       3.813  14.699  92.996  0.00  0.00    -0.393 OA
HETATM   30  H   UNK     0       4.110  14.921  92.098  0.00  0.00     0.210 HD
ENDBRANCH  27  29
ENDBRANCH  26  27
BRANCH  26  31
HETATM   31  C   UNK     0       3.237  13.952  90.424  0.00  0.00     0.266 C 
HETATM   32  O   UNK     0       2.385  14.419  89.671  0.00  0.00    -0.269 OA
HETATM   33  N   UNK     0       4.585  14.199  90.332  0.00  0.00    -0.236 N 
HETATM   34  H   UNK     0       5.321  13.764  90.877  0.00  0.00     0.197 HD
BRANCH  33  35
HETATM   35  O   UNK     0       4.979  15.053  89.292  0.00  0.00    -0.287 OA
HETATM   36  H   UNK     0       4.534  14.628  88.539  0.00  0.00     0.244 HD
ENDBRANCH  33  35
ENDBRANCH  26  31
ENDBRANCH  24  26
ENDBRANCH  19  22
ENDBRANCH  15  16
ENDBRANCH  11  14
ENDBRANCH   7   8
ENDBRANCH   2   7
TORSDOF 10
ENDMDL
MODEL 3
REMARK VINA RESULT:      -6.2      1.317      2.258
REMARK  10 active torsions:
REMARK  status: ('A' for Active; 'I' for Inactive)
REMARK    1  A    between atoms: O_2  and  C_18 
REMARK    2  A    between atoms: O_5  and  N_8 
REMARK    3  A    between atoms: N_6  and  C_11 
REMARK    4  A    between atoms: N_7  and  C_15 
REMARK       I    between atoms: N_7  and  C_24 
REMARK       I    between atoms: N_8  and  C_23 
REMARK    5  A    between atoms: C_11  and  C_14 
REMARK    6  A    between atoms: C_15  and  C_18 
REMARK    7  A    between atoms: C_15  and  C_23 
REMARK    8  A    between atoms: C_21  and  C_26 
REMARK    9  A    between atoms: C_24  and  C_25 
REMARK   10  A    between atoms: C_29  and  C_32 
ROOT
HETATM    1  O   UNK     0      16.272   4.288  94.013  0.00  0.00    -0.388 OA
HETATM    2  N   UNK     0      14.457   2.722  92.478  0.00  0.00     0.096 N 
HETATM    3  C   UNK     0      14.480   4.188  92.380  0.00  0.00     0.299 C 
HETATM    4  C   UNK     0      14.895   2.300  93.815  0.00  0.00     0.299 C 
HETATM    5  C   UNK     0      15.878   4.707  92.705  0.00  0.00     0.198 C 
HETATM    6  C   UNK     0      16.283   2.863  94.107  0.00  0.00     0.198 C 
ENDROOT
BRANCH   2   7
HETATM    7  C   UNK     0      13.123   2.204  92.180  0.00  0.00     0.311 C 
BRANCH   7   8
HETATM    8  C   UNK     0      12.119   3.291  91.999  0.00  0.00    -0.030 A 
HETATM    9  C   UNK     0      11.758   3.698  90.714  0.00  0.00     0.010 A 
HETATM   10  C   UNK     0      10.820   4.716  90.543  0.00  0.00     0.021 A 
HETATM   11  C   UNK     0      10.243   5.325  91.656  0.00  0.00     0.018 A 
HETATM   12  C   UNK     0      10.603   4.920  92.940  0.00  0.00     0.021 A 
HETATM   13  C   UNK     0      11.541   3.902  93.111  0.00  0.00     0.010 A 
BRANCH  11  14
HETATM   14  C   UNK     0       9.280   6.369  91.480  0.00  0.00    -0.061 C 
HETATM   15  C   UNK     0       8.470   7.245  91.333  0.00  0.00    -0.061 C 
BRANCH  15  16
HETATM   16  C   UNK     0       7.507   8.286  91.157  0.00  0.00     0.018 A 
HETATM   17  C   UNK     0       7.613   9.465  91.896  0.00  0.00     0.022 A 
HETATM   18  C   UNK     0       6.675  10.482  91.723  0.00  0.00     0.018 A 
HETATM   19  C   UNK     0       5.651  10.299  90.816  0.00  0.00     0.032 A 
HETATM   20  C   UNK     0       5.524   9.143  90.075  0.00  0.00     0.018 A 
HETATM   21  C   UNK     0       6.462   8.125  90.248  0.00  0.00     0.022 A 
BRANCH  19  22
HETATM   22  C   UNK     0       4.651  11.382  90.634  0.00  0.00     0.252 C 
HETATM   23  O   UNK     0       3.658  11.171  89.942  0.00  0.00    -0.268 OA
HETATM   24  N   UNK     0       4.913  12.571  91.300  0.00  0.00    -0.341 N 
HETATM   25  H   UNK     0       5.742  12.664  91.876  0.00  0.00     0.163 HD
BRANCH  24  26
HETATM   26  C   UNK     0       4.026  13.705  91.242  0.00  0.00     0.207 C 
BRANCH  26  27
HETATM   27  C   UNK     0       3.912  14.297  89.832  0.00  0.00     0.146 C 
HETATM   28  C   UNK     0       5.216  14.195  89.048  0.00  0.00     0.042 C 
BRANCH  27  29
HETATM   29  O   UNK     0       2.884  13.619  89.111  0.00  0.00    -0.393 OA
HETATM   30  H   UNK     0       2.043  13.752  89.581  0.00  0.00     0.210 HD
ENDBRANCH  27  29
ENDBRANCH  26  27
BRANCH  26  31
HETATM   31  C   UNK     0       2.666  13.259  91.768  0.00  0.00     0.266 C 
HETATM   32  O   UNK     0       1.625  13.871  91.535  0.00  0.00    -0.269 OA
HETATM   33  N   UNK     0       2.755  12.133  92.551  0.00  0.00    -0.236 N 
HETATM   34  H   UNK     0       3.603  11.658  92.835  0.00  0.00     0.197 HD
BRANCH  33  35
HETATM   35  O   UNK     0       1.550  11.679  93.106  0.00  0.00    -0.287 OA
HETATM   36  H   UNK     0       1.827  10.807  93.434  0.00  0.00     0.244 HD
ENDBRANCH  33  35
ENDBRANCH  26  31
ENDBRANCH  24  26
ENDBRANCH  19  22
ENDBRANCH  15  16
ENDBRANCH  11  14
ENDBRANCH   7   8
ENDBRANCH   2   7
TORSDOF 10
ENDMDL
MODEL 4
REMARK VINA RESULT:      -5.8      1.766      2.849
REMARK  10 active torsions:
REMARK  status: ('A' for Active; 'I' for Inactive)
REMARK    1  A    between atoms: O_2  and  C_18 
REMARK    2  A    between atoms: O_5  and  N_8 
REMARK    3  A    between atoms: N_6  and  C_11 
REMARK    4  A    between atoms: N_7  and  C_15 
REMARK       I    between atoms: N_7  and  C_24 
REMARK       I    between atoms: N_8  and  C_23 
REMARK    5  A    between atoms: C_11  and  C_14 
REMARK    6  A    between atoms: C_15  and  C_18 
REMARK    7  A    between atoms: C_15  and  C_23 
REMARK    8  A    between atoms: C_21  and  C_26 
REMARK    9  A    between atoms: C_24  and  C_25 
REMARK   10  A    between atoms: C_29  and  C_32 
ROOT
HETATM    1  O   UNK     0      17.188   4.086  93.437  0.00  0.00    -0.388 OA
HETATM    2  N   UNK     0      14.621   2.869  93.614  0.00  0.00     0.096 N 
HETATM    3  C   UNK     0      15.741   2.204  92.932  0.00  0.00     0.299 C 
HETATM    4  C   UNK     0      14.776   4.327  93.532  0.00  0.00     0.299 C 
HETATM    5  C   UNK     0      17.063   2.666  93.540  0.00  0.00     0.198 C 
HETATM    6  C   UNK     0      16.121   4.740  94.124  0.00  0.00     0.198 C 
ENDROOT
BRANCH   2   7
HETATM    7  C   UNK     0      13.344   2.449  93.041  0.00  0.00     0.311 C 
BRANCH   7   8
HETATM    8  C   UNK     0      12.362   3.569  92.960  0.00  0.00    -0.030 A 
HETATM    9  C   UNK     0      12.066   4.147  91.725  0.00  0.00     0.010 A 
HETATM   10  C   UNK     0      11.150   5.196  91.648  0.00  0.00     0.021 A 
HETATM   11  C   UNK     0      10.529   5.664  92.806  0.00  0.00     0.018 A 
HETATM   12  C   UNK     0      10.824   5.087  94.039  0.00  0.00     0.021 A 
HETATM   13  C   UNK     0      11.741   4.039  94.117  0.00  0.00     0.010 A 
BRANCH  11  14
HETATM   14  C   UNK     0       9.588   6.739  92.726  0.00  0.00    -0.061 C 
HETATM   15  C   UNK     0       8.797   7.642  92.659  0.00  0.00    -0.061 C 
BRANCH  15  16
HETATM   16  C   UNK     0       7.857   8.715  92.581  0.00  0.00     0.018 A 
HETATM   17  C   UNK     0       6.982   8.797  91.497  0.00  0.00     0.022 A 
HETATM   18  C   UNK     0       6.064   9.844  91.421  0.00  0.00     0.018 A 
HETATM   19  C   UNK     0       6.040  10.785  92.429  0.00  0.00     0.032 A 
HETATM   20  C   UNK     0       6.894  10.727  93.510  0.00  0.00     0.018 A 
HETATM   21  C   UNK     0       7.813   9.680  93.587  0.00  0.00     0.022 A 
BRANCH  19  22
HETATM   22  C   UNK     0       5.062  11.901  92.347  0.00  0.00     0.252 C 
HETATM   23  O   UNK     0       4.466  12.253  93.362  0.00  0.00    -0.268 OA
HETATM   24  N   UNK     0       4.915  12.489  91.098  0.00  0.00    -0.341 N 
HETATM   25  H   UNK     0       5.460  12.162  90.309  0.00  0.00     0.163 HD
BRANCH  24  26
HETATM   26  C   UNK     0       4.025  13.598  90.863  0.00  0.00     0.207 C 
BRANCH  26  27
HETATM   27  C   UNK     0       3.806  13.877  89.371  0.00  0.00     0.146 C 
HETATM   28  C   UNK     0       5.063  14.403  88.685  0.00  0.00     0.042 C 
BRANCH  27  29
HETATM   29  O   UNK     0       3.388  12.680  88.717  0.00  0.00    -0.393 OA
HETATM   30  H   UNK     0       4.039  12.467  88.026  0.00  0.00     0.210 HD
ENDBRANCH  27  29
ENDBRANCH  26  27
BRANCH  26  31
HETATM   31  C   UNK     0       2.707  13.294  91.569  0.00  0.00     0.266 C 
HETATM   32  O   UNK     0       1.993  12.338  91.272  0.00  0.00    -0.269 OA
HETATM   33  N   UNK     0       2.407  14.228  92.531  0.00  0.00    -0.236 N 
HETATM   34  H   UNK     0       2.925  15.073  92.739  0.00  0.00     0.197 HD
BRANCH  33  35
HETATM   35  O   UNK     0       1.190  14.042  93.202  0.00  0.00    -0.287 OA
HETATM   36  H   UNK     0       1.331  13.157  93.579  0.00  0.00     0.244 HD
ENDBRANCH  33  35
ENDBRANCH  26  31
ENDBRANCH  24  26
ENDBRANCH  19  22
ENDBRANCH  15  16
ENDBRANCH  11  14
ENDBRANCH   7   8
ENDBRANCH   2   7
TORSDOF 10
ENDMDL
MODEL 5
REMARK VINA RESULT:      -5.3      2.625     12.431
REMARK  10 active torsions:
REMARK  status: ('A' for Active; 'I' for Inactive)
REMARK    1  A    between atoms: O_2  and  C_18 
REMARK    2  A    between atoms: O_5  and  N_8 
REMARK    3  A    between atoms: N_6  and  C_11 
REMARK    4  A    between atoms: N_7  and  C_15 
REMARK       I    between atoms: N_7  and  C_24 
REMARK       I    between atoms: N_8  and  C_23 
REMARK    5  A    between atoms: C_11  and  C_14 
REMARK    6  A    between atoms: C_15  and  C_18 
REMARK    7  A    between atoms: C_15  and  C_23 
REMARK    8  A    between atoms: C_21  and  C_26 
REMARK    9  A    between atoms: C_24  and  C_25 
REMARK   10  A    between atoms: C_29  and  C_32 
ROOT
HETATM    1  O   UNK     0       2.873  15.015  93.952  0.00  0.00    -0.388 OA
HETATM    2  N   UNK     0       2.676  14.566  91.148  0.00  0.00     0.096 N 
HETATM    3  C   UNK     0       1.707  13.987  92.089  0.00  0.00     0.299 C 
HETATM    4  C   UNK     0       3.976  14.739  91.809  0.00  0.00     0.299 C 
HETATM    5  C   UNK     0       1.596  14.872  93.328  0.00  0.00     0.198 C 
HETATM    6  C   UNK     0       3.813  15.606  93.054  0.00  0.00     0.198 C 
ENDROOT
BRANCH   2   7
HETATM    7  C   UNK     0       2.806  13.728  89.958  0.00  0.00     0.311 C 
BRANCH   7   8
HETATM    8  C   UNK     0       3.818  12.647  90.131  0.00  0.00    -0.030 A 
HETATM    9  C   UNK     0       5.029  12.710  89.440  0.00  0.00     0.010 A 
HETATM   10  C   UNK     0       5.976  11.699  89.599  0.00  0.00     0.021 A 
HETATM   11  C   UNK     0       5.713  10.627  90.451  0.00  0.00     0.018 A 
HETATM   12  C   UNK     0       4.505  10.563  91.142  0.00  0.00     0.021 A 
HETATM   13  C   UNK     0       3.557  11.574  90.982  0.00  0.00     0.010 A 
BRANCH  11  14
HETATM   14  C   UNK     0       6.686   9.591  90.617  0.00  0.00    -0.061 C 
HETATM   15  C   UNK     0       7.504   8.721  90.756  0.00  0.00    -0.061 C 
BRANCH  15  16
HETATM   16  C   UNK     0       8.476   7.687  90.920  0.00  0.00     0.018 A 
HETATM   17  C   UNK     0       8.729   7.163  92.189  0.00  0.00     0.022 A 
HETATM   18  C   UNK     0       9.676   6.152  92.350  0.00  0.00     0.018 A 
HETATM   19  C   UNK     0      10.350   5.687  91.239  0.00  0.00     0.032 A 
HETATM   20  C   UNK     0      10.120   6.188  89.975  0.00  0.00     0.018 A 
HETATM   21  C   UNK     0       9.172   7.200  89.814  0.00  0.00     0.022 A 
BRANCH  19  22
HETATM   22  C   UNK     0      11.361   4.612  91.411  0.00  0.00     0.252 C 
HETATM   23  O   UNK     0      11.630   3.884  90.459  0.00  0.00    -0.268 OA
HETATM   24  N   UNK     0      11.954   4.530  92.664  0.00  0.00    -0.341 N 
HETATM   25  H   UNK     0      11.699   5.182  93.396  0.00  0.00     0.163 HD
BRANCH  24  26
HETATM   26  C   UNK     0      12.969   3.556  92.979  0.00  0.00     0.207 C 
BRANCH  26  27
HETATM   27  C   UNK     0      12.822   2.262  92.168  0.00  0.00     0.146 C 
HETATM   28  C   UNK     0      13.900   1.238  92.503  0.00  0.00     0.042 C 
BRANCH  27  29
HETATM   29  O   UNK     0      11.541   1.685  92.419  0.00  0.00    -0.393 OA
HETATM   30  H   UNK     0      11.245   1.235  91.610  0.00  0.00     0.210 HD
ENDBRANCH  27  29
ENDBRANCH  26  27
BRANCH  26  31
HETATM   31  C   UNK     0      14.328   4.207  92.742  0.00  0.00     0.266 C 
HETATM   32  O   UNK     0      14.703   4.592  91.636  0.00  0.00    -0.269 OA
HETATM   33  N   UNK     0      15.079   4.272  93.891  0.00  0.00    -0.236 N 
HETATM   34  H   UNK     0      14.838   3.885  94.796  0.00  0.00     0.197 HD
BRANCH  33  35
HETATM   35  O   UNK     0      16.360   4.823  93.751  0.00  0.00    -0.287 OA
HETATM   36  H   UNK     0      16.448   4.819  92.783  0.00  0.00     0.244 HD
ENDBRANCH  33  35
ENDBRANCH  26  31
ENDBRANCH  24  26
ENDBRANCH  19  22
ENDBRANCH  15  16
ENDBRANCH  11  14
ENDBRANCH   7   8
ENDBRANCH   2   7
TORSDOF 10
ENDMDL
MODEL 6
REMARK VINA RESULT:      -5.3      2.009     12.547
REMARK  10 active torsions:
REMARK  status: ('A' for Active; 'I' for Inactive)
REMARK    1  A    between atoms: O_2  and  C_18 
REMARK    2  A    between atoms: O_5  and  N_8 
REMARK    3  A    between atoms: N_6  and  C_11 
REMARK    4  A    between atoms: N_7  and  C_15 
REMARK       I    between atoms: N_7  and  C_24 
REMARK       I    between atoms: N_8  and  C_23 
REMARK    5  A    between atoms: C_11  and  C_14 
REMARK    6  A    between atoms: C_15  and  C_18 
REMARK    7  A    between atoms: C_15  and  C_23 
REMARK    8  A    between atoms: C_21  and  C_26 
REMARK    9  A    between atoms: C_24  and  C_25 
REMARK   10  A    between atoms: C_29  and  C_32 
ROOT
HETATM    1  O   UNK     0       3.237  14.475  92.062  0.00  0.00    -0.388 OA
HETATM    2  N   UNK     0       4.002  14.064  89.351  0.00  0.00     0.096 N 
HETATM    3  C   UNK     0       2.989  13.220  90.000  0.00  0.00     0.299 C 
HETATM    4  C   UNK     0       4.955  14.564  90.350  0.00  0.00     0.299 C 
HETATM    5  C   UNK     0       2.287  14.010  91.102  0.00  0.00     0.198 C 
HETATM    6  C   UNK     0       4.208  15.322  91.445  0.00  0.00     0.198 C 
ENDROOT
BRANCH   2   7
HETATM    7  C   UNK     0       4.694  13.324  88.298  0.00  0.00     0.311 C 
BRANCH   7   8
HETATM    8  C   UNK     0       5.522  12.208  88.838  0.00  0.00    -0.030 A 
HETATM    9  C   UNK     0       6.914  12.307  88.831  0.00  0.00     0.010 A 
HETATM   10  C   UNK     0       7.690  11.262  89.334  0.00  0.00     0.021 A 
HETATM   11  C   UNK     0       7.073  10.121  89.845  0.00  0.00     0.018 A 
HETATM   12  C   UNK     0       5.683  10.021  89.853  0.00  0.00     0.021 A 
HETATM   13  C   UNK     0       4.907  11.065  89.349  0.00  0.00     0.010 A 
BRANCH  11  14
HETATM   14  C   UNK     0       7.868   9.051  90.363  0.00  0.00    -0.061 C 
HETATM   15  C   UNK     0       8.537   8.151  90.799  0.00  0.00    -0.061 C 
BRANCH  15  16
HETATM   16  C   UNK     0       9.331   7.083  91.317  0.00  0.00     0.018 A 
HETATM   17  C   UNK     0       9.490   6.938  92.696  0.00  0.00     0.022 A 
HETATM   18  C   UNK     0      10.264   5.894  93.203  0.00  0.00     0.018 A 
HETATM   19  C   UNK     0      10.862   5.018  92.321  0.00  0.00     0.032 A 
HETATM   20  C   UNK     0      10.721   5.140  90.954  0.00  0.00     0.018 A 
HETATM   21  C   UNK     0       9.948   6.184  90.447  0.00  0.00     0.022 A 
BRANCH  19  22
HETATM   22  C   UNK     0      11.688   3.908  92.861  0.00  0.00     0.252 C 
HETATM   23  O   UNK     0      11.161   2.820  93.080  0.00  0.00    -0.268 OA
HETATM   24  N   UNK     0      13.032   4.190  93.057  0.00  0.00    -0.341 N 
HETATM   25  H   UNK     0      13.403   5.106  92.830  0.00  0.00     0.163 HD
BRANCH  24  26
HETATM   26  C   UNK     0      13.966   3.211  93.552  0.00  0.00     0.207 C 
BRANCH  26  27
HETATM   27  C   UNK     0      14.119   2.008  92.612  0.00  0.00     0.146 C 
HETATM   28  C   UNK     0      14.962   2.332  91.383  0.00  0.00     0.042 C 
BRANCH  27  29
HETATM   29  O   UNK     0      14.725   0.925  93.316  0.00  0.00    -0.393 OA
HETATM   30  H   UNK     0      14.123   0.163  93.279  0.00  0.00     0.210 HD
ENDBRANCH  27  29
ENDBRANCH  26  27
BRANCH  26  31
HETATM   31  C   UNK     0      15.302   3.912  93.776  0.00  0.00     0.266 C 
HETATM   32  O   UNK     0      15.424   5.136  93.779  0.00  0.00    -0.269 OA
HETATM   33  N   UNK     0      16.336   3.022  93.933  0.00  0.00    -0.236 N 
HETATM   34  H   UNK     0      16.287   2.013  93.848  0.00  0.00     0.197 HD
BRANCH  33  35
HETATM   35  O   UNK     0      17.607   3.587  94.107  0.00  0.00    -0.287 OA
HETATM   36  H   UNK     0      17.373   4.529  94.162  0.00  0.00     0.244 HD
ENDBRANCH  33  35
ENDBRANCH  26  31
ENDBRANCH  24  26
ENDBRANCH  19  22
ENDBRANCH  15  16
ENDBRANCH  11  14
ENDBRANCH   7   8
ENDBRANCH   2   7
TORSDOF 10
ENDMDL
MODEL 7
REMARK VINA RESULT:      -5.2      1.959      2.379
REMARK  10 active torsions:
REMARK  status: ('A' for Active; 'I' for Inactive)
REMARK    1  A    between atoms: O_2  and  C_18 
REMARK    2  A    between atoms: O_5  and  N_8 
REMARK    3  A    between atoms: N_6  and  C_11 
REMARK    4  A    between atoms: N_7  and  C_15 
REMARK       I    between atoms: N_7  and  C_24 
REMARK       I    between atoms: N_8  and  C_23 
REMARK    5  A    between atoms: C_11  and  C_14 
REMARK    6  A    between atoms: C_15  and  C_18 
REMARK    7  A    between atoms: C_15  and  C_23 
REMARK    8  A    between atoms: C_21  and  C_26 
REMARK    9  A    between atoms: C_24  and  C_25 
REMARK   10  A    between atoms: C_29  and  C_32 
ROOT
HETATM    1  O   UNK     0      16.747   2.555  92.880  0.00  0.00    -0.388 OA
HETATM    2  N   UNK     0      13.921   2.893  92.922  0.00  0.00     0.096 N 
HETATM    3  C   UNK     0      14.618   2.123  93.962  0.00  0.00     0.299 C 
HETATM    4  C   UNK     0      14.667   2.823  91.659  0.00  0.00     0.299 C 
HETATM    5  C   UNK     0      16.045   2.643  94.121  0.00  0.00     0.198 C 
HETATM    6  C   UNK     0      16.093   3.326  91.872  0.00  0.00     0.198 C 
ENDROOT
BRANCH   2   7
HETATM    7  C   UNK     0      12.554   2.405  92.745  0.00  0.00     0.311 C 
BRANCH   7   8
HETATM    8  C   UNK     0      11.549   3.505  92.789  0.00  0.00    -0.030 A 
HETATM    9  C   UNK     0      10.580   3.602  91.789  0.00  0.00     0.010 A 
HETATM   10  C   UNK     0       9.640   4.632  91.827  0.00  0.00     0.021 A 
HETATM   11  C   UNK     0       9.668   5.562  92.866  0.00  0.00     0.018 A 
HETATM   12  C   UNK     0      10.634   5.465  93.865  0.00  0.00     0.021 A 
HETATM   13  C   UNK     0      11.575   4.436  93.827  0.00  0.00     0.010 A 
BRANCH  11  14
HETATM   14  C   UNK     0       8.702   6.617  92.906  0.00  0.00    -0.061 C 
HETATM   15  C   UNK     0       7.890   7.503  92.941  0.00  0.00    -0.061 C 
BRANCH  15  16
HETATM   16  C   UNK     0       6.925   8.555  92.981  0.00  0.00     0.018 A 
HETATM   17  C   UNK     0       7.122   9.651  93.823  0.00  0.00     0.022 A 
HETATM   18  C   UNK     0       6.181  10.679  93.861  0.00  0.00     0.018 A 
HETATM   19  C   UNK     0       5.064  10.591  93.056  0.00  0.00     0.032 A 
HETATM   20  C   UNK     0       4.845   9.520  92.215  0.00  0.00     0.018 A 
HETATM   21  C   UNK     0       5.786   8.491  92.178  0.00  0.00     0.022 A 
BRANCH  19  22
HETATM   22  C   UNK     0       4.061  11.686  93.098  0.00  0.00     0.252 C 
HETATM   23  O   UNK     0       3.153  11.637  93.925  0.00  0.00    -0.268 OA
HETATM   24  N   UNK     0       4.250  12.719  92.190  0.00  0.00    -0.341 N 
HETATM   25  H   UNK     0       5.038  12.704  91.553  0.00  0.00     0.163 HD
BRANCH  24  26
HETATM   26  C   UNK     0       3.376  13.863  92.124  0.00  0.00     0.207 C 
BRANCH  26  27
HETATM   27  C   UNK     0       3.717  14.931  93.171  0.00  0.00     0.146 C 
HETATM   28  C   UNK     0       2.491  15.403  93.945  0.00  0.00     0.042 C 
BRANCH  27  29
HETATM   29  O   UNK     0       4.674  14.409  94.092  0.00  0.00    -0.393 OA
HETATM   30  H   UNK     0       4.354  14.580  94.993  0.00  0.00     0.210 HD
ENDBRANCH  27  29
ENDBRANCH  26  27
BRANCH  26  31
HETATM   31  C   UNK     0       3.454  14.428  90.709  0.00  0.00     0.266 C 
HETATM   32  O   UNK     0       2.506  14.406  89.927  0.00  0.00    -0.269 OA
HETATM   33  N   UNK     0       4.703  14.917  90.414  0.00  0.00    -0.236 N 
HETATM   34  H   UNK     0       5.528  14.870  91.001  0.00  0.00     0.197 HD
BRANCH  33  35
HETATM   35  O   UNK     0       4.870  15.421  89.116  0.00  0.00    -0.287 OA
HETATM   36  H   UNK     0       4.559  16.334  89.243  0.00  0.00     0.244 HD
ENDBRANCH  33  35
ENDBRANCH  26  31
ENDBRANCH  24  26
ENDBRANCH  19  22
ENDBRANCH  15  16
ENDBRANCH  11  14
ENDBRANCH   7   8
ENDBRANCH   2   7
TORSDOF 10
ENDMDL
MODEL 8
REMARK VINA RESULT:      -4.9      2.057     12.524
REMARK  10 active torsions:
REMARK  status: ('A' for Active; 'I' for Inactive)
REMARK    1  A    between atoms: O_2  and  C_18 
REMARK    2  A    between atoms: O_5  and  N_8 
REMARK    3  A    between atoms: N_6  and  C_11 
REMARK    4  A    between atoms: N_7  and  C_15 
REMARK       I    between atoms: N_7  and  C_24 
REMARK       I    between atoms: N_8  and  C_23 
REMARK    5  A    between atoms: C_11  and  C_14 
REMARK    6  A    between atoms: C_15  and  C_18 
REMARK    7  A    between atoms: C_15  and  C_23 
REMARK    8  A    between atoms: C_21  and  C_26 
REMARK    9  A    between atoms: C_24  and  C_25 
REMARK   10  A    between atoms: C_29  and  C_32 
ROOT
HETATM    1  O   UNK     0       5.073  14.921  89.346  0.00  0.00    -0.388 OA
HETATM    2  N   UNK     0       3.411  13.428  91.110  0.00  0.00     0.096 N 
HETATM    3  C   UNK     0       4.034  14.692  91.527  0.00  0.00     0.299 C 
HETATM    4  C   UNK     0       4.243  12.768  90.095  0.00  0.00     0.299 C 
HETATM    5  C   UNK     0       4.255  15.586  90.310  0.00  0.00     0.198 C 
HETATM    6  C   UNK     0       4.460  13.706  88.912  0.00  0.00     0.198 C 
ENDROOT
BRANCH   2   7
HETATM    7  C   UNK     0       3.200  12.550  92.260  0.00  0.00     0.311 C 
BRANCH   7   8
HETATM    8  C   UNK     0       4.232  11.478  92.352  0.00  0.00    -0.030 A 
HETATM    9  C   UNK     0       3.984  10.223  91.794  0.00  0.00     0.010 A 
HETATM   10  C   UNK     0       4.947   9.218  91.882  0.00  0.00     0.021 A 
HETATM   11  C   UNK     0       6.158   9.469  92.526  0.00  0.00     0.018 A 
HETATM   12  C   UNK     0       6.407  10.722  93.084  0.00  0.00     0.021 A 
HETATM   13  C   UNK     0       5.444  11.727  92.997  0.00  0.00     0.010 A 
BRANCH  11  14
HETATM   14  C   UNK     0       7.147   8.439  92.615  0.00  0.00    -0.061 C 
HETATM   15  C   UNK     0       7.978   7.573  92.689  0.00  0.00    -0.061 C 
BRANCH  15  16
HETATM   16  C   UNK     0       8.966   6.545  92.779  0.00  0.00     0.018 A 
HETATM   17  C   UNK     0       9.515   6.212  94.018  0.00  0.00     0.022 A 
HETATM   18  C   UNK     0      10.478   5.207  94.106  0.00  0.00     0.018 A 
HETATM   19  C   UNK     0      10.870   4.556  92.955  0.00  0.00     0.032 A 
HETATM   20  C   UNK     0      10.343   4.866  91.718  0.00  0.00     0.018 A 
HETATM   21  C   UNK     0       9.380   5.872  91.630  0.00  0.00     0.022 A 
BRANCH  19  22
HETATM   22  C   UNK     0      11.897   3.487  93.049  0.00  0.00     0.252 C 
HETATM   23  O   UNK     0      11.659   2.383  92.566  0.00  0.00    -0.268 OA
HETATM   24  N   UNK     0      13.086   3.839  93.672  0.00  0.00    -0.341 N 
HETATM   25  H   UNK     0      13.221   4.779  94.025  0.00  0.00     0.163 HD
BRANCH  24  26
HETATM   26  C   UNK     0      14.187   2.921  93.818  0.00  0.00     0.207 C 
BRANCH  26  27
HETATM   27  C   UNK     0      14.213   1.846  92.725  0.00  0.00     0.146 C 
HETATM   28  C   UNK     0      15.004   2.281  91.497  0.00  0.00     0.042 C 
BRANCH  27  29
HETATM   29  O   UNK     0      14.788   0.648  93.246  0.00  0.00    -0.393 OA
HETATM   30  H   UNK     0      15.720   0.825  93.458  0.00  0.00     0.210 HD
ENDBRANCH  27  29
ENDBRANCH  26  27
BRANCH  26  31
HETATM   31  C   UNK     0      15.476   3.736  93.826  0.00  0.00     0.266 C 
HETATM   32  O   UNK     0      15.511   4.935  93.558  0.00  0.00    -0.269 OA
HETATM   33  N   UNK     0      16.574   2.967  94.124  0.00  0.00    -0.236 N 
HETATM   34  H   UNK     0      16.593   1.963  94.261  0.00  0.00     0.197 HD
BRANCH  33  35
HETATM   35  O   UNK     0      17.808   3.634  94.114  0.00  0.00    -0.287 OA
HETATM   36  H   UNK     0      17.658   4.265  93.389  0.00  0.00     0.244 HD
ENDBRANCH  33  35
ENDBRANCH  26  31
ENDBRANCH  24  26
ENDBRANCH  19  22
ENDBRANCH  15  16
ENDBRANCH  11  14
ENDBRANCH   7   8
ENDBRANCH   2   7
TORSDOF 10
ENDMDL
MODEL 9
REMARK VINA RESULT:      -4.9      2.084     12.610
REMARK  10 active torsions:
REMARK  status: ('A' for Active; 'I' for Inactive)
REMARK    1  A    between atoms: O_2  and  C_18 
REMARK    2  A    between atoms: O_5  and  N_8 
REMARK    3  A    between atoms: N_6  and  C_11 
REMARK    4  A    between atoms: N_7  and  C_15 
REMARK       I    between atoms: N_7  and  C_24 
REMARK       I    between atoms: N_8  and  C_23 
REMARK    5  A    between atoms: C_11  and  C_14 
REMARK    6  A    between atoms: C_15  and  C_18 
REMARK    7  A    between atoms: C_15  and  C_23 
REMARK    8  A    between atoms: C_21  and  C_26 
REMARK    9  A    between atoms: C_24  and  C_25 
REMARK   10  A    between atoms: C_29  and  C_32 
ROOT
HETATM    1  O   UNK     0       2.116  12.911  92.693  0.00  0.00    -0.388 OA
HETATM    2  N   UNK     0       2.957  12.412  90.020  0.00  0.00     0.096 N 
HETATM    3  C   UNK     0       2.806  11.322  90.994  0.00  0.00     0.299 C 
HETATM    4  C   UNK     0       3.300  13.661  90.713  0.00  0.00     0.299 C 
HETATM    5  C   UNK     0       1.751  11.698  92.031  0.00  0.00     0.198 C 
HETATM    6  C   UNK     0       2.235  13.983  91.757  0.00  0.00     0.198 C 
ENDROOT
BRANCH   2   7
HETATM    7  C   UNK     0       3.971  12.077  89.022  0.00  0.00     0.311 C 
BRANCH   7   8
HETATM    8  C   UNK     0       4.939  11.055  89.515  0.00  0.00    -0.030 A 
HETATM    9  C   UNK     0       4.848   9.737  89.067  0.00  0.00     0.010 A 
HETATM   10  C   UNK     0       5.751   8.780  89.529  0.00  0.00     0.021 A 
HETATM   11  C   UNK     0       6.745   9.142  90.438  0.00  0.00     0.018 A 
HETATM   12  C   UNK     0       6.837  10.458  90.885  0.00  0.00     0.021 A 
HETATM   13  C   UNK     0       5.933  11.416  90.424  0.00  0.00     0.010 A 
BRANCH  11  14
HETATM   14  C   UNK     0       7.673   8.161  90.910  0.00  0.00    -0.061 C 
HETATM   15  C   UNK     0       8.452   7.336  91.307  0.00  0.00    -0.061 C 
BRANCH  15  16
HETATM   16  C   UNK     0       9.378   6.355  91.778  0.00  0.00     0.018 A 
HETATM   17  C   UNK     0       9.948   5.448  90.883  0.00  0.00     0.022 A 
HETATM   18  C   UNK     0      10.853   4.492  91.343  0.00  0.00     0.018 A 
HETATM   19  C   UNK     0      11.169   4.462  92.685  0.00  0.00     0.032 A 
HETATM   20  C   UNK     0      10.619   5.346  93.590  0.00  0.00     0.018 A 
HETATM   21  C   UNK     0       9.713   6.303  93.131  0.00  0.00     0.022 A 
BRANCH  19  22
HETATM   22  C   UNK     0      12.132   3.442  93.174  0.00  0.00     0.252 C 
HETATM   23  O   UNK     0      11.794   2.261  93.197  0.00  0.00    -0.268 OA
HETATM   24  N   UNK     0      13.380   3.916  93.553  0.00  0.00    -0.341 N 
HETATM   25  H   UNK     0      13.597   4.903  93.482  0.00  0.00     0.163 HD
BRANCH  24  26
HETATM   26  C   UNK     0      14.429   3.048  94.025  0.00  0.00     0.207 C 
BRANCH  26  27
HETATM   27  C   UNK     0      14.453   1.697  93.299  0.00  0.00     0.146 C 
HETATM   28  C   UNK     0      15.162   1.771  91.951  0.00  0.00     0.042 C 
BRANCH  27  29
HETATM   29  O   UNK     0      15.110   0.728  94.115  0.00  0.00    -0.393 OA
HETATM   30  H   UNK     0      14.674   0.715  94.984  0.00  0.00     0.210 HD
ENDBRANCH  27  29
ENDBRANCH  26  27
BRANCH  26  31
HETATM   31  C   UNK     0      15.753   3.787  93.865  0.00  0.00     0.266 C 
HETATM   32  O   UNK     0      15.823   4.990  93.618  0.00  0.00    -0.269 OA
HETATM   33  N   UNK     0      16.834   2.949  93.990  0.00  0.00    -0.236 N 
HETATM   34  H   UNK     0      16.811   1.942  94.104  0.00  0.00     0.197 HD
BRANCH  33  35
HETATM   35  O   UNK     0      18.092   3.545  93.818  0.00  0.00    -0.287 OA
HETATM   36  H   UNK     0      17.932   4.057  93.007  0.00  0.00     0.244 HD
ENDBRANCH  33  35
ENDBRANCH  26  31
ENDBRANCH  24  26
ENDBRANCH  19  22
ENDBRANCH  15  16
ENDBRANCH  11  14
ENDBRANCH   7   8
ENDBRANCH   2   7
TORSDOF 10
ENDMDL
