MODEL 1
REMARK VINA RESULT:      -6.9      0.000      0.000
REMARK  11 active torsions:
REMARK  status: ('A' for Active; 'I' for Inactive)
REMARK    1  A    between atoms: O_2  and  C_18 
REMARK    2  A    between atoms: O_5  and  P_8 
REMARK    3  A    between atoms: N_6  and  C_11 
REMARK    4  A    between atoms: N_7  and  C_15 
REMARK       I    between atoms: N_7  and  C_24 
REMARK    5  A    between atoms: P_8  and  C_23 
REMARK    6  A    between atoms: C_11  and  C_14 
REMARK    7  A    between atoms: C_15  and  C_18 
REMARK    8  A    between atoms: C_15  and  C_23 
REMARK    9  A    between atoms: C_21  and  C_26 
REMARK   10  A    between atoms: C_24  and  C_25 
REMARK   11  A    between atoms: C_29  and  C_32 
ROOT
HETATM    1  O   UNL     1      16.157   3.992  94.124  1.00  0.00     0.000 OA
HETATM    2  N   UNL     1      14.325   2.636  92.417  1.00  0.00     0.000 N 
HETATM    3  C   UNL     1      14.376   4.104  92.479  1.00  0.00     0.000 C 
HETATM    4  C   UNL     1      14.745   2.064  93.704  1.00  0.00     0.000 C 
HETATM    5  C   UNL     1      15.781   4.557  92.866  1.00  0.00     0.000 C 
HETATM    6  C   UNL     1      16.140   2.565  94.063  1.00  0.00     0.000 C 
ENDROOT
BRANCH   2   7
HETATM    7  C   UNL     1      12.984   2.179  92.058  1.00  0.00     0.000 C 
BRANCH   7   8
HETATM    8  C   UNL     1      12.057   3.310  91.768  1.00  0.00     0.000 A 
HETATM    9  C   UNL     1      11.260   3.836  92.785  1.00  0.00     0.000 A 
HETATM   10  C   UNL     1      10.391   4.893  92.515  1.00  0.00     0.000 A 
HETATM   11  C   UNL     1      10.321   5.425  91.227  1.00  0.00     0.000 A 
HETATM   12  C   UNL     1      11.117   4.901  90.211  1.00  0.00     0.000 A 
HETATM   13  C   UNL     1      11.986   3.844  90.481  1.00  0.00     0.000 A 
BRANCH  11  14
HETATM   14  C   UNL     1       9.431   6.510  90.950  1.00  0.00     0.000 C 
HETATM   15  C   UNL     1       8.683   7.422  90.718  1.00  0.00     0.000 C 
BRANCH  15  16
HETATM   16  C   UNL     1       7.795   8.508  90.442  1.00  0.00     0.000 A 
HETATM   17  C   UNL     1       6.464   8.441  90.857  1.00  0.00     0.000 A 
HETATM   18  C   UNL     1       5.598   9.502  90.590  1.00  0.00     0.000 A 
HETATM   19  C   UNL     1       6.081  10.603  89.915  1.00  0.00     0.000 A 
HETATM   20  C   UNL     1       7.391  10.692  89.494  1.00  0.00     0.000 A 
HETATM   21  C   UNL     1       8.258   9.633  89.760  1.00  0.00     0.000 A 
BRANCH  19  22
HETATM   22  C   UNL     1       5.157  11.731  89.629  1.00  0.00     0.000 C 
HETATM   23  O   UNL     1       4.899  12.013  88.461  1.00  0.00     0.000 OA
HETATM   24  N   UNL     1       4.627  12.379  90.736  1.00  0.00     0.000 N 
HETATM   25  HN  UNL     1       4.867  12.074  91.672  1.00  0.00     0.000 HD
BRANCH  24  26
HETATM   26  C   UNL     1       3.698  13.475  90.623  1.00  0.00     0.000 C 
BRANCH  26  27
HETATM   27  C   UNL     1       2.375  13.209  91.351  1.00  0.00     0.000 C 
HETATM   28  C   UNL     1       2.527  12.213  92.495  1.00  0.00     0.000 C 
BRANCH  27  29
HETATM   29  O   UNL     1       1.860  14.435  91.869  1.00  0.00     0.000 OA
HETATM   30  H   UNL     1       1.909  14.400  92.839  1.00  0.00     0.000 HD
ENDBRANCH  27  29
ENDBRANCH  26  27
BRANCH  26  31
HETATM   31  C   UNL     1       4.386  14.725  91.161  1.00  0.00     0.000 C 
HETATM   32  O   UNL     1       4.505  14.959  92.362  1.00  0.00     0.000 OA
BRANCH  31  33
HETATM   33  P   UNL     1       4.811  15.558  90.154  1.00  0.00     0.000 P 
HETATM   34  H   UNL     1       3.705  16.212  89.651  1.00  0.00     0.000 HD
BRANCH  33  35
HETATM   35  O   UNL     1       5.466  14.935  89.083  1.00  0.00     0.000 OA
HETATM   36  H   UNL     1       6.345  15.345  89.153  1.00  0.00     0.000 HD
ENDBRANCH  33  35
ENDBRANCH  31  33
ENDBRANCH  26  31
ENDBRANCH  24  26
ENDBRANCH  19  22
ENDBRANCH  15  16
ENDBRANCH  11  14
ENDBRANCH   7   8
ENDBRANCH   2   7
TORSDOF 11
ENDMDL
MODEL 2
REMARK VINA RESULT:      -6.5      1.722      2.673
REMARK  11 active torsions:
REMARK  status: ('A' for Active; 'I' for Inactive)
REMARK    1  A    between atoms: O_2  and  C_18 
REMARK    2  A    between atoms: O_5  and  P_8 
REMARK    3  A    between atoms: N_6  and  C_11 
REMARK    4  A    between atoms: N_7  and  C_15 
REMARK       I    between atoms: N_7  and  C_24 
REMARK    5  A    between atoms: P_8  and  C_23 
REMARK    6  A    between atoms: C_11  and  C_14 
REMARK    7  A    between atoms: C_15  and  C_18 
REMARK    8  A    between atoms: C_15  and  C_23 
REMARK    9  A    between atoms: C_21  and  C_26 
REMARK   10  A    between atoms: C_24  and  C_25 
REMARK   11  A    between atoms: C_29  and  C_32 
ROOT
HETATM    1  O   UNL     1      16.174   3.931  94.123  1.00  0.00     0.000 OA
HETATM    2  N   UNL     1      14.262   2.653  92.445  1.00  0.00     0.000 N 
HETATM    3  C   UNL     1      14.430   4.113  92.445  1.00  0.00     0.000 C 
HETATM    4  C   UNL     1      14.617   2.106  93.762  1.00  0.00     0.000 C 
HETATM    5  C   UNL     1      15.862   4.469  92.836  1.00  0.00     0.000 C 
HETATM    6  C   UNL     1      16.043   2.509  94.123  1.00  0.00     0.000 C 
ENDROOT
BRANCH   2   7
HETATM    7  C   UNL     1      12.893   2.290  92.083  1.00  0.00     0.000 C 
BRANCH   7   8
HETATM    8  C   UNL     1      11.957   3.447  92.165  1.00  0.00     0.000 A 
HETATM    9  C   UNL     1      11.343   3.929  91.008  1.00  0.00     0.000 A 
HETATM   10  C   UNL     1      10.469   5.013  91.083  1.00  0.00     0.000 A 
HETATM   11  C   UNL     1      10.208   5.614  92.314  1.00  0.00     0.000 A 
HETATM   12  C   UNL     1      10.821   5.134  93.469  1.00  0.00     0.000 A 
HETATM   13  C   UNL     1      11.696   4.050  93.395  1.00  0.00     0.000 A 
BRANCH  11  14
HETATM   14  C   UNL     1       9.310   6.725  92.391  1.00  0.00     0.000 C 
HETATM   15  C   UNL     1       8.555   7.658  92.455  1.00  0.00     0.000 C 
BRANCH  15  16
HETATM   16  C   UNL     1       7.657   8.769  92.533  1.00  0.00     0.000 A 
HETATM   17  C   UNL     1       7.015   9.226  91.382  1.00  0.00     0.000 A 
HETATM   18  C   UNL     1       6.137  10.308  91.458  1.00  0.00     0.000 A 
HETATM   19  C   UNL     1       5.921  10.906  92.682  1.00  0.00     0.000 A 
HETATM   20  C   UNL     1       6.544  10.472  93.834  1.00  0.00     0.000 A 
HETATM   21  C   UNL     1       7.422   9.391  93.759  1.00  0.00     0.000 A 
BRANCH  19  22
HETATM   22  C   UNL     1       4.987  12.059  92.763  1.00  0.00     0.000 C 
HETATM   23  O   UNL     1       4.693  12.517  93.864  1.00  0.00     0.000 OA
HETATM   24  N   UNL     1       4.528  12.555  91.550  1.00  0.00     0.000 N 
HETATM   25  HN  UNL     1       4.834  12.141  90.678  1.00  0.00     0.000 HD
BRANCH  24  26
HETATM   26  C   UNL     1       3.637  13.684  91.462  1.00  0.00     0.000 C 
BRANCH  26  27
HETATM   27  C   UNL     1       3.667  14.358  90.084  1.00  0.00     0.000 C 
HETATM   28  C   UNL     1       4.990  15.063  89.808  1.00  0.00     0.000 C 
BRANCH  27  29
HETATM   29  O   UNL     1       3.444  13.379  89.070  1.00  0.00     0.000 OA
HETATM   30  H   UNL     1       3.945  13.640  88.279  1.00  0.00     0.000 HD
ENDBRANCH  27  29
ENDBRANCH  26  27
BRANCH  26  31
HETATM   31  C   UNL     1       2.234  13.199  91.811  1.00  0.00     0.000 C 
HETATM   32  O   UNL     1       1.798  12.103  91.463  1.00  0.00     0.000 OA
BRANCH  31  33
HETATM   33  P   UNL     1       1.520  14.138  92.516  1.00  0.00     0.000 P 
HETATM   34  H   UNL     1       0.484  14.571  91.714  1.00  0.00     0.000 HD
BRANCH  33  35
HETATM   35  O   UNL     1       2.241  15.266  92.933  1.00  0.00     0.000 OA
HETATM   36  H   UNL     1       2.244  15.784  92.110  1.00  0.00     0.000 HD
ENDBRANCH  33  35
ENDBRANCH  31  33
ENDBRANCH  26  31
ENDBRANCH  24  26
ENDBRANCH  19  22
ENDBRANCH  15  16
ENDBRANCH  11  14
ENDBRANCH   7   8
ENDBRANCH   2   7
TORSDOF 11
ENDMDL
MODEL 3
REMARK VINA RESULT:      -5.1      1.566      2.021
REMARK  11 active torsions:
REMARK  status: ('A' for Active; 'I' for Inactive)
REMARK    1  A    between atoms: O_2  and  C_18 
REMARK    2  A    between atoms: O_5  and  P_8 
REMARK    3  A    between atoms: N_6  and  C_11 
REMARK    4  A    between atoms: N_7  and  C_15 
REMARK       I    between atoms: N_7  and  C_24 
REMARK    5  A    between atoms: P_8  and  C_23 
REMARK    6  A    between atoms: C_11  and  C_14 
REMARK    7  A    between atoms: C_15  and  C_18 
REMARK    8  A    between atoms: C_15  and  C_23 
REMARK    9  A    between atoms: C_21  and  C_26 
REMARK   10  A    between atoms: C_24  and  C_25 
REMARK   11  A    between atoms: C_29  and  C_32 
ROOT
HETATM    1  O   UNL     1      16.179   4.603  93.851  1.00  0.00     0.000 OA
HETATM    2  N   UNL     1      14.544   2.700  92.508  1.00  0.00     0.000 N 
HETATM    3  C   UNL     1      14.436   4.138  92.227  1.00  0.00     0.000 C 
HETATM    4  C   UNL     1      14.990   2.489  93.892  1.00  0.00     0.000 C 
HETATM    5  C   UNL     1      15.776   4.819  92.497  1.00  0.00     0.000 C 
HETATM    6  C   UNL     1      16.315   3.208  94.123  1.00  0.00     0.000 C 
ENDROOT
BRANCH   2   7
HETATM    7  C   UNL     1      13.268   2.028  92.266  1.00  0.00     0.000 C 
BRANCH   7   8
HETATM    8  C   UNL     1      12.128   2.986  92.189  1.00  0.00     0.000 A 
HETATM    9  C   UNL     1      11.832   3.807  93.278  1.00  0.00     0.000 A 
HETATM   10  C   UNL     1      10.765   4.702  93.207  1.00  0.00     0.000 A 
HETATM   11  C   UNL     1       9.995   4.777  92.047  1.00  0.00     0.000 A 
HETATM   12  C   UNL     1      10.289   3.958  90.959  1.00  0.00     0.000 A 
HETATM   13  C   UNL     1      11.356   3.063  91.029  1.00  0.00     0.000 A 
BRANCH  11  14
HETATM   14  C   UNL     1       8.901   5.697  91.975  1.00  0.00     0.000 C 
HETATM   15  C   UNL     1       7.982   6.469  91.914  1.00  0.00     0.000 C 
BRANCH  15  16
HETATM   16  C   UNL     1       6.888   7.387  91.842  1.00  0.00     0.000 A 
HETATM   17  C   UNL     1       6.567   7.994  90.627  1.00  0.00     0.000 A 
HETATM   18  C   UNL     1       5.499   8.888  90.557  1.00  0.00     0.000 A 
HETATM   19  C   UNL     1       4.776   9.155  91.701  1.00  0.00     0.000 A 
HETATM   20  C   UNL     1       5.074   8.569  92.913  1.00  0.00     0.000 A 
HETATM   21  C   UNL     1       6.142   7.675  92.985  1.00  0.00     0.000 A 
BRANCH  19  22
HETATM   22  C   UNL     1       3.640  10.109  91.625  1.00  0.00     0.000 C 
HETATM   23  O   UNL     1       2.491   9.682  91.710  1.00  0.00     0.000 OA
HETATM   24  N   UNL     1       3.978  11.448  91.485  1.00  0.00     0.000 N 
HETATM   25  HN  UNL     1       4.951  11.730  91.447  1.00  0.00     0.000 HD
BRANCH  24  26
HETATM   26  C   UNL     1       2.990  12.495  91.422  1.00  0.00     0.000 C 
BRANCH  26  27
HETATM   27  C   UNL     1       2.912  13.316  92.716  1.00  0.00     0.000 C 
HETATM   28  C   UNL     1       4.218  13.290  93.503  1.00  0.00     0.000 C 
BRANCH  27  29
HETATM   29  O   UNL     1       2.586  14.670  92.403  1.00  0.00     0.000 OA
HETATM   30  H   UNL     1       3.133  15.251  92.958  1.00  0.00     0.000 HD
ENDBRANCH  27  29
ENDBRANCH  26  27
BRANCH  26  31
HETATM   31  C   UNL     1       3.323  13.378  90.224  1.00  0.00     0.000 C 
HETATM   32  O   UNL     1       2.523  14.174  89.736  1.00  0.00     0.000 OA
BRANCH  31  33
HETATM   33  P   UNL     1       4.590  13.147  89.745  1.00  0.00     0.000 P 
HETATM   34  H   UNL     1       5.488  13.617  90.682  1.00  0.00     0.000 HD
BRANCH  33  35
HETATM   35  O   UNL     1       4.896  13.748  88.516  1.00  0.00     0.000 OA
HETATM   36  H   UNL     1       4.077  13.567  88.024  1.00  0.00     0.000 HD
ENDBRANCH  33  35
ENDBRANCH  31  33
ENDBRANCH  26  31
ENDBRANCH  24  26
ENDBRANCH  19  22
ENDBRANCH  15  16
ENDBRANCH  11  14
ENDBRANCH   7   8
ENDBRANCH   2   7
TORSDOF 11
ENDMDL
MODEL 4
REMARK VINA RESULT:      -4.4      3.728     12.850
REMARK  11 active torsions:
REMARK  status: ('A' for Active; 'I' for Inactive)
REMARK    1  A    between atoms: O_2  and  C_18 
REMARK    2  A    between atoms: O_5  and  P_8 
REMARK    3  A    between atoms: N_6  and  C_11 
REMARK    4  A    between atoms: N_7  and  C_15 
REMARK       I    between atoms: N_7  and  C_24 
REMARK    5  A    between atoms: P_8  and  C_23 
REMARK    6  A    between atoms: C_11  and  C_14 
REMARK    7  A    between atoms: C_15  and  C_18 
REMARK    8  A    between atoms: C_15  and  C_23 
REMARK    9  A    between atoms: C_21  and  C_26 
REMARK   10  A    between atoms: C_24  and  C_25 
REMARK   11  A    between atoms: C_29  and  C_32 
ROOT
HETATM    1  O   UNL     1       1.815  15.577  93.201  1.00  0.00     0.000 OA
HETATM    2  N   UNL     1       3.328  13.625  91.787  1.00  0.00     0.000 N 
HETATM    3  C   UNL     1       3.859  14.971  92.041  1.00  0.00     0.000 C 
HETATM    4  C   UNL     1       1.862  13.669  91.704  1.00  0.00     0.000 C 
HETATM    5  C   UNL     1       3.239  15.539  93.315  1.00  0.00     0.000 C 
HETATM    6  C   UNL     1       1.289  14.268  92.985  1.00  0.00     0.000 C 
ENDROOT
BRANCH   2   7
HETATM    7  C   UNL     1       3.901  13.065  90.564  1.00  0.00     0.000 C 
BRANCH   7   8
HETATM    8  C   UNL     1       4.872  11.968  90.842  1.00  0.00     0.000 A 
HETATM    9  C   UNL     1       5.937  11.743  89.969  1.00  0.00     0.000 A 
HETATM   10  C   UNL     1       6.845  10.717  90.227  1.00  0.00     0.000 A 
HETATM   11  C   UNL     1       6.689   9.917  91.359  1.00  0.00     0.000 A 
HETATM   12  C   UNL     1       5.626  10.141  92.231  1.00  0.00     0.000 A 
HETATM   13  C   UNL     1       4.717  11.167  91.973  1.00  0.00     0.000 A 
BRANCH  11  14
HETATM   14  C   UNL     1       7.622   8.865  91.624  1.00  0.00     0.000 C 
HETATM   15  C   UNL     1       8.406   7.981  91.847  1.00  0.00     0.000 C 
BRANCH  15  16
HETATM   16  C   UNL     1       9.338   6.930  92.111  1.00  0.00     0.000 A 
HETATM   17  C   UNL     1       9.711   6.644  93.425  1.00  0.00     0.000 A 
HETATM   18  C   UNL     1      10.619   5.617  93.683  1.00  0.00     0.000 A 
HETATM   19  C   UNL     1      11.132   4.899  92.623  1.00  0.00     0.000 A 
HETATM   20  C   UNL     1      10.779   5.162  91.316  1.00  0.00     0.000 A 
HETATM   21  C   UNL     1       9.872   6.189  91.057  1.00  0.00     0.000 A 
BRANCH  19  22
HETATM   22  C   UNL     1      12.100   3.806  92.898  1.00  0.00     0.000 C 
HETATM   23  O   UNL     1      11.861   2.674  92.485  1.00  0.00     0.000 OA
HETATM   24  N   UNL     1      13.242   4.168  93.600  1.00  0.00     0.000 N 
HETATM   25  HN  UNL     1      13.384   5.129  93.888  1.00  0.00     0.000 HD
BRANCH  24  26
HETATM   26  C   UNL     1      14.285   3.227  93.922  1.00  0.00     0.000 C 
BRANCH  26  27
HETATM   27  C   UNL     1      14.166   1.916  93.135  1.00  0.00     0.000 C 
HETATM   28  C   UNL     1      14.944   1.950  91.824  1.00  0.00     0.000 C 
BRANCH  27  29
HETATM   29  O   UNL     1      14.649   0.835  93.932  1.00  0.00     0.000 OA
HETATM   30  H   UNL     1      15.470   0.504  93.531  1.00  0.00     0.000 HD
ENDBRANCH  27  29
ENDBRANCH  26  27
BRANCH  26  31
HETATM   31  C   UNL     1      15.624   3.910  93.664  1.00  0.00     0.000 C 
HETATM   32  O   UNL     1      15.725   4.986  93.078  1.00  0.00     0.000 OA
BRANCH  31  33
HETATM   33  P   UNL     1      16.683   3.166  94.124  1.00  0.00     0.000 P 
HETATM   34  H   UNL     1      17.154   3.766  95.274  1.00  0.00     0.000 HD
BRANCH  33  35
HETATM   35  O   UNL     1      17.762   3.027  93.239  1.00  0.00     0.000 OA
HETATM   36  H   UNL     1      18.481   2.847  93.868  1.00  0.00     0.000 HD
ENDBRANCH  33  35
ENDBRANCH  31  33
ENDBRANCH  26  31
ENDBRANCH  24  26
ENDBRANCH  19  22
ENDBRANCH  15  16
ENDBRANCH  11  14
ENDBRANCH   7   8
ENDBRANCH   2   7
TORSDOF 11
ENDMDL
MODEL 5
REMARK VINA RESULT:      -4.1      3.446     12.705
REMARK  11 active torsions:
REMARK  status: ('A' for Active; 'I' for Inactive)
REMARK    1  A    between atoms: O_2  and  C_18 
REMARK    2  A    between atoms: O_5  and  P_8 
REMARK    3  A    between atoms: N_6  and  C_11 
REMARK    4  A    between atoms: N_7  and  C_15 
REMARK       I    between atoms: N_7  and  C_24 
REMARK    5  A    between atoms: P_8  and  C_23 
REMARK    6  A    between atoms: C_11  and  C_14 
REMARK    7  A    between atoms: C_15  and  C_18 
REMARK    8  A    between atoms: C_15  and  C_23 
REMARK    9  A    between atoms: C_21  and  C_26 
REMARK   10  A    between atoms: C_24  and  C_25 
REMARK   11  A    between atoms: C_29  and  C_32 
ROOT
HETATM    1  O   UNL     1       3.230  15.252  90.853  1.00  0.00     0.000 OA
HETATM    2  N   UNL     1       3.864  12.719  91.988  1.00  0.00     0.000 N 
HETATM    3  C   UNL     1       2.717  12.891  91.086  1.00  0.00     0.000 C 
HETATM    4  C   UNL     1       4.132  13.973  92.707  1.00  0.00     0.000 C 
HETATM    5  C   UNL     1       2.983  14.047  90.125  1.00  0.00     0.000 C 
HETATM    6  C   UNL     1       4.364  15.103  91.709  1.00  0.00     0.000 C 
ENDROOT
BRANCH   2   7
HETATM    7  C   UNL     1       3.627  11.623  92.925  1.00  0.00     0.000 C 
BRANCH   7   8
HETATM    8  C   UNL     1       4.715  10.605  92.896  1.00  0.00     0.000 A 
HETATM    9  C   UNL     1       4.976   9.832  94.028  1.00  0.00     0.000 A 
HETATM   10  C   UNL     1       5.996   8.880  94.003  1.00  0.00     0.000 A 
HETATM   11  C   UNL     1       6.752   8.701  92.845  1.00  0.00     0.000 A 
HETATM   12  C   UNL     1       6.492   9.472  91.714  1.00  0.00     0.000 A 
HETATM   13  C   UNL     1       5.473  10.424  91.739  1.00  0.00     0.000 A 
BRANCH  11  14
HETATM   14  C   UNL     1       7.796   7.723  92.818  1.00  0.00     0.000 C 
HETATM   15  C   UNL     1       8.673   6.901  92.796  1.00  0.00     0.000 C 
BRANCH  15  16
HETATM   16  C   UNL     1       9.716   5.924  92.768  1.00  0.00     0.000 A 
HETATM   17  C   UNL     1       9.855   5.084  91.663  1.00  0.00     0.000 A 
HETATM   18  C   UNL     1      10.875   4.133  91.635  1.00  0.00     0.000 A 
HETATM   19  C   UNL     1      11.732   4.042  92.712  1.00  0.00     0.000 A 
HETATM   20  C   UNL     1      11.615   4.860  93.817  1.00  0.00     0.000 A 
HETATM   21  C   UNL     1      10.596   5.812  93.845  1.00  0.00     0.000 A 
BRANCH  19  22
HETATM   22  C   UNL     1      12.816   3.027  92.683  1.00  0.00     0.000 C 
HETATM   23  O   UNL     1      12.583   1.913  92.220  1.00  0.00     0.000 OA
HETATM   24  N   UNL     1      14.048   3.438  93.173  1.00  0.00     0.000 N 
HETATM   25  HN  UNL     1      14.173   4.383  93.517  1.00  0.00     0.000 HD
BRANCH  24  26
HETATM   26  C   UNL     1      15.203   2.577  93.190  1.00  0.00     0.000 C 
BRANCH  26  27
HETATM   27  C   UNL     1      15.590   2.077  91.793  1.00  0.00     0.000 C 
HETATM   28  C   UNL     1      15.156   3.034  90.688  1.00  0.00     0.000 C 
BRANCH  27  29
HETATM   29  O   UNL     1      17.005   1.900  91.724  1.00  0.00     0.000 OA
HETATM   30  H   UNL     1      17.263   1.872  90.787  1.00  0.00     0.000 HD
ENDBRANCH  27  29
ENDBRANCH  26  27
BRANCH  26  31
HETATM   31  C   UNL     1      16.348   3.347  93.840  1.00  0.00     0.000 C 
HETATM   32  O   UNL     1      17.427   2.829  94.124  1.00  0.00     0.000 OA
BRANCH  31  33
HETATM   33  P   UNL     1      16.014   4.654  94.099  1.00  0.00     0.000 P 
HETATM   34  H   UNL     1      14.697   4.681  94.511  1.00  0.00     0.000 HD
BRANCH  33  35
HETATM   35  O   UNL     1      16.145   5.542  93.021  1.00  0.00     0.000 OA
HETATM   36  H   UNL     1      16.165   6.390  93.496  1.00  0.00     0.000 HD
ENDBRANCH  33  35
ENDBRANCH  31  33
ENDBRANCH  26  31
ENDBRANCH  24  26
ENDBRANCH  19  22
ENDBRANCH  15  16
ENDBRANCH  11  14
ENDBRANCH   7   8
ENDBRANCH   2   7
TORSDOF 11
ENDMDL
MODEL 6
REMARK VINA RESULT:      -3.9      1.429      2.092
REMARK  11 active torsions:
REMARK  status: ('A' for Active; 'I' for Inactive)
REMARK    1  A    between atoms: O_2  and  C_18 
REMARK    2  A    between atoms: O_5  and  P_8 
REMARK    3  A    between atoms: N_6  and  C_11 
REMARK    4  A    between atoms: N_7  and  C_15 
REMARK       I    between atoms: N_7  and  C_24 
REMARK    5  A    between atoms: P_8  and  C_23 
REMARK    6  A    between atoms: C_11  and  C_14 
REMARK    7  A    between atoms: C_15  and  C_18 
REMARK    8  A    between atoms: C_15  and  C_23 
REMARK    9  A    between atoms: C_21  and  C_26 
REMARK   10  A    between atoms: C_24  and  C_25 
REMARK   11  A    between atoms: C_29  and  C_32 
ROOT
HETATM    1  O   UNL     1      16.467   2.898  93.952  1.00  0.00     0.000 OA
HETATM    2  N   UNL     1      13.906   2.915  92.710  1.00  0.00     0.000 N 
HETATM    3  C   UNL     1      14.654   1.666  92.909  1.00  0.00     0.000 C 
HETATM    4  C   UNL     1      14.837   4.042  92.567  1.00  0.00     0.000 C 
HETATM    5  C   UNL     1      15.569   1.800  94.124  1.00  0.00     0.000 C 
HETATM    6  C   UNL     1      15.747   4.120  93.788  1.00  0.00     0.000 C 
ENDROOT
BRANCH   2   7
HETATM    7  C   UNL     1      13.030   2.813  91.544  1.00  0.00     0.000 C 
BRANCH   7   8
HETATM    8  C   UNL     1      11.958   3.849  91.546  1.00  0.00     0.000 A 
HETATM    9  C   UNL     1      11.535   4.415  90.343  1.00  0.00     0.000 A 
HETATM   10  C   UNL     1      10.533   5.387  90.344  1.00  0.00     0.000 A 
HETATM   11  C   UNL     1       9.955   5.789  91.548  1.00  0.00     0.000 A 
HETATM   12  C   UNL     1      10.377   5.224  92.749  1.00  0.00     0.000 A 
HETATM   13  C   UNL     1      11.379   4.253  92.749  1.00  0.00     0.000 A 
BRANCH  11  14
HETATM   14  C   UNL     1       8.927   6.784  91.549  1.00  0.00     0.000 C 
HETATM   15  C   UNL     1       8.063   7.620  91.549  1.00  0.00     0.000 C 
BRANCH  15  16
HETATM   16  C   UNL     1       7.035   8.614  91.548  1.00  0.00     0.000 A 
HETATM   17  C   UNL     1       6.263   8.817  92.693  1.00  0.00     0.000 A 
HETATM   18  C   UNL     1       5.262   9.789  92.693  1.00  0.00     0.000 A 
HETATM   19  C   UNL     1       5.056  10.535  91.551  1.00  0.00     0.000 A 
HETATM   20  C   UNL     1       5.806  10.352  90.408  1.00  0.00     0.000 A 
HETATM   21  C   UNL     1       6.807   9.381  90.406  1.00  0.00     0.000 A 
BRANCH  19  22
HETATM   22  C   UNL     1       3.989  11.568  91.552  1.00  0.00     0.000 C 
HETATM   23  O   UNL     1       2.845  11.249  91.235  1.00  0.00     0.000 OA
HETATM   24  N   UNL     1       4.376  12.842  91.944  1.00  0.00     0.000 N 
HETATM   25  HN  UNL     1       5.334  13.026  92.216  1.00  0.00     0.000 HD
BRANCH  24  26
HETATM   26  C   UNL     1       3.451  13.945  92.019  1.00  0.00     0.000 C 
BRANCH  26  27
HETATM   27  C   UNL     1       3.833  14.966  93.098  1.00  0.00     0.000 C 
HETATM   28  C   UNL     1       2.614  15.576  93.781  1.00  0.00     0.000 C 
BRANCH  27  29
HETATM   29  O   UNL     1       4.651  14.337  94.084  1.00  0.00     0.000 OA
HETATM   30  H   UNL     1       4.357  14.637  94.960  1.00  0.00     0.000 HD
ENDBRANCH  27  29
ENDBRANCH  26  27
BRANCH  26  31
HETATM   31  C   UNL     1       3.386  14.593  90.640  1.00  0.00     0.000 C 
HETATM   32  O   UNL     1       2.452  14.415  89.860  1.00  0.00     0.000 OA
BRANCH  31  33
HETATM   33  P   UNL     1       4.498  15.352  90.370  1.00  0.00     0.000 P 
HETATM   34  H   UNL     1       4.172  16.674  90.594  1.00  0.00     0.000 HD
BRANCH  33  35
HETATM   35  O   UNL     1       5.006  15.249  89.067  1.00  0.00     0.000 OA
HETATM   36  H   UNL     1       5.182  14.294  89.023  1.00  0.00     0.000 HD
ENDBRANCH  33  35
ENDBRANCH  31  33
ENDBRANCH  26  31
ENDBRANCH  24  26
ENDBRANCH  19  22
ENDBRANCH  15  16
ENDBRANCH  11  14
ENDBRANCH   7   8
ENDBRANCH   2   7
TORSDOF 11
ENDMDL
