MODEL 1
REMARK VINA RESULT:      -7.1      0.000      0.000
REMARK  9 active torsions:
REMARK  status: ('A' for Active; 'I' for Inactive)
REMARK    1  A    between atoms: O_2  and  C_17 
REMARK    2  A    between atoms: N_5  and  C_10 
REMARK    3  A    between atoms: N_6  and  C_14 
REMARK       I    between atoms: N_6  and  C_23 
REMARK       I    between atoms: N_7  and  C_22 
REMARK    4  A    between atoms: C_10  and  C_13 
REMARK    5  A    between atoms: C_14  and  C_17 
REMARK    6  A    between atoms: C_14  and  C_22 
REMARK    7  A    between atoms: C_20  and  C_25 
REMARK    8  A    between atoms: C_23  and  C_24 
REMARK    9  A    between atoms: C_28  and  C_31 
ROOT
HETATM    1  O   UNL     1      16.532   4.325  94.114  1.00  0.00    -0.388 OA
HETATM    2  N   UNL     1      14.764   2.687  92.600  1.00  0.00     0.096 N 
HETATM    3  C   UNL     1      14.654   4.152  92.587  1.00  0.00     0.299 C 
HETATM    4  C   UNL     1      15.322   2.235  93.882  1.00  0.00     0.299 C 
HETATM    5  C   UNL     1      16.020   4.776  92.858  1.00  0.00     0.198 C 
HETATM    6  C   UNL     1      16.672   2.904  94.124  1.00  0.00     0.198 C 
ENDROOT
BRANCH   2   7
HETATM    7  C   UNL     1      13.463   2.067  92.352  1.00  0.00     0.311 C 
BRANCH   7   8
HETATM    8  C   UNL     1      12.421   3.066  91.978  1.00  0.00    -0.030 A 
HETATM    9  C   UNL     1      12.156   3.323  90.632  1.00  0.00     0.010 A 
HETATM   10  C   UNL     1      11.183   4.259  90.280  1.00  0.00     0.021 A 
HETATM   11  C   UNL     1      10.474   4.933  91.274  1.00  0.00     0.018 A 
HETATM   12  C   UNL     1      10.738   4.677  92.617  1.00  0.00     0.021 A 
HETATM   13  C   UNL     1      11.712   3.742  92.970  1.00  0.00     0.010 A 
BRANCH  11  14
HETATM   14  C   UNL     1       9.474   5.891  90.912  1.00  0.00    -0.061 C 
HETATM   15  C   UNL     1       8.635   6.696  90.609  1.00  0.00    -0.061 C 
BRANCH  15  16
HETATM   16  C   UNL     1       7.636   7.654  90.248  1.00  0.00     0.018 A 
HETATM   17  C   UNL     1       7.748   8.975  90.684  1.00  0.00     0.022 A 
HETATM   18  C   UNL     1       6.775   9.909  90.330  1.00  0.00     0.018 A 
HETATM   19  C   UNL     1       5.714   9.503  89.547  1.00  0.00     0.032 A 
HETATM   20  C   UNL     1       5.581   8.204  89.104  1.00  0.00     0.018 A 
HETATM   21  C   UNL     1       6.553   7.269  89.458  1.00  0.00     0.022 A 
BRANCH  19  22
HETATM   22  C   UNL     1       4.677  10.499  89.171  1.00  0.00     0.252 C 
HETATM   23  O   UNL     1       3.656  10.117  88.606  1.00  0.00    -0.268 OA
HETATM   24  N   UNL     1       4.944  11.816  89.521  1.00  0.00    -0.342 N 
HETATM   25  H   UNL     1       5.799  12.054  90.010  1.00  0.00     0.163 HD
BRANCH  24  26
HETATM   26  C   UNL     1       4.026  12.892  89.247  1.00  0.00     0.199 C 
BRANCH  26  27
HETATM   27  C   UNL     1       3.421  13.495  90.521  1.00  0.00     0.145 C 
HETATM   28  C   UNL     1       2.612  12.480  91.321  1.00  0.00     0.042 C 
BRANCH  27  29
HETATM   29  O   UNL     1       4.465  14.010  91.347  1.00  0.00    -0.393 OA
HETATM   30  H   UNL     1       4.795  14.831  90.945  1.00  0.00     0.210 HD
ENDBRANCH  27  29
ENDBRANCH  26  27
BRANCH  26  31
HETATM   31  C   UNL     1       4.771  13.945  88.434  1.00  0.00     0.220 C 
HETATM   32  O   UNL     1       5.211  14.983  88.926  1.00  0.00    -0.278 OA
HETATM   33  N   UNL     1       4.854  13.612  87.104  1.00  0.00    -0.271 NA
HETATM   34  H   UNL     1       4.427  12.812  86.651  1.00  0.00     0.127 HD
HETATM   35  H   UNL     1       4.177  14.189  86.018  1.00  0.00     0.127 HD
ENDBRANCH  26  31
ENDBRANCH  24  26
ENDBRANCH  19  22
ENDBRANCH  15  16
ENDBRANCH  11  14
ENDBRANCH   7   8
ENDBRANCH   2   7
TORSDOF 9
ENDMDL
