MODEL 1
REMARK VINA RESULT:      -7.0      0.000      0.000
REMARK  10 active torsions:
REMARK  status: ('A' for Active; 'I' for Inactive)
REMARK    1  A    between atoms: O_2  and  C_16 
REMARK    2  A    between atoms: N_5  and  C_9 
REMARK    3  A    between atoms: N_6  and  C_13 
REMARK       I    between atoms: N_6  and  C_22 
REMARK    4  A    between atoms: C_9  and  C_12 
REMARK    5  A    between atoms: C_13  and  C_16 
REMARK    6  A    between atoms: C_13  and  C_21 
REMARK    7  A    between atoms: C_19  and  C_24 
REMARK    8  A    between atoms: C_22  and  C_23 
REMARK    9  A    between atoms: C_27  and  C_30 
REMARK   10  A    between atoms: N_33  and  S_34 
ROOT
HETATM    1  C   UNL     1       5.623  11.023  89.619  1.00  0.00     0.056 A 
HETATM    2  C   UNL     1       6.961  11.170  89.321  1.00  0.00     0.005 A 
HETATM    3  C   UNL     1       5.114   9.867  90.173  1.00  0.00     0.005 A 
HETATM    4  C   UNL     1       7.341   8.932  90.147  1.00  0.00     0.042 A 
HETATM    5  C   UNL     1       7.831  10.112  89.587  1.00  0.00     0.008 A 
HETATM    6  C   UNL     1       5.983   8.809  90.440  1.00  0.00     0.008 A 
ENDROOT
BRANCH   1   7
HETATM    7  C   UNL     1       4.697  12.151  89.337  1.00  0.00     0.254 C 
HETATM    8  O   UNL     1       4.575  12.552  88.183  1.00  0.00    -0.268 OA
HETATM    9  N   UNL     1       4.006  12.658  90.429  1.00  0.00    -0.337 N 
HETATM   10  HN  UNL     1       4.140  12.259  91.351  1.00  0.00     0.164 HD
BRANCH   9  11
HETATM   11  C   UNL     1       3.056  13.735  90.314  1.00  0.00     0.172 C 
BRANCH  11  12
HETATM   12  C   UNL     1       1.833  13.547  91.221  1.00  0.00     0.136 C 
HETATM   13  C   UNL     1       1.957  12.323  92.122  1.00  0.00     0.034 C 
BRANCH  12  14
HETATM   14  O   UNL     1       1.660  14.706  92.035  1.00  0.00    -0.383 OA
HETATM   15  H   UNL     1       2.426  14.778  92.630  1.00  0.00     0.210 HD
ENDBRANCH  12  14
ENDBRANCH  11  12
BRANCH  11  16
HETATM   16  C   UNL     1       3.785  15.036  90.629  1.00  0.00     0.398 A 
HETATM   17  O   UNL     1       4.830  15.370  90.072  1.00  0.00    -0.136 OA
HETATM   18  N   UNL     1       4.923  15.625  91.568  1.00  0.00     0.142 N 
HETATM   19  HN  UNL     1       5.805  15.968  91.309  1.00  0.00     0.338 HD
BRANCH  18  20
HETATM   20  S   UNL     1       4.386  15.256  92.796  1.00  0.00     0.076 SA
HETATM   21  H   UNL     1       4.833  15.797  93.755  1.00  0.00     0.136 HD
ENDBRANCH  18  20
ENDBRANCH  11  16
ENDBRANCH   9  11
ENDBRANCH   1   7
BRANCH   4  22
HETATM   22  C   UNL     1       8.232   7.847  90.417  1.00  0.00    -0.059 C 
HETATM   23  C   UNL     1       8.981   6.934  90.645  1.00  0.00    -0.059 C 
BRANCH  23  24
HETATM   24  C   UNL     1       9.872   5.847  90.915  1.00  0.00     0.042 A 
HETATM   25  C   UNL     1      10.128   5.468  92.232  1.00  0.00     0.008 A 
HETATM   26  C   UNL     1      10.998   4.411  92.496  1.00  0.00    -0.002 A 
HETATM   27  C   UNL     1      11.610   3.731  91.441  1.00  0.00     0.011 A 
HETATM   28  C   UNL     1      11.352   4.112  90.124  1.00  0.00    -0.002 A 
HETATM   29  C   UNL     1      10.482   5.170  89.861  1.00  0.00     0.008 A 
BRANCH  27  30
HETATM   30  C   UNL     1      12.538   2.600  91.724  1.00  0.00     0.277 C 
BRANCH  30  31
HETATM   31  N   UNL     1      13.538   2.939  92.735  1.00  0.00     0.147 N 
HETATM   32  C   UNL     1      14.352   1.764  93.076  1.00  0.00     0.283 C 
HETATM   33  C   UNL     1      15.395   2.144  94.124  1.00  0.00     0.178 C 
HETATM   34  O   UNL     1      16.224   3.202  93.639  1.00  0.00    -0.350 OA
HETATM   35  C   UNL     1      15.443   4.359  93.335  1.00  0.00     0.178 C 
HETATM   36  C   UNL     1      14.402   4.032  92.270  1.00  0.00     0.283 C 
ENDBRANCH  30  31
ENDBRANCH  27  30
ENDBRANCH  23  24
ENDBRANCH   4  22
TORSDOF 10
ENDMDL
