MODEL 1
REMARK VINA RESULT:      -7.0      0.000      0.000
REMARK  10 active torsions:
REMARK  status: ('A' for Active; 'I' for Inactive)
REMARK    1  A    between atoms: O_2  and  C_16 
REMARK    2  A    between atoms: N_5  and  C_9 
REMARK    3  A    between atoms: N_6  and  C_13 
REMARK       I    between atoms: N_6  and  C_22 
REMARK    4  A    between atoms: C_9  and  C_12 
REMARK    5  A    between atoms: C_13  and  C_16 
REMARK    6  A    between atoms: C_13  and  C_21 
REMARK    7  A    between atoms: C_19  and  C_24 
REMARK    8  A    between atoms: C_22  and  C_23 
REMARK    9  A    between atoms: C_27  and  C_30 
REMARK   10  A    between atoms: N_33  and  S_34 
ROOT
HETATM    1  C   UNL     1       5.685  10.911  89.565  1.00  0.00     0.056 A 
HETATM    2  C   UNL     1       5.159   9.666  89.839  1.00  0.00     0.005 A 
HETATM    3  C   UNL     1       7.044  11.148  89.548  1.00  0.00     0.005 A 
HETATM    4  C   UNL     1       7.409   8.825  90.098  1.00  0.00     0.042 A 
HETATM    5  C   UNL     1       6.030   8.610  90.109  1.00  0.00     0.008 A 
HETATM    6  C   UNL     1       7.916  10.094  89.817  1.00  0.00     0.008 A 
ENDROOT
BRANCH   1   7
HETATM    7  C   UNL     1       4.757  12.034  89.276  1.00  0.00     0.254 C 
HETATM    8  O   UNL     1       4.547  12.354  88.108  1.00  0.00    -0.268 OA
HETATM    9  N   UNL     1       4.166  12.634  90.379  1.00  0.00    -0.337 N 
HETATM   10  HN  UNL     1       4.369  12.300  91.314  1.00  0.00     0.164 HD
BRANCH   9  11
HETATM   11  C   UNL     1       3.226  13.720  90.261  1.00  0.00     0.172 C 
BRANCH  11  12
HETATM   12  C   UNL     1       1.952  13.494  91.085  1.00  0.00     0.136 C 
HETATM   13  C   UNL     1       2.143  12.452  92.182  1.00  0.00     0.034 C 
BRANCH  12  14
HETATM   14  O   UNL     1       1.545  14.725  91.682  1.00  0.00    -0.383 OA
HETATM   15  H   UNL     1       1.622  15.427  91.014  1.00  0.00     0.210 HD
ENDBRANCH  12  14
ENDBRANCH  11  12
BRANCH  11  16
HETATM   16  C   UNL     1       3.938  15.001  90.682  1.00  0.00     0.398 A 
HETATM   17  O   UNL     1       5.052  15.316  90.265  1.00  0.00    -0.136 OA
HETATM   18  N   UNL     1       4.962  15.554  91.764  1.00  0.00     0.142 N 
HETATM   19  HN  UNL     1       5.876  15.879  91.622  1.00  0.00     0.338 HD
BRANCH  18  20
HETATM   20  S   UNL     1       4.266  15.186  92.910  1.00  0.00     0.076 SA
HETATM   21  H   UNL     1       3.406  15.923  93.269  1.00  0.00     0.136 HD
ENDBRANCH  18  20
ENDBRANCH  11  16
ENDBRANCH   9  11
ENDBRANCH   1   7
BRANCH   4  22
HETATM   22  C   UNL     1       8.302   7.744  90.377  1.00  0.00    -0.059 C 
HETATM   23  C   UNL     1       9.052   6.834  90.612  1.00  0.00    -0.059 C 
BRANCH  23  24
HETATM   24  C   UNL     1       9.945   5.752  90.892  1.00  0.00     0.042 A 
HETATM   25  C   UNL     1      10.152   5.342  92.209  1.00  0.00     0.008 A 
HETATM   26  C   UNL     1      11.024   4.289  92.482  1.00  0.00    -0.002 A 
HETATM   27  C   UNL     1      11.687   3.644  91.437  1.00  0.00     0.011 A 
HETATM   28  C   UNL     1      11.479   4.054  90.121  1.00  0.00    -0.002 A 
HETATM   29  C   UNL     1      10.607   5.109  89.848  1.00  0.00     0.008 A 
BRANCH  27  30
HETATM   30  C   UNL     1      12.617   2.516  91.730  1.00  0.00     0.277 C 
BRANCH  30  31
HETATM   31  N   UNL     1      13.610   2.862  92.745  1.00  0.00     0.147 N 
HETATM   32  C   UNL     1      14.449   1.700  93.071  1.00  0.00     0.283 C 
HETATM   33  C   UNL     1      15.484   2.089  94.123  1.00  0.00     0.178 C 
HETATM   34  O   UNL     1      16.291   3.169  93.652  1.00  0.00    -0.350 OA
HETATM   35  C   UNL     1      15.487   4.313  93.362  1.00  0.00     0.178 C 
HETATM   36  C   UNL     1      14.452   3.979  92.293  1.00  0.00     0.283 C 
ENDBRANCH  30  31
ENDBRANCH  27  30
ENDBRANCH  23  24
ENDBRANCH   4  22
TORSDOF 10
ENDMDL
