MODEL 1
REMARK VINA RESULT:      -6.0      0.000      0.000
REMARK  12 active torsions:
REMARK  status: ('A' for Active; 'I' for Inactive)
REMARK    1  A    between atoms: O_2  and  C_16 
REMARK    2  A    between atoms: N_5  and  C_9 
REMARK    3  A    between atoms: N_6  and  C_13 
REMARK       I    between atoms: N_6  and  C_22 
REMARK    4  A    between atoms: C_9  and  C_12 
REMARK    5  A    between atoms: C_13  and  C_16 
REMARK    6  A    between atoms: C_13  and  C_21 
REMARK    7  A    between atoms: C_19  and  C_24 
REMARK    8  A    between atoms: C_21  and  C_33 
REMARK    9  A    between atoms: C_22  and  C_23 
REMARK   10  A    between atoms: C_27  and  C_30 
REMARK   11  A    between atoms: C_33  and  C_34 
REMARK   12  A    between atoms: C_34  and  C_35 
ROOT
HETATM    1  O   UNL     1      16.767   3.614  93.900  1.00  0.00    -0.350 OA
HETATM    2  N   UNL     1      14.233   3.038  92.740  1.00  0.00     0.147 N 
HETATM    3  C   UNL     1      15.242   1.988  92.942  1.00  0.00     0.283 C 
HETATM    4  C   UNL     1      14.891   4.337  92.544  1.00  0.00     0.283 C 
HETATM    5  C   UNL     1      16.137   2.352  94.124  1.00  0.00     0.178 C 
HETATM    6  C   UNL     1      15.794   4.645  93.734  1.00  0.00     0.178 C 
ENDROOT
BRANCH   2   7
HETATM    7  C   UNL     1      13.371   2.715  91.604  1.00  0.00     0.277 C 
BRANCH   7   8
HETATM    8  C   UNL     1      12.164   3.588  91.542  1.00  0.00     0.011 A 
HETATM    9  C   UNL     1      11.768   4.143  90.324  1.00  0.00    -0.002 A 
HETATM   10  C   UNL     1      10.640   4.961  90.265  1.00  0.00     0.008 A 
HETATM   11  C   UNL     1       9.908   5.224  91.422  1.00  0.00     0.042 A 
HETATM   12  C   UNL     1      10.303   4.670  92.639  1.00  0.00     0.008 A 
HETATM   13  C   UNL     1      11.431   3.852  92.699  1.00  0.00    -0.002 A 
BRANCH  11  14
HETATM   14  C   UNL     1       8.750   6.062  91.361  1.00  0.00    -0.059 C 
HETATM   15  C   UNL     1       7.778   6.767  91.309  1.00  0.00    -0.059 C 
BRANCH  15  16
HETATM   16  C   UNL     1       6.621   7.604  91.247  1.00  0.00     0.042 A 
HETATM   17  C   UNL     1       5.931   7.751  90.043  1.00  0.00     0.008 A 
HETATM   18  C   UNL     1       4.801   8.566  89.983  1.00  0.00     0.005 A 
HETATM   19  C   UNL     1       4.385   9.215  91.127  1.00  0.00     0.056 A 
HETATM   20  C   UNL     1       5.050   9.087  92.328  1.00  0.00     0.005 A 
HETATM   21  C   UNL     1       6.181   8.272  92.390  1.00  0.00     0.008 A 
BRANCH  19  22
HETATM   22  C   UNL     1       3.182  10.085  91.062  1.00  0.00     0.254 C 
HETATM   23  O   UNL     1       2.217   9.724  90.393  1.00  0.00    -0.268 OA
HETATM   24  N   UNL     1       3.239  11.257  91.803  1.00  0.00    -0.335 N 
HETATM   25  HN  UNL     1       4.061  11.477  92.353  1.00  0.00     0.164 HD
BRANCH  24  26
HETATM   26  C   UNL     1       2.144  12.191  91.861  1.00  0.00     0.166 C 
BRANCH  26  27
HETATM   27  C   UNL     1       1.491  12.255  93.248  1.00  0.00     0.138 C 
HETATM   28  C   UNL     1       1.315  10.877  93.875  1.00  0.00     0.034 C 
BRANCH  27  29
HETATM   29  O   UNL     1       2.291  13.060  94.115  1.00  0.00    -0.383 OA
HETATM   30  H   UNL     1       3.221  12.803  93.997  1.00  0.00     0.210 HD
ENDBRANCH  27  29
ENDBRANCH  26  27
BRANCH  26  31
HETATM   31  C   UNL     1       2.672  13.556  91.434  1.00  0.00     0.181 C 
HETATM   32  O   UNL     1       2.289  14.611  91.936  1.00  0.00    -0.294 OA
BRANCH  31  33
HETATM   33  C   UNL     1       4.292  13.608  91.455  1.00  0.00     0.138 C 
BRANCH  33  34
HETATM   34  C   UNL     1       4.552  14.490  90.383  1.00  0.00     0.208 C 
HETATM   35  O   UNL     1       5.143  15.508  90.662  1.00  0.00    -0.289 OA
BRANCH  34  36
HETATM   36  C   UNL     1       4.511  14.281  89.031  1.00  0.00     0.194 C 
HETATM   37  O   UNL     1       5.317  13.479  88.215  1.00  0.00    -0.185 OA
ENDBRANCH  34  36
ENDBRANCH  33  34
ENDBRANCH  31  33
ENDBRANCH  26  31
ENDBRANCH  24  26
ENDBRANCH  19  22
ENDBRANCH  15  16
ENDBRANCH  11  14
ENDBRANCH   7   8
ENDBRANCH   2   7
TORSDOF 12
ENDMDL
