MODEL 1
REMARK VINA RESULT:      -7.1      0.000      0.000
REMARK  10 active torsions:
REMARK  status: ('A' for Active; 'I' for Inactive)
REMARK    1  A    between atoms: O_2  and  C_18 
REMARK    2  A    between atoms: O_5  and  N_8 
REMARK    3  A    between atoms: N_6  and  C_11 
REMARK    4  A    between atoms: N_7  and  C_15 
REMARK       I    between atoms: N_7  and  C_24 
REMARK       I    between atoms: N_8  and  C_23 
REMARK    5  A    between atoms: C_11  and  C_14 
REMARK    6  A    between atoms: C_15  and  C_18 
REMARK    7  A    between atoms: C_15  and  C_23 
REMARK    8  A    between atoms: C_21  and  C_26 
REMARK    9  A    between atoms: C_24  and  C_25 
REMARK   10  A    between atoms: C_29  and  C_32 
ROOT
HETATM    1  O   UNK     0      16.534   4.231  94.122  0.00  0.00    -0.388 OA
HETATM    2  N   UNK     0      14.713   2.572  92.696  0.00  0.00     0.096 N 
HETATM    3  C   UNK     0      14.585   4.036  92.690  0.00  0.00     0.299 C 
HETATM    4  C   UNK     0      15.338   2.127  93.949  0.00  0.00     0.299 C 
HETATM    5  C   UNK     0      15.956   4.676  92.894  0.00  0.00     0.198 C 
HETATM    6  C   UNK     0      16.690   2.811  94.124  0.00  0.00     0.198 C 
ENDROOT
BRANCH   2   7
HETATM    7  C   UNK     0      13.408   1.938  92.513  0.00  0.00     0.311 C 
BRANCH   7   8
HETATM    8  C   UNK     0      12.348   2.917  92.138  0.00  0.00    -0.030 A 
HETATM    9  C   UNK     0      11.739   3.695  93.124  0.00  0.00     0.010 A 
HETATM   10  C   UNK     0      10.745   4.610  92.775  0.00  0.00     0.021 A 
HETATM   11  C   UNK     0      10.364   4.748  91.440  0.00  0.00     0.018 A 
HETATM   12  C   UNK     0      10.972   3.972  90.456  0.00  0.00     0.021 A 
HETATM   13  C   UNK     0      11.965   3.057  90.804  0.00  0.00     0.010 A 
BRANCH  11  14
HETATM   14  C   UNK     0       9.346   5.688  91.082  0.00  0.00    -0.061 C 
HETATM   15  C   UNK     0       8.491   6.478  90.782  0.00  0.00    -0.061 C 
BRANCH  15  16
HETATM   16  C   UNK     0       7.474   7.416  90.424  0.00  0.00     0.018 A 
HETATM   17  C   UNK     0       6.820   7.300  89.197  0.00  0.00     0.022 A 
HETATM   18  C   UNK     0       5.826   8.214  88.848  0.00  0.00     0.018 A 
HETATM   19  C   UNK     0       5.507   9.222  89.734  0.00  0.00     0.032 A 
HETATM   20  C   UNK     0       6.139   9.359  90.952  0.00  0.00     0.018 A 
HETATM   21  C   UNK     0       7.134   8.446  91.301  0.00  0.00     0.022 A 
BRANCH  19  22
HETATM   22  C   UNK     0       4.449  10.197  89.361  0.00  0.00     0.252 C 
HETATM   23  O   UNK     0       3.645   9.901  88.481  0.00  0.00    -0.268 OA
HETATM   24  N   UNK     0       4.440  11.387  90.075  0.00  0.00    -0.341 N 
HETATM   25  H   UNK     0       5.121  11.551  90.807  0.00  0.00     0.163 HD
BRANCH  24  26
HETATM   26  C   UNK     0       3.462  12.420  89.847  0.00  0.00     0.207 C 
BRANCH  26  27
HETATM   27  C   UNK     0       3.007  13.103  91.143  0.00  0.00     0.146 C 
HETATM   28  C   UNK     0       2.140  12.194  92.008  0.00  0.00     0.042 C 
BRANCH  27  29
HETATM   29  O   UNK     0       4.149  13.508  91.897  0.00  0.00    -0.393 OA
HETATM   30  H   UNK     0       3.843  14.030  92.657  0.00  0.00     0.210 HD
ENDBRANCH  27  29
ENDBRANCH  26  27
BRANCH  26  31
HETATM   31  C   UNK     0       4.067  13.427  88.874  0.00  0.00     0.266 C 
HETATM   32  O   UNK     0       4.272  14.603  89.168  0.00  0.00    -0.269 OA
HETATM   33  N   UNK     0       4.311  12.874  87.640  0.00  0.00    -0.236 N 
HETATM   34  H   UNK     0       4.073  11.936  87.338  0.00  0.00     0.197 HD
BRANCH  33  35
HETATM   35  O   UNK     0       4.833  13.745  86.673  0.00  0.00    -0.287 OA
HETATM   36  H   UNK     0       5.494  13.166  86.256  0.00  0.00     0.244 HD
ENDBRANCH  33  35
ENDBRANCH  26  31
ENDBRANCH  24  26
ENDBRANCH  19  22
ENDBRANCH  15  16
ENDBRANCH  11  14
ENDBRANCH   7   8
ENDBRANCH   2   7
TORSDOF 10
ENDMDL
MODEL 2
REMARK VINA RESULT:      -6.4      1.530      2.110
REMARK  10 active torsions:
REMARK  status: ('A' for Active; 'I' for Inactive)
REMARK    1  A    between atoms: O_2  and  C_18 
REMARK    2  A    between atoms: O_5  and  N_8 
REMARK    3  A    between atoms: N_6  and  C_11 
REMARK    4  A    between atoms: N_7  and  C_15 
REMARK       I    between atoms: N_7  and  C_24 
REMARK       I    between atoms: N_8  and  C_23 
REMARK    5  A    between atoms: C_11  and  C_14 
REMARK    6  A    between atoms: C_15  and  C_18 
REMARK    7  A    between atoms: C_15  and  C_23 
REMARK    8  A    between atoms: C_21  and  C_26 
REMARK    9  A    between atoms: C_24  and  C_25 
REMARK   10  A    between atoms: C_29  and  C_32 
ROOT
HETATM    1  O   UNK     0      16.456   3.139  93.837  0.00  0.00    -0.388 OA
HETATM    2  N   UNK     0      13.850   2.837  92.734  0.00  0.00     0.096 N 
HETATM    3  C   UNK     0      14.724   1.679  92.968  0.00  0.00     0.299 C 
HETATM    4  C   UNK     0      14.660   4.034  92.474  0.00  0.00     0.299 C 
HETATM    5  C   UNK     0      15.677   1.975  94.122  0.00  0.00     0.198 C 
HETATM    6  C   UNK     0      15.615   4.276  93.639  0.00  0.00     0.198 C 
ENDROOT
BRANCH   2   7
HETATM    7  C   UNK     0      12.935   2.578  91.624  0.00  0.00     0.311 C 
BRANCH   7   8
HETATM    8  C   UNK     0      11.815   3.561  91.570  0.00  0.00    -0.030 A 
HETATM    9  C   UNK     0      11.272   4.063  92.754  0.00  0.00     0.010 A 
HETATM   10  C   UNK     0      10.222   4.980  92.706  0.00  0.00     0.021 A 
HETATM   11  C   UNK     0       9.719   5.397  91.474  0.00  0.00     0.018 A 
HETATM   12  C   UNK     0      10.260   4.897  90.292  0.00  0.00     0.021 A 
HETATM   13  C   UNK     0      11.309   3.979  90.340  0.00  0.00     0.010 A 
BRANCH  11  14
HETATM   14  C   UNK     0       8.644   6.340  91.424  0.00  0.00    -0.061 C 
HETATM   15  C   UNK     0       7.740   7.133  91.383  0.00  0.00    -0.061 C 
BRANCH  15  16
HETATM   16  C   UNK     0       6.667   8.075  91.332  0.00  0.00     0.018 A 
HETATM   17  C   UNK     0       6.847   9.363  91.838  0.00  0.00     0.022 A 
HETATM   18  C   UNK     0       5.801  10.284  91.787  0.00  0.00     0.018 A 
HETATM   19  C   UNK     0       4.599   9.898  91.231  0.00  0.00     0.032 A 
HETATM   20  C   UNK     0       4.396   8.631  90.725  0.00  0.00     0.018 A 
HETATM   21  C   UNK     0       5.442   7.710  90.776  0.00  0.00     0.022 A 
BRANCH  19  22
HETATM   22  C   UNK     0       3.484  10.879  91.179  0.00  0.00     0.252 C 
HETATM   23  O   UNK     0       2.382  10.513  90.779  0.00  0.00    -0.268 OA
HETATM   24  N   UNK     0       3.780  12.160  91.622  0.00  0.00    -0.341 N 
HETATM   25  H   UNK     0       4.708  12.383  91.962  0.00  0.00     0.163 HD
BRANCH  24  26
HETATM   26  C   UNK     0       2.800  13.215  91.655  0.00  0.00     0.207 C 
BRANCH  26  27
HETATM   27  C   UNK     0       2.822  14.005  92.970  0.00  0.00     0.146 C 
HETATM   28  C   UNK     0       4.238  14.269  93.469  0.00  0.00     0.042 C 
BRANCH  27  29
HETATM   29  O   UNK     0       2.154  15.253  92.789  0.00  0.00    -0.393 OA
HETATM   30  H   UNK     0       2.299  15.546  91.874  0.00  0.00     0.210 HD
ENDBRANCH  27  29
ENDBRANCH  26  27
BRANCH  26  31
HETATM   31  C   UNK     0       3.053  14.125  90.458  0.00  0.00     0.266 C 
HETATM   32  O   UNK     0       2.160  14.500  89.701  0.00  0.00    -0.269 OA
HETATM   33  N   UNK     0       4.384  14.434  90.313  0.00  0.00    -0.236 N 
HETATM   34  H   UNK     0       5.154  14.071  90.863  0.00  0.00     0.197 HD
BRANCH  33  35
HETATM   35  O   UNK     0       4.708  15.237  89.211  0.00  0.00    -0.287 OA
HETATM   36  H   UNK     0       4.160  14.821  88.524  0.00  0.00     0.244 HD
ENDBRANCH  33  35
ENDBRANCH  26  31
ENDBRANCH  24  26
ENDBRANCH  19  22
ENDBRANCH  15  16
ENDBRANCH  11  14
ENDBRANCH   7   8
ENDBRANCH   2   7
TORSDOF 10
ENDMDL
MODEL 3
REMARK VINA RESULT:      -6.3      1.726      2.087
REMARK  10 active torsions:
REMARK  status: ('A' for Active; 'I' for Inactive)
REMARK    1  A    between atoms: O_2  and  C_18 
REMARK    2  A    between atoms: O_5  and  N_8 
REMARK    3  A    between atoms: N_6  and  C_11 
REMARK    4  A    between atoms: N_7  and  C_15 
REMARK       I    between atoms: N_7  and  C_24 
REMARK       I    between atoms: N_8  and  C_23 
REMARK    5  A    between atoms: C_11  and  C_14 
REMARK    6  A    between atoms: C_15  and  C_18 
REMARK    7  A    between atoms: C_15  and  C_23 
REMARK    8  A    between atoms: C_21  and  C_26 
REMARK    9  A    between atoms: C_24  and  C_25 
REMARK   10  A    between atoms: C_29  and  C_32 
ROOT
HETATM    1  O   UNK     0      16.439   4.106  94.124  0.00  0.00    -0.388 OA
HETATM    2  N   UNK     0      14.533   2.613  92.627  0.00  0.00     0.096 N 
HETATM    3  C   UNK     0      14.532   4.083  92.623  0.00  0.00     0.299 C 
HETATM    4  C   UNK     0      15.073   2.114  93.898  0.00  0.00     0.299 C 
HETATM    5  C   UNK     0      15.944   4.602  92.878  0.00  0.00     0.198 C 
HETATM    6  C   UNK     0      16.473   2.679  94.124  0.00  0.00     0.198 C 
ENDROOT
BRANCH   2   7
HETATM    7  C   UNK     0      13.187   2.093  92.394  0.00  0.00     0.311 C 
BRANCH   7   8
HETATM    8  C   UNK     0      12.153   3.167  92.407  0.00  0.00    -0.030 A 
HETATM    9  C   UNK     0      11.984   3.957  93.545  0.00  0.00     0.010 A 
HETATM   10  C   UNK     0      11.016   4.961  93.559  0.00  0.00     0.021 A 
HETATM   11  C   UNK     0      10.219   5.176  92.435  0.00  0.00     0.018 A 
HETATM   12  C   UNK     0      10.387   4.388  91.299  0.00  0.00     0.021 A 
HETATM   13  C   UNK     0      11.355   3.383  91.284  0.00  0.00     0.010 A 
BRANCH  11  14
HETATM   14  C   UNK     0       9.227   6.207  92.449  0.00  0.00    -0.061 C 
HETATM   15  C   UNK     0       8.394   7.074  92.462  0.00  0.00    -0.061 C 
BRANCH  15  16
HETATM   16  C   UNK     0       7.403   8.103  92.476  0.00  0.00     0.018 A 
HETATM   17  C   UNK     0       6.049   7.765  92.526  0.00  0.00     0.022 A 
HETATM   18  C   UNK     0       5.082   8.770  92.542  0.00  0.00     0.018 A 
HETATM   19  C   UNK     0       5.487  10.087  92.508  0.00  0.00     0.032 A 
HETATM   20  C   UNK     0       6.818  10.447  92.458  0.00  0.00     0.018 A 
HETATM   21  C   UNK     0       7.786   9.443  92.441  0.00  0.00     0.022 A 
BRANCH  19  22
HETATM   22  C   UNK     0       4.455  11.157  92.523  0.00  0.00     0.252 C 
HETATM   23  O   UNK     0       3.611  11.163  93.416  0.00  0.00    -0.268 OA
HETATM   24  N   UNK     0       4.546  12.103  91.513  0.00  0.00    -0.341 N 
HETATM   25  H   UNK     0       5.287  12.048  90.823  0.00  0.00     0.163 HD
BRANCH  24  26
HETATM   26  C   UNK     0       3.635  13.214  91.407  0.00  0.00     0.207 C 
BRANCH  26  27
HETATM   27  C   UNK     0       4.230  14.523  91.940  0.00  0.00     0.146 C 
HETATM   28  C   UNK     0       5.010  15.287  90.876  0.00  0.00     0.042 C 
BRANCH  27  29
HETATM   29  O   UNK     0       3.182  15.357  92.434  0.00  0.00    -0.393 OA
HETATM   30  H   UNK     0       3.402  16.280  92.223  0.00  0.00     0.210 HD
ENDBRANCH  27  29
ENDBRANCH  26  27
BRANCH  26  31
HETATM   31  C   UNK     0       3.229  13.346  89.942  0.00  0.00     0.266 C 
HETATM   32  O   UNK     0       2.360  14.124  89.555  0.00  0.00    -0.269 OA
HETATM   33  N   UNK     0       3.917  12.474  89.133  0.00  0.00    -0.236 N 
HETATM   34  H   UNK     0       4.572  11.760  89.429  0.00  0.00     0.197 HD
BRANCH  33  35
HETATM   35  O   UNK     0       3.575  12.505  87.773  0.00  0.00    -0.287 OA
HETATM   36  H   UNK     0       3.226  13.409  87.702  0.00  0.00     0.244 HD
ENDBRANCH  33  35
ENDBRANCH  26  31
ENDBRANCH  24  26
ENDBRANCH  19  22
ENDBRANCH  15  16
ENDBRANCH  11  14
ENDBRANCH   7   8
ENDBRANCH   2   7
TORSDOF 10
ENDMDL
MODEL 4
REMARK VINA RESULT:      -5.1      2.108      2.628
REMARK  10 active torsions:
REMARK  status: ('A' for Active; 'I' for Inactive)
REMARK    1  A    between atoms: O_2  and  C_18 
REMARK    2  A    between atoms: O_5  and  N_8 
REMARK    3  A    between atoms: N_6  and  C_11 
REMARK    4  A    between atoms: N_7  and  C_15 
REMARK       I    between atoms: N_7  and  C_24 
REMARK       I    between atoms: N_8  and  C_23 
REMARK    5  A    between atoms: C_11  and  C_14 
REMARK    6  A    between atoms: C_15  and  C_18 
REMARK    7  A    between atoms: C_15  and  C_23 
REMARK    8  A    between atoms: C_21  and  C_26 
REMARK    9  A    between atoms: C_24  and  C_25 
REMARK   10  A    between atoms: C_29  and  C_32 
ROOT
HETATM    1  O   UNK     0      16.704   2.660  92.876  0.00  0.00    -0.388 OA
HETATM    2  N   UNK     0      13.864   2.773  93.026  0.00  0.00     0.096 N 
HETATM    3  C   UNK     0      14.642   1.869  93.883  0.00  0.00     0.299 C 
HETATM    4  C   UNK     0      14.576   3.007  91.763  0.00  0.00     0.299 C 
HETATM    5  C   UNK     0      16.033   2.451  94.120  0.00  0.00     0.198 C 
HETATM    6  C   UNK     0      15.969   3.562  92.049  0.00  0.00     0.198 C 
ENDROOT
BRANCH   2   7
HETATM    7  C   UNK     0      12.530   2.230  92.776  0.00  0.00     0.311 C 
BRANCH   7   8
HETATM    8  C   UNK     0      11.476   3.284  92.784  0.00  0.00    -0.030 A 
HETATM    9  C   UNK     0      11.566   4.351  93.679  0.00  0.00     0.010 A 
HETATM   10  C   UNK     0      10.579   5.337  93.689  0.00  0.00     0.021 A 
HETATM   11  C   UNK     0       9.505   5.257  92.803  0.00  0.00     0.018 A 
HETATM   12  C   UNK     0       9.415   4.191  91.909  0.00  0.00     0.021 A 
HETATM   13  C   UNK     0      10.401   3.205  91.899  0.00  0.00     0.010 A 
BRANCH  11  14
HETATM   14  C   UNK     0       8.495   6.269  92.812  0.00  0.00    -0.061 C 
HETATM   15  C   UNK     0       7.645   7.120  92.819  0.00  0.00    -0.061 C 
BRANCH  15  16
HETATM   16  C   UNK     0       6.636   8.131  92.827  0.00  0.00     0.018 A 
HETATM   17  C   UNK     0       6.989   9.469  92.645  0.00  0.00     0.022 A 
HETATM   18  C   UNK     0       6.004  10.457  92.650  0.00  0.00     0.018 A 
HETATM   19  C   UNK     0       4.689  10.086  92.836  0.00  0.00     0.032 A 
HETATM   20  C   UNK     0       4.314   8.771  93.018  0.00  0.00     0.018 A 
HETATM   21  C   UNK     0       5.298   7.783  93.014  0.00  0.00     0.022 A 
BRANCH  19  22
HETATM   22  C   UNK     0       3.640  11.138  92.843  0.00  0.00     0.252 C 
HETATM   23  O   UNK     0       2.588  10.933  93.445  0.00  0.00    -0.268 OA
HETATM   24  N   UNK     0       3.952  12.312  92.171  0.00  0.00    -0.341 N 
HETATM   25  H   UNK     0       4.852  12.420  91.718  0.00  0.00     0.163 HD
BRANCH  24  26
HETATM   26  C   UNK     0       3.049  13.433  92.109  0.00  0.00     0.207 C 
BRANCH  26  27
HETATM   27  C   UNK     0       3.494  14.603  92.995  0.00  0.00     0.146 C 
HETATM   28  C   UNK     0       4.497  14.179  94.062  0.00  0.00     0.042 C 
BRANCH  27  29
HETATM   29  O   UNK     0       4.083  15.619  92.184  0.00  0.00    -0.393 OA
HETATM   30  H   UNK     0       3.934  16.478  92.615  0.00  0.00     0.210 HD
ENDBRANCH  27  29
ENDBRANCH  26  27
BRANCH  26  31
HETATM   31  C   UNK     0       2.932  13.857  90.649  0.00  0.00     0.266 C 
HETATM   32  O   UNK     0       1.891  14.289  90.158  0.00  0.00    -0.269 OA
HETATM   33  N   UNK     0       4.103  13.662  89.956  0.00  0.00    -0.236 N 
HETATM   34  H   UNK     0       4.949  13.227  90.305  0.00  0.00     0.197 HD
BRANCH  33  35
HETATM   35  O   UNK     0       4.068  13.991  88.594  0.00  0.00    -0.287 OA
HETATM   36  H   UNK     0       5.003  14.213  88.444  0.00  0.00     0.244 HD
ENDBRANCH  33  35
ENDBRANCH  26  31
ENDBRANCH  24  26
ENDBRANCH  19  22
ENDBRANCH  15  16
ENDBRANCH  11  14
ENDBRANCH   7   8
ENDBRANCH   2   7
TORSDOF 10
ENDMDL
MODEL 5
REMARK VINA RESULT:      -5.0      1.885     12.396
REMARK  10 active torsions:
REMARK  status: ('A' for Active; 'I' for Inactive)
REMARK    1  A    between atoms: O_2  and  C_18 
REMARK    2  A    between atoms: O_5  and  N_8 
REMARK    3  A    between atoms: N_6  and  C_11 
REMARK    4  A    between atoms: N_7  and  C_15 
REMARK       I    between atoms: N_7  and  C_24 
REMARK       I    between atoms: N_8  and  C_23 
REMARK    5  A    between atoms: C_11  and  C_14 
REMARK    6  A    between atoms: C_15  and  C_18 
REMARK    7  A    between atoms: C_15  and  C_23 
REMARK    8  A    between atoms: C_21  and  C_26 
REMARK    9  A    between atoms: C_24  and  C_25 
REMARK   10  A    between atoms: C_29  and  C_32 
ROOT
HETATM    1  O   UNK     0       5.557  14.654  88.604  0.00  0.00    -0.388 OA
HETATM    2  N   UNK     0       3.661  13.082  90.030  0.00  0.00     0.096 N 
HETATM    3  C   UNK     0       4.251  14.293  90.617  0.00  0.00     0.299 C 
HETATM    4  C   UNK     0       4.600  12.475  89.077  0.00  0.00     0.299 C 
HETATM    5  C   UNK     0       4.639  15.269  89.509  0.00  0.00     0.198 C 
HETATM    6  C   UNK     0       4.980  13.493  88.005  0.00  0.00     0.198 C 
ENDROOT
BRANCH   2   7
HETATM    7  C   UNK     0       3.292  12.127  91.074  0.00  0.00     0.311 C 
BRANCH   7   8
HETATM    8  C   UNK     0       4.333  11.080  91.280  0.00  0.00    -0.030 A 
HETATM    9  C   UNK     0       5.547  11.413  91.881  0.00  0.00     0.010 A 
HETATM   10  C   UNK     0       6.522  10.434  92.072  0.00  0.00     0.021 A 
HETATM   11  C   UNK     0       6.282   9.123  91.663  0.00  0.00     0.018 A 
HETATM   12  C   UNK     0       5.070   8.789  91.063  0.00  0.00     0.021 A 
HETATM   13  C   UNK     0       4.095   9.768  90.871  0.00  0.00     0.010 A 
BRANCH  11  14
HETATM   14  C   UNK     0       7.282   8.119  91.861  0.00  0.00    -0.061 C 
HETATM   15  C   UNK     0       8.122   7.275  92.027  0.00  0.00    -0.061 C 
BRANCH  15  16
HETATM   16  C   UNK     0       9.120   6.272  92.223  0.00  0.00     0.018 A 
HETATM   17  C   UNK     0       9.529   5.939  93.516  0.00  0.00     0.022 A 
HETATM   18  C   UNK     0      10.502   4.958  93.708  0.00  0.00     0.018 A 
HETATM   19  C   UNK     0      11.045   4.332  92.605  0.00  0.00     0.032 A 
HETATM   20  C   UNK     0      10.659   4.643  91.318  0.00  0.00     0.018 A 
HETATM   21  C   UNK     0       9.686   5.625  91.125  0.00  0.00     0.022 A 
BRANCH  19  22
HETATM   22  C   UNK     0      12.083   3.289  92.810  0.00  0.00     0.252 C 
HETATM   23  O   UNK     0      11.952   2.197  92.263  0.00  0.00    -0.268 OA
HETATM   24  N   UNK     0      13.160   3.652  93.607  0.00  0.00    -0.341 N 
HETATM   25  H   UNK     0      13.213   4.582  94.005  0.00  0.00     0.163 HD
BRANCH  24  26
HETATM   26  C   UNK     0      14.258   2.759  93.879  0.00  0.00     0.207 C 
BRANCH  26  27
HETATM   27  C   UNK     0      14.395   1.649  92.830  0.00  0.00     0.146 C 
HETATM   28  C   UNK     0      15.235   2.077  91.632  0.00  0.00     0.042 C 
BRANCH  27  29
HETATM   29  O   UNK     0      14.992   0.498  93.427  0.00  0.00    -0.393 OA
HETATM   30  H   UNK     0      14.828  -0.266  92.849  0.00  0.00     0.210 HD
ENDBRANCH  27  29
ENDBRANCH  26  27
BRANCH  26  31
HETATM   31  C   UNK     0      15.529   3.598  93.968  0.00  0.00     0.266 C 
HETATM   32  O   UNK     0      16.645   3.107  94.123  0.00  0.00    -0.269 OA
HETATM   33  N   UNK     0      15.268   4.945  93.893  0.00  0.00    -0.236 N 
HETATM   34  H   UNK     0      14.356   5.385  93.854  0.00  0.00     0.197 HD
BRANCH  33  35
HETATM   35  O   UNK     0      16.382   5.789  94.005  0.00  0.00    -0.287 OA
HETATM   36  H   UNK     0      16.058   6.416  94.673  0.00  0.00     0.244 HD
ENDBRANCH  33  35
ENDBRANCH  26  31
ENDBRANCH  24  26
ENDBRANCH  19  22
ENDBRANCH  15  16
ENDBRANCH  11  14
ENDBRANCH   7   8
ENDBRANCH   2   7
TORSDOF 10
ENDMDL
MODEL 6
REMARK VINA RESULT:      -5.0      2.614     12.385
REMARK  10 active torsions:
REMARK  status: ('A' for Active; 'I' for Inactive)
REMARK    1  A    between atoms: O_2  and  C_18 
REMARK    2  A    between atoms: O_5  and  N_8 
REMARK    3  A    between atoms: N_6  and  C_11 
REMARK    4  A    between atoms: N_7  and  C_15 
REMARK       I    between atoms: N_7  and  C_24 
REMARK       I    between atoms: N_8  and  C_23 
REMARK    5  A    between atoms: C_11  and  C_14 
REMARK    6  A    between atoms: C_15  and  C_18 
REMARK    7  A    between atoms: C_15  and  C_23 
REMARK    8  A    between atoms: C_21  and  C_26 
REMARK    9  A    between atoms: C_24  and  C_25 
REMARK   10  A    between atoms: C_29  and  C_32 
ROOT
HETATM    1  O   UNK     0       2.992  14.772  93.732  0.00  0.00    -0.388 OA
HETATM    2  N   UNK     0       2.900  14.395  90.912  0.00  0.00     0.096 N 
HETATM    3  C   UNK     0       1.934  13.741  91.806  0.00  0.00     0.299 C 
HETATM    4  C   UNK     0       4.170  14.614  91.617  0.00  0.00     0.299 C 
HETATM    5  C   UNK     0       1.742  14.584  93.065  0.00  0.00     0.198 C 
HETATM    6  C   UNK     0       3.926  15.435  92.880  0.00  0.00     0.198 C 
ENDROOT
BRANCH   2   7
HETATM    7  C   UNK     0       3.107  13.600  89.703  0.00  0.00     0.311 C 
BRANCH   7   8
HETATM    8  C   UNK     0       4.111  12.515  89.902  0.00  0.00    -0.030 A 
HETATM    9  C   UNK     0       3.826  11.451  90.759  0.00  0.00     0.010 A 
HETATM   10  C   UNK     0       4.765  10.437  90.947  0.00  0.00     0.021 A 
HETATM   11  C   UNK     0       5.987  10.487  90.278  0.00  0.00     0.018 A 
HETATM   12  C   UNK     0       6.272  11.548  89.422  0.00  0.00     0.021 A 
HETATM   13  C   UNK     0       5.334  12.563  89.234  0.00  0.00     0.010 A 
BRANCH  11  14
HETATM   14  C   UNK     0       6.949   9.445  90.470  0.00  0.00    -0.061 C 
HETATM   15  C   UNK     0       7.758   8.570  90.631  0.00  0.00    -0.061 C 
BRANCH  15  16
HETATM   16  C   UNK     0       8.719   7.531  90.822  0.00  0.00     0.018 A 
HETATM   17  C   UNK     0       9.223   6.837  89.721  0.00  0.00     0.022 A 
HETATM   18  C   UNK     0      10.163   5.824  89.907  0.00  0.00     0.018 A 
HETATM   19  C   UNK     0      10.580   5.527  91.187  0.00  0.00     0.032 A 
HETATM   20  C   UNK     0      10.097   6.197  92.292  0.00  0.00     0.018 A 
HETATM   21  C   UNK     0       9.156   7.210  92.107  0.00  0.00     0.022 A 
BRANCH  19  22
HETATM   22  C   UNK     0      11.580   4.446  91.385  0.00  0.00     0.252 C 
HETATM   23  O   UNK     0      11.939   3.778  90.418  0.00  0.00    -0.268 OA
HETATM   24  N   UNK     0      12.059   4.290  92.678  0.00  0.00    -0.341 N 
HETATM   25  H   UNK     0      11.734   4.896  93.422  0.00  0.00     0.163 HD
BRANCH  24  26
HETATM   26  C   UNK     0      13.050   3.302  93.024  0.00  0.00     0.207 C 
BRANCH  26  27
HETATM   27  C   UNK     0      12.983   2.056  92.131  0.00  0.00     0.146 C 
HETATM   28  C   UNK     0      14.008   1.000  92.526  0.00  0.00     0.042 C 
BRANCH  27  29
HETATM   29  O   UNK     0      11.677   1.485  92.205  0.00  0.00    -0.393 OA
HETATM   30  H   UNK     0      11.099   1.965  91.589  0.00  0.00     0.210 HD
ENDBRANCH  27  29
ENDBRANCH  26  27
BRANCH  26  31
HETATM   31  C   UNK     0      14.419   3.968  92.944  0.00  0.00     0.266 C 
HETATM   32  O   UNK     0      14.751   4.710  92.021  0.00  0.00    -0.269 OA
HETATM   33  N   UNK     0      15.232   3.610  93.992  0.00  0.00    -0.236 N 
HETATM   34  H   UNK     0      15.024   2.934  94.718  0.00  0.00     0.197 HD
BRANCH  33  35
HETATM   35  O   UNK     0      16.526   4.151  93.973  0.00  0.00    -0.287 OA
HETATM   36  H   UNK     0      16.891   3.703  93.191  0.00  0.00     0.244 HD
ENDBRANCH  33  35
ENDBRANCH  26  31
ENDBRANCH  24  26
ENDBRANCH  19  22
ENDBRANCH  15  16
ENDBRANCH  11  14
ENDBRANCH   7   8
ENDBRANCH   2   7
TORSDOF 10
ENDMDL
MODEL 7
REMARK VINA RESULT:      -4.7      2.260     12.623
REMARK  10 active torsions:
REMARK  status: ('A' for Active; 'I' for Inactive)
REMARK    1  A    between atoms: O_2  and  C_18 
REMARK    2  A    between atoms: O_5  and  N_8 
REMARK    3  A    between atoms: N_6  and  C_11 
REMARK    4  A    between atoms: N_7  and  C_15 
REMARK       I    between atoms: N_7  and  C_24 
REMARK       I    between atoms: N_8  and  C_23 
REMARK    5  A    between atoms: C_11  and  C_14 
REMARK    6  A    between atoms: C_15  and  C_18 
REMARK    7  A    between atoms: C_15  and  C_23 
REMARK    8  A    between atoms: C_21  and  C_26 
REMARK    9  A    between atoms: C_24  and  C_25 
REMARK   10  A    between atoms: C_29  and  C_32 
ROOT
HETATM    1  O   UNK     0       2.916  14.231  92.545  0.00  0.00    -0.388 OA
HETATM    2  N   UNK     0       3.839  13.865  89.878  0.00  0.00     0.096 N 
HETATM    3  C   UNK     0       2.666  13.143  90.390  0.00  0.00     0.299 C 
HETATM    4  C   UNK     0       4.766  14.164  90.977  0.00  0.00     0.299 C 
HETATM    5  C   UNK     0       1.993  13.964  91.488  0.00  0.00     0.198 C 
HETATM    6  C   UNK     0       4.045  14.959  92.061  0.00  0.00     0.198 C 
ENDROOT
BRANCH   2   7
HETATM    7  C   UNK     0       4.506  13.092  88.832  0.00  0.00     0.311 C 
BRANCH   7   8
HETATM    8  C   UNK     0       5.378  12.018  89.387  0.00  0.00    -0.030 A 
HETATM    9  C   UNK     0       6.679  11.860  88.909  0.00  0.00     0.010 A 
HETATM   10  C   UNK     0       7.495  10.854  89.426  0.00  0.00     0.021 A 
HETATM   11  C   UNK     0       7.010  10.009  90.424  0.00  0.00     0.018 A 
HETATM   12  C   UNK     0       5.711  10.166  90.903  0.00  0.00     0.021 A 
HETATM   13  C   UNK     0       4.895  11.171  90.385  0.00  0.00     0.010 A 
BRANCH  11  14
HETATM   14  C   UNK     0       7.848   8.979  90.956  0.00  0.00    -0.061 C 
HETATM   15  C   UNK     0       8.553   8.113  91.403  0.00  0.00    -0.061 C 
BRANCH  15  16
HETATM   16  C   UNK     0       9.389   7.083  91.934  0.00  0.00     0.018 A 
HETATM   17  C   UNK     0       9.718   7.083  93.291  0.00  0.00     0.022 A 
HETATM   18  C   UNK     0      10.532   6.077  93.810  0.00  0.00     0.018 A 
HETATM   19  C   UNK     0      11.000   5.094  92.962  0.00  0.00     0.032 A 
HETATM   20  C   UNK     0      10.690   5.072  91.619  0.00  0.00     0.018 A 
HETATM   21  C   UNK     0       9.876   6.078  91.099  0.00  0.00     0.022 A 
BRANCH  19  22
HETATM   22  C   UNK     0      11.869   4.023  93.516  0.00  0.00     0.252 C 
HETATM   23  O   UNK     0      11.355   3.087  94.124  0.00  0.00    -0.268 OA
HETATM   24  N   UNK     0      13.229   4.158  93.273  0.00  0.00    -0.341 N 
HETATM   25  H   UNK     0      13.579   4.946  92.740  0.00  0.00     0.163 HD
BRANCH  24  26
HETATM   26  C   UNK     0      14.197   3.190  93.723  0.00  0.00     0.207 C 
BRANCH  26  27
HETATM   27  C   UNK     0      14.219   1.925  92.856  0.00  0.00     0.146 C 
HETATM   28  C   UNK     0      15.053   2.098  91.592  0.00  0.00     0.042 C 
BRANCH  27  29
HETATM   29  O   UNK     0      14.745   0.836  93.614  0.00  0.00    -0.393 OA
HETATM   30  H   UNK     0      14.561   0.012  93.132  0.00  0.00     0.210 HD
ENDBRANCH  27  29
ENDBRANCH  26  27
BRANCH  26  31
HETATM   31  C   UNK     0      15.561   3.872  93.744  0.00  0.00     0.266 C 
HETATM   32  O   UNK     0      15.727   5.048  93.427  0.00  0.00    -0.269 OA
HETATM   33  N   UNK     0      16.565   3.011  94.116  0.00  0.00    -0.236 N 
HETATM   34  H   UNK     0      16.477   2.017  94.296  0.00  0.00     0.197 HD
BRANCH  33  35
HETATM   35  O   UNK     0      17.860   3.550  94.124  0.00  0.00    -0.287 OA
HETATM   36  H   UNK     0      17.653   4.498  94.184  0.00  0.00     0.244 HD
ENDBRANCH  33  35
ENDBRANCH  26  31
ENDBRANCH  24  26
ENDBRANCH  19  22
ENDBRANCH  15  16
ENDBRANCH  11  14
ENDBRANCH   7   8
ENDBRANCH   2   7
TORSDOF 10
ENDMDL
MODEL 8
REMARK VINA RESULT:      -4.6      1.831      2.855
REMARK  10 active torsions:
REMARK  status: ('A' for Active; 'I' for Inactive)
REMARK    1  A    between atoms: O_2  and  C_18 
REMARK    2  A    between atoms: O_5  and  N_8 
REMARK    3  A    between atoms: N_6  and  C_11 
REMARK    4  A    between atoms: N_7  and  C_15 
REMARK       I    between atoms: N_7  and  C_24 
REMARK       I    between atoms: N_8  and  C_23 
REMARK    5  A    between atoms: C_11  and  C_14 
REMARK    6  A    between atoms: C_15  and  C_18 
REMARK    7  A    between atoms: C_15  and  C_23 
REMARK    8  A    between atoms: C_21  and  C_26 
REMARK    9  A    between atoms: C_24  and  C_25 
REMARK   10  A    between atoms: C_29  and  C_32 
ROOT
HETATM    1  O   UNK     0      15.687   4.722  92.380  0.00  0.00    -0.388 OA
HETATM    2  N   UNK     0      13.681   2.790  92.963  0.00  0.00     0.096 N 
HETATM    3  C   UNK     0      13.955   3.219  91.585  0.00  0.00     0.299 C 
HETATM    4  C   UNK     0      13.998   3.875  93.901  0.00  0.00     0.299 C 
HETATM    5  C   UNK     0      15.411   3.662  91.462  0.00  0.00     0.198 C 
HETATM    6  C   UNK     0      15.452   4.303  93.725  0.00  0.00     0.198 C 
ENDROOT
BRANCH   2   7
HETATM    7  C   UNK     0      12.287   2.370  93.107  0.00  0.00     0.311 C 
BRANCH   7   8
HETATM    8  C   UNK     0      11.331   3.491  92.881  0.00  0.00    -0.030 A 
HETATM    9  C   UNK     0      11.283   4.557  93.780  0.00  0.00     0.010 A 
HETATM   10  C   UNK     0      10.386   5.606  93.571  0.00  0.00     0.021 A 
HETATM   11  C   UNK     0       9.541   5.588  92.463  0.00  0.00     0.018 A 
HETATM   12  C   UNK     0       9.588   4.524  91.564  0.00  0.00     0.021 A 
HETATM   13  C   UNK     0      10.484   3.476  91.773  0.00  0.00     0.010 A 
BRANCH  11  14
HETATM   14  C   UNK     0       8.623   6.665  92.247  0.00  0.00    -0.061 C 
HETATM   15  C   UNK     0       7.852   7.569  92.067  0.00  0.00    -0.061 C 
BRANCH  15  16
HETATM   16  C   UNK     0       6.936   8.645  91.853  0.00  0.00     0.018 A 
HETATM   17  C   UNK     0       6.641   9.061  90.554  0.00  0.00     0.022 A 
HETATM   18  C   UNK     0       5.745  10.109  90.345  0.00  0.00     0.018 A 
HETATM   19  C   UNK     0       5.163  10.717  91.438  0.00  0.00     0.032 A 
HETATM   20  C   UNK     0       5.439  10.325  92.731  0.00  0.00     0.018 A 
HETATM   21  C   UNK     0       6.335   9.278  92.941  0.00  0.00     0.022 A 
BRANCH  19  22
HETATM   22  C   UNK     0       4.210  11.835  91.215  0.00  0.00     0.252 C 
HETATM   23  O   UNK     0       3.121  11.600  90.698  0.00  0.00    -0.268 OA
HETATM   24  N   UNK     0       4.631  13.087  91.642  0.00  0.00    -0.341 N 
HETATM   25  H   UNK     0       5.535  13.201  92.084  0.00  0.00     0.163 HD
BRANCH  24  26
HETATM   26  C   UNK     0       3.810  14.265  91.518  0.00  0.00     0.207 C 
BRANCH  26  27
HETATM   27  C   UNK     0       3.759  14.804  90.082  0.00  0.00     0.146 C 
HETATM   28  C   UNK     0       5.139  15.171  89.547  0.00  0.00     0.042 C 
BRANCH  27  29
HETATM   29  O   UNK     0       3.176  13.823  89.225  0.00  0.00    -0.393 OA
HETATM   30  H   UNK     0       3.345  14.084  88.304  0.00  0.00     0.210 HD
ENDBRANCH  27  29
ENDBRANCH  26  27
BRANCH  26  31
HETATM   31  C   UNK     0       2.416  13.918  92.030  0.00  0.00     0.266 C 
HETATM   32  O   UNK     0       1.398  14.079  91.360  0.00  0.00    -0.269 OA
HETATM   33  N   UNK     0       2.439  13.450  93.321  0.00  0.00    -0.236 N 
HETATM   34  H   UNK     0       3.247  13.389  93.930  0.00  0.00     0.197 HD
BRANCH  33  35
HETATM   35  O   UNK     0       1.191  13.143  93.881  0.00  0.00    -0.287 OA
HETATM   36  H   UNK     0       0.703  12.876  93.084  0.00  0.00     0.244 HD
ENDBRANCH  33  35
ENDBRANCH  26  31
ENDBRANCH  24  26
ENDBRANCH  19  22
ENDBRANCH  15  16
ENDBRANCH  11  14
ENDBRANCH   7   8
ENDBRANCH   2   7
TORSDOF 10
ENDMDL
MODEL 9
REMARK VINA RESULT:      -4.2      2.042     12.437
REMARK  10 active torsions:
REMARK  status: ('A' for Active; 'I' for Inactive)
REMARK    1  A    between atoms: O_2  and  C_18 
REMARK    2  A    between atoms: O_5  and  N_8 
REMARK    3  A    between atoms: N_6  and  C_11 
REMARK    4  A    between atoms: N_7  and  C_15 
REMARK       I    between atoms: N_7  and  C_24 
REMARK       I    between atoms: N_8  and  C_23 
REMARK    5  A    between atoms: C_11  and  C_14 
REMARK    6  A    between atoms: C_15  and  C_18 
REMARK    7  A    between atoms: C_15  and  C_23 
REMARK    8  A    between atoms: C_21  and  C_26 
REMARK    9  A    between atoms: C_24  and  C_25 
REMARK   10  A    between atoms: C_29  and  C_32 
ROOT
HETATM    1  O   UNK     0       5.566  14.888  88.385  0.00  0.00    -0.388 OA
HETATM    2  N   UNK     0       3.620  13.299  89.723  0.00  0.00     0.096 N 
HETATM    3  C   UNK     0       4.220  14.477  90.363  0.00  0.00     0.299 C 
HETATM    4  C   UNK     0       4.564  12.711  88.764  0.00  0.00     0.299 C 
HETATM    5  C   UNK     0       4.642  15.485  89.297  0.00  0.00     0.198 C 
HETATM    6  C   UNK     0       4.978  13.760  87.736  0.00  0.00     0.198 C 
ENDROOT
BRANCH   2   7
HETATM    7  C   UNK     0       3.217  12.314  90.726  0.00  0.00     0.311 C 
BRANCH   7   8
HETATM    8  C   UNK     0       4.302  11.339  91.032  0.00  0.00    -0.030 A 
HETATM    9  C   UNK     0       4.441  10.186  90.258  0.00  0.00     0.010 A 
HETATM   10  C   UNK     0       5.455   9.272  90.544  0.00  0.00     0.021 A 
HETATM   11  C   UNK     0       6.330   9.512  91.603  0.00  0.00     0.018 A 
HETATM   12  C   UNK     0       6.193  10.663  92.376  0.00  0.00     0.021 A 
HETATM   13  C   UNK     0       5.179  11.577  92.091  0.00  0.00     0.010 A 
BRANCH  11  14
HETATM   14  C   UNK     0       7.371   8.575  91.895  0.00  0.00    -0.061 C 
HETATM   15  C   UNK     0       8.246   7.788  92.141  0.00  0.00    -0.061 C 
BRANCH  15  16
HETATM   16  C   UNK     0       9.285   6.851  92.432  0.00  0.00     0.018 A 
HETATM   17  C   UNK     0       9.853   6.815  93.707  0.00  0.00     0.022 A 
HETATM   18  C   UNK     0      10.865   5.899  93.992  0.00  0.00     0.018 A 
HETATM   19  C   UNK     0      11.288   5.041  92.999  0.00  0.00     0.032 A 
HETATM   20  C   UNK     0      10.744   5.057  91.732  0.00  0.00     0.018 A 
HETATM   21  C   UNK     0       9.732   5.973  91.445  0.00  0.00     0.022 A 
BRANCH  19  22
HETATM   22  C   UNK     0      12.368   4.067  93.303  0.00  0.00     0.252 C 
HETATM   23  O   UNK     0      12.146   3.152  94.093  0.00  0.00    -0.268 OA
HETATM   24  N   UNK     0      13.568   4.260  92.633  0.00  0.00    -0.341 N 
HETATM   25  H   UNK     0      13.670   5.024  91.975  0.00  0.00     0.163 HD
BRANCH  24  26
HETATM   26  C   UNK     0      14.701   3.387  92.803  0.00  0.00     0.207 C 
BRANCH  26  27
HETATM   27  C   UNK     0      15.522   3.717  94.055  0.00  0.00     0.146 C 
HETATM   28  C   UNK     0      16.848   2.965  94.099  0.00  0.00     0.042 C 
BRANCH  27  29
HETATM   29  O   UNK     0      15.784   5.119  94.099  0.00  0.00    -0.393 OA
HETATM   30  H   UNK     0      15.053   5.580  93.653  0.00  0.00     0.210 HD
ENDBRANCH  27  29
ENDBRANCH  26  27
BRANCH  26  31
HETATM   31  C   UNK     0      14.182   1.953  92.841  0.00  0.00     0.266 C 
HETATM   32  O   UNK     0      14.683   1.078  93.546  0.00  0.00    -0.269 OA
HETATM   33  N   UNK     0      13.131   1.758  91.979  0.00  0.00    -0.236 N 
HETATM   34  H   UNK     0      12.753   2.430  91.321  0.00  0.00     0.197 HD
BRANCH  33  35
HETATM   35  O   UNK     0      12.619   0.454  91.926  0.00  0.00    -0.287 OA
HETATM   36  H   UNK     0      12.063   0.517  91.131  0.00  0.00     0.244 HD
ENDBRANCH  33  35
ENDBRANCH  26  31
ENDBRANCH  24  26
ENDBRANCH  19  22
ENDBRANCH  15  16
ENDBRANCH  11  14
ENDBRANCH   7   8
ENDBRANCH   2   7
TORSDOF 10
ENDMDL
