MODEL 1
REMARK VINA RESULT:      -7.5      0.000      0.000
REMARK  9 active torsions:
REMARK  status: ('A' for Active; 'I' for Inactive)
REMARK    1  A    between atoms: N_3  and  C_6 
REMARK    2  A    between atoms: C_6  and  C_9 
REMARK    3  A    between atoms: C_14  and  C_17 
REMARK       I    between atoms: N_26  and  C_15 
REMARK    4  A    between atoms: C_15  and  C_16 
REMARK    5  A    between atoms: C_20  and  C_23 
REMARK    6  A    between atoms: OG1_24  and  CB_28 
REMARK    7  A    between atoms: N_26  and  CA_27 
REMARK    8  A    between atoms: CA_27  and  CB_28 
REMARK    9  A    between atoms: CA_27  and  C_30 
ROOT
HETATM    1  O   UNK A   0       1.907   8.044  87.800  1.00  0.00    -0.388 OA
HETATM    2  N   UNK A   0       4.707   7.554  87.668  1.00  0.00     0.096 N 
HETATM    3  C   UNK A   0       4.170   8.918  87.763  1.00  0.00     0.299 C 
HETATM    4  C   UNK A   0       3.741   6.678  86.991  1.00  0.00     0.299 C 
HETATM    5  C   UNK A   0       2.826   8.896  88.486  1.00  0.00     0.198 C 
HETATM    6  C   UNK A   0       2.408   6.709  87.732  1.00  0.00     0.198 C 
ENDROOT
BRANCH   2   7
HETATM    7  C   UNK A   0       5.991   7.550  86.969  1.00  0.00     0.311 C 
BRANCH   7   8
HETATM    8  C   UNK A   0       7.081   6.945  87.786  1.00  0.00    -0.030 A 
HETATM    9  C   UNK A   0       8.317   6.665  87.201  1.00  0.00     0.010 A 
HETATM   10  C   UNK A   0       9.337   6.097  87.964  1.00  0.00     0.021 A 
HETATM   11  C   UNK A   0       9.122   5.812  89.312  1.00  0.00     0.018 A 
HETATM   12  C   UNK A   0       7.889   6.092  89.897  1.00  0.00     0.021 A 
HETATM   13  C   UNK A   0       6.868   6.659  89.135  1.00  0.00     0.010 A 
BRANCH  11  14
HETATM   14  C   UNK A   0      10.169   5.232  90.095  1.00  0.00    -0.061 C 
HETATM   15  C   UNK A   0      11.050   4.744  90.753  1.00  0.00    -0.061 C 
BRANCH  15  16
HETATM   16  C   UNK A   0      12.097   4.165  91.535  1.00  0.00     0.018 A 
HETATM   17  C   UNK A   0      13.355   3.956  90.969  1.00  0.00     0.022 A 
HETATM   18  C   UNK A   0      14.377   3.393  91.733  1.00  0.00     0.018 A 
HETATM   19  C   UNK A   0      14.119   3.053  93.045  1.00  0.00     0.032 A 
HETATM   20  C   UNK A   0      12.884   3.249  93.627  1.00  0.00     0.018 A 
HETATM   21  C   UNK A   0      11.861   3.811  92.864  1.00  0.00     0.022 A 
BRANCH  19  22
HETATM   22  C   UNK A   0      15.208   2.452  93.858  1.00  0.00     0.252 C 
HETATM   23  O   UNK A   0      16.354   2.876  93.733  1.00  0.00    -0.268 OA
ENDBRANCH  19  22
ENDBRANCH  15  16
ENDBRANCH  11  14
ENDBRANCH   7   8
ENDBRANCH   2   7
TORSDOF 9
ENDMDL
