MODEL 1
REMARK VINA RESULT:      -7.1      0.000      0.000
REMARK  10 active torsions:
REMARK  status: ('A' for Active; 'I' for Inactive)
REMARK    1  A    between atoms: O_2  and  C_16 
REMARK    2  A    between atoms: N_5  and  C_9 
REMARK    3  A    between atoms: N_6  and  C_13 
REMARK       I    between atoms: N_6  and  C_22 
REMARK    4  A    between atoms: C_9  and  C_12 
REMARK    5  A    between atoms: C_13  and  C_16 
REMARK    6  A    between atoms: C_13  and  C_21 
REMARK    7  A    between atoms: C_19  and  C_24 
REMARK    8  A    between atoms: C_22  and  C_23 
REMARK    9  A    between atoms: C_27  and  C_30 
REMARK   10  A    between atoms: N_33  and  S_34 
ROOT
HETATM    1  C   UNL     1       5.582  10.334  89.493  1.00  0.00     0.056 A 
HETATM    2  C   UNL     1       6.903  10.690  89.663  1.00  0.00     0.005 A 
HETATM    3  C   UNL     1       5.150   9.030  89.615  1.00  0.00     0.005 A 
HETATM    4  C   UNL     1       7.424   8.372  90.095  1.00  0.00     0.042 A 
HETATM    5  C   UNL     1       7.836   9.699  89.967  1.00  0.00     0.008 A 
HETATM    6  C   UNL     1       6.082   8.037  89.919  1.00  0.00     0.008 A 
ENDROOT
BRANCH   1   7
HETATM    7  C   UNL     1       4.589  11.391  89.171  1.00  0.00     0.254 C 
HETATM    8  O   UNL     1       4.204  11.519  88.012  1.00  0.00    -0.268 OA
HETATM    9  N   UNL     1       4.145  12.154  90.242  1.00  0.00    -0.337 N 
HETATM   10  HN  UNL     1       4.489  11.974  91.178  1.00  0.00     0.164 HD
BRANCH   9  11
HETATM   11  C   UNL     1       3.165  13.201  90.095  1.00  0.00     0.172 C 
BRANCH  11  12
HETATM   12  C   UNL     1       2.345  13.430  91.371  1.00  0.00     0.136 C 
HETATM   13  C   UNL     1       1.197  14.410  91.159  1.00  0.00     0.034 C 
BRANCH  12  14
HETATM   14  O   UNL     1       1.814  12.185  91.826  1.00  0.00    -0.383 OA
HETATM   15  H   UNL     1       1.435  12.321  92.711  1.00  0.00     0.210 HD
ENDBRANCH  12  14
ENDBRANCH  11  12
BRANCH  11  16
HETATM   16  C   UNL     1       3.899  14.470  89.673  1.00  0.00     0.398 A 
HETATM   17  O   UNL     1       4.833  14.468  88.873  1.00  0.00    -0.136 OA
HETATM   18  N   UNL     1       5.154  15.364  90.058  1.00  0.00     0.142 N 
HETATM   19  HN  UNL     1       5.974  15.512  89.540  1.00  0.00     0.338 HD
BRANCH  18  20
HETATM   20  S   UNL     1       4.828  15.612  91.387  1.00  0.00     0.076 SA
HETATM   21  H   UNL     1       3.956  14.952  91.852  1.00  0.00     0.136 HD
ENDBRANCH  18  20
ENDBRANCH  11  16
ENDBRANCH   9  11
ENDBRANCH   1   7
BRANCH   4  22
HETATM   22  C   UNL     1       8.380   7.354  90.404  1.00  0.00    -0.059 C 
HETATM   23  C   UNL     1       9.184   6.499  90.663  1.00  0.00    -0.059 C 
BRANCH  23  24
HETATM   24  C   UNL     1      10.142   5.482  90.972  1.00  0.00     0.042 A 
HETATM   25  C   UNL     1      10.925   4.932  89.957  1.00  0.00     0.008 A 
HETATM   26  C   UNL     1      11.857   3.938  90.258  1.00  0.00    -0.002 A 
HETATM   27  C   UNL     1      12.006   3.497  91.573  1.00  0.00     0.011 A 
HETATM   28  C   UNL     1      11.222   4.049  92.586  1.00  0.00    -0.002 A 
HETATM   29  C   UNL     1      10.290   5.041  92.285  1.00  0.00     0.008 A 
BRANCH  27  30
HETATM   30  C   UNL     1      13.004   2.437  91.893  1.00  0.00     0.277 C 
BRANCH  30  31
HETATM   31  N   UNL     1      13.979   2.873  92.892  1.00  0.00     0.147 N 
HETATM   32  C   UNL     1      15.017   1.851  93.086  1.00  0.00     0.283 C 
HETATM   33  C   UNL     1      16.028   2.333  94.123  1.00  0.00     0.178 C 
HETATM   34  O   UNL     1      16.615   3.568  93.710  1.00  0.00    -0.350 OA
HETATM   35  C   UNL     1      15.616   4.575  93.548  1.00  0.00     0.178 C 
HETATM   36  C   UNL     1      14.595   4.148  92.499  1.00  0.00     0.283 C 
ENDBRANCH  30  31
ENDBRANCH  27  30
ENDBRANCH  23  24
ENDBRANCH   4  22
TORSDOF 10
ENDMDL
