MODEL 1
REMARK VINA RESULT:      -7.0      0.000      0.000
REMARK  10 active torsions:
REMARK  status: ('A' for Active; 'I' for Inactive)
REMARK    1  A    between atoms: O_2  and  C_18 
REMARK    2  A    between atoms: O_5  and  N_8 
REMARK    3  A    between atoms: N_6  and  C_11 
REMARK    4  A    between atoms: N_7  and  C_15 
REMARK       I    between atoms: N_7  and  C_24 
REMARK       I    between atoms: N_8  and  C_23 
REMARK    5  A    between atoms: C_11  and  C_14 
REMARK    6  A    between atoms: C_15  and  C_18 
REMARK    7  A    between atoms: C_15  and  C_23 
REMARK    8  A    between atoms: C_21  and  C_26 
REMARK    9  A    between atoms: C_24  and  C_25 
REMARK   10  A    between atoms: C_29  and  C_32 
ROOT
HETATM    1  O   UNK     0      16.444   4.261  94.123  0.00  0.00    -0.388 OA
HETATM    2  N   UNK     0      14.742   2.593  92.565  0.00  0.00     0.096 N 
HETATM    3  C   UNK     0      14.595   4.055  92.563  0.00  0.00     0.299 C 
HETATM    4  C   UNK     0      15.290   2.144  93.852  0.00  0.00     0.299 C 
HETATM    5  C   UNK     0      15.941   4.711  92.863  0.00  0.00     0.198 C 
HETATM    6  C   UNK     0      16.619   2.844  94.122  0.00  0.00     0.198 C 
ENDROOT
BRANCH   2   7
HETATM    7  C   UNK     0      13.462   1.944  92.291  0.00  0.00     0.311 C 
BRANCH   7   8
HETATM    8  C   UNK     0      12.390   2.923  91.950  0.00  0.00    -0.030 A 
HETATM    9  C   UNK     0      12.364   3.515  90.687  0.00  0.00     0.010 A 
HETATM   10  C   UNK     0      11.363   4.433  90.368  0.00  0.00     0.021 A 
HETATM   11  C   UNK     0      10.388   4.756  91.311  0.00  0.00     0.018 A 
HETATM   12  C   UNK     0      10.413   4.165  92.573  0.00  0.00     0.021 A 
HETATM   13  C   UNK     0      11.415   3.248  92.892  0.00  0.00     0.010 A 
BRANCH  11  14
HETATM   14  C   UNK     0       9.360   5.695  90.983  0.00  0.00    -0.061 C 
HETATM   15  C   UNK     0       8.496   6.485  90.708  0.00  0.00    -0.061 C 
BRANCH  15  16
HETATM   16  C   UNK     0       7.469   7.422  90.380  0.00  0.00     0.018 A 
HETATM   17  C   UNK     0       7.801   8.641  89.785  0.00  0.00     0.022 A 
HETATM   18  C   UNK     0       6.799   9.555  89.463  0.00  0.00     0.018 A 
HETATM   19  C   UNK     0       5.487   9.232  89.741  0.00  0.00     0.032 A 
HETATM   20  C   UNK     0       5.132   8.035  90.328  0.00  0.00     0.018 A 
HETATM   21  C   UNK     0       6.135   7.121  90.651  0.00  0.00     0.022 A 
BRANCH  19  22
HETATM   22  C   UNK     0       4.419  10.207  89.400  0.00  0.00     0.252 C 
HETATM   23  O   UNK     0       3.573   9.901  88.564  0.00  0.00    -0.268 OA
HETATM   24  N   UNK     0       4.452  11.411  90.090  0.00  0.00    -0.341 N 
HETATM   25  H   UNK     0       5.168  11.584  90.786  0.00  0.00     0.163 HD
BRANCH  24  26
HETATM   26  C   UNK     0       3.472  12.447  89.888  0.00  0.00     0.207 C 
BRANCH  26  27
HETATM   27  C   UNK     0       3.081  13.156  91.191  0.00  0.00     0.146 C 
HETATM   28  C   UNK     0       2.042  12.378  91.990  0.00  0.00     0.042 C 
BRANCH  27  29
HETATM   29  O   UNK     0       4.242  13.345  91.999  0.00  0.00    -0.393 OA
HETATM   30  H   UNK     0       5.009  12.990  91.518  0.00  0.00     0.210 HD
ENDBRANCH  27  29
ENDBRANCH  26  27
BRANCH  26  31
HETATM   31  C   UNK     0       4.038  13.432  88.869  0.00  0.00     0.266 C 
HETATM   32  O   UNK     0       4.153  14.635  89.094  0.00  0.00    -0.269 OA
HETATM   33  N   UNK     0       4.359  12.821  87.681  0.00  0.00    -0.236 N 
HETATM   34  H   UNK     0       4.194  11.853  87.432  0.00  0.00     0.197 HD
BRANCH  33  35
HETATM   35  O   UNK     0       4.851  13.665  86.676  0.00  0.00    -0.287 OA
HETATM   36  H   UNK     0       5.752  13.824  87.007  0.00  0.00     0.244 HD
ENDBRANCH  33  35
ENDBRANCH  26  31
ENDBRANCH  24  26
ENDBRANCH  19  22
ENDBRANCH  15  16
ENDBRANCH  11  14
ENDBRANCH   7   8
ENDBRANCH   2   7
TORSDOF 10
ENDMDL
