MODEL 1
REMARK VINA RESULT:      -6.4      0.000      0.000
REMARK  12 active torsions:
REMARK  status: ('A' for Active; 'I' for Inactive)
REMARK    1  A    between atoms: O_2  and  C_16 
REMARK    2  A    between atoms: N_5  and  C_9 
REMARK    3  A    between atoms: N_6  and  C_13 
REMARK       I    between atoms: N_6  and  C_22 
REMARK    4  A    between atoms: C_9  and  C_12 
REMARK    5  A    between atoms: C_13  and  C_16 
REMARK    6  A    between atoms: C_13  and  C_21 
REMARK    7  A    between atoms: C_19  and  C_24 
REMARK    8  A    between atoms: C_21  and  C_33 
REMARK    9  A    between atoms: C_22  and  C_23 
REMARK   10  A    between atoms: C_27  and  C_30 
REMARK   11  A    between atoms: C_33  and  C_34 
REMARK   12  A    between atoms: C_34  and  C_35 
ROOT
HETATM    1  O   UNL     1      16.330   4.309  94.124  1.00  0.00    -0.350 OA
HETATM    2  N   UNL     1      14.610   2.595  92.638  1.00  0.00     0.147 N 
HETATM    3  C   UNL     1      14.415   4.052  92.655  1.00  0.00     0.283 C 
HETATM    4  C   UNL     1      15.236   2.156  93.893  1.00  0.00     0.283 C 
HETATM    5  C   UNL     1      15.752   4.750  92.894  1.00  0.00     0.178 C 
HETATM    6  C   UNL     1      16.551   2.898  94.103  1.00  0.00     0.178 C 
ENDROOT
BRANCH   2   7
HETATM    7  C   UNL     1      13.340   1.905  92.420  1.00  0.00     0.277 C 
BRANCH   7   8
HETATM    8  C   UNL     1      12.199   2.852  92.260  1.00  0.00     0.011 A 
HETATM    9  C   UNL     1      11.563   2.973  91.024  1.00  0.00    -0.002 A 
HETATM   10  C   UNL     1      10.497   3.860  90.872  1.00  0.00     0.008 A 
HETATM   11  C   UNL     1      10.068   4.624  91.957  1.00  0.00     0.042 A 
HETATM   12  C   UNL     1      10.702   4.504  93.191  1.00  0.00     0.008 A 
HETATM   13  C   UNL     1      11.768   3.617  93.344  1.00  0.00    -0.002 A 
BRANCH  11  14
HETATM   14  C   UNL     1       8.973   5.532  91.801  1.00  0.00    -0.059 C 
HETATM   15  C   UNL     1       8.053   6.294  91.671  1.00  0.00    -0.059 C 
BRANCH  15  16
HETATM   16  C   UNL     1       6.958   7.202  91.516  1.00  0.00     0.042 A 
HETATM   17  C   UNL     1       5.899   6.877  90.668  1.00  0.00     0.008 A 
HETATM   18  C   UNL     1       4.831   7.761  90.520  1.00  0.00     0.005 A 
HETATM   19  C   UNL     1       4.844   8.948  91.222  1.00  0.00     0.056 A 
HETATM   20  C   UNL     1       5.880   9.292  92.066  1.00  0.00     0.005 A 
HETATM   21  C   UNL     1       6.949   8.409  92.215  1.00  0.00     0.008 A 
BRANCH  19  22
HETATM   22  C   UNL     1       3.706   9.890  91.062  1.00  0.00     0.254 C 
HETATM   23  O   UNL     1       2.659   9.485  90.564  1.00  0.00    -0.268 OA
HETATM   24  N   UNL     1       3.917  11.182  91.523  1.00  0.00    -0.335 N 
HETATM   25  HN  UNL     1       4.802  11.437  91.946  1.00  0.00     0.164 HD
BRANCH  24  26
HETATM   26  C   UNL     1       2.903  12.203  91.460  1.00  0.00     0.166 C 
BRANCH  26  27
HETATM   27  C   UNL     1       2.840  13.057  92.733  1.00  0.00     0.138 C 
HETATM   28  C   UNL     1       4.211  13.253  93.372  1.00  0.00     0.034 C 
BRANCH  27  29
HETATM   29  O   UNL     1       2.286  14.335  92.423  1.00  0.00    -0.383 OA
HETATM   30  H   UNL     1       2.427  14.507  91.477  1.00  0.00     0.210 HD
ENDBRANCH  27  29
ENDBRANCH  26  27
BRANCH  26  31
HETATM   31  C   UNL     1       3.181  13.061  90.230  1.00  0.00     0.181 C 
HETATM   32  O   UNL     1       2.605  14.125  90.012  1.00  0.00    -0.294 OA
BRANCH  31  33
HETATM   33  C   UNL     1       4.764  13.357  90.047  1.00  0.00     0.138 C 
BRANCH  33  34
HETATM   34  C   UNL     1       5.046  12.622  88.874  1.00  0.00     0.208 C 
HETATM   35  O   UNL     1       6.197  12.284  88.721  1.00  0.00    -0.289 OA
BRANCH  34  36
HETATM   36  C   UNL     1       4.207  11.973  88.010  1.00  0.00     0.194 C 
HETATM   37  O   UNL     1       4.132  10.618  87.669  1.00  0.00    -0.185 OA
ENDBRANCH  34  36
ENDBRANCH  33  34
ENDBRANCH  31  33
ENDBRANCH  26  31
ENDBRANCH  24  26
ENDBRANCH  19  22
ENDBRANCH  15  16
ENDBRANCH  11  14
ENDBRANCH   7   8
ENDBRANCH   2   7
TORSDOF 12
ENDMDL
