MODEL 1
REMARK VINA RESULT:      -6.2      0.000      0.000
REMARK  12 active torsions:
REMARK  status: ('A' for Active; 'I' for Inactive)
REMARK    1  A    between atoms: O_2  and  C_16 
REMARK    2  A    between atoms: N_5  and  C_9 
REMARK    3  A    between atoms: N_6  and  C_13 
REMARK       I    between atoms: N_6  and  C_22 
REMARK    4  A    between atoms: C_9  and  C_12 
REMARK    5  A    between atoms: C_13  and  C_16 
REMARK    6  A    between atoms: C_13  and  C_21 
REMARK    7  A    between atoms: C_19  and  C_24 
REMARK    8  A    between atoms: C_21  and  C_33 
REMARK    9  A    between atoms: C_22  and  C_23 
REMARK   10  A    between atoms: C_27  and  C_30 
REMARK   11  A    between atoms: C_33  and  C_34 
REMARK   12  A    between atoms: C_34  and  C_35 
ROOT
HETATM    1  O   UNL     1      16.257   4.314  94.065  1.00  0.00    -0.350 OA
HETATM    2  N   UNL     1      14.554   2.640  92.515  1.00  0.00     0.147 N 
HETATM    3  C   UNL     1      14.419   4.103  92.493  1.00  0.00     0.283 C 
HETATM    4  C   UNL     1      15.088   2.203  93.812  1.00  0.00     0.283 C 
HETATM    5  C   UNL     1      15.768   4.751  92.795  1.00  0.00     0.178 C 
HETATM    6  C   UNL     1      16.420   2.895  94.084  1.00  0.00     0.178 C 
ENDROOT
BRANCH   2   7
HETATM    7  C   UNL     1      13.270   1.998  92.238  1.00  0.00     0.277 C 
BRANCH   7   8
HETATM    8  C   UNL     1      12.155   2.982  92.125  1.00  0.00     0.011 A 
HETATM    9  C   UNL     1      11.537   3.195  90.893  1.00  0.00    -0.002 A 
HETATM   10  C   UNL     1      10.496   4.117  90.785  1.00  0.00     0.008 A 
HETATM   11  C   UNL     1      10.072   4.824  91.911  1.00  0.00     0.042 A 
HETATM   12  C   UNL     1      10.689   4.611  93.142  1.00  0.00     0.008 A 
HETATM   13  C   UNL     1      11.731   3.690  93.250  1.00  0.00    -0.002 A 
BRANCH  11  14
HETATM   14  C   UNL     1       9.003   5.768  91.801  1.00  0.00    -0.059 C 
HETATM   15  C   UNL     1       8.104   6.561  91.709  1.00  0.00    -0.059 C 
BRANCH  15  16
HETATM   16  C   UNL     1       7.035   7.504  91.600  1.00  0.00     0.042 A 
HETATM   17  C   UNL     1       6.184   7.468  90.495  1.00  0.00     0.008 A 
HETATM   18  C   UNL     1       5.140   8.387  90.391  1.00  0.00     0.005 A 
HETATM   19  C   UNL     1       4.970   9.320  91.392  1.00  0.00     0.056 A 
HETATM   20  C   UNL     1       5.798   9.377  92.493  1.00  0.00     0.005 A 
HETATM   21  C   UNL     1       6.843   8.458  92.599  1.00  0.00     0.008 A 
BRANCH  19  22
HETATM   22  C   UNL     1       3.859  10.300  91.279  1.00  0.00     0.254 C 
HETATM   23  O   UNL     1       2.805   9.953  90.752  1.00  0.00    -0.268 OA
HETATM   24  N   UNL     1       4.100  11.557  91.815  1.00  0.00    -0.335 N 
HETATM   25  HN  UNL     1       4.987  11.764  92.258  1.00  0.00     0.164 HD
BRANCH  24  26
HETATM   26  C   UNL     1       3.113  12.607  91.805  1.00  0.00     0.166 C 
BRANCH  26  27
HETATM   27  C   UNL     1       3.321  13.628  92.931  1.00  0.00     0.138 C 
HETATM   28  C   UNL     1       2.196  13.599  93.959  1.00  0.00     0.034 C 
BRANCH  27  29
HETATM   29  O   UNL     1       4.559  13.366  93.590  1.00  0.00    -0.383 OA
HETATM   30  H   UNL     1       5.098  14.174  93.558  1.00  0.00     0.210 HD
ENDBRANCH  27  29
ENDBRANCH  26  27
BRANCH  26  31
HETATM   31  C   UNL     1       3.159  13.276  90.435  1.00  0.00     0.181 C 
HETATM   32  O   UNL     1       2.440  14.225  90.128  1.00  0.00    -0.294 OA
BRANCH  31  33
HETATM   33  C   UNL     1       4.668  13.701  90.022  1.00  0.00     0.138 C 
BRANCH  33  34
HETATM   34  C   UNL     1       4.754  13.171  88.715  1.00  0.00     0.208 C 
HETATM   35  O   UNL     1       5.755  13.445  88.094  1.00  0.00    -0.289 OA
BRANCH  34  36
HETATM   36  C   UNL     1       4.043  12.167  88.117  1.00  0.00     0.194 C 
HETATM   37  O   UNL     1       4.388  10.831  87.881  1.00  0.00    -0.185 OA
ENDBRANCH  34  36
ENDBRANCH  33  34
ENDBRANCH  31  33
ENDBRANCH  26  31
ENDBRANCH  24  26
ENDBRANCH  19  22
ENDBRANCH  15  16
ENDBRANCH  11  14
ENDBRANCH   7   8
ENDBRANCH   2   7
TORSDOF 12
ENDMDL
