MODEL 1
REMARK VINA RESULT:      -6.9      0.000      0.000
REMARK  10 active torsions:
REMARK  status: ('A' for Active; 'I' for Inactive)
REMARK    1  A    between atoms: O_2  and  C_18 
REMARK    2  A    between atoms: O_5  and  N_8 
REMARK    3  A    between atoms: N_6  and  C_11 
REMARK    4  A    between atoms: N_7  and  C_15 
REMARK       I    between atoms: N_7  and  C_24 
REMARK       I    between atoms: N_8  and  C_23 
REMARK    5  A    between atoms: C_11  and  C_14 
REMARK    6  A    between atoms: C_15  and  C_18 
REMARK    7  A    between atoms: C_15  and  C_23 
REMARK    8  A    between atoms: C_21  and  C_26 
REMARK    9  A    between atoms: C_24  and  C_25 
REMARK   10  A    between atoms: C_29  and  C_32 
ROOT
HETATM    1  O   UNK     0      16.457   4.398  94.060  0.00  0.00    -0.388 OA
HETATM    2  N   UNK     0      14.748   2.604  92.660  0.00  0.00     0.096 N 
HETATM    3  C   UNK     0      14.551   4.059  92.596  0.00  0.00     0.299 C 
HETATM    4  C   UNK     0      15.365   2.235  93.940  0.00  0.00     0.299 C 
HETATM    5  C   UNK     0      15.886   4.770  92.804  0.00  0.00     0.198 C 
HETATM    6  C   UNK     0      16.680   2.989  94.118  0.00  0.00     0.198 C 
ENDROOT
BRANCH   2   7
HETATM    7  C   UNK     0      13.479   1.901  92.473  0.00  0.00     0.311 C 
BRANCH   7   8
HETATM    8  C   UNK     0      12.349   2.834  92.199  0.00  0.00    -0.030 A 
HETATM    9  C   UNK     0      11.801   2.906  90.918  0.00  0.00     0.010 A 
HETATM   10  C   UNK     0      10.744   3.780  90.659  0.00  0.00     0.021 A 
HETATM   11  C   UNK     0      10.236   4.579  91.683  0.00  0.00     0.018 A 
HETATM   12  C   UNK     0      10.782   4.507  92.963  0.00  0.00     0.021 A 
HETATM   13  C   UNK     0      11.839   3.634  93.221  0.00  0.00     0.010 A 
BRANCH  11  14
HETATM   14  C   UNK     0       9.151   5.473  91.419  0.00  0.00    -0.061 C 
HETATM   15  C   UNK     0       8.239   6.225  91.196  0.00  0.00    -0.061 C 
BRANCH  15  16
HETATM   16  C   UNK     0       7.156   7.118  90.931  0.00  0.00     0.018 A 
HETATM   17  C   UNK     0       5.866   6.793  91.354  0.00  0.00     0.022 A 
HETATM   18  C   UNK     0       4.808   7.665  91.097  0.00  0.00     0.018 A 
HETATM   19  C   UNK     0       5.063   8.842  90.424  0.00  0.00     0.032 A 
HETATM   20  C   UNK     0       6.328   9.186  89.995  0.00  0.00     0.018 A 
HETATM   21  C   UNK     0       7.386   8.314  90.252  0.00  0.00     0.022 A 
BRANCH  19  22
HETATM   22  C   UNK     0       3.935   9.770  90.149  0.00  0.00     0.252 C 
HETATM   23  O   UNK     0       2.821   9.307  89.918  0.00  0.00    -0.268 OA
HETATM   24  N   UNK     0       4.236  11.124  90.200  0.00  0.00    -0.341 N 
HETATM   25  H   UNK     0       5.175  11.433  90.422  0.00  0.00     0.163 HD
BRANCH  24  26
HETATM   26  C   UNK     0       3.245  12.147  89.981  0.00  0.00     0.207 C 
BRANCH  26  27
HETATM   27  C   UNK     0       2.804  12.835  91.279  0.00  0.00     0.146 C 
HETATM   28  C   UNK     0       2.091  11.882  92.231  0.00  0.00     0.042 C 
BRANCH  27  29
HETATM   29  O   UNK     0       3.945  13.383  91.939  0.00  0.00    -0.393 OA
HETATM   30  H   UNK     0       4.715  12.829  91.728  0.00  0.00     0.210 HD
ENDBRANCH  27  29
ENDBRANCH  26  27
BRANCH  26  31
HETATM   31  C   UNK     0       3.825  13.151  88.990  0.00  0.00     0.266 C 
HETATM   32  O   UNK     0       3.823  14.365  89.188  0.00  0.00    -0.269 OA
HETATM   33  N   UNK     0       4.303  12.543  87.854  0.00  0.00    -0.236 N 
HETATM   34  H   UNK     0       4.240  11.559  87.620  0.00  0.00     0.197 HD
BRANCH  33  35
HETATM   35  O   UNK     0       4.820  13.402  86.874  0.00  0.00    -0.287 OA
HETATM   36  H   UNK     0       5.743  13.472  87.172  0.00  0.00     0.244 HD
ENDBRANCH  33  35
ENDBRANCH  26  31
ENDBRANCH  24  26
ENDBRANCH  19  22
ENDBRANCH  15  16
ENDBRANCH  11  14
ENDBRANCH   7   8
ENDBRANCH   2   7
TORSDOF 10
ENDMDL
