MODEL 1
REMARK VINA RESULT:      -6.4      0.000      0.000
REMARK  12 active torsions:
REMARK  status: ('A' for Active; 'I' for Inactive)
REMARK    1  A    between atoms: O_2  and  C_16 
REMARK    2  A    between atoms: N_5  and  C_9 
REMARK    3  A    between atoms: N_6  and  C_13 
REMARK       I    between atoms: N_6  and  C_22 
REMARK    4  A    between atoms: C_9  and  C_12 
REMARK    5  A    between atoms: C_13  and  C_16 
REMARK    6  A    between atoms: C_13  and  C_21 
REMARK    7  A    between atoms: C_19  and  C_24 
REMARK    8  A    between atoms: C_21  and  C_33 
REMARK    9  A    between atoms: C_22  and  C_23 
REMARK   10  A    between atoms: C_27  and  C_30 
REMARK   11  A    between atoms: C_33  and  C_34 
REMARK   12  A    between atoms: C_34  and  C_35 
ROOT
HETATM    1  O   UNL     1      17.447   4.726  93.736  1.00  0.00    -0.350 OA
HETATM    2  N   UNL     1      15.330   2.824  93.768  1.00  0.00     0.147 N 
HETATM    3  C   UNL     1      16.699   2.443  93.396  1.00  0.00     0.283 C 
HETATM    4  C   UNL     1      15.091   4.235  93.433  1.00  0.00     0.283 C 
HETATM    5  C   UNL     1      17.699   3.365  94.089  1.00  0.00     0.178 C 
HETATM    6  C   UNL     1      16.129   5.114  94.123  1.00  0.00     0.178 C 
ENDROOT
BRANCH   2   7
HETATM    7  C   UNL     1      14.354   1.960  93.107  1.00  0.00     0.277 C 
BRANCH   7   8
HETATM    8  C   UNL     1      13.263   2.735  92.450  1.00  0.00     0.011 A 
HETATM    9  C   UNL     1      12.060   2.954  93.124  1.00  0.00    -0.002 A 
HETATM   10  C   UNL     1      11.038   3.677  92.509  1.00  0.00     0.008 A 
HETATM   11  C   UNL     1      11.219   4.182  91.222  1.00  0.00     0.042 A 
HETATM   12  C   UNL     1      12.419   3.964  90.548  1.00  0.00     0.008 A 
HETATM   13  C   UNL     1      13.442   3.241  91.162  1.00  0.00    -0.002 A 
BRANCH  11  14
HETATM   14  C   UNL     1      10.171   4.925  90.593  1.00  0.00    -0.059 C 
HETATM   15  C   UNL     1       9.291   5.551  90.064  1.00  0.00    -0.059 C 
BRANCH  15  16
HETATM   16  C   UNL     1       8.244   6.294  89.434  1.00  0.00     0.042 A 
HETATM   17  C   UNL     1       6.987   6.370  90.033  1.00  0.00     0.008 A 
HETATM   18  C   UNL     1       5.966   7.097  89.420  1.00  0.00     0.005 A 
HETATM   19  C   UNL     1       6.227   7.732  88.224  1.00  0.00     0.056 A 
HETATM   20  C   UNL     1       7.461   7.672  87.612  1.00  0.00     0.005 A 
HETATM   21  C   UNL     1       8.482   6.944  88.224  1.00  0.00     0.008 A 
BRANCH  19  22
HETATM   22  C   UNL     1       5.139   8.505  87.570  1.00  0.00     0.254 C 
HETATM   23  O   UNL     1       4.982   8.410  86.355  1.00  0.00    -0.268 OA
HETATM   24  N   UNL     1       4.350   9.276  88.413  1.00  0.00    -0.335 N 
HETATM   25  HN  UNL     1       4.523   9.286  89.411  1.00  0.00     0.164 HD
BRANCH  24  26
HETATM   26  C   UNL     1       3.242  10.062  87.933  1.00  0.00     0.166 C 
BRANCH  26  27
HETATM   27  C   UNL     1       1.884   9.397  88.197  1.00  0.00     0.138 C 
HETATM   28  C   UNL     1       1.719   8.085  87.438  1.00  0.00     0.034 C 
BRANCH  27  29
HETATM   29  O   UNL     1       1.740   9.146  89.594  1.00  0.00    -0.383 OA
HETATM   30  H   UNL     1       2.457   9.606  90.063  1.00  0.00     0.210 HD
ENDBRANCH  27  29
ENDBRANCH  26  27
BRANCH  26  31
HETATM   31  C   UNL     1       3.324  11.435  88.592  1.00  0.00     0.181 C 
HETATM   32  O   UNL     1       2.598  11.775  89.524  1.00  0.00    -0.294 OA
BRANCH  31  33
HETATM   33  C   UNL     1       4.839  11.795  89.045  1.00  0.00     0.138 C 
BRANCH  33  34
HETATM   34  C   UNL     1       4.961  13.117  88.563  1.00  0.00     0.208 C 
HETATM   35  O   UNL     1       4.894  13.255  87.363  1.00  0.00    -0.289 OA
BRANCH  34  36
HETATM   36  C   UNL     1       4.857  14.313  89.218  1.00  0.00     0.194 C 
HETATM   37  O   UNL     1       4.720  14.588  90.584  1.00  0.00    -0.185 OA
ENDBRANCH  34  36
ENDBRANCH  33  34
ENDBRANCH  31  33
ENDBRANCH  26  31
ENDBRANCH  24  26
ENDBRANCH  19  22
ENDBRANCH  15  16
ENDBRANCH  11  14
ENDBRANCH   7   8
ENDBRANCH   2   7
TORSDOF 12
ENDMDL
MODEL 2
REMARK VINA RESULT:      -6.1      2.548      3.959
REMARK  12 active torsions:
REMARK  status: ('A' for Active; 'I' for Inactive)
REMARK    1  A    between atoms: O_2  and  C_16 
REMARK    2  A    between atoms: N_5  and  C_9 
REMARK    3  A    between atoms: N_6  and  C_13 
REMARK       I    between atoms: N_6  and  C_22 
REMARK    4  A    between atoms: C_9  and  C_12 
REMARK    5  A    between atoms: C_13  and  C_16 
REMARK    6  A    between atoms: C_13  and  C_21 
REMARK    7  A    between atoms: C_19  and  C_24 
REMARK    8  A    between atoms: C_21  and  C_33 
REMARK    9  A    between atoms: C_22  and  C_23 
REMARK   10  A    between atoms: C_27  and  C_30 
REMARK   11  A    between atoms: C_33  and  C_34 
REMARK   12  A    between atoms: C_34  and  C_35 
ROOT
HETATM    1  O   UNL     1      16.220   4.280  93.921  1.00  0.00    -0.350 OA
HETATM    2  N   UNL     1      14.420   2.574  92.524  1.00  0.00     0.147 N 
HETATM    3  C   UNL     1      14.416   4.029  92.318  1.00  0.00     0.283 C 
HETATM    4  C   UNL     1      14.878   2.260  93.885  1.00  0.00     0.283 C 
HETATM    5  C   UNL     1      15.808   4.594  92.590  1.00  0.00     0.178 C 
HETATM    6  C   UNL     1      16.257   2.867  94.121  1.00  0.00     0.178 C 
ENDROOT
BRANCH   2   7
HETATM    7  C   UNL     1      13.093   2.012  92.279  1.00  0.00     0.277 C 
BRANCH   7   8
HETATM    8  C   UNL     1      12.023   3.050  92.306  1.00  0.00     0.011 A 
HETATM    9  C   UNL     1      11.214   3.244  91.186  1.00  0.00    -0.002 A 
HETATM   10  C   UNL     1      10.214   4.216  91.208  1.00  0.00     0.008 A 
HETATM   11  C   UNL     1      10.023   4.992  92.351  1.00  0.00     0.042 A 
HETATM   12  C   UNL     1      10.831   4.800  93.470  1.00  0.00     0.008 A 
HETATM   13  C   UNL     1      11.832   3.828  93.447  1.00  0.00    -0.002 A 
BRANCH  11  14
HETATM   14  C   UNL     1       8.996   5.988  92.375  1.00  0.00    -0.059 C 
HETATM   15  C   UNL     1       8.133   6.825  92.394  1.00  0.00    -0.059 C 
BRANCH  15  16
HETATM   16  C   UNL     1       7.106   7.819  92.418  1.00  0.00     0.042 A 
HETATM   17  C   UNL     1       7.333   9.040  93.055  1.00  0.00     0.008 A 
HETATM   18  C   UNL     1       6.332  10.011  93.075  1.00  0.00     0.005 A 
HETATM   19  C   UNL     1       5.128   9.741  92.460  1.00  0.00     0.056 A 
HETATM   20  C   UNL     1       4.879   8.542  91.824  1.00  0.00     0.005 A 
HETATM   21  C   UNL     1       5.879   7.570  91.803  1.00  0.00     0.008 A 
BRANCH  19  22
HETATM   22  C   UNL     1       4.061  10.775  92.484  1.00  0.00     0.254 C 
HETATM   23  O   UNL     1       3.003  10.531  93.058  1.00  0.00    -0.268 OA
HETATM   24  N   UNL     1       4.365  11.976  91.858  1.00  0.00    -0.335 N 
HETATM   25  HN  UNL     1       5.270  12.114  91.426  1.00  0.00     0.164 HD
BRANCH  24  26
HETATM   26  C   UNL     1       3.444  13.084  91.818  1.00  0.00     0.166 C 
BRANCH  26  27
HETATM   27  C   UNL     1       3.931  14.290  92.631  1.00  0.00     0.138 C 
HETATM   28  C   UNL     1       2.782  15.155  93.136  1.00  0.00     0.034 C 
BRANCH  27  29
HETATM   29  O   UNL     1       4.694  13.835  93.748  1.00  0.00    -0.383 OA
HETATM   30  H   UNL     1       5.434  13.301  93.415  1.00  0.00     0.210 HD
ENDBRANCH  27  29
ENDBRANCH  26  27
BRANCH  26  31
HETATM   31  C   UNL     1       3.224  13.454  90.355  1.00  0.00     0.181 C 
HETATM   32  O   UNL     1       2.322  14.202  89.981  1.00  0.00    -0.294 OA
BRANCH  31  33
HETATM   33  C   UNL     1       4.583  14.003  89.662  1.00  0.00     0.138 C 
BRANCH  33  34
HETATM   34  C   UNL     1       4.662  13.175  88.521  1.00  0.00     0.208 C 
HETATM   35  O   UNL     1       5.402  13.550  87.641  1.00  0.00    -0.289 OA
BRANCH  34  36
HETATM   36  C   UNL     1       4.275  11.875  88.339  1.00  0.00     0.194 C 
HETATM   37  O   UNL     1       4.834  10.688  88.826  1.00  0.00    -0.185 OA
ENDBRANCH  34  36
ENDBRANCH  33  34
ENDBRANCH  31  33
ENDBRANCH  26  31
ENDBRANCH  24  26
ENDBRANCH  19  22
ENDBRANCH  15  16
ENDBRANCH  11  14
ENDBRANCH   7   8
ENDBRANCH   2   7
TORSDOF 12
ENDMDL
MODEL 3
REMARK VINA RESULT:      -5.6      3.351     12.620
REMARK  12 active torsions:
REMARK  status: ('A' for Active; 'I' for Inactive)
REMARK    1  A    between atoms: O_2  and  C_16 
REMARK    2  A    between atoms: N_5  and  C_9 
REMARK    3  A    between atoms: N_6  and  C_13 
REMARK       I    between atoms: N_6  and  C_22 
REMARK    4  A    between atoms: C_9  and  C_12 
REMARK    5  A    between atoms: C_13  and  C_16 
REMARK    6  A    between atoms: C_13  and  C_21 
REMARK    7  A    between atoms: C_19  and  C_24 
REMARK    8  A    between atoms: C_21  and  C_33 
REMARK    9  A    between atoms: C_22  and  C_23 
REMARK   10  A    between atoms: C_27  and  C_30 
REMARK   11  A    between atoms: C_33  and  C_34 
REMARK   12  A    between atoms: C_34  and  C_35 
ROOT
HETATM    1  O   UNL     1       3.210  14.954  94.068  1.00  0.00    -0.350 OA
HETATM    2  N   UNL     1       2.728  14.570  91.289  1.00  0.00     0.147 N 
HETATM    3  C   UNL     1       1.843  13.991  92.309  1.00  0.00     0.283 C 
HETATM    4  C   UNL     1       4.091  14.703  91.822  1.00  0.00     0.283 C 
HETATM    5  C   UNL     1       1.875  14.851  93.570  1.00  0.00     0.178 C 
HETATM    6  C   UNL     1       4.070  15.545  93.093  1.00  0.00     0.178 C 
ENDROOT
BRANCH   2   7
HETATM    7  C   UNL     1       2.722  13.756  90.075  1.00  0.00     0.277 C 
BRANCH   7   8
HETATM    8  C   UNL     1       3.712  12.643  90.132  1.00  0.00     0.011 A 
HETATM    9  C   UNL     1       4.934  12.763  89.468  1.00  0.00    -0.002 A 
HETATM   10  C   UNL     1       5.860  11.721  89.519  1.00  0.00     0.008 A 
HETATM   11  C   UNL     1       5.565  10.562  90.236  1.00  0.00     0.042 A 
HETATM   12  C   UNL     1       4.346  10.441  90.899  1.00  0.00     0.008 A 
HETATM   13  C   UNL     1       3.419  11.482  90.848  1.00  0.00    -0.002 A 
BRANCH  11  14
HETATM   14  C   UNL     1       6.516   9.494  90.290  1.00  0.00    -0.059 C 
HETATM   15  C   UNL     1       7.316   8.598  90.335  1.00  0.00    -0.059 C 
BRANCH  15  16
HETATM   16  C   UNL     1       8.267   7.532  90.390  1.00  0.00     0.042 A 
HETATM   17  C   UNL     1       8.982   7.176  89.246  1.00  0.00     0.008 A 
HETATM   18  C   UNL     1       9.912   6.138  89.301  1.00  0.00     0.005 A 
HETATM   19  C   UNL     1      10.106   5.479  90.496  1.00  0.00     0.056 A 
HETATM   20  C   UNL     1       9.411   5.811  91.641  1.00  0.00     0.005 A 
HETATM   21  C   UNL     1       8.481   6.849  91.588  1.00  0.00     0.008 A 
BRANCH  19  22
HETATM   22  C   UNL     1      11.095   4.372  90.553  1.00  0.00     0.254 C 
HETATM   23  O   UNL     1      11.032   3.468  89.724  1.00  0.00    -0.268 OA
HETATM   24  N   UNL     1      12.053   4.463  91.554  1.00  0.00    -0.335 N 
HETATM   25  HN  UNL     1      12.058   5.253  92.188  1.00  0.00     0.164 HD
BRANCH  24  26
HETATM   26  C   UNL     1      13.093   3.480  91.723  1.00  0.00     0.166 C 
BRANCH  26  27
HETATM   27  C   UNL     1      14.284   3.709  90.784  1.00  0.00     0.138 C 
HETATM   28  C   UNL     1      14.003   3.244  89.360  1.00  0.00     0.034 C 
BRANCH  27  29
HETATM   29  O   UNL     1      14.614   5.098  90.761  1.00  0.00    -0.383 OA
HETATM   30  H   UNL     1      14.680   5.380  89.833  1.00  0.00     0.210 HD
ENDBRANCH  27  29
ENDBRANCH  26  27
BRANCH  26  31
HETATM   31  C   UNL     1      13.526   3.508  93.185  1.00  0.00     0.181 C 
HETATM   32  O   UNL     1      12.731   3.446  94.121  1.00  0.00    -0.294 OA
BRANCH  31  33
HETATM   33  C   UNL     1      14.674   2.405  93.494  1.00  0.00     0.138 C 
BRANCH  33  34
HETATM   34  C   UNL     1      15.765   3.235  93.836  1.00  0.00     0.208 C 
HETATM   35  O   UNL     1      16.866   2.772  93.643  1.00  0.00    -0.289 OA
BRANCH  34  36
HETATM   36  C   UNL     1      15.814   4.579  94.081  1.00  0.00     0.194 C 
HETATM   37  O   UNL     1      16.322   5.623  93.299  1.00  0.00    -0.185 OA
ENDBRANCH  34  36
ENDBRANCH  33  34
ENDBRANCH  31  33
ENDBRANCH  26  31
ENDBRANCH  24  26
ENDBRANCH  19  22
ENDBRANCH  15  16
ENDBRANCH  11  14
ENDBRANCH   7   8
ENDBRANCH   2   7
TORSDOF 12
ENDMDL
MODEL 4
REMARK VINA RESULT:      -5.5      2.853      4.222
REMARK  12 active torsions:
REMARK  status: ('A' for Active; 'I' for Inactive)
REMARK    1  A    between atoms: O_2  and  C_16 
REMARK    2  A    between atoms: N_5  and  C_9 
REMARK    3  A    between atoms: N_6  and  C_13 
REMARK       I    between atoms: N_6  and  C_22 
REMARK    4  A    between atoms: C_9  and  C_12 
REMARK    5  A    between atoms: C_13  and  C_16 
REMARK    6  A    between atoms: C_13  and  C_21 
REMARK    7  A    between atoms: C_19  and  C_24 
REMARK    8  A    between atoms: C_21  and  C_33 
REMARK    9  A    between atoms: C_22  and  C_23 
REMARK   10  A    between atoms: C_27  and  C_30 
REMARK   11  A    between atoms: C_33  and  C_34 
REMARK   12  A    between atoms: C_34  and  C_35 
ROOT
HETATM    1  O   UNL     1      16.359   3.972  94.124  1.00  0.00    -0.350 OA
HETATM    2  N   UNL     1      14.419   2.622  92.539  1.00  0.00     0.147 N 
HETATM    3  C   UNL     1      14.527   4.087  92.537  1.00  0.00     0.283 C 
HETATM    4  C   UNL     1      14.862   2.086  93.833  1.00  0.00     0.283 C 
HETATM    5  C   UNL     1      15.961   4.500  92.857  1.00  0.00     0.178 C 
HETATM    6  C   UNL     1      16.286   2.546  94.124  1.00  0.00     0.178 C 
ENDROOT
BRANCH   2   7
HETATM    7  C   UNL     1      13.049   2.203  92.244  1.00  0.00     0.277 C 
BRANCH   7   8
HETATM    8  C   UNL     1      12.090   3.344  92.264  1.00  0.00     0.011 A 
HETATM    9  C   UNL     1      11.582   3.848  91.066  1.00  0.00    -0.002 A 
HETATM   10  C   UNL     1      10.686   4.917  91.084  1.00  0.00     0.008 A 
HETATM   11  C   UNL     1      10.297   5.479  92.299  1.00  0.00     0.042 A 
HETATM   12  C   UNL     1      10.804   4.977  93.496  1.00  0.00     0.008 A 
HETATM   13  C   UNL     1      11.700   3.909  93.479  1.00  0.00    -0.002 A 
BRANCH  11  14
HETATM   14  C   UNL     1       9.376   6.574  92.317  1.00  0.00    -0.059 C 
HETATM   15  C   UNL     1       8.603   7.495  92.332  1.00  0.00    -0.059 C 
BRANCH  15  16
HETATM   16  C   UNL     1       7.682   8.588  92.349  1.00  0.00     0.042 A 
HETATM   17  C   UNL     1       6.452   8.474  91.701  1.00  0.00     0.008 A 
HETATM   18  C   UNL     1       5.553   9.540  91.720  1.00  0.00     0.005 A 
HETATM   19  C   UNL     1       5.903  10.695  92.386  1.00  0.00     0.056 A 
HETATM   20  C   UNL     1       7.113  10.834  93.034  1.00  0.00     0.005 A 
HETATM   21  C   UNL     1       8.013   9.768  93.015  1.00  0.00     0.008 A 
BRANCH  19  22
HETATM   22  C   UNL     1       4.946  11.832  92.405  1.00  0.00     0.254 C 
HETATM   23  O   UNL     1       4.587  12.296  93.484  1.00  0.00    -0.268 OA
HETATM   24  N   UNL     1       4.542  12.306  91.165  1.00  0.00    -0.335 N 
HETATM   25  HN  UNL     1       4.900  11.889  90.314  1.00  0.00     0.164 HD
BRANCH  24  26
HETATM   26  C   UNL     1       3.636  13.418  91.017  1.00  0.00     0.166 C 
BRANCH  26  27
HETATM   27  C   UNL     1       3.781  14.125  89.664  1.00  0.00     0.138 C 
HETATM   28  C   UNL     1       4.974  15.073  89.625  1.00  0.00     0.034 C 
BRANCH  27  29
HETATM   29  O   UNL     1       3.927  13.152  88.630  1.00  0.00    -0.383 OA
HETATM   30  H   UNL     1       3.670  12.286  88.987  1.00  0.00     0.210 HD
ENDBRANCH  27  29
ENDBRANCH  26  27
BRANCH  26  31
HETATM   31  C   UNL     1       2.219  12.894  91.220  1.00  0.00     0.181 C 
HETATM   32  O   UNL     1       1.963  11.898  91.895  1.00  0.00    -0.294 OA
BRANCH  31  33
HETATM   33  C   UNL     1       1.214  14.058  91.733  1.00  0.00     0.138 C 
BRANCH  33  34
HETATM   34  C   UNL     1       1.738  14.325  93.018  1.00  0.00     0.208 C 
HETATM   35  O   UNL     1       1.618  13.442  93.836  1.00  0.00    -0.289 OA
BRANCH  34  36
HETATM   36  C   UNL     1       2.613  15.290  93.436  1.00  0.00     0.194 C 
HETATM   37  O   UNL     1       3.996  15.397  93.254  1.00  0.00    -0.185 OA
ENDBRANCH  34  36
ENDBRANCH  33  34
ENDBRANCH  31  33
ENDBRANCH  26  31
ENDBRANCH  24  26
ENDBRANCH  19  22
ENDBRANCH  15  16
ENDBRANCH  11  14
ENDBRANCH   7   8
ENDBRANCH   2   7
TORSDOF 12
ENDMDL
MODEL 5
REMARK VINA RESULT:      -5.0      3.534     12.166
REMARK  12 active torsions:
REMARK  status: ('A' for Active; 'I' for Inactive)
REMARK    1  A    between atoms: O_2  and  C_16 
REMARK    2  A    between atoms: N_5  and  C_9 
REMARK    3  A    between atoms: N_6  and  C_13 
REMARK       I    between atoms: N_6  and  C_22 
REMARK    4  A    between atoms: C_9  and  C_12 
REMARK    5  A    between atoms: C_13  and  C_16 
REMARK    6  A    between atoms: C_13  and  C_21 
REMARK    7  A    between atoms: C_19  and  C_24 
REMARK    8  A    between atoms: C_21  and  C_33 
REMARK    9  A    between atoms: C_22  and  C_23 
REMARK   10  A    between atoms: C_27  and  C_30 
REMARK   11  A    between atoms: C_33  and  C_34 
REMARK   12  A    between atoms: C_34  and  C_35 
ROOT
HETATM    1  O   UNL     1       2.899  14.929  93.931  1.00  0.00    -0.350 OA
HETATM    2  N   UNL     1       2.487  14.812  91.117  1.00  0.00     0.147 N 
HETATM    3  C   UNL     1       1.589  14.123  92.054  1.00  0.00     0.283 C 
HETATM    4  C   UNL     1       3.835  14.911  91.693  1.00  0.00     0.283 C 
HETATM    5  C   UNL     1       1.578  14.856  93.393  1.00  0.00     0.178 C 
HETATM    6  C   UNL     1       3.772  15.625  93.039  1.00  0.00     0.178 C 
ENDROOT
BRANCH   2   7
HETATM    7  C   UNL     1       2.521  14.120  89.829  1.00  0.00     0.277 C 
BRANCH   7   8
HETATM    8  C   UNL     1       3.526  13.019  89.803  1.00  0.00     0.011 A 
HETATM    9  C   UNL     1       4.795  13.247  89.270  1.00  0.00    -0.002 A 
HETATM   10  C   UNL     1       5.735  12.217  89.243  1.00  0.00     0.008 A 
HETATM   11  C   UNL     1       5.407  10.961  89.750  1.00  0.00     0.042 A 
HETATM   12  C   UNL     1       4.140  10.732  90.283  1.00  0.00     0.008 A 
HETATM   13  C   UNL     1       3.199  11.761  90.310  1.00  0.00    -0.002 A 
BRANCH  11  14
HETATM   14  C   UNL     1       6.372   9.905  89.724  1.00  0.00    -0.059 C 
HETATM   15  C   UNL     1       7.184   9.018  89.703  1.00  0.00    -0.059 C 
BRANCH  15  16
HETATM   16  C   UNL     1       8.148   7.963  89.678  1.00  0.00     0.042 A 
HETATM   17  C   UNL     1       9.450   8.220  89.247  1.00  0.00     0.008 A 
HETATM   18  C   UNL     1      10.392   7.191  89.225  1.00  0.00     0.005 A 
HETATM   19  C   UNL     1      10.011   5.930  89.635  1.00  0.00     0.056 A 
HETATM   20  C   UNL     1       8.731   5.651  90.065  1.00  0.00     0.005 A 
HETATM   21  C   UNL     1       7.788   6.679  90.087  1.00  0.00     0.008 A 
BRANCH  19  22
HETATM   22  C   UNL     1      11.014   4.834  89.610  1.00  0.00     0.254 C 
HETATM   23  O   UNL     1      11.128   4.148  88.597  1.00  0.00    -0.268 OA
HETATM   24  N   UNL     1      11.780   4.684  90.757  1.00  0.00    -0.335 N 
HETATM   25  HN  UNL     1      11.648   5.305  91.547  1.00  0.00     0.164 HD
BRANCH  24  26
HETATM   26  C   UNL     1      12.810   3.683  90.877  1.00  0.00     0.166 C 
BRANCH  26  27
HETATM   27  C   UNL     1      14.143   4.259  91.370  1.00  0.00     0.138 C 
HETATM   28  C   UNL     1      15.181   3.177  91.644  1.00  0.00     0.034 C 
BRANCH  27  29
HETATM   29  O   UNL     1      14.662   5.163  90.395  1.00  0.00    -0.383 OA
HETATM   30  H   UNL     1      15.016   4.642  89.654  1.00  0.00     0.210 HD
ENDBRANCH  27  29
ENDBRANCH  26  27
BRANCH  26  31
HETATM   31  C   UNL     1      12.295   2.596  91.814  1.00  0.00     0.181 C 
HETATM   32  O   UNL     1      12.844   1.502  91.937  1.00  0.00    -0.294 OA
BRANCH  31  33
HETATM   33  C   UNL     1      12.064   3.156  93.318  1.00  0.00     0.138 C 
BRANCH  33  34
HETATM   34  C   UNL     1      10.915   3.957  93.138  1.00  0.00     0.208 C 
HETATM   35  O   UNL     1       9.973   3.422  92.599  1.00  0.00    -0.289 OA
BRANCH  34  36
HETATM   36  C   UNL     1      10.563   5.146  93.714  1.00  0.00     0.194 C 
HETATM   37  O   UNL     1      10.289   6.388  93.130  1.00  0.00    -0.185 OA
ENDBRANCH  34  36
ENDBRANCH  33  34
ENDBRANCH  31  33
ENDBRANCH  26  31
ENDBRANCH  24  26
ENDBRANCH  19  22
ENDBRANCH  15  16
ENDBRANCH  11  14
ENDBRANCH   7   8
ENDBRANCH   2   7
TORSDOF 12
ENDMDL
MODEL 6
REMARK VINA RESULT:      -3.9      2.692      3.978
REMARK  12 active torsions:
REMARK  status: ('A' for Active; 'I' for Inactive)
REMARK    1  A    between atoms: O_2  and  C_16 
REMARK    2  A    between atoms: N_5  and  C_9 
REMARK    3  A    between atoms: N_6  and  C_13 
REMARK       I    between atoms: N_6  and  C_22 
REMARK    4  A    between atoms: C_9  and  C_12 
REMARK    5  A    between atoms: C_13  and  C_16 
REMARK    6  A    between atoms: C_13  and  C_21 
REMARK    7  A    between atoms: C_19  and  C_24 
REMARK    8  A    between atoms: C_21  and  C_33 
REMARK    9  A    between atoms: C_22  and  C_23 
REMARK   10  A    between atoms: C_27  and  C_30 
REMARK   11  A    between atoms: C_33  and  C_34 
REMARK   12  A    between atoms: C_34  and  C_35 
ROOT
HETATM    1  O   UNL     1      15.624   3.815  90.966  1.00  0.00    -0.350 OA
HETATM    2  N   UNL     1      13.582   2.620  92.550  1.00  0.00     0.147 N 
HETATM    3  C   UNL     1      13.275   3.660  91.558  1.00  0.00     0.283 C 
HETATM    4  C   UNL     1      14.947   2.803  93.064  1.00  0.00     0.283 C 
HETATM    5  C   UNL     1      14.311   3.626  90.436  1.00  0.00     0.178 C 
HETATM    6  C   UNL     1      15.942   2.790  91.909  1.00  0.00     0.178 C 
ENDROOT
BRANCH   2   7
HETATM    7  C   UNL     1      12.608   2.641  93.640  1.00  0.00     0.277 C 
BRANCH   7   8
HETATM    8  C   UNL     1      11.472   3.567  93.368  1.00  0.00     0.011 A 
HETATM    9  C   UNL     1      10.559   3.270  92.355  1.00  0.00    -0.002 A 
HETATM   10  C   UNL     1       9.496   4.136  92.099  1.00  0.00     0.008 A 
HETATM   11  C   UNL     1       9.346   5.297  92.856  1.00  0.00     0.042 A 
HETATM   12  C   UNL     1      10.257   5.595  93.867  1.00  0.00     0.008 A 
HETATM   13  C   UNL     1      11.320   4.729  94.124  1.00  0.00    -0.002 A 
BRANCH  11  14
HETATM   14  C   UNL     1       8.255   6.185  92.594  1.00  0.00    -0.059 C 
HETATM   15  C   UNL     1       7.337   6.930  92.373  1.00  0.00    -0.059 C 
BRANCH  15  16
HETATM   16  C   UNL     1       6.246   7.816  92.111  1.00  0.00     0.042 A 
HETATM   17  C   UNL     1       6.386   9.183  92.351  1.00  0.00     0.008 A 
HETATM   18  C   UNL     1       5.322  10.048  92.093  1.00  0.00     0.005 A 
HETATM   19  C   UNL     1       4.144   9.527  91.601  1.00  0.00     0.056 A 
HETATM   20  C   UNL     1       3.980   8.179  91.356  1.00  0.00     0.005 A 
HETATM   21  C   UNL     1       5.043   7.314  91.614  1.00  0.00     0.008 A 
BRANCH  19  22
HETATM   22  C   UNL     1       3.010  10.448  91.328  1.00  0.00     0.254 C 
HETATM   23  O   UNL     1       1.979   9.999  90.835  1.00  0.00    -0.268 OA
HETATM   24  N   UNL     1       3.206  11.775  91.686  1.00  0.00    -0.335 N 
HETATM   25  HN  UNL     1       4.077  12.068  92.112  1.00  0.00     0.164 HD
BRANCH  24  26
HETATM   26  C   UNL     1       2.192  12.783  91.507  1.00  0.00     0.166 C 
BRANCH  26  27
HETATM   27  C   UNL     1       1.820  13.490  92.817  1.00  0.00     0.138 C 
HETATM   28  C   UNL     1       2.978  13.529  93.808  1.00  0.00     0.034 C 
BRANCH  27  29
HETATM   29  O   UNL     1       1.405  14.826  92.537  1.00  0.00    -0.383 OA
HETATM   30  H   UNL     1       1.926  15.157  91.786  1.00  0.00     0.210 HD
ENDBRANCH  27  29
ENDBRANCH  26  27
BRANCH  26  31
HETATM   31  C   UNL     1       2.701  13.776  90.467  1.00  0.00     0.181 C 
HETATM   32  O   UNL     1       2.089  14.797  90.160  1.00  0.00    -0.294 OA
BRANCH  31  33
HETATM   33  C   UNL     1       4.226  14.236  90.768  1.00  0.00     0.138 C 
BRANCH  33  34
HETATM   34  C   UNL     1       4.724  14.409  89.458  1.00  0.00     0.208 C 
HETATM   35  O   UNL     1       5.104  15.522  89.175  1.00  0.00    -0.289 OA
BRANCH  34  36
HETATM   36  C   UNL     1       5.123  13.485  88.532  1.00  0.00     0.194 C 
HETATM   37  O   UNL     1       5.547  12.161  88.699  1.00  0.00    -0.185 OA
ENDBRANCH  34  36
ENDBRANCH  33  34
ENDBRANCH  31  33
ENDBRANCH  26  31
ENDBRANCH  24  26
ENDBRANCH  19  22
ENDBRANCH  15  16
ENDBRANCH  11  14
ENDBRANCH   7   8
ENDBRANCH   2   7
TORSDOF 12
ENDMDL
