MODEL 1
REMARK VINA RESULT:      -6.9      0.000      0.000
REMARK  11 active torsions:
REMARK  status: ('A' for Active; 'I' for Inactive)
REMARK    1  A    between atoms: O_2  and  C_18 
REMARK    2  A    between atoms: O_5  and  P_8 
REMARK    3  A    between atoms: N_6  and  C_11 
REMARK    4  A    between atoms: N_7  and  C_15 
REMARK       I    between atoms: N_7  and  C_24 
REMARK    5  A    between atoms: P_8  and  C_23 
REMARK    6  A    between atoms: C_11  and  C_14 
REMARK    7  A    between atoms: C_15  and  C_18 
REMARK    8  A    between atoms: C_15  and  C_23 
REMARK    9  A    between atoms: C_21  and  C_26 
REMARK   10  A    between atoms: C_24  and  C_25 
REMARK   11  A    between atoms: C_29  and  C_32 
ROOT
HETATM    1  O   UNL     1      16.165   4.036  94.100  1.00  0.00     0.000 OA
HETATM    2  N   UNL     1      14.340   2.608  92.448  1.00  0.00     0.000 N 
HETATM    3  C   UNL     1      14.409   4.075  92.425  1.00  0.00     0.000 C 
HETATM    4  C   UNL     1      14.733   2.106  93.772  1.00  0.00     0.000 C 
HETATM    5  C   UNL     1      15.815   4.532  92.807  1.00  0.00     0.000 C 
HETATM    6  C   UNL     1      16.130   2.609  94.122  1.00  0.00     0.000 C 
ENDROOT
BRANCH   2   7
HETATM    7  C   UNL     1      12.997   2.148  92.096  1.00  0.00     0.000 C 
BRANCH   7   8
HETATM    8  C   UNL     1      12.069   3.276  91.802  1.00  0.00     0.000 A 
HETATM    9  C   UNL     1      11.412   3.928  92.847  1.00  0.00     0.000 A 
HETATM   10  C   UNL     1      10.542   4.983  92.572  1.00  0.00     0.000 A 
HETATM   11  C   UNL     1      10.330   5.386  91.254  1.00  0.00     0.000 A 
HETATM   12  C   UNL     1      10.985   4.736  90.211  1.00  0.00     0.000 A 
HETATM   13  C   UNL     1      11.855   3.681  90.484  1.00  0.00     0.000 A 
BRANCH  11  14
HETATM   14  C   UNL     1       9.439   6.470  90.974  1.00  0.00     0.000 C 
HETATM   15  C   UNL     1       8.689   7.380  90.738  1.00  0.00     0.000 C 
BRANCH  15  16
HETATM   16  C   UNL     1       7.799   8.463  90.458  1.00  0.00     0.000 A 
HETATM   17  C   UNL     1       6.986   8.421  89.325  1.00  0.00     0.000 A 
HETATM   18  C   UNL     1       6.115   9.476  89.054  1.00  0.00     0.000 A 
HETATM   19  C   UNL     1       6.076  10.548  89.921  1.00  0.00     0.000 A 
HETATM   20  C   UNL     1       6.869  10.613  91.047  1.00  0.00     0.000 A 
HETATM   21  C   UNL     1       7.741   9.559  91.320  1.00  0.00     0.000 A 
BRANCH  19  22
HETATM   22  C   UNL     1       5.150  11.673  89.631  1.00  0.00     0.000 C 
HETATM   23  O   UNL     1       4.883  11.944  88.462  1.00  0.00     0.000 OA
HETATM   24  N   UNL     1       4.626  12.331  90.735  1.00  0.00     0.000 N 
HETATM   25  HN  UNL     1       4.873  12.035  91.673  1.00  0.00     0.000 HD
BRANCH  24  26
HETATM   26  C   UNL     1       3.696  13.425  90.618  1.00  0.00     0.000 C 
BRANCH  26  27
HETATM   27  C   UNL     1       2.328  13.110  91.236  1.00  0.00     0.000 C 
HETATM   28  C   UNL     1       2.418  12.084  92.361  1.00  0.00     0.000 C 
BRANCH  27  29
HETATM   29  O   UNL     1       1.748  14.310  91.748  1.00  0.00     0.000 OA
HETATM   30  H   UNL     1       1.100  14.068  92.430  1.00  0.00     0.000 HD
ENDBRANCH  27  29
ENDBRANCH  26  27
BRANCH  26  31
HETATM   31  C   UNL     1       4.332  14.648  91.271  1.00  0.00     0.000 C 
HETATM   32  O   UNL     1       4.355  14.821  92.488  1.00  0.00     0.000 OA
BRANCH  31  33
HETATM   33  P   UNL     1       4.828  15.532  90.344  1.00  0.00     0.000 P 
HETATM   34  H   UNL     1       3.826  16.431  90.038  1.00  0.00     0.000 HD
BRANCH  33  35
HETATM   35  O   UNL     1       5.281  14.968  89.144  1.00  0.00     0.000 OA
HETATM   36  H   UNL     1       5.445  15.772  88.623  1.00  0.00     0.000 HD
ENDBRANCH  33  35
ENDBRANCH  31  33
ENDBRANCH  26  31
ENDBRANCH  24  26
ENDBRANCH  19  22
ENDBRANCH  15  16
ENDBRANCH  11  14
ENDBRANCH   7   8
ENDBRANCH   2   7
TORSDOF 11
ENDMDL
MODEL 2
REMARK VINA RESULT:      -5.8      1.610      2.176
REMARK  11 active torsions:
REMARK  status: ('A' for Active; 'I' for Inactive)
REMARK    1  A    between atoms: O_2  and  C_18 
REMARK    2  A    between atoms: O_5  and  P_8 
REMARK    3  A    between atoms: N_6  and  C_11 
REMARK    4  A    between atoms: N_7  and  C_15 
REMARK       I    between atoms: N_7  and  C_24 
REMARK    5  A    between atoms: P_8  and  C_23 
REMARK    6  A    between atoms: C_11  and  C_14 
REMARK    7  A    between atoms: C_15  and  C_18 
REMARK    8  A    between atoms: C_15  and  C_23 
REMARK    9  A    between atoms: C_21  and  C_26 
REMARK   10  A    between atoms: C_24  and  C_25 
REMARK   11  A    between atoms: C_29  and  C_32 
ROOT
HETATM    1  O   UNL     1      16.566   3.221  93.932  1.00  0.00     0.000 OA
HETATM    2  N   UNL     1      14.053   3.137  92.597  1.00  0.00     0.000 N 
HETATM    3  C   UNL     1      14.811   1.912  92.884  1.00  0.00     0.000 C 
HETATM    4  C   UNL     1      14.973   4.272  92.434  1.00  0.00     0.000 C 
HETATM    5  C   UNL     1      15.678   2.118  94.124  1.00  0.00     0.000 C 
HETATM    6  C   UNL     1      15.835   4.423  93.683  1.00  0.00     0.000 C 
ENDROOT
BRANCH   2   7
HETATM    7  C   UNL     1      13.223   2.966  91.405  1.00  0.00     0.000 C 
BRANCH   7   8
HETATM    8  C   UNL     1      12.038   3.870  91.404  1.00  0.00     0.000 A 
HETATM    9  C   UNL     1      11.541   4.364  90.197  1.00  0.00     0.000 A 
HETATM   10  C   UNL     1      10.434   5.212  90.194  1.00  0.00     0.000 A 
HETATM   11  C   UNL     1       9.823   5.563  91.398  1.00  0.00     0.000 A 
HETATM   12  C   UNL     1      10.318   5.070  92.603  1.00  0.00     0.000 A 
HETATM   13  C   UNL     1      11.426   4.223  92.606  1.00  0.00     0.000 A 
BRANCH  11  14
HETATM   14  C   UNL     1       8.685   6.431  91.394  1.00  0.00     0.000 C 
HETATM   15  C   UNL     1       7.729   7.160  91.391  1.00  0.00     0.000 C 
BRANCH  15  16
HETATM   16  C   UNL     1       6.592   8.027  91.388  1.00  0.00     0.000 A 
HETATM   17  C   UNL     1       6.342   8.844  90.286  1.00  0.00     0.000 A 
HETATM   18  C   UNL     1       5.231   9.688  90.282  1.00  0.00     0.000 A 
HETATM   19  C   UNL     1       4.396   9.695  91.379  1.00  0.00     0.000 A 
HETATM   20  C   UNL     1       4.622   8.897  92.481  1.00  0.00     0.000 A 
HETATM   21  C   UNL     1       5.732   8.053  92.486  1.00  0.00     0.000 A 
BRANCH  19  22
HETATM   22  C   UNL     1       3.214  10.595  91.376  1.00  0.00     0.000 C 
HETATM   23  O   UNL     1       2.091  10.110  91.259  1.00  0.00     0.000 OA
HETATM   24  N   UNL     1       3.479  11.948  91.534  1.00  0.00     0.000 N 
HETATM   25  HN  UNL     1       4.432  12.274  91.650  1.00  0.00     0.000 HD
BRANCH  24  26
HETATM   26  C   UNL     1       2.438  12.943  91.575  1.00  0.00     0.000 C 
BRANCH  26  27
HETATM   27  C   UNL     1       2.390  13.696  92.911  1.00  0.00     0.000 C 
HETATM   28  C   UNL     1       3.766  13.837  93.552  1.00  0.00     0.000 C 
BRANCH  27  29
HETATM   29  O   UNL     1       1.839  14.997  92.706  1.00  0.00     0.000 OA
HETATM   30  H   UNL     1       2.056  15.281  91.802  1.00  0.00     0.000 HD
ENDBRANCH  27  29
ENDBRANCH  26  27
BRANCH  26  31
HETATM   31  C   UNL     1       2.661  13.899  90.408  1.00  0.00     0.000 C 
HETATM   32  O   UNL     1       1.782  14.642  89.973  1.00  0.00     0.000 OA
BRANCH  31  33
HETATM   33  P   UNL     1       3.929  13.799  89.889  1.00  0.00     0.000 P 
HETATM   34  H   UNL     1       4.331  15.063  89.508  1.00  0.00     0.000 HD
BRANCH  33  35
HETATM   35  O   UNL     1       4.070  12.951  88.782  1.00  0.00     0.000 OA
HETATM   36  H   UNL     1       4.891  13.302  88.397  1.00  0.00     0.000 HD
ENDBRANCH  33  35
ENDBRANCH  31  33
ENDBRANCH  26  31
ENDBRANCH  24  26
ENDBRANCH  19  22
ENDBRANCH  15  16
ENDBRANCH  11  14
ENDBRANCH   7   8
ENDBRANCH   2   7
TORSDOF 11
ENDMDL
MODEL 3
REMARK VINA RESULT:      -4.7      1.430      1.999
REMARK  11 active torsions:
REMARK  status: ('A' for Active; 'I' for Inactive)
REMARK    1  A    between atoms: O_2  and  C_18 
REMARK    2  A    between atoms: O_5  and  P_8 
REMARK    3  A    between atoms: N_6  and  C_11 
REMARK    4  A    between atoms: N_7  and  C_15 
REMARK       I    between atoms: N_7  and  C_24 
REMARK    5  A    between atoms: P_8  and  C_23 
REMARK    6  A    between atoms: C_11  and  C_14 
REMARK    7  A    between atoms: C_15  and  C_18 
REMARK    8  A    between atoms: C_15  and  C_23 
REMARK    9  A    between atoms: C_21  and  C_26 
REMARK   10  A    between atoms: C_24  and  C_25 
REMARK   11  A    between atoms: C_29  and  C_32 
ROOT
HETATM    1  O   UNL     1      15.718   4.133  93.421  1.00  0.00     0.000 OA
HETATM    2  N   UNL     1      13.636   2.594  92.239  1.00  0.00     0.000 N 
HETATM    3  C   UNL     1      13.912   3.971  91.808  1.00  0.00     0.000 C 
HETATM    4  C   UNL     1      14.013   2.423  93.649  1.00  0.00     0.000 C 
HETATM    5  C   UNL     1      15.385   4.300  92.042  1.00  0.00     0.000 C 
HETATM    6  C   UNL     1      15.481   2.789  93.840  1.00  0.00     0.000 C 
ENDROOT
BRANCH   2   7
HETATM    7  C   UNL     1      12.227   2.260  92.034  1.00  0.00     0.000 C 
BRANCH   7   8
HETATM    8  C   UNL     1      11.372   3.472  91.884  1.00  0.00     0.000 A 
HETATM    9  C   UNL     1      11.103   4.276  92.993  1.00  0.00     0.000 A 
HETATM   10  C   UNL     1      10.301   5.409  92.855  1.00  0.00     0.000 A 
HETATM   11  C   UNL     1       9.772   5.739  91.608  1.00  0.00     0.000 A 
HETATM   12  C   UNL     1      10.040   4.937  90.500  1.00  0.00     0.000 A 
HETATM   13  C   UNL     1      10.841   3.804  90.638  1.00  0.00     0.000 A 
BRANCH  11  14
HETATM   14  C   UNL     1       8.951   6.902  91.466  1.00  0.00     0.000 C 
HETATM   15  C   UNL     1       8.262   7.880  91.345  1.00  0.00     0.000 C 
BRANCH  15  16
HETATM   16  C   UNL     1       7.441   9.042  91.203  1.00  0.00     0.000 A 
HETATM   17  C   UNL     1       6.724   9.527  92.297  1.00  0.00     0.000 A 
HETATM   18  C   UNL     1       5.926  10.662  92.158  1.00  0.00     0.000 A 
HETATM   19  C   UNL     1       5.864  11.288  90.930  1.00  0.00     0.000 A 
HETATM   20  C   UNL     1       6.563  10.828  89.834  1.00  0.00     0.000 A 
HETATM   21  C   UNL     1       7.362   9.693  89.971  1.00  0.00     0.000 A 
BRANCH  19  22
HETATM   22  C   UNL     1       5.012  12.496  90.782  1.00  0.00     0.000 C 
HETATM   23  O   UNL     1       4.926  13.039  89.684  1.00  0.00     0.000 OA
HETATM   24  N   UNL     1       4.343  12.912  91.925  1.00  0.00     0.000 N 
HETATM   25  HN  UNL     1       4.442  12.398  92.793  1.00  0.00     0.000 HD
BRANCH  24  26
HETATM   26  C   UNL     1       3.461  14.051  91.936  1.00  0.00     0.000 C 
BRANCH  26  27
HETATM   27  C   UNL     1       2.035  13.703  91.492  1.00  0.00     0.000 C 
HETATM   28  C   UNL     1       1.728  14.190  90.080  1.00  0.00     0.000 C 
BRANCH  27  29
HETATM   29  O   UNL     1       1.851  12.289  91.545  1.00  0.00     0.000 OA
HETATM   30  H   UNL     1       1.393  12.071  92.374  1.00  0.00     0.000 HD
ENDBRANCH  27  29
ENDBRANCH  26  27
BRANCH  26  31
HETATM   31  C   UNL     1       3.476  14.638  93.344  1.00  0.00     0.000 C 
HETATM   32  O   UNL     1       4.497  14.725  94.023  1.00  0.00     0.000 OA
BRANCH  31  33
HETATM   33  P   UNL     1       2.222  15.012  93.764  1.00  0.00     0.000 P 
HETATM   34  H   UNL     1       2.371  15.834  94.862  1.00  0.00     0.000 HD
BRANCH  33  35
HETATM   35  O   UNL     1       1.361  13.965  94.124  1.00  0.00     0.000 OA
HETATM   36  H   UNL     1       1.362  14.064  95.091  1.00  0.00     0.000 HD
ENDBRANCH  33  35
ENDBRANCH  31  33
ENDBRANCH  26  31
ENDBRANCH  24  26
ENDBRANCH  19  22
ENDBRANCH  15  16
ENDBRANCH  11  14
ENDBRANCH   7   8
ENDBRANCH   2   7
TORSDOF 11
ENDMDL
MODEL 4
REMARK VINA RESULT:      -4.6      3.708     12.528
REMARK  11 active torsions:
REMARK  status: ('A' for Active; 'I' for Inactive)
REMARK    1  A    between atoms: O_2  and  C_18 
REMARK    2  A    between atoms: O_5  and  P_8 
REMARK    3  A    between atoms: N_6  and  C_11 
REMARK    4  A    between atoms: N_7  and  C_15 
REMARK       I    between atoms: N_7  and  C_24 
REMARK    5  A    between atoms: P_8  and  C_23 
REMARK    6  A    between atoms: C_11  and  C_14 
REMARK    7  A    between atoms: C_15  and  C_18 
REMARK    8  A    between atoms: C_15  and  C_23 
REMARK    9  A    between atoms: C_21  and  C_26 
REMARK   10  A    between atoms: C_24  and  C_25 
REMARK   11  A    between atoms: C_29  and  C_32 
ROOT
HETATM    1  O   UNL     1       4.124  14.699  90.128  1.00  0.00     0.000 OA
HETATM    2  N   UNL     1       2.763  13.474  92.307  1.00  0.00     0.000 N 
HETATM    3  C   UNL     1       3.870  14.416  92.525  1.00  0.00     0.000 C 
HETATM    4  C   UNL     1       2.936  12.782  91.022  1.00  0.00     0.000 C 
HETATM    5  C   UNL     1       3.947  15.400  91.361  1.00  0.00     0.000 C 
HETATM    6  C   UNL     1       3.037  13.804  89.894  1.00  0.00     0.000 C 
ENDROOT
BRANCH   2   7
HETATM    7  C   UNL     1       2.677  12.514  93.406  1.00  0.00     0.000 C 
BRANCH   7   8
HETATM    8  C   UNL     1       3.735  11.467  93.331  1.00  0.00     0.000 A 
HETATM    9  C   UNL     1       3.381  10.129  93.152  1.00  0.00     0.000 A 
HETATM   10  C   UNL     1       4.370   9.148  93.083  1.00  0.00     0.000 A 
HETATM   11  C   UNL     1       5.713   9.506  93.191  1.00  0.00     0.000 A 
HETATM   12  C   UNL     1       6.069  10.841  93.369  1.00  0.00     0.000 A 
HETATM   13  C   UNL     1       5.080  11.822  93.439  1.00  0.00     0.000 A 
BRANCH  11  14
HETATM   14  C   UNL     1       6.728   8.500  93.118  1.00  0.00     0.000 C 
HETATM   15  C   UNL     1       7.581   7.655  93.058  1.00  0.00     0.000 C 
BRANCH  15  16
HETATM   16  C   UNL     1       8.595   6.649  92.986  1.00  0.00     0.000 A 
HETATM   17  C   UNL     1       8.843   5.995  91.778  1.00  0.00     0.000 A 
HETATM   18  C   UNL     1       9.834   5.016  91.708  1.00  0.00     0.000 A 
HETATM   19  C   UNL     1      10.554   4.714  92.844  1.00  0.00     0.000 A 
HETATM   20  C   UNL     1      10.328   5.346  94.049  1.00  0.00     0.000 A 
HETATM   21  C   UNL     1       9.338   6.325  94.121  1.00  0.00     0.000 A 
BRANCH  19  22
HETATM   22  C   UNL     1      11.608   3.669  92.768  1.00  0.00     0.000 C 
HETATM   23  O   UNL     1      11.279   2.492  92.648  1.00  0.00     0.000 OA
HETATM   24  N   UNL     1      12.919   4.124  92.817  1.00  0.00     0.000 N 
HETATM   25  HN  UNL     1      13.116   5.115  92.891  1.00  0.00     0.000 HD
BRANCH  24  26
HETATM   26  C   UNL     1      14.051   3.236  92.730  1.00  0.00     0.000 C 
BRANCH  26  27
HETATM   27  C   UNL     1      14.492   2.975  91.285  1.00  0.00     0.000 C 
HETATM   28  C   UNL     1      14.007   4.054  90.323  1.00  0.00     0.000 C 
BRANCH  27  29
HETATM   29  O   UNL     1      15.917   2.908  91.225  1.00  0.00     0.000 OA
HETATM   30  H   UNL     1      16.264   2.991  92.129  1.00  0.00     0.000 HD
ENDBRANCH  27  29
ENDBRANCH  26  27
BRANCH  26  31
HETATM   31  C   UNL     1      15.182   3.843  93.554  1.00  0.00     0.000 C 
HETATM   32  O   UNL     1      15.361   5.055  93.657  1.00  0.00     0.000 OA
BRANCH  31  33
HETATM   33  P   UNL     1      15.983   2.882  94.123  1.00  0.00     0.000 P 
HETATM   34  H   UNL     1      15.974   3.079  95.489  1.00  0.00     0.000 HD
BRANCH  33  35
HETATM   35  O   UNL     1      17.319   2.872  93.699  1.00  0.00     0.000 OA
HETATM   36  H   UNL     1      17.357   2.004  93.262  1.00  0.00     0.000 HD
ENDBRANCH  33  35
ENDBRANCH  31  33
ENDBRANCH  26  31
ENDBRANCH  24  26
ENDBRANCH  19  22
ENDBRANCH  15  16
ENDBRANCH  11  14
ENDBRANCH   7   8
ENDBRANCH   2   7
TORSDOF 11
ENDMDL
MODEL 5
REMARK VINA RESULT:      -4.3      1.818      2.649
REMARK  11 active torsions:
REMARK  status: ('A' for Active; 'I' for Inactive)
REMARK    1  A    between atoms: O_2  and  C_18 
REMARK    2  A    between atoms: O_5  and  P_8 
REMARK    3  A    between atoms: N_6  and  C_11 
REMARK    4  A    between atoms: N_7  and  C_15 
REMARK       I    between atoms: N_7  and  C_24 
REMARK    5  A    between atoms: P_8  and  C_23 
REMARK    6  A    between atoms: C_11  and  C_14 
REMARK    7  A    between atoms: C_15  and  C_18 
REMARK    8  A    between atoms: C_15  and  C_23 
REMARK    9  A    between atoms: C_21  and  C_26 
REMARK   10  A    between atoms: C_24  and  C_25 
REMARK   11  A    between atoms: C_29  and  C_32 
ROOT
HETATM    1  O   UNL     1      15.437   3.940  91.927  1.00  0.00     0.000 OA
HETATM    2  N   UNL     1      13.079   2.346  91.963  1.00  0.00     0.000 N 
HETATM    3  C   UNL     1      13.137   3.615  91.224  1.00  0.00     0.000 C 
HETATM    4  C   UNL     1      13.995   2.391  93.111  1.00  0.00     0.000 C 
HETATM    5  C   UNL     1      14.574   3.894  90.789  1.00  0.00     0.000 C 
HETATM    6  C   UNL     1      15.410   2.699  92.634  1.00  0.00     0.000 C 
ENDROOT
BRANCH   2   7
HETATM    7  C   UNL     1      11.713   2.063  92.399  1.00  0.00     0.000 C 
BRANCH   7   8
HETATM    8  C   UNL     1      10.814   3.244  92.253  1.00  0.00     0.000 A 
HETATM    9  C   UNL     1       9.912   3.306  91.191  1.00  0.00     0.000 A 
HETATM   10  C   UNL     1       9.072   4.411  91.052  1.00  0.00     0.000 A 
HETATM   11  C   UNL     1       9.134   5.452  91.978  1.00  0.00     0.000 A 
HETATM   12  C   UNL     1      10.035   5.392  93.040  1.00  0.00     0.000 A 
HETATM   13  C   UNL     1      10.875   4.287  93.178  1.00  0.00     0.000 A 
BRANCH  11  14
HETATM   14  C   UNL     1       8.271   6.585  91.837  1.00  0.00     0.000 C 
HETATM   15  C   UNL     1       7.547   7.537  91.719  1.00  0.00     0.000 C 
BRANCH  15  16
HETATM   16  C   UNL     1       6.685   8.669  91.578  1.00  0.00     0.000 A 
HETATM   17  C   UNL     1       6.843   9.774  92.415  1.00  0.00     0.000 A 
HETATM   18  C   UNL     1       6.004  10.879  92.275  1.00  0.00     0.000 A 
HETATM   19  C   UNL     1       5.028  10.856  91.302  1.00  0.00     0.000 A 
HETATM   20  C   UNL     1       4.851   9.777  90.462  1.00  0.00     0.000 A 
HETATM   21  C   UNL     1       5.690   8.671  90.601  1.00  0.00     0.000 A 
BRANCH  19  22
HETATM   22  C   UNL     1       4.133  12.033  91.154  1.00  0.00     0.000 C 
HETATM   23  O   UNL     1       3.015  11.880  90.667  1.00  0.00     0.000 OA
HETATM   24  N   UNL     1       4.637  13.242  91.614  1.00  0.00     0.000 N 
HETATM   25  HN  UNL     1       5.561  13.288  92.028  1.00  0.00     0.000 HD
BRANCH  24  26
HETATM   26  C   UNL     1       3.881  14.467  91.563  1.00  0.00     0.000 C 
BRANCH  26  27
HETATM   27  C   UNL     1       3.703  14.995  90.134  1.00  0.00     0.000 C 
HETATM   28  C   UNL     1       5.033  15.256  89.437  1.00  0.00     0.000 C 
BRANCH  27  29
HETATM   29  O   UNL     1       2.955  14.052  89.367  1.00  0.00     0.000 OA
HETATM   30  H   UNL     1       2.017  14.142  89.603  1.00  0.00     0.000 HD
ENDBRANCH  27  29
ENDBRANCH  26  27
BRANCH  26  31
HETATM   31  C   UNL     1       2.535  14.213  92.233  1.00  0.00     0.000 C 
HETATM   32  O   UNL     1       1.469  14.229  91.620  1.00  0.00     0.000 OA
BRANCH  31  33
HETATM   33  P   UNL     1       2.659  14.006  93.585  1.00  0.00     0.000 P 
HETATM   34  H   UNL     1       3.987  13.744  93.853  1.00  0.00     0.000 HD
BRANCH  33  35
HETATM   35  O   UNL     1       1.898  12.954  94.114  1.00  0.00     0.000 OA
HETATM   36  H   UNL     1       2.318  12.196  93.674  1.00  0.00     0.000 HD
ENDBRANCH  33  35
ENDBRANCH  31  33
ENDBRANCH  26  31
ENDBRANCH  24  26
ENDBRANCH  19  22
ENDBRANCH  15  16
ENDBRANCH  11  14
ENDBRANCH   7   8
ENDBRANCH   2   7
TORSDOF 11
ENDMDL
MODEL 6
REMARK VINA RESULT:      -4.2      3.332     12.708
REMARK  11 active torsions:
REMARK  status: ('A' for Active; 'I' for Inactive)
REMARK    1  A    between atoms: O_2  and  C_18 
REMARK    2  A    between atoms: O_5  and  P_8 
REMARK    3  A    between atoms: N_6  and  C_11 
REMARK    4  A    between atoms: N_7  and  C_15 
REMARK       I    between atoms: N_7  and  C_24 
REMARK    5  A    between atoms: P_8  and  C_23 
REMARK    6  A    between atoms: C_11  and  C_14 
REMARK    7  A    between atoms: C_15  and  C_18 
REMARK    8  A    between atoms: C_15  and  C_23 
REMARK    9  A    between atoms: C_21  and  C_26 
REMARK   10  A    between atoms: C_24  and  C_25 
REMARK   11  A    between atoms: C_29  and  C_32 
ROOT
HETATM    1  O   UNL     1       2.106  15.226  91.954  1.00  0.00     0.000 OA
HETATM    2  N   UNL     1       3.931  13.340  90.851  1.00  0.00     0.000 N 
HETATM    3  C   UNL     1       4.381  14.653  91.334  1.00  0.00     0.000 C 
HETATM    4  C   UNL     1       2.539  13.424  90.388  1.00  0.00     0.000 C 
HETATM    5  C   UNL     1       3.448  15.146  92.437  1.00  0.00     0.000 C 
HETATM    6  C   UNL     1       1.650  13.947  91.512  1.00  0.00     0.000 C 
ENDROOT
BRANCH   2   7
HETATM    7  C   UNL     1       4.805  12.853  89.786  1.00  0.00     0.000 C 
BRANCH   7   8
HETATM    8  C   UNL     1       5.702  11.754  90.245  1.00  0.00     0.000 A 
HETATM    9  C   UNL     1       5.398  11.048  91.409  1.00  0.00     0.000 A 
HETATM   10  C   UNL     1       6.238  10.021  91.841  1.00  0.00     0.000 A 
HETATM   11  C   UNL     1       7.379   9.700  91.107  1.00  0.00     0.000 A 
HETATM   12  C   UNL     1       7.683  10.404  89.944  1.00  0.00     0.000 A 
HETATM   13  C   UNL     1       6.844  11.432  89.512  1.00  0.00     0.000 A 
BRANCH  11  14
HETATM   14  C   UNL     1       8.239   8.645  91.549  1.00  0.00     0.000 C 
HETATM   15  C   UNL     1       8.961   7.758  91.919  1.00  0.00     0.000 C 
BRANCH  15  16
HETATM   16  C   UNL     1       9.821   6.704  92.360  1.00  0.00     0.000 A 
HETATM   17  C   UNL     1      10.226   6.647  93.694  1.00  0.00     0.000 A 
HETATM   18  C   UNL     1      11.062   5.618  94.124  1.00  0.00     0.000 A 
HETATM   19  C   UNL     1      11.474   4.668  93.212  1.00  0.00     0.000 A 
HETATM   20  C   UNL     1      11.088   4.702  91.889  1.00  0.00     0.000 A 
HETATM   21  C   UNL     1      10.252   5.732  91.457  1.00  0.00     0.000 A 
BRANCH  19  22
HETATM   22  C   UNL     1      12.367   3.572  93.671  1.00  0.00     0.000 C 
HETATM   23  O   UNL     1      11.870   2.544  94.124  1.00  0.00     0.000 OA
HETATM   24  N   UNL     1      13.729   3.796  93.524  1.00  0.00     0.000 N 
HETATM   25  HN  UNL     1      14.066   4.661  93.118  1.00  0.00     0.000 HD
BRANCH  24  26
HETATM   26  C   UNL     1      14.720   2.820  93.899  1.00  0.00     0.000 C 
BRANCH  26  27
HETATM   27  C   UNL     1      14.820   1.661  92.899  1.00  0.00     0.000 C 
HETATM   28  C   UNL     1      13.549   1.490  92.075  1.00  0.00     0.000 C 
BRANCH  27  29
HETATM   29  O   UNL     1      15.918   1.886  92.016  1.00  0.00     0.000 OA
HETATM   30  H   UNL     1      15.827   2.776  91.636  1.00  0.00     0.000 HD
ENDBRANCH  27  29
ENDBRANCH  26  27
BRANCH  26  31
HETATM   31  C   UNL     1      16.055   3.543  94.045  1.00  0.00     0.000 C 
HETATM   32  O   UNL     1      17.131   2.954  94.120  1.00  0.00     0.000 OA
BRANCH  31  33
HETATM   33  P   UNL     1      15.901   4.907  94.119  1.00  0.00     0.000 P 
HETATM   34  H   UNL     1      14.550   5.175  94.215  1.00  0.00     0.000 HD
BRANCH  33  35
HETATM   35  O   UNL     1      16.408   5.638  93.035  1.00  0.00     0.000 OA
HETATM   36  H   UNL     1      16.027   5.137  92.294  1.00  0.00     0.000 HD
ENDBRANCH  33  35
ENDBRANCH  31  33
ENDBRANCH  26  31
ENDBRANCH  24  26
ENDBRANCH  19  22
ENDBRANCH  15  16
ENDBRANCH  11  14
ENDBRANCH   7   8
ENDBRANCH   2   7
TORSDOF 11
ENDMDL
MODEL 7
REMARK VINA RESULT:      -4.1      3.499     12.259
REMARK  11 active torsions:
REMARK  status: ('A' for Active; 'I' for Inactive)
REMARK    1  A    between atoms: O_2  and  C_18 
REMARK    2  A    between atoms: O_5  and  P_8 
REMARK    3  A    between atoms: N_6  and  C_11 
REMARK    4  A    between atoms: N_7  and  C_15 
REMARK       I    between atoms: N_7  and  C_24 
REMARK    5  A    between atoms: P_8  and  C_23 
REMARK    6  A    between atoms: C_11  and  C_14 
REMARK    7  A    between atoms: C_15  and  C_18 
REMARK    8  A    between atoms: C_15  and  C_23 
REMARK    9  A    between atoms: C_21  and  C_26 
REMARK   10  A    between atoms: C_24  and  C_25 
REMARK   11  A    between atoms: C_29  and  C_32 
ROOT
HETATM    1  O   UNL     1       4.175  15.603  93.764  1.00  0.00     0.000 OA
HETATM    2  N   UNL     1       2.551  14.012  92.051  1.00  0.00     0.000 N 
HETATM    3  C   UNL     1       2.165  14.280  93.443  1.00  0.00     0.000 C 
HETATM    4  C   UNL     1       4.014  14.034  91.921  1.00  0.00     0.000 C 
HETATM    5  C   UNL     1       2.752  15.616  93.894  1.00  0.00     0.000 C 
HETATM    6  C   UNL     1       4.558  15.373  92.407  1.00  0.00     0.000 C 
ENDROOT
BRANCH   2   7
HETATM    7  C   UNL     1       2.008  12.732  91.601  1.00  0.00     0.000 C 
BRANCH   7   8
HETATM    8  C   UNL     1       3.059  11.682  91.473  1.00  0.00     0.000 A 
HETATM    9  C   UNL     1       3.704  11.199  92.612  1.00  0.00     0.000 A 
HETATM   10  C   UNL     1       4.689  10.219  92.493  1.00  0.00     0.000 A 
HETATM   11  C   UNL     1       5.027   9.722  91.236  1.00  0.00     0.000 A 
HETATM   12  C   UNL     1       4.384  10.203  90.097  1.00  0.00     0.000 A 
HETATM   13  C   UNL     1       3.399  11.183  90.215  1.00  0.00     0.000 A 
BRANCH  11  14
HETATM   14  C   UNL     1       6.036   8.715  91.114  1.00  0.00     0.000 C 
HETATM   15  C   UNL     1       6.885   7.868  91.013  1.00  0.00     0.000 C 
BRANCH  15  16
HETATM   16  C   UNL     1       7.893   6.862  90.892  1.00  0.00     0.000 A 
HETATM   17  C   UNL     1       8.402   6.245  92.035  1.00  0.00     0.000 A 
HETATM   18  C   UNL     1       9.383   5.261  91.917  1.00  0.00     0.000 A 
HETATM   19  C   UNL     1       9.832   4.915  90.660  1.00  0.00     0.000 A 
HETATM   20  C   UNL     1       9.345   5.510  89.514  1.00  0.00     0.000 A 
HETATM   21  C   UNL     1       8.364   6.494  89.632  1.00  0.00     0.000 A 
BRANCH  19  22
HETATM   22  C   UNL     1      10.879   3.868  90.534  1.00  0.00     0.000 C 
HETATM   23  O   UNL     1      10.907   3.165  89.527  1.00  0.00     0.000 OA
HETATM   24  N   UNL     1      11.782   3.783  91.585  1.00  0.00     0.000 N 
HETATM   25  HN  UNL     1      11.712   4.414  92.374  1.00  0.00     0.000 HD
BRANCH  24  26
HETATM   26  C   UNL     1      12.868   2.835  91.599  1.00  0.00     0.000 C 
BRANCH  26  27
HETATM   27  C   UNL     1      14.074   3.302  90.774  1.00  0.00     0.000 C 
HETATM   28  C   UNL     1      14.166   4.822  90.683  1.00  0.00     0.000 C 
BRANCH  27  29
HETATM   29  O   UNL     1      15.275   2.800  91.359  1.00  0.00     0.000 OA
HETATM   30  H   UNL     1      15.712   2.223  90.710  1.00  0.00     0.000 HD
ENDBRANCH  27  29
ENDBRANCH  26  27
BRANCH  26  31
HETATM   31  C   UNL     1      13.253   2.589  93.054  1.00  0.00     0.000 C 
HETATM   32  O   UNL     1      14.147   1.815  93.389  1.00  0.00     0.000 OA
BRANCH  31  33
HETATM   33  P   UNL     1      12.463   3.298  93.927  1.00  0.00     0.000 P 
HETATM   34  H   UNL     1      11.170   3.271  93.444  1.00  0.00     0.000 HD
BRANCH  33  35
HETATM   35  O   UNL     1      12.821   4.640  94.122  1.00  0.00     0.000 OA
HETATM   36  H   UNL     1      12.874   4.942  93.199  1.00  0.00     0.000 HD
ENDBRANCH  33  35
ENDBRANCH  31  33
ENDBRANCH  26  31
ENDBRANCH  24  26
ENDBRANCH  19  22
ENDBRANCH  15  16
ENDBRANCH  11  14
ENDBRANCH   7   8
ENDBRANCH   2   7
TORSDOF 11
ENDMDL
