MODEL 1
REMARK VINA RESULT:      -6.2      0.000      0.000
REMARK  10 active torsions:
REMARK  status: ('A' for Active; 'I' for Inactive)
REMARK    1  A    between atoms: O_2  and  C_18 
REMARK    2  A    between atoms: O_5  and  N_8 
REMARK    3  A    between atoms: N_6  and  C_11 
REMARK    4  A    between atoms: N_7  and  C_15 
REMARK       I    between atoms: N_7  and  C_24 
REMARK       I    between atoms: N_8  and  C_23 
REMARK    5  A    between atoms: C_11  and  C_14 
REMARK    6  A    between atoms: C_15  and  C_18 
REMARK    7  A    between atoms: C_15  and  C_23 
REMARK    8  A    between atoms: C_21  and  C_26 
REMARK    9  A    between atoms: C_24  and  C_25 
REMARK   10  A    between atoms: C_29  and  C_32 
ROOT
HETATM    1  O   UNK     0      16.334   4.156  94.094  0.00  0.00    -0.388 OA
HETATM    2  N   UNK     0      14.613   2.493  92.553  0.00  0.00     0.096 N 
HETATM    3  C   UNK     0      14.487   3.957  92.532  0.00  0.00     0.299 C 
HETATM    4  C   UNK     0      15.150   2.053  93.848  0.00  0.00     0.299 C 
HETATM    5  C   UNK     0      15.842   4.596  92.827  0.00  0.00     0.198 C 
HETATM    6  C   UNK     0      16.488   2.736  94.112  0.00  0.00     0.198 C 
ENDROOT
BRANCH   2   7
HETATM    7  C   UNK     0      13.323   1.859  92.284  0.00  0.00     0.311 C 
BRANCH   7   8
HETATM    8  C   UNK     0      12.235   2.855  92.066  0.00  0.00    -0.030 A 
HETATM    9  C   UNK     0      11.780   3.117  90.773  0.00  0.00     0.010 A 
HETATM   10  C   UNK     0      10.764   4.050  90.568  0.00  0.00     0.021 A 
HETATM   11  C   UNK     0      10.202   4.718  91.655  0.00  0.00     0.018 A 
HETATM   12  C   UNK     0      10.656   4.457  92.946  0.00  0.00     0.021 A 
HETATM   13  C   UNK     0      11.673   3.525  93.152  0.00  0.00     0.010 A 
BRANCH  11  14
HETATM   14  C   UNK     0       9.158   5.674  91.444  0.00  0.00    -0.061 C 
HETATM   15  C   UNK     0       8.281   6.477  91.267  0.00  0.00    -0.061 C 
BRANCH  15  16
HETATM   16  C   UNK     0       7.239   7.431  91.056  0.00  0.00     0.018 A 
HETATM   17  C   UNK     0       5.970   7.002  90.665  0.00  0.00     0.022 A 
HETATM   18  C   UNK     0       4.952   7.934  90.461  0.00  0.00     0.018 A 
HETATM   19  C   UNK     0       5.225   9.272  90.651  0.00  0.00     0.032 A 
HETATM   20  C   UNK     0       6.470   9.722  91.036  0.00  0.00     0.018 A 
HETATM   21  C   UNK     0       7.489   8.791  91.240  0.00  0.00     0.022 A 
BRANCH  19  22
HETATM   22  C   UNK     0       4.140  10.264  90.432  0.00  0.00     0.252 C 
HETATM   23  O   UNK     0       2.970   9.896  90.489  0.00  0.00    -0.268 OA
HETATM   24  N   UNK     0       4.549  11.569  90.196  0.00  0.00    -0.341 N 
HETATM   25  H   UNK     0       5.535  11.805  90.187  0.00  0.00     0.163 HD
BRANCH  24  26
HETATM   26  C   UNK     0       3.617  12.648  89.988  0.00  0.00     0.207 C 
BRANCH  26  27
HETATM   27  C   UNK     0       3.342  13.449  91.267  0.00  0.00     0.146 C 
HETATM   28  C   UNK     0       2.146  12.912  92.046  0.00  0.00     0.042 C 
BRANCH  27  29
HETATM   29  O   UNK     0       4.495  13.417  92.108  0.00  0.00    -0.393 OA
HETATM   30  H   UNK     0       4.266  13.833  92.956  0.00  0.00     0.210 HD
ENDBRANCH  27  29
ENDBRANCH  26  27
BRANCH  26  31
HETATM   31  C   UNK     0       4.176  13.541  88.885  0.00  0.00     0.266 C 
HETATM   32  O   UNK     0       4.382  14.744  89.036  0.00  0.00    -0.269 OA
HETATM   33  N   UNK     0       4.378  12.852  87.713  0.00  0.00    -0.236 N 
HETATM   34  H   UNK     0       4.136  11.886  87.528  0.00  0.00     0.197 HD
BRANCH  33  35
HETATM   35  O   UNK     0       4.855  13.611  86.635  0.00  0.00    -0.287 OA
HETATM   36  H   UNK     0       4.463  14.476  86.842  0.00  0.00     0.244 HD
ENDBRANCH  33  35
ENDBRANCH  26  31
ENDBRANCH  24  26
ENDBRANCH  19  22
ENDBRANCH  15  16
ENDBRANCH  11  14
ENDBRANCH   7   8
ENDBRANCH   2   7
TORSDOF 10
ENDMDL
MODEL 2
REMARK VINA RESULT:      -5.9      1.392      1.985
REMARK  10 active torsions:
REMARK  status: ('A' for Active; 'I' for Inactive)
REMARK    1  A    between atoms: O_2  and  C_18 
REMARK    2  A    between atoms: O_5  and  N_8 
REMARK    3  A    between atoms: N_6  and  C_11 
REMARK    4  A    between atoms: N_7  and  C_15 
REMARK       I    between atoms: N_7  and  C_24 
REMARK       I    between atoms: N_8  and  C_23 
REMARK    5  A    between atoms: C_11  and  C_14 
REMARK    6  A    between atoms: C_15  and  C_18 
REMARK    7  A    between atoms: C_15  and  C_23 
REMARK    8  A    between atoms: C_21  and  C_26 
REMARK    9  A    between atoms: C_24  and  C_25 
REMARK   10  A    between atoms: C_29  and  C_32 
ROOT
HETATM    1  O   UNK     0      16.686   3.380  93.788  0.00  0.00    -0.388 OA
HETATM    2  N   UNK     0      14.044   2.962  92.814  0.00  0.00     0.096 N 
HETATM    3  C   UNK     0      14.972   1.842  93.020  0.00  0.00     0.299 C 
HETATM    4  C   UNK     0      14.793   4.186  92.501  0.00  0.00     0.299 C 
HETATM    5  C   UNK     0      15.967   2.192  94.124  0.00  0.00     0.198 C 
HETATM    6  C   UNK     0      15.792   4.481  93.616  0.00  0.00     0.198 C 
ENDROOT
BRANCH   2   7
HETATM    7  C   UNK     0      13.087   2.654  91.752  0.00  0.00     0.311 C 
BRANCH   7   8
HETATM    8  C   UNK     0      11.989   3.658  91.668  0.00  0.00    -0.030 A 
HETATM    9  C   UNK     0      11.363   4.105  92.832  0.00  0.00     0.010 A 
HETATM   10  C   UNK     0      10.334   5.043  92.754  0.00  0.00     0.021 A 
HETATM   11  C   UNK     0       9.932   5.534  91.512  0.00  0.00     0.018 A 
HETATM   12  C   UNK     0      10.556   5.088  90.349  0.00  0.00     0.021 A 
HETATM   13  C   UNK     0      11.585   4.150  90.427  0.00  0.00     0.010 A 
BRANCH  11  14
HETATM   14  C   UNK     0       8.877   6.497  91.433  0.00  0.00    -0.061 C 
HETATM   15  C   UNK     0       7.991   7.307  91.366  0.00  0.00    -0.061 C 
BRANCH  15  16
HETATM   16  C   UNK     0       6.937   8.269  91.287  0.00  0.00     0.018 A 
HETATM   17  C   UNK     0       5.866   8.059  90.417  0.00  0.00     0.022 A 
HETATM   18  C   UNK     0       4.836   8.996  90.341  0.00  0.00     0.018 A 
HETATM   19  C   UNK     0       4.898  10.121  91.137  0.00  0.00     0.032 A 
HETATM   20  C   UNK     0       5.945  10.352  92.005  0.00  0.00     0.018 A 
HETATM   21  C   UNK     0       6.976   9.415  92.080  0.00  0.00     0.022 A 
BRANCH  19  22
HETATM   22  C   UNK     0       3.801  11.120  91.055  0.00  0.00     0.252 C 
HETATM   23  O   UNK     0       2.826  10.883  90.347  0.00  0.00    -0.268 OA
HETATM   24  N   UNK     0       3.961  12.264  91.825  0.00  0.00    -0.341 N 
HETATM   25  H   UNK     0       4.783  12.380  92.406  0.00  0.00     0.163 HD
BRANCH  24  26
HETATM   26  C   UNK     0       2.974  13.312  91.871  0.00  0.00     0.207 C 
BRANCH  26  27
HETATM   27  C   UNK     0       3.014  14.108  93.182  0.00  0.00     0.146 C 
HETATM   28  C   UNK     0       4.273  13.831  93.995  0.00  0.00     0.042 C 
BRANCH  27  29
HETATM   29  O   UNK     0       2.945  15.504  92.895  0.00  0.00    -0.393 OA
HETATM   30  H   UNK     0       3.713  15.741  92.348  0.00  0.00     0.210 HD
ENDBRANCH  27  29
ENDBRANCH  26  27
BRANCH  26  31
HETATM   31  C   UNK     0       3.202  14.218  90.665  0.00  0.00     0.266 C 
HETATM   32  O   UNK     0       2.334  14.443  89.823  0.00  0.00    -0.269 OA
HETATM   33  N   UNK     0       4.484  14.710  90.620  0.00  0.00    -0.236 N 
HETATM   34  H   UNK     0       5.246  14.475  91.245  0.00  0.00     0.197 HD
BRANCH  33  35
HETATM   35  O   UNK     0       4.787  15.524  89.519  0.00  0.00    -0.287 OA
HETATM   36  H   UNK     0       5.691  15.224  89.324  0.00  0.00     0.244 HD
ENDBRANCH  33  35
ENDBRANCH  26  31
ENDBRANCH  24  26
ENDBRANCH  19  22
ENDBRANCH  15  16
ENDBRANCH  11  14
ENDBRANCH   7   8
ENDBRANCH   2   7
TORSDOF 10
ENDMDL
MODEL 3
REMARK VINA RESULT:      -5.1      2.794     12.306
REMARK  10 active torsions:
REMARK  status: ('A' for Active; 'I' for Inactive)
REMARK    1  A    between atoms: O_2  and  C_18 
REMARK    2  A    between atoms: O_5  and  N_8 
REMARK    3  A    between atoms: N_6  and  C_11 
REMARK    4  A    between atoms: N_7  and  C_15 
REMARK       I    between atoms: N_7  and  C_24 
REMARK       I    between atoms: N_8  and  C_23 
REMARK    5  A    between atoms: C_11  and  C_14 
REMARK    6  A    between atoms: C_15  and  C_18 
REMARK    7  A    between atoms: C_15  and  C_23 
REMARK    8  A    between atoms: C_21  and  C_26 
REMARK    9  A    between atoms: C_24  and  C_25 
REMARK   10  A    between atoms: C_29  and  C_32 
ROOT
HETATM    1  O   UNK     0       3.097  14.813  94.096  0.00  0.00    -0.388 OA
HETATM    2  N   UNK     0       2.829  14.743  91.263  0.00  0.00     0.096 N 
HETATM    3  C   UNK     0       1.868  14.063  92.142  0.00  0.00     0.299 C 
HETATM    4  C   UNK     0       4.147  14.803  91.909  0.00  0.00     0.299 C 
HETATM    5  C   UNK     0       1.804  14.778  93.490  0.00  0.00     0.198 C 
HETATM    6  C   UNK     0       4.030  15.500  93.262  0.00  0.00     0.198 C 
ENDROOT
BRANCH   2   7
HETATM    7  C   UNK     0       2.915  14.068  89.970  0.00  0.00     0.311 C 
BRANCH   7   8
HETATM    8  C   UNK     0       3.919  12.966  89.970  0.00  0.00    -0.030 A 
HETATM    9  C   UNK     0       3.686  11.813  90.720  0.00  0.00     0.010 A 
HETATM   10  C   UNK     0       4.625  10.781  90.723  0.00  0.00     0.021 A 
HETATM   11  C   UNK     0       5.795  10.903  89.973  0.00  0.00     0.018 A 
HETATM   12  C   UNK     0       6.028  12.054  89.223  0.00  0.00     0.021 A 
HETATM   13  C   UNK     0       5.090  13.086  89.221  0.00  0.00     0.010 A 
BRANCH  11  14
HETATM   14  C   UNK     0       6.757   9.844  89.974  0.00  0.00    -0.061 C 
HETATM   15  C   UNK     0       7.566   8.955  89.975  0.00  0.00    -0.061 C 
BRANCH  15  16
HETATM   16  C   UNK     0       8.526   7.896  89.975  0.00  0.00     0.018 A 
HETATM   17  C   UNK     0       8.793   7.198  91.154  0.00  0.00     0.022 A 
HETATM   18  C   UNK     0       9.729   6.164  91.154  0.00  0.00     0.018 A 
HETATM   19  C   UNK     0      10.376   5.850  89.977  0.00  0.00     0.032 A 
HETATM   20  C   UNK     0      10.131   6.524  88.800  0.00  0.00     0.018 A 
HETATM   21  C   UNK     0       9.196   7.559  88.799  0.00  0.00     0.022 A 
BRANCH  19  22
HETATM   22  C   UNK     0      11.374   4.749  89.979  0.00  0.00     0.252 C 
HETATM   23  O   UNK     0      11.550   4.098  88.952  0.00  0.00    -0.268 OA
HETATM   24  N   UNK     0      12.064   4.556  91.167  0.00  0.00    -0.341 N 
HETATM   25  H   UNK     0      11.883   5.150  91.968  0.00  0.00     0.163 HD
BRANCH  24  26
HETATM   26  C   UNK     0      13.080   3.545  91.319  0.00  0.00     0.207 C 
BRANCH  26  27
HETATM   27  C   UNK     0      14.272   4.022  92.158  0.00  0.00     0.146 C 
HETATM   28  C   UNK     0      13.913   4.215  93.627  0.00  0.00     0.042 C 
BRANCH  27  29
HETATM   29  O   UNK     0      15.334   3.074  92.061  0.00  0.00    -0.393 OA
HETATM   30  H   UNK     0      16.153   3.553  91.848  0.00  0.00     0.210 HD
ENDBRANCH  27  29
ENDBRANCH  26  27
BRANCH  26  31
HETATM   31  C   UNK     0      12.424   2.315  91.937  0.00  0.00     0.266 C 
HETATM   32  O   UNK     0      13.026   1.259  92.126  0.00  0.00    -0.269 OA
HETATM   33  N   UNK     0      11.094   2.519  92.214  0.00  0.00    -0.236 N 
HETATM   34  H   UNK     0      10.548   3.343  91.990  0.00  0.00     0.197 HD
BRANCH  33  35
HETATM   35  O   UNK     0      10.407   1.421  92.751  0.00  0.00    -0.287 OA
HETATM   36  H   UNK     0       9.648   1.377  92.144  0.00  0.00     0.244 HD
ENDBRANCH  33  35
ENDBRANCH  26  31
ENDBRANCH  24  26
ENDBRANCH  19  22
ENDBRANCH  15  16
ENDBRANCH  11  14
ENDBRANCH   7   8
ENDBRANCH   2   7
TORSDOF 10
ENDMDL
MODEL 4
REMARK VINA RESULT:      -5.1      1.573      2.686
REMARK  10 active torsions:
REMARK  status: ('A' for Active; 'I' for Inactive)
REMARK    1  A    between atoms: O_2  and  C_18 
REMARK    2  A    between atoms: O_5  and  N_8 
REMARK    3  A    between atoms: N_6  and  C_11 
REMARK    4  A    between atoms: N_7  and  C_15 
REMARK       I    between atoms: N_7  and  C_24 
REMARK       I    between atoms: N_8  and  C_23 
REMARK    5  A    between atoms: C_11  and  C_14 
REMARK    6  A    between atoms: C_15  and  C_18 
REMARK    7  A    between atoms: C_15  and  C_23 
REMARK    8  A    between atoms: C_21  and  C_26 
REMARK    9  A    between atoms: C_24  and  C_25 
REMARK   10  A    between atoms: C_29  and  C_32 
ROOT
HETATM    1  O   UNK     0      16.731   3.308  94.051  0.00  0.00    -0.388 OA
HETATM    2  N   UNK     0      14.343   3.068  92.520  0.00  0.00     0.096 N 
HETATM    3  C   UNK     0      14.390   3.871  93.750  0.00  0.00     0.299 C 
HETATM    4  C   UNK     0      15.320   1.974  92.597  0.00  0.00     0.299 C 
HETATM    5  C   UNK     0      15.807   4.394  93.973  0.00  0.00     0.198 C 
HETATM    6  C   UNK     0      16.714   2.540  92.847  0.00  0.00     0.198 C 
ENDROOT
BRANCH   2   7
HETATM    7  C   UNK     0      12.996   2.548  92.293  0.00  0.00     0.311 C 
BRANCH   7   8
HETATM    8  C   UNK     0      11.991   3.634  92.115  0.00  0.00    -0.030 A 
HETATM    9  C   UNK     0      11.322   4.152  93.224  0.00  0.00     0.010 A 
HETATM   10  C   UNK     0      10.379   5.167  93.059  0.00  0.00     0.021 A 
HETATM   11  C   UNK     0      10.107   5.663  91.784  0.00  0.00     0.018 A 
HETATM   12  C   UNK     0      10.774   5.146  90.676  0.00  0.00     0.021 A 
HETATM   13  C   UNK     0      11.717   4.131  90.841  0.00  0.00     0.010 A 
BRANCH  11  14
HETATM   14  C   UNK     0       9.141   6.705  91.615  0.00  0.00    -0.061 C 
HETATM   15  C   UNK     0       8.330   7.581  91.472  0.00  0.00    -0.061 C 
BRANCH  15  16
HETATM   16  C   UNK     0       7.367   8.623  91.304  0.00  0.00     0.018 A 
HETATM   17  C   UNK     0       7.642   9.696  90.456  0.00  0.00     0.022 A 
HETATM   18  C   UNK     0       6.701  10.712  90.290  0.00  0.00     0.018 A 
HETATM   19  C   UNK     0       5.506  10.632  90.974  0.00  0.00     0.032 A 
HETATM   20  C   UNK     0       5.209   9.582  91.818  0.00  0.00     0.018 A 
HETATM   21  C   UNK     0       6.151   8.567  91.985  0.00  0.00     0.022 A 
BRANCH  19  22
HETATM   22  C   UNK     0       4.504  11.716  90.799  0.00  0.00     0.252 C 
HETATM   23  O   UNK     0       3.503  11.502  90.120  0.00  0.00    -0.268 OA
HETATM   24  N   UNK     0       4.777  12.908  91.454  0.00  0.00    -0.341 N 
HETATM   25  H   UNK     0       5.613  13.003  92.019  0.00  0.00     0.163 HD
BRANCH  24  26
HETATM   26  C   UNK     0       3.891  14.043  91.401  0.00  0.00     0.207 C 
BRANCH  26  27
HETATM   27  C   UNK     0       3.785  14.648  89.995  0.00  0.00     0.146 C 
HETATM   28  C   UNK     0       5.105  14.590  89.234  0.00  0.00     0.042 C 
BRANCH  27  29
HETATM   29  O   UNK     0       2.789  13.949  89.249  0.00  0.00    -0.393 OA
HETATM   30  H   UNK     0       2.014  13.820  89.821  0.00  0.00     0.210 HD
ENDBRANCH  27  29
ENDBRANCH  26  27
BRANCH  26  31
HETATM   31  C   UNK     0       2.527  13.594  91.915  0.00  0.00     0.266 C 
HETATM   32  O   UNK     0       1.470  14.090  91.531  0.00  0.00    -0.269 OA
HETATM   33  N   UNK     0       2.630  12.612  92.871  0.00  0.00    -0.236 N 
HETATM   34  H   UNK     0       3.485  12.245  93.273  0.00  0.00     0.197 HD
BRANCH  33  35
HETATM   35  O   UNK     0       1.420  12.169  93.424  0.00  0.00    -0.287 OA
HETATM   36  H   UNK     0       0.862  12.950  93.269  0.00  0.00     0.244 HD
ENDBRANCH  33  35
ENDBRANCH  26  31
ENDBRANCH  24  26
ENDBRANCH  19  22
ENDBRANCH  15  16
ENDBRANCH  11  14
ENDBRANCH   7   8
ENDBRANCH   2   7
TORSDOF 10
ENDMDL
MODEL 5
REMARK VINA RESULT:      -4.7      1.902     12.379
REMARK  10 active torsions:
REMARK  status: ('A' for Active; 'I' for Inactive)
REMARK    1  A    between atoms: O_2  and  C_18 
REMARK    2  A    between atoms: O_5  and  N_8 
REMARK    3  A    between atoms: N_6  and  C_11 
REMARK    4  A    between atoms: N_7  and  C_15 
REMARK       I    between atoms: N_7  and  C_24 
REMARK       I    between atoms: N_8  and  C_23 
REMARK    5  A    between atoms: C_11  and  C_14 
REMARK    6  A    between atoms: C_15  and  C_18 
REMARK    7  A    between atoms: C_15  and  C_23 
REMARK    8  A    between atoms: C_21  and  C_26 
REMARK    9  A    between atoms: C_24  and  C_25 
REMARK   10  A    between atoms: C_29  and  C_32 
ROOT
HETATM    1  O   UNK     0       3.462  14.034  92.156  0.00  0.00    -0.388 OA
HETATM    2  N   UNK     0       3.704  13.189  89.449  0.00  0.00     0.096 N 
HETATM    3  C   UNK     0       3.095  12.326  90.471  0.00  0.00     0.299 C 
HETATM    4  C   UNK     0       4.695  14.080  90.067  0.00  0.00     0.299 C 
HETATM    5  C   UNK     0       2.473  13.186  91.569  0.00  0.00     0.198 C 
HETATM    6  C   UNK     0       4.036  14.898  91.174  0.00  0.00     0.198 C 
ENDROOT
BRANCH   2   7
HETATM    7  C   UNK     0       4.316  12.386  88.391  0.00  0.00     0.311 C 
BRANCH   7   8
HETATM    8  C   UNK     0       5.220  11.331  88.931  0.00  0.00    -0.030 A 
HETATM    9  C   UNK     0       4.796  10.001  88.965  0.00  0.00     0.010 A 
HETATM   10  C   UNK     0       5.641   9.014  89.472  0.00  0.00     0.021 A 
HETATM   11  C   UNK     0       6.909   9.355  89.941  0.00  0.00     0.018 A 
HETATM   12  C   UNK     0       7.333  10.682  89.907  0.00  0.00     0.021 A 
HETATM   13  C   UNK     0       6.488  11.670  89.401  0.00  0.00     0.010 A 
BRANCH  11  14
HETATM   14  C   UNK     0       7.776   8.341  90.458  0.00  0.00    -0.061 C 
HETATM   15  C   UNK     0       8.504   7.489  90.894  0.00  0.00    -0.061 C 
BRANCH  15  16
HETATM   16  C   UNK     0       9.371   6.478  91.410  0.00  0.00     0.018 A 
HETATM   17  C   UNK     0       9.600   6.391  92.784  0.00  0.00     0.022 A 
HETATM   18  C   UNK     0      10.444   5.403  93.289  0.00  0.00     0.018 A 
HETATM   19  C   UNK     0      11.040   4.522  92.410  0.00  0.00     0.032 A 
HETATM   20  C   UNK     0      10.831   4.587  91.048  0.00  0.00     0.018 A 
HETATM   21  C   UNK     0       9.987   5.576  90.543  0.00  0.00     0.022 A 
BRANCH  19  22
HETATM   22  C   UNK     0      11.941   3.471  92.948  0.00  0.00     0.252 C 
HETATM   23  O   UNK     0      11.547   2.308  92.990  0.00  0.00    -0.268 OA
HETATM   24  N   UNK     0      13.200   3.895  93.349  0.00  0.00    -0.341 N 
HETATM   25  H   UNK     0      13.465   4.870  93.261  0.00  0.00     0.163 HD
BRANCH  24  26
HETATM   26  C   UNK     0      14.194   2.991  93.869  0.00  0.00     0.207 C 
BRANCH  26  27
HETATM   27  C   UNK     0      14.309   1.700  93.049  0.00  0.00     0.146 C 
HETATM   28  C   UNK     0      15.077   1.901  91.747  0.00  0.00     0.042 C 
BRANCH  27  29
HETATM   29  O   UNK     0      14.968   0.699  93.825  0.00  0.00    -0.393 OA
HETATM   30  H   UNK     0      14.306   0.269  94.393  0.00  0.00     0.210 HD
ENDBRANCH  27  29
ENDBRANCH  26  27
BRANCH  26  31
HETATM   31  C   UNK     0      15.524   3.738  93.917  0.00  0.00     0.266 C 
HETATM   32  O   UNK     0      16.599   3.179  94.123  0.00  0.00    -0.269 OA
HETATM   33  N   UNK     0      15.365   5.092  93.743  0.00  0.00    -0.236 N 
HETATM   34  H   UNK     0      14.489   5.594  93.660  0.00  0.00     0.197 HD
BRANCH  33  35
HETATM   35  O   UNK     0      16.538   5.857  93.811  0.00  0.00    -0.287 OA
HETATM   36  H   UNK     0      17.050   5.456  93.089  0.00  0.00     0.244 HD
ENDBRANCH  33  35
ENDBRANCH  26  31
ENDBRANCH  24  26
ENDBRANCH  19  22
ENDBRANCH  15  16
ENDBRANCH  11  14
ENDBRANCH   7   8
ENDBRANCH   2   7
TORSDOF 10
ENDMDL
MODEL 6
REMARK VINA RESULT:      -4.4      1.400      2.467
REMARK  10 active torsions:
REMARK  status: ('A' for Active; 'I' for Inactive)
REMARK    1  A    between atoms: O_2  and  C_18 
REMARK    2  A    between atoms: O_5  and  N_8 
REMARK    3  A    between atoms: N_6  and  C_11 
REMARK    4  A    between atoms: N_7  and  C_15 
REMARK       I    between atoms: N_7  and  C_24 
REMARK       I    between atoms: N_8  and  C_23 
REMARK    5  A    between atoms: C_11  and  C_14 
REMARK    6  A    between atoms: C_15  and  C_18 
REMARK    7  A    between atoms: C_15  and  C_23 
REMARK    8  A    between atoms: C_21  and  C_26 
REMARK    9  A    between atoms: C_24  and  C_25 
REMARK   10  A    between atoms: C_29  and  C_32 
ROOT
HETATM    1  O   UNK     0      16.928   3.847  93.286  0.00  0.00    -0.388 OA
HETATM    2  N   UNK     0      14.853   1.973  92.752  0.00  0.00     0.096 N 
HETATM    3  C   UNK     0      15.070   3.144  91.892  0.00  0.00     0.299 C 
HETATM    4  C   UNK     0      15.286   2.269  94.124  0.00  0.00     0.299 C 
HETATM    5  C   UNK     0      16.538   3.558  91.942  0.00  0.00     0.198 C 
HETATM    6  C   UNK     0      16.749   2.704  94.123  0.00  0.00     0.198 C 
ENDROOT
BRANCH   2   7
HETATM    7  C   UNK     0      13.449   1.566  92.727  0.00  0.00     0.311 C 
BRANCH   7   8
HETATM    8  C   UNK     0      12.526   2.719  92.526  0.00  0.00    -0.030 A 
HETATM    9  C   UNK     0      12.094   3.465  93.624  0.00  0.00     0.010 A 
HETATM   10  C   UNK     0      11.229   4.543  93.437  0.00  0.00     0.021 A 
HETATM   11  C   UNK     0      10.799   4.876  92.154  0.00  0.00     0.018 A 
HETATM   12  C   UNK     0      11.230   4.132  91.057  0.00  0.00     0.021 A 
HETATM   13  C   UNK     0      12.094   3.054  91.243  0.00  0.00     0.010 A 
BRANCH  11  14
HETATM   14  C   UNK     0       9.913   5.983  91.962  0.00  0.00    -0.061 C 
HETATM   15  C   UNK     0       9.169   6.914  91.802  0.00  0.00    -0.061 C 
BRANCH  15  16
HETATM   16  C   UNK     0       8.283   8.019  91.611  0.00  0.00     0.018 A 
HETATM   17  C   UNK     0       8.679   9.303  91.990  0.00  0.00     0.022 A 
HETATM   18  C   UNK     0       7.816  10.382  91.802  0.00  0.00     0.018 A 
HETATM   19  C   UNK     0       6.577  10.155  91.240  0.00  0.00     0.032 A 
HETATM   20  C   UNK     0       6.162   8.897  90.857  0.00  0.00     0.018 A 
HETATM   21  C   UNK     0       7.025   7.817  91.046  0.00  0.00     0.022 A 
BRANCH  19  22
HETATM   22  C   UNK     0       5.658  11.305  91.042  0.00  0.00     0.252 C 
HETATM   23  O   UNK     0       5.113  11.813  92.019  0.00  0.00    -0.268 OA
HETATM   24  N   UNK     0       5.502  11.741  89.734  0.00  0.00    -0.341 N 
HETATM   25  H   UNK     0       6.004  11.288  88.979  0.00  0.00     0.163 HD
BRANCH  24  26
HETATM   26  C   UNK     0       4.664  12.859  89.383  0.00  0.00     0.207 C 
BRANCH  26  27
HETATM   27  C   UNK     0       5.246  13.703  88.242  0.00  0.00     0.146 C 
HETATM   28  C   UNK     0       6.769  13.656  88.199  0.00  0.00     0.042 C 
BRANCH  27  29
HETATM   29  O   UNK     0       4.732  13.237  86.994  0.00  0.00    -0.393 OA
HETATM   30  H   UNK     0       3.867  13.655  86.845  0.00  0.00     0.210 HD
ENDBRANCH  27  29
ENDBRANCH  26  27
BRANCH  26  31
HETATM   31  C   UNK     0       3.286  12.314  89.023  0.00  0.00     0.266 C 
HETATM   32  O   UNK     0       2.266  12.604  89.646  0.00  0.00    -0.269 OA
HETATM   33  N   UNK     0       3.334  11.444  87.960  0.00  0.00    -0.236 N 
HETATM   34  H   UNK     0       4.165  11.115  87.482  0.00  0.00     0.197 HD
BRANCH  33  35
HETATM   35  O   UNK     0       2.111  10.867  87.588  0.00  0.00    -0.287 OA
HETATM   36  H   UNK     0       2.417  10.221  86.929  0.00  0.00     0.244 HD
ENDBRANCH  33  35
ENDBRANCH  26  31
ENDBRANCH  24  26
ENDBRANCH  19  22
ENDBRANCH  15  16
ENDBRANCH  11  14
ENDBRANCH   7   8
ENDBRANCH   2   7
TORSDOF 10
ENDMDL
MODEL 7
REMARK VINA RESULT:      -4.3      1.887     12.349
REMARK  10 active torsions:
REMARK  status: ('A' for Active; 'I' for Inactive)
REMARK    1  A    between atoms: O_2  and  C_18 
REMARK    2  A    between atoms: O_5  and  N_8 
REMARK    3  A    between atoms: N_6  and  C_11 
REMARK    4  A    between atoms: N_7  and  C_15 
REMARK       I    between atoms: N_7  and  C_24 
REMARK       I    between atoms: N_8  and  C_23 
REMARK    5  A    between atoms: C_11  and  C_14 
REMARK    6  A    between atoms: C_15  and  C_18 
REMARK    7  A    between atoms: C_15  and  C_23 
REMARK    8  A    between atoms: C_21  and  C_26 
REMARK    9  A    between atoms: C_24  and  C_25 
REMARK   10  A    between atoms: C_29  and  C_32 
ROOT
HETATM    1  O   UNK     0       5.322  14.949  89.347  0.00  0.00    -0.388 OA
HETATM    2  N   UNK     0       3.672  13.330  91.008  0.00  0.00     0.096 N 
HETATM    3  C   UNK     0       4.196  14.623  91.472  0.00  0.00     0.299 C 
HETATM    4  C   UNK     0       4.590  12.738  90.027  0.00  0.00     0.299 C 
HETATM    5  C   UNK     0       4.420  15.548  90.279  0.00  0.00     0.198 C 
HETATM    6  C   UNK     0       4.805  13.707  88.868  0.00  0.00     0.198 C 
ENDROOT
BRANCH   2   7
HETATM    7  C   UNK     0       3.460  12.423  92.135  0.00  0.00     0.311 C 
BRANCH   7   8
HETATM    8  C   UNK     0       4.491  11.349  92.202  0.00  0.00    -0.030 A 
HETATM    9  C   UNK     0       4.335  10.186  91.447  0.00  0.00     0.010 A 
HETATM   10  C   UNK     0       5.299   9.180  91.510  0.00  0.00     0.021 A 
HETATM   11  C   UNK     0       6.419   9.338  92.326  0.00  0.00     0.018 A 
HETATM   12  C   UNK     0       6.576  10.500  93.080  0.00  0.00     0.021 A 
HETATM   13  C   UNK     0       5.612  11.506  93.018  0.00  0.00     0.010 A 
BRANCH  11  14
HETATM   14  C   UNK     0       7.408   8.307  92.389  0.00  0.00    -0.061 C 
HETATM   15  C   UNK     0       8.240   7.440  92.442  0.00  0.00    -0.061 C 
BRANCH  15  16
HETATM   16  C   UNK     0       9.227   6.409  92.505  0.00  0.00     0.018 A 
HETATM   17  C   UNK     0       9.934   6.193  93.689  0.00  0.00     0.022 A 
HETATM   18  C   UNK     0      10.897   5.185  93.751  0.00  0.00     0.018 A 
HETATM   19  C   UNK     0      11.130   4.415  92.631  0.00  0.00     0.032 A 
HETATM   20  C   UNK     0      10.445   4.608  91.450  0.00  0.00     0.018 A 
HETATM   21  C   UNK     0       9.483   5.616  91.386  0.00  0.00     0.022 A 
BRANCH  19  22
HETATM   22  C   UNK     0      12.156   3.343  92.698  0.00  0.00     0.252 C 
HETATM   23  O   UNK     0      11.810   2.172  92.564  0.00  0.00    -0.268 OA
HETATM   24  N   UNK     0      13.465   3.765  92.888  0.00  0.00    -0.341 N 
HETATM   25  H   UNK     0      13.679   4.753  92.965  0.00  0.00     0.163 HD
BRANCH  24  26
HETATM   26  C   UNK     0      14.574   2.848  92.950  0.00  0.00     0.207 C 
BRANCH  26  27
HETATM   27  C   UNK     0      14.951   2.278  91.576  0.00  0.00     0.146 C 
HETATM   28  C   UNK     0      14.653   3.249  90.440  0.00  0.00     0.042 C 
BRANCH  27  29
HETATM   29  O   UNK     0      16.341   1.955  91.558  0.00  0.00    -0.393 OA
HETATM   30  H   UNK     0      16.439   1.046  91.230  0.00  0.00     0.210 HD
ENDBRANCH  27  29
ENDBRANCH  26  27
BRANCH  26  31
HETATM   31  C   UNK     0      15.750   3.582  93.587  0.00  0.00     0.266 C 
HETATM   32  O   UNK     0      16.691   3.000  94.124  0.00  0.00    -0.269 OA
HETATM   33  N   UNK     0      15.608   4.946  93.521  0.00  0.00    -0.236 N 
HETATM   34  H   UNK     0      14.807   5.457  93.167  0.00  0.00     0.197 HD
BRANCH  33  35
HETATM   35  O   UNK     0      16.630   5.696  94.119  0.00  0.00    -0.287 OA
HETATM   36  H   UNK     0      17.410   5.205  93.810  0.00  0.00     0.244 HD
ENDBRANCH  33  35
ENDBRANCH  26  31
ENDBRANCH  24  26
ENDBRANCH  19  22
ENDBRANCH  15  16
ENDBRANCH  11  14
ENDBRANCH   7   8
ENDBRANCH   2   7
TORSDOF 10
ENDMDL
MODEL 8
REMARK VINA RESULT:      -3.6      1.609      2.696
REMARK  10 active torsions:
REMARK  status: ('A' for Active; 'I' for Inactive)
REMARK    1  A    between atoms: O_2  and  C_18 
REMARK    2  A    between atoms: O_5  and  N_8 
REMARK    3  A    between atoms: N_6  and  C_11 
REMARK    4  A    between atoms: N_7  and  C_15 
REMARK       I    between atoms: N_7  and  C_24 
REMARK       I    between atoms: N_8  and  C_23 
REMARK    5  A    between atoms: C_11  and  C_14 
REMARK    6  A    between atoms: C_15  and  C_18 
REMARK    7  A    between atoms: C_15  and  C_23 
REMARK    8  A    between atoms: C_21  and  C_26 
REMARK    9  A    between atoms: C_24  and  C_25 
REMARK   10  A    between atoms: C_29  and  C_32 
ROOT
HETATM    1  O   UNK     0      17.163   3.563  92.831  0.00  0.00    -0.388 OA
HETATM    2  N   UNK     0      14.941   1.808  93.114  0.00  0.00     0.096 N 
HETATM    3  C   UNK     0      15.405   2.251  91.793  0.00  0.00     0.299 C 
HETATM    4  C   UNK     0      15.246   2.831  94.124  0.00  0.00     0.299 C 
HETATM    5  C   UNK     0      16.899   2.561  91.847  0.00  0.00     0.198 C 
HETATM    6  C   UNK     0      16.743   3.128  94.124  0.00  0.00     0.198 C 
ENDROOT
BRANCH   2   7
HETATM    7  C   UNK     0      13.509   1.516  93.088  0.00  0.00     0.311 C 
BRANCH   7   8
HETATM    8  C   UNK     0      12.698   2.684  92.640  0.00  0.00    -0.030 A 
HETATM    9  C   UNK     0      12.372   3.694  93.547  0.00  0.00     0.010 A 
HETATM   10  C   UNK     0      11.612   4.787  93.129  0.00  0.00     0.021 A 
HETATM   11  C   UNK     0      11.181   4.870  91.806  0.00  0.00     0.018 A 
HETATM   12  C   UNK     0      11.506   3.862  90.900  0.00  0.00     0.021 A 
HETATM   13  C   UNK     0      12.265   2.769  91.317  0.00  0.00     0.010 A 
BRANCH  11  14
HETATM   14  C   UNK     0      10.403   5.992  91.378  0.00  0.00    -0.061 C 
HETATM   15  C   UNK     0       9.750   6.935  91.017  0.00  0.00    -0.061 C 
BRANCH  15  16
HETATM   16  C   UNK     0       8.974   8.056  90.591  0.00  0.00     0.018 A 
HETATM   17  C   UNK     0       9.400   8.827  89.508  0.00  0.00     0.022 A 
HETATM   18  C   UNK     0       8.641   9.920  89.090  0.00  0.00     0.018 A 
HETATM   19  C   UNK     0       7.474  10.218  89.762  0.00  0.00     0.032 A 
HETATM   20  C   UNK     0       7.031   9.472  90.835  0.00  0.00     0.018 A 
HETATM   21  C   UNK     0       7.790   8.379  91.254  0.00  0.00     0.022 A 
BRANCH  19  22
HETATM   22  C   UNK     0       6.667  11.384  89.318  0.00  0.00     0.252 C 
HETATM   23  O   UNK     0       7.191  12.241  88.611  0.00  0.00    -0.268 OA
HETATM   24  N   UNK     0       5.341  11.398  89.729  0.00  0.00    -0.341 N 
HETATM   25  H   UNK     0       4.971  10.642  90.292  0.00  0.00     0.163 HD
BRANCH  24  26
HETATM   26  C   UNK     0       4.426  12.448  89.360  0.00  0.00     0.207 C 
BRANCH  26  27
HETATM   27  C   UNK     0       3.032  11.920  88.998  0.00  0.00     0.146 C 
HETATM   28  C   UNK     0       3.084  10.782  87.984  0.00  0.00     0.042 C 
BRANCH  27  29
HETATM   29  O   UNK     0       2.375  11.459  90.178  0.00  0.00    -0.393 OA
HETATM   30  H   UNK     0       2.946  10.801  90.608  0.00  0.00     0.210 HD
ENDBRANCH  27  29
ENDBRANCH  26  27
BRANCH  26  31
HETATM   31  C   UNK     0       4.361  13.438  90.518  0.00  0.00     0.266 C 
HETATM   32  O   UNK     0       4.141  14.638  90.362  0.00  0.00    -0.269 OA
HETATM   33  N   UNK     0       4.613  12.839  91.728  0.00  0.00    -0.236 N 
HETATM   34  H   UNK     0       4.884  11.875  91.883  0.00  0.00     0.197 HD
BRANCH  33  35
HETATM   35  O   UNK     0       4.609  13.689  92.843  0.00  0.00    -0.287 OA
HETATM   36  H   UNK     0       5.053  14.469  92.468  0.00  0.00     0.244 HD
ENDBRANCH  33  35
ENDBRANCH  26  31
ENDBRANCH  24  26
ENDBRANCH  19  22
ENDBRANCH  15  16
ENDBRANCH  11  14
ENDBRANCH   7   8
ENDBRANCH   2   7
TORSDOF 10
ENDMDL
MODEL 9
REMARK VINA RESULT:      -3.3      2.523     12.401
REMARK  10 active torsions:
REMARK  status: ('A' for Active; 'I' for Inactive)
REMARK    1  A    between atoms: O_2  and  C_18 
REMARK    2  A    between atoms: O_5  and  N_8 
REMARK    3  A    between atoms: N_6  and  C_11 
REMARK    4  A    between atoms: N_7  and  C_15 
REMARK       I    between atoms: N_7  and  C_24 
REMARK       I    between atoms: N_8  and  C_23 
REMARK    5  A    between atoms: C_11  and  C_14 
REMARK    6  A    between atoms: C_15  and  C_18 
REMARK    7  A    between atoms: C_15  and  C_23 
REMARK    8  A    between atoms: C_21  and  C_26 
REMARK    9  A    between atoms: C_24  and  C_25 
REMARK   10  A    between atoms: C_29  and  C_32 
ROOT
HETATM    1  O   UNK     0       2.948  14.952  92.069  0.00  0.00    -0.388 OA
HETATM    2  N   UNK     0       1.368  12.632  92.539  0.00  0.00     0.096 N 
HETATM    3  C   UNK     0       1.792  13.508  93.640  0.00  0.00     0.299 C 
HETATM    4  C   UNK     0       2.349  12.685  91.447  0.00  0.00     0.299 C 
HETATM    5  C   UNK     0       1.984  14.932  93.122  0.00  0.00     0.198 C 
HETATM    6  C   UNK     0       2.529  14.127  90.981  0.00  0.00     0.198 C 
ENDROOT
BRANCH   2   7
HETATM    7  C   UNK     0       1.189  11.260  93.010  0.00  0.00     0.311 C 
BRANCH   7   8
HETATM    8  C   UNK     0       2.435  10.450  92.888  0.00  0.00    -0.030 A 
HETATM    9  C   UNK     0       3.507  10.687  93.749  0.00  0.00     0.010 A 
HETATM   10  C   UNK     0       4.674   9.932  93.634  0.00  0.00     0.021 A 
HETATM   11  C   UNK     0       4.767   8.938  92.660  0.00  0.00     0.018 A 
HETATM   12  C   UNK     0       3.696   8.700  91.800  0.00  0.00     0.021 A 
HETATM   13  C   UNK     0       2.530   9.455  91.914  0.00  0.00     0.010 A 
BRANCH  11  14
HETATM   14  C   UNK     0       5.963   8.161  92.544  0.00  0.00    -0.061 C 
HETATM   15  C   UNK     0       6.968   7.509  92.446  0.00  0.00    -0.061 C 
BRANCH  15  16
HETATM   16  C   UNK     0       8.162   6.734  92.328  0.00  0.00     0.018 A 
HETATM   17  C   UNK     0       8.962   6.854  91.191  0.00  0.00     0.022 A 
HETATM   18  C   UNK     0      10.129   6.099  91.077  0.00  0.00     0.018 A 
HETATM   19  C   UNK     0      10.471   5.241  92.101  0.00  0.00     0.032 A 
HETATM   20  C   UNK     0       9.697   5.103  93.235  0.00  0.00     0.018 A 
HETATM   21  C   UNK     0       8.530   5.857  93.349  0.00  0.00     0.022 A 
BRANCH  19  22
HETATM   22  C   UNK     0      11.713   4.435  91.978  0.00  0.00     0.252 C 
HETATM   23  O   UNK     0      12.106   4.105  90.862  0.00  0.00    -0.268 OA
HETATM   24  N   UNK     0      12.361   4.130  93.168  0.00  0.00    -0.341 N 
HETATM   25  H   UNK     0      11.990   4.458  94.052  0.00  0.00     0.163 HD
BRANCH  24  26
HETATM   26  C   UNK     0      13.589   3.378  93.212  0.00  0.00     0.207 C 
BRANCH  26  27
HETATM   27  C   UNK     0      13.555   2.135  92.313  0.00  0.00     0.146 C 
HETATM   28  C   UNK     0      14.438   1.009  92.841  0.00  0.00     0.042 C 
BRANCH  27  29
HETATM   29  O   UNK     0      12.214   1.660  92.205  0.00  0.00    -0.393 OA
HETATM   30  H   UNK     0      11.628   2.426  92.084  0.00  0.00     0.210 HD
ENDBRANCH  27  29
ENDBRANCH  26  27
BRANCH  26  31
HETATM   31  C   UNK     0      14.725   4.316  92.818  0.00  0.00     0.266 C 
HETATM   32  O   UNK     0      14.913   4.692  91.663  0.00  0.00    -0.269 OA
HETATM   33  N   UNK     0      15.517   4.649  93.890  0.00  0.00    -0.236 N 
HETATM   34  H   UNK     0      15.445   4.288  94.834  0.00  0.00     0.197 HD
BRANCH  33  35
HETATM   35  O   UNK     0      16.610   5.481  93.605  0.00  0.00    -0.287 OA
HETATM   36  H   UNK     0      16.146   6.280  93.302  0.00  0.00     0.244 HD
ENDBRANCH  33  35
ENDBRANCH  26  31
ENDBRANCH  24  26
ENDBRANCH  19  22
ENDBRANCH  15  16
ENDBRANCH  11  14
ENDBRANCH   7   8
ENDBRANCH   2   7
TORSDOF 10
ENDMDL
