MODEL 1
REMARK VINA RESULT:      -6.8      0.000      0.000
REMARK  10 active torsions:
REMARK  status: ('A' for Active; 'I' for Inactive)
REMARK    1  A    between atoms: O_2  and  C_16 
REMARK    2  A    between atoms: N_5  and  C_9 
REMARK    3  A    between atoms: N_6  and  C_13 
REMARK       I    between atoms: N_6  and  C_22 
REMARK    4  A    between atoms: C_9  and  C_12 
REMARK    5  A    between atoms: C_13  and  C_16 
REMARK    6  A    between atoms: C_13  and  C_21 
REMARK    7  A    between atoms: C_19  and  C_24 
REMARK    8  A    between atoms: C_22  and  C_23 
REMARK    9  A    between atoms: C_27  and  C_30 
REMARK   10  A    between atoms: N_33  and  S_34 
ROOT
HETATM    1  C   UNL     1       5.532  11.122  89.886  1.00  0.00     0.056 A 
HETATM    2  C   UNL     1       5.026   9.911  90.308  1.00  0.00     0.005 A 
HETATM    3  C   UNL     1       6.880  11.321  89.669  1.00  0.00     0.005 A 
HETATM    4  C   UNL     1       7.273   9.027  90.313  1.00  0.00     0.042 A 
HETATM    5  C   UNL     1       5.906   8.851  90.525  1.00  0.00     0.008 A 
HETATM    6  C   UNL     1       7.761  10.261  89.885  1.00  0.00     0.008 A 
ENDROOT
BRANCH   1   7
HETATM    7  C   UNL     1       4.594  12.251  89.653  1.00  0.00     0.254 C 
HETATM    8  O   UNL     1       4.266  12.530  88.502  1.00  0.00    -0.268 OA
HETATM    9  N   UNL     1       4.133  12.902  90.788  1.00  0.00    -0.337 N 
HETATM   10  HN  UNL     1       4.430  12.600  91.709  1.00  0.00     0.164 HD
BRANCH   9  11
HETATM   11  C   UNL     1       3.201  13.999  90.728  1.00  0.00     0.172 C 
BRANCH  11  12
HETATM   12  C   UNL     1       1.870  13.686  91.423  1.00  0.00     0.136 C 
HETATM   13  C   UNL     1       1.969  12.487  92.360  1.00  0.00     0.034 C 
BRANCH  12  14
HETATM   14  O   UNL     1       1.442  14.824  92.171  1.00  0.00    -0.383 OA
HETATM   15  H   UNL     1       0.698  14.555  92.735  1.00  0.00     0.210 HD
ENDBRANCH  12  14
ENDBRANCH  11  12
BRANCH  11  16
HETATM   16  C   UNL     1       3.876  15.219  91.348  1.00  0.00     0.398 A 
HETATM   17  O   UNL     1       4.983  15.622  90.996  1.00  0.00    -0.136 OA
HETATM   18  N   UNL     1       4.877  15.625  92.512  1.00  0.00     0.142 N 
HETATM   19  HN  UNL     1       5.784  15.992  92.431  1.00  0.00     0.338 HD
BRANCH  18  20
HETATM   20  S   UNL     1       4.186  15.067  93.581  1.00  0.00     0.076 SA
HETATM   21  H   UNL     1       4.577  15.342  94.669  1.00  0.00     0.136 HD
ENDBRANCH  18  20
ENDBRANCH  11  16
ENDBRANCH   9  11
ENDBRANCH   1   7
BRANCH   4  22
HETATM   22  C   UNL     1       8.176   7.941  90.538  1.00  0.00    -0.059 C 
HETATM   23  C   UNL     1       8.935   7.028  90.727  1.00  0.00    -0.059 C 
BRANCH  23  24
HETATM   24  C   UNL     1       9.839   5.942  90.952  1.00  0.00     0.042 A 
HETATM   25  C   UNL     1      10.561   5.404  89.887  1.00  0.00     0.008 A 
HETATM   26  C   UNL     1      11.440   4.344  90.106  1.00  0.00    -0.002 A 
HETATM   27  C   UNL     1      11.599   3.824  91.391  1.00  0.00     0.011 A 
HETATM   28  C   UNL     1      10.877   4.363  92.455  1.00  0.00    -0.002 A 
HETATM   29  C   UNL     1       9.997   5.423  92.235  1.00  0.00     0.008 A 
BRANCH  27  30
HETATM   30  C   UNL     1      12.541   2.692  91.624  1.00  0.00     0.277 C 
BRANCH  30  31
HETATM   31  N   UNL     1      13.507   2.981  92.682  1.00  0.00     0.147 N 
HETATM   32  C   UNL     1      14.289   1.782  93.015  1.00  0.00     0.283 C 
HETATM   33  C   UNL     1      15.297   2.110  94.113  1.00  0.00     0.178 C 
HETATM   34  O   UNL     1      16.161   3.168  93.694  1.00  0.00    -0.350 OA
HETATM   35  C   UNL     1      15.412   4.347  93.399  1.00  0.00     0.178 C 
HETATM   36  C   UNL     1      14.406   4.073  92.285  1.00  0.00     0.283 C 
ENDBRANCH  30  31
ENDBRANCH  27  30
ENDBRANCH  23  24
ENDBRANCH   4  22
TORSDOF 10
ENDMDL
