MODEL 1
REMARK VINA RESULT:      -6.9      0.000      0.000
REMARK  11 active torsions:
REMARK  status: ('A' for Active; 'I' for Inactive)
REMARK    1  A    between atoms: O_2  and  C_18 
REMARK    2  A    between atoms: O_5  and  P_8 
REMARK    3  A    between atoms: N_6  and  C_11 
REMARK    4  A    between atoms: N_7  and  C_15 
REMARK       I    between atoms: N_7  and  C_24 
REMARK    5  A    between atoms: P_8  and  C_23 
REMARK    6  A    between atoms: C_11  and  C_14 
REMARK    7  A    between atoms: C_15  and  C_18 
REMARK    8  A    between atoms: C_15  and  C_23 
REMARK    9  A    between atoms: C_21  and  C_26 
REMARK   10  A    between atoms: C_24  and  C_25 
REMARK   11  A    between atoms: C_29  and  C_32 
ROOT
HETATM    1  O   UNL     1      15.862   3.942  94.076  1.00  0.00     0.000 OA
HETATM    2  N   UNL     1      14.108   2.531  92.334  1.00  0.00     0.000 N 
HETATM    3  C   UNL     1      14.215   3.996  92.294  1.00  0.00     0.000 C 
HETATM    4  C   UNL     1      14.406   2.041  93.687  1.00  0.00     0.000 C 
HETATM    5  C   UNL     1      15.605   4.425  92.756  1.00  0.00     0.000 C 
HETATM    6  C   UNL     1      15.790   2.516  94.116  1.00  0.00     0.000 C 
ENDROOT
BRANCH   2   7
HETATM    7  C   UNL     1      12.779   2.098  91.905  1.00  0.00     0.000 C 
BRANCH   7   8
HETATM    8  C   UNL     1      11.873   3.246  91.615  1.00  0.00     0.000 A 
HETATM    9  C   UNL     1      11.813   3.777  90.326  1.00  0.00     0.000 A 
HETATM   10  C   UNL     1      10.967   4.852  90.054  1.00  0.00     0.000 A 
HETATM   11  C   UNL     1      10.181   5.394  91.071  1.00  0.00     0.000 A 
HETATM   12  C   UNL     1      10.241   4.865  92.358  1.00  0.00     0.000 A 
HETATM   13  C   UNL     1      11.087   3.790  92.631  1.00  0.00     0.000 A 
BRANCH  11  14
HETATM   14  C   UNL     1       9.312   6.496  90.791  1.00  0.00     0.000 C 
HETATM   15  C   UNL     1       8.583   7.422  90.557  1.00  0.00     0.000 C 
BRANCH  15  16
HETATM   16  C   UNL     1       7.715   8.524  90.277  1.00  0.00     0.000 A 
HETATM   17  C   UNL     1       8.253   9.763  89.929  1.00  0.00     0.000 A 
HETATM   18  C   UNL     1       7.406  10.837  89.653  1.00  0.00     0.000 A 
HETATM   19  C   UNL     1       6.042  10.647  89.732  1.00  0.00     0.000 A 
HETATM   20  C   UNL     1       5.486   9.433  90.075  1.00  0.00     0.000 A 
HETATM   21  C   UNL     1       6.332   8.358  90.351  1.00  0.00     0.000 A 
BRANCH  19  22
HETATM   22  C   UNL     1       5.141  11.792  89.440  1.00  0.00     0.000 C 
HETATM   23  O   UNL     1       4.882  12.069  88.272  1.00  0.00     0.000 OA
HETATM   24  N   UNL     1       4.630  12.460  90.544  1.00  0.00     0.000 N 
HETATM   25  HN  UNL     1       4.868  12.159  91.482  1.00  0.00     0.000 HD
BRANCH  24  26
HETATM   26  C   UNL     1       3.724  13.574  90.426  1.00  0.00     0.000 C 
BRANCH  26  27
HETATM   27  C   UNL     1       2.381  13.324  91.124  1.00  0.00     0.000 C 
HETATM   28  C   UNL     1       2.310  11.949  91.778  1.00  0.00     0.000 C 
BRANCH  27  29
HETATM   29  O   UNL     1       2.169  14.323  92.122  1.00  0.00     0.000 OA
HETATM   30  H   UNL     1       2.178  15.193  91.689  1.00  0.00     0.000 HD
ENDBRANCH  27  29
ENDBRANCH  26  27
BRANCH  26  31
HETATM   31  C   UNL     1       4.423  14.806  90.992  1.00  0.00     0.000 C 
HETATM   32  O   UNL     1       4.497  15.038  92.197  1.00  0.00     0.000 OA
BRANCH  31  33
HETATM   33  P   UNL     1       4.914  15.624  90.004  1.00  0.00     0.000 P 
HETATM   34  H   UNL     1       3.858  16.349  89.492  1.00  0.00     0.000 HD
BRANCH  33  35
HETATM   35  O   UNL     1       5.550  14.977  88.935  1.00  0.00     0.000 OA
HETATM   36  H   UNL     1       5.025  15.314  88.190  1.00  0.00     0.000 HD
ENDBRANCH  33  35
ENDBRANCH  31  33
ENDBRANCH  26  31
ENDBRANCH  24  26
ENDBRANCH  19  22
ENDBRANCH  15  16
ENDBRANCH  11  14
ENDBRANCH   7   8
ENDBRANCH   2   7
TORSDOF 11
ENDMDL
MODEL 2
REMARK VINA RESULT:      -6.6      1.904      2.627
REMARK  11 active torsions:
REMARK  status: ('A' for Active; 'I' for Inactive)
REMARK    1  A    between atoms: O_2  and  C_18 
REMARK    2  A    between atoms: O_5  and  P_8 
REMARK    3  A    between atoms: N_6  and  C_11 
REMARK    4  A    between atoms: N_7  and  C_15 
REMARK       I    between atoms: N_7  and  C_24 
REMARK    5  A    between atoms: P_8  and  C_23 
REMARK    6  A    between atoms: C_11  and  C_14 
REMARK    7  A    between atoms: C_15  and  C_18 
REMARK    8  A    between atoms: C_15  and  C_23 
REMARK    9  A    between atoms: C_21  and  C_26 
REMARK   10  A    between atoms: C_24  and  C_25 
REMARK   11  A    between atoms: C_29  and  C_32 
ROOT
HETATM    1  O   UNL     1      16.243   3.976  94.124  1.00  0.00     0.000 OA
HETATM    2  N   UNL     1      14.304   2.693  92.481  1.00  0.00     0.000 N 
HETATM    3  C   UNL     1      14.452   4.155  92.496  1.00  0.00     0.000 C 
HETATM    4  C   UNL     1      14.702   2.134  93.781  1.00  0.00     0.000 C 
HETATM    5  C   UNL     1      15.890   4.526  92.854  1.00  0.00     0.000 C 
HETATM    6  C   UNL     1      16.131   2.552  94.109  1.00  0.00     0.000 C 
ENDROOT
BRANCH   2   7
HETATM    7  C   UNL     1      12.931   2.315  92.151  1.00  0.00     0.000 C 
BRANCH   7   8
HETATM    8  C   UNL     1      11.992   3.471  92.221  1.00  0.00     0.000 A 
HETATM    9  C   UNL     1      11.411   3.968  91.054  1.00  0.00     0.000 A 
HETATM   10  C   UNL     1      10.533   5.051  91.119  1.00  0.00     0.000 A 
HETATM   11  C   UNL     1      10.235   5.633  92.351  1.00  0.00     0.000 A 
HETATM   12  C   UNL     1      10.815   5.137  93.517  1.00  0.00     0.000 A 
HETATM   13  C   UNL     1      11.693   4.055  93.452  1.00  0.00     0.000 A 
BRANCH  11  14
HETATM   14  C   UNL     1       9.333   6.742  92.417  1.00  0.00     0.000 C 
HETATM   15  C   UNL     1       8.576   7.674  92.473  1.00  0.00     0.000 C 
BRANCH  15  16
HETATM   16  C   UNL     1       7.675   8.782  92.539  1.00  0.00     0.000 A 
HETATM   17  C   UNL     1       7.578   9.531  93.712  1.00  0.00     0.000 A 
HETATM   18  C   UNL     1       6.701  10.614  93.776  1.00  0.00     0.000 A 
HETATM   19  C   UNL     1       5.943  10.924  92.666  1.00  0.00     0.000 A 
HETATM   20  C   UNL     1       6.021  10.199  91.495  1.00  0.00     0.000 A 
HETATM   21  C   UNL     1       6.898   9.116  91.431  1.00  0.00     0.000 A 
BRANCH  19  22
HETATM   22  C   UNL     1       5.008  12.077  92.734  1.00  0.00     0.000 C 
HETATM   23  O   UNL     1       4.788  12.607  93.821  1.00  0.00     0.000 OA
HETATM   24  N   UNL     1       4.461  12.489  91.527  1.00  0.00     0.000 N 
HETATM   25  HN  UNL     1       4.708  12.018  90.665  1.00  0.00     0.000 HD
BRANCH  24  26
HETATM   26  C   UNL     1       3.557  13.606  91.426  1.00  0.00     0.000 C 
BRANCH  26  27
HETATM   27  C   UNL     1       3.471  14.174  90.004  1.00  0.00     0.000 C 
HETATM   28  C   UNL     1       4.754  14.878  89.578  1.00  0.00     0.000 C 
BRANCH  27  29
HETATM   29  O   UNL     1       3.195  13.118  89.085  1.00  0.00     0.000 OA
HETATM   30  H   UNL     1       4.037  12.700  88.838  1.00  0.00     0.000 HD
ENDBRANCH  27  29
ENDBRANCH  26  27
BRANCH  26  31
HETATM   31  C   UNL     1       2.190  13.146  91.923  1.00  0.00     0.000 C 
HETATM   32  O   UNL     1       1.677  12.082  91.582  1.00  0.00     0.000 OA
BRANCH  31  33
HETATM   33  P   UNL     1       1.601  14.070  92.752  1.00  0.00     0.000 P 
HETATM   34  H   UNL     1       0.838  14.913  91.970  1.00  0.00     0.000 HD
BRANCH  33  35
HETATM   35  O   UNL     1       2.479  14.861  93.506  1.00  0.00     0.000 OA
HETATM   36  H   UNL     1       2.916  15.362  92.797  1.00  0.00     0.000 HD
ENDBRANCH  33  35
ENDBRANCH  31  33
ENDBRANCH  26  31
ENDBRANCH  24  26
ENDBRANCH  19  22
ENDBRANCH  15  16
ENDBRANCH  11  14
ENDBRANCH   7   8
ENDBRANCH   2   7
TORSDOF 11
ENDMDL
MODEL 3
REMARK VINA RESULT:      -6.2      1.483      2.226
REMARK  11 active torsions:
REMARK  status: ('A' for Active; 'I' for Inactive)
REMARK    1  A    between atoms: O_2  and  C_18 
REMARK    2  A    between atoms: O_5  and  P_8 
REMARK    3  A    between atoms: N_6  and  C_11 
REMARK    4  A    between atoms: N_7  and  C_15 
REMARK       I    between atoms: N_7  and  C_24 
REMARK    5  A    between atoms: P_8  and  C_23 
REMARK    6  A    between atoms: C_11  and  C_14 
REMARK    7  A    between atoms: C_15  and  C_18 
REMARK    8  A    between atoms: C_15  and  C_23 
REMARK    9  A    between atoms: C_21  and  C_26 
REMARK   10  A    between atoms: C_24  and  C_25 
REMARK   11  A    between atoms: C_29  and  C_32 
ROOT
HETATM    1  O   UNL     1      16.486   3.154  93.710  1.00  0.00     0.000 OA
HETATM    2  N   UNL     1      13.805   2.949  92.777  1.00  0.00     0.000 N 
HETATM    3  C   UNL     1      14.617   1.755  93.049  1.00  0.00     0.000 C 
HETATM    4  C   UNL     1      14.672   4.069  92.385  1.00  0.00     0.000 C 
HETATM    5  C   UNL     1      15.654   2.069  94.124  1.00  0.00     0.000 C 
HETATM    6  C   UNL     1      15.708   4.328  93.473  1.00  0.00     0.000 C 
ENDROOT
BRANCH   2   7
HETATM    7  C   UNL     1      12.810   2.674  91.742  1.00  0.00     0.000 C 
BRANCH   7   8
HETATM    8  C   UNL     1      11.736   3.708  91.698  1.00  0.00     0.000 A 
HETATM    9  C   UNL     1      11.224   4.232  92.885  1.00  0.00     0.000 A 
HETATM   10  C   UNL     1      10.218   5.197  92.845  1.00  0.00     0.000 A 
HETATM   11  C   UNL     1       9.726   5.639  91.617  1.00  0.00     0.000 A 
HETATM   12  C   UNL     1      10.237   5.116  90.431  1.00  0.00     0.000 A 
HETATM   13  C   UNL     1      11.242   4.151  90.470  1.00  0.00     0.000 A 
BRANCH  11  14
HETATM   14  C   UNL     1       8.696   6.631  91.576  1.00  0.00     0.000 C 
HETATM   15  C   UNL     1       7.830   7.465  91.541  1.00  0.00     0.000 C 
BRANCH  15  16
HETATM   16  C   UNL     1       6.801   8.456  91.499  1.00  0.00     0.000 A 
HETATM   17  C   UNL     1       5.692   8.344  92.338  1.00  0.00     0.000 A 
HETATM   18  C   UNL     1       4.689   9.313  92.299  1.00  0.00     0.000 A 
HETATM   19  C   UNL     1       4.818  10.371  91.423  1.00  0.00     0.000 A 
HETATM   20  C   UNL     1       5.904  10.503  90.583  1.00  0.00     0.000 A 
HETATM   21  C   UNL     1       6.907   9.535  90.622  1.00  0.00     0.000 A 
BRANCH  19  22
HETATM   22  C   UNL     1       3.748  11.401  91.380  1.00  0.00     0.000 C 
HETATM   23  O   UNL     1       2.611  11.072  91.053  1.00  0.00     0.000 OA
HETATM   24  N   UNL     1       4.126  12.685  91.747  1.00  0.00     0.000 N 
HETATM   25  HN  UNL     1       5.080  12.878  92.030  1.00  0.00     0.000 HD
BRANCH  24  26
HETATM   26  C   UNL     1       3.198  13.787  91.780  1.00  0.00     0.000 C 
BRANCH  26  27
HETATM   27  C   UNL     1       3.419  14.714  92.982  1.00  0.00     0.000 C 
HETATM   28  C   UNL     1       2.125  15.020  93.728  1.00  0.00     0.000 C 
BRANCH  27  29
HETATM   29  O   UNL     1       4.344  14.110  93.886  1.00  0.00     0.000 OA
HETATM   30  H   UNL     1       3.840  13.693  94.604  1.00  0.00     0.000 HD
ENDBRANCH  27  29
ENDBRANCH  26  27
BRANCH  26  31
HETATM   31  C   UNL     1       3.330  14.546  90.463  1.00  0.00     0.000 C 
HETATM   32  O   UNL     1       2.535  14.418  89.534  1.00  0.00     0.000 OA
BRANCH  31  33
HETATM   33  P   UNL     1       4.448  15.344  90.434  1.00  0.00     0.000 P 
HETATM   34  H   UNL     1       4.060  16.627  90.763  1.00  0.00     0.000 HD
BRANCH  33  35
HETATM   35  O   UNL     1       5.124  15.401  89.207  1.00  0.00     0.000 OA
HETATM   36  H   UNL     1       5.433  16.323  89.221  1.00  0.00     0.000 HD
ENDBRANCH  33  35
ENDBRANCH  31  33
ENDBRANCH  26  31
ENDBRANCH  24  26
ENDBRANCH  19  22
ENDBRANCH  15  16
ENDBRANCH  11  14
ENDBRANCH   7   8
ENDBRANCH   2   7
TORSDOF 11
ENDMDL
MODEL 4
REMARK VINA RESULT:      -5.7      3.584     12.246
REMARK  11 active torsions:
REMARK  status: ('A' for Active; 'I' for Inactive)
REMARK    1  A    between atoms: O_2  and  C_18 
REMARK    2  A    between atoms: O_5  and  P_8 
REMARK    3  A    between atoms: N_6  and  C_11 
REMARK    4  A    between atoms: N_7  and  C_15 
REMARK       I    between atoms: N_7  and  C_24 
REMARK    5  A    between atoms: P_8  and  C_23 
REMARK    6  A    between atoms: C_11  and  C_14 
REMARK    7  A    between atoms: C_15  and  C_18 
REMARK    8  A    between atoms: C_15  and  C_23 
REMARK    9  A    between atoms: C_21  and  C_26 
REMARK   10  A    between atoms: C_24  and  C_25 
REMARK   11  A    between atoms: C_29  and  C_32 
ROOT
HETATM    1  O   UNL     1       3.003  14.772  94.049  1.00  0.00     0.000 OA
HETATM    2  N   UNL     1       2.659  14.714  91.225  1.00  0.00     0.000 N 
HETATM    3  C   UNL     1       1.739  14.005  92.125  1.00  0.00     0.000 C 
HETATM    4  C   UNL     1       3.993  14.802  91.835  1.00  0.00     0.000 C 
HETATM    5  C   UNL     1       1.695  14.710  93.478  1.00  0.00     0.000 C 
HETATM    6  C   UNL     1       3.896  15.487  93.194  1.00  0.00     0.000 C 
ENDROOT
BRANCH   2   7
HETATM    7  C   UNL     1       2.725  14.049  89.924  1.00  0.00     0.000 C 
BRANCH   7   8
HETATM    8  C   UNL     1       3.719  12.939  89.904  1.00  0.00     0.000 A 
HETATM    9  C   UNL     1       3.403  11.710  90.485  1.00  0.00     0.000 A 
HETATM   10  C   UNL     1       4.333  10.671  90.469  1.00  0.00     0.000 A 
HETATM   11  C   UNL     1       5.578  10.860  89.869  1.00  0.00     0.000 A 
HETATM   12  C   UNL     1       5.895  12.086  89.288  1.00  0.00     0.000 A 
HETATM   13  C   UNL     1       4.965  13.126  89.305  1.00  0.00     0.000 A 
BRANCH  11  14
HETATM   14  C   UNL     1       6.531   9.794  89.851  1.00  0.00     0.000 C 
HETATM   15  C   UNL     1       7.333   8.897  89.836  1.00  0.00     0.000 C 
BRANCH  15  16
HETATM   16  C   UNL     1       8.285   7.831  89.818  1.00  0.00     0.000 A 
HETATM   17  C   UNL     1       9.179   7.714  88.754  1.00  0.00     0.000 A 
HETATM   18  C   UNL     1      10.110   6.675  88.738  1.00  0.00     0.000 A 
HETATM   19  C   UNL     1      10.126   5.778  89.785  1.00  0.00     0.000 A 
HETATM   20  C   UNL     1       9.252   5.871  90.848  1.00  0.00     0.000 A 
HETATM   21  C   UNL     1       8.320   6.910  90.865  1.00  0.00     0.000 A 
BRANCH  19  22
HETATM   22  C   UNL     1      11.116   4.670  89.766  1.00  0.00     0.000 C 
HETATM   23  O   UNL     1      11.318   4.064  88.717  1.00  0.00     0.000 OA
HETATM   24  N   UNL     1      11.769   4.418  90.965  1.00  0.00     0.000 N 
HETATM   25  HN  UNL     1      11.567   4.977  91.786  1.00  0.00     0.000 HD
BRANCH  24  26
HETATM   26  C   UNL     1      12.772   3.393  91.100  1.00  0.00     0.000 C 
BRANCH  26  27
HETATM   27  C   UNL     1      14.186   3.965  91.267  1.00  0.00     0.000 C 
HETATM   28  C   UNL     1      15.269   2.973  90.860  1.00  0.00     0.000 C 
BRANCH  27  29
HETATM   29  O   UNL     1      14.319   5.146  90.477  1.00  0.00     0.000 OA
HETATM   30  H   UNL     1      14.222   5.917  91.062  1.00  0.00     0.000 HD
ENDBRANCH  27  29
ENDBRANCH  26  27
BRANCH  26  31
HETATM   31  C   UNL     1      12.386   2.516  92.287  1.00  0.00     0.000 C 
HETATM   32  O   UNL     1      11.808   1.438  92.163  1.00  0.00     0.000 OA
BRANCH  31  33
HETATM   33  P   UNL     1      12.722   3.091  93.489  1.00  0.00     0.000 P 
HETATM   34  H   UNL     1      12.712   2.100  94.449  1.00  0.00     0.000 HD
BRANCH  33  35
HETATM   35  O   UNL     1      11.881   4.124  93.928  1.00  0.00     0.000 OA
HETATM   36  H   UNL     1      12.373   4.898  93.606  1.00  0.00     0.000 HD
ENDBRANCH  33  35
ENDBRANCH  31  33
ENDBRANCH  26  31
ENDBRANCH  24  26
ENDBRANCH  19  22
ENDBRANCH  15  16
ENDBRANCH  11  14
ENDBRANCH   7   8
ENDBRANCH   2   7
TORSDOF 11
ENDMDL
MODEL 5
REMARK VINA RESULT:      -4.4      3.545     12.498
REMARK  11 active torsions:
REMARK  status: ('A' for Active; 'I' for Inactive)
REMARK    1  A    between atoms: O_2  and  C_18 
REMARK    2  A    between atoms: O_5  and  P_8 
REMARK    3  A    between atoms: N_6  and  C_11 
REMARK    4  A    between atoms: N_7  and  C_15 
REMARK       I    between atoms: N_7  and  C_24 
REMARK    5  A    between atoms: P_8  and  C_23 
REMARK    6  A    between atoms: C_11  and  C_14 
REMARK    7  A    between atoms: C_15  and  C_18 
REMARK    8  A    between atoms: C_15  and  C_23 
REMARK    9  A    between atoms: C_21  and  C_26 
REMARK   10  A    between atoms: C_24  and  C_25 
REMARK   11  A    between atoms: C_29  and  C_32 
ROOT
HETATM    1  O   UNL     1       2.801  14.457  92.512  1.00  0.00     0.000 OA
HETATM    2  N   UNL     1       3.771  14.141  89.855  1.00  0.00     0.000 N 
HETATM    3  C   UNL     1       2.489  13.561  90.278  1.00  0.00     0.000 C 
HETATM    4  C   UNL     1       4.685  14.232  91.001  1.00  0.00     0.000 C 
HETATM    5  C   UNL     1       1.893  14.394  91.410  1.00  0.00     0.000 C 
HETATM    6  C   UNL     1       4.039  15.048  92.116  1.00  0.00     0.000 C 
ENDROOT
BRANCH   2   7
HETATM    7  C   UNL     1       4.365  13.352  88.777  1.00  0.00     0.000 C 
BRANCH   7   8
HETATM    8  C   UNL     1       5.244  12.262  89.289  1.00  0.00     0.000 A 
HETATM    9  C   UNL     1       4.685  11.174  89.961  1.00  0.00     0.000 A 
HETATM   10  C   UNL     1       5.506  10.155  90.442  1.00  0.00     0.000 A 
HETATM   11  C   UNL     1       6.886  10.224  90.250  1.00  0.00     0.000 A 
HETATM   12  C   UNL     1       7.445  11.309  89.579  1.00  0.00     0.000 A 
HETATM   13  C   UNL     1       6.624  12.329  89.098  1.00  0.00     0.000 A 
BRANCH  11  14
HETATM   14  C   UNL     1       7.728   9.177  90.742  1.00  0.00     0.000 C 
HETATM   15  C   UNL     1       8.437   8.298  91.156  1.00  0.00     0.000 C 
BRANCH  15  16
HETATM   16  C   UNL     1       9.278   7.252  91.648  1.00  0.00     0.000 A 
HETATM   17  C   UNL     1       9.787   7.320  92.945  1.00  0.00     0.000 A 
HETATM   18  C   UNL     1      10.605   6.299  93.427  1.00  0.00     0.000 A 
HETATM   19  C   UNL     1      10.896   5.233  92.601  1.00  0.00     0.000 A 
HETATM   20  C   UNL     1      10.406   5.142  91.315  1.00  0.00     0.000 A 
HETATM   21  C   UNL     1       9.588   6.164  90.833  1.00  0.00     0.000 A 
BRANCH  19  22
HETATM   22  C   UNL     1      11.770   4.146  93.114  1.00  0.00     0.000 C 
HETATM   23  O   UNL     1      11.256   3.125  93.565  1.00  0.00     0.000 OA
HETATM   24  N   UNL     1      13.137   4.367  93.016  1.00  0.00     0.000 N 
HETATM   25  HN  UNL     1      13.489   5.225  92.607  1.00  0.00     0.000 HD
BRANCH  24  26
HETATM   26  C   UNL     1      14.112   3.398  93.447  1.00  0.00     0.000 C 
BRANCH  26  27
HETATM   27  C   UNL     1      14.284   2.245  92.450  1.00  0.00     0.000 C 
HETATM   28  C   UNL     1      14.332   0.883  93.134  1.00  0.00     0.000 C 
BRANCH  27  29
HETATM   29  O   UNL     1      13.204   2.256  91.516  1.00  0.00     0.000 OA
HETATM   30  H   UNL     1      12.483   2.789  91.891  1.00  0.00     0.000 HD
ENDBRANCH  27  29
ENDBRANCH  26  27
BRANCH  26  31
HETATM   31  C   UNL     1      15.428   4.133  93.677  1.00  0.00     0.000 C 
HETATM   32  O   UNL     1      15.575   5.332  93.449  1.00  0.00     0.000 OA
BRANCH  31  33
HETATM   33  P   UNL     1      16.420   3.293  94.124  1.00  0.00     0.000 P 
HETATM   34  H   UNL     1      16.908   3.808  95.307  1.00  0.00     0.000 HD
BRANCH  33  35
HETATM   35  O   UNL     1      17.505   3.113  93.254  1.00  0.00     0.000 OA
HETATM   36  H   UNL     1      17.594   4.013  92.897  1.00  0.00     0.000 HD
ENDBRANCH  33  35
ENDBRANCH  31  33
ENDBRANCH  26  31
ENDBRANCH  24  26
ENDBRANCH  19  22
ENDBRANCH  15  16
ENDBRANCH  11  14
ENDBRANCH   7   8
ENDBRANCH   2   7
TORSDOF 11
ENDMDL
MODEL 6
REMARK VINA RESULT:      -4.0      3.650     12.453
REMARK  11 active torsions:
REMARK  status: ('A' for Active; 'I' for Inactive)
REMARK    1  A    between atoms: O_2  and  C_18 
REMARK    2  A    between atoms: O_5  and  P_8 
REMARK    3  A    between atoms: N_6  and  C_11 
REMARK    4  A    between atoms: N_7  and  C_15 
REMARK       I    between atoms: N_7  and  C_24 
REMARK    5  A    between atoms: P_8  and  C_23 
REMARK    6  A    between atoms: C_11  and  C_14 
REMARK    7  A    between atoms: C_15  and  C_18 
REMARK    8  A    between atoms: C_15  and  C_23 
REMARK    9  A    between atoms: C_21  and  C_26 
REMARK   10  A    between atoms: C_24  and  C_25 
REMARK   11  A    between atoms: C_29  and  C_32 
ROOT
HETATM    1  O   UNL     1       4.009  11.678  87.763  1.00  0.00     0.000 OA
HETATM    2  N   UNL     1       3.174  11.385  90.468  1.00  0.00     0.000 N 
HETATM    3  C   UNL     1       4.274  12.286  90.097  1.00  0.00     0.000 C 
HETATM    4  C   UNL     1       3.092  10.271  89.514  1.00  0.00     0.000 C 
HETATM    5  C   UNL     1       4.076  12.782  88.667  1.00  0.00     0.000 C 
HETATM    6  C   UNL     1       2.923  10.813  88.098  1.00  0.00     0.000 C 
ENDROOT
BRANCH   2   7
HETATM    7  C   UNL     1       3.348  10.890  91.832  1.00  0.00     0.000 C 
BRANCH   7   8
HETATM    8  C   UNL     1       4.483   9.929  91.946  1.00  0.00     0.000 A 
HETATM    9  C   UNL     1       5.783  10.405  92.121  1.00  0.00     0.000 A 
HETATM   10  C   UNL     1       6.846   9.507  92.226  1.00  0.00     0.000 A 
HETATM   11  C   UNL     1       6.607   8.135  92.158  1.00  0.00     0.000 A 
HETATM   12  C   UNL     1       5.309   7.659  91.984  1.00  0.00     0.000 A 
HETATM   13  C   UNL     1       4.246   8.556  91.879  1.00  0.00     0.000 A 
BRANCH  11  14
HETATM   14  C   UNL     1       7.697   7.214  92.268  1.00  0.00     0.000 C 
HETATM   15  C   UNL     1       8.613   6.441  92.361  1.00  0.00     0.000 C 
BRANCH  15  16
HETATM   16  C   UNL     1       9.702   5.522  92.472  1.00  0.00     0.000 A 
HETATM   17  C   UNL     1      10.718   5.753  93.399  1.00  0.00     0.000 A 
HETATM   18  C   UNL     1      11.779   4.854  93.509  1.00  0.00     0.000 A 
HETATM   19  C   UNL     1      11.800   3.745  92.690  1.00  0.00     0.000 A 
HETATM   20  C   UNL     1      10.808   3.494  91.765  1.00  0.00     0.000 A 
HETATM   21  C   UNL     1       9.747   4.392  91.655  1.00  0.00     0.000 A 
BRANCH  19  22
HETATM   22  C   UNL     1      12.931   2.789  92.806  1.00  0.00     0.000 C 
HETATM   23  O   UNL     1      12.708   1.583  92.724  1.00  0.00     0.000 OA
HETATM   24  N   UNL     1      14.188   3.352  92.980  1.00  0.00     0.000 N 
HETATM   25  HN  UNL     1      14.298   4.358  93.014  1.00  0.00     0.000 HD
BRANCH  24  26
HETATM   26  C   UNL     1      15.385   2.558  93.084  1.00  0.00     0.000 C 
BRANCH  26  27
HETATM   27  C   UNL     1      15.902   2.080  91.721  1.00  0.00     0.000 C 
HETATM   28  C   UNL     1      15.380   2.930  90.568  1.00  0.00     0.000 C 
BRANCH  27  29
HETATM   29  O   UNL     1      17.328   2.113  91.712  1.00  0.00     0.000 OA
HETATM   30  H   UNL     1      17.652   1.229  91.470  1.00  0.00     0.000 HD
ENDBRANCH  27  29
ENDBRANCH  26  27
BRANCH  26  31
HETATM   31  C   UNL     1      16.434   3.391  93.813  1.00  0.00     0.000 C 
HETATM   32  O   UNL     1      17.541   2.952  94.123  1.00  0.00     0.000 OA
BRANCH  31  33
HETATM   33  P   UNL     1      15.981   4.654  94.107  1.00  0.00     0.000 P 
HETATM   34  H   UNL     1      14.615   4.582  94.288  1.00  0.00     0.000 HD
BRANCH  33  35
HETATM   35  O   UNL     1      16.235   5.635  93.138  1.00  0.00     0.000 OA
HETATM   36  H   UNL     1      16.841   5.149  92.553  1.00  0.00     0.000 HD
ENDBRANCH  33  35
ENDBRANCH  31  33
ENDBRANCH  26  31
ENDBRANCH  24  26
ENDBRANCH  19  22
ENDBRANCH  15  16
ENDBRANCH  11  14
ENDBRANCH   7   8
ENDBRANCH   2   7
TORSDOF 11
ENDMDL
