MODEL 1
REMARK VINA RESULT:      -6.7      0.000      0.000
REMARK  14 active torsions:
REMARK  status: ('A' for Active; 'I' for Inactive)
REMARK    1  A    between atoms: O_2  and  C_18 
REMARK    2  A    between atoms: C_5  and  C_8 
REMARK    3  A    between atoms: C_5  and  O_35 
REMARK    4  A    between atoms: C_5  and  C_36 
REMARK    5  A    between atoms: N_6  and  C_11 
REMARK    6  A    between atoms: N_7  and  C_15 
REMARK       I    between atoms: N_7  and  C_24 
REMARK    7  A    between atoms: C_8  and  C_23 
REMARK    8  A    between atoms: C_11  and  C_14 
REMARK    9  A    between atoms: C_15  and  C_18 
REMARK   10  A    between atoms: C_15  and  C_23 
REMARK   11  A    between atoms: C_21  and  C_26 
REMARK   12  A    between atoms: C_24  and  C_25 
REMARK   13  A    between atoms: C_29  and  C_32 
REMARK   14  A    between atoms: C_36  and  O_39 
ROOT
HETATM    1  O   UNL     1      16.631   3.408  93.871  1.00  0.00    -0.350 OA
HETATM    2  N   UNL     1      14.055   3.028  92.721  1.00  0.00     0.147 N 
HETATM    3  C   UNL     1      14.968   1.900  92.949  1.00  0.00     0.283 C 
HETATM    4  C   UNL     1      14.824   4.260  92.495  1.00  0.00     0.283 C 
HETATM    5  C   UNL     1      15.892   2.211  94.124  1.00  0.00     0.178 C 
HETATM    6  C   UNL     1      15.751   4.516  93.679  1.00  0.00     0.178 C 
ENDROOT
BRANCH   2   7
HETATM    7  C   UNL     1      13.167   2.755  91.592  1.00  0.00     0.277 C 
BRANCH   7   8
HETATM    8  C   UNL     1      11.998   3.679  91.553  1.00  0.00     0.011 A 
HETATM    9  C   UNL     1      11.635   4.294  90.354  1.00  0.00    -0.002 A 
HETATM   10  C   UNL     1      10.543   5.161  90.317  1.00  0.00     0.008 A 
HETATM   11  C   UNL     1       9.812   5.409  91.479  1.00  0.00     0.042 A 
HETATM   12  C   UNL     1      10.172   4.795  92.676  1.00  0.00     0.008 A 
HETATM   13  C   UNL     1      11.265   3.930  92.714  1.00  0.00    -0.002 A 
BRANCH  11  14
HETATM   14  C   UNL     1       8.690   6.296  91.440  1.00  0.00    -0.059 C 
HETATM   15  C   UNL     1       7.747   7.042  91.407  1.00  0.00    -0.059 C 
BRANCH  15  16
HETATM   16  C   UNL     1       6.625   7.927  91.368  1.00  0.00     0.042 A 
HETATM   17  C   UNL     1       5.409   7.488  90.843  1.00  0.00     0.008 A 
HETATM   18  C   UNL     1       4.315   8.352  90.807  1.00  0.00     0.005 A 
HETATM   19  C   UNL     1       4.460   9.633  91.297  1.00  0.00     0.056 A 
HETATM   20  C   UNL     1       5.651  10.091  91.820  1.00  0.00     0.005 A 
HETATM   21  C   UNL     1       6.746   9.228  91.856  1.00  0.00     0.008 A 
BRANCH  19  22
HETATM   22  C   UNL     1       3.293  10.553  91.257  1.00  0.00     0.254 C 
HETATM   23  O   UNL     1       2.218  10.140  90.831  1.00  0.00    -0.268 OA
HETATM   24  N   UNL     1       3.514  11.835  91.740  1.00  0.00    -0.335 N 
HETATM   25  HN  UNL     1       4.424  12.098  92.100  1.00  0.00     0.164 HD
BRANCH  24  26
HETATM   26  C   UNL     1       2.477  12.834  91.790  1.00  0.00     0.169 C 
BRANCH  26  27
HETATM   27  C   UNL     1       2.390  13.533  93.153  1.00  0.00     0.138 C 
HETATM   28  C   UNL     1       3.748  13.649  93.837  1.00  0.00     0.034 C 
BRANCH  27  29
HETATM   29  O   UNL     1       1.842  14.840  92.985  1.00  0.00    -0.383 OA
HETATM   30  H   UNL     1       1.819  15.041  92.034  1.00  0.00     0.210 HD
ENDBRANCH  27  29
ENDBRANCH  26  27
BRANCH  26  31
HETATM   31  C   UNL     1       2.740  13.835  90.670  1.00  0.00     0.194 C 
HETATM   32  O   UNL     1       1.839  14.386  90.039  1.00  0.00    -0.289 OA
BRANCH  31  33
HETATM   33  C   UNL     1       4.082  14.008  90.433  1.00  0.00     0.053 C 
BRANCH  33  34
HETATM   34  C   UNL     1       4.450  14.159  89.089  1.00  0.00     0.220 C 
BRANCH  34  35
HETATM   35  O   UNL     1       5.472  14.869  89.051  1.00  0.00    -0.371 OA
HETATM   36  H   UNL     1       5.172  15.563  89.619  1.00  0.00     0.211 HD
ENDBRANCH  34  35
BRANCH  34  37
HETATM   37  C   UNL     1       4.624  12.937  88.416  1.00  0.00     0.185 C 
HETATM   38  O   UNL     1       5.467  12.695  89.408  1.00  0.00    -0.647 OA
BRANCH  37  39
HETATM   39  O   UNL     1       4.224  12.427  87.412  1.00  0.00    -0.774 OA
HETATM   40  H   UNL     1       3.207  12.832  87.114  1.00  0.00     0.167 HD
ENDBRANCH  37  39
ENDBRANCH  34  37
ENDBRANCH  33  34
ENDBRANCH  31  33
ENDBRANCH  26  31
ENDBRANCH  24  26
ENDBRANCH  19  22
ENDBRANCH  15  16
ENDBRANCH  11  14
ENDBRANCH   7   8
ENDBRANCH   2   7
TORSDOF 14
ENDMDL
