MODEL 1
REMARK VINA RESULT:      -7.0      0.000      0.000
REMARK  10 active torsions:
REMARK  status: ('A' for Active; 'I' for Inactive)
REMARK    1  A    between atoms: O_2  and  C_18 
REMARK    2  A    between atoms: O_5  and  N_8 
REMARK    3  A    between atoms: N_6  and  C_11 
REMARK    4  A    between atoms: N_7  and  C_15 
REMARK       I    between atoms: N_7  and  C_24 
REMARK       I    between atoms: N_8  and  C_23 
REMARK    5  A    between atoms: C_11  and  C_14 
REMARK    6  A    between atoms: C_15  and  C_18 
REMARK    7  A    between atoms: C_15  and  C_23 
REMARK    8  A    between atoms: C_21  and  C_26 
REMARK    9  A    between atoms: C_24  and  C_25 
REMARK   10  A    between atoms: C_29  and  C_32 
ROOT
HETATM    1  O   UNK     0      16.545   4.285  94.120  0.00  0.00    -0.388 OA
HETATM    2  N   UNK     0      14.716   2.611  92.722  0.00  0.00     0.096 N 
HETATM    3  C   UNK     0      14.544   4.070  92.764  0.00  0.00     0.299 C 
HETATM    4  C   UNK     0      15.407   2.150  93.933  0.00  0.00     0.299 C 
HETATM    5  C   UNK     0      15.902   4.746  92.930  0.00  0.00     0.198 C 
HETATM    6  C   UNK     0      16.745   2.872  94.072  0.00  0.00     0.198 C 
ENDROOT
BRANCH   2   7
HETATM    7  C   UNK     0      13.425   1.941  92.574  0.00  0.00     0.311 C 
BRANCH   7   8
HETATM    8  C   UNK     0      12.321   2.897  92.274  0.00  0.00    -0.030 A 
HETATM    9  C   UNK     0      11.793   2.970  90.985  0.00  0.00     0.010 A 
HETATM   10  C   UNK     0      10.761   3.865  90.703  0.00  0.00     0.021 A 
HETATM   11  C   UNK     0      10.256   4.684  91.712  0.00  0.00     0.018 A 
HETATM   12  C   UNK     0      10.781   4.612  93.000  0.00  0.00     0.021 A 
HETATM   13  C   UNK     0      11.814   3.718  93.282  0.00  0.00     0.010 A 
BRANCH  11  14
HETATM   14  C   UNK     0       9.196   5.601  91.423  0.00  0.00    -0.061 C 
HETATM   15  C   UNK     0       8.305   6.371  91.181  0.00  0.00    -0.061 C 
BRANCH  15  16
HETATM   16  C   UNK     0       7.245   7.285  90.892  0.00  0.00     0.018 A 
HETATM   17  C   UNK     0       6.496   7.834  91.933  0.00  0.00     0.022 A 
HETATM   18  C   UNK     0       5.463   8.728  91.652  0.00  0.00     0.018 A 
HETATM   19  C   UNK     0       5.203   9.054  90.337  0.00  0.00     0.032 A 
HETATM   20  C   UNK     0       5.928   8.525  89.290  0.00  0.00     0.018 A 
HETATM   21  C   UNK     0       6.961   7.630  89.571  0.00  0.00     0.022 A 
BRANCH  19  22
HETATM   22  C   UNK     0       4.101  10.005  90.038  0.00  0.00     0.252 C 
HETATM   23  O   UNK     0       2.985   9.566  89.770  0.00  0.00    -0.268 OA
HETATM   24  N   UNK     0       4.424  11.353  90.110  0.00  0.00    -0.341 N 
HETATM   25  H   UNK     0       5.362  11.642  90.362  0.00  0.00     0.163 HD
BRANCH  24  26
HETATM   26  C   UNK     0       3.460  12.396  89.871  0.00  0.00     0.207 C 
BRANCH  26  27
HETATM   27  C   UNK     0       3.030  13.113  91.157  0.00  0.00     0.146 C 
HETATM   28  C   UNK     0       2.272  12.196  92.111  0.00  0.00     0.042 C 
BRANCH  27  29
HETATM   29  O   UNK     0       4.181  13.627  91.826  0.00  0.00    -0.393 OA
HETATM   30  H   UNK     0       4.620  14.261  91.234  0.00  0.00     0.210 HD
ENDBRANCH  27  29
ENDBRANCH  26  27
BRANCH  26  31
HETATM   31  C   UNK     0       4.068  13.372  88.869  0.00  0.00     0.266 C 
HETATM   32  O   UNK     0       4.271  14.557  89.128  0.00  0.00    -0.269 OA
HETATM   33  N   UNK     0       4.318  12.781  87.655  0.00  0.00    -0.236 N 
HETATM   34  H   UNK     0       4.081  11.834  87.381  0.00  0.00     0.197 HD
BRANCH  33  35
HETATM   35  O   UNK     0       4.843  13.621  86.663  0.00  0.00    -0.287 OA
HETATM   36  H   UNK     0       5.347  14.245  87.213  0.00  0.00     0.244 HD
ENDBRANCH  33  35
ENDBRANCH  26  31
ENDBRANCH  24  26
ENDBRANCH  19  22
ENDBRANCH  15  16
ENDBRANCH  11  14
ENDBRANCH   7   8
ENDBRANCH   2   7
TORSDOF 10
ENDMDL
MODEL 2
REMARK VINA RESULT:      -6.6      1.461      2.084
REMARK  10 active torsions:
REMARK  status: ('A' for Active; 'I' for Inactive)
REMARK    1  A    between atoms: O_2  and  C_18 
REMARK    2  A    between atoms: O_5  and  N_8 
REMARK    3  A    between atoms: N_6  and  C_11 
REMARK    4  A    between atoms: N_7  and  C_15 
REMARK       I    between atoms: N_7  and  C_24 
REMARK       I    between atoms: N_8  and  C_23 
REMARK    5  A    between atoms: C_11  and  C_14 
REMARK    6  A    between atoms: C_15  and  C_18 
REMARK    7  A    between atoms: C_15  and  C_23 
REMARK    8  A    between atoms: C_21  and  C_26 
REMARK    9  A    between atoms: C_24  and  C_25 
REMARK   10  A    between atoms: C_29  and  C_32 
ROOT
HETATM    1  O   UNK     0      16.917   3.698  93.836  0.00  0.00    -0.388 OA
HETATM    2  N   UNK     0      14.293   3.052  92.943  0.00  0.00     0.096 N 
HETATM    3  C   UNK     0      15.344   2.030  93.040  0.00  0.00     0.299 C 
HETATM    4  C   UNK     0      14.892   4.367  92.680  0.00  0.00     0.299 C 
HETATM    5  C   UNK     0      16.346   2.420  94.124  0.00  0.00     0.198 C 
HETATM    6  C   UNK     0      15.905   4.703  93.771  0.00  0.00     0.198 C 
ENDROOT
BRANCH   2   7
HETATM    7  C   UNK     0      13.327   2.704  91.902  0.00  0.00     0.311 C 
BRANCH   7   8
HETATM    8  C   UNK     0      12.198   3.675  91.828  0.00  0.00    -0.030 A 
HETATM    9  C   UNK     0      11.347   3.838  92.921  0.00  0.00     0.010 A 
HETATM   10  C   UNK     0      10.289   4.745  92.851  0.00  0.00     0.021 A 
HETATM   11  C   UNK     0      10.084   5.488  91.689  0.00  0.00     0.018 A 
HETATM   12  C   UNK     0      10.934   5.326  90.597  0.00  0.00     0.021 A 
HETATM   13  C   UNK     0      11.992   4.419  90.666  0.00  0.00     0.010 A 
BRANCH  11  14
HETATM   14  C   UNK     0       9.000   6.420  91.619  0.00  0.00    -0.061 C 
HETATM   15  C   UNK     0       8.089   7.202  91.560  0.00  0.00    -0.061 C 
BRANCH  15  16
HETATM   16  C   UNK     0       7.007   8.132  91.488  0.00  0.00     0.018 A 
HETATM   17  C   UNK     0       5.782   7.735  90.949  0.00  0.00     0.022 A 
HETATM   18  C   UNK     0       4.725   8.642  90.881  0.00  0.00     0.018 A 
HETATM   19  C   UNK     0       4.914   9.924  91.353  0.00  0.00     0.032 A 
HETATM   20  C   UNK     0       6.114  10.341  91.890  0.00  0.00     0.018 A 
HETATM   21  C   UNK     0       7.173   9.435  91.957  0.00  0.00     0.022 A 
BRANCH  19  22
HETATM   22  C   UNK     0       3.788  10.890  91.278  0.00  0.00     0.252 C 
HETATM   23  O   UNK     0       2.697  10.509  90.862  0.00  0.00    -0.268 OA
HETATM   24  N   UNK     0       4.061  12.177  91.721  0.00  0.00    -0.341 N 
HETATM   25  H   UNK     0       4.980  12.414  92.075  0.00  0.00     0.163 HD
BRANCH  24  26
HETATM   26  C   UNK     0       3.066  13.220  91.733  0.00  0.00     0.207 C 
BRANCH  26  27
HETATM   27  C   UNK     0       3.060  14.018  93.043  0.00  0.00     0.146 C 
HETATM   28  C   UNK     0       4.322  13.796  93.869  0.00  0.00     0.042 C 
BRANCH  27  29
HETATM   29  O   UNK     0       2.935  15.410  92.754  0.00  0.00    -0.393 OA
HETATM   30  H   UNK     0       3.415  15.908  93.437  0.00  0.00     0.210 HD
ENDBRANCH  27  29
ENDBRANCH  26  27
BRANCH  26  31
HETATM   31  C   UNK     0       3.325  14.126  90.534  0.00  0.00     0.266 C 
HETATM   32  O   UNK     0       2.485  14.337  89.661  0.00  0.00    -0.269 OA
HETATM   33  N   UNK     0       4.602  14.632  90.532  0.00  0.00    -0.236 N 
HETATM   34  H   UNK     0       5.345  14.409  91.184  0.00  0.00     0.197 HD
BRANCH  33  35
HETATM   35  O   UNK     0       4.934  15.446  89.440  0.00  0.00    -0.287 OA
HETATM   36  H   UNK     0       5.354  16.193  89.900  0.00  0.00     0.244 HD
ENDBRANCH  33  35
ENDBRANCH  26  31
ENDBRANCH  24  26
ENDBRANCH  19  22
ENDBRANCH  15  16
ENDBRANCH  11  14
ENDBRANCH   7   8
ENDBRANCH   2   7
TORSDOF 10
ENDMDL
MODEL 3
REMARK VINA RESULT:      -6.1      1.469      2.537
REMARK  10 active torsions:
REMARK  status: ('A' for Active; 'I' for Inactive)
REMARK    1  A    between atoms: O_2  and  C_18 
REMARK    2  A    between atoms: O_5  and  N_8 
REMARK    3  A    between atoms: N_6  and  C_11 
REMARK    4  A    between atoms: N_7  and  C_15 
REMARK       I    between atoms: N_7  and  C_24 
REMARK       I    between atoms: N_8  and  C_23 
REMARK    5  A    between atoms: C_11  and  C_14 
REMARK    6  A    between atoms: C_15  and  C_18 
REMARK    7  A    between atoms: C_15  and  C_23 
REMARK    8  A    between atoms: C_21  and  C_26 
REMARK    9  A    between atoms: C_24  and  C_25 
REMARK   10  A    between atoms: C_29  and  C_32 
ROOT
HETATM    1  O   UNK     0      15.959   4.291  93.891  0.00  0.00    -0.388 OA
HETATM    2  N   UNK     0      14.175   2.654  92.395  0.00  0.00     0.096 N 
HETATM    3  C   UNK     0      14.272   4.101  92.157  0.00  0.00     0.299 C 
HETATM    4  C   UNK     0      14.506   2.350  93.793  0.00  0.00     0.299 C 
HETATM    5  C   UNK     0      15.670   4.593  92.525  0.00  0.00     0.198 C 
HETATM    6  C   UNK     0      15.898   2.884  94.124  0.00  0.00     0.198 C 
ENDROOT
BRANCH   2   7
HETATM    7  C   UNK     0      12.840   2.162  92.058  0.00  0.00     0.311 C 
BRANCH   7   8
HETATM    8  C   UNK     0      11.851   3.266  91.903  0.00  0.00    -0.030 A 
HETATM    9  C   UNK     0      11.387   3.950  93.028  0.00  0.00     0.010 A 
HETATM   10  C   UNK     0      10.460   4.981  92.885  0.00  0.00     0.021 A 
HETATM   11  C   UNK     0       9.998   5.331  91.616  0.00  0.00     0.018 A 
HETATM   12  C   UNK     0      10.461   4.649  90.492  0.00  0.00     0.021 A 
HETATM   13  C   UNK     0      11.387   3.617  90.635  0.00  0.00     0.010 A 
BRANCH  11  14
HETATM   14  C   UNK     0       9.049   6.391  91.469  0.00  0.00    -0.061 C 
HETATM   15  C   UNK     0       8.251   7.281  91.344  0.00  0.00    -0.061 C 
BRANCH  15  16
HETATM   16  C   UNK     0       7.303   8.341  91.198  0.00  0.00     0.018 A 
HETATM   17  C   UNK     0       7.212   9.334  92.174  0.00  0.00     0.022 A 
HETATM   18  C   UNK     0       6.289  10.369  92.030  0.00  0.00     0.018 A 
HETATM   19  C   UNK     0       5.477  10.389  90.915  0.00  0.00     0.032 A 
HETATM   20  C   UNK     0       5.546   9.419  89.937  0.00  0.00     0.018 A 
HETATM   21  C   UNK     0       6.469   8.383  90.081  0.00  0.00     0.022 A 
BRANCH  19  22
HETATM   22  C   UNK     0       4.492  11.491  90.764  0.00  0.00     0.252 C 
HETATM   23  O   UNK     0       3.436  11.275  90.175  0.00  0.00    -0.268 OA
HETATM   24  N   UNK     0       4.844  12.705  91.339  0.00  0.00    -0.341 N 
HETATM   25  H   UNK     0       5.724  12.802  91.832  0.00  0.00     0.163 HD
BRANCH  24  26
HETATM   26  C   UNK     0       3.985  13.860  91.298  0.00  0.00     0.207 C 
BRANCH  26  27
HETATM   27  C   UNK     0       3.853  14.453  89.889  0.00  0.00     0.146 C 
HETATM   28  C   UNK     0       5.206  14.731  89.244  0.00  0.00     0.042 C 
BRANCH  27  29
HETATM   29  O   UNK     0       3.120  13.552  89.059  0.00  0.00    -0.393 OA
HETATM   30  H   UNK     0       2.309  13.297  89.529  0.00  0.00     0.210 HD
ENDBRANCH  27  29
ENDBRANCH  26  27
BRANCH  26  31
HETATM   31  C   UNK     0       2.626  13.450  91.856  0.00  0.00     0.266 C 
HETATM   32  O   UNK     0       1.571  13.977  91.505  0.00  0.00    -0.269 OA
HETATM   33  N   UNK     0       2.732  12.466  92.809  0.00  0.00    -0.236 N 
HETATM   34  H   UNK     0       3.587  12.075  93.184  0.00  0.00     0.197 HD
BRANCH  33  35
HETATM   35  O   UNK     0       1.528  12.059  93.401  0.00  0.00    -0.287 OA
HETATM   36  H   UNK     0       0.972  11.950  92.610  0.00  0.00     0.244 HD
ENDBRANCH  33  35
ENDBRANCH  26  31
ENDBRANCH  24  26
ENDBRANCH  19  22
ENDBRANCH  15  16
ENDBRANCH  11  14
ENDBRANCH   7   8
ENDBRANCH   2   7
TORSDOF 10
ENDMDL
MODEL 4
REMARK VINA RESULT:      -5.6      1.832      2.316
REMARK  10 active torsions:
REMARK  status: ('A' for Active; 'I' for Inactive)
REMARK    1  A    between atoms: O_2  and  C_18 
REMARK    2  A    between atoms: O_5  and  N_8 
REMARK    3  A    between atoms: N_6  and  C_11 
REMARK    4  A    between atoms: N_7  and  C_15 
REMARK       I    between atoms: N_7  and  C_24 
REMARK       I    between atoms: N_8  and  C_23 
REMARK    5  A    between atoms: C_11  and  C_14 
REMARK    6  A    between atoms: C_15  and  C_18 
REMARK    7  A    between atoms: C_15  and  C_23 
REMARK    8  A    between atoms: C_21  and  C_26 
REMARK    9  A    between atoms: C_24  and  C_25 
REMARK   10  A    between atoms: C_29  and  C_32 
ROOT
HETATM    1  O   UNK     0      16.399   4.073  94.124  0.00  0.00    -0.388 OA
HETATM    2  N   UNK     0      14.492   2.688  92.527  0.00  0.00     0.096 N 
HETATM    3  C   UNK     0      14.574   4.155  92.526  0.00  0.00     0.299 C 
HETATM    4  C   UNK     0      14.937   2.160  93.824  0.00  0.00     0.299 C 
HETATM    5  C   UNK     0      15.998   4.594  92.855  0.00  0.00     0.198 C 
HETATM    6  C   UNK     0      16.352   2.646  94.123  0.00  0.00     0.198 C 
ENDROOT
BRANCH   2   7
HETATM    7  C   UNK     0      13.133   2.244  92.225  0.00  0.00     0.311 C 
BRANCH   7   8
HETATM    8  C   UNK     0      12.149   3.364  92.260  0.00  0.00    -0.030 A 
HETATM    9  C   UNK     0      11.799   3.946  93.480  0.00  0.00     0.010 A 
HETATM   10  C   UNK     0      10.877   4.992  93.514  0.00  0.00     0.021 A 
HETATM   11  C   UNK     0      10.308   5.457  92.329  0.00  0.00     0.018 A 
HETATM   12  C   UNK     0      10.657   4.878  91.111  0.00  0.00     0.021 A 
HETATM   13  C   UNK     0      11.578   3.831  91.076  0.00  0.00     0.010 A 
BRANCH  11  14
HETATM   14  C   UNK     0       9.364   6.532  92.365  0.00  0.00    -0.061 C 
HETATM   15  C   UNK     0       8.571   7.435  92.394  0.00  0.00    -0.061 C 
BRANCH  15  16
HETATM   16  C   UNK     0       7.629   8.509  92.429  0.00  0.00     0.018 A 
HETATM   17  C   UNK     0       6.946   8.799  93.612  0.00  0.00     0.022 A 
HETATM   18  C   UNK     0       6.029   9.848  93.647  0.00  0.00     0.018 A 
HETATM   19  C   UNK     0       5.814  10.586  92.501  0.00  0.00     0.032 A 
HETATM   20  C   UNK     0       6.476  10.320  91.320  0.00  0.00     0.018 A 
HETATM   21  C   UNK     0       7.393   9.270  91.284  0.00  0.00     0.022 A 
BRANCH  19  22
HETATM   22  C   UNK     0       4.835  11.703  92.539  0.00  0.00     0.252 C 
HETATM   23  O   UNK     0       4.967  12.587  93.381  0.00  0.00    -0.268 OA
HETATM   24  N   UNK     0       3.836  11.668  91.576  0.00  0.00    -0.341 N 
HETATM   25  H   UNK     0       3.804  10.917  90.896  0.00  0.00     0.163 HD
BRANCH  24  26
HETATM   26  C   UNK     0       2.827  12.691  91.468  0.00  0.00     0.207 C 
BRANCH  26  27
HETATM   27  C   UNK     0       2.306  13.157  92.833  0.00  0.00     0.146 C 
HETATM   28  C   UNK     0       1.460  14.422  92.734  0.00  0.00     0.042 C 
BRANCH  27  29
HETATM   29  O   UNK     0       1.522  12.121  93.424  0.00  0.00    -0.393 OA
HETATM   30  H   UNK     0       2.126  11.481  93.839  0.00  0.00     0.210 HD
ENDBRANCH  27  29
ENDBRANCH  26  27
BRANCH  26  31
HETATM   31  C   UNK     0       3.423  13.851  90.677  0.00  0.00     0.266 C 
HETATM   32  O   UNK     0       3.097  14.109  89.520  0.00  0.00    -0.269 OA
HETATM   33  N   UNK     0       4.379  14.530  91.392  0.00  0.00    -0.236 N 
HETATM   34  H   UNK     0       4.735  14.290  92.310  0.00  0.00     0.197 HD
BRANCH  33  35
HETATM   35  O   UNK     0       5.005  15.590  90.721  0.00  0.00    -0.287 OA
HETATM   36  H   UNK     0       5.245  15.151  89.887  0.00  0.00     0.244 HD
ENDBRANCH  33  35
ENDBRANCH  26  31
ENDBRANCH  24  26
ENDBRANCH  19  22
ENDBRANCH  15  16
ENDBRANCH  11  14
ENDBRANCH   7   8
ENDBRANCH   2   7
TORSDOF 10
ENDMDL
MODEL 5
REMARK VINA RESULT:      -5.1      2.129     12.501
REMARK  10 active torsions:
REMARK  status: ('A' for Active; 'I' for Inactive)
REMARK    1  A    between atoms: O_2  and  C_18 
REMARK    2  A    between atoms: O_5  and  N_8 
REMARK    3  A    between atoms: N_6  and  C_11 
REMARK    4  A    between atoms: N_7  and  C_15 
REMARK       I    between atoms: N_7  and  C_24 
REMARK       I    between atoms: N_8  and  C_23 
REMARK    5  A    between atoms: C_11  and  C_14 
REMARK    6  A    between atoms: C_15  and  C_18 
REMARK    7  A    between atoms: C_15  and  C_23 
REMARK    8  A    between atoms: C_21  and  C_26 
REMARK    9  A    between atoms: C_24  and  C_25 
REMARK   10  A    between atoms: C_29  and  C_32 
ROOT
HETATM    1  O   UNK     0       3.236  14.375  92.218  0.00  0.00    -0.388 OA
HETATM    2  N   UNK     0       4.074  13.925  89.536  0.00  0.00     0.096 N 
HETATM    3  C   UNK     0       3.113  13.033  90.200  0.00  0.00     0.299 C 
HETATM    4  C   UNK     0       4.971  14.528  90.530  0.00  0.00     0.299 C 
HETATM    5  C   UNK     0       2.338  13.808  91.263  0.00  0.00     0.198 C 
HETATM    6  C   UNK     0       4.153  15.268  91.585  0.00  0.00     0.198 C 
ENDROOT
BRANCH   2   7
HETATM    7  C   UNK     0       4.836  13.200  88.521  0.00  0.00     0.311 C 
BRANCH   7   8
HETATM    8  C   UNK     0       5.672  12.113  89.106  0.00  0.00    -0.030 A 
HETATM    9  C   UNK     0       7.051  12.103  88.893  0.00  0.00     0.010 A 
HETATM   10  C   UNK     0       7.834  11.086  89.438  0.00  0.00     0.021 A 
HETATM   11  C   UNK     0       7.237  10.080  90.198  0.00  0.00     0.018 A 
HETATM   12  C   UNK     0       5.860  10.089  90.412  0.00  0.00     0.021 A 
HETATM   13  C   UNK     0       5.077  11.106  89.866  0.00  0.00     0.010 A 
BRANCH  11  14
HETATM   14  C   UNK     0       8.040   9.038  90.759  0.00  0.00    -0.061 C 
HETATM   15  C   UNK     0       8.715   8.162  91.231  0.00  0.00    -0.061 C 
BRANCH  15  16
HETATM   16  C   UNK     0       9.519   7.121  91.792  0.00  0.00     0.018 A 
HETATM   17  C   UNK     0       9.988   6.089  90.979  0.00  0.00     0.022 A 
HETATM   18  C   UNK     0      10.774   5.074  91.525  0.00  0.00     0.018 A 
HETATM   19  C   UNK     0      11.074   5.114  92.870  0.00  0.00     0.032 A 
HETATM   20  C   UNK     0      10.622   6.123  93.696  0.00  0.00     0.018 A 
HETATM   21  C   UNK     0       9.835   7.137  93.150  0.00  0.00     0.022 A 
BRANCH  19  22
HETATM   22  C   UNK     0      11.909   4.032  93.452  0.00  0.00     0.252 C 
HETATM   23  O   UNK     0      11.371   3.151  94.119  0.00  0.00    -0.268 OA
HETATM   24  N   UNK     0      13.266   4.092  93.167  0.00  0.00    -0.341 N 
HETATM   25  H   UNK     0      13.636   4.836  92.587  0.00  0.00     0.163 HD
BRANCH  24  26
HETATM   26  C   UNK     0      14.202   3.102  93.638  0.00  0.00     0.207 C 
BRANCH  26  27
HETATM   27  C   UNK     0      14.276   1.873  92.724  0.00  0.00     0.146 C 
HETATM   28  C   UNK     0      12.934   1.540  92.082  0.00  0.00     0.042 C 
BRANCH  27  29
HETATM   29  O   UNK     0      15.238   2.100  91.695  0.00  0.00    -0.393 OA
HETATM   30  H   UNK     0      15.410   1.256  91.246  0.00  0.00     0.210 HD
ENDBRANCH  27  29
ENDBRANCH  26  27
BRANCH  26  31
HETATM   31  C   UNK     0      15.564   3.776  93.773  0.00  0.00     0.266 C 
HETATM   32  O   UNK     0      15.716   4.995  93.722  0.00  0.00    -0.269 OA
HETATM   33  N   UNK     0      16.582   2.865  93.916  0.00  0.00    -0.236 N 
HETATM   34  H   UNK     0      16.503   1.856  93.873  0.00  0.00     0.197 HD
BRANCH  33  35
HETATM   35  O   UNK     0      17.873   3.403  94.008  0.00  0.00    -0.287 OA
HETATM   36  H   UNK     0      18.096   3.166  94.925  0.00  0.00     0.244 HD
ENDBRANCH  33  35
ENDBRANCH  26  31
ENDBRANCH  24  26
ENDBRANCH  19  22
ENDBRANCH  15  16
ENDBRANCH  11  14
ENDBRANCH   7   8
ENDBRANCH   2   7
TORSDOF 10
ENDMDL
MODEL 6
REMARK VINA RESULT:      -5.1      1.966     12.495
REMARK  10 active torsions:
REMARK  status: ('A' for Active; 'I' for Inactive)
REMARK    1  A    between atoms: O_2  and  C_18 
REMARK    2  A    between atoms: O_5  and  N_8 
REMARK    3  A    between atoms: N_6  and  C_11 
REMARK    4  A    between atoms: N_7  and  C_15 
REMARK       I    between atoms: N_7  and  C_24 
REMARK       I    between atoms: N_8  and  C_23 
REMARK    5  A    between atoms: C_11  and  C_14 
REMARK    6  A    between atoms: C_15  and  C_18 
REMARK    7  A    between atoms: C_15  and  C_23 
REMARK    8  A    between atoms: C_21  and  C_26 
REMARK    9  A    between atoms: C_24  and  C_25 
REMARK   10  A    between atoms: C_29  and  C_32 
ROOT
HETATM    1  O   UNK     0       5.521  15.017  89.201  0.00  0.00    -0.388 OA
HETATM    2  N   UNK     0       3.618  13.396  90.561  0.00  0.00     0.096 N 
HETATM    3  C   UNK     0       4.160  14.618  91.170  0.00  0.00     0.299 C 
HETATM    4  C   UNK     0       4.602  12.815  89.637  0.00  0.00     0.299 C 
HETATM    5  C   UNK     0       4.560  15.607  90.077  0.00  0.00     0.198 C 
HETATM    6  C   UNK     0       4.991  13.845  88.581  0.00  0.00     0.198 C 
ENDROOT
BRANCH   2   7
HETATM    7  C   UNK     0       3.239  12.429  91.590  0.00  0.00     0.311 C 
BRANCH   7   8
HETATM    8  C   UNK     0       4.275  11.376  91.790  0.00  0.00    -0.030 A 
HETATM    9  C   UNK     0       5.203  11.500  92.825  0.00  0.00     0.010 A 
HETATM   10  C   UNK     0       6.174  10.516  93.011  0.00  0.00     0.021 A 
HETATM   11  C   UNK     0       6.216   9.409  92.164  0.00  0.00     0.018 A 
HETATM   12  C   UNK     0       5.289   9.284  91.131  0.00  0.00     0.021 A 
HETATM   13  C   UNK     0       4.318  10.268  90.943  0.00  0.00     0.010 A 
BRANCH  11  14
HETATM   14  C   UNK     0       7.211   8.399  92.357  0.00  0.00    -0.061 C 
HETATM   15  C   UNK     0       8.047   7.550  92.520  0.00  0.00    -0.061 C 
BRANCH  15  16
HETATM   16  C   UNK     0       9.041   6.543  92.713  0.00  0.00     0.018 A 
HETATM   17  C   UNK     0       9.342   5.654  91.680  0.00  0.00     0.022 A 
HETATM   18  C   UNK     0      10.314   4.671  91.868  0.00  0.00     0.018 A 
HETATM   19  C   UNK     0      10.964   4.600  93.083  0.00  0.00     0.032 A 
HETATM   20  C   UNK     0      10.685   5.465  94.119  0.00  0.00     0.018 A 
HETATM   21  C   UNK     0       9.712   6.448  93.932  0.00  0.00     0.022 A 
BRANCH  19  22
HETATM   22  C   UNK     0      11.998   3.552  93.283  0.00  0.00     0.252 C 
HETATM   23  O   UNK     0      11.726   2.383  93.019  0.00  0.00    -0.268 OA
HETATM   24  N   UNK     0      13.231   3.994  93.741  0.00  0.00    -0.341 N 
HETATM   25  H   UNK     0      13.391   4.979  93.914  0.00  0.00     0.163 HD
BRANCH  24  26
HETATM   26  C   UNK     0      14.342   3.103  93.961  0.00  0.00     0.207 C 
BRANCH  26  27
HETATM   27  C   UNK     0      14.403   1.965  92.934  0.00  0.00     0.146 C 
HETATM   28  C   UNK     0      15.038   2.400  91.618  0.00  0.00     0.042 C 
BRANCH  27  29
HETATM   29  O   UNK     0      15.151   0.876  93.472  0.00  0.00    -0.393 OA
HETATM   30  H   UNK     0      14.573   0.095  93.505  0.00  0.00     0.210 HD
ENDBRANCH  27  29
ENDBRANCH  26  27
BRANCH  26  31
HETATM   31  C   UNK     0      15.619   3.936  93.941  0.00  0.00     0.266 C 
HETATM   32  O   UNK     0      15.616   5.165  93.881  0.00  0.00    -0.269 OA
HETATM   33  N   UNK     0      16.749   3.155  93.959  0.00  0.00    -0.236 N 
HETATM   34  H   UNK     0      16.788   2.144  93.919  0.00  0.00     0.197 HD
BRANCH  33  35
HETATM   35  O   UNK     0      17.968   3.845  93.904  0.00  0.00    -0.287 OA
HETATM   36  H   UNK     0      18.577   3.109  93.722  0.00  0.00     0.244 HD
ENDBRANCH  33  35
ENDBRANCH  26  31
ENDBRANCH  24  26
ENDBRANCH  19  22
ENDBRANCH  15  16
ENDBRANCH  11  14
ENDBRANCH   7   8
ENDBRANCH   2   7
TORSDOF 10
ENDMDL
MODEL 7
REMARK VINA RESULT:      -4.2      2.455     12.532
REMARK  10 active torsions:
REMARK  status: ('A' for Active; 'I' for Inactive)
REMARK    1  A    between atoms: O_2  and  C_18 
REMARK    2  A    between atoms: O_5  and  N_8 
REMARK    3  A    between atoms: N_6  and  C_11 
REMARK    4  A    between atoms: N_7  and  C_15 
REMARK       I    between atoms: N_7  and  C_24 
REMARK       I    between atoms: N_8  and  C_23 
REMARK    5  A    between atoms: C_11  and  C_14 
REMARK    6  A    between atoms: C_15  and  C_18 
REMARK    7  A    between atoms: C_15  and  C_23 
REMARK    8  A    between atoms: C_21  and  C_26 
REMARK    9  A    between atoms: C_24  and  C_25 
REMARK   10  A    between atoms: C_29  and  C_32 
ROOT
HETATM    1  O   UNK     0       1.338  12.172  93.521  0.00  0.00    -0.388 OA
HETATM    2  N   UNK     0       2.633  12.521  91.010  0.00  0.00     0.096 N 
HETATM    3  C   UNK     0       2.440  11.187  91.596  0.00  0.00     0.299 C 
HETATM    4  C   UNK     0       2.736  13.528  92.075  0.00  0.00     0.299 C 
HETATM    5  C   UNK     0       1.204  11.189  92.492  0.00  0.00     0.198 C 
HETATM    6  C   UNK     0       1.494  13.476  92.960  0.00  0.00     0.198 C 
ENDROOT
BRANCH   2   7
HETATM    7  C   UNK     0       3.818  12.546  90.156  0.00  0.00     0.311 C 
BRANCH   7   8
HETATM    8  C   UNK     0       4.776  11.450  90.482  0.00  0.00    -0.030 A 
HETATM    9  C   UNK     0       5.403  11.421  91.728  0.00  0.00     0.010 A 
HETATM   10  C   UNK     0       6.301  10.398  92.033  0.00  0.00     0.021 A 
HETATM   11  C   UNK     0       6.569   9.404  91.093  0.00  0.00     0.018 A 
HETATM   12  C   UNK     0       5.943   9.432  89.849  0.00  0.00     0.021 A 
HETATM   13  C   UNK     0       5.046  10.455  89.542  0.00  0.00     0.010 A 
BRANCH  11  14
HETATM   14  C   UNK     0       7.488   8.353  91.407  0.00  0.00    -0.061 C 
HETATM   15  C   UNK     0       8.260   7.471  91.672  0.00  0.00    -0.061 C 
BRANCH  15  16
HETATM   16  C   UNK     0       9.179   6.422  91.985  0.00  0.00     0.018 A 
HETATM   17  C   UNK     0      10.131   6.607  92.988  0.00  0.00     0.022 A 
HETATM   18  C   UNK     0      11.027   5.583  93.296  0.00  0.00     0.018 A 
HETATM   19  C   UNK     0      10.951   4.398  92.594  0.00  0.00     0.032 A 
HETATM   20  C   UNK     0      10.021   4.191  91.598  0.00  0.00     0.018 A 
HETATM   21  C   UNK     0       9.125   5.215  91.290  0.00  0.00     0.022 A 
BRANCH  19  22
HETATM   22  C   UNK     0      11.907   3.308  92.921  0.00  0.00     0.252 C 
HETATM   23  O   UNK     0      11.555   2.140  92.782  0.00  0.00    -0.268 OA
HETATM   24  N   UNK     0      13.166   3.711  93.345  0.00  0.00    -0.341 N 
HETATM   25  H   UNK     0      13.394   4.696  93.412  0.00  0.00     0.163 HD
BRANCH  24  26
HETATM   26  C   UNK     0      14.209   2.773  93.676  0.00  0.00     0.207 C 
BRANCH  26  27
HETATM   27  C   UNK     0      14.403   1.697  92.600  0.00  0.00     0.146 C 
HETATM   28  C   UNK     0      15.451   2.089  91.564  0.00  0.00     0.042 C 
BRANCH  27  29
HETATM   29  O   UNK     0      14.795   0.471  93.216  0.00  0.00    -0.393 OA
HETATM   30  H   UNK     0      15.542   0.103  92.715  0.00  0.00     0.210 HD
ENDBRANCH  27  29
ENDBRANCH  26  27
BRANCH  26  31
HETATM   31  C   UNK     0      15.492   3.566  93.904  0.00  0.00     0.266 C 
HETATM   32  O   UNK     0      16.580   3.033  94.116  0.00  0.00    -0.269 OA
HETATM   33  N   UNK     0      15.275   4.922  93.883  0.00  0.00    -0.236 N 
HETATM   34  H   UNK     0      14.381   5.393  93.801  0.00  0.00     0.197 HD
BRANCH  33  35
HETATM   35  O   UNK     0      16.400   5.724  94.124  0.00  0.00    -0.287 OA
HETATM   36  H   UNK     0      16.160   6.108  94.984  0.00  0.00     0.244 HD
ENDBRANCH  33  35
ENDBRANCH  26  31
ENDBRANCH  24  26
ENDBRANCH  19  22
ENDBRANCH  15  16
ENDBRANCH  11  14
ENDBRANCH   7   8
ENDBRANCH   2   7
TORSDOF 10
ENDMDL
