MODEL 1
REMARK VINA RESULT:      -7.5      0.000      0.000
REMARK  9 active torsions:
REMARK  status: ('A' for Active; 'I' for Inactive)
REMARK    1  A    between atoms: N_3  and  C_6 
REMARK    2  A    between atoms: C_6  and  C_9 
REMARK    3  A    between atoms: C_14  and  C_17 
REMARK       I    between atoms: N_26  and  C_15 
REMARK    4  A    between atoms: C_15  and  C_16 
REMARK    5  A    between atoms: C_20  and  C_23 
REMARK    6  A    between atoms: OG1_24  and  CB_28 
REMARK    7  A    between atoms: N_26  and  CA_27 
REMARK    8  A    between atoms: CA_27  and  CB_28 
REMARK    9  A    between atoms: CA_27  and  C_30 
ROOT
HETATM    1  O   UNK A   0       2.014   8.027  87.786  1.00  0.00    -0.388 OA
HETATM    2  N   UNK A   0       4.813   7.526  87.660  1.00  0.00     0.096 N 
HETATM    3  C   UNK A   0       4.281   8.893  87.745  1.00  0.00     0.299 C 
HETATM    4  C   UNK A   0       3.844   6.649  86.988  1.00  0.00     0.299 C 
HETATM    5  C   UNK A   0       2.936   8.880  88.467  1.00  0.00     0.198 C 
HETATM    6  C   UNK A   0       2.510   6.689  87.726  1.00  0.00     0.198 C 
ENDROOT
BRANCH   2   7
HETATM    7  C   UNK A   0       6.097   7.513  86.962  1.00  0.00     0.311 C 
BRANCH   7   8
HETATM    8  C   UNK A   0       7.185   6.909  87.784  1.00  0.00    -0.030 A 
HETATM    9  C   UNK A   0       6.963   6.627  89.132  1.00  0.00     0.010 A 
HETATM   10  C   UNK A   0       7.981   6.064  89.903  1.00  0.00     0.021 A 
HETATM   11  C   UNK A   0       9.217   5.782  89.324  1.00  0.00     0.018 A 
HETATM   12  C   UNK A   0       9.439   6.063  87.977  1.00  0.00     0.021 A 
HETATM   13  C   UNK A   0       8.423   6.626  87.207  1.00  0.00     0.010 A 
BRANCH  11  14
HETATM   14  C   UNK A   0      10.260   5.202  90.114  1.00  0.00    -0.061 C 
HETATM   15  C   UNK A   0      11.136   4.714  90.777  1.00  0.00    -0.061 C 
BRANCH  15  16
HETATM   16  C   UNK A   0      12.178   4.135  91.566  1.00  0.00     0.018 A 
HETATM   17  C   UNK A   0      13.439   3.924  91.007  1.00  0.00     0.022 A 
HETATM   18  C   UNK A   0      14.457   3.361  91.778  1.00  0.00     0.018 A 
HETATM   19  C   UNK A   0      14.191   3.023  93.088  1.00  0.00     0.032 A 
HETATM   20  C   UNK A   0      12.953   3.220  93.663  1.00  0.00     0.018 A 
HETATM   21  C   UNK A   0      11.935   3.783  92.894  1.00  0.00     0.022 A 
BRANCH  19  22
HETATM   22  C   UNK A   0      15.275   2.421  93.908  1.00  0.00     0.252 C 
HETATM   23  O   UNK A   0      16.425   2.833  93.776  1.00  0.00    -0.268 OA
ENDBRANCH  19  22
ENDBRANCH  15  16
ENDBRANCH  11  14
ENDBRANCH   7   8
ENDBRANCH   2   7
TORSDOF 9
ENDMDL
