MODEL 1
REMARK VINA RESULT:      -6.9      0.000      0.000
REMARK  9 active torsions:
REMARK  status: ('A' for Active; 'I' for Inactive)
REMARK    1  A    between atoms: O_2  and  C_17 
REMARK    2  A    between atoms: N_5  and  C_10 
REMARK    3  A    between atoms: N_6  and  C_14 
REMARK       I    between atoms: N_6  and  C_23 
REMARK       I    between atoms: N_7  and  C_22 
REMARK    4  A    between atoms: C_10  and  C_13 
REMARK    5  A    between atoms: C_14  and  C_17 
REMARK    6  A    between atoms: C_14  and  C_22 
REMARK    7  A    between atoms: C_20  and  C_25 
REMARK    8  A    between atoms: C_23  and  C_24 
REMARK    9  A    between atoms: C_28  and  C_31 
ROOT
HETATM    1  O   UNL     1      16.132   4.102  94.065  1.00  0.00    -0.388 OA
HETATM    2  N   UNL     1      14.225   2.768  92.426  1.00  0.00     0.096 N 
HETATM    3  C   UNL     1      14.404   4.226  92.366  1.00  0.00     0.299 C 
HETATM    4  C   UNL     1      14.564   2.275  93.768  1.00  0.00     0.299 C 
HETATM    5  C   UNL     1      15.835   4.587  92.755  1.00  0.00     0.198 C 
HETATM    6  C   UNL     1      15.990   2.682  94.124  1.00  0.00     0.198 C 
ENDROOT
BRANCH   2   7
HETATM    7  C   UNL     1      12.857   2.400  92.067  1.00  0.00     0.311 C 
BRANCH   7   8
HETATM    8  C   UNL     1      11.918   3.555  92.145  1.00  0.00    -0.030 A 
HETATM    9  C   UNL     1      11.516   4.044  93.389  1.00  0.00     0.010 A 
HETATM   10  C   UNL     1      10.636   5.124  93.463  1.00  0.00     0.021 A 
HETATM   11  C   UNL     1      10.161   5.716  92.293  1.00  0.00     0.018 A 
HETATM   12  C   UNL     1      10.562   5.229  91.051  1.00  0.00     0.021 A 
HETATM   13  C   UNL     1      11.441   4.149  90.976  1.00  0.00     0.010 A 
BRANCH  11  14
HETATM   14  C   UNL     1       9.260   6.825  92.369  1.00  0.00    -0.061 C 
HETATM   15  C   UNL     1       8.503   7.756  92.433  1.00  0.00    -0.061 C 
BRANCH  15  16
HETATM   16  C   UNL     1       7.602   8.864  92.509  1.00  0.00     0.018 A 
HETATM   17  C   UNL     1       6.737   9.132  91.448  1.00  0.00     0.022 A 
HETATM   18  C   UNL     1       5.856  10.211  91.523  1.00  0.00     0.018 A 
HETATM   19  C   UNL     1       5.860  10.997  92.657  1.00  0.00     0.032 A 
HETATM   20  C   UNL     1       6.705  10.752  93.719  1.00  0.00     0.018 A 
HETATM   21  C   UNL     1       7.587   9.674  93.645  1.00  0.00     0.022 A 
BRANCH  19  22
HETATM   22  C   UNL     1       4.923  12.147  92.737  1.00  0.00     0.252 C 
HETATM   23  O   UNL     1       4.535  12.530  93.838  1.00  0.00    -0.268 OA
HETATM   24  N   UNL     1       4.570  12.728  91.527  1.00  0.00    -0.342 N 
HETATM   25  H   UNL     1       4.950  12.373  90.657  1.00  0.00     0.163 HD
BRANCH  24  26
HETATM   26  C   UNL     1       3.690  13.866  91.440  1.00  0.00     0.199 C 
BRANCH  26  27
HETATM   27  C   UNL     1       3.604  14.444  90.022  1.00  0.00     0.145 C 
HETATM   28  C   UNL     1       4.927  15.041  89.553  1.00  0.00     0.042 C 
BRANCH  27  29
HETATM   29  O   UNL     1       3.211  13.417  89.111  1.00  0.00    -0.393 OA
HETATM   30  H   UNL     1       3.802  12.655  89.238  1.00  0.00     0.210 HD
ENDBRANCH  27  29
ENDBRANCH  26  27
BRANCH  26  31
HETATM   31  C   UNL     1       2.318  13.434  91.947  1.00  0.00     0.220 C 
HETATM   32  O   UNL     1       1.707  12.471  91.486  1.00  0.00    -0.278 OA
HETATM   33  N   UNL     1       1.845  14.263  92.935  1.00  0.00    -0.271 NA
HETATM   34  H   UNL     1       2.280  15.112  93.274  1.00  0.00     0.127 HD
HETATM   35  H   UNL     1       0.803  15.201  92.861  1.00  0.00     0.127 HD
ENDBRANCH  26  31
ENDBRANCH  24  26
ENDBRANCH  19  22
ENDBRANCH  15  16
ENDBRANCH  11  14
ENDBRANCH   7   8
ENDBRANCH   2   7
TORSDOF 9
ENDMDL
