MODEL 1
REMARK VINA RESULT:      -6.9      0.000      0.000
REMARK  10 active torsions:
REMARK  status: ('A' for Active; 'I' for Inactive)
REMARK    1  A    between atoms: O_2  and  C_16 
REMARK    2  A    between atoms: N_5  and  C_9 
REMARK    3  A    between atoms: N_6  and  C_13 
REMARK       I    between atoms: N_6  and  C_22 
REMARK    4  A    between atoms: C_9  and  C_12 
REMARK    5  A    between atoms: C_13  and  C_16 
REMARK    6  A    between atoms: C_13  and  C_21 
REMARK    7  A    between atoms: C_19  and  C_24 
REMARK    8  A    between atoms: C_22  and  C_23 
REMARK    9  A    between atoms: C_27  and  C_30 
REMARK   10  A    between atoms: N_33  and  S_34 
ROOT
HETATM    1  C   UNL     1       5.772  11.024  89.605  1.00  0.00     0.056 A 
HETATM    2  C   UNL     1       7.133  11.211  89.494  1.00  0.00     0.005 A 
HETATM    3  C   UNL     1       5.224   9.821  89.998  1.00  0.00     0.005 A 
HETATM    4  C   UNL     1       7.457   8.920  90.189  1.00  0.00     0.042 A 
HETATM    5  C   UNL     1       7.987  10.147  89.788  1.00  0.00     0.008 A 
HETATM    6  C   UNL     1       6.075   8.757  90.294  1.00  0.00     0.008 A 
ENDROOT
BRANCH   1   7
HETATM    7  C   UNL     1       4.864  12.158  89.292  1.00  0.00     0.254 C 
HETATM    8  O   UNL     1       4.665  12.461  88.119  1.00  0.00    -0.268 OA
HETATM    9  N   UNL     1       4.277  12.785  90.383  1.00  0.00    -0.337 N 
HETATM   10  HN  UNL     1       4.468  12.462  91.324  1.00  0.00     0.164 HD
BRANCH   9  11
HETATM   11  C   UNL     1       3.355  13.883  90.242  1.00  0.00     0.172 C 
BRANCH  11  12
HETATM   12  C   UNL     1       2.013  13.625  90.938  1.00  0.00     0.136 C 
HETATM   13  C   UNL     1       2.094  12.499  91.963  1.00  0.00     0.034 C 
BRANCH  12  14
HETATM   14  O   UNL     1       1.577  14.816  91.592  1.00  0.00    -0.383 OA
HETATM   15  H   UNL     1       2.108  15.559  91.258  1.00  0.00     0.210 HD
ENDBRANCH  12  14
ENDBRANCH  11  12
BRANCH  11  16
HETATM   16  C   UNL     1       4.033  15.134  90.792  1.00  0.00     0.398 A 
HETATM   17  O   UNL     1       5.153  15.499  90.439  1.00  0.00    -0.136 OA
HETATM   18  N   UNL     1       5.014  15.606  91.949  1.00  0.00     0.142 N 
HETATM   19  HN  UNL     1       5.927  15.955  91.863  1.00  0.00     0.338 HD
BRANCH  18  20
HETATM   20  S   UNL     1       4.292  15.131  93.037  1.00  0.00     0.076 SA
HETATM   21  H   UNL     1       3.390  15.808  93.412  1.00  0.00     0.136 HD
ENDBRANCH  18  20
ENDBRANCH  11  16
ENDBRANCH   9  11
ENDBRANCH   1   7
BRANCH   4  22
HETATM   22  C   UNL     1       8.331   7.829  90.488  1.00  0.00    -0.059 C 
HETATM   23  C   UNL     1       9.066   6.912  90.739  1.00  0.00    -0.059 C 
BRANCH  23  24
HETATM   24  C   UNL     1       9.942   5.820  91.039  1.00  0.00     0.042 A 
HETATM   25  C   UNL     1      10.712   5.247  90.028  1.00  0.00     0.008 A 
HETATM   26  C   UNL     1      11.563   4.182  90.320  1.00  0.00    -0.002 A 
HETATM   27  C   UNL     1      11.646   3.692  91.624  1.00  0.00     0.011 A 
HETATM   28  C   UNL     1      10.875   4.267  92.634  1.00  0.00    -0.002 A 
HETATM   29  C   UNL     1      10.023   5.332  92.342  1.00  0.00     0.008 A 
BRANCH  27  30
HETATM   30  C   UNL     1      12.558   2.555  91.935  1.00  0.00     0.277 C 
BRANCH  30  31
HETATM   31  N   UNL     1      13.612   2.928  92.877  1.00  0.00     0.147 N 
HETATM   32  C   UNL     1      14.498   1.787  93.146  1.00  0.00     0.283 C 
HETATM   33  C   UNL     1      15.595   2.202  94.123  1.00  0.00     0.178 C 
HETATM   34  O   UNL     1      16.341   3.300  93.594  1.00  0.00    -0.350 OA
HETATM   35  C   UNL     1      15.492   4.424  93.360  1.00  0.00     0.178 C 
HETATM   36  C   UNL     1      14.393   4.063  92.366  1.00  0.00     0.283 C 
ENDBRANCH  30  31
ENDBRANCH  27  30
ENDBRANCH  23  24
ENDBRANCH   4  22
TORSDOF 10
ENDMDL
MODEL 2
REMARK VINA RESULT:      -6.5      1.401      2.105
REMARK  10 active torsions:
REMARK  status: ('A' for Active; 'I' for Inactive)
REMARK    1  A    between atoms: O_2  and  C_16 
REMARK    2  A    between atoms: N_5  and  C_9 
REMARK    3  A    between atoms: N_6  and  C_13 
REMARK       I    between atoms: N_6  and  C_22 
REMARK    4  A    between atoms: C_9  and  C_12 
REMARK    5  A    between atoms: C_13  and  C_16 
REMARK    6  A    between atoms: C_13  and  C_21 
REMARK    7  A    between atoms: C_19  and  C_24 
REMARK    8  A    between atoms: C_22  and  C_23 
REMARK    9  A    between atoms: C_27  and  C_30 
REMARK   10  A    between atoms: N_33  and  S_34 
ROOT
HETATM    1  C   UNL     1       5.435  10.348  90.768  1.00  0.00     0.056 A 
HETATM    2  C   UNL     1       5.146   9.071  90.335  1.00  0.00     0.005 A 
HETATM    3  C   UNL     1       6.641  10.672  91.354  1.00  0.00     0.005 A 
HETATM    4  C   UNL     1       7.332   8.373  91.087  1.00  0.00     0.042 A 
HETATM    5  C   UNL     1       6.105   8.071  90.496  1.00  0.00     0.008 A 
HETATM    6  C   UNL     1       7.601   9.673  91.516  1.00  0.00     0.008 A 
ENDROOT
BRANCH   1   7
HETATM    7  C   UNL     1       4.413  11.413  90.594  1.00  0.00     0.254 C 
HETATM    8  O   UNL     1       3.410  11.178  89.925  1.00  0.00    -0.268 OA
HETATM    9  N   UNL     1       4.672  12.614  91.240  1.00  0.00    -0.337 N 
HETATM   10  HN  UNL     1       5.511  12.728  91.796  1.00  0.00     0.164 HD
BRANCH   9  11
HETATM   11  C   UNL     1       3.766  13.734  91.187  1.00  0.00     0.172 C 
BRANCH  11  12
HETATM   12  C   UNL     1       3.780  14.445  89.827  1.00  0.00     0.136 C 
HETATM   13  C   UNL     1       5.192  14.764  89.350  1.00  0.00     0.034 C 
BRANCH  12  14
HETATM   14  O   UNL     1       3.135  13.625  88.853  1.00  0.00    -0.383 OA
HETATM   15  H   UNL     1       2.394  14.127  88.474  1.00  0.00     0.210 HD
ENDBRANCH  12  14
ENDBRANCH  11  12
BRANCH  11  16
HETATM   16  C   UNL     1       2.371  13.221  91.530  1.00  0.00     0.398 A 
HETATM   17  O   UNL     1       1.359  13.912  91.427  1.00  0.00    -0.136 OA
HETATM   18  N   UNL     1       1.341  13.140  92.736  1.00  0.00     0.142 N 
HETATM   19  HN  UNL     1       0.473  13.590  92.823  1.00  0.00     0.338 HD
BRANCH  18  20
HETATM   20  S   UNL     1       2.154  12.490  93.657  1.00  0.00     0.076 SA
HETATM   21  H   UNL     1       2.797  11.578  93.248  1.00  0.00     0.136 HD
ENDBRANCH  18  20
ENDBRANCH  11  16
ENDBRANCH   9  11
ENDBRANCH   1   7
BRANCH   4  22
HETATM   22  C   UNL     1       8.315   7.348  91.255  1.00  0.00    -0.059 C 
HETATM   23  C   UNL     1       9.141   6.486  91.397  1.00  0.00    -0.059 C 
BRANCH  23  24
HETATM   24  C   UNL     1      10.124   5.460  91.566  1.00  0.00     0.042 A 
HETATM   25  C   UNL     1      10.586   4.750  90.458  1.00  0.00     0.008 A 
HETATM   26  C   UNL     1      11.542   3.748  90.623  1.00  0.00    -0.002 A 
HETATM   27  C   UNL     1      12.037   3.458  91.895  1.00  0.00     0.011 A 
HETATM   28  C   UNL     1      11.573   4.170  93.002  1.00  0.00    -0.002 A 
HETATM   29  C   UNL     1      10.617   5.171  92.837  1.00  0.00     0.008 A 
BRANCH  27  30
HETATM   30  C   UNL     1      13.061   2.389  92.070  1.00  0.00     0.277 C 
BRANCH  30  31
HETATM   31  N   UNL     1      14.095   2.760  93.034  1.00  0.00     0.147 N 
HETATM   32  C   UNL     1      15.124   1.714  93.121  1.00  0.00     0.283 C 
HETATM   33  C   UNL     1      16.198   2.129  94.124  1.00  0.00     0.178 C 
HETATM   34  O   UNL     1      16.784   3.374  93.739  1.00  0.00    -0.350 OA
HETATM   35  C   UNL     1      15.795   4.403  93.682  1.00  0.00     0.178 C 
HETATM   36  C   UNL     1      14.712   4.043  92.670  1.00  0.00     0.283 C 
ENDBRANCH  30  31
ENDBRANCH  27  30
ENDBRANCH  23  24
ENDBRANCH   4  22
TORSDOF 10
ENDMDL
MODEL 3
REMARK VINA RESULT:      -6.1      1.559      1.837
REMARK  10 active torsions:
REMARK  status: ('A' for Active; 'I' for Inactive)
REMARK    1  A    between atoms: O_2  and  C_16 
REMARK    2  A    between atoms: N_5  and  C_9 
REMARK    3  A    between atoms: N_6  and  C_13 
REMARK       I    between atoms: N_6  and  C_22 
REMARK    4  A    between atoms: C_9  and  C_12 
REMARK    5  A    between atoms: C_13  and  C_16 
REMARK    6  A    between atoms: C_13  and  C_21 
REMARK    7  A    between atoms: C_19  and  C_24 
REMARK    8  A    between atoms: C_22  and  C_23 
REMARK    9  A    between atoms: C_27  and  C_30 
REMARK   10  A    between atoms: N_33  and  S_34 
ROOT
HETATM    1  C   UNL     1       5.308   9.405  89.930  1.00  0.00     0.056 A 
HETATM    2  C   UNL     1       5.154   8.083  89.571  1.00  0.00     0.005 A 
HETATM    3  C   UNL     1       6.445   9.870  90.557  1.00  0.00     0.005 A 
HETATM    4  C   UNL     1       7.343   7.628  90.484  1.00  0.00     0.042 A 
HETATM    5  C   UNL     1       6.182   7.183  89.851  1.00  0.00     0.008 A 
HETATM    6  C   UNL     1       7.475   8.971  90.837  1.00  0.00     0.008 A 
ENDROOT
BRANCH   1   7
HETATM    7  C   UNL     1       4.213  10.363  89.629  1.00  0.00     0.254 C 
HETATM    8  O   UNL     1       3.423  10.107  88.724  1.00  0.00    -0.268 OA
HETATM    9  N   UNL     1       4.154  11.492  90.435  1.00  0.00    -0.337 N 
HETATM   10  HN  UNL     1       4.827  11.625  91.181  1.00  0.00     0.164 HD
BRANCH   9  11
HETATM   11  C   UNL     1       3.136  12.501  90.284  1.00  0.00     0.172 C 
BRANCH  11  12
HETATM   12  C   UNL     1       2.188  12.572  91.487  1.00  0.00     0.136 C 
HETATM   13  C   UNL     1       2.830  12.050  92.768  1.00  0.00     0.034 C 
BRANCH  12  14
HETATM   14  O   UNL     1       1.778  13.924  91.692  1.00  0.00    -0.383 OA
HETATM   15  H   UNL     1       1.363  13.987  92.569  1.00  0.00     0.210 HD
ENDBRANCH  12  14
ENDBRANCH  11  12
BRANCH  11  16
HETATM   16  C   UNL     1       3.835  13.836  90.048  1.00  0.00     0.398 A 
HETATM   17  O   UNL     1       3.242  14.845  89.672  1.00  0.00    -0.136 OA
HETATM   18  N   UNL     1       4.544  14.680  88.904  1.00  0.00     0.142 N 
HETATM   19  HN  UNL     1       4.243  15.521  88.498  1.00  0.00     0.338 HD
BRANCH  18  20
HETATM   20  S   UNL     1       5.503  13.748  88.525  1.00  0.00     0.076 SA
HETATM   21  H   UNL     1       5.103  12.681  88.189  1.00  0.00     0.136 HD
ENDBRANCH  18  20
ENDBRANCH  11  16
ENDBRANCH   9  11
ENDBRANCH   1   7
BRANCH   4  22
HETATM   22  C   UNL     1       8.396   6.706  90.774  1.00  0.00    -0.059 C 
HETATM   23  C   UNL     1       9.281   5.930  91.018  1.00  0.00    -0.059 C 
BRANCH  23  24
HETATM   24  C   UNL     1      10.336   5.007  91.307  1.00  0.00     0.042 A 
HETATM   25  C   UNL     1      11.292   4.716  90.335  1.00  0.00     0.008 A 
HETATM   26  C   UNL     1      12.319   3.815  90.616  1.00  0.00    -0.002 A 
HETATM   27  C   UNL     1      12.390   3.207  91.870  1.00  0.00     0.011 A 
HETATM   28  C   UNL     1      11.432   3.500  92.841  1.00  0.00    -0.002 A 
HETATM   29  C   UNL     1      10.405   4.400  92.559  1.00  0.00     0.008 A 
BRANCH  27  30
HETATM   30  C   UNL     1      13.489   2.245  92.170  1.00  0.00     0.277 C 
BRANCH  30  31
HETATM   31  N   UNL     1      14.458   2.787  93.121  1.00  0.00     0.147 N 
HETATM   32  C   UNL     1      15.684   1.976  93.133  1.00  0.00     0.283 C 
HETATM   33  C   UNL     1      16.685   2.566  94.123  1.00  0.00     0.178 C 
HETATM   34  O   UNL     1      16.985   3.920  93.779  1.00  0.00    -0.350 OA
HETATM   35  C   UNL     1      15.803   4.722  93.795  1.00  0.00     0.178 C 
HETATM   36  C   UNL     1      14.782   4.184  92.798  1.00  0.00     0.283 C 
ENDBRANCH  30  31
ENDBRANCH  27  30
ENDBRANCH  23  24
ENDBRANCH   4  22
TORSDOF 10
ENDMDL
MODEL 4
REMARK VINA RESULT:      -5.4      3.642     12.395
REMARK  10 active torsions:
REMARK  status: ('A' for Active; 'I' for Inactive)
REMARK    1  A    between atoms: O_2  and  C_16 
REMARK    2  A    between atoms: N_5  and  C_9 
REMARK    3  A    between atoms: N_6  and  C_13 
REMARK       I    between atoms: N_6  and  C_22 
REMARK    4  A    between atoms: C_9  and  C_12 
REMARK    5  A    between atoms: C_13  and  C_16 
REMARK    6  A    between atoms: C_13  and  C_21 
REMARK    7  A    between atoms: C_19  and  C_24 
REMARK    8  A    between atoms: C_22  and  C_23 
REMARK    9  A    between atoms: C_27  and  C_30 
REMARK   10  A    between atoms: N_33  and  S_34 
ROOT
HETATM    1  C   UNL     1      10.176   5.636  89.958  1.00  0.00     0.056 A 
HETATM    2  C   UNL     1       9.379   5.796  91.072  1.00  0.00     0.005 A 
HETATM    3  C   UNL     1      10.074   6.459  88.856  1.00  0.00     0.005 A 
HETATM    4  C   UNL     1       8.313   7.669  89.982  1.00  0.00     0.042 A 
HETATM    5  C   UNL     1       8.436   6.823  91.084  1.00  0.00     0.008 A 
HETATM    6  C   UNL     1       9.132   7.487  88.867  1.00  0.00     0.008 A 
ENDROOT
BRANCH   1   7
HETATM    7  C   UNL     1      11.182   4.543  89.946  1.00  0.00     0.254 C 
HETATM    8  O   UNL     1      11.385   3.926  88.903  1.00  0.00    -0.268 OA
HETATM    9  N   UNL     1      11.847   4.315  91.142  1.00  0.00    -0.337 N 
HETATM   10  HN  UNL     1      11.645   4.882  91.958  1.00  0.00     0.164 HD
BRANCH   9  11
HETATM   11  C   UNL     1      12.867   3.307  91.283  1.00  0.00     0.172 C 
BRANCH  11  12
HETATM   12  C   UNL     1      14.283   3.863  91.087  1.00  0.00     0.136 C 
HETATM   13  C   UNL     1      15.145   2.966  90.206  1.00  0.00     0.034 C 
BRANCH  12  14
HETATM   14  O   UNL     1      14.209   5.160  90.497  1.00  0.00    -0.383 OA
HETATM   15  H   UNL     1      14.738   5.771  91.037  1.00  0.00     0.210 HD
ENDBRANCH  12  14
ENDBRANCH  11  12
BRANCH  11  16
HETATM   16  C   UNL     1      12.706   2.671  92.661  1.00  0.00     0.398 A 
HETATM   17  O   UNL     1      11.998   3.154  93.542  1.00  0.00    -0.136 OA
HETATM   18  N   UNL     1      13.329   2.703  94.122  1.00  0.00     0.142 N 
HETATM   19  HN  UNL     1      12.911   3.019  94.951  1.00  0.00     0.338 HD
BRANCH  18  20
HETATM   20  S   UNL     1      14.647   2.412  93.789  1.00  0.00     0.076 SA
HETATM   21  H   UNL     1      14.814   1.706  92.848  1.00  0.00     0.136 HD
ENDBRANCH  18  20
ENDBRANCH  11  16
ENDBRANCH   9  11
ENDBRANCH   1   7
BRANCH   4  22
HETATM   22  C   UNL     1       7.345   8.721  89.993  1.00  0.00    -0.059 C 
HETATM   23  C   UNL     1       6.530   9.605  90.002  1.00  0.00    -0.059 C 
BRANCH  23  24
HETATM   24  C   UNL     1       5.560  10.657  90.014  1.00  0.00     0.042 A 
HETATM   25  C   UNL     1       5.836  11.865  89.374  1.00  0.00     0.008 A 
HETATM   26  C   UNL     1       4.891  12.891  89.388  1.00  0.00    -0.002 A 
HETATM   27  C   UNL     1       3.671  12.708  90.039  1.00  0.00     0.011 A 
HETATM   28  C   UNL     1       3.397  11.498  90.677  1.00  0.00    -0.002 A 
HETATM   29  C   UNL     1       4.342  10.473  90.665  1.00  0.00     0.008 A 
BRANCH  27  30
HETATM   30  C   UNL     1       2.661  13.805  90.050  1.00  0.00     0.277 C 
BRANCH  30  31
HETATM   31  N   UNL     1       2.692  14.577  91.291  1.00  0.00     0.147 N 
HETATM   32  C   UNL     1       1.717  14.051  92.255  1.00  0.00     0.283 C 
HETATM   33  C   UNL     1       1.775  14.865  93.545  1.00  0.00     0.178 C 
HETATM   34  O   UNL     1       3.092  14.829  94.097  1.00  0.00    -0.350 OA
HETATM   35  C   UNL     1       4.042  15.368  93.177  1.00  0.00     0.178 C 
HETATM   36  C   UNL     1       4.038  14.567  91.879  1.00  0.00     0.283 C 
ENDBRANCH  30  31
ENDBRANCH  27  30
ENDBRANCH  23  24
ENDBRANCH   4  22
TORSDOF 10
ENDMDL
MODEL 5
REMARK VINA RESULT:      -5.4      3.686     12.450
REMARK  10 active torsions:
REMARK  status: ('A' for Active; 'I' for Inactive)
REMARK    1  A    between atoms: O_2  and  C_16 
REMARK    2  A    between atoms: N_5  and  C_9 
REMARK    3  A    between atoms: N_6  and  C_13 
REMARK       I    between atoms: N_6  and  C_22 
REMARK    4  A    between atoms: C_9  and  C_12 
REMARK    5  A    between atoms: C_13  and  C_16 
REMARK    6  A    between atoms: C_13  and  C_21 
REMARK    7  A    between atoms: C_19  and  C_24 
REMARK    8  A    between atoms: C_22  and  C_23 
REMARK    9  A    between atoms: C_27  and  C_30 
REMARK   10  A    between atoms: N_33  and  S_34 
ROOT
HETATM    1  C   UNL     1      10.141   5.688  90.096  1.00  0.00     0.056 A 
HETATM    2  C   UNL     1       9.735   6.205  88.884  1.00  0.00     0.005 A 
HETATM    3  C   UNL     1       9.647   6.152  91.297  1.00  0.00     0.005 A 
HETATM    4  C   UNL     1       8.278   7.721  90.072  1.00  0.00     0.042 A 
HETATM    5  C   UNL     1       8.792   7.233  88.871  1.00  0.00     0.008 A 
HETATM    6  C   UNL     1       8.704   7.181  91.285  1.00  0.00     0.008 A 
ENDROOT
BRANCH   1   7
HETATM    7  C   UNL     1      11.143   4.591  90.109  1.00  0.00     0.254 C 
HETATM    8  O   UNL     1      11.271   3.883  89.113  1.00  0.00    -0.268 OA
HETATM    9  N   UNL     1      11.893   4.467  91.271  1.00  0.00    -0.337 N 
HETATM   10  HN  UNL     1      11.750   5.105  92.045  1.00  0.00     0.164 HD
BRANCH   9  11
HETATM   11  C   UNL     1      12.920   3.468  91.427  1.00  0.00     0.172 C 
BRANCH  11  12
HETATM   12  C   UNL     1      14.322   4.003  91.107  1.00  0.00     0.136 C 
HETATM   13  C   UNL     1      15.153   3.014  90.298  1.00  0.00     0.034 C 
BRANCH  12  14
HETATM   14  O   UNL     1      14.211   5.223  90.375  1.00  0.00    -0.383 OA
HETATM   15  H   UNL     1      14.969   5.787  90.606  1.00  0.00     0.210 HD
ENDBRANCH  12  14
ENDBRANCH  11  12
BRANCH  11  16
HETATM   16  C   UNL     1      12.842   2.939  92.856  1.00  0.00     0.398 A 
HETATM   17  O   UNL     1      12.661   3.667  93.830  1.00  0.00    -0.136 OA
HETATM   18  N   UNL     1      13.754   2.651  94.124  1.00  0.00     0.142 N 
HETATM   19  HN  UNL     1      13.738   3.101  94.996  1.00  0.00     0.338 HD
BRANCH  18  20
HETATM   20  S   UNL     1      14.680   1.807  93.523  1.00  0.00     0.076 SA
HETATM   21  H   UNL     1      15.461   2.315  92.784  1.00  0.00     0.136 HD
ENDBRANCH  18  20
ENDBRANCH  11  16
ENDBRANCH   9  11
ENDBRANCH   1   7
BRANCH   4  22
HETATM   22  C   UNL     1       7.314   8.777  90.059  1.00  0.00    -0.059 C 
HETATM   23  C   UNL     1       6.504   9.665  90.048  1.00  0.00    -0.059 C 
BRANCH  23  24
HETATM   24  C   UNL     1       5.539  10.722  90.034  1.00  0.00     0.042 A 
HETATM   25  C   UNL     1       4.290  10.532  90.625  1.00  0.00     0.008 A 
HETATM   26  C   UNL     1       3.349  11.561  90.610  1.00  0.00    -0.002 A 
HETATM   27  C   UNL     1       3.659  12.781  90.005  1.00  0.00     0.011 A 
HETATM   28  C   UNL     1       4.909  12.969  89.415  1.00  0.00    -0.002 A 
HETATM   29  C   UNL     1       5.849  11.939  89.430  1.00  0.00     0.008 A 
BRANCH  27  30
HETATM   30  C   UNL     1       2.653  13.881  89.992  1.00  0.00     0.277 C 
BRANCH  30  31
HETATM   31  N   UNL     1       2.626  14.626  91.249  1.00  0.00     0.147 N 
HETATM   32  C   UNL     1       1.635  14.055  92.172  1.00  0.00     0.283 C 
HETATM   33  C   UNL     1       1.632  14.842  93.480  1.00  0.00     0.178 C 
HETATM   34  O   UNL     1       2.933  14.826  94.072  1.00  0.00    -0.350 OA
HETATM   35  C   UNL     1       3.897  15.408  93.193  1.00  0.00     0.178 C 
HETATM   36  C   UNL     1       3.953  14.637  91.879  1.00  0.00     0.283 C 
ENDBRANCH  30  31
ENDBRANCH  27  30
ENDBRANCH  23  24
ENDBRANCH   4  22
TORSDOF 10
ENDMDL
MODEL 6
REMARK VINA RESULT:      -5.3      3.626     12.567
REMARK  10 active torsions:
REMARK  status: ('A' for Active; 'I' for Inactive)
REMARK    1  A    between atoms: O_2  and  C_16 
REMARK    2  A    between atoms: N_5  and  C_9 
REMARK    3  A    between atoms: N_6  and  C_13 
REMARK       I    between atoms: N_6  and  C_22 
REMARK    4  A    between atoms: C_9  and  C_12 
REMARK    5  A    between atoms: C_13  and  C_16 
REMARK    6  A    between atoms: C_13  and  C_21 
REMARK    7  A    between atoms: C_19  and  C_24 
REMARK    8  A    between atoms: C_22  and  C_23 
REMARK    9  A    between atoms: C_27  and  C_30 
REMARK   10  A    between atoms: N_33  and  S_34 
ROOT
HETATM    1  C   UNL     1      10.320   5.091  92.107  1.00  0.00     0.056 A 
HETATM    2  C   UNL     1       9.606   5.645  93.148  1.00  0.00     0.005 A 
HETATM    3  C   UNL     1      10.187   5.530  90.807  1.00  0.00     0.005 A 
HETATM    4  C   UNL     1       8.563   7.147  91.570  1.00  0.00     0.042 A 
HETATM    5  C   UNL     1       8.716   6.685  92.878  1.00  0.00     0.008 A 
HETATM    6  C   UNL     1       9.297   6.570  90.535  1.00  0.00     0.008 A 
ENDROOT
BRANCH   1   7
HETATM    7  C   UNL     1      11.269   3.984  92.396  1.00  0.00     0.254 C 
HETATM    8  O   UNL     1      10.860   2.826  92.386  1.00  0.00    -0.268 OA
HETATM    9  N   UNL     1      12.584   4.358  92.638  1.00  0.00    -0.337 N 
HETATM   10  HN  UNL     1      12.853   5.334  92.605  1.00  0.00     0.164 HD
BRANCH   9  11
HETATM   11  C   UNL     1      13.625   3.400  92.909  1.00  0.00     0.172 C 
BRANCH  11  12
HETATM   12  C   UNL     1      14.153   2.722  91.639  1.00  0.00     0.136 C 
HETATM   13  C   UNL     1      14.092   3.636  90.420  1.00  0.00     0.034 C 
BRANCH  12  14
HETATM   14  O   UNL     1      15.505   2.313  91.844  1.00  0.00    -0.383 OA
HETATM   15  H   UNL     1      15.885   2.857  92.554  1.00  0.00     0.210 HD
ENDBRANCH  12  14
ENDBRANCH  11  12
BRANCH  11  16
HETATM   16  C   UNL     1      14.741   4.124  93.656  1.00  0.00     0.398 A 
HETATM   17  O   UNL     1      15.300   5.127  93.217  1.00  0.00    -0.136 OA
HETATM   18  N   UNL     1      16.323   4.160  93.791  1.00  0.00     0.142 N 
HETATM   19  HN  UNL     1      16.937   4.879  93.529  1.00  0.00     0.338 HD
BRANCH  18  20
HETATM   20  S   UNL     1      16.531   2.827  94.124  1.00  0.00     0.076 SA
HETATM   21  H   UNL     1      17.106   2.617  95.143  1.00  0.00     0.136 HD
ENDBRANCH  18  20
ENDBRANCH  11  16
ENDBRANCH   9  11
ENDBRANCH   1   7
BRANCH   4  22
HETATM   22  C   UNL     1       7.649   8.211  91.292  1.00  0.00    -0.059 C 
HETATM   23  C   UNL     1       6.880   9.105  91.059  1.00  0.00    -0.059 C 
BRANCH  23  24
HETATM   24  C   UNL     1       5.966  10.170  90.781  1.00  0.00     0.042 A 
HETATM   25  C   UNL     1       6.235  11.067  89.748  1.00  0.00     0.008 A 
HETATM   26  C   UNL     1       5.345  12.107  89.479  1.00  0.00    -0.002 A 
HETATM   27  C   UNL     1       4.185  12.247  90.241  1.00  0.00     0.011 A 
HETATM   28  C   UNL     1       3.917  11.348  91.274  1.00  0.00    -0.002 A 
HETATM   29  C   UNL     1       4.808  10.309  91.544  1.00  0.00     0.008 A 
BRANCH  27  30
HETATM   30  C   UNL     1       3.233  13.357  89.951  1.00  0.00     0.277 C 
BRANCH  30  31
HETATM   31  N   UNL     1       3.050  14.247  91.096  1.00  0.00     0.147 N 
HETATM   32  C   UNL     1       1.986  13.747  91.978  1.00  0.00     0.283 C 
HETATM   33  C   UNL     1       1.820  14.685  93.171  1.00  0.00     0.178 C 
HETATM   34  O   UNL     1       3.050  14.800  93.888  1.00  0.00    -0.350 OA
HETATM   35  C   UNL     1       4.082  15.315  93.046  1.00  0.00     0.178 C 
HETATM   36  C   UNL     1       4.302  14.393  91.851  1.00  0.00     0.283 C 
ENDBRANCH  30  31
ENDBRANCH  27  30
ENDBRANCH  23  24
ENDBRANCH   4  22
TORSDOF 10
ENDMDL
MODEL 7
REMARK VINA RESULT:      -5.3      3.584     12.581
REMARK  10 active torsions:
REMARK  status: ('A' for Active; 'I' for Inactive)
REMARK    1  A    between atoms: O_2  and  C_16 
REMARK    2  A    between atoms: N_5  and  C_9 
REMARK    3  A    between atoms: N_6  and  C_13 
REMARK       I    between atoms: N_6  and  C_22 
REMARK    4  A    between atoms: C_9  and  C_12 
REMARK    5  A    between atoms: C_13  and  C_16 
REMARK    6  A    between atoms: C_13  and  C_21 
REMARK    7  A    between atoms: C_19  and  C_24 
REMARK    8  A    between atoms: C_22  and  C_23 
REMARK    9  A    between atoms: C_27  and  C_30 
REMARK   10  A    between atoms: N_33  and  S_34 
ROOT
HETATM    1  C   UNL     1      10.345   5.175  92.147  1.00  0.00     0.056 A 
HETATM    2  C   UNL     1       9.805   5.231  90.879  1.00  0.00     0.005 A 
HETATM    3  C   UNL     1      10.052   6.113  93.114  1.00  0.00     0.005 A 
HETATM    4  C   UNL     1       8.621   7.235  91.523  1.00  0.00     0.042 A 
HETATM    5  C   UNL     1       8.933   6.272  90.563  1.00  0.00     0.008 A 
HETATM    6  C   UNL     1       9.180   7.156  92.799  1.00  0.00     0.008 A 
ENDROOT
BRANCH   1   7
HETATM    7  C   UNL     1      11.272   4.064  92.484  1.00  0.00     0.254 C 
HETATM    8  O   UNL     1      10.852   2.909  92.478  1.00  0.00    -0.268 OA
HETATM    9  N   UNL     1      12.582   4.428  92.762  1.00  0.00    -0.337 N 
HETATM   10  HN  UNL     1      12.863   5.401  92.723  1.00  0.00     0.164 HD
BRANCH   9  11
HETATM   11  C   UNL     1      13.604   3.464  93.082  1.00  0.00     0.172 C 
BRANCH  11  12
HETATM   12  C   UNL     1      14.072   2.667  91.858  1.00  0.00     0.136 C 
HETATM   13  C   UNL     1      14.131   3.518  90.594  1.00  0.00     0.034 C 
BRANCH  12  14
HETATM   14  O   UNL     1      15.366   2.121  92.110  1.00  0.00    -0.383 OA
HETATM   15  H   UNL     1      15.994   2.524  91.486  1.00  0.00     0.210 HD
ENDBRANCH  12  14
ENDBRANCH  11  12
BRANCH  11  16
HETATM   16  C   UNL     1      14.763   4.213  93.732  1.00  0.00     0.398 A 
HETATM   17  O   UNL     1      15.289   5.203  93.227  1.00  0.00    -0.136 OA
HETATM   18  N   UNL     1      16.351   4.256  93.762  1.00  0.00     0.142 N 
HETATM   19  HN  UNL     1      16.943   4.968  93.438  1.00  0.00     0.338 HD
BRANCH  18  20
HETATM   20  S   UNL     1      16.586   2.934  94.120  1.00  0.00     0.076 SA
HETATM   21  H   UNL     1      17.459   2.374  93.540  1.00  0.00     0.136 HD
ENDBRANCH  18  20
ENDBRANCH  11  16
ENDBRANCH   9  11
ENDBRANCH   1   7
BRANCH   4  22
HETATM   22  C   UNL     1       7.729   8.304  91.199  1.00  0.00    -0.059 C 
HETATM   23  C   UNL     1       6.979   9.203  90.925  1.00  0.00    -0.059 C 
BRANCH  23  24
HETATM   24  C   UNL     1       6.086  10.273  90.601  1.00  0.00     0.042 A 
HETATM   25  C   UNL     1       4.852  10.369  91.244  1.00  0.00     0.008 A 
HETATM   26  C   UNL     1       3.980  11.410  90.926  1.00  0.00    -0.002 A 
HETATM   27  C   UNL     1       4.345  12.357  89.967  1.00  0.00     0.011 A 
HETATM   28  C   UNL     1       5.580  12.259  89.326  1.00  0.00    -0.002 A 
HETATM   29  C   UNL     1       6.450  11.217  89.643  1.00  0.00     0.008 A 
BRANCH  27  30
HETATM   30  C   UNL     1       3.413  13.471  89.631  1.00  0.00     0.277 C 
BRANCH  30  31
HETATM   31  N   UNL     1       3.139  14.334  90.778  1.00  0.00     0.147 N 
HETATM   32  C   UNL     1       2.195  13.688  91.701  1.00  0.00     0.283 C 
HETATM   33  C   UNL     1       1.932  14.602  92.895  1.00  0.00     0.178 C 
HETATM   34  O   UNL     1       3.156  14.907  93.566  1.00  0.00    -0.350 OA
HETATM   35  C   UNL     1       4.068  15.562  92.685  1.00  0.00     0.178 C 
HETATM   36  C   UNL     1       4.381  14.673  91.486  1.00  0.00     0.283 C 
ENDBRANCH  30  31
ENDBRANCH  27  30
ENDBRANCH  23  24
ENDBRANCH   4  22
TORSDOF 10
ENDMDL
MODEL 8
REMARK VINA RESULT:      -5.2      3.813     12.651
REMARK  10 active torsions:
REMARK  status: ('A' for Active; 'I' for Inactive)
REMARK    1  A    between atoms: O_2  and  C_16 
REMARK    2  A    between atoms: N_5  and  C_9 
REMARK    3  A    between atoms: N_6  and  C_13 
REMARK       I    between atoms: N_6  and  C_22 
REMARK    4  A    between atoms: C_9  and  C_12 
REMARK    5  A    between atoms: C_13  and  C_16 
REMARK    6  A    between atoms: C_13  and  C_21 
REMARK    7  A    between atoms: C_19  and  C_24 
REMARK    8  A    between atoms: C_22  and  C_23 
REMARK    9  A    between atoms: C_27  and  C_30 
REMARK   10  A    between atoms: N_33  and  S_34 
ROOT
HETATM    1  C   UNL     1      10.515   4.874  92.994  1.00  0.00     0.056 A 
HETATM    2  C   UNL     1       9.687   4.981  91.896  1.00  0.00     0.005 A 
HETATM    3  C   UNL     1      10.399   5.707  94.088  1.00  0.00     0.005 A 
HETATM    4  C   UNL     1       8.562   6.821  92.983  1.00  0.00     0.042 A 
HETATM    5  C   UNL     1       8.700   5.966  91.890  1.00  0.00     0.008 A 
HETATM    6  C   UNL     1       9.412   6.692  94.082  1.00  0.00     0.008 A 
ENDROOT
BRANCH   1   7
HETATM    7  C   UNL     1      11.566   3.823  93.002  1.00  0.00     0.254 C 
HETATM    8  O   UNL     1      11.248   2.656  92.786  1.00  0.00    -0.268 OA
HETATM    9  N   UNL     1      12.862   4.261  93.235  1.00  0.00    -0.337 N 
HETATM   10  HN  UNL     1      13.052   5.246  93.381  1.00  0.00     0.164 HD
BRANCH   9  11
HETATM   11  C   UNL     1      13.992   3.367  93.249  1.00  0.00     0.172 C 
BRANCH  11  12
HETATM   12  C   UNL     1      14.312   2.794  91.862  1.00  0.00     0.136 C 
HETATM   13  C   UNL     1      13.984   3.770  90.737  1.00  0.00     0.034 C 
BRANCH  12  14
HETATM   14  O   UNL     1      15.697   2.457  91.794  1.00  0.00    -0.383 OA
HETATM   15  H   UNL     1      16.147   3.123  91.246  1.00  0.00     0.210 HD
ENDBRANCH  12  14
ENDBRANCH  11  12
BRANCH  11  16
HETATM   16  C   UNL     1      15.182   4.130  93.822  1.00  0.00     0.398 A 
HETATM   17  O   UNL     1      15.669   5.118  93.277  1.00  0.00    -0.136 OA
HETATM   18  N   UNL     1      16.768   4.184  93.758  1.00  0.00     0.142 N 
HETATM   19  HN  UNL     1      17.335   4.897  93.393  1.00  0.00     0.338 HD
BRANCH  18  20
HETATM   20  S   UNL     1      17.033   2.866  94.114  1.00  0.00     0.076 SA
HETATM   21  H   UNL     1      16.574   2.492  95.144  1.00  0.00     0.136 HD
ENDBRANCH  18  20
ENDBRANCH  11  16
ENDBRANCH   9  11
ENDBRANCH   1   7
BRANCH   4  22
HETATM   22  C   UNL     1       7.552   7.832  92.976  1.00  0.00    -0.059 C 
HETATM   23  C   UNL     1       6.702   8.683  92.970  1.00  0.00    -0.059 C 
BRANCH  23  24
HETATM   24  C   UNL     1       5.691   9.695  92.963  1.00  0.00     0.042 A 
HETATM   25  C   UNL     1       5.752  10.746  93.878  1.00  0.00     0.008 A 
HETATM   26  C   UNL     1       4.765  11.732  93.873  1.00  0.00    -0.002 A 
HETATM   27  C   UNL     1       3.720  11.668  92.951  1.00  0.00     0.011 A 
HETATM   28  C   UNL     1       3.661  10.617  92.036  1.00  0.00    -0.002 A 
HETATM   29  C   UNL     1       4.647   9.630  92.042  1.00  0.00     0.008 A 
BRANCH  27  30
HETATM   30  C   UNL     1       2.667  12.724  92.945  1.00  0.00     0.277 C 
BRANCH  30  31
HETATM   31  N   UNL     1       2.965  13.801  92.003  1.00  0.00     0.147 N 
HETATM   32  C   UNL     1       4.215  14.482  92.369  1.00  0.00     0.283 C 
HETATM   33  C   UNL     1       4.511  15.594  91.366  1.00  0.00     0.178 C 
HETATM   34  O   UNL     1       4.602  15.061  90.044  1.00  0.00    -0.350 OA
HETATM   35  C   UNL     1       3.379  14.425  89.669  1.00  0.00     0.178 C 
HETATM   36  C   UNL     1       3.056  13.285  90.630  1.00  0.00     0.283 C 
ENDBRANCH  30  31
ENDBRANCH  27  30
ENDBRANCH  23  24
ENDBRANCH   4  22
TORSDOF 10
ENDMDL
MODEL 9
REMARK VINA RESULT:      -5.1      3.739     12.581
REMARK  10 active torsions:
REMARK  status: ('A' for Active; 'I' for Inactive)
REMARK    1  A    between atoms: O_2  and  C_16 
REMARK    2  A    between atoms: N_5  and  C_9 
REMARK    3  A    between atoms: N_6  and  C_13 
REMARK       I    between atoms: N_6  and  C_22 
REMARK    4  A    between atoms: C_9  and  C_12 
REMARK    5  A    between atoms: C_13  and  C_16 
REMARK    6  A    between atoms: C_13  and  C_21 
REMARK    7  A    between atoms: C_19  and  C_24 
REMARK    8  A    between atoms: C_22  and  C_23 
REMARK    9  A    between atoms: C_27  and  C_30 
REMARK   10  A    between atoms: N_33  and  S_34 
ROOT
HETATM    1  C   UNL     1      10.545   4.699  92.801  1.00  0.00     0.056 A 
HETATM    2  C   UNL     1      10.640   5.827  93.589  1.00  0.00     0.005 A 
HETATM    3  C   UNL     1       9.497   4.498  91.928  1.00  0.00     0.005 A 
HETATM    4  C   UNL     1       8.570   6.616  92.626  1.00  0.00     0.042 A 
HETATM    5  C   UNL     1       9.641   6.797  93.502  1.00  0.00     0.008 A 
HETATM    6  C   UNL     1       8.497   5.467  91.840  1.00  0.00     0.008 A 
ENDROOT
BRANCH   1   7
HETATM    7  C   UNL     1      11.610   3.667  92.893  1.00  0.00     0.254 C 
HETATM    8  O   UNL     1      11.318   2.487  92.720  1.00  0.00    -0.268 OA
HETATM    9  N   UNL     1      12.891   4.137  93.151  1.00  0.00    -0.337 N 
HETATM   10  HN  UNL     1      13.061   5.130  93.258  1.00  0.00     0.164 HD
BRANCH   9  11
HETATM   11  C   UNL     1      14.032   3.263  93.245  1.00  0.00     0.172 C 
BRANCH  11  12
HETATM   12  C   UNL     1      14.431   2.658  91.893  1.00  0.00     0.136 C 
HETATM   13  C   UNL     1      14.189   3.616  90.732  1.00  0.00     0.034 C 
BRANCH  12  14
HETATM   14  O   UNL     1      15.812   2.300  91.918  1.00  0.00    -0.383 OA
HETATM   15  H   UNL     1      16.235   2.659  91.120  1.00  0.00     0.210 HD
ENDBRANCH  12  14
ENDBRANCH  11  12
BRANCH  11  16
HETATM   16  C   UNL     1      15.180   4.060  93.856  1.00  0.00     0.398 A 
HETATM   17  O   UNL     1      15.623   5.090  93.351  1.00  0.00    -0.136 OA
HETATM   18  N   UNL     1      16.762   4.193  93.806  1.00  0.00     0.142 N 
HETATM   19  HN  UNL     1      17.297   4.945  93.472  1.00  0.00     0.338 HD
BRANCH  18  20
HETATM   20  S   UNL     1      17.089   2.878  94.117  1.00  0.00     0.076 SA
HETATM   21  H   UNL     1      16.460   2.366  94.986  1.00  0.00     0.136 HD
ENDBRANCH  18  20
ENDBRANCH  11  16
ENDBRANCH   9  11
ENDBRANCH   1   7
BRANCH   4  22
HETATM   22  C   UNL     1       7.545   7.609  92.539  1.00  0.00    -0.059 C 
HETATM   23  C   UNL     1       6.683   8.444  92.466  1.00  0.00    -0.059 C 
BRANCH  23  24
HETATM   24  C   UNL     1       5.658   9.438  92.378  1.00  0.00     0.042 A 
HETATM   25  C   UNL     1       4.723   9.385  91.344  1.00  0.00     0.008 A 
HETATM   26  C   UNL     1       3.725  10.355  91.257  1.00  0.00    -0.002 A 
HETATM   27  C   UNL     1       3.661  11.377  92.205  1.00  0.00     0.011 A 
HETATM   28  C   UNL     1       4.596  11.428  93.239  1.00  0.00    -0.002 A 
HETATM   29  C   UNL     1       5.595  10.458  93.325  1.00  0.00     0.008 A 
BRANCH  27  30
HETATM   30  C   UNL     1       2.592  12.412  92.113  1.00  0.00     0.277 C 
BRANCH  30  31
HETATM   31  N   UNL     1       3.034  13.606  91.394  1.00  0.00     0.147 N 
HETATM   32  C   UNL     1       3.970  14.389  92.213  1.00  0.00     0.283 C 
HETATM   33  C   UNL     1       4.425  15.623  91.439  1.00  0.00     0.178 C 
HETATM   34  O   UNL     1       5.040  15.239  90.208  1.00  0.00    -0.350 OA
HETATM   35  C   UNL     1       4.127  14.504  89.393  1.00  0.00     0.178 C 
HETATM   36  C   UNL     1       3.663  13.244  90.117  1.00  0.00     0.283 C 
ENDBRANCH  30  31
ENDBRANCH  27  30
ENDBRANCH  23  24
ENDBRANCH   4  22
TORSDOF 10
ENDMDL
