MODEL 1
REMARK VINA RESULT:      -7.1      0.000      0.000
REMARK  10 active torsions:
REMARK  status: ('A' for Active; 'I' for Inactive)
REMARK    1  A    between atoms: O_2  and  C_18 
REMARK    2  A    between atoms: O_5  and  N_8 
REMARK    3  A    between atoms: N_6  and  C_11 
REMARK    4  A    between atoms: N_7  and  C_15 
REMARK       I    between atoms: N_7  and  C_24 
REMARK       I    between atoms: N_8  and  C_23 
REMARK    5  A    between atoms: C_11  and  C_14 
REMARK    6  A    between atoms: C_15  and  C_18 
REMARK    7  A    between atoms: C_15  and  C_23 
REMARK    8  A    between atoms: C_21  and  C_26 
REMARK    9  A    between atoms: C_24  and  C_25 
REMARK   10  A    between atoms: C_29  and  C_32 
ROOT
HETATM    1  O   UNK     0      16.767   4.358  94.106  0.00  0.00    -0.388 OA
HETATM    2  N   UNK     0      14.800   2.726  92.853  0.00  0.00     0.096 N 
HETATM    3  C   UNK     0      14.711   4.193  92.828  0.00  0.00     0.299 C 
HETATM    4  C   UNK     0      15.505   2.286  94.064  0.00  0.00     0.299 C 
HETATM    5  C   UNK     0      16.110   4.797  92.916  0.00  0.00     0.198 C 
HETATM    6  C   UNK     0      16.885   2.935  94.124  0.00  0.00     0.198 C 
ENDROOT
BRANCH   2   7
HETATM    7  C   UNK     0      13.469   2.126  92.780  0.00  0.00     0.311 C 
BRANCH   7   8
HETATM    8  C   UNK     0      12.415   3.121  92.431  0.00  0.00    -0.030 A 
HETATM    9  C   UNK     0      11.784   3.850  93.439  0.00  0.00     0.010 A 
HETATM   10  C   UNK     0      10.796   4.780  93.113  0.00  0.00     0.021 A 
HETATM   11  C   UNK     0      10.442   4.980  91.780  0.00  0.00     0.018 A 
HETATM   12  C   UNK     0      11.072   4.253  90.772  0.00  0.00     0.021 A 
HETATM   13  C   UNK     0      12.059   3.323  91.097  0.00  0.00     0.010 A 
BRANCH  11  14
HETATM   14  C   UNK     0       9.431   5.936  91.445  0.00  0.00    -0.061 C 
HETATM   15  C   UNK     0       8.580   6.738  91.164  0.00  0.00    -0.061 C 
BRANCH  15  16
HETATM   16  C   UNK     0       7.571   7.692  90.829  0.00  0.00     0.018 A 
HETATM   17  C   UNK     0       7.733   9.032  91.184  0.00  0.00     0.022 A 
HETATM   18  C   UNK     0       6.748   9.964  90.855  0.00  0.00     0.018 A 
HETATM   19  C   UNK     0       5.625   9.536  90.179  0.00  0.00     0.032 A 
HETATM   20  C   UNK     0       5.440   8.218  89.818  0.00  0.00     0.018 A 
HETATM   21  C   UNK     0       6.424   7.285  90.147  0.00  0.00     0.022 A 
BRANCH  19  22
HETATM   22  C   UNK     0       4.575  10.529  89.831  0.00  0.00     0.252 C 
HETATM   23  O   UNK     0       3.590  10.162  89.195  0.00  0.00    -0.268 OA
HETATM   24  N   UNK     0       4.788  11.823  90.286  0.00  0.00    -0.341 N 
HETATM   25  H   UNK     0       5.614  12.047  90.828  0.00  0.00     0.163 HD
BRANCH  24  26
HETATM   26  C   UNK     0       3.850  12.891  90.051  0.00  0.00     0.207 C 
BRANCH  26  27
HETATM   27  C   UNK     0       3.621  13.764  91.291  0.00  0.00     0.146 C 
HETATM   28  C   UNK     0       2.141  13.957  91.604  0.00  0.00     0.042 C 
BRANCH  27  29
HETATM   29  O   UNK     0       4.259  13.167  92.419  0.00  0.00    -0.393 OA
HETATM   30  H   UNK     0       5.065  13.673  92.617  0.00  0.00     0.210 HD
ENDBRANCH  27  29
ENDBRANCH  26  27
BRANCH  26  31
HETATM   31  C   UNK     0       4.371  13.718  88.880  0.00  0.00     0.266 C 
HETATM   32  O   UNK     0       4.667  14.907  88.979  0.00  0.00    -0.269 OA
HETATM   33  N   UNK     0       4.429  12.990  87.715  0.00  0.00    -0.236 N 
HETATM   34  H   UNK     0       4.109  12.039  87.578  0.00  0.00     0.197 HD
BRANCH  33  35
HETATM   35  O   UNK     0       4.862  13.689  86.580  0.00  0.00    -0.287 OA
HETATM   36  H   UNK     0       4.685  14.604  86.860  0.00  0.00     0.244 HD
ENDBRANCH  33  35
ENDBRANCH  26  31
ENDBRANCH  24  26
ENDBRANCH  19  22
ENDBRANCH  15  16
ENDBRANCH  11  14
ENDBRANCH   7   8
ENDBRANCH   2   7
TORSDOF 10
ENDMDL
MODEL 2
REMARK VINA RESULT:      -6.7      1.383      1.984
REMARK  10 active torsions:
REMARK  status: ('A' for Active; 'I' for Inactive)
REMARK    1  A    between atoms: O_2  and  C_18 
REMARK    2  A    between atoms: O_5  and  N_8 
REMARK    3  A    between atoms: N_6  and  C_11 
REMARK    4  A    between atoms: N_7  and  C_15 
REMARK       I    between atoms: N_7  and  C_24 
REMARK       I    between atoms: N_8  and  C_23 
REMARK    5  A    between atoms: C_11  and  C_14 
REMARK    6  A    between atoms: C_15  and  C_18 
REMARK    7  A    between atoms: C_15  and  C_23 
REMARK    8  A    between atoms: C_21  and  C_26 
REMARK    9  A    between atoms: C_24  and  C_25 
REMARK   10  A    between atoms: C_29  and  C_32 
ROOT
HETATM    1  O   UNK     0      16.695   3.445  93.786  0.00  0.00    -0.388 OA
HETATM    2  N   UNK     0      14.068   2.927  92.821  0.00  0.00     0.096 N 
HETATM    3  C   UNK     0      15.040   1.843  93.021  0.00  0.00     0.299 C 
HETATM    4  C   UNK     0      14.767   4.179  92.508  0.00  0.00     0.299 C 
HETATM    5  C   UNK     0      16.025   2.229  94.122  0.00  0.00     0.198 C 
HETATM    6  C   UNK     0      15.759   4.511  93.620  0.00  0.00     0.198 C 
ENDROOT
BRANCH   2   7
HETATM    7  C   UNK     0      13.120   2.583  91.763  0.00  0.00     0.311 C 
BRANCH   7   8
HETATM    8  C   UNK     0      12.001   3.563  91.661  0.00  0.00    -0.030 A 
HETATM    9  C   UNK     0      11.697   4.147  90.432  0.00  0.00     0.010 A 
HETATM   10  C   UNK     0      10.651   5.066  90.336  0.00  0.00     0.021 A 
HETATM   11  C   UNK     0       9.910   5.398  91.470  0.00  0.00     0.018 A 
HETATM   12  C   UNK     0      10.213   4.814  92.698  0.00  0.00     0.021 A 
HETATM   13  C   UNK     0      11.259   3.896  92.794  0.00  0.00     0.010 A 
BRANCH  11  14
HETATM   14  C   UNK     0       8.837   6.339  91.371  0.00  0.00    -0.061 C 
HETATM   15  C   UNK     0       7.935   7.129  91.289  0.00  0.00    -0.061 C 
BRANCH  15  16
HETATM   16  C   UNK     0       6.862   8.068  91.191  0.00  0.00     0.018 A 
HETATM   17  C   UNK     0       7.098   9.344  90.679  0.00  0.00     0.022 A 
HETATM   18  C   UNK     0       6.050  10.260  90.581  0.00  0.00     0.018 A 
HETATM   19  C   UNK     0       4.791   9.880  90.996  0.00  0.00     0.032 A 
HETATM   20  C   UNK     0       4.532   8.625  91.506  0.00  0.00     0.018 A 
HETATM   21  C   UNK     0       5.579   7.709  91.604  0.00  0.00     0.022 A 
BRANCH  19  22
HETATM   22  C   UNK     0       3.676  10.857  90.893  0.00  0.00     0.252 C 
HETATM   23  O   UNK     0       2.674  10.558  90.247  0.00  0.00    -0.268 OA
HETATM   24  N   UNK     0       3.851  12.053  91.574  0.00  0.00    -0.341 N 
HETATM   25  H   UNK     0       4.695  12.220  92.109  0.00  0.00     0.163 HD
BRANCH  24  26
HETATM   26  C   UNK     0       2.850  13.089  91.591  0.00  0.00     0.207 C 
BRANCH  26  27
HETATM   27  C   UNK     0       2.744  13.791  92.951  0.00  0.00     0.146 C 
HETATM   28  C   UNK     0       4.060  13.772  93.722  0.00  0.00     0.042 C 
BRANCH  27  29
HETATM   29  O   UNK     0       2.339  15.146  92.759  0.00  0.00    -0.393 OA
HETATM   30  H   UNK     0       1.711  15.174  92.017  0.00  0.00     0.210 HD
ENDBRANCH  27  29
ENDBRANCH  26  27
BRANCH  26  31
HETATM   31  C   UNK     0       3.187  14.080  90.481  0.00  0.00     0.266 C 
HETATM   32  O   UNK     0       2.354  14.495  89.678  0.00  0.00    -0.269 OA
HETATM   33  N   UNK     0       4.520  14.412  90.469  0.00  0.00    -0.236 N 
HETATM   34  H   UNK     0       5.248  14.022  91.056  0.00  0.00     0.197 HD
BRANCH  33  35
HETATM   35  O   UNK     0       4.921  15.291  89.452  0.00  0.00    -0.287 OA
HETATM   36  H   UNK     0       4.942  16.129  89.945  0.00  0.00     0.244 HD
ENDBRANCH  33  35
ENDBRANCH  26  31
ENDBRANCH  24  26
ENDBRANCH  19  22
ENDBRANCH  15  16
ENDBRANCH  11  14
ENDBRANCH   7   8
ENDBRANCH   2   7
TORSDOF 10
ENDMDL
MODEL 3
REMARK VINA RESULT:      -5.7      2.787     12.336
REMARK  10 active torsions:
REMARK  status: ('A' for Active; 'I' for Inactive)
REMARK    1  A    between atoms: O_2  and  C_18 
REMARK    2  A    between atoms: O_5  and  N_8 
REMARK    3  A    between atoms: N_6  and  C_11 
REMARK    4  A    between atoms: N_7  and  C_15 
REMARK       I    between atoms: N_7  and  C_24 
REMARK       I    between atoms: N_8  and  C_23 
REMARK    5  A    between atoms: C_11  and  C_14 
REMARK    6  A    between atoms: C_15  and  C_18 
REMARK    7  A    between atoms: C_15  and  C_23 
REMARK    8  A    between atoms: C_21  and  C_26 
REMARK    9  A    between atoms: C_24  and  C_25 
REMARK   10  A    between atoms: C_29  and  C_32 
ROOT
HETATM    1  O   UNK     0       2.921  14.679  93.916  0.00  0.00    -0.388 OA
HETATM    2  N   UNK     0       2.683  14.655  91.080  0.00  0.00     0.096 N 
HETATM    3  C   UNK     0       1.768  13.886  91.934  0.00  0.00     0.299 C 
HETATM    4  C   UNK     0       3.988  14.798  91.740  0.00  0.00     0.299 C 
HETATM    5  C   UNK     0       1.640  14.563  93.296  0.00  0.00     0.198 C 
HETATM    6  C   UNK     0       3.808  15.452  93.107  0.00  0.00     0.198 C 
ENDROOT
BRANCH   2   7
HETATM    7  C   UNK     0       2.830  14.019  89.772  0.00  0.00     0.311 C 
BRANCH   7   8
HETATM    8  C   UNK     0       3.833  12.916  89.787  0.00  0.00    -0.030 A 
HETATM    9  C   UNK     0       3.524  11.701  90.400  0.00  0.00     0.010 A 
HETATM   10  C   UNK     0       4.463  10.670  90.416  0.00  0.00     0.021 A 
HETATM   11  C   UNK     0       5.709  10.853  89.817  0.00  0.00     0.018 A 
HETATM   12  C   UNK     0       6.018  12.065  89.204  0.00  0.00     0.021 A 
HETATM   13  C   UNK     0       5.080  13.097  89.188  0.00  0.00     0.010 A 
BRANCH  11  14
HETATM   14  C   UNK     0       6.671   9.794  89.832  0.00  0.00    -0.061 C 
HETATM   15  C   UNK     0       7.479   8.904  89.843  0.00  0.00    -0.061 C 
BRANCH  15  16
HETATM   16  C   UNK     0       8.438   7.845  89.858  0.00  0.00     0.018 A 
HETATM   17  C   UNK     0       8.910   7.315  88.656  0.00  0.00     0.022 A 
HETATM   18  C   UNK     0       9.848   6.283  88.670  0.00  0.00     0.018 A 
HETATM   19  C   UNK     0      10.294   5.804  89.884  0.00  0.00     0.032 A 
HETATM   20  C   UNK     0       9.844   6.310  91.085  0.00  0.00     0.018 A 
HETATM   21  C   UNK     0       8.905   7.341  91.072  0.00  0.00     0.022 A 
BRANCH  19  22
HETATM   22  C   UNK     0      11.292   4.704  89.898  0.00  0.00     0.252 C 
HETATM   23  O   UNK     0      11.489   4.059  88.871  0.00  0.00    -0.268 OA
HETATM   24  N   UNK     0      11.959   4.503  91.099  0.00  0.00    -0.341 N 
HETATM   25  H   UNK     0      11.762   5.091  91.899  0.00  0.00     0.163 HD
BRANCH  24  26
HETATM   26  C   UNK     0      12.971   3.491  91.264  0.00  0.00     0.207 C 
BRANCH  26  27
HETATM   27  C   UNK     0      14.177   3.984  92.073  0.00  0.00     0.146 C 
HETATM   28  C   UNK     0      13.885   4.060  93.568  0.00  0.00     0.042 C 
BRANCH  27  29
HETATM   29  O   UNK     0      15.285   3.110  91.861  0.00  0.00    -0.393 OA
HETATM   30  H   UNK     0      15.590   3.221  90.945  0.00  0.00     0.210 HD
ENDBRANCH  27  29
ENDBRANCH  26  27
BRANCH  26  31
HETATM   31  C   UNK     0      12.318   2.281  91.924  0.00  0.00     0.266 C 
HETATM   32  O   UNK     0      12.894   1.205  92.069  0.00  0.00    -0.269 OA
HETATM   33  N   UNK     0      11.018   2.530  92.292  0.00  0.00    -0.236 N 
HETATM   34  H   UNK     0      10.486   3.372  92.108  0.00  0.00     0.197 HD
BRANCH  33  35
HETATM   35  O   UNK     0      10.332   1.454  92.873  0.00  0.00    -0.287 OA
HETATM   36  H   UNK     0       9.435   1.826  92.925  0.00  0.00     0.244 HD
ENDBRANCH  33  35
ENDBRANCH  26  31
ENDBRANCH  24  26
ENDBRANCH  19  22
ENDBRANCH  15  16
ENDBRANCH  11  14
ENDBRANCH   7   8
ENDBRANCH   2   7
TORSDOF 10
ENDMDL
MODEL 4
REMARK VINA RESULT:      -5.1      1.846     12.474
REMARK  10 active torsions:
REMARK  status: ('A' for Active; 'I' for Inactive)
REMARK    1  A    between atoms: O_2  and  C_18 
REMARK    2  A    between atoms: O_5  and  N_8 
REMARK    3  A    between atoms: N_6  and  C_11 
REMARK    4  A    between atoms: N_7  and  C_15 
REMARK       I    between atoms: N_7  and  C_24 
REMARK       I    between atoms: N_8  and  C_23 
REMARK    5  A    between atoms: C_11  and  C_14 
REMARK    6  A    between atoms: C_15  and  C_18 
REMARK    7  A    between atoms: C_15  and  C_23 
REMARK    8  A    between atoms: C_21  and  C_26 
REMARK    9  A    between atoms: C_24  and  C_25 
REMARK   10  A    between atoms: C_29  and  C_32 
ROOT
HETATM    1  O   UNK     0       5.678  14.507  88.455  0.00  0.00    -0.388 OA
HETATM    2  N   UNK     0       3.710  13.159  90.008  0.00  0.00     0.096 N 
HETATM    3  C   UNK     0       4.523  14.244  90.574  0.00  0.00     0.299 C 
HETATM    4  C   UNK     0       4.458  12.469  88.949  0.00  0.00     0.299 C 
HETATM    5  C   UNK     0       4.946  15.205  89.465  0.00  0.00     0.198 C 
HETATM    6  C   UNK     0       4.884  13.470  87.879  0.00  0.00     0.198 C 
ENDROOT
BRANCH   2   7
HETATM    7  C   UNK     0       3.301  12.220  91.052  0.00  0.00     0.311 C 
BRANCH   7   8
HETATM    8  C   UNK     0       4.339  11.184  91.321  0.00  0.00    -0.030 A 
HETATM    9  C   UNK     0       5.439  11.491  92.122  0.00  0.00     0.010 A 
HETATM   10  C   UNK     0       6.411  10.523  92.373  0.00  0.00     0.021 A 
HETATM   11  C   UNK     0       6.281   9.247  91.824  0.00  0.00     0.018 A 
HETATM   12  C   UNK     0       5.183   8.939  91.024  0.00  0.00     0.021 A 
HETATM   13  C   UNK     0       4.211   9.908  90.772  0.00  0.00     0.010 A 
BRANCH  11  14
HETATM   14  C   UNK     0       7.277   8.254  92.083  0.00  0.00    -0.061 C 
HETATM   15  C   UNK     0       8.114   7.418  92.300  0.00  0.00    -0.061 C 
BRANCH  15  16
HETATM   16  C   UNK     0       9.108   6.425  92.558  0.00  0.00     0.018 A 
HETATM   17  C   UNK     0       9.492   6.148  93.871  0.00  0.00     0.022 A 
HETATM   18  C   UNK     0      10.461   5.177  94.124  0.00  0.00     0.018 A 
HETATM   19  C   UNK     0      11.024   4.504  93.060  0.00  0.00     0.032 A 
HETATM   20  C   UNK     0      10.662   4.759  91.754  0.00  0.00     0.018 A 
HETATM   21  C   UNK     0       9.694   5.730  91.500  0.00  0.00     0.022 A 
BRANCH  19  22
HETATM   22  C   UNK     0      12.057   3.471  93.330  0.00  0.00     0.252 C 
HETATM   23  O   UNK     0      11.776   2.286  93.170  0.00  0.00    -0.268 OA
HETATM   24  N   UNK     0      13.299   3.943  93.729  0.00  0.00    -0.341 N 
HETATM   25  H   UNK     0      13.466   4.939  93.815  0.00  0.00     0.163 HD
BRANCH  24  26
HETATM   26  C   UNK     0      14.410   3.068  94.004  0.00  0.00     0.207 C 
BRANCH  26  27
HETATM   27  C   UNK     0      14.434   1.834  93.092  0.00  0.00     0.146 C 
HETATM   28  C   UNK     0      15.166   2.091  91.780  0.00  0.00     0.042 C 
BRANCH  27  29
HETATM   29  O   UNK     0      15.067   0.751  93.772  0.00  0.00    -0.393 OA
HETATM   30  H   UNK     0      15.610   1.117  94.490  0.00  0.00     0.210 HD
ENDBRANCH  27  29
ENDBRANCH  26  27
BRANCH  26  31
HETATM   31  C   UNK     0      15.692   3.884  93.865  0.00  0.00     0.266 C 
HETATM   32  O   UNK     0      15.696   5.080  93.582  0.00  0.00    -0.269 OA
HETATM   33  N   UNK     0      16.817   3.119  94.056  0.00  0.00    -0.236 N 
HETATM   34  H   UNK     0      16.852   2.117  94.202  0.00  0.00     0.197 HD
BRANCH  33  35
HETATM   35  O   UNK     0      18.041   3.787  93.908  0.00  0.00    -0.287 OA
HETATM   36  H   UNK     0      18.352   3.398  93.073  0.00  0.00     0.244 HD
ENDBRANCH  33  35
ENDBRANCH  26  31
ENDBRANCH  24  26
ENDBRANCH  19  22
ENDBRANCH  15  16
ENDBRANCH  11  14
ENDBRANCH   7   8
ENDBRANCH   2   7
TORSDOF 10
ENDMDL
MODEL 5
REMARK VINA RESULT:      -5.1      1.389      1.938
REMARK  10 active torsions:
REMARK  status: ('A' for Active; 'I' for Inactive)
REMARK    1  A    between atoms: O_2  and  C_18 
REMARK    2  A    between atoms: O_5  and  N_8 
REMARK    3  A    between atoms: N_6  and  C_11 
REMARK    4  A    between atoms: N_7  and  C_15 
REMARK       I    between atoms: N_7  and  C_24 
REMARK       I    between atoms: N_8  and  C_23 
REMARK    5  A    between atoms: C_11  and  C_14 
REMARK    6  A    between atoms: C_15  and  C_18 
REMARK    7  A    between atoms: C_15  and  C_23 
REMARK    8  A    between atoms: C_21  and  C_26 
REMARK    9  A    between atoms: C_24  and  C_25 
REMARK   10  A    between atoms: C_29  and  C_32 
ROOT
HETATM    1  O   UNK     0      16.526   4.393  93.391  0.00  0.00    -0.388 OA
HETATM    2  N   UNK     0      14.246   2.717  93.080  0.00  0.00     0.096 N 
HETATM    3  C   UNK     0      14.186   4.157  92.791  0.00  0.00     0.299 C 
HETATM    4  C   UNK     0      15.260   2.452  94.109  0.00  0.00     0.299 C 
HETATM    5  C   UNK     0      15.565   4.657  92.367  0.00  0.00     0.198 C 
HETATM    6  C   UNK     0      16.613   2.993  93.656  0.00  0.00     0.198 C 
ENDROOT
BRANCH   2   7
HETATM    7  C   UNK     0      12.938   2.218  93.498  0.00  0.00     0.311 C 
BRANCH   7   8
HETATM    8  C   UNK     0      11.845   3.196  93.231  0.00  0.00    -0.030 A 
HETATM    9  C   UNK     0      11.057   3.066  92.087  0.00  0.00     0.010 A 
HETATM   10  C   UNK     0      10.036   3.981  91.835  0.00  0.00     0.021 A 
HETATM   11  C   UNK     0       9.801   5.026  92.729  0.00  0.00     0.018 A 
HETATM   12  C   UNK     0      10.587   5.157  93.872  0.00  0.00     0.021 A 
HETATM   13  C   UNK     0      11.609   4.242  94.124  0.00  0.00     0.010 A 
BRANCH  11  14
HETATM   14  C   UNK     0       8.752   5.964  92.471  0.00  0.00    -0.061 C 
HETATM   15  C   UNK     0       7.871   6.752  92.255  0.00  0.00    -0.061 C 
BRANCH  15  16
HETATM   16  C   UNK     0       6.823   7.690  91.999  0.00  0.00     0.018 A 
HETATM   17  C   UNK     0       5.509   7.244  91.854  0.00  0.00     0.022 A 
HETATM   18  C   UNK     0       4.486   8.159  91.606  0.00  0.00     0.018 A 
HETATM   19  C   UNK     0       4.799   9.499  91.509  0.00  0.00     0.032 A 
HETATM   20  C   UNK     0       6.089   9.965  91.648  0.00  0.00     0.018 A 
HETATM   21  C   UNK     0       7.113   9.050  91.895  0.00  0.00     0.022 A 
BRANCH  19  22
HETATM   22  C   UNK     0       3.709  10.473  91.243  0.00  0.00     0.252 C 
HETATM   23  O   UNK     0       2.709  10.103  90.632  0.00  0.00    -0.268 OA
HETATM   24  N   UNK     0       3.902  11.753  91.743  0.00  0.00    -0.341 N 
HETATM   25  H   UNK     0       4.743  11.980  92.261  0.00  0.00     0.163 HD
BRANCH  24  26
HETATM   26  C   UNK     0       2.926  12.802  91.588  0.00  0.00     0.207 C 
BRANCH  26  27
HETATM   27  C   UNK     0       2.742  13.635  92.863  0.00  0.00     0.146 C 
HETATM   28  C   UNK     0       3.154  12.876  94.120  0.00  0.00     0.042 C 
BRANCH  27  29
HETATM   29  O   UNK     0       3.516  14.830  92.768  0.00  0.00    -0.393 OA
HETATM   30  H   UNK     0       4.026  14.929  93.590  0.00  0.00     0.210 HD
ENDBRANCH  27  29
ENDBRANCH  26  27
BRANCH  26  31
HETATM   31  C   UNK     0       3.362  13.673  90.414  0.00  0.00     0.266 C 
HETATM   32  O   UNK     0       2.567  14.293  89.709  0.00  0.00    -0.269 OA
HETATM   33  N   UNK     0       4.722  13.648  90.225  0.00  0.00    -0.236 N 
HETATM   34  H   UNK     0       5.394  13.080  90.729  0.00  0.00     0.197 HD
BRANCH  33  35
HETATM   35  O   UNK     0       5.202  14.395  89.140  0.00  0.00    -0.287 OA
HETATM   36  H   UNK     0       4.883  15.280  89.384  0.00  0.00     0.244 HD
ENDBRANCH  33  35
ENDBRANCH  26  31
ENDBRANCH  24  26
ENDBRANCH  19  22
ENDBRANCH  15  16
ENDBRANCH  11  14
ENDBRANCH   7   8
ENDBRANCH   2   7
TORSDOF 10
ENDMDL
MODEL 6
REMARK VINA RESULT:      -4.9      1.461      2.240
REMARK  10 active torsions:
REMARK  status: ('A' for Active; 'I' for Inactive)
REMARK    1  A    between atoms: O_2  and  C_18 
REMARK    2  A    between atoms: O_5  and  N_8 
REMARK    3  A    between atoms: N_6  and  C_11 
REMARK    4  A    between atoms: N_7  and  C_15 
REMARK       I    between atoms: N_7  and  C_24 
REMARK       I    between atoms: N_8  and  C_23 
REMARK    5  A    between atoms: C_11  and  C_14 
REMARK    6  A    between atoms: C_15  and  C_18 
REMARK    7  A    between atoms: C_15  and  C_23 
REMARK    8  A    between atoms: C_21  and  C_26 
REMARK    9  A    between atoms: C_24  and  C_25 
REMARK   10  A    between atoms: C_29  and  C_32 
ROOT
HETATM    1  O   UNK     0      16.653   4.055  92.899  0.00  0.00    -0.388 OA
HETATM    2  N   UNK     0      14.404   2.559  93.798  0.00  0.00     0.096 N 
HETATM    3  C   UNK     0      15.108   2.216  92.554  0.00  0.00     0.299 C 
HETATM    4  C   UNK     0      14.525   3.999  94.064  0.00  0.00     0.299 C 
HETATM    5  C   UNK     0      16.568   2.651  92.649  0.00  0.00     0.198 C 
HETATM    6  C   UNK     0      15.998   4.393  94.122  0.00  0.00     0.198 C 
ENDROOT
BRANCH   2   7
HETATM    7  C   UNK     0      13.000   2.161  93.725  0.00  0.00     0.311 C 
BRANCH   7   8
HETATM    8  C   UNK     0      12.122   3.262  93.236  0.00  0.00    -0.030 A 
HETATM    9  C   UNK     0      11.701   4.260  94.116  0.00  0.00     0.010 A 
HETATM   10  C   UNK     0      10.878   5.290  93.660  0.00  0.00     0.021 A 
HETATM   11  C   UNK     0      10.477   5.321  92.324  0.00  0.00     0.018 A 
HETATM   12  C   UNK     0      10.896   4.324  91.445  0.00  0.00     0.021 A 
HETATM   13  C   UNK     0      11.719   3.294  91.901  0.00  0.00     0.010 A 
BRANCH  11  14
HETATM   14  C   UNK     0       9.634   6.378  91.856  0.00  0.00    -0.061 C 
HETATM   15  C   UNK     0       8.926   7.266  91.463  0.00  0.00    -0.061 C 
BRANCH  15  16
HETATM   16  C   UNK     0       8.085   8.323  90.997  0.00  0.00     0.018 A 
HETATM   17  C   UNK     0       6.718   8.303  91.282  0.00  0.00     0.022 A 
HETATM   18  C   UNK     0       5.897   9.335  90.829  0.00  0.00     0.018 A 
HETATM   19  C   UNK     0       6.458  10.364  90.102  0.00  0.00     0.032 A 
HETATM   20  C   UNK     0       7.805  10.407  89.806  0.00  0.00     0.018 A 
HETATM   21  C   UNK     0       8.627   9.374  90.258  0.00  0.00     0.022 A 
BRANCH  19  22
HETATM   22  C   UNK     0       5.582  11.462  89.617  0.00  0.00     0.252 C 
HETATM   23  O   UNK     0       5.255  11.490  88.434  0.00  0.00    -0.268 OA
HETATM   24  N   UNK     0       5.173  12.380  90.575  0.00  0.00    -0.341 N 
HETATM   25  H   UNK     0       5.464  12.278  91.540  0.00  0.00     0.163 HD
BRANCH  24  26
HETATM   26  C   UNK     0       4.303  13.486  90.266  0.00  0.00     0.207 C 
BRANCH  26  27
HETATM   27  C   UNK     0       2.823  13.085  90.226  0.00  0.00     0.146 C 
HETATM   28  C   UNK     0       2.553  11.777  90.962  0.00  0.00     0.042 C 
BRANCH  27  29
HETATM   29  O   UNK     0       2.032  14.118  90.812  0.00  0.00    -0.393 OA
HETATM   30  H   UNK     0       1.224  14.222  90.281  0.00  0.00     0.210 HD
ENDBRANCH  27  29
ENDBRANCH  26  27
BRANCH  26  31
HETATM   31  C   UNK     0       4.554  14.578  91.301  0.00  0.00     0.266 C 
HETATM   32  O   UNK     0       5.146  15.624  91.041  0.00  0.00    -0.269 OA
HETATM   33  N   UNK     0       4.077  14.236  92.543  0.00  0.00    -0.236 N 
HETATM   34  H   UNK     0       3.666  13.350  92.811  0.00  0.00     0.197 HD
BRANCH  33  35
HETATM   35  O   UNK     0       4.302  15.172  93.562  0.00  0.00    -0.287 OA
HETATM   36  H   UNK     0       5.032  15.682  93.172  0.00  0.00     0.244 HD
ENDBRANCH  33  35
ENDBRANCH  26  31
ENDBRANCH  24  26
ENDBRANCH  19  22
ENDBRANCH  15  16
ENDBRANCH  11  14
ENDBRANCH   7   8
ENDBRANCH   2   7
TORSDOF 10
ENDMDL
