MODEL 1
REMARK VINA RESULT:      -5.2      0.000      0.000
REMARK  14 active torsions:
REMARK  status: ('A' for Active; 'I' for Inactive)
REMARK    1  A    between atoms: O_2  and  C_18 
REMARK    2  A    between atoms: C_5  and  C_8 
REMARK    3  A    between atoms: C_5  and  O_35 
REMARK    4  A    between atoms: C_5  and  C_36 
REMARK    5  A    between atoms: N_6  and  C_11 
REMARK    6  A    between atoms: N_7  and  C_15 
REMARK       I    between atoms: N_7  and  C_24 
REMARK    7  A    between atoms: C_8  and  C_23 
REMARK    8  A    between atoms: C_11  and  C_14 
REMARK    9  A    between atoms: C_15  and  C_18 
REMARK   10  A    between atoms: C_15  and  C_23 
REMARK   11  A    between atoms: C_21  and  C_26 
REMARK   12  A    between atoms: C_24  and  C_25 
REMARK   13  A    between atoms: C_29  and  C_32 
REMARK   14  A    between atoms: C_36  and  O_39 
ROOT
HETATM    1  O   UNL     1       2.489  14.607  93.808  1.00  0.00    -0.350 OA
HETATM    2  N   UNL     1       2.588  14.617  90.963  1.00  0.00     0.147 N 
HETATM    3  C   UNL     1       1.460  14.020  91.690  1.00  0.00     0.283 C 
HETATM    4  C   UNL     1       3.811  14.534  91.775  1.00  0.00     0.283 C 
HETATM    5  C   UNL     1       1.289  14.713  93.040  1.00  0.00     0.178 C 
HETATM    6  C   UNL     1       3.585  15.213  93.122  1.00  0.00     0.178 C 
ENDROOT
BRANCH   2   7
HETATM    7  C   UNL     1       2.777  13.961  89.671  1.00  0.00     0.277 C 
BRANCH   7   8
HETATM    8  C   UNL     1       3.769  12.850  89.737  1.00  0.00     0.011 A 
HETATM    9  C   UNL     1       4.962  12.939  89.019  1.00  0.00    -0.002 A 
HETATM   10  C   UNL     1       5.890  11.899  89.078  1.00  0.00     0.008 A 
HETATM   11  C   UNL     1       5.625  10.773  89.857  1.00  0.00     0.042 A 
HETATM   12  C   UNL     1       4.434  10.684  90.574  1.00  0.00     0.008 A 
HETATM   13  C   UNL     1       3.505  11.723  90.515  1.00  0.00    -0.002 A 
BRANCH  11  14
HETATM   14  C   UNL     1       6.578   9.707  89.919  1.00  0.00    -0.059 C 
HETATM   15  C   UNL     1       7.378   8.811  89.972  1.00  0.00    -0.059 C 
BRANCH  15  16
HETATM   16  C   UNL     1       8.330   7.746  90.033  1.00  0.00     0.042 A 
HETATM   17  C   UNL     1       8.854   7.351  91.264  1.00  0.00     0.008 A 
HETATM   18  C   UNL     1       9.781   6.310  91.324  1.00  0.00     0.005 A 
HETATM   19  C   UNL     1      10.161   5.688  90.154  1.00  0.00     0.056 A 
HETATM   20  C   UNL     1       9.658   6.060  88.925  1.00  0.00     0.005 A 
HETATM   21  C   UNL     1       8.731   7.101  88.864  1.00  0.00     0.008 A 
BRANCH  19  22
HETATM   22  C   UNL     1      11.150   4.581  90.218  1.00  0.00     0.254 C 
HETATM   23  O   UNL     1      11.243   3.804  89.271  1.00  0.00    -0.268 OA
HETATM   24  N   UNL     1      11.928   4.526  91.366  1.00  0.00    -0.335 N 
HETATM   25  HN  UNL     1      11.813   5.218  92.097  1.00  0.00     0.164 HD
BRANCH  24  26
HETATM   26  C   UNL     1      12.946   3.527  91.566  1.00  0.00     0.169 C 
BRANCH  26  27
HETATM   27  C   UNL     1      14.309   3.945  90.999  1.00  0.00     0.138 C 
HETATM   28  C   UNL     1      14.791   3.014  89.892  1.00  0.00     0.034 C 
BRANCH  27  29
HETATM   29  O   UNL     1      14.223   5.273  90.483  1.00  0.00    -0.383 OA
HETATM   30  H   UNL     1      14.851   5.354  89.745  1.00  0.00     0.210 HD
ENDBRANCH  27  29
ENDBRANCH  26  27
BRANCH  26  31
HETATM   31  C   UNL     1      13.033   3.243  93.062  1.00  0.00     0.194 C 
HETATM   32  O   UNL     1      12.188   2.587  93.669  1.00  0.00    -0.289 OA
BRANCH  31  33
HETATM   33  C   UNL     1      14.130   3.833  93.640  1.00  0.00     0.053 C 
BRANCH  33  34
HETATM   34  C   UNL     1      15.112   2.955  94.123  1.00  0.00     0.220 C 
BRANCH  34  35
HETATM   35  O   UNL     1      14.984   1.873  93.519  1.00  0.00    -0.371 OA
HETATM   36  H   UNL     1      14.708   1.344  94.252  1.00  0.00     0.211 HD
ENDBRANCH  34  35
BRANCH  34  37
HETATM   37  C   UNL     1      16.417   3.468  94.028  1.00  0.00     0.185 C 
HETATM   38  O   UNL     1      15.781   4.603  93.779  1.00  0.00    -0.647 OA
BRANCH  37  39
HETATM   39  O   UNL     1      17.531   3.042  94.096  1.00  0.00    -0.774 OA
HETATM   40  H   UNL     1      17.637   2.058  93.541  1.00  0.00     0.167 HD
ENDBRANCH  37  39
ENDBRANCH  34  37
ENDBRANCH  33  34
ENDBRANCH  31  33
ENDBRANCH  26  31
ENDBRANCH  24  26
ENDBRANCH  19  22
ENDBRANCH  15  16
ENDBRANCH  11  14
ENDBRANCH   7   8
ENDBRANCH   2   7
TORSDOF 14
ENDMDL
