MODEL 1
REMARK VINA RESULT:      -6.7      0.000      0.000
REMARK  11 active torsions:
REMARK  status: ('A' for Active; 'I' for Inactive)
REMARK    1  A    between atoms: O_2  and  C_18 
REMARK    2  A    between atoms: O_5  and  P_8 
REMARK    3  A    between atoms: N_6  and  C_11 
REMARK    4  A    between atoms: N_7  and  C_15 
REMARK       I    between atoms: N_7  and  C_24 
REMARK    5  A    between atoms: P_8  and  C_23 
REMARK    6  A    between atoms: C_11  and  C_14 
REMARK    7  A    between atoms: C_15  and  C_18 
REMARK    8  A    between atoms: C_15  and  C_23 
REMARK    9  A    between atoms: C_21  and  C_26 
REMARK   10  A    between atoms: C_24  and  C_25 
REMARK   11  A    between atoms: C_29  and  C_32 
ROOT
HETATM    1  O   UNL     1      15.838   3.855  94.121  1.00  0.00     0.000 OA
HETATM    2  N   UNL     1      14.060   2.582  92.299  1.00  0.00     0.000 N 
HETATM    3  C   UNL     1      14.099   4.044  92.439  1.00  0.00     0.000 C 
HETATM    4  C   UNL     1      14.451   1.945  93.564  1.00  0.00     0.000 C 
HETATM    5  C   UNL     1      15.491   4.484  92.886  1.00  0.00     0.000 C 
HETATM    6  C   UNL     1      15.833   2.433  93.985  1.00  0.00     0.000 C 
ENDROOT
BRANCH   2   7
HETATM    7  C   UNL     1      12.731   2.137  91.882  1.00  0.00     0.000 C 
BRANCH   7   8
HETATM    8  C   UNL     1      11.808   3.277  91.616  1.00  0.00     0.000 A 
HETATM    9  C   UNL     1      10.903   3.684  92.596  1.00  0.00     0.000 A 
HETATM   10  C   UNL     1      10.037   4.749  92.347  1.00  0.00     0.000 A 
HETATM   11  C   UNL     1      10.079   5.408  91.119  1.00  0.00     0.000 A 
HETATM   12  C   UNL     1      10.984   5.003  90.139  1.00  0.00     0.000 A 
HETATM   13  C   UNL     1      11.849   3.937  90.387  1.00  0.00     0.000 A 
BRANCH  11  14
HETATM   14  C   UNL     1       9.193   6.502  90.864  1.00  0.00     0.000 C 
HETATM   15  C   UNL     1       8.448   7.421  90.650  1.00  0.00     0.000 C 
BRANCH  15  16
HETATM   16  C   UNL     1       7.562   8.514  90.395  1.00  0.00     0.000 A 
HETATM   17  C   UNL     1       7.498   9.582  91.290  1.00  0.00     0.000 A 
HETATM   18  C   UNL     1       6.636  10.649  91.040  1.00  0.00     0.000 A 
HETATM   19  C   UNL     1       5.858  10.625  89.901  1.00  0.00     0.000 A 
HETATM   20  C   UNL     1       5.904   9.581  89.001  1.00  0.00     0.000 A 
HETATM   21  C   UNL     1       6.765   8.513  89.250  1.00  0.00     0.000 A 
BRANCH  19  22
HETATM   22  C   UNL     1       4.938  11.761  89.635  1.00  0.00     0.000 C 
HETATM   23  O   UNL     1       4.599  12.000  88.479  1.00  0.00     0.000 OA
HETATM   24  N   UNL     1       4.506  12.466  90.750  1.00  0.00     0.000 N 
HETATM   25  HN  UNL     1       4.809  12.195  91.678  1.00  0.00     0.000 HD
BRANCH  24  26
HETATM   26  C   UNL     1       3.593  13.577  90.658  1.00  0.00     0.000 C 
BRANCH  26  27
HETATM   27  C   UNL     1       2.316  13.366  91.481  1.00  0.00     0.000 C 
HETATM   28  C   UNL     1       2.454  12.234  92.493  1.00  0.00     0.000 C 
BRANCH  27  29
HETATM   29  O   UNL     1       1.990  14.570  92.174  1.00  0.00     0.000 OA
HETATM   30  H   UNL     1       2.360  15.318  91.676  1.00  0.00     0.000 HD
ENDBRANCH  27  29
ENDBRANCH  26  27
BRANCH  26  31
HETATM   31  C   UNL     1       4.339  14.831  91.105  1.00  0.00     0.000 C 
HETATM   32  O   UNL     1       4.493  15.133  92.287  1.00  0.00     0.000 OA
BRANCH  31  33
HETATM   33  P   UNL     1       4.773  15.583  90.041  1.00  0.00     0.000 P 
HETATM   34  H   UNL     1       3.681  16.241  89.513  1.00  0.00     0.000 HD
BRANCH  33  35
HETATM   35  O   UNL     1       5.390  14.871  89.001  1.00  0.00     0.000 OA
HETATM   36  H   UNL     1       6.250  15.323  88.967  1.00  0.00     0.000 HD
ENDBRANCH  33  35
ENDBRANCH  31  33
ENDBRANCH  26  31
ENDBRANCH  24  26
ENDBRANCH  19  22
ENDBRANCH  15  16
ENDBRANCH  11  14
ENDBRANCH   7   8
ENDBRANCH   2   7
TORSDOF 11
ENDMDL
MODEL 2
REMARK VINA RESULT:      -6.5      1.643      2.677
REMARK  11 active torsions:
REMARK  status: ('A' for Active; 'I' for Inactive)
REMARK    1  A    between atoms: O_2  and  C_18 
REMARK    2  A    between atoms: O_5  and  P_8 
REMARK    3  A    between atoms: N_6  and  C_11 
REMARK    4  A    between atoms: N_7  and  C_15 
REMARK       I    between atoms: N_7  and  C_24 
REMARK    5  A    between atoms: P_8  and  C_23 
REMARK    6  A    between atoms: C_11  and  C_14 
REMARK    7  A    between atoms: C_15  and  C_18 
REMARK    8  A    between atoms: C_15  and  C_23 
REMARK    9  A    between atoms: C_21  and  C_26 
REMARK   10  A    between atoms: C_24  and  C_25 
REMARK   11  A    between atoms: C_29  and  C_32 
ROOT
HETATM    1  O   UNL     1      16.380   3.969  94.124  1.00  0.00     0.000 OA
HETATM    2  N   UNL     1      14.379   2.731  92.523  1.00  0.00     0.000 N 
HETATM    3  C   UNL     1      14.490   4.193  92.617  1.00  0.00     0.000 C 
HETATM    4  C   UNL     1      14.868   2.108  93.761  1.00  0.00     0.000 C 
HETATM    5  C   UNL     1      15.937   4.583  92.912  1.00  0.00     0.000 C 
HETATM    6  C   UNL     1      16.304   2.547  94.029  1.00  0.00     0.000 C 
ENDROOT
BRANCH   2   7
HETATM    7  C   UNL     1      12.998   2.333  92.252  1.00  0.00     0.000 C 
BRANCH   7   8
HETATM    8  C   UNL     1      12.054   3.485  92.311  1.00  0.00     0.000 A 
HETATM    9  C   UNL     1      11.509   4.001  91.135  1.00  0.00     0.000 A 
HETATM   10  C   UNL     1      10.627   5.080  91.189  1.00  0.00     0.000 A 
HETATM   11  C   UNL     1      10.289   5.641  92.420  1.00  0.00     0.000 A 
HETATM   12  C   UNL     1      10.832   5.127  93.595  1.00  0.00     0.000 A 
HETATM   13  C   UNL     1      11.714   4.049  93.542  1.00  0.00     0.000 A 
BRANCH  11  14
HETATM   14  C   UNL     1       9.382   6.747  92.475  1.00  0.00     0.000 C 
HETATM   15  C   UNL     1       8.620   7.676  92.521  1.00  0.00     0.000 C 
BRANCH  15  16
HETATM   16  C   UNL     1       7.713   8.780  92.577  1.00  0.00     0.000 A 
HETATM   17  C   UNL     1       7.377   9.343  93.808  1.00  0.00     0.000 A 
HETATM   18  C   UNL     1       6.495  10.422  93.862  1.00  0.00     0.000 A 
HETATM   19  C   UNL     1       5.969  10.913  92.685  1.00  0.00     0.000 A 
HETATM   20  C   UNL     1       6.286  10.374  91.456  1.00  0.00     0.000 A 
HETATM   21  C   UNL     1       7.168   9.295  91.401  1.00  0.00     0.000 A 
BRANCH  19  22
HETATM   22  C   UNL     1       5.028  12.062  92.744  1.00  0.00     0.000 C 
HETATM   23  O   UNL     1       4.738  12.545  93.835  1.00  0.00     0.000 OA
HETATM   24  N   UNL     1       4.557  12.524  91.523  1.00  0.00     0.000 N 
HETATM   25  HN  UNL     1       4.860  12.090  90.659  1.00  0.00     0.000 HD
BRANCH  24  26
HETATM   26  C   UNL     1       3.657  13.644  91.413  1.00  0.00     0.000 C 
BRANCH  26  27
HETATM   27  C   UNL     1       3.645  14.260  90.008  1.00  0.00     0.000 C 
HETATM   28  C   UNL     1       4.931  15.015  89.690  1.00  0.00     0.000 C 
BRANCH  27  29
HETATM   29  O   UNL     1       3.460  13.230  89.037  1.00  0.00     0.000 OA
HETATM   30  H   UNL     1       4.299  13.105  88.562  1.00  0.00     0.000 HD
ENDBRANCH  27  29
ENDBRANCH  26  27
BRANCH  26  31
HETATM   31  C   UNL     1       2.267  13.167  91.821  1.00  0.00     0.000 C 
HETATM   32  O   UNL     1       1.779  12.111  91.426  1.00  0.00     0.000 OA
BRANCH  31  33
HETATM   33  P   UNL     1       1.629  14.068  92.638  1.00  0.00     0.000 P 
HETATM   34  H   UNL     1       1.008  15.003  91.835  1.00  0.00     0.000 HD
BRANCH  33  35
HETATM   35  O   UNL     1       2.448  14.758  93.544  1.00  0.00     0.000 OA
HETATM   36  H   UNL     1       2.995  14.026  93.876  1.00  0.00     0.000 HD
ENDBRANCH  33  35
ENDBRANCH  31  33
ENDBRANCH  26  31
ENDBRANCH  24  26
ENDBRANCH  19  22
ENDBRANCH  15  16
ENDBRANCH  11  14
ENDBRANCH   7   8
ENDBRANCH   2   7
TORSDOF 11
ENDMDL
MODEL 3
REMARK VINA RESULT:      -6.0      1.507      2.115
REMARK  11 active torsions:
REMARK  status: ('A' for Active; 'I' for Inactive)
REMARK    1  A    between atoms: O_2  and  C_18 
REMARK    2  A    between atoms: O_5  and  P_8 
REMARK    3  A    between atoms: N_6  and  C_11 
REMARK    4  A    between atoms: N_7  and  C_15 
REMARK       I    between atoms: N_7  and  C_24 
REMARK    5  A    between atoms: P_8  and  C_23 
REMARK    6  A    between atoms: C_11  and  C_14 
REMARK    7  A    between atoms: C_15  and  C_18 
REMARK    8  A    between atoms: C_15  and  C_23 
REMARK    9  A    between atoms: C_21  and  C_26 
REMARK   10  A    between atoms: C_24  and  C_25 
REMARK   11  A    between atoms: C_29  and  C_32 
ROOT
HETATM    1  O   UNL     1      16.508   3.110  93.835  1.00  0.00     0.000 OA
HETATM    2  N   UNL     1      13.912   3.003  92.673  1.00  0.00     0.000 N 
HETATM    3  C   UNL     1      14.679   1.781  92.952  1.00  0.00     0.000 C 
HETATM    4  C   UNL     1      14.827   4.122  92.410  1.00  0.00     0.000 C 
HETATM    5  C   UNL     1      15.628   2.022  94.124  1.00  0.00     0.000 C 
HETATM    6  C   UNL     1      15.771   4.309  93.592  1.00  0.00     0.000 C 
ENDROOT
BRANCH   2   7
HETATM    7  C   UNL     1      13.004   2.797  91.546  1.00  0.00     0.000 C 
BRANCH   7   8
HETATM    8  C   UNL     1      11.886   3.784  91.531  1.00  0.00     0.000 A 
HETATM    9  C   UNL     1      11.508   4.389  90.331  1.00  0.00     0.000 A 
HETATM   10  C   UNL     1      10.465   5.314  90.315  1.00  0.00     0.000 A 
HETATM   11  C   UNL     1       9.798   5.632  91.498  1.00  0.00     0.000 A 
HETATM   12  C   UNL     1      10.174   5.028  92.696  1.00  0.00     0.000 A 
HETATM   13  C   UNL     1      11.219   4.104  92.713  1.00  0.00     0.000 A 
BRANCH  11  14
HETATM   14  C   UNL     1       8.726   6.580  91.482  1.00  0.00     0.000 C 
HETATM   15  C   UNL     1       7.825   7.376  91.467  1.00  0.00     0.000 C 
BRANCH  15  16
HETATM   16  C   UNL     1       6.753   8.322  91.450  1.00  0.00     0.000 A 
HETATM   17  C   UNL     1       5.439   7.888  91.628  1.00  0.00     0.000 A 
HETATM   18  C   UNL     1       4.394   8.812  91.614  1.00  0.00     0.000 A 
HETATM   19  C   UNL     1       4.686  10.146  91.423  1.00  0.00     0.000 A 
HETATM   20  C   UNL     1       5.976  10.599  91.244  1.00  0.00     0.000 A 
HETATM   21  C   UNL     1       7.022   9.677  91.257  1.00  0.00     0.000 A 
BRANCH  19  22
HETATM   22  C   UNL     1       3.571  11.129  91.406  1.00  0.00     0.000 C 
HETATM   23  O   UNL     1       2.439  10.747  91.121  1.00  0.00     0.000 OA
HETATM   24  N   UNL     1       3.905  12.432  91.747  1.00  0.00     0.000 N 
HETATM   25  HN  UNL     1       4.859  12.669  91.996  1.00  0.00     0.000 HD
BRANCH  24  26
HETATM   26  C   UNL     1       2.932  13.494  91.800  1.00  0.00     0.000 C 
BRANCH  26  27
HETATM   27  C   UNL     1       3.104  14.395  93.030  1.00  0.00     0.000 C 
HETATM   28  C   UNL     1       1.775  14.933  93.549  1.00  0.00     0.000 C 
BRANCH  27  29
HETATM   29  O   UNL     1       3.747  13.663  94.072  1.00  0.00     0.000 OA
HETATM   30  H   UNL     1       4.700  13.855  94.036  1.00  0.00     0.000 HD
ENDBRANCH  27  29
ENDBRANCH  26  27
BRANCH  26  31
HETATM   31  C   UNL     1       3.044  14.293  90.506  1.00  0.00     0.000 C 
HETATM   32  O   UNL     1       2.099  14.456  89.736  1.00  0.00     0.000 OA
BRANCH  31  33
HETATM   33  P   UNL     1       4.317  14.765  90.296  1.00  0.00     0.000 P 
HETATM   34  H   UNL     1       4.230  16.118  90.039  1.00  0.00     0.000 HD
BRANCH  33  35
HETATM   35  O   UNL     1       5.021  14.171  89.239  1.00  0.00     0.000 OA
HETATM   36  H   UNL     1       4.887  14.838  88.544  1.00  0.00     0.000 HD
ENDBRANCH  33  35
ENDBRANCH  31  33
ENDBRANCH  26  31
ENDBRANCH  24  26
ENDBRANCH  19  22
ENDBRANCH  15  16
ENDBRANCH  11  14
ENDBRANCH   7   8
ENDBRANCH   2   7
TORSDOF 11
ENDMDL
MODEL 4
REMARK VINA RESULT:      -4.5      3.688     12.551
REMARK  11 active torsions:
REMARK  status: ('A' for Active; 'I' for Inactive)
REMARK    1  A    between atoms: O_2  and  C_18 
REMARK    2  A    between atoms: O_5  and  P_8 
REMARK    3  A    between atoms: N_6  and  C_11 
REMARK    4  A    between atoms: N_7  and  C_15 
REMARK       I    between atoms: N_7  and  C_24 
REMARK    5  A    between atoms: P_8  and  C_23 
REMARK    6  A    between atoms: C_11  and  C_14 
REMARK    7  A    between atoms: C_15  and  C_18 
REMARK    8  A    between atoms: C_15  and  C_23 
REMARK    9  A    between atoms: C_21  and  C_26 
REMARK   10  A    between atoms: C_24  and  C_25 
REMARK   11  A    between atoms: C_29  and  C_32 
ROOT
HETATM    1  O   UNL     1       4.561  14.821  89.711  1.00  0.00     0.000 OA
HETATM    2  N   UNL     1       3.204  13.819  92.003  1.00  0.00     0.000 N 
HETATM    3  C   UNL     1       4.437  14.608  92.125  1.00  0.00     0.000 C 
HETATM    4  C   UNL     1       3.195  13.092  90.726  1.00  0.00     0.000 C 
HETATM    5  C   UNL     1       4.564  15.557  90.936  1.00  0.00     0.000 C 
HETATM    6  C   UNL     1       3.351  14.075  89.570  1.00  0.00     0.000 C 
ENDROOT
BRANCH   2   7
HETATM    7  C   UNL     1       3.067  12.895  93.127  1.00  0.00     0.000 C 
BRANCH   7   8
HETATM    8  C   UNL     1       4.093  11.814  93.102  1.00  0.00     0.000 A 
HETATM    9  C   UNL     1       4.047  10.832  92.111  1.00  0.00     0.000 A 
HETATM   10  C   UNL     1       5.005   9.819  92.088  1.00  0.00     0.000 A 
HETATM   11  C   UNL     1       6.011   9.789  93.054  1.00  0.00     0.000 A 
HETATM   12  C   UNL     1       6.058  10.769  94.043  1.00  0.00     0.000 A 
HETATM   13  C   UNL     1       5.100  11.782  94.067  1.00  0.00     0.000 A 
BRANCH  11  14
HETATM   14  C   UNL     1       6.995   8.751  93.028  1.00  0.00     0.000 C 
HETATM   15  C   UNL     1       7.822   7.879  93.007  1.00  0.00     0.000 C 
BRANCH  15  16
HETATM   16  C   UNL     1       8.805   6.841  92.982  1.00  0.00     0.000 A 
HETATM   17  C   UNL     1       9.836   6.835  93.922  1.00  0.00     0.000 A 
HETATM   18  C   UNL     1      10.793   5.820  93.898  1.00  0.00     0.000 A 
HETATM   19  C   UNL     1      10.698   4.836  92.937  1.00  0.00     0.000 A 
HETATM   20  C   UNL     1       9.689   4.820  91.997  1.00  0.00     0.000 A 
HETATM   21  C   UNL     1       8.731   5.834  92.019  1.00  0.00     0.000 A 
BRANCH  19  22
HETATM   22  C   UNL     1      11.719   3.757  92.911  1.00  0.00     0.000 C 
HETATM   23  O   UNL     1      11.383   2.621  92.584  1.00  0.00     0.000 OA
HETATM   24  N   UNL     1      13.012   4.135  93.244  1.00  0.00     0.000 N 
HETATM   25  HN  UNL     1      13.220   5.099  93.480  1.00  0.00     0.000 HD
BRANCH  24  26
HETATM   26  C   UNL     1      14.116   3.210  93.241  1.00  0.00     0.000 C 
BRANCH  26  27
HETATM   27  C   UNL     1      14.369   2.591  91.861  1.00  0.00     0.000 C 
HETATM   28  C   UNL     1      14.410   3.636  90.751  1.00  0.00     0.000 C 
BRANCH  27  29
HETATM   29  O   UNL     1      15.607   1.882  91.875  1.00  0.00     0.000 OA
HETATM   30  H   UNL     1      15.439   0.981  92.198  1.00  0.00     0.000 HD
ENDBRANCH  27  29
ENDBRANCH  26  27
BRANCH  26  31
HETATM   31  C   UNL     1      15.348   3.952  93.750  1.00  0.00     0.000 C 
HETATM   32  O   UNL     1      15.425   5.179  93.782  1.00  0.00     0.000 OA
BRANCH  31  33
HETATM   33  P   UNL     1      16.353   3.094  94.124  1.00  0.00     0.000 P 
HETATM   34  H   UNL     1      16.816   3.497  95.360  1.00  0.00     0.000 HD
BRANCH  33  35
HETATM   35  O   UNL     1      17.452   3.026  93.255  1.00  0.00     0.000 OA
HETATM   36  H   UNL     1      18.174   3.239  93.871  1.00  0.00     0.000 HD
ENDBRANCH  33  35
ENDBRANCH  31  33
ENDBRANCH  26  31
ENDBRANCH  24  26
ENDBRANCH  19  22
ENDBRANCH  15  16
ENDBRANCH  11  14
ENDBRANCH   7   8
ENDBRANCH   2   7
TORSDOF 11
ENDMDL
MODEL 5
REMARK VINA RESULT:      -4.1      3.596     12.456
REMARK  11 active torsions:
REMARK  status: ('A' for Active; 'I' for Inactive)
REMARK    1  A    between atoms: O_2  and  C_18 
REMARK    2  A    between atoms: O_5  and  P_8 
REMARK    3  A    between atoms: N_6  and  C_11 
REMARK    4  A    between atoms: N_7  and  C_15 
REMARK       I    between atoms: N_7  and  C_24 
REMARK    5  A    between atoms: P_8  and  C_23 
REMARK    6  A    between atoms: C_11  and  C_14 
REMARK    7  A    between atoms: C_15  and  C_18 
REMARK    8  A    between atoms: C_15  and  C_23 
REMARK    9  A    between atoms: C_21  and  C_26 
REMARK   10  A    between atoms: C_24  and  C_25 
REMARK   11  A    between atoms: C_29  and  C_32 
ROOT
HETATM    1  O   UNL     1       4.040  11.932  87.821  1.00  0.00     0.000 OA
HETATM    2  N   UNL     1       3.003  11.279  90.390  1.00  0.00     0.000 N 
HETATM    3  C   UNL     1       4.103  12.239  90.227  1.00  0.00     0.000 C 
HETATM    4  C   UNL     1       3.027  10.296  89.298  1.00  0.00     0.000 C 
HETATM    5  C   UNL     1       4.005  12.912  88.860  1.00  0.00     0.000 C 
HETATM    6  C   UNL     1       2.955  11.013  87.954  1.00  0.00     0.000 C 
ENDROOT
BRANCH   2   7
HETATM    7  C   UNL     1       3.083  10.615  91.690  1.00  0.00     0.000 C 
BRANCH   7   8
HETATM    8  C   UNL     1       4.240   9.679  91.779  1.00  0.00     0.000 A 
HETATM    9  C   UNL     1       5.455  10.120  92.305  1.00  0.00     0.000 A 
HETATM   10  C   UNL     1       6.538   9.246  92.386  1.00  0.00     0.000 A 
HETATM   11  C   UNL     1       6.406   7.930  91.944  1.00  0.00     0.000 A 
HETATM   12  C   UNL     1       5.193   7.488  91.418  1.00  0.00     0.000 A 
HETATM   13  C   UNL     1       4.110   8.363  91.336  1.00  0.00     0.000 A 
BRANCH  11  14
HETATM   14  C   UNL     1       7.517   7.033  92.029  1.00  0.00     0.000 C 
HETATM   15  C   UNL     1       8.450   6.278  92.102  1.00  0.00     0.000 C 
BRANCH  15  16
HETATM   16  C   UNL     1       9.560   5.380  92.187  1.00  0.00     0.000 A 
HETATM   17  C   UNL     1      10.303   5.303  93.365  1.00  0.00     0.000 A 
HETATM   18  C   UNL     1      11.384   4.425  93.449  1.00  0.00     0.000 A 
HETATM   19  C   UNL     1      11.696   3.645  92.355  1.00  0.00     0.000 A 
HETATM   20  C   UNL     1      10.977   3.704  91.180  1.00  0.00     0.000 A 
HETATM   21  C   UNL     1       9.896   4.581  91.095  1.00  0.00     0.000 A 
BRANCH  19  22
HETATM   22  C   UNL     1      12.849   2.712  92.444  1.00  0.00     0.000 C 
HETATM   23  O   UNL     1      12.682   1.525  92.175  1.00  0.00     0.000 OA
HETATM   24  N   UNL     1      14.062   3.277  92.813  1.00  0.00     0.000 N 
HETATM   25  HN  UNL     1      14.130   4.271  92.997  1.00  0.00     0.000 HD
BRANCH  24  26
HETATM   26  C   UNL     1      15.275   2.507  92.920  1.00  0.00     0.000 C 
BRANCH  26  27
HETATM   27  C   UNL     1      15.871   2.145  91.553  1.00  0.00     0.000 C 
HETATM   28  C   UNL     1      15.282   2.978  90.420  1.00  0.00     0.000 C 
BRANCH  27  29
HETATM   29  O   UNL     1      17.285   2.337  91.583  1.00  0.00     0.000 OA
HETATM   30  H   UNL     1      17.559   2.715  90.730  1.00  0.00     0.000 HD
ENDBRANCH  27  29
ENDBRANCH  26  27
BRANCH  26  31
HETATM   31  C   UNL     1      16.263   3.310  93.760  1.00  0.00     0.000 C 
HETATM   32  O   UNL     1      17.365   2.878  94.093  1.00  0.00     0.000 OA
BRANCH  31  33
HETATM   33  P   UNL     1      15.760   4.535  94.124  1.00  0.00     0.000 P 
HETATM   34  H   UNL     1      14.413   4.546  93.822  1.00  0.00     0.000 HD
BRANCH  33  35
HETATM   35  O   UNL     1      16.348   5.645  93.502  1.00  0.00     0.000 OA
HETATM   36  H   UNL     1      16.063   6.354  94.103  1.00  0.00     0.000 HD
ENDBRANCH  33  35
ENDBRANCH  31  33
ENDBRANCH  26  31
ENDBRANCH  24  26
ENDBRANCH  19  22
ENDBRANCH  15  16
ENDBRANCH  11  14
ENDBRANCH   7   8
ENDBRANCH   2   7
TORSDOF 11
ENDMDL
MODEL 6
REMARK VINA RESULT:      -3.7      3.733     12.598
REMARK  11 active torsions:
REMARK  status: ('A' for Active; 'I' for Inactive)
REMARK    1  A    between atoms: O_2  and  C_18 
REMARK    2  A    between atoms: O_5  and  P_8 
REMARK    3  A    between atoms: N_6  and  C_11 
REMARK    4  A    between atoms: N_7  and  C_15 
REMARK       I    between atoms: N_7  and  C_24 
REMARK    5  A    between atoms: P_8  and  C_23 
REMARK    6  A    between atoms: C_11  and  C_14 
REMARK    7  A    between atoms: C_15  and  C_18 
REMARK    8  A    between atoms: C_15  and  C_23 
REMARK    9  A    between atoms: C_21  and  C_26 
REMARK   10  A    between atoms: C_24  and  C_25 
REMARK   11  A    between atoms: C_29  and  C_32 
ROOT
HETATM    1  O   UNL     1       1.275  13.094  92.969  1.00  0.00     0.000 OA
HETATM    2  N   UNL     1       2.732  13.176  90.525  1.00  0.00     0.000 N 
HETATM    3  C   UNL     1       2.563  11.925  91.276  1.00  0.00     0.000 C 
HETATM    4  C   UNL     1       2.708  14.322  91.444  1.00  0.00     0.000 C 
HETATM    5  C   UNL     1       1.266  11.976  92.080  1.00  0.00     0.000 C 
HETATM    6  C   UNL     1       1.409  14.317  92.244  1.00  0.00     0.000 C 
ENDROOT
BRANCH   2   7
HETATM    7  C   UNL     1       3.975  13.153  89.755  1.00  0.00     0.000 C 
BRANCH   7   8
HETATM    8  C   UNL     1       4.899  12.071  90.200  1.00  0.00     0.000 A 
HETATM    9  C   UNL     1       5.514  11.249  89.255  1.00  0.00     0.000 A 
HETATM   10  C   UNL     1       6.376  10.234  89.669  1.00  0.00     0.000 A 
HETATM   11  C   UNL     1       6.624  10.043  91.028  1.00  0.00     0.000 A 
HETATM   12  C   UNL     1       6.011  10.863  91.973  1.00  0.00     0.000 A 
HETATM   13  C   UNL     1       5.148  11.878  91.559  1.00  0.00     0.000 A 
BRANCH  11  14
HETATM   14  C   UNL     1       7.511   9.003  91.453  1.00  0.00     0.000 C 
HETATM   15  C   UNL     1       8.255   8.129  91.810  1.00  0.00     0.000 C 
BRANCH  15  16
HETATM   16  C   UNL     1       9.141   7.090  92.234  1.00  0.00     0.000 A 
HETATM   17  C   UNL     1       9.859   7.228  93.422  1.00  0.00     0.000 A 
HETATM   18  C   UNL     1      10.721   6.213  93.836  1.00  0.00     0.000 A 
HETATM   19  C   UNL     1      10.845   5.083  93.055  1.00  0.00     0.000 A 
HETATM   20  C   UNL     1      10.147   4.923  91.877  1.00  0.00     0.000 A 
HETATM   21  C   UNL     1       9.284   5.937  91.461  1.00  0.00     0.000 A 
BRANCH  19  22
HETATM   22  C   UNL     1      11.765   4.003  93.496  1.00  0.00     0.000 C 
HETATM   23  O   UNL     1      11.312   3.049  94.124  1.00  0.00     0.000 OA
HETATM   24  N   UNL     1      13.096   4.152  93.133  1.00  0.00     0.000 N 
HETATM   25  HN  UNL     1      13.393   4.956  92.592  1.00  0.00     0.000 HD
BRANCH  24  26
HETATM   26  C   UNL     1      14.105   3.178  93.465  1.00  0.00     0.000 C 
BRANCH  26  27
HETATM   27  C   UNL     1      14.317   2.141  92.355  1.00  0.00     0.000 C 
HETATM   28  C   UNL     1      13.065   1.314  92.082  1.00  0.00     0.000 C 
BRANCH  27  29
HETATM   29  O   UNL     1      14.707   2.802  91.152  1.00  0.00     0.000 OA
HETATM   30  H   UNL     1      14.601   2.179  90.413  1.00  0.00     0.000 HD
ENDBRANCH  27  29
ENDBRANCH  26  27
BRANCH  26  31
HETATM   31  C   UNL     1      15.395   3.930  93.775  1.00  0.00     0.000 C 
HETATM   32  O   UNL     1      15.484   5.155  93.725  1.00  0.00     0.000 OA
BRANCH  31  33
HETATM   33  P   UNL     1      16.432   3.080  94.073  1.00  0.00     0.000 P 
HETATM   34  H   UNL     1      16.714   3.212  95.418  1.00  0.00     0.000 HD
BRANCH  33  35
HETATM   35  O   UNL     1      17.621   3.295  93.362  1.00  0.00     0.000 OA
HETATM   36  H   UNL     1      17.691   4.263  93.427  1.00  0.00     0.000 HD
ENDBRANCH  33  35
ENDBRANCH  31  33
ENDBRANCH  26  31
ENDBRANCH  24  26
ENDBRANCH  19  22
ENDBRANCH  15  16
ENDBRANCH  11  14
ENDBRANCH   7   8
ENDBRANCH   2   7
TORSDOF 11
ENDMDL
