MODEL 1
REMARK VINA RESULT:      -6.9      0.000      0.000
REMARK  11 active torsions:
REMARK  status: ('A' for Active; 'I' for Inactive)
REMARK    1  A    between atoms: O_2  and  C_18 
REMARK    2  A    between atoms: O_5  and  P_8 
REMARK    3  A    between atoms: N_6  and  C_11 
REMARK    4  A    between atoms: N_7  and  C_15 
REMARK       I    between atoms: N_7  and  C_24 
REMARK    5  A    between atoms: P_8  and  C_23 
REMARK    6  A    between atoms: C_11  and  C_14 
REMARK    7  A    between atoms: C_15  and  C_18 
REMARK    8  A    between atoms: C_15  and  C_23 
REMARK    9  A    between atoms: C_21  and  C_26 
REMARK   10  A    between atoms: C_24  and  C_25 
REMARK   11  A    between atoms: C_29  and  C_32 
ROOT
HETATM    1  O   UNL     1      16.528   4.297  94.099  1.00  0.00     0.000 OA
HETATM    2  N   UNL     1      14.633   2.707  92.691  1.00  0.00     0.000 N 
HETATM    3  C   UNL     1      14.577   4.175  92.660  1.00  0.00     0.000 C 
HETATM    4  C   UNL     1      15.232   2.252  93.954  1.00  0.00     0.000 C 
HETATM    5  C   UNL     1      15.977   4.750  92.860  1.00  0.00     0.000 C 
HETATM    6  C   UNL     1      16.615   2.872  94.124  1.00  0.00     0.000 C 
ENDROOT
BRANCH   2   7
HETATM    7  C   UNL     1      13.300   2.134  92.511  1.00  0.00     0.000 C 
BRANCH   7   8
HETATM    8  C   UNL     1      12.257   3.178  92.300  1.00  0.00     0.000 A 
HETATM    9  C   UNL     1      11.802   3.936  93.380  1.00  0.00     0.000 A 
HETATM   10  C   UNL     1      10.824   4.911  93.184  1.00  0.00     0.000 A 
HETATM   11  C   UNL     1      10.305   5.130  91.909  1.00  0.00     0.000 A 
HETATM   12  C   UNL     1      10.759   4.374  90.830  1.00  0.00     0.000 A 
HETATM   13  C   UNL     1      11.736   3.398  91.025  1.00  0.00     0.000 A 
BRANCH  11  14
HETATM   14  C   UNL     1       9.304   6.132  91.708  1.00  0.00     0.000 C 
HETATM   15  C   UNL     1       8.462   6.974  91.538  1.00  0.00     0.000 C 
BRANCH  15  16
HETATM   16  C   UNL     1       7.461   7.975  91.338  1.00  0.00     0.000 A 
HETATM   17  C   UNL     1       6.455   7.774  90.392  1.00  0.00     0.000 A 
HETATM   18  C   UNL     1       5.477   8.750  90.199  1.00  0.00     0.000 A 
HETATM   19  C   UNL     1       5.526   9.902  90.955  1.00  0.00     0.000 A 
HETATM   20  C   UNL     1       6.510  10.124  91.896  1.00  0.00     0.000 A 
HETATM   21  C   UNL     1       7.489   9.149  92.090  1.00  0.00     0.000 A 
BRANCH  19  22
HETATM   22  C   UNL     1       4.485  10.942  90.747  1.00  0.00     0.000 C 
HETATM   23  O   UNL     1       3.311  10.672  90.987  1.00  0.00     0.000 OA
HETATM   24  N   UNL     1       4.939  12.178  90.309  1.00  0.00     0.000 N 
HETATM   25  HN  UNL     1       5.928  12.336  90.155  1.00  0.00     0.000 HD
BRANCH  24  26
HETATM   26  C   UNL     1       4.056  13.294  90.085  1.00  0.00     0.000 C 
BRANCH  26  27
HETATM   27  C   UNL     1       3.567  13.935  91.389  1.00  0.00     0.000 C 
HETATM   28  C   UNL     1       2.055  13.835  91.558  1.00  0.00     0.000 C 
BRANCH  27  29
HETATM   29  O   UNL     1       4.200  13.300  92.500  1.00  0.00     0.000 OA
HETATM   30  H   UNL     1       5.159  13.304  92.347  1.00  0.00     0.000 HD
ENDBRANCH  27  29
ENDBRANCH  26  27
BRANCH  26  31
HETATM   31  C   UNL     1       4.794  14.305  89.213  1.00  0.00     0.000 C 
HETATM   32  O   UNL     1       4.883  15.497  89.499  1.00  0.00     0.000 OA
BRANCH  31  33
HETATM   33  P   UNL     1       5.302  13.733  88.072  1.00  0.00     0.000 P 
HETATM   34  H   UNL     1       5.591  14.748  87.182  1.00  0.00     0.000 HD
BRANCH  33  35
HETATM   35  O   UNL     1       4.462  12.818  87.422  1.00  0.00     0.000 OA
HETATM   36  H   UNL     1       3.606  13.056  87.817  1.00  0.00     0.000 HD
ENDBRANCH  33  35
ENDBRANCH  31  33
ENDBRANCH  26  31
ENDBRANCH  24  26
ENDBRANCH  19  22
ENDBRANCH  15  16
ENDBRANCH  11  14
ENDBRANCH   7   8
ENDBRANCH   2   7
TORSDOF 11
ENDMDL
MODEL 2
REMARK VINA RESULT:      -6.7      1.619      2.776
REMARK  11 active torsions:
REMARK  status: ('A' for Active; 'I' for Inactive)
REMARK    1  A    between atoms: O_2  and  C_18 
REMARK    2  A    between atoms: O_5  and  P_8 
REMARK    3  A    between atoms: N_6  and  C_11 
REMARK    4  A    between atoms: N_7  and  C_15 
REMARK       I    between atoms: N_7  and  C_24 
REMARK    5  A    between atoms: P_8  and  C_23 
REMARK    6  A    between atoms: C_11  and  C_14 
REMARK    7  A    between atoms: C_15  and  C_18 
REMARK    8  A    between atoms: C_15  and  C_23 
REMARK    9  A    between atoms: C_21  and  C_26 
REMARK   10  A    between atoms: C_24  and  C_25 
REMARK   11  A    between atoms: C_29  and  C_32 
ROOT
HETATM    1  O   UNL     1      16.078   3.728  94.124  1.00  0.00     0.000 OA
HETATM    2  N   UNL     1      14.093   2.572  92.443  1.00  0.00     0.000 N 
HETATM    3  C   UNL     1      14.247   4.028  92.560  1.00  0.00     0.000 C 
HETATM    4  C   UNL     1      14.522   1.919  93.688  1.00  0.00     0.000 C 
HETATM    5  C   UNL     1      15.694   4.369  92.906  1.00  0.00     0.000 C 
HETATM    6  C   UNL     1      15.961   2.309  94.008  1.00  0.00     0.000 C 
ENDROOT
BRANCH   2   7
HETATM    7  C   UNL     1      12.711   2.221  92.122  1.00  0.00     0.000 C 
BRANCH   7   8
HETATM    8  C   UNL     1      11.795   3.395  92.200  1.00  0.00     0.000 A 
HETATM    9  C   UNL     1      11.260   3.940  91.032  1.00  0.00     0.000 A 
HETATM   10  C   UNL     1      10.405   5.039  91.103  1.00  0.00     0.000 A 
HETATM   11  C   UNL     1      10.083   5.591  92.343  1.00  0.00     0.000 A 
HETATM   12  C   UNL     1      10.615   5.047  93.510  1.00  0.00     0.000 A 
HETATM   13  C   UNL     1      11.471   3.948  93.439  1.00  0.00     0.000 A 
BRANCH  11  14
HETATM   14  C   UNL     1       9.203   6.717  92.416  1.00  0.00     0.000 C 
HETATM   15  C   UNL     1       8.464   7.663  92.477  1.00  0.00     0.000 C 
BRANCH  15  16
HETATM   16  C   UNL     1       7.584   8.788  92.551  1.00  0.00     0.000 A 
HETATM   17  C   UNL     1       7.204   9.295  93.794  1.00  0.00     0.000 A 
HETATM   18  C   UNL     1       6.349  10.394  93.866  1.00  0.00     0.000 A 
HETATM   19  C   UNL     1       5.893  10.962  92.694  1.00  0.00     0.000 A 
HETATM   20  C   UNL     1       6.253  10.479  91.454  1.00  0.00     0.000 A 
HETATM   21  C   UNL     1       7.109   9.380  91.381  1.00  0.00     0.000 A 
BRANCH  19  22
HETATM   22  C   UNL     1       4.980  12.131  92.771  1.00  0.00     0.000 C 
HETATM   23  O   UNL     1       4.767  12.655  93.862  1.00  0.00     0.000 OA
HETATM   24  N   UNL     1       4.445  12.565  91.566  1.00  0.00     0.000 N 
HETATM   25  HN  UNL     1       4.686  12.098  90.700  1.00  0.00     0.000 HD
BRANCH  24  26
HETATM   26  C   UNL     1       3.563  13.701  91.474  1.00  0.00     0.000 C 
BRANCH  26  27
HETATM   27  C   UNL     1       3.567  14.343  90.081  1.00  0.00     0.000 C 
HETATM   28  C   UNL     1       4.943  14.865  89.682  1.00  0.00     0.000 C 
BRANCH  27  29
HETATM   29  O   UNL     1       3.135  13.387  89.113  1.00  0.00     0.000 OA
HETATM   30  H   UNL     1       2.583  13.846  88.457  1.00  0.00     0.000 HD
ENDBRANCH  27  29
ENDBRANCH  26  27
BRANCH  26  31
HETATM   31  C   UNL     1       2.164  13.237  91.866  1.00  0.00     0.000 C 
HETATM   32  O   UNL     1       1.676  12.178  91.477  1.00  0.00     0.000 OA
BRANCH  31  33
HETATM   33  P   UNL     1       1.517  14.153  92.661  1.00  0.00     0.000 P 
HETATM   34  H   UNL     1       1.383  15.320  91.937  1.00  0.00     0.000 HD
BRANCH  33  35
HETATM   35  O   UNL     1       2.153  14.468  93.870  1.00  0.00     0.000 OA
HETATM   36  H   UNL     1       1.721  13.831  94.465  1.00  0.00     0.000 HD
ENDBRANCH  33  35
ENDBRANCH  31  33
ENDBRANCH  26  31
ENDBRANCH  24  26
ENDBRANCH  19  22
ENDBRANCH  15  16
ENDBRANCH  11  14
ENDBRANCH   7   8
ENDBRANCH   2   7
TORSDOF 11
ENDMDL
MODEL 3
REMARK VINA RESULT:      -4.8      3.380     12.373
REMARK  11 active torsions:
REMARK  status: ('A' for Active; 'I' for Inactive)
REMARK    1  A    between atoms: O_2  and  C_18 
REMARK    2  A    between atoms: O_5  and  P_8 
REMARK    3  A    between atoms: N_6  and  C_11 
REMARK    4  A    between atoms: N_7  and  C_15 
REMARK       I    between atoms: N_7  and  C_24 
REMARK    5  A    between atoms: P_8  and  C_23 
REMARK    6  A    between atoms: C_11  and  C_14 
REMARK    7  A    between atoms: C_15  and  C_18 
REMARK    8  A    between atoms: C_15  and  C_23 
REMARK    9  A    between atoms: C_21  and  C_26 
REMARK   10  A    between atoms: C_24  and  C_25 
REMARK   11  A    between atoms: C_29  and  C_32 
ROOT
HETATM    1  O   UNL     1       5.202  15.095  89.616  1.00  0.00     0.000 OA
HETATM    2  N   UNL     1       3.188  13.435  90.750  1.00  0.00     0.000 N 
HETATM    3  C   UNL     1       3.942  14.394  91.568  1.00  0.00     0.000 C 
HETATM    4  C   UNL     1       4.008  12.984  89.618  1.00  0.00     0.000 C 
HETATM    5  C   UNL     1       4.400  15.564  90.702  1.00  0.00     0.000 C 
HETATM    6  C   UNL     1       4.465  14.186  88.798  1.00  0.00     0.000 C 
ENDROOT
BRANCH   2   7
HETATM    7  C   UNL     1       2.748  12.299  91.558  1.00  0.00     0.000 C 
BRANCH   7   8
HETATM    8  C   UNL     1       3.808  11.261  91.705  1.00  0.00     0.000 A 
HETATM    9  C   UNL     1       3.747  10.091  90.948  1.00  0.00     0.000 A 
HETATM   10  C   UNL     1       4.738   9.119  91.085  1.00  0.00     0.000 A 
HETATM   11  C   UNL     1       5.789   9.318  91.979  1.00  0.00     0.000 A 
HETATM   12  C   UNL     1       5.851  10.487  92.736  1.00  0.00     0.000 A 
HETATM   13  C   UNL     1       4.861  11.459  92.599  1.00  0.00     0.000 A 
BRANCH  11  14
HETATM   14  C   UNL     1       6.807   8.322  92.119  1.00  0.00     0.000 C 
HETATM   15  C   UNL     1       7.662   7.485  92.237  1.00  0.00     0.000 C 
BRANCH  15  16
HETATM   16  C   UNL     1       8.678   6.489  92.377  1.00  0.00     0.000 A 
HETATM   17  C   UNL     1       9.614   6.590  93.407  1.00  0.00     0.000 A 
HETATM   18  C   UNL     1      10.603   5.616  93.546  1.00  0.00     0.000 A 
HETATM   19  C   UNL     1      10.635   4.566  92.653  1.00  0.00     0.000 A 
HETATM   20  C   UNL     1       9.721   4.444  91.627  1.00  0.00     0.000 A 
HETATM   21  C   UNL     1       8.731   5.417  91.487  1.00  0.00     0.000 A 
BRANCH  19  22
HETATM   22  C   UNL     1      11.690   3.530  92.800  1.00  0.00     0.000 C 
HETATM   23  O   UNL     1      11.366   2.377  93.071  1.00  0.00     0.000 OA
HETATM   24  N   UNL     1      12.994   3.957  92.591  1.00  0.00     0.000 N 
HETATM   25  HN  UNL     1      13.185   4.922  92.346  1.00  0.00     0.000 HD
BRANCH  24  26
HETATM   26  C   UNL     1      14.124   3.068  92.673  1.00  0.00     0.000 C 
BRANCH  26  27
HETATM   27  C   UNL     1      14.628   2.619  91.295  1.00  0.00     0.000 C 
HETATM   28  C   UNL     1      14.113   3.506  90.168  1.00  0.00     0.000 C 
BRANCH  27  29
HETATM   29  O   UNL     1      16.055   2.633  91.281  1.00  0.00     0.000 OA
HETATM   30  H   UNL     1      16.348   2.939  90.406  1.00  0.00     0.000 HD
ENDBRANCH  27  29
ENDBRANCH  26  27
BRANCH  26  31
HETATM   31  C   UNL     1      15.221   3.779  93.460  1.00  0.00     0.000 C 
HETATM   32  O   UNL     1      15.360   5.000  93.459  1.00  0.00     0.000 OA
BRANCH  31  33
HETATM   33  P   UNL     1      16.039   2.897  94.123  1.00  0.00     0.000 P 
HETATM   34  H   UNL     1      15.618   2.835  95.436  1.00  0.00     0.000 HD
BRANCH  33  35
HETATM   35  O   UNL     1      17.405   3.214  94.124  1.00  0.00     0.000 OA
HETATM   36  H   UNL     1      17.788   2.333  94.275  1.00  0.00     0.000 HD
ENDBRANCH  33  35
ENDBRANCH  31  33
ENDBRANCH  26  31
ENDBRANCH  24  26
ENDBRANCH  19  22
ENDBRANCH  15  16
ENDBRANCH  11  14
ENDBRANCH   7   8
ENDBRANCH   2   7
TORSDOF 11
ENDMDL
MODEL 4
REMARK VINA RESULT:      -4.7      1.516      2.132
REMARK  11 active torsions:
REMARK  status: ('A' for Active; 'I' for Inactive)
REMARK    1  A    between atoms: O_2  and  C_18 
REMARK    2  A    between atoms: O_5  and  P_8 
REMARK    3  A    between atoms: N_6  and  C_11 
REMARK    4  A    between atoms: N_7  and  C_15 
REMARK       I    between atoms: N_7  and  C_24 
REMARK    5  A    between atoms: P_8  and  C_23 
REMARK    6  A    between atoms: C_11  and  C_14 
REMARK    7  A    between atoms: C_15  and  C_18 
REMARK    8  A    between atoms: C_15  and  C_23 
REMARK    9  A    between atoms: C_21  and  C_26 
REMARK   10  A    between atoms: C_24  and  C_25 
REMARK   11  A    between atoms: C_29  and  C_32 
ROOT
HETATM    1  O   UNL     1      16.126   4.144  92.686  1.00  0.00     0.000 OA
HETATM    2  N   UNL     1      13.994   2.259  92.740  1.00  0.00     0.000 N 
HETATM    3  C   UNL     1      14.140   3.222  91.639  1.00  0.00     0.000 C 
HETATM    4  C   UNL     1      14.556   2.819  93.976  1.00  0.00     0.000 C 
HETATM    5  C   UNL     1      15.610   3.596  91.471  1.00  0.00     0.000 C 
HETATM    6  C   UNL     1      16.016   3.203  93.754  1.00  0.00     0.000 C 
ENDROOT
BRANCH   2   7
HETATM    7  C   UNL     1      12.590   1.895  92.926  1.00  0.00     0.000 C 
BRANCH   7   8
HETATM    8  C   UNL     1      11.690   3.084  92.926  1.00  0.00     0.000 A 
HETATM    9  C   UNL     1      10.670   3.185  91.978  1.00  0.00     0.000 A 
HETATM   10  C   UNL     1       9.829   4.297  91.976  1.00  0.00     0.000 A 
HETATM   11  C   UNL     1      10.007   5.307  92.921  1.00  0.00     0.000 A 
HETATM   12  C   UNL     1      11.024   5.207  93.868  1.00  0.00     0.000 A 
HETATM   13  C   UNL     1      11.866   4.095  93.870  1.00  0.00     0.000 A 
BRANCH  11  14
HETATM   14  C   UNL     1       9.142   6.447  92.920  1.00  0.00     0.000 C 
HETATM   15  C   UNL     1       8.415   7.404  92.918  1.00  0.00     0.000 C 
BRANCH  15  16
HETATM   16  C   UNL     1       7.551   8.543  92.917  1.00  0.00     0.000 A 
HETATM   17  C   UNL     1       7.234   9.178  94.118  1.00  0.00     0.000 A 
HETATM   18  C   UNL     1       6.392  10.291  94.117  1.00  0.00     0.000 A 
HETATM   19  C   UNL     1       5.888  10.744  92.915  1.00  0.00     0.000 A 
HETATM   20  C   UNL     1       6.186  10.133  91.715  1.00  0.00     0.000 A 
HETATM   21  C   UNL     1       7.027   9.021  91.715  1.00  0.00     0.000 A 
BRANCH  19  22
HETATM   22  C   UNL     1       4.991  11.928  92.915  1.00  0.00     0.000 C 
HETATM   23  O   UNL     1       4.702  12.462  93.982  1.00  0.00     0.000 OA
HETATM   24  N   UNL     1       4.557  12.361  91.669  1.00  0.00     0.000 N 
HETATM   25  HN  UNL     1       4.857  11.884  90.827  1.00  0.00     0.000 HD
BRANCH  24  26
HETATM   26  C   UNL     1       3.703  13.509  91.502  1.00  0.00     0.000 C 
BRANCH  26  27
HETATM   27  C   UNL     1       4.370  14.816  91.951  1.00  0.00     0.000 C 
HETATM   28  C   UNL     1       4.937  15.614  90.782  1.00  0.00     0.000 C 
BRANCH  27  29
HETATM   29  O   UNL     1       3.419  15.623  92.645  1.00  0.00     0.000 OA
HETATM   30  H   UNL     1       2.686  15.053  92.931  1.00  0.00     0.000 HD
ENDBRANCH  27  29
ENDBRANCH  26  27
BRANCH  26  31
HETATM   31  C   UNL     1       3.290  13.573  90.035  1.00  0.00     0.000 C 
HETATM   32  O   UNL     1       2.345  14.249  89.634  1.00  0.00     0.000 OA
BRANCH  31  33
HETATM   33  P   UNL     1       4.068  12.765  89.241  1.00  0.00     0.000 P 
HETATM   34  H   UNL     1       5.172  13.494  88.849  1.00  0.00     0.000 HD
BRANCH  33  35
HETATM   35  O   UNL     1       3.449  12.267  88.086  1.00  0.00     0.000 OA
HETATM   36  H   UNL     1       2.883  13.021  87.852  1.00  0.00     0.000 HD
ENDBRANCH  33  35
ENDBRANCH  31  33
ENDBRANCH  26  31
ENDBRANCH  24  26
ENDBRANCH  19  22
ENDBRANCH  15  16
ENDBRANCH  11  14
ENDBRANCH   7   8
ENDBRANCH   2   7
TORSDOF 11
ENDMDL
MODEL 5
REMARK VINA RESULT:      -4.5      3.277     12.528
REMARK  11 active torsions:
REMARK  status: ('A' for Active; 'I' for Inactive)
REMARK    1  A    between atoms: O_2  and  C_18 
REMARK    2  A    between atoms: O_5  and  P_8 
REMARK    3  A    between atoms: N_6  and  C_11 
REMARK    4  A    between atoms: N_7  and  C_15 
REMARK       I    between atoms: N_7  and  C_24 
REMARK    5  A    between atoms: P_8  and  C_23 
REMARK    6  A    between atoms: C_11  and  C_14 
REMARK    7  A    between atoms: C_15  and  C_18 
REMARK    8  A    between atoms: C_15  and  C_23 
REMARK    9  A    between atoms: C_21  and  C_26 
REMARK   10  A    between atoms: C_24  and  C_25 
REMARK   11  A    between atoms: C_29  and  C_32 
ROOT
HETATM    1  O   UNL     1       3.126  13.696  89.289  1.00  0.00     0.000 OA
HETATM    2  N   UNL     1       3.781  12.709  91.877  1.00  0.00     0.000 N 
HETATM    3  C   UNL     1       4.230  12.023  90.658  1.00  0.00     0.000 C 
HETATM    4  C   UNL     1       2.519  13.417  91.620  1.00  0.00     0.000 C 
HETATM    5  C   UNL     1       4.370  13.031  89.519  1.00  0.00     0.000 C 
HETATM    6  C   UNL     1       2.698  14.391  90.460  1.00  0.00     0.000 C 
ENDROOT
BRANCH   2   7
HETATM    7  C   UNL     1       3.630  11.760  92.979  1.00  0.00     0.000 C 
BRANCH   7   8
HETATM    8  C   UNL     1       4.698  10.721  92.984  1.00  0.00     0.000 A 
HETATM    9  C   UNL     1       4.357   9.371  92.894  1.00  0.00     0.000 A 
HETATM   10  C   UNL     1       5.356   8.397  92.900  1.00  0.00     0.000 A 
HETATM   11  C   UNL     1       6.695   8.774  92.994  1.00  0.00     0.000 A 
HETATM   12  C   UNL     1       7.037  10.122  93.084  1.00  0.00     0.000 A 
HETATM   13  C   UNL     1       6.038  11.096  93.078  1.00  0.00     0.000 A 
BRANCH  11  14
HETATM   14  C   UNL     1       7.719   7.776  92.999  1.00  0.00     0.000 C 
HETATM   15  C   UNL     1       8.580   6.936  93.003  1.00  0.00     0.000 C 
BRANCH  15  16
HETATM   16  C   UNL     1       9.603   5.937  93.007  1.00  0.00     0.000 A 
HETATM   17  C   UNL     1       9.667   5.001  91.975  1.00  0.00     0.000 A 
HETATM   18  C   UNL     1      10.667   4.028  91.978  1.00  0.00     0.000 A 
HETATM   19  C   UNL     1      11.580   4.014  93.012  1.00  0.00     0.000 A 
HETATM   20  C   UNL     1      11.538   4.929  94.043  1.00  0.00     0.000 A 
HETATM   21  C   UNL     1      10.539   5.902  94.042  1.00  0.00     0.000 A 
BRANCH  19  22
HETATM   22  C   UNL     1      12.644   2.977  93.015  1.00  0.00     0.000 C 
HETATM   23  O   UNL     1      12.325   1.791  92.962  1.00  0.00     0.000 OA
HETATM   24  N   UNL     1      13.950   3.445  93.056  1.00  0.00     0.000 N 
HETATM   25  HN  UNL     1      14.137   4.441  93.074  1.00  0.00     0.000 HD
BRANCH  24  26
HETATM   26  C   UNL     1      15.090   2.565  93.041  1.00  0.00     0.000 C 
BRANCH  26  27
HETATM   27  C   UNL     1      15.518   2.173  91.621  1.00  0.00     0.000 C 
HETATM   28  C   UNL     1      15.154   3.233  90.587  1.00  0.00     0.000 C 
BRANCH  27  29
HETATM   29  O   UNL     1      16.930   1.961  91.589  1.00  0.00     0.000 OA
HETATM   30  H   UNL     1      17.369   2.816  91.734  1.00  0.00     0.000 HD
ENDBRANCH  27  29
ENDBRANCH  26  27
BRANCH  26  31
HETATM   31  C   UNL     1      16.223   3.257  93.790  1.00  0.00     0.000 C 
HETATM   32  O   UNL     1      17.257   2.680  94.124  1.00  0.00     0.000 OA
BRANCH  31  33
HETATM   33  P   UNL     1      15.932   4.570  94.075  1.00  0.00     0.000 P 
HETATM   34  H   UNL     1      14.559   4.690  94.155  1.00  0.00     0.000 HD
BRANCH  33  35
HETATM   35  O   UNL     1      16.392   5.512  93.144  1.00  0.00     0.000 OA
HETATM   36  H   UNL     1      15.954   6.314  93.477  1.00  0.00     0.000 HD
ENDBRANCH  33  35
ENDBRANCH  31  33
ENDBRANCH  26  31
ENDBRANCH  24  26
ENDBRANCH  19  22
ENDBRANCH  15  16
ENDBRANCH  11  14
ENDBRANCH   7   8
ENDBRANCH   2   7
TORSDOF 11
ENDMDL
MODEL 6
REMARK VINA RESULT:      -4.2      1.653      2.661
REMARK  11 active torsions:
REMARK  status: ('A' for Active; 'I' for Inactive)
REMARK    1  A    between atoms: O_2  and  C_18 
REMARK    2  A    between atoms: O_5  and  P_8 
REMARK    3  A    between atoms: N_6  and  C_11 
REMARK    4  A    between atoms: N_7  and  C_15 
REMARK       I    between atoms: N_7  and  C_24 
REMARK    5  A    between atoms: P_8  and  C_23 
REMARK    6  A    between atoms: C_11  and  C_14 
REMARK    7  A    between atoms: C_15  and  C_18 
REMARK    8  A    between atoms: C_15  and  C_23 
REMARK    9  A    between atoms: C_21  and  C_26 
REMARK   10  A    between atoms: C_24  and  C_25 
REMARK   11  A    between atoms: C_29  and  C_32 
ROOT
HETATM    1  O   UNL     1      17.047   3.505  92.852  1.00  0.00     0.000 OA
HETATM    2  N   UNL     1      14.798   1.764  92.969  1.00  0.00     0.000 N 
HETATM    3  C   UNL     1      15.186   2.435  91.720  1.00  0.00     0.000 C 
HETATM    4  C   UNL     1      15.201   2.579  94.123  1.00  0.00     0.000 C 
HETATM    5  C   UNL     1      16.688   2.705  91.723  1.00  0.00     0.000 C 
HETATM    6  C   UNL     1      16.701   2.846  94.071  1.00  0.00     0.000 C 
ENDROOT
BRANCH   2   7
HETATM    7  C   UNL     1      13.360   1.505  92.992  1.00  0.00     0.000 C 
BRANCH   7   8
HETATM    8  C   UNL     1      12.561   2.694  92.579  1.00  0.00     0.000 A 
HETATM    9  C   UNL     1      12.402   2.991  91.225  1.00  0.00     0.000 A 
HETATM   10  C   UNL     1      11.657   4.105  90.838  1.00  0.00     0.000 A 
HETATM   11  C   UNL     1      11.070   4.920  91.805  1.00  0.00     0.000 A 
HETATM   12  C   UNL     1      11.228   4.625  93.158  1.00  0.00     0.000 A 
HETATM   13  C   UNL     1      11.974   3.511  93.545  1.00  0.00     0.000 A 
BRANCH  11  14
HETATM   14  C   UNL     1      10.304   6.061  91.408  1.00  0.00     0.000 C 
HETATM   15  C   UNL     1       9.660   7.020  91.075  1.00  0.00     0.000 C 
BRANCH  15  16
HETATM   16  C   UNL     1       8.894   8.161  90.678  1.00  0.00     0.000 A 
HETATM   17  C   UNL     1       8.399   8.249  89.377  1.00  0.00     0.000 A 
HETATM   18  C   UNL     1       7.650   9.361  88.992  1.00  0.00     0.000 A 
HETATM   19  C   UNL     1       7.412  10.358  89.915  1.00  0.00     0.000 A 
HETATM   20  C   UNL     1       7.891  10.294  91.207  1.00  0.00     0.000 A 
HETATM   21  C   UNL     1       8.641   9.182  91.593  1.00  0.00     0.000 A 
BRANCH  19  22
HETATM   22  C   UNL     1       6.616  11.543  89.504  1.00  0.00     0.000 C 
HETATM   23  O   UNL     1       7.107  12.353  88.721  1.00  0.00     0.000 OA
HETATM   24  N   UNL     1       5.336  11.628  90.033  1.00  0.00     0.000 N 
HETATM   25  HN  UNL     1       4.988  10.907  90.654  1.00  0.00     0.000 HD
BRANCH  24  26
HETATM   26  C   UNL     1       4.433  12.704  89.710  1.00  0.00     0.000 C 
BRANCH  26  27
HETATM   27  C   UNL     1       4.077  12.753  88.219  1.00  0.00     0.000 C 
HETATM   28  C   UNL     1       4.923  13.761  87.449  1.00  0.00     0.000 C 
BRANCH  27  29
HETATM   29  O   UNL     1       4.258  11.460  87.642  1.00  0.00     0.000 OA
HETATM   30  H   UNL     1       4.285  10.807  88.361  1.00  0.00     0.000 HD
ENDBRANCH  27  29
ENDBRANCH  26  27
BRANCH  26  31
HETATM   31  C   UNL     1       3.186  12.541  90.573  1.00  0.00     0.000 C 
HETATM   32  O   UNL     1       2.599  11.469  90.705  1.00  0.00     0.000 OA
BRANCH  31  33
HETATM   33  P   UNL     1       2.789  13.728  91.140  1.00  0.00     0.000 P 
HETATM   34  H   UNL     1       2.026  14.406  90.211  1.00  0.00     0.000 HD
BRANCH  33  35
HETATM   35  O   UNL     1       3.821  14.582  91.554  1.00  0.00     0.000 OA
HETATM   36  H   UNL     1       3.752  14.483  92.519  1.00  0.00     0.000 HD
ENDBRANCH  33  35
ENDBRANCH  31  33
ENDBRANCH  26  31
ENDBRANCH  24  26
ENDBRANCH  19  22
ENDBRANCH  15  16
ENDBRANCH  11  14
ENDBRANCH   7   8
ENDBRANCH   2   7
TORSDOF 11
ENDMDL
MODEL 7
REMARK VINA RESULT:      -4.1      1.915      2.275
REMARK  11 active torsions:
REMARK  status: ('A' for Active; 'I' for Inactive)
REMARK    1  A    between atoms: O_2  and  C_18 
REMARK    2  A    between atoms: O_5  and  P_8 
REMARK    3  A    between atoms: N_6  and  C_11 
REMARK    4  A    between atoms: N_7  and  C_15 
REMARK       I    between atoms: N_7  and  C_24 
REMARK    5  A    between atoms: P_8  and  C_23 
REMARK    6  A    between atoms: C_11  and  C_14 
REMARK    7  A    between atoms: C_15  and  C_18 
REMARK    8  A    between atoms: C_15  and  C_23 
REMARK    9  A    between atoms: C_21  and  C_26 
REMARK   10  A    between atoms: C_24  and  C_25 
REMARK   11  A    between atoms: C_29  and  C_32 
ROOT
HETATM    1  O   UNL     1      15.713   2.895  91.021  1.00  0.00     0.000 OA
HETATM    2  N   UNL     1      13.600   3.275  92.890  1.00  0.00     0.000 N 
HETATM    3  C   UNL     1      14.696   2.331  93.151  1.00  0.00     0.000 C 
HETATM    4  C   UNL     1      13.378   3.401  91.443  1.00  0.00     0.000 C 
HETATM    5  C   UNL     1      15.958   2.790  92.425  1.00  0.00     0.000 C 
HETATM    6  C   UNL     1      14.670   3.834  90.757  1.00  0.00     0.000 C 
ENDROOT
BRANCH   2   7
HETATM    7  C   UNL     1      12.377   2.850  93.569  1.00  0.00     0.000 C 
BRANCH   7   8
HETATM    8  C   UNL     1      11.251   3.804  93.362  1.00  0.00     0.000 A 
HETATM    9  C   UNL     1      11.182   4.974  94.120  1.00  0.00     0.000 A 
HETATM   10  C   UNL     1      10.127   5.867  93.929  1.00  0.00     0.000 A 
HETATM   11  C   UNL     1       9.145   5.591  92.979  1.00  0.00     0.000 A 
HETATM   12  C   UNL     1       9.213   4.424  92.221  1.00  0.00     0.000 A 
HETATM   13  C   UNL     1      10.267   3.530  92.412  1.00  0.00     0.000 A 
BRANCH  11  14
HETATM   14  C   UNL     1       8.065   6.508  92.782  1.00  0.00     0.000 C 
HETATM   15  C   UNL     1       7.156   7.278  92.616  1.00  0.00     0.000 C 
BRANCH  15  16
HETATM   16  C   UNL     1       6.076   8.194  92.419  1.00  0.00     0.000 A 
HETATM   17  C   UNL     1       4.946   7.795  91.706  1.00  0.00     0.000 A 
HETATM   18  C   UNL     1       3.891   8.688  91.516  1.00  0.00     0.000 A 
HETATM   19  C   UNL     1       3.990   9.958  92.045  1.00  0.00     0.000 A 
HETATM   20  C   UNL     1       5.097  10.377  92.753  1.00  0.00     0.000 A 
HETATM   21  C   UNL     1       6.152   9.485  92.943  1.00  0.00     0.000 A 
BRANCH  19  22
HETATM   22  C   UNL     1       2.867  10.910  91.841  1.00  0.00     0.000 C 
HETATM   23  O   UNL     1       1.750  10.472  91.577  1.00  0.00     0.000 OA
HETATM   24  N   UNL     1       3.174  12.255  91.994  1.00  0.00     0.000 N 
HETATM   25  HN  UNL     1       4.115  12.541  92.237  1.00  0.00     0.000 HD
BRANCH  24  26
HETATM   26  C   UNL     1       2.189  13.296  91.852  1.00  0.00     0.000 C 
BRANCH  26  27
HETATM   27  C   UNL     1       2.250  14.329  92.985  1.00  0.00     0.000 C 
HETATM   28  C   UNL     1       3.582  15.069  93.029  1.00  0.00     0.000 C 
BRANCH  27  29
HETATM   29  O   UNL     1       1.197  15.279  92.822  1.00  0.00     0.000 OA
HETATM   30  H   UNL     1       1.459  15.908  92.129  1.00  0.00     0.000 HD
ENDBRANCH  27  29
ENDBRANCH  26  27
BRANCH  26  31
HETATM   31  C   UNL     1       2.397  13.953  90.492  1.00  0.00     0.000 C 
HETATM   32  O   UNL     1       1.577  14.715  89.983  1.00  0.00     0.000 OA
BRANCH  31  33
HETATM   33  P   UNL     1       3.574  13.562  89.901  1.00  0.00     0.000 P 
HETATM   34  H   UNL     1       4.298  14.699  89.606  1.00  0.00     0.000 HD
BRANCH  33  35
HETATM   35  O   UNL     1       3.446  12.816  88.721  1.00  0.00     0.000 OA
HETATM   36  H   UNL     1       3.842  11.973  89.003  1.00  0.00     0.000 HD
ENDBRANCH  33  35
ENDBRANCH  31  33
ENDBRANCH  26  31
ENDBRANCH  24  26
ENDBRANCH  19  22
ENDBRANCH  15  16
ENDBRANCH  11  14
ENDBRANCH   7   8
ENDBRANCH   2   7
TORSDOF 11
ENDMDL
