MODEL 1
REMARK VINA RESULT:      -6.2      0.000      0.000
REMARK  14 active torsions:
REMARK  status: ('A' for Active; 'I' for Inactive)
REMARK    1  A    between atoms: O_2  and  C_18 
REMARK    2  A    between atoms: C_5  and  C_8 
REMARK    3  A    between atoms: C_5  and  O_35 
REMARK    4  A    between atoms: C_5  and  C_36 
REMARK    5  A    between atoms: N_6  and  C_11 
REMARK    6  A    between atoms: N_7  and  C_15 
REMARK       I    between atoms: N_7  and  C_24 
REMARK    7  A    between atoms: C_8  and  C_23 
REMARK    8  A    between atoms: C_11  and  C_14 
REMARK    9  A    between atoms: C_15  and  C_18 
REMARK   10  A    between atoms: C_15  and  C_23 
REMARK   11  A    between atoms: C_21  and  C_26 
REMARK   12  A    between atoms: C_24  and  C_25 
REMARK   13  A    between atoms: C_29  and  C_32 
REMARK   14  A    between atoms: C_36  and  O_39 
ROOT
HETATM    1  O   UNL     1      16.700   3.298  93.537  1.00  0.00    -0.350 OA
HETATM    2  N   UNL     1      13.900   2.956  93.157  1.00  0.00     0.147 N 
HETATM    3  C   UNL     1      14.804   1.804  93.281  1.00  0.00     0.283 C 
HETATM    4  C   UNL     1      14.620   4.102  92.583  1.00  0.00     0.283 C 
HETATM    5  C   UNL     1      16.018   2.188  94.124  1.00  0.00     0.178 C 
HETATM    6  C   UNL     1      15.837   4.431  93.441  1.00  0.00     0.178 C 
ENDROOT
BRANCH   2   7
HETATM    7  C   UNL     1      12.735   2.614  92.343  1.00  0.00     0.277 C 
BRANCH   7   8
HETATM    8  C   UNL     1      11.649   3.630  92.451  1.00  0.00     0.011 A 
HETATM    9  C   UNL     1      11.533   4.406  93.605  1.00  0.00    -0.002 A 
HETATM   10  C   UNL     1      10.516   5.355  93.708  1.00  0.00     0.008 A 
HETATM   11  C   UNL     1       9.617   5.529  92.656  1.00  0.00     0.042 A 
HETATM   12  C   UNL     1       9.732   4.755  91.503  1.00  0.00     0.008 A 
HETATM   13  C   UNL     1      10.748   3.805  91.400  1.00  0.00    -0.002 A 
BRANCH  11  14
HETATM   14  C   UNL     1       8.576   6.504  92.761  1.00  0.00    -0.059 C 
HETATM   15  C   UNL     1       7.700   7.323  92.849  1.00  0.00    -0.059 C 
BRANCH  15  16
HETATM   16  C   UNL     1       6.658   8.297  92.954  1.00  0.00     0.042 A 
HETATM   17  C   UNL     1       6.979   9.642  93.143  1.00  0.00     0.008 A 
HETATM   18  C   UNL     1       5.962  10.592  93.243  1.00  0.00     0.005 A 
HETATM   19  C   UNL     1       4.650  10.177  93.150  1.00  0.00     0.056 A 
HETATM   20  C   UNL     1       4.308   8.854  92.963  1.00  0.00     0.005 A 
HETATM   21  C   UNL     1       5.323   7.903  92.864  1.00  0.00     0.008 A 
BRANCH  19  22
HETATM   22  C   UNL     1       3.568  11.190  93.258  1.00  0.00     0.254 C 
HETATM   23  O   UNL     1       2.706  11.056  94.124  1.00  0.00    -0.268 OA
HETATM   24  N   UNL     1       3.633  12.248  92.362  1.00  0.00    -0.335 N 
HETATM   25  HN  UNL     1       4.390  12.305  91.691  1.00  0.00     0.164 HD
BRANCH  24  26
HETATM   26  C   UNL     1       2.672  13.320  92.358  1.00  0.00     0.169 C 
BRANCH  26  27
HETATM   27  C   UNL     1       3.009  14.424  93.368  1.00  0.00     0.138 C 
HETATM   28  C   UNL     1       4.267  15.197  92.990  1.00  0.00     0.034 C 
BRANCH  27  29
HETATM   29  O   UNL     1       1.915  15.337  93.461  1.00  0.00    -0.383 OA
HETATM   30  H   UNL     1       2.125  16.120  92.926  1.00  0.00     0.210 HD
ENDBRANCH  27  29
ENDBRANCH  26  27
BRANCH  26  31
HETATM   31  C   UNL     1       2.596  13.872  90.938  1.00  0.00     0.194 C 
HETATM   32  O   UNL     1       1.806  14.753  90.603  1.00  0.00    -0.289 OA
BRANCH  31  33
HETATM   33  C   UNL     1       3.478  13.246  90.090  1.00  0.00     0.053 C 
BRANCH  33  34
HETATM   34  C   UNL     1       4.011  14.043  89.067  1.00  0.00     0.220 C 
BRANCH  34  35
HETATM   35  O   UNL     1       4.686  14.944  89.600  1.00  0.00    -0.371 OA
HETATM   36  H   UNL     1       5.109  15.271  88.821  1.00  0.00     0.211 HD
ENDBRANCH  34  35
BRANCH  34  37
HETATM   37  C   UNL     1       4.748  13.316  88.117  1.00  0.00     0.185 C 
HETATM   38  O   UNL     1       5.266  12.743  89.192  1.00  0.00    -0.647 OA
BRANCH  37  39
HETATM   39  O   UNL     1       4.858  13.292  86.928  1.00  0.00    -0.774 OA
HETATM   40  H   UNL     1       3.848  13.351  86.413  1.00  0.00     0.167 HD
ENDBRANCH  37  39
ENDBRANCH  34  37
ENDBRANCH  33  34
ENDBRANCH  31  33
ENDBRANCH  26  31
ENDBRANCH  24  26
ENDBRANCH  19  22
ENDBRANCH  15  16
ENDBRANCH  11  14
ENDBRANCH   7   8
ENDBRANCH   2   7
TORSDOF 14
ENDMDL
MODEL 2
REMARK VINA RESULT:      -5.2      2.792     13.142
REMARK  14 active torsions:
REMARK  status: ('A' for Active; 'I' for Inactive)
REMARK    1  A    between atoms: O_2  and  C_18 
REMARK    2  A    between atoms: C_5  and  C_8 
REMARK    3  A    between atoms: C_5  and  O_35 
REMARK    4  A    between atoms: C_5  and  C_36 
REMARK    5  A    between atoms: N_6  and  C_11 
REMARK    6  A    between atoms: N_7  and  C_15 
REMARK       I    between atoms: N_7  and  C_24 
REMARK    7  A    between atoms: C_8  and  C_23 
REMARK    8  A    between atoms: C_11  and  C_14 
REMARK    9  A    between atoms: C_15  and  C_18 
REMARK   10  A    between atoms: C_15  and  C_23 
REMARK   11  A    between atoms: C_21  and  C_26 
REMARK   12  A    between atoms: C_24  and  C_25 
REMARK   13  A    between atoms: C_29  and  C_32 
REMARK   14  A    between atoms: C_36  and  O_39 
ROOT
HETATM    1  O   UNL     1       2.771  14.407  93.937  1.00  0.00    -0.350 OA
HETATM    2  N   UNL     1       2.592  14.500  91.098  1.00  0.00     0.147 N 
HETATM    3  C   UNL     1       1.663  13.692  91.900  1.00  0.00     0.283 C 
HETATM    4  C   UNL     1       3.882  14.620  91.791  1.00  0.00     0.283 C 
HETATM    5  C   UNL     1       1.503  14.311  93.286  1.00  0.00     0.178 C 
HETATM    6  C   UNL     1       3.670  15.216  93.179  1.00  0.00     0.178 C 
ENDROOT
BRANCH   2   7
HETATM    7  C   UNL     1       2.768  13.919  89.768  1.00  0.00     0.277 C 
BRANCH   7   8
HETATM    8  C   UNL     1       3.764  12.809  89.761  1.00  0.00     0.011 A 
HETATM    9  C   UNL     1       3.406  11.550  90.244  1.00  0.00    -0.002 A 
HETATM   10  C   UNL     1       4.337  10.511  90.240  1.00  0.00     0.008 A 
HETATM   11  C   UNL     1       5.625  10.732  89.751  1.00  0.00     0.042 A 
HETATM   12  C   UNL     1       5.983  11.989  89.268  1.00  0.00     0.008 A 
HETATM   13  C   UNL     1       5.052  13.028  89.273  1.00  0.00    -0.002 A 
BRANCH  11  14
HETATM   14  C   UNL     1       6.579   9.666  89.745  1.00  0.00    -0.059 C 
HETATM   15  C   UNL     1       7.380   8.770  89.739  1.00  0.00    -0.059 C 
BRANCH  15  16
HETATM   16  C   UNL     1       8.334   7.705  89.732  1.00  0.00     0.042 A 
HETATM   17  C   UNL     1       8.663   7.073  88.532  1.00  0.00     0.008 A 
HETATM   18  C   UNL     1       9.596   6.035  88.525  1.00  0.00     0.005 A 
HETATM   19  C   UNL     1      10.178   5.654  89.716  1.00  0.00     0.056 A 
HETATM   20  C   UNL     1       9.869   6.262  90.914  1.00  0.00     0.005 A 
HETATM   21  C   UNL     1       8.937   7.300  90.923  1.00  0.00     0.008 A 
BRANCH  19  22
HETATM   22  C   UNL     1      11.169   4.547  89.708  1.00  0.00     0.254 C 
HETATM   23  O   UNL     1      11.329   3.893  88.681  1.00  0.00    -0.268 OA
HETATM   24  N   UNL     1      11.873   4.353  90.889  1.00  0.00    -0.335 N 
HETATM   25  HN  UNL     1      11.704   4.950  91.690  1.00  0.00     0.164 HD
BRANCH  24  26
HETATM   26  C   UNL     1      12.884   3.337  91.030  1.00  0.00     0.169 C 
BRANCH  26  27
HETATM   27  C   UNL     1      14.306   3.887  90.863  1.00  0.00     0.138 C 
HETATM   28  C   UNL     1      15.123   3.094  89.849  1.00  0.00     0.034 C 
BRANCH  27  29
HETATM   29  O   UNL     1      14.244   5.250  90.443  1.00  0.00    -0.383 OA
HETATM   30  H   UNL     1      14.876   5.762  90.976  1.00  0.00     0.210 HD
ENDBRANCH  27  29
ENDBRANCH  26  27
BRANCH  26  31
HETATM   31  C   UNL     1      12.700   2.683  92.396  1.00  0.00     0.194 C 
HETATM   32  O   UNL     1      12.080   1.634  92.559  1.00  0.00    -0.289 OA
BRANCH  31  33
HETATM   33  C   UNL     1      13.269   3.421  93.406  1.00  0.00     0.053 C 
BRANCH  33  34
HETATM   34  C   UNL     1      14.420   2.872  93.989  1.00  0.00     0.220 C 
BRANCH  34  35
HETATM   35  O   UNL     1      14.595   1.743  93.494  1.00  0.00    -0.371 OA
HETATM   36  H   UNL     1      15.240   1.981  92.845  1.00  0.00     0.211 HD
ENDBRANCH  34  35
BRANCH  34  37
HETATM   37  C   UNL     1      15.556   3.691  93.866  1.00  0.00     0.185 C 
HETATM   38  O   UNL     1      16.155   2.543  93.589  1.00  0.00    -0.647 OA
BRANCH  37  39
HETATM   39  O   UNL     1      15.818   4.848  94.004  1.00  0.00    -0.774 OA
HETATM   40  H   UNL     1      16.924   5.047  93.848  1.00  0.00     0.167 HD
ENDBRANCH  37  39
ENDBRANCH  34  37
ENDBRANCH  33  34
ENDBRANCH  31  33
ENDBRANCH  26  31
ENDBRANCH  24  26
ENDBRANCH  19  22
ENDBRANCH  15  16
ENDBRANCH  11  14
ENDBRANCH   7   8
ENDBRANCH   2   7
TORSDOF 14
ENDMDL
MODEL 3
REMARK VINA RESULT:      -5.2      1.516      3.225
REMARK  14 active torsions:
REMARK  status: ('A' for Active; 'I' for Inactive)
REMARK    1  A    between atoms: O_2  and  C_18 
REMARK    2  A    between atoms: C_5  and  C_8 
REMARK    3  A    between atoms: C_5  and  O_35 
REMARK    4  A    between atoms: C_5  and  C_36 
REMARK    5  A    between atoms: N_6  and  C_11 
REMARK    6  A    between atoms: N_7  and  C_15 
REMARK       I    between atoms: N_7  and  C_24 
REMARK    7  A    between atoms: C_8  and  C_23 
REMARK    8  A    between atoms: C_11  and  C_14 
REMARK    9  A    between atoms: C_15  and  C_18 
REMARK   10  A    between atoms: C_15  and  C_23 
REMARK   11  A    between atoms: C_21  and  C_26 
REMARK   12  A    between atoms: C_24  and  C_25 
REMARK   13  A    between atoms: C_29  and  C_32 
REMARK   14  A    between atoms: C_36  and  O_39 
ROOT
HETATM    1  O   UNL     1      16.732   3.274  93.520  1.00  0.00    -0.350 OA
HETATM    2  N   UNL     1      13.960   2.858  93.024  1.00  0.00     0.147 N 
HETATM    3  C   UNL     1      14.879   1.732  93.243  1.00  0.00     0.283 C 
HETATM    4  C   UNL     1      14.685   3.991  92.433  1.00  0.00     0.283 C 
HETATM    5  C   UNL     1      16.043   2.178  94.124  1.00  0.00     0.178 C 
HETATM    6  C   UNL     1      15.853   4.384  93.332  1.00  0.00     0.178 C 
ENDROOT
BRANCH   2   7
HETATM    7  C   UNL     1      12.842   2.455  92.173  1.00  0.00     0.277 C 
BRANCH   7   8
HETATM    8  C   UNL     1      11.842   3.547  91.995  1.00  0.00     0.011 A 
HETATM    9  C   UNL     1      11.442   3.922  90.711  1.00  0.00    -0.002 A 
HETATM   10  C   UNL     1      10.508   4.945  90.543  1.00  0.00     0.008 A 
HETATM   11  C   UNL     1       9.975   5.591  91.658  1.00  0.00     0.042 A 
HETATM   12  C   UNL     1      10.374   5.217  92.940  1.00  0.00     0.008 A 
HETATM   13  C   UNL     1      11.307   4.195  93.108  1.00  0.00    -0.002 A 
BRANCH  11  14
HETATM   14  C   UNL     1       9.016   6.638  91.486  1.00  0.00    -0.059 C 
HETATM   15  C   UNL     1       8.210   7.519  91.341  1.00  0.00    -0.059 C 
BRANCH  15  16
HETATM   16  C   UNL     1       7.252   8.567  91.169  1.00  0.00     0.042 A 
HETATM   17  C   UNL     1       6.064   8.317  90.482  1.00  0.00     0.008 A 
HETATM   18  C   UNL     1       5.129   9.339  90.316  1.00  0.00     0.005 A 
HETATM   19  C   UNL     1       5.402  10.585  90.841  1.00  0.00     0.056 A 
HETATM   20  C   UNL     1       6.569  10.856  91.523  1.00  0.00     0.005 A 
HETATM   21  C   UNL     1       7.505   9.836  91.689  1.00  0.00     0.008 A 
BRANCH  19  22
HETATM   22  C   UNL     1       4.406  11.673  90.662  1.00  0.00     0.254 C 
HETATM   23  O   UNL     1       3.433  11.482  89.937  1.00  0.00    -0.268 OA
HETATM   24  N   UNL     1       4.651  12.843  91.368  1.00  0.00    -0.335 N 
HETATM   25  HN  UNL     1       5.464  12.919  91.968  1.00  0.00     0.164 HD
BRANCH  24  26
HETATM   26  C   UNL     1       3.765  13.978  91.317  1.00  0.00     0.169 C 
BRANCH  26  27
HETATM   27  C   UNL     1       3.594  14.535  89.898  1.00  0.00     0.138 C 
HETATM   28  C   UNL     1       4.919  14.964  89.276  1.00  0.00     0.034 C 
BRANCH  27  29
HETATM   29  O   UNL     1       2.990  13.546  89.067  1.00  0.00    -0.383 OA
HETATM   30  H   UNL     1       2.952  13.892  88.159  1.00  0.00     0.210 HD
ENDBRANCH  27  29
ENDBRANCH  26  27
BRANCH  26  31
HETATM   31  C   UNL     1       2.426  13.552  91.910  1.00  0.00     0.194 C 
HETATM   32  O   UNL     1       1.344  13.884  91.430  1.00  0.00    -0.289 OA
BRANCH  31  33
HETATM   33  C   UNL     1       2.579  12.797  93.048  1.00  0.00     0.053 C 
BRANCH  33  34
HETATM   34  C   UNL     1       1.874  11.586  93.077  1.00  0.00     0.220 C 
BRANCH  34  35
HETATM   35  O   UNL     1       1.460  11.360  91.924  1.00  0.00    -0.371 OA
HETATM   36  H   UNL     1       0.845  12.074  91.860  1.00  0.00     0.211 HD
ENDBRANCH  34  35
BRANCH  34  37
HETATM   37  C   UNL     1       2.621  10.515  93.596  1.00  0.00     0.185 C 
HETATM   38  O   UNL     1       1.484   9.854  93.437  1.00  0.00    -0.647 OA
BRANCH  37  39
HETATM   39  O   UNL     1       3.727  10.341  94.013  1.00  0.00    -0.774 OA
HETATM   40  H   UNL     1       3.801  10.587  95.118  1.00  0.00     0.167 HD
ENDBRANCH  37  39
ENDBRANCH  34  37
ENDBRANCH  33  34
ENDBRANCH  31  33
ENDBRANCH  26  31
ENDBRANCH  24  26
ENDBRANCH  19  22
ENDBRANCH  15  16
ENDBRANCH  11  14
ENDBRANCH   7   8
ENDBRANCH   2   7
TORSDOF 14
ENDMDL
MODEL 4
REMARK VINA RESULT:      -5.1      3.006     12.728
REMARK  14 active torsions:
REMARK  status: ('A' for Active; 'I' for Inactive)
REMARK    1  A    between atoms: O_2  and  C_18 
REMARK    2  A    between atoms: C_5  and  C_8 
REMARK    3  A    between atoms: C_5  and  O_35 
REMARK    4  A    between atoms: C_5  and  C_36 
REMARK    5  A    between atoms: N_6  and  C_11 
REMARK    6  A    between atoms: N_7  and  C_15 
REMARK       I    between atoms: N_7  and  C_24 
REMARK    7  A    between atoms: C_8  and  C_23 
REMARK    8  A    between atoms: C_11  and  C_14 
REMARK    9  A    between atoms: C_15  and  C_18 
REMARK   10  A    between atoms: C_15  and  C_23 
REMARK   11  A    between atoms: C_21  and  C_26 
REMARK   12  A    between atoms: C_24  and  C_25 
REMARK   13  A    between atoms: C_29  and  C_32 
REMARK   14  A    between atoms: C_36  and  O_39 
ROOT
HETATM    1  O   UNL     1       3.081  14.484  93.831  1.00  0.00    -0.350 OA
HETATM    2  N   UNL     1       2.857  14.569  90.995  1.00  0.00     0.147 N 
HETATM    3  C   UNL     1       1.872  13.860  91.822  1.00  0.00     0.283 C 
HETATM    4  C   UNL     1       4.166  14.573  91.663  1.00  0.00     0.283 C 
HETATM    5  C   UNL     1       1.798  14.503  93.204  1.00  0.00     0.178 C 
HETATM    6  C   UNL     1       4.038  15.199  93.048  1.00  0.00     0.178 C 
ENDROOT
BRANCH   2   7
HETATM    7  C   UNL     1       2.953  13.963  89.668  1.00  0.00     0.277 C 
BRANCH   7   8
HETATM    8  C   UNL     1       3.882  12.797  89.642  1.00  0.00     0.011 A 
HETATM    9  C   UNL     1       5.216  12.978  89.273  1.00  0.00    -0.002 A 
HETATM   10  C   UNL     1       6.085  11.888  89.247  1.00  0.00     0.008 A 
HETATM   11  C   UNL     1       5.622  10.618  89.591  1.00  0.00     0.042 A 
HETATM   12  C   UNL     1       4.290  10.437  89.960  1.00  0.00     0.008 A 
HETATM   13  C   UNL     1       3.420  11.527  89.986  1.00  0.00    -0.002 A 
BRANCH  11  14
HETATM   14  C   UNL     1       6.514   9.501  89.565  1.00  0.00    -0.059 C 
HETATM   15  C   UNL     1       7.265   8.562  89.543  1.00  0.00    -0.059 C 
BRANCH  15  16
HETATM   16  C   UNL     1       8.158   7.445  89.518  1.00  0.00     0.042 A 
HETATM   17  C   UNL     1       7.756   6.219  90.049  1.00  0.00     0.008 A 
HETATM   18  C   UNL     1       8.626   5.130  90.022  1.00  0.00     0.005 A 
HETATM   19  C   UNL     1       9.877   5.290  89.464  1.00  0.00     0.056 A 
HETATM   20  C   UNL     1      10.298   6.491  88.933  1.00  0.00     0.005 A 
HETATM   21  C   UNL     1       9.429   7.581  88.960  1.00  0.00     0.008 A 
BRANCH  19  22
HETATM   22  C   UNL     1      10.805   4.129  89.437  1.00  0.00     0.254 C 
HETATM   23  O   UNL     1      10.794   3.376  88.466  1.00  0.00    -0.268 OA
HETATM   24  N   UNL     1      11.649   4.000  90.531  1.00  0.00    -0.335 N 
HETATM   25  HN  UNL     1      11.618   4.676  91.285  1.00  0.00     0.164 HD
BRANCH  24  26
HETATM   26  C   UNL     1      12.620   2.941  90.640  1.00  0.00     0.169 C 
BRANCH  26  27
HETATM   27  C   UNL     1      14.060   3.464  90.728  1.00  0.00     0.138 C 
HETATM   28  C   UNL     1      14.128   4.986  90.763  1.00  0.00     0.034 C 
BRANCH  27  29
HETATM   29  O   UNL     1      14.685   2.945  91.902  1.00  0.00    -0.383 OA
HETATM   30  H   UNL     1      14.013   2.879  92.601  1.00  0.00     0.210 HD
ENDBRANCH  27  29
ENDBRANCH  26  27
BRANCH  26  31
HETATM   31  C   UNL     1      12.259   2.102  91.861  1.00  0.00     0.194 C 
HETATM   32  O   UNL     1      12.733   0.987  92.070  1.00  0.00    -0.289 OA
BRANCH  31  33
HETATM   33  C   UNL     1      11.327   2.720  92.658  1.00  0.00     0.053 C 
BRANCH  33  34
HETATM   34  C   UNL     1      11.801   3.209  93.884  1.00  0.00     0.220 C 
BRANCH  34  35
HETATM   35  O   UNL     1      12.973   2.811  94.024  1.00  0.00    -0.371 OA
HETATM   36  H   UNL     1      12.839   1.911  93.770  1.00  0.00     0.211 HD
ENDBRANCH  34  35
BRANCH  34  37
HETATM   37  C   UNL     1      11.691   4.604  94.010  1.00  0.00     0.185 C 
HETATM   38  O   UNL     1      13.013   4.544  94.050  1.00  0.00    -0.647 OA
BRANCH  37  39
HETATM   39  O   UNL     1      10.812   5.408  94.088  1.00  0.00    -0.774 OA
HETATM   40  H   UNL     1      10.217   5.473  93.124  1.00  0.00     0.167 HD
ENDBRANCH  37  39
ENDBRANCH  34  37
ENDBRANCH  33  34
ENDBRANCH  31  33
ENDBRANCH  26  31
ENDBRANCH  24  26
ENDBRANCH  19  22
ENDBRANCH  15  16
ENDBRANCH  11  14
ENDBRANCH   7   8
ENDBRANCH   2   7
TORSDOF 14
ENDMDL
