MODEL 1
REMARK VINA RESULT:      -7.5      0.000      0.000
REMARK  9 active torsions:
REMARK  status: ('A' for Active; 'I' for Inactive)
REMARK    1  A    between atoms: N_3  and  C_6 
REMARK    2  A    between atoms: C_6  and  C_9 
REMARK    3  A    between atoms: C_14  and  C_17 
REMARK       I    between atoms: N_26  and  C_15 
REMARK    4  A    between atoms: C_15  and  C_16 
REMARK    5  A    between atoms: C_20  and  C_23 
REMARK    6  A    between atoms: OG1_24  and  CB_28 
REMARK    7  A    between atoms: N_26  and  CA_27 
REMARK    8  A    between atoms: CA_27  and  CB_28 
REMARK    9  A    between atoms: CA_27  and  C_30 
ROOT
HETATM    1  O   UNK A   0       1.895   8.141  87.835  1.00  0.00    -0.388 OA
HETATM    2  N   UNK A   0       4.683   7.588  87.675  1.00  0.00     0.096 N 
HETATM    3  C   UNK A   0       4.177   8.964  87.771  1.00  0.00     0.299 C 
HETATM    4  C   UNK A   0       3.689   6.732  87.011  1.00  0.00     0.299 C 
HETATM    5  C   UNK A   0       2.841   8.974  88.509  1.00  0.00     0.198 C 
HETATM    6  C   UNK A   0       2.365   6.795  87.765  1.00  0.00     0.198 C 
ENDROOT
BRANCH   2   7
HETATM    7  C   UNK A   0       5.958   7.553  86.961  1.00  0.00     0.311 C 
BRANCH   7   8
HETATM    8  C   UNK A   0       7.050   6.951  87.779  1.00  0.00    -0.030 A 
HETATM    9  C   UNK A   0       8.297   6.706  87.203  1.00  0.00     0.010 A 
HETATM   10  C   UNK A   0       9.318   6.140  87.966  1.00  0.00     0.021 A 
HETATM   11  C   UNK A   0       9.093   5.823  89.305  1.00  0.00     0.018 A 
HETATM   12  C   UNK A   0       7.848   6.067  89.881  1.00  0.00     0.021 A 
HETATM   13  C   UNK A   0       6.826   6.632  89.118  1.00  0.00     0.010 A 
BRANCH  11  14
HETATM   14  C   UNK A   0      10.141   5.245  90.088  1.00  0.00    -0.061 C 
HETATM   15  C   UNK A   0      11.023   4.760  90.746  1.00  0.00    -0.061 C 
BRANCH  15  16
HETATM   16  C   UNK A   0      12.071   4.183  91.529  1.00  0.00     0.018 A 
HETATM   17  C   UNK A   0      11.827   3.808  92.851  1.00  0.00     0.022 A 
HETATM   18  C   UNK A   0      12.848   3.243  93.614  1.00  0.00     0.018 A 
HETATM   19  C   UNK A   0      14.089   3.064  93.039  1.00  0.00     0.032 A 
HETATM   20  C   UNK A   0      14.355   3.426  91.735  1.00  0.00     0.018 A 
HETATM   21  C   UNK A   0      13.335   3.992  90.971  1.00  0.00     0.022 A 
BRANCH  19  22
HETATM   22  C   UNK A   0      15.178   2.464  93.853  1.00  0.00     0.252 C 
HETATM   23  O   UNK A   0      16.334   2.842  93.682  1.00  0.00    -0.268 OA
ENDBRANCH  19  22
ENDBRANCH  15  16
ENDBRANCH  11  14
ENDBRANCH   7   8
ENDBRANCH   2   7
TORSDOF 9
ENDMDL
