MODEL 1
REMARK VINA RESULT:      -6.1      0.000      0.000
REMARK  12 active torsions:
REMARK  status: ('A' for Active; 'I' for Inactive)
REMARK    1  A    between atoms: O_2  and  C_16 
REMARK    2  A    between atoms: N_5  and  C_9 
REMARK    3  A    between atoms: N_6  and  C_13 
REMARK       I    between atoms: N_6  and  C_22 
REMARK    4  A    between atoms: C_9  and  C_12 
REMARK    5  A    between atoms: C_13  and  C_16 
REMARK    6  A    between atoms: C_13  and  C_21 
REMARK    7  A    between atoms: C_19  and  C_24 
REMARK    8  A    between atoms: C_21  and  C_33 
REMARK    9  A    between atoms: C_22  and  C_23 
REMARK   10  A    between atoms: C_27  and  C_30 
REMARK   11  A    between atoms: C_33  and  C_34 
REMARK   12  A    between atoms: C_34  and  C_35 
ROOT
HETATM    1  O   UNL     1      16.656   3.560  93.788  1.00  0.00    -0.350 OA
HETATM    2  N   UNL     1      14.077   3.095  92.675  1.00  0.00     0.147 N 
HETATM    3  C   UNL     1      14.995   1.988  92.974  1.00  0.00     0.283 C 
HETATM    4  C   UNL     1      14.841   4.312  92.365  1.00  0.00     0.283 C 
HETATM    5  C   UNL     1      15.922   2.380  94.122  1.00  0.00     0.178 C 
HETATM    6  C   UNL     1      15.771   4.650  93.526  1.00  0.00     0.178 C 
ENDROOT
BRANCH   2   7
HETATM    7  C   UNL     1      13.186   2.745  91.570  1.00  0.00     0.277 C 
BRANCH   7   8
HETATM    8  C   UNL     1      12.014   3.661  91.473  1.00  0.00     0.011 A 
HETATM    9  C   UNL     1      11.766   4.351  90.286  1.00  0.00    -0.002 A 
HETATM   10  C   UNL     1      10.671   5.210  90.195  1.00  0.00     0.008 A 
HETATM   11  C   UNL     1       9.824   5.377  91.291  1.00  0.00     0.042 A 
HETATM   12  C   UNL     1      10.071   4.688  92.476  1.00  0.00     0.008 A 
HETATM   13  C   UNL     1      11.166   3.829  92.568  1.00  0.00    -0.002 A 
BRANCH  11  14
HETATM   14  C   UNL     1       8.699   6.256  91.196  1.00  0.00    -0.059 C 
HETATM   15  C   UNL     1       7.754   6.995  91.118  1.00  0.00    -0.059 C 
BRANCH  15  16
HETATM   16  C   UNL     1       6.630   7.874  91.025  1.00  0.00     0.042 A 
HETATM   17  C   UNL     1       6.425   8.848  92.002  1.00  0.00     0.008 A 
HETATM   18  C   UNL     1       5.330   9.708  91.909  1.00  0.00     0.005 A 
HETATM   19  C   UNL     1       4.466   9.574  90.843  1.00  0.00     0.056 A 
HETATM   20  C   UNL     1       4.646   8.619  89.864  1.00  0.00     0.005 A 
HETATM   21  C   UNL     1       5.741   7.759  89.956  1.00  0.00     0.008 A 
BRANCH  19  22
HETATM   22  C   UNL     1       3.299  10.488  90.745  1.00  0.00     0.254 C 
HETATM   23  O   UNL     1       2.330  10.154  90.067  1.00  0.00    -0.268 OA
HETATM   24  N   UNL     1       3.389  11.669  91.469  1.00  0.00    -0.335 N 
HETATM   25  HN  UNL     1       4.211  11.866  92.028  1.00  0.00     0.164 HD
BRANCH  24  26
HETATM   26  C   UNL     1       2.330  12.645  91.496  1.00  0.00     0.166 C 
BRANCH  26  27
HETATM   27  C   UNL     1       1.719  12.821  92.892  1.00  0.00     0.138 C 
HETATM   28  C   UNL     1       1.471  11.489  93.592  1.00  0.00     0.034 C 
BRANCH  27  29
HETATM   29  O   UNL     1       2.591  13.613  93.699  1.00  0.00    -0.383 OA
HETATM   30  H   UNL     1       3.245  13.023  94.110  1.00  0.00     0.210 HD
ENDBRANCH  27  29
ENDBRANCH  26  27
BRANCH  26  31
HETATM   31  C   UNL     1       2.896  13.960  90.969  1.00  0.00     0.181 C 
HETATM   32  O   UNL     1       2.635  15.051  91.474  1.00  0.00    -0.294 OA
BRANCH  31  33
HETATM   33  C   UNL     1       4.509  13.905  90.819  1.00  0.00     0.138 C 
BRANCH  33  34
HETATM   34  C   UNL     1       4.671  14.289  89.470  1.00  0.00     0.208 C 
HETATM   35  O   UNL     1       5.170  15.375  89.282  1.00  0.00    -0.289 OA
BRANCH  34  36
HETATM   36  C   UNL     1       4.630  13.544  88.324  1.00  0.00     0.194 C 
HETATM   37  O   UNL     1       5.237  13.761  87.081  1.00  0.00    -0.185 OA
ENDBRANCH  34  36
ENDBRANCH  33  34
ENDBRANCH  31  33
ENDBRANCH  26  31
ENDBRANCH  24  26
ENDBRANCH  19  22
ENDBRANCH  15  16
ENDBRANCH  11  14
ENDBRANCH   7   8
ENDBRANCH   2   7
TORSDOF 12
ENDMDL
