MODEL 1
REMARK VINA RESULT:      -7.0      0.000      0.000
REMARK  10 active torsions:
REMARK  status: ('A' for Active; 'I' for Inactive)
REMARK    1  A    between atoms: O_2  and  C_16 
REMARK    2  A    between atoms: N_5  and  C_9 
REMARK    3  A    between atoms: N_6  and  C_13 
REMARK       I    between atoms: N_6  and  C_22 
REMARK    4  A    between atoms: C_9  and  C_12 
REMARK    5  A    between atoms: C_13  and  C_16 
REMARK    6  A    between atoms: C_13  and  C_21 
REMARK    7  A    between atoms: C_19  and  C_24 
REMARK    8  A    between atoms: C_22  and  C_23 
REMARK    9  A    between atoms: C_27  and  C_30 
REMARK   10  A    between atoms: N_33  and  S_34 
ROOT
HETATM    1  C   UNL     1       5.646  11.031  89.575  1.00  0.00     0.056 A 
HETATM    2  C   UNL     1       6.998  11.200  89.362  1.00  0.00     0.005 A 
HETATM    3  C   UNL     1       5.117   9.850  90.051  1.00  0.00     0.005 A 
HETATM    4  C   UNL     1       7.351   8.934  90.120  1.00  0.00     0.042 A 
HETATM    5  C   UNL     1       7.861  10.140  89.637  1.00  0.00     0.008 A 
HETATM    6  C   UNL     1       5.980   8.789  90.327  1.00  0.00     0.008 A 
ENDROOT
BRANCH   1   7
HETATM    7  C   UNL     1       4.727  12.162  89.283  1.00  0.00     0.254 C 
HETATM    8  O   UNL     1       4.605  12.553  88.125  1.00  0.00    -0.268 OA
HETATM    9  N   UNL     1       4.041  12.684  90.371  1.00  0.00    -0.337 N 
HETATM   10  HN  UNL     1       4.173  12.293  91.297  1.00  0.00     0.164 HD
BRANCH   9  11
HETATM   11  C   UNL     1       3.097  13.766  90.247  1.00  0.00     0.172 C 
BRANCH  11  12
HETATM   12  C   UNL     1       1.845  13.562  91.109  1.00  0.00     0.136 C 
HETATM   13  C   UNL     1       1.991  12.401  92.087  1.00  0.00     0.034 C 
BRANCH  12  14
HETATM   14  O   UNL     1       1.572  14.755  91.844  1.00  0.00    -0.383 OA
HETATM   15  H   UNL     1       1.246  14.503  92.724  1.00  0.00     0.210 HD
ENDBRANCH  12  14
ENDBRANCH  11  12
BRANCH  11  16
HETATM   16  C   UNL     1       3.818  15.058  90.613  1.00  0.00     0.398 A 
HETATM   17  O   UNL     1       4.884  15.398  90.103  1.00  0.00    -0.136 OA
HETATM   18  N   UNL     1       4.922  15.625  91.605  1.00  0.00     0.142 N 
HETATM   19  HN  UNL     1       5.814  15.970  91.386  1.00  0.00     0.338 HD
BRANCH  18  20
HETATM   20  S   UNL     1       4.338  15.236  92.805  1.00  0.00     0.076 SA
HETATM   21  H   UNL     1       5.053  15.193  93.754  1.00  0.00     0.136 HD
ENDBRANCH  18  20
ENDBRANCH  11  16
ENDBRANCH   9  11
ENDBRANCH   1   7
BRANCH   4  22
HETATM   22  C   UNL     1       8.236   7.846  90.399  1.00  0.00    -0.059 C 
HETATM   23  C   UNL     1       8.979   6.931  90.635  1.00  0.00    -0.059 C 
BRANCH  23  24
HETATM   24  C   UNL     1       9.864   5.842  90.915  1.00  0.00     0.042 A 
HETATM   25  C   UNL     1      10.034   5.403  92.227  1.00  0.00     0.008 A 
HETATM   26  C   UNL     1      10.898   4.343  92.501  1.00  0.00    -0.002 A 
HETATM   27  C   UNL     1      11.589   3.720  91.460  1.00  0.00     0.011 A 
HETATM   28  C   UNL     1      11.416   4.160  90.148  1.00  0.00    -0.002 A 
HETATM   29  C   UNL     1      10.553   5.221  89.875  1.00  0.00     0.008 A 
BRANCH  27  30
HETATM   30  C   UNL     1      12.510   2.585  91.754  1.00  0.00     0.277 C 
BRANCH  30  31
HETATM   31  N   UNL     1      13.512   2.927  92.761  1.00  0.00     0.147 N 
HETATM   32  C   UNL     1      14.349   1.762  93.079  1.00  0.00     0.283 C 
HETATM   33  C   UNL     1      15.394   2.146  94.124  1.00  0.00     0.178 C 
HETATM   34  O   UNL     1      16.201   3.225  93.647  1.00  0.00    -0.350 OA
HETATM   35  C   UNL     1      15.398   4.372  93.366  1.00  0.00     0.178 C 
HETATM   36  C   UNL     1      14.353   4.042  92.304  1.00  0.00     0.283 C 
ENDBRANCH  30  31
ENDBRANCH  27  30
ENDBRANCH  23  24
ENDBRANCH   4  22
TORSDOF 10
ENDMDL
MODEL 2
REMARK VINA RESULT:      -6.6      1.081      1.182
REMARK  10 active torsions:
REMARK  status: ('A' for Active; 'I' for Inactive)
REMARK    1  A    between atoms: O_2  and  C_16 
REMARK    2  A    between atoms: N_5  and  C_9 
REMARK    3  A    between atoms: N_6  and  C_13 
REMARK       I    between atoms: N_6  and  C_22 
REMARK    4  A    between atoms: C_9  and  C_12 
REMARK    5  A    between atoms: C_13  and  C_16 
REMARK    6  A    between atoms: C_13  and  C_21 
REMARK    7  A    between atoms: C_19  and  C_24 
REMARK    8  A    between atoms: C_22  and  C_23 
REMARK    9  A    between atoms: C_27  and  C_30 
REMARK   10  A    between atoms: N_33  and  S_34 
ROOT
HETATM    1  C   UNL     1       4.665  10.184  90.414  1.00  0.00     0.056 A 
HETATM    2  C   UNL     1       5.897  10.592  90.880  1.00  0.00     0.005 A 
HETATM    3  C   UNL     1       4.397   8.869  90.096  1.00  0.00     0.005 A 
HETATM    4  C   UNL     1       6.662   8.307  90.719  1.00  0.00     0.042 A 
HETATM    5  C   UNL     1       6.908   9.643  91.034  1.00  0.00     0.008 A 
HETATM    6  C   UNL     1       5.407   7.919  90.250  1.00  0.00     0.008 A 
ENDROOT
BRANCH   1   7
HETATM    7  C   UNL     1       3.588  11.194  90.252  1.00  0.00     0.254 C 
HETATM    8  O   UNL     1       2.764  11.053  89.351  1.00  0.00    -0.268 OA
HETATM    9  N   UNL     1       3.585  12.233  91.172  1.00  0.00    -0.337 N 
HETATM   10  HN  UNL     1       4.283  12.270  91.906  1.00  0.00     0.164 HD
BRANCH   9  11
HETATM   11  C   UNL     1       2.591  13.276  91.161  1.00  0.00     0.172 C 
BRANCH  11  12
HETATM   12  C   UNL     1       2.151  13.692  92.571  1.00  0.00     0.136 C 
HETATM   13  C   UNL     1       3.106  13.196  93.651  1.00  0.00     0.034 C 
BRANCH  12  14
HETATM   14  O   UNL     1       2.067  15.115  92.644  1.00  0.00    -0.383 OA
HETATM   15  H   UNL     1       2.932  15.457  92.925  1.00  0.00     0.210 HD
ENDBRANCH  12  14
ENDBRANCH  11  12
BRANCH  11  16
HETATM   16  C   UNL     1       3.166  14.459  90.389  1.00  0.00     0.398 A 
HETATM   17  O   UNL     1       3.617  14.359  89.249  1.00  0.00    -0.136 OA
HETATM   18  N   UNL     1       4.538  15.209  90.109  1.00  0.00     0.142 N 
HETATM   19  HN  UNL     1       5.034  15.270  89.265  1.00  0.00     0.338 HD
BRANCH  18  20
HETATM   20  S   UNL     1       4.892  15.487  91.425  1.00  0.00     0.076 SA
HETATM   21  H   UNL     1       6.052  15.621  91.646  1.00  0.00     0.136 HD
ENDBRANCH  18  20
ENDBRANCH  11  16
ENDBRANCH   9  11
ENDBRANCH   1   7
BRANCH   4  22
HETATM   22  C   UNL     1       7.699   7.335  90.875  1.00  0.00    -0.059 C 
HETATM   23  C   UNL     1       8.571   6.517  91.004  1.00  0.00    -0.059 C 
BRANCH  23  24
HETATM   24  C   UNL     1       9.609   5.545  91.159  1.00  0.00     0.042 A 
HETATM   25  C   UNL     1       9.848   4.975  92.409  1.00  0.00     0.008 A 
HETATM   26  C   UNL     1      10.861   4.028  92.561  1.00  0.00    -0.002 A 
HETATM   27  C   UNL     1      11.634   3.651  91.462  1.00  0.00     0.011 A 
HETATM   28  C   UNL     1      11.393   4.222  90.212  1.00  0.00    -0.002 A 
HETATM   29  C   UNL     1      10.380   5.169  90.061  1.00  0.00     0.008 A 
BRANCH  27  30
HETATM   30  C   UNL     1      12.715   2.638  91.625  1.00  0.00     0.277 C 
BRANCH  30  31
HETATM   31  N   UNL     1      13.662   2.999  92.678  1.00  0.00     0.147 N 
HETATM   32  C   UNL     1      14.515   1.853  93.026  1.00  0.00     0.283 C 
HETATM   33  C   UNL     1      15.502   2.256  94.118  1.00  0.00     0.178 C 
HETATM   34  O   UNL     1      16.300   3.359  93.685  1.00  0.00    -0.350 OA
HETATM   35  C   UNL     1      15.480   4.487  93.375  1.00  0.00     0.178 C 
HETATM   36  C   UNL     1      14.493   4.138  92.266  1.00  0.00     0.283 C 
ENDBRANCH  30  31
ENDBRANCH  27  30
ENDBRANCH  23  24
ENDBRANCH   4  22
TORSDOF 10
ENDMDL
MODEL 3
REMARK VINA RESULT:      -6.6      1.464      2.258
REMARK  10 active torsions:
REMARK  status: ('A' for Active; 'I' for Inactive)
REMARK    1  A    between atoms: O_2  and  C_16 
REMARK    2  A    between atoms: N_5  and  C_9 
REMARK    3  A    between atoms: N_6  and  C_13 
REMARK       I    between atoms: N_6  and  C_22 
REMARK    4  A    between atoms: C_9  and  C_12 
REMARK    5  A    between atoms: C_13  and  C_16 
REMARK    6  A    between atoms: C_13  and  C_21 
REMARK    7  A    between atoms: C_19  and  C_24 
REMARK    8  A    between atoms: C_22  and  C_23 
REMARK    9  A    between atoms: C_27  and  C_30 
REMARK   10  A    between atoms: N_33  and  S_34 
ROOT
HETATM    1  C   UNL     1       5.287  10.590  90.874  1.00  0.00     0.056 A 
HETATM    2  C   UNL     1       5.224   9.780  91.989  1.00  0.00     0.005 A 
HETATM    3  C   UNL     1       6.251  10.429  89.902  1.00  0.00     0.005 A 
HETATM    4  C   UNL     1       7.154   8.582  91.169  1.00  0.00     0.042 A 
HETATM    5  C   UNL     1       6.168   8.764  92.139  1.00  0.00     0.008 A 
HETATM    6  C   UNL     1       7.196   9.414  90.050  1.00  0.00     0.008 A 
ENDROOT
BRANCH   1   7
HETATM    7  C   UNL     1       4.280  11.670  90.714  1.00  0.00     0.254 C 
HETATM    8  O   UNL     1       3.292  11.470  90.011  1.00  0.00    -0.268 OA
HETATM    9  N   UNL     1       4.531  12.844  91.411  1.00  0.00    -0.337 N 
HETATM   10  HN  UNL     1       5.356  12.928  91.993  1.00  0.00     0.164 HD
BRANCH   9  11
HETATM   11  C   UNL     1       3.636  13.973  91.377  1.00  0.00     0.172 C 
BRANCH  11  12
HETATM   12  C   UNL     1       3.613  14.671  90.011  1.00  0.00     0.136 C 
HETATM   13  C   UNL     1       4.951  14.577  89.285  1.00  0.00     0.034 C 
BRANCH  12  14
HETATM   14  O   UNL     1       2.600  14.086  89.193  1.00  0.00    -0.383 OA
HETATM   15  H   UNL     1       2.844  14.221  88.262  1.00  0.00     0.210 HD
ENDBRANCH  12  14
ENDBRANCH  11  12
BRANCH  11  16
HETATM   16  C   UNL     1       2.248  13.479  91.770  1.00  0.00     0.398 A 
HETATM   17  O   UNL     1       1.261  14.212  91.805  1.00  0.00    -0.136 OA
HETATM   18  N   UNL     1       1.300  13.320  93.035  1.00  0.00     0.142 N 
HETATM   19  HN  UNL     1       0.460  13.790  93.225  1.00  0.00     0.338 HD
BRANCH  18  20
HETATM   20  S   UNL     1       2.147  12.556  93.831  1.00  0.00     0.076 SA
HETATM   21  H   UNL     1       2.725  11.669  93.292  1.00  0.00     0.136 HD
ENDBRANCH  18  20
ENDBRANCH  11  16
ENDBRANCH   9  11
ENDBRANCH   1   7
BRANCH   4  22
HETATM   22  C   UNL     1       8.124   7.543  91.324  1.00  0.00    -0.059 C 
HETATM   23  C   UNL     1       8.940   6.670  91.454  1.00  0.00    -0.059 C 
BRANCH  23  24
HETATM   24  C   UNL     1       9.912   5.630  91.609  1.00  0.00     0.042 A 
HETATM   25  C   UNL     1      10.430   4.989  90.485  1.00  0.00     0.008 A 
HETATM   26  C   UNL     1      11.375   3.974  90.636  1.00  0.00    -0.002 A 
HETATM   27  C   UNL     1      11.803   3.604  91.912  1.00  0.00     0.011 A 
HETATM   28  C   UNL     1      11.283   4.247  93.035  1.00  0.00    -0.002 A 
HETATM   29  C   UNL     1      10.337   5.261  92.883  1.00  0.00     0.008 A 
BRANCH  27  30
HETATM   30  C   UNL     1      12.815   2.521  92.072  1.00  0.00     0.277 C 
BRANCH  30  31
HETATM   31  N   UNL     1      13.860   2.873  93.032  1.00  0.00     0.147 N 
HETATM   32  C   UNL     1      14.874   1.812  93.109  1.00  0.00     0.283 C 
HETATM   33  C   UNL     1      15.959   2.206  94.108  1.00  0.00     0.178 C 
HETATM   34  O   UNL     1      16.560   3.444  93.726  1.00  0.00    -0.350 OA
HETATM   35  C   UNL     1      15.586   4.488  93.678  1.00  0.00     0.178 C 
HETATM   36  C   UNL     1      14.492   4.149  92.671  1.00  0.00     0.283 C 
ENDBRANCH  30  31
ENDBRANCH  27  30
ENDBRANCH  23  24
ENDBRANCH   4  22
TORSDOF 10
ENDMDL
MODEL 4
REMARK VINA RESULT:      -6.4      1.445      1.834
REMARK  10 active torsions:
REMARK  status: ('A' for Active; 'I' for Inactive)
REMARK    1  A    between atoms: O_2  and  C_16 
REMARK    2  A    between atoms: N_5  and  C_9 
REMARK    3  A    between atoms: N_6  and  C_13 
REMARK       I    between atoms: N_6  and  C_22 
REMARK    4  A    between atoms: C_9  and  C_12 
REMARK    5  A    between atoms: C_13  and  C_16 
REMARK    6  A    between atoms: C_13  and  C_21 
REMARK    7  A    between atoms: C_19  and  C_24 
REMARK    8  A    between atoms: C_22  and  C_23 
REMARK    9  A    between atoms: C_27  and  C_30 
REMARK   10  A    between atoms: N_33  and  S_34 
ROOT
HETATM    1  C   UNL     1       4.711   9.578  90.472  1.00  0.00     0.056 A 
HETATM    2  C   UNL     1       5.271   8.982  89.361  1.00  0.00     0.005 A 
HETATM    3  C   UNL     1       5.155   9.315  91.751  1.00  0.00     0.005 A 
HETATM    4  C   UNL     1       6.790   7.800  90.820  1.00  0.00     0.042 A 
HETATM    5  C   UNL     1       6.322   8.082  89.536  1.00  0.00     0.008 A 
HETATM    6  C   UNL     1       6.207   8.416  91.927  1.00  0.00     0.008 A 
ENDROOT
BRANCH   1   7
HETATM    7  C   UNL     1       3.592  10.538  90.285  1.00  0.00     0.254 C 
HETATM    8  O   UNL     1       2.706  10.275  89.475  1.00  0.00    -0.268 OA
HETATM    9  N   UNL     1       3.627  11.674  91.080  1.00  0.00    -0.337 N 
HETATM   10  HN  UNL     1       4.378  11.812  91.746  1.00  0.00     0.164 HD
BRANCH   9  11
HETATM   11  C   UNL     1       2.602  12.686  91.032  1.00  0.00     0.172 C 
BRANCH  11  12
HETATM   12  C   UNL     1       2.259  13.250  92.417  1.00  0.00     0.136 C 
HETATM   13  C   UNL     1       1.232  14.374  92.352  1.00  0.00     0.034 C 
BRANCH  12  14
HETATM   14  O   UNL     1       1.749  12.204  93.245  1.00  0.00    -0.383 OA
HETATM   15  H   UNL     1       1.929  12.435  94.172  1.00  0.00     0.210 HD
ENDBRANCH  12  14
ENDBRANCH  11  12
BRANCH  11  16
HETATM   16  C   UNL     1       3.077  13.786  90.088  1.00  0.00     0.398 A 
HETATM   17  O   UNL     1       3.603  13.554  89.001  1.00  0.00    -0.136 OA
HETATM   18  N   UNL     1       4.364  14.647  89.735  1.00  0.00     0.142 N 
HETATM   19  HN  UNL     1       4.898  14.627  88.912  1.00  0.00     0.338 HD
BRANCH  18  20
HETATM   20  S   UNL     1       4.604  15.184  90.994  1.00  0.00     0.076 SA
HETATM   21  H   UNL     1       3.745  15.865  91.454  1.00  0.00     0.136 HD
ENDBRANCH  18  20
ENDBRANCH  11  16
ENDBRANCH   9  11
ENDBRANCH   1   7
BRANCH   4  22
HETATM   22  C   UNL     1       7.866   6.875  91.000  1.00  0.00    -0.059 C 
HETATM   23  C   UNL     1       8.771   6.098  91.151  1.00  0.00    -0.059 C 
BRANCH  23  24
HETATM   24  C   UNL     1       9.848   5.174  91.331  1.00  0.00     0.042 A 
HETATM   25  C   UNL     1      10.752   4.948  90.294  1.00  0.00     0.008 A 
HETATM   26  C   UNL     1      11.801   4.046  90.469  1.00  0.00    -0.002 A 
HETATM   27  C   UNL     1      11.946   3.371  91.682  1.00  0.00     0.011 A 
HETATM   28  C   UNL     1      11.041   3.599  92.718  1.00  0.00    -0.002 A 
HETATM   29  C   UNL     1       9.991   4.501  92.543  1.00  0.00     0.008 A 
BRANCH  27  30
HETATM   30  C   UNL     1      13.069   2.408  91.868  1.00  0.00     0.277 C 
BRANCH  30  31
HETATM   31  N   UNL     1      14.008   2.841  92.901  1.00  0.00     0.147 N 
HETATM   32  C   UNL     1      15.103   1.873  93.048  1.00  0.00     0.283 C 
HETATM   33  C   UNL     1      16.076   2.351  94.123  1.00  0.00     0.178 C 
HETATM   34  O   UNL     1      16.592   3.641  93.789  1.00  0.00    -0.350 OA
HETATM   35  C   UNL     1      15.536   4.595  93.675  1.00  0.00     0.178 C 
HETATM   36  C   UNL     1      14.550   4.171  92.590  1.00  0.00     0.283 C 
ENDBRANCH  30  31
ENDBRANCH  27  30
ENDBRANCH  23  24
ENDBRANCH   4  22
TORSDOF 10
ENDMDL
MODEL 5
REMARK VINA RESULT:      -5.8      1.961      2.665
REMARK  10 active torsions:
REMARK  status: ('A' for Active; 'I' for Inactive)
REMARK    1  A    between atoms: O_2  and  C_16 
REMARK    2  A    between atoms: N_5  and  C_9 
REMARK    3  A    between atoms: N_6  and  C_13 
REMARK       I    between atoms: N_6  and  C_22 
REMARK    4  A    between atoms: C_9  and  C_12 
REMARK    5  A    between atoms: C_13  and  C_16 
REMARK    6  A    between atoms: C_13  and  C_21 
REMARK    7  A    between atoms: C_19  and  C_24 
REMARK    8  A    between atoms: C_22  and  C_23 
REMARK    9  A    between atoms: C_27  and  C_30 
REMARK   10  A    between atoms: N_33  and  S_34 
ROOT
HETATM    1  C   UNL     1       5.091   8.940  91.317  1.00  0.00     0.056 A 
HETATM    2  C   UNL     1       5.512   8.691  92.606  1.00  0.00     0.005 A 
HETATM    3  C   UNL     1       5.715   8.387  90.218  1.00  0.00     0.005 A 
HETATM    4  C   UNL     1       7.258   7.282  91.712  1.00  0.00     0.042 A 
HETATM    5  C   UNL     1       6.609   7.853  92.806  1.00  0.00     0.008 A 
HETATM    6  C   UNL     1       6.812   7.549  90.417  1.00  0.00     0.008 A 
ENDROOT
BRANCH   1   7
HETATM    7  C   UNL     1       3.921   9.832  91.103  1.00  0.00     0.254 C 
HETATM    8  O   UNL     1       2.806   9.452  91.452  1.00  0.00    -0.268 OA
HETATM    9  N   UNL     1       4.195  11.067  90.533  1.00  0.00    -0.337 N 
HETATM   10  HN  UNL     1       5.145  11.322  90.294  1.00  0.00     0.164 HD
BRANCH   9  11
HETATM   11  C   UNL     1       3.171  12.051  90.286  1.00  0.00     0.172 C 
BRANCH  11  12
HETATM   12  C   UNL     1       3.187  13.194  91.308  1.00  0.00     0.136 C 
HETATM   13  C   UNL     1       4.458  13.206  92.151  1.00  0.00     0.034 C 
BRANCH  12  14
HETATM   14  O   UNL     1       3.071  14.444  90.628  1.00  0.00    -0.383 OA
HETATM   15  H   UNL     1       2.569  15.054  91.195  1.00  0.00     0.210 HD
ENDBRANCH  12  14
ENDBRANCH  11  12
BRANCH  11  16
HETATM   16  C   UNL     1       3.361  12.574  88.866  1.00  0.00     0.398 A 
HETATM   17  O   UNL     1       3.239  11.864  87.869  1.00  0.00    -0.136 OA
HETATM   18  N   UNL     1       4.473  12.743  87.745  1.00  0.00     0.142 N 
HETATM   19  HN  UNL     1       4.531  12.291  86.876  1.00  0.00     0.338 HD
BRANCH  18  20
HETATM   20  S   UNL     1       5.395  13.479  88.480  1.00  0.00     0.076 SA
HETATM   21  H   UNL     1       4.991  14.467  89.002  1.00  0.00     0.136 HD
ENDBRANCH  18  20
ENDBRANCH  11  16
ENDBRANCH   9  11
ENDBRANCH   1   7
BRANCH   4  22
HETATM   22  C   UNL     1       8.384   6.424  91.917  1.00  0.00    -0.059 C 
HETATM   23  C   UNL     1       9.330   5.703  92.090  1.00  0.00    -0.059 C 
BRANCH  23  24
HETATM   24  C   UNL     1      10.456   4.845  92.294  1.00  0.00     0.042 A 
HETATM   25  C   UNL     1      10.989   4.688  93.574  1.00  0.00     0.008 A 
HETATM   26  C   UNL     1      12.088   3.853  93.773  1.00  0.00    -0.002 A 
HETATM   27  C   UNL     1      12.653   3.173  92.693  1.00  0.00     0.011 A 
HETATM   28  C   UNL     1      12.119   3.331  91.414  1.00  0.00    -0.002 A 
HETATM   29  C   UNL     1      11.020   4.167  91.215  1.00  0.00     0.008 A 
BRANCH  27  30
HETATM   30  C   UNL     1      13.826   2.279  92.908  1.00  0.00     0.277 C 
BRANCH  30  31
HETATM   31  N   UNL     1      14.906   2.943  93.635  1.00  0.00     0.147 N 
HETATM   32  C   UNL     1      16.195   2.291  93.363  1.00  0.00     0.283 C 
HETATM   33  C   UNL     1      17.308   3.008  94.123  1.00  0.00     0.178 C 
HETATM   34  O   UNL     1      17.357   4.386  93.751  1.00  0.00    -0.350 OA
HETATM   35  C   UNL     1      16.119   5.035  94.041  1.00  0.00     0.178 C 
HETATM   36  C   UNL     1      14.978   4.367  93.280  1.00  0.00     0.283 C 
ENDBRANCH  30  31
ENDBRANCH  27  30
ENDBRANCH  23  24
ENDBRANCH   4  22
TORSDOF 10
ENDMDL
MODEL 6
REMARK VINA RESULT:      -5.5      3.571     12.561
REMARK  10 active torsions:
REMARK  status: ('A' for Active; 'I' for Inactive)
REMARK    1  A    between atoms: O_2  and  C_16 
REMARK    2  A    between atoms: N_5  and  C_9 
REMARK    3  A    between atoms: N_6  and  C_13 
REMARK       I    between atoms: N_6  and  C_22 
REMARK    4  A    between atoms: C_9  and  C_12 
REMARK    5  A    between atoms: C_13  and  C_16 
REMARK    6  A    between atoms: C_13  and  C_21 
REMARK    7  A    between atoms: C_19  and  C_24 
REMARK    8  A    between atoms: C_22  and  C_23 
REMARK    9  A    between atoms: C_27  and  C_30 
REMARK   10  A    between atoms: N_33  and  S_34 
ROOT
HETATM    1  C   UNL     1      10.330   5.043  92.122  1.00  0.00     0.056 A 
HETATM    2  C   UNL     1       9.581   5.595  93.140  1.00  0.00     0.005 A 
HETATM    3  C   UNL     1      10.218   5.466  90.814  1.00  0.00     0.005 A 
HETATM    4  C   UNL     1       8.547   7.059  91.522  1.00  0.00     0.042 A 
HETATM    5  C   UNL     1       8.679   6.614  92.838  1.00  0.00     0.008 A 
HETATM    6  C   UNL     1       9.316   6.485  90.510  1.00  0.00     0.008 A 
ENDROOT
BRANCH   1   7
HETATM    7  C   UNL     1      11.293   3.958  92.445  1.00  0.00     0.254 C 
HETATM    8  O   UNL     1      10.878   2.810  92.585  1.00  0.00    -0.268 OA
HETATM    9  N   UNL     1      12.625   4.336  92.542  1.00  0.00    -0.337 N 
HETATM   10  HN  UNL     1      12.897   5.300  92.389  1.00  0.00     0.164 HD
BRANCH   9  11
HETATM   11  C   UNL     1      13.679   3.396  92.825  1.00  0.00     0.172 C 
BRANCH  11  12
HETATM   12  C   UNL     1      14.232   2.726  91.561  1.00  0.00     0.136 C 
HETATM   13  C   UNL     1      14.200   3.650  90.349  1.00  0.00     0.034 C 
BRANCH  12  14
HETATM   14  O   UNL     1      15.578   2.311  91.791  1.00  0.00    -0.383 OA
HETATM   15  H   UNL     1      16.081   2.438  90.969  1.00  0.00     0.210 HD
ENDBRANCH  12  14
ENDBRANCH  11  12
BRANCH  11  16
HETATM   16  C   UNL     1      14.774   4.139  93.584  1.00  0.00     0.398 A 
HETATM   17  O   UNL     1      15.342   5.133  93.136  1.00  0.00    -0.136 OA
HETATM   18  N   UNL     1      16.353   4.182  93.757  1.00  0.00     0.142 N 
HETATM   19  HN  UNL     1      16.971   4.896  93.494  1.00  0.00     0.338 HD
BRANCH  18  20
HETATM   20  S   UNL     1      16.555   2.856  94.124  1.00  0.00     0.076 SA
HETATM   21  H   UNL     1      16.660   2.637  95.287  1.00  0.00     0.136 HD
ENDBRANCH  18  20
ENDBRANCH  11  16
ENDBRANCH   9  11
ENDBRANCH   1   7
BRANCH   4  22
HETATM   22  C   UNL     1       7.620   8.102  91.211  1.00  0.00    -0.059 C 
HETATM   23  C   UNL     1       6.840   8.980  90.949  1.00  0.00    -0.059 C 
BRANCH  23  24
HETATM   24  C   UNL     1       5.912  10.023  90.637  1.00  0.00     0.042 A 
HETATM   25  C   UNL     1       4.641  10.018  91.212  1.00  0.00     0.008 A 
HETATM   26  C   UNL     1       3.736  11.034  90.907  1.00  0.00    -0.002 A 
HETATM   27  C   UNL     1       4.102  12.055  90.028  1.00  0.00     0.011 A 
HETATM   28  C   UNL     1       5.374  12.058  89.455  1.00  0.00    -0.002 A 
HETATM   29  C   UNL     1       6.279  11.041  89.760  1.00  0.00     0.008 A 
BRANCH  27  30
HETATM   30  C   UNL     1       3.134  13.141  89.705  1.00  0.00     0.277 C 
BRANCH  30  31
HETATM   31  N   UNL     1       3.098  14.180  90.733  1.00  0.00     0.147 N 
HETATM   32  C   UNL     1       2.306  13.739  91.890  1.00  0.00     0.283 C 
HETATM   33  C   UNL     1       2.292  14.834  92.954  1.00  0.00     0.178 C 
HETATM   34  O   UNL     1       3.626  15.155  93.354  1.00  0.00    -0.350 OA
HETATM   35  C   UNL     1       4.393  15.614  92.241  1.00  0.00     0.178 C 
HETATM   36  C   UNL     1       4.457  14.539  91.160  1.00  0.00     0.283 C 
ENDBRANCH  30  31
ENDBRANCH  27  30
ENDBRANCH  23  24
ENDBRANCH   4  22
TORSDOF 10
ENDMDL
MODEL 7
REMARK VINA RESULT:      -5.2      3.727     12.590
REMARK  10 active torsions:
REMARK  status: ('A' for Active; 'I' for Inactive)
REMARK    1  A    between atoms: O_2  and  C_16 
REMARK    2  A    between atoms: N_5  and  C_9 
REMARK    3  A    between atoms: N_6  and  C_13 
REMARK       I    between atoms: N_6  and  C_22 
REMARK    4  A    between atoms: C_9  and  C_12 
REMARK    5  A    between atoms: C_13  and  C_16 
REMARK    6  A    between atoms: C_13  and  C_21 
REMARK    7  A    between atoms: C_19  and  C_24 
REMARK    8  A    between atoms: C_22  and  C_23 
REMARK    9  A    between atoms: C_27  and  C_30 
REMARK   10  A    between atoms: N_33  and  S_34 
ROOT
HETATM    1  C   UNL     1      10.422   4.697  92.573  1.00  0.00     0.056 A 
HETATM    2  C   UNL     1       9.543   4.641  91.512  1.00  0.00     0.005 A 
HETATM    3  C   UNL     1      10.344   5.675  93.543  1.00  0.00     0.005 A 
HETATM    4  C   UNL     1       8.442   6.607  92.382  1.00  0.00     0.042 A 
HETATM    5  C   UNL     1       8.542   5.607  91.414  1.00  0.00     0.008 A 
HETATM    6  C   UNL     1       9.343   6.642  93.446  1.00  0.00     0.008 A 
ENDROOT
BRANCH   1   7
HETATM    7  C   UNL     1      11.487   3.667  92.678  1.00  0.00     0.254 C 
HETATM    8  O   UNL     1      11.194   2.483  92.530  1.00  0.00    -0.268 OA
HETATM    9  N   UNL     1      12.770   4.140  92.918  1.00  0.00    -0.337 N 
HETATM   10  HN  UNL     1      12.941   5.135  93.005  1.00  0.00     0.164 HD
BRANCH   9  11
HETATM   11  C   UNL     1      13.912   3.268  93.022  1.00  0.00     0.172 C 
BRANCH  11  12
HETATM   12  C   UNL     1      14.428   2.801  91.655  1.00  0.00     0.136 C 
HETATM   13  C   UNL     1      14.206   3.840  90.561  1.00  0.00     0.034 C 
BRANCH  12  14
HETATM   14  O   UNL     1      15.823   2.513  91.744  1.00  0.00    -0.383 OA
HETATM   15  H   UNL     1      16.273   2.953  91.004  1.00  0.00     0.210 HD
ENDBRANCH  12  14
ENDBRANCH  11  12
BRANCH  11  16
HETATM   16  C   UNL     1      14.995   4.009  93.799  1.00  0.00     0.398 A 
HETATM   17  O   UNL     1      15.472   5.080  93.429  1.00  0.00    -0.136 OA
HETATM   18  N   UNL     1      16.574   4.146  93.903  1.00  0.00     0.142 N 
HETATM   19  HN  UNL     1      17.130   4.925  93.685  1.00  0.00     0.338 HD
BRANCH  18  20
HETATM   20  S   UNL     1      16.882   2.809  94.124  1.00  0.00     0.076 SA
HETATM   21  H   UNL     1      18.011   2.563  94.404  1.00  0.00     0.136 HD
ENDBRANCH  18  20
ENDBRANCH  11  16
ENDBRANCH   9  11
ENDBRANCH   1   7
BRANCH   4  22
HETATM   22  C   UNL     1       7.417   7.599  92.280  1.00  0.00    -0.059 C 
HETATM   23  C   UNL     1       6.555   8.433  92.195  1.00  0.00    -0.059 C 
BRANCH  23  24
HETATM   24  C   UNL     1       5.529   9.425  92.094  1.00  0.00     0.042 A 
HETATM   25  C   UNL     1       4.343   9.134  91.421  1.00  0.00     0.008 A 
HETATM   26  C   UNL     1       3.344  10.103  91.321  1.00  0.00    -0.002 A 
HETATM   27  C   UNL     1       3.532  11.360  91.896  1.00  0.00     0.011 A 
HETATM   28  C   UNL     1       4.719  11.649  92.568  1.00  0.00    -0.002 A 
HETATM   29  C   UNL     1       5.718  10.681  92.668  1.00  0.00     0.008 A 
BRANCH  27  30
HETATM   30  C   UNL     1       2.462  12.394  91.790  1.00  0.00     0.277 C 
BRANCH  30  31
HETATM   31  N   UNL     1       2.980  13.688  91.349  1.00  0.00     0.147 N 
HETATM   32  C   UNL     1       3.843  14.281  92.379  1.00  0.00     0.283 C 
HETATM   33  C   UNL     1       4.380  15.625  91.892  1.00  0.00     0.178 C 
HETATM   34  O   UNL     1       5.102  15.458  90.670  1.00  0.00    -0.350 OA
HETATM   35  C   UNL     1       4.261  14.911  89.655  1.00  0.00     0.178 C 
HETATM   36  C   UNL     1       3.721  13.551  90.087  1.00  0.00     0.283 C 
ENDBRANCH  30  31
ENDBRANCH  27  30
ENDBRANCH  23  24
ENDBRANCH   4  22
TORSDOF 10
ENDMDL
MODEL 8
REMARK VINA RESULT:      -5.1      1.890      2.422
REMARK  10 active torsions:
REMARK  status: ('A' for Active; 'I' for Inactive)
REMARK    1  A    between atoms: O_2  and  C_16 
REMARK    2  A    between atoms: N_5  and  C_9 
REMARK    3  A    between atoms: N_6  and  C_13 
REMARK       I    between atoms: N_6  and  C_22 
REMARK    4  A    between atoms: C_9  and  C_12 
REMARK    5  A    between atoms: C_13  and  C_16 
REMARK    6  A    between atoms: C_13  and  C_21 
REMARK    7  A    between atoms: C_19  and  C_24 
REMARK    8  A    between atoms: C_22  and  C_23 
REMARK    9  A    between atoms: C_27  and  C_30 
REMARK   10  A    between atoms: N_33  and  S_34 
ROOT
HETATM    1  C   UNL     1       5.530  10.573  92.644  1.00  0.00     0.056 A 
HETATM    2  C   UNL     1       5.414   9.666  91.613  1.00  0.00     0.005 A 
HETATM    3  C   UNL     1       6.522  10.481  93.598  1.00  0.00     0.005 A 
HETATM    4  C   UNL     1       7.343   8.502  92.483  1.00  0.00     0.042 A 
HETATM    5  C   UNL     1       6.331   8.617  91.530  1.00  0.00     0.008 A 
HETATM    6  C   UNL     1       7.440   9.433  93.516  1.00  0.00     0.008 A 
ENDROOT
BRANCH   1   7
HETATM    7  C   UNL     1       4.555  11.691  92.730  1.00  0.00     0.254 C 
HETATM    8  O   UNL     1       4.742  12.589  93.547  1.00  0.00    -0.268 OA
HETATM    9  N   UNL     1       3.492  11.641  91.838  1.00  0.00    -0.337 N 
HETATM   10  HN  UNL     1       3.416  10.879  91.174  1.00  0.00     0.164 HD
BRANCH   9  11
HETATM   11  C   UNL     1       2.478  12.662  91.782  1.00  0.00     0.172 C 
BRANCH  11  12
HETATM   12  C   UNL     1       1.451  12.542  92.916  1.00  0.00     0.136 C 
HETATM   13  C   UNL     1       1.215  11.097  93.339  1.00  0.00     0.034 C 
BRANCH  12  14
HETATM   14  O   UNL     1       1.900  13.289  94.047  1.00  0.00    -0.383 OA
HETATM   15  H   UNL     1       1.432  14.141  94.055  1.00  0.00     0.210 HD
ENDBRANCH  12  14
ENDBRANCH  11  12
BRANCH  11  16
HETATM   16  C   UNL     1       3.179  14.017  91.810  1.00  0.00     0.398 A 
HETATM   17  O   UNL     1       2.572  15.085  91.772  1.00  0.00    -0.136 OA
HETATM   18  N   UNL     1       3.773  15.126  90.840  1.00  0.00     0.142 N 
HETATM   19  HN  UNL     1       3.449  16.041  90.697  1.00  0.00     0.338 HD
BRANCH  18  20
HETATM   20  S   UNL     1       4.659  14.324  90.130  1.00  0.00     0.076 SA
HETATM   21  H   UNL     1       5.797  14.666  90.123  1.00  0.00     0.136 HD
ENDBRANCH  18  20
ENDBRANCH  11  16
ENDBRANCH   9  11
ENDBRANCH   1   7
BRANCH   4  22
HETATM   22  C   UNL     1       8.281   7.426  92.400  1.00  0.00    -0.059 C 
HETATM   23  C   UNL     1       9.070   6.521  92.332  1.00  0.00    -0.059 C 
BRANCH  23  24
HETATM   24  C   UNL     1      10.008   5.443  92.249  1.00  0.00     0.042 A 
HETATM   25  C   UNL     1      10.732   5.063  93.378  1.00  0.00     0.008 A 
HETATM   26  C   UNL     1      11.647   4.014  93.298  1.00  0.00    -0.002 A 
HETATM   27  C   UNL     1      11.837   3.345  92.088  1.00  0.00     0.011 A 
HETATM   28  C   UNL     1      11.112   3.727  90.959  1.00  0.00    -0.002 A 
HETATM   29  C   UNL     1      10.196   4.777  91.040  1.00  0.00     0.008 A 
BRANCH  27  30
HETATM   30  C   UNL     1      12.815   2.223  92.003  1.00  0.00     0.277 C 
BRANCH  30  31
HETATM   31  N   UNL     1      14.169   2.635  92.367  1.00  0.00     0.147 N 
HETATM   32  C   UNL     1      14.327   4.089  92.222  1.00  0.00     0.283 C 
HETATM   33  C   UNL     1      15.744   4.497  92.617  1.00  0.00     0.178 C 
HETATM   34  O   UNL     1      16.019   4.097  93.961  1.00  0.00    -0.350 OA
HETATM   35  C   UNL     1      15.898   2.681  94.104  1.00  0.00     0.178 C 
HETATM   36  C   UNL     1      14.487   2.229  93.743  1.00  0.00     0.283 C 
ENDBRANCH  30  31
ENDBRANCH  27  30
ENDBRANCH  23  24
ENDBRANCH   4  22
TORSDOF 10
ENDMDL
MODEL 9
REMARK VINA RESULT:      -4.4      2.910      3.897
REMARK  10 active torsions:
REMARK  status: ('A' for Active; 'I' for Inactive)
REMARK    1  A    between atoms: O_2  and  C_16 
REMARK    2  A    between atoms: N_5  and  C_9 
REMARK    3  A    between atoms: N_6  and  C_13 
REMARK       I    between atoms: N_6  and  C_22 
REMARK    4  A    between atoms: C_9  and  C_12 
REMARK    5  A    between atoms: C_13  and  C_16 
REMARK    6  A    between atoms: C_13  and  C_21 
REMARK    7  A    between atoms: C_19  and  C_24 
REMARK    8  A    between atoms: C_22  and  C_23 
REMARK    9  A    between atoms: C_27  and  C_30 
REMARK   10  A    between atoms: N_33  and  S_34 
ROOT
HETATM    1  C   UNL     1       5.186   7.808  90.638  1.00  0.00     0.056 A 
HETATM    2  C   UNL     1       5.952   8.265  91.689  1.00  0.00     0.005 A 
HETATM    3  C   UNL     1       5.499   6.658  89.944  1.00  0.00     0.005 A 
HETATM    4  C   UNL     1       7.422   6.374  91.378  1.00  0.00     0.042 A 
HETATM    5  C   UNL     1       7.084   7.540  92.064  1.00  0.00     0.008 A 
HETATM    6  C   UNL     1       6.630   5.932  90.318  1.00  0.00     0.008 A 
ENDROOT
BRANCH   1   7
HETATM    7  C   UNL     1       3.980   8.579  90.240  1.00  0.00     0.254 C 
HETATM    8  O   UNL     1       2.867   8.110  90.465  1.00  0.00    -0.268 OA
HETATM    9  N   UNL     1       4.214   9.814  89.651  1.00  0.00    -0.337 N 
HETATM   10  HN  UNL     1       5.162  10.148  89.520  1.00  0.00     0.164 HD
BRANCH   9  11
HETATM   11  C   UNL     1       3.149  10.689  89.234  1.00  0.00     0.172 C 
BRANCH  11  12
HETATM   12  C   UNL     1       3.632  12.115  88.939  1.00  0.00     0.136 C 
HETATM   13  C   UNL     1       4.583  12.641  90.009  1.00  0.00     0.034 C 
BRANCH  12  14
HETATM   14  O   UNL     1       4.295  12.143  87.676  1.00  0.00    -0.383 OA
HETATM   15  H   UNL     1       4.815  12.962  87.622  1.00  0.00     0.210 HD
ENDBRANCH  12  14
ENDBRANCH  11  12
BRANCH  11  16
HETATM   16  C   UNL     1       2.486  10.065  88.010  1.00  0.00     0.398 A 
HETATM   17  O   UNL     1       1.598  10.626  87.370  1.00  0.00    -0.136 OA
HETATM   18  N   UNL     1       1.244   9.164  87.596  1.00  0.00     0.142 N 
HETATM   19  HN  UNL     1       0.460   9.422  87.065  1.00  0.00     0.338 HD
BRANCH  18  20
HETATM   20  S   UNL     1       1.505   8.068  88.410  1.00  0.00     0.076 SA
HETATM   21  H   UNL     1       1.714   7.036  87.860  1.00  0.00     0.136 HD
ENDBRANCH  18  20
ENDBRANCH  11  16
ENDBRANCH   9  11
ENDBRANCH   1   7
BRANCH   4  22
HETATM   22  C   UNL     1       8.583   5.632  91.760  1.00  0.00    -0.059 C 
HETATM   23  C   UNL     1       9.559   5.008  92.081  1.00  0.00    -0.059 C 
BRANCH  23  24
HETATM   24  C   UNL     1      10.722   4.266  92.463  1.00  0.00     0.042 A 
HETATM   25  C   UNL     1      11.336   4.517  93.689  1.00  0.00     0.008 A 
HETATM   26  C   UNL     1      12.471   3.795  94.060  1.00  0.00    -0.002 A 
HETATM   27  C   UNL     1      12.988   2.821  93.206  1.00  0.00     0.011 A 
HETATM   28  C   UNL     1      12.371   2.570  91.980  1.00  0.00    -0.002 A 
HETATM   29  C   UNL     1      11.237   3.293  91.609  1.00  0.00     0.008 A 
BRANCH  27  30
HETATM   30  C   UNL     1      14.199   2.048  93.604  1.00  0.00     0.277 C 
BRANCH  30  31
HETATM   31  N   UNL     1      15.296   2.914  94.032  1.00  0.00     0.147 N 
HETATM   32  C   UNL     1      16.586   2.387  93.565  1.00  0.00     0.283 C 
HETATM   33  C   UNL     1      17.715   3.313  94.013  1.00  0.00     0.178 C 
HETATM   34  O   UNL     1      17.504   4.633  93.510  1.00  0.00    -0.350 OA
HETATM   35  C   UNL     1      16.266   5.165  93.984  1.00  0.00     0.178 C 
HETATM   36  C   UNL     1      15.104   4.284  93.537  1.00  0.00     0.283 C 
ENDBRANCH  30  31
ENDBRANCH  27  30
ENDBRANCH  23  24
ENDBRANCH   4  22
TORSDOF 10
ENDMDL
