MODEL 1
REMARK VINA RESULT:      -7.6      0.000      0.000
REMARK  9 active torsions:
REMARK  status: ('A' for Active; 'I' for Inactive)
REMARK    1  A    between atoms: N_3  and  C_6 
REMARK    2  A    between atoms: C_6  and  C_9 
REMARK    3  A    between atoms: C_14  and  C_17 
REMARK       I    between atoms: N_26  and  C_15 
REMARK    4  A    between atoms: C_15  and  C_16 
REMARK    5  A    between atoms: C_20  and  C_23 
REMARK    6  A    between atoms: OG1_24  and  CB_28 
REMARK    7  A    between atoms: N_26  and  CA_27 
REMARK    8  A    between atoms: CA_27  and  CB_28 
REMARK    9  A    between atoms: CA_27  and  C_30 
ROOT
HETATM    1  O   UNK A   0       1.908   8.152  87.828  1.00  0.00    -0.388 OA
HETATM    2  N   UNK A   0       4.693   7.589  87.663  1.00  0.00     0.096 N 
HETATM    3  C   UNK A   0       4.193   8.967  87.762  1.00  0.00     0.299 C 
HETATM    4  C   UNK A   0       3.696   6.738  86.999  1.00  0.00     0.299 C 
HETATM    5  C   UNK A   0       2.857   8.980  88.501  1.00  0.00     0.198 C 
HETATM    6  C   UNK A   0       2.373   6.804  87.755  1.00  0.00     0.198 C 
ENDROOT
BRANCH   2   7
HETATM    7  C   UNK A   0       5.968   7.551  86.948  1.00  0.00     0.311 C 
BRANCH   7   8
HETATM    8  C   UNK A   0       7.058   6.941  87.763  1.00  0.00    -0.030 A 
HETATM    9  C   UNK A   0       8.304   6.695  87.185  1.00  0.00     0.010 A 
HETATM   10  C   UNK A   0       9.324   6.122  87.946  1.00  0.00     0.021 A 
HETATM   11  C   UNK A   0       9.097   5.799  89.283  1.00  0.00     0.018 A 
HETATM   12  C   UNK A   0       7.853   6.044  89.860  1.00  0.00     0.021 A 
HETATM   13  C   UNK A   0       6.833   6.616  89.100  1.00  0.00     0.010 A 
BRANCH  11  14
HETATM   14  C   UNK A   0      10.144   5.213  90.063  1.00  0.00    -0.061 C 
HETATM   15  C   UNK A   0      11.024   4.721  90.719  1.00  0.00    -0.061 C 
BRANCH  15  16
HETATM   16  C   UNK A   0      12.070   4.136  91.498  1.00  0.00     0.018 A 
HETATM   17  C   UNK A   0      13.330   3.935  90.933  1.00  0.00     0.022 A 
HETATM   18  C   UNK A   0      14.351   3.367  91.694  1.00  0.00     0.018 A 
HETATM   19  C   UNK A   0      14.091   3.014  93.001  1.00  0.00     0.032 A 
HETATM   20  C   UNK A   0      12.855   3.202  93.583  1.00  0.00     0.018 A 
HETATM   21  C   UNK A   0      11.832   3.770  92.822  1.00  0.00     0.022 A 
BRANCH  19  22
HETATM   22  C   UNK A   0      15.179   2.407  93.811  1.00  0.00     0.252 C 
HETATM   23  O   UNK A   0      16.330   2.812  93.669  1.00  0.00    -0.268 OA
ENDBRANCH  19  22
ENDBRANCH  15  16
ENDBRANCH  11  14
ENDBRANCH   7   8
ENDBRANCH   2   7
TORSDOF 9
ENDMDL
MODEL 2
REMARK VINA RESULT:      -6.9      1.495      2.122
REMARK  9 active torsions:
REMARK  status: ('A' for Active; 'I' for Inactive)
REMARK    1  A    between atoms: N_3  and  C_6 
REMARK    2  A    between atoms: C_6  and  C_9 
REMARK    3  A    between atoms: C_14  and  C_17 
REMARK       I    between atoms: N_26  and  C_15 
REMARK    4  A    between atoms: C_15  and  C_16 
REMARK    5  A    between atoms: C_20  and  C_23 
REMARK    6  A    between atoms: OG1_24  and  CB_28 
REMARK    7  A    between atoms: N_26  and  CA_27 
REMARK    8  A    between atoms: CA_27  and  CB_28 
REMARK    9  A    between atoms: CA_27  and  C_30 
ROOT
HETATM    1  O   UNK A   0       2.773  11.195  89.732  1.00  0.00    -0.388 OA
HETATM    2  N   UNK A   0       4.613   9.245  88.774  1.00  0.00     0.096 N 
HETATM    3  C   UNK A   0       3.842  10.092  87.853  1.00  0.00     0.299 C 
HETATM    4  C   UNK A   0       3.863   9.047  90.022  1.00  0.00     0.299 C 
HETATM    5  C   UNK A   0       3.508  11.420  88.528  1.00  0.00     0.198 C 
HETATM    6  C   UNK A   0       3.528  10.398  90.646  1.00  0.00     0.198 C 
ENDROOT
BRANCH   2   7
HETATM    7  C   UNK A   0       4.935   7.963  88.152  1.00  0.00     0.311 C 
BRANCH   7   8
HETATM    8  C   UNK A   0       6.145   7.329  88.749  1.00  0.00    -0.030 A 
HETATM    9  C   UNK A   0       7.400   7.911  88.562  1.00  0.00     0.010 A 
HETATM   10  C   UNK A   0       8.533   7.318  89.119  1.00  0.00     0.021 A 
HETATM   11  C   UNK A   0       8.410   6.145  89.863  1.00  0.00     0.018 A 
HETATM   12  C   UNK A   0       7.158   5.564  90.051  1.00  0.00     0.021 A 
HETATM   13  C   UNK A   0       6.025   6.156  89.494  1.00  0.00     0.010 A 
BRANCH  11  14
HETATM   14  C   UNK A   0       9.573   5.538  90.436  1.00  0.00    -0.061 C 
HETATM   15  C   UNK A   0      10.550   5.029  90.917  1.00  0.00    -0.061 C 
BRANCH  15  16
HETATM   16  C   UNK A   0      11.711   4.423  91.490  1.00  0.00     0.018 A 
HETATM   17  C   UNK A   0      11.678   3.962  92.807  1.00  0.00     0.022 A 
HETATM   18  C   UNK A   0      12.810   3.368  93.364  1.00  0.00     0.018 A 
HETATM   19  C   UNK A   0      13.948   3.248  92.594  1.00  0.00     0.032 A 
HETATM   20  C   UNK A   0      14.006   3.696  91.291  1.00  0.00     0.018 A 
HETATM   21  C   UNK A   0      12.874   4.290  90.732  1.00  0.00     0.022 A 
BRANCH  19  22
HETATM   22  C   UNK A   0      15.155   2.617  93.190  1.00  0.00     0.252 C 
HETATM   23  O   UNK A   0      16.022   3.332  93.687  1.00  0.00    -0.268 OA
ENDBRANCH  19  22
ENDBRANCH  15  16
ENDBRANCH  11  14
ENDBRANCH   7   8
ENDBRANCH   2   7
TORSDOF 9
ENDMDL
MODEL 3
REMARK VINA RESULT:      -6.6      3.428     10.323
REMARK  9 active torsions:
REMARK  status: ('A' for Active; 'I' for Inactive)
REMARK    1  A    between atoms: N_3  and  C_6 
REMARK    2  A    between atoms: C_6  and  C_9 
REMARK    3  A    between atoms: C_14  and  C_17 
REMARK       I    between atoms: N_26  and  C_15 
REMARK    4  A    between atoms: C_15  and  C_16 
REMARK    5  A    between atoms: C_20  and  C_23 
REMARK    6  A    between atoms: OG1_24  and  CB_28 
REMARK    7  A    between atoms: N_26  and  CA_27 
REMARK    8  A    between atoms: CA_27  and  CB_28 
REMARK    9  A    between atoms: CA_27  and  C_30 
ROOT
HETATM    1  O   UNK A   0      16.139   3.146  93.641  1.00  0.00    -0.388 OA
HETATM    2  N   UNK A   0      13.452   2.934  92.726  1.00  0.00     0.096 N 
HETATM    3  C   UNK A   0      14.244   1.743  93.065  1.00  0.00     0.299 C 
HETATM    4  C   UNK A   0      14.337   4.014  92.268  1.00  0.00     0.299 C 
HETATM    5  C   UNK A   0      15.290   2.101  94.118  1.00  0.00     0.198 C 
HETATM    6  C   UNK A   0      15.380   4.317  93.338  1.00  0.00     0.198 C 
ENDROOT
BRANCH   2   7
HETATM    7  C   UNK A   0      12.450   2.617  91.710  1.00  0.00     0.311 C 
BRANCH   7   8
HETATM    8  C   UNK A   0      11.581   3.784  91.385  1.00  0.00    -0.030 A 
HETATM    9  C   UNK A   0      11.367   4.144  90.054  1.00  0.00     0.010 A 
HETATM   10  C   UNK A   0      10.556   5.237  89.749  1.00  0.00     0.021 A 
HETATM   11  C   UNK A   0       9.959   5.969  90.775  1.00  0.00     0.018 A 
HETATM   12  C   UNK A   0      10.172   5.610  92.105  1.00  0.00     0.021 A 
HETATM   13  C   UNK A   0      10.983   4.518  92.410  1.00  0.00     0.010 A 
BRANCH  11  14
HETATM   14  C   UNK A   0       9.126   7.089  90.462  1.00  0.00    -0.061 C 
HETATM   15  C   UNK A   0       8.425   8.030  90.198  1.00  0.00    -0.061 C 
BRANCH  15  16
HETATM   16  C   UNK A   0       7.592   9.149  89.885  1.00  0.00     0.018 A 
HETATM   17  C   UNK A   0       8.168  10.385  89.589  1.00  0.00     0.022 A 
HETATM   18  C   UNK A   0       7.355  11.475  89.281  1.00  0.00     0.018 A 
HETATM   19  C   UNK A   0       5.986  11.306  89.274  1.00  0.00     0.032 A 
HETATM   20  C   UNK A   0       5.393  10.095  89.563  1.00  0.00     0.018 A 
HETATM   21  C   UNK A   0       6.205   9.003  89.872  1.00  0.00     0.022 A 
BRANCH  19  22
HETATM   22  C   UNK A   0       5.121  12.469  88.947  1.00  0.00     0.252 C 
HETATM   23  O   UNK A   0       4.781  12.654  87.782  1.00  0.00    -0.268 OA
ENDBRANCH  19  22
ENDBRANCH  15  16
ENDBRANCH  11  14
ENDBRANCH   7   8
ENDBRANCH   2   7
TORSDOF 9
ENDMDL
MODEL 4
REMARK VINA RESULT:      -6.6      3.925     10.473
REMARK  9 active torsions:
REMARK  status: ('A' for Active; 'I' for Inactive)
REMARK    1  A    between atoms: N_3  and  C_6 
REMARK    2  A    between atoms: C_6  and  C_9 
REMARK    3  A    between atoms: C_14  and  C_17 
REMARK       I    between atoms: N_26  and  C_15 
REMARK    4  A    between atoms: C_15  and  C_16 
REMARK    5  A    between atoms: C_20  and  C_23 
REMARK    6  A    between atoms: OG1_24  and  CB_28 
REMARK    7  A    between atoms: N_26  and  CA_27 
REMARK    8  A    between atoms: CA_27  and  CB_28 
REMARK    9  A    between atoms: CA_27  and  C_30 
ROOT
HETATM    1  O   UNK A   0      14.606   3.362  92.109  1.00  0.00    -0.388 OA
HETATM    2  N   UNK A   0      11.887   4.183  92.299  1.00  0.00     0.096 N 
HETATM    3  C   UNK A   0      12.506   3.333  93.325  1.00  0.00     0.299 C 
HETATM    4  C   UNK A   0      12.532   3.953  90.998  1.00  0.00     0.299 C 
HETATM    5  C   UNK A   0      14.008   3.603  93.384  1.00  0.00     0.198 C 
HETATM    6  C   UNK A   0      14.031   4.207  91.111  1.00  0.00     0.198 C 
ENDROOT
BRANCH   2   7
HETATM    7  C   UNK A   0      10.449   3.934  92.218  1.00  0.00     0.311 C 
BRANCH   7   8
HETATM    8  C   UNK A   0       9.673   5.173  91.929  1.00  0.00    -0.030 A 
HETATM    9  C   UNK A   0       8.786   5.205  90.852  1.00  0.00     0.010 A 
HETATM   10  C   UNK A   0       8.061   6.365  90.580  1.00  0.00     0.021 A 
HETATM   11  C   UNK A   0       8.221   7.491  91.387  1.00  0.00     0.018 A 
HETATM   12  C   UNK A   0       9.106   7.461  92.462  1.00  0.00     0.021 A 
HETATM   13  C   UNK A   0       9.832   6.301  92.734  1.00  0.00     0.010 A 
BRANCH  11  14
HETATM   14  C   UNK A   0       7.475   8.680  91.109  1.00  0.00    -0.061 C 
HETATM   15  C   UNK A   0       6.848   9.679  90.874  1.00  0.00    -0.061 C 
BRANCH  15  16
HETATM   16  C   UNK A   0       6.102  10.867  90.596  1.00  0.00     0.018 A 
HETATM   17  C   UNK A   0       5.238  11.387  91.560  1.00  0.00     0.022 A 
HETATM   18  C   UNK A   0       4.512  12.548  91.289  1.00  0.00     0.018 A 
HETATM   19  C   UNK A   0       4.668  13.161  90.064  1.00  0.00     0.032 A 
HETATM   20  C   UNK A   0       5.516  12.666  89.095  1.00  0.00     0.018 A 
HETATM   21  C   UNK A   0       6.242  11.506  89.364  1.00  0.00     0.022 A 
BRANCH  19  22
HETATM   22  C   UNK A   0       3.893  14.396  89.775  1.00  0.00     0.252 C 
HETATM   23  O   UNK A   0       4.472  15.479  89.769  1.00  0.00    -0.268 OA
ENDBRANCH  19  22
ENDBRANCH  15  16
ENDBRANCH  11  14
ENDBRANCH   7   8
ENDBRANCH   2   7
TORSDOF 9
ENDMDL
MODEL 5
REMARK VINA RESULT:      -6.4      3.789     10.348
REMARK  9 active torsions:
REMARK  status: ('A' for Active; 'I' for Inactive)
REMARK    1  A    between atoms: N_3  and  C_6 
REMARK    2  A    between atoms: C_6  and  C_9 
REMARK    3  A    between atoms: C_14  and  C_17 
REMARK       I    between atoms: N_26  and  C_15 
REMARK    4  A    between atoms: C_15  and  C_16 
REMARK    5  A    between atoms: C_20  and  C_23 
REMARK    6  A    between atoms: OG1_24  and  CB_28 
REMARK    7  A    between atoms: N_26  and  CA_27 
REMARK    8  A    between atoms: CA_27  and  CB_28 
REMARK    9  A    between atoms: CA_27  and  C_30 
ROOT
HETATM    1  O   UNK A   0      14.180   2.928  92.758  1.00  0.00    -0.388 OA
HETATM    2  N   UNK A   0      11.956   4.022  91.359  1.00  0.00     0.096 N 
HETATM    3  C   UNK A   0      11.796   2.908  92.304  1.00  0.00     0.299 C 
HETATM    4  C   UNK A   0      13.298   3.988  90.762  1.00  0.00     0.299 C 
HETATM    5  C   UNK A   0      12.889   2.972  93.368  1.00  0.00     0.198 C 
HETATM    6  C   UNK A   0      14.355   4.026  91.861  1.00  0.00     0.198 C 
ENDROOT
BRANCH   2   7
HETATM    7  C   UNK A   0      10.925   3.975  90.324  1.00  0.00     0.311 C 
BRANCH   7   8
HETATM    8  C   UNK A   0      10.108   5.221  90.277  1.00  0.00    -0.030 A 
HETATM    9  C   UNK A   0       9.310   5.572  91.367  1.00  0.00     0.010 A 
HETATM   10  C   UNK A   0       8.544   6.737  91.324  1.00  0.00     0.021 A 
HETATM   11  C   UNK A   0       8.579   7.551  90.192  1.00  0.00     0.018 A 
HETATM   12  C   UNK A   0       9.376   7.202  89.104  1.00  0.00     0.021 A 
HETATM   13  C   UNK A   0      10.141   6.037  89.146  1.00  0.00     0.010 A 
BRANCH  11  14
HETATM   14  C   UNK A   0       7.795   8.747  90.149  1.00  0.00    -0.061 C 
HETATM   15  C   UNK A   0       7.135   9.752  90.113  1.00  0.00    -0.061 C 
BRANCH  15  16
HETATM   16  C   UNK A   0       6.352  10.947  90.070  1.00  0.00     0.018 A 
HETATM   17  C   UNK A   0       5.459  11.232  91.104  1.00  0.00     0.022 A 
HETATM   18  C   UNK A   0       4.697  12.399  91.064  1.00  0.00     0.018 A 
HETATM   19  C   UNK A   0       4.845  13.255  89.993  1.00  0.00     0.032 A 
HETATM   20  C   UNK A   0       5.720  12.996  88.959  1.00  0.00     0.018 A 
HETATM   21  C   UNK A   0       6.483  11.829  88.998  1.00  0.00     0.022 A 
BRANCH  19  22
HETATM   22  C   UNK A   0       4.031  14.498  89.949  1.00  0.00     0.252 C 
HETATM   23  O   UNK A   0       4.558  15.570  90.235  1.00  0.00    -0.268 OA
ENDBRANCH  19  22
ENDBRANCH  15  16
ENDBRANCH  11  14
ENDBRANCH   7   8
ENDBRANCH   2   7
TORSDOF 9
ENDMDL
MODEL 6
REMARK VINA RESULT:      -6.4      1.946      2.665
REMARK  9 active torsions:
REMARK  status: ('A' for Active; 'I' for Inactive)
REMARK    1  A    between atoms: N_3  and  C_6 
REMARK    2  A    between atoms: C_6  and  C_9 
REMARK    3  A    between atoms: C_14  and  C_17 
REMARK       I    between atoms: N_26  and  C_15 
REMARK    4  A    between atoms: C_15  and  C_16 
REMARK    5  A    between atoms: C_20  and  C_23 
REMARK    6  A    between atoms: OG1_24  and  CB_28 
REMARK    7  A    between atoms: N_26  and  CA_27 
REMARK    8  A    between atoms: CA_27  and  CB_28 
REMARK    9  A    between atoms: CA_27  and  C_30 
ROOT
HETATM    1  O   UNK A   0       2.302   9.764  88.073  1.00  0.00    -0.388 OA
HETATM    2  N   UNK A   0       3.778   8.303  90.019  1.00  0.00     0.096 N 
HETATM    3  C   UNK A   0       2.479   7.827  89.524  1.00  0.00     0.299 C 
HETATM    4  C   UNK A   0       3.836   9.770  89.952  1.00  0.00     0.299 C 
HETATM    5  C   UNK A   0       2.249   8.337  88.103  1.00  0.00     0.198 C 
HETATM    6  C   UNK A   0       3.573  10.234  88.523  1.00  0.00     0.198 C 
ENDROOT
BRANCH   2   7
HETATM    7  C   UNK A   0       4.015   7.835  91.384  1.00  0.00     0.311 C 
BRANCH   7   8
HETATM    8  C   UNK A   0       5.360   7.213  91.545  1.00  0.00    -0.030 A 
HETATM    9  C   UNK A   0       5.977   6.594  90.457  1.00  0.00     0.010 A 
HETATM   10  C   UNK A   0       7.234   6.010  90.608  1.00  0.00     0.021 A 
HETATM   11  C   UNK A   0       7.875   6.046  91.846  1.00  0.00     0.018 A 
HETATM   12  C   UNK A   0       7.260   6.664  92.933  1.00  0.00     0.021 A 
HETATM   13  C   UNK A   0       6.003   7.248  92.783  1.00  0.00     0.010 A 
BRANCH  11  14
HETATM   14  C   UNK A   0       9.166   5.449  91.999  1.00  0.00    -0.061 C 
HETATM   15  C   UNK A   0      10.250   4.946  92.129  1.00  0.00    -0.061 C 
BRANCH  15  16
HETATM   16  C   UNK A   0      11.540   4.348  92.281  1.00  0.00     0.018 A 
HETATM   17  C   UNK A   0      12.401   4.260  91.187  1.00  0.00     0.022 A 
HETATM   18  C   UNK A   0      13.660   3.679  91.337  1.00  0.00     0.018 A 
HETATM   19  C   UNK A   0      14.031   3.201  92.576  1.00  0.00     0.032 A 
HETATM   20  C   UNK A   0      13.198   3.277  93.673  1.00  0.00     0.018 A 
HETATM   21  C   UNK A   0      11.938   3.857  93.525  1.00  0.00     0.022 A 
BRANCH  19  22
HETATM   22  C   UNK A   0      15.372   2.581  92.735  1.00  0.00     0.252 C 
HETATM   23  O   UNK A   0      16.162   3.060  93.545  1.00  0.00    -0.268 OA
ENDBRANCH  19  22
ENDBRANCH  15  16
ENDBRANCH  11  14
ENDBRANCH   7   8
ENDBRANCH   2   7
TORSDOF 9
ENDMDL
MODEL 7
REMARK VINA RESULT:      -6.2      1.255      1.955
REMARK  9 active torsions:
REMARK  status: ('A' for Active; 'I' for Inactive)
REMARK    1  A    between atoms: N_3  and  C_6 
REMARK    2  A    between atoms: C_6  and  C_9 
REMARK    3  A    between atoms: C_14  and  C_17 
REMARK       I    between atoms: N_26  and  C_15 
REMARK    4  A    between atoms: C_15  and  C_16 
REMARK    5  A    between atoms: C_20  and  C_23 
REMARK    6  A    between atoms: OG1_24  and  CB_28 
REMARK    7  A    between atoms: N_26  and  CA_27 
REMARK    8  A    between atoms: CA_27  and  CB_28 
REMARK    9  A    between atoms: CA_27  and  C_30 
ROOT
HETATM    1  O   UNK A   0       2.202   6.481  87.645  1.00  0.00    -0.388 OA
HETATM    2  N   UNK A   0       4.167   8.507  88.017  1.00  0.00     0.096 N 
HETATM    3  C   UNK A   0       4.525   7.082  88.010  1.00  0.00     0.299 C 
HETATM    4  C   UNK A   0       2.788   8.677  88.495  1.00  0.00     0.299 C 
HETATM    5  C   UNK A   0       3.531   6.303  87.152  1.00  0.00     0.198 C 
HETATM    6  C   UNK A   0       1.835   7.861  87.626  1.00  0.00     0.198 C 
ENDROOT
BRANCH   2   7
HETATM    7  C   UNK A   0       5.101   9.271  88.843  1.00  0.00     0.311 C 
BRANCH   7   8
HETATM    8  C   UNK A   0       6.230   8.437  89.344  1.00  0.00    -0.030 A 
HETATM    9  C   UNK A   0       6.116   7.770  90.564  1.00  0.00     0.010 A 
HETATM   10  C   UNK A   0       7.172   6.991  91.035  1.00  0.00     0.021 A 
HETATM   11  C   UNK A   0       8.342   6.877  90.284  1.00  0.00     0.018 A 
HETATM   12  C   UNK A   0       8.457   7.543  89.065  1.00  0.00     0.021 A 
HETATM   13  C   UNK A   0       7.401   8.323  88.595  1.00  0.00     0.010 A 
BRANCH  11  14
HETATM   14  C   UNK A   0       9.425   6.076  90.766  1.00  0.00    -0.061 C 
HETATM   15  C   UNK A   0      10.336   5.403  91.170  1.00  0.00    -0.061 C 
BRANCH  15  16
HETATM   16  C   UNK A   0      11.419   4.603  91.651  1.00  0.00     0.018 A 
HETATM   17  C   UNK A   0      12.446   4.228  90.784  1.00  0.00     0.022 A 
HETATM   18  C   UNK A   0      13.504   3.450  91.255  1.00  0.00     0.018 A 
HETATM   19  C   UNK A   0      13.511   3.065  92.579  1.00  0.00     0.032 A 
HETATM   20  C   UNK A   0      12.508   3.422  93.455  1.00  0.00     0.018 A 
HETATM   21  C   UNK A   0      11.449   4.200  92.986  1.00  0.00     0.022 A 
BRANCH  19  22
HETATM   22  C   UNK A   0      14.637   2.234  93.079  1.00  0.00     0.252 C 
HETATM   23  O   UNK A   0      15.761   2.727  93.149  1.00  0.00    -0.268 OA
ENDBRANCH  19  22
ENDBRANCH  15  16
ENDBRANCH  11  14
ENDBRANCH   7   8
ENDBRANCH   2   7
TORSDOF 9
ENDMDL
MODEL 8
REMARK VINA RESULT:      -6.2      3.275      4.213
REMARK  9 active torsions:
REMARK  status: ('A' for Active; 'I' for Inactive)
REMARK    1  A    between atoms: N_3  and  C_6 
REMARK    2  A    between atoms: C_6  and  C_9 
REMARK    3  A    between atoms: C_14  and  C_17 
REMARK       I    between atoms: N_26  and  C_15 
REMARK    4  A    between atoms: C_15  and  C_16 
REMARK    5  A    between atoms: C_20  and  C_23 
REMARK    6  A    between atoms: OG1_24  and  CB_28 
REMARK    7  A    between atoms: N_26  and  CA_27 
REMARK    8  A    between atoms: CA_27  and  CB_28 
REMARK    9  A    between atoms: CA_27  and  C_30 
ROOT
HETATM    1  O   UNK A   0       4.161  14.919  89.814  1.00  0.00    -0.388 OA
HETATM    2  N   UNK A   0       4.951  12.216  89.401  1.00  0.00     0.096 N 
HETATM    3  C   UNK A   0       4.954  13.193  88.303  1.00  0.00     0.299 C 
HETATM    4  C   UNK A   0       3.927  12.574  90.392  1.00  0.00     0.299 C 
HETATM    5  C   UNK A   0       5.176  14.596  88.862  1.00  0.00     0.198 C 
HETATM    6  C   UNK A   0       4.172  13.991  90.900  1.00  0.00     0.198 C 
ENDROOT
BRANCH   2   7
HETATM    7  C   UNK A   0       4.729  10.864  88.890  1.00  0.00     0.311 C 
BRANCH   7   8
HETATM    8  C   UNK A   0       5.760   9.899  89.370  1.00  0.00    -0.030 A 
HETATM    9  C   UNK A   0       5.415   8.566  89.593  1.00  0.00     0.010 A 
HETATM   10  C   UNK A   0       6.378   7.663  90.044  1.00  0.00     0.021 A 
HETATM   11  C   UNK A   0       7.685   8.094  90.269  1.00  0.00     0.018 A 
HETATM   12  C   UNK A   0       8.030   9.425  90.045  1.00  0.00     0.021 A 
HETATM   13  C   UNK A   0       7.068  10.328  89.596  1.00  0.00     0.010 A 
BRANCH  11  14
HETATM   14  C   UNK A   0       8.673   7.167  90.729  1.00  0.00    -0.061 C 
HETATM   15  C   UNK A   0       9.503   6.388  91.115  1.00  0.00    -0.061 C 
BRANCH  15  16
HETATM   16  C   UNK A   0      10.491   5.462  91.574  1.00  0.00     0.018 A 
HETATM   17  C   UNK A   0      10.597   5.175  92.935  1.00  0.00     0.022 A 
HETATM   18  C   UNK A   0      11.560   4.269  93.383  1.00  0.00     0.018 A 
HETATM   19  C   UNK A   0      12.392   3.671  92.460  1.00  0.00     0.032 A 
HETATM   20  C   UNK A   0      12.308   3.938  91.110  1.00  0.00     0.018 A 
HETATM   21  C   UNK A   0      11.346   4.844  90.661  1.00  0.00     0.022 A 
BRANCH  19  22
HETATM   22  C   UNK A   0      13.418   2.708  92.938  1.00  0.00     0.252 C 
HETATM   23  O   UNK A   0      14.438   2.539  92.273  1.00  0.00    -0.268 OA
ENDBRANCH  19  22
ENDBRANCH  15  16
ENDBRANCH  11  14
ENDBRANCH   7   8
ENDBRANCH   2   7
TORSDOF 9
ENDMDL
MODEL 9
REMARK VINA RESULT:      -6.1      3.530     10.211
REMARK  9 active torsions:
REMARK  status: ('A' for Active; 'I' for Inactive)
REMARK    1  A    between atoms: N_3  and  C_6 
REMARK    2  A    between atoms: C_6  and  C_9 
REMARK    3  A    between atoms: C_14  and  C_17 
REMARK       I    between atoms: N_26  and  C_15 
REMARK    4  A    between atoms: C_15  and  C_16 
REMARK    5  A    between atoms: C_20  and  C_23 
REMARK    6  A    between atoms: OG1_24  and  CB_28 
REMARK    7  A    between atoms: N_26  and  CA_27 
REMARK    8  A    between atoms: CA_27  and  CB_28 
REMARK    9  A    between atoms: CA_27  and  C_30 
ROOT
HETATM    1  O   UNK A   0      15.644   4.011  93.945  1.00  0.00    -0.388 OA
HETATM    2  N   UNK A   0      13.791   2.597  92.312  1.00  0.00     0.096 N 
HETATM    3  C   UNK A   0      14.031   4.036  92.132  1.00  0.00     0.299 C 
HETATM    4  C   UNK A   0      14.027   2.218  93.712  1.00  0.00     0.299 C 
HETATM    5  C   UNK A   0      15.448   4.383  92.579  1.00  0.00     0.198 C 
HETATM    6  C   UNK A   0      15.443   2.608  94.122  1.00  0.00     0.198 C 
ENDROOT
BRANCH   2   7
HETATM    7  C   UNK A   0      12.434   2.243  91.899  1.00  0.00     0.311 C 
BRANCH   7   8
HETATM    8  C   UNK A   0      11.613   3.440  91.559  1.00  0.00    -0.030 A 
HETATM    9  C   UNK A   0      11.042   4.205  92.576  1.00  0.00     0.010 A 
HETATM   10  C   UNK A   0      10.272   5.324  92.259  1.00  0.00     0.021 A 
HETATM   11  C   UNK A   0      10.076   5.679  90.925  1.00  0.00     0.018 A 
HETATM   12  C   UNK A   0      10.647   4.916  89.908  1.00  0.00     0.021 A 
HETATM   13  C   UNK A   0      11.416   3.797  90.225  1.00  0.00     0.010 A 
BRANCH  11  14
HETATM   14  C   UNK A   0       9.288   6.828  90.600  1.00  0.00    -0.061 C 
HETATM   15  C   UNK A   0       8.627   7.794  90.327  1.00  0.00    -0.061 C 
BRANCH  15  16
HETATM   16  C   UNK A   0       7.840   8.943  90.001  1.00  0.00     0.018 A 
HETATM   17  C   UNK A   0       6.456   8.912  90.177  1.00  0.00     0.022 A 
HETATM   18  C   UNK A   0       5.689  10.033  89.862  1.00  0.00     0.018 A 
HETATM   19  C   UNK A   0       6.322  11.159  89.380  1.00  0.00     0.032 A 
HETATM   20  C   UNK A   0       7.688  11.215  89.196  1.00  0.00     0.018 A 
HETATM   21  C   UNK A   0       8.456  10.094  89.511  1.00  0.00     0.022 A 
BRANCH  19  22
HETATM   22  C   UNK A   0       5.504  12.353  89.042  1.00  0.00     0.252 C 
HETATM   23  O   UNK A   0       4.860  12.363  87.996  1.00  0.00    -0.268 OA
ENDBRANCH  19  22
ENDBRANCH  15  16
ENDBRANCH  11  14
ENDBRANCH   7   8
ENDBRANCH   2   7
TORSDOF 9
ENDMDL
