MODEL 1
REMARK VINA RESULT:      -6.8      0.000      0.000
REMARK  10 active torsions:
REMARK  status: ('A' for Active; 'I' for Inactive)
REMARK    1  A    between atoms: O_2  and  C_16 
REMARK    2  A    between atoms: N_5  and  C_9 
REMARK    3  A    between atoms: N_6  and  C_13 
REMARK       I    between atoms: N_6  and  C_22 
REMARK    4  A    between atoms: C_9  and  C_12 
REMARK    5  A    between atoms: C_13  and  C_16 
REMARK    6  A    between atoms: C_13  and  C_21 
REMARK    7  A    between atoms: C_19  and  C_24 
REMARK    8  A    between atoms: C_22  and  C_23 
REMARK    9  A    between atoms: C_27  and  C_30 
REMARK   10  A    between atoms: N_33  and  S_34 
ROOT
HETATM    1  C   UNL     1       5.894  11.306  90.070  1.00  0.00     0.056 A 
HETATM    2  C   UNL     1       7.023  11.158  89.293  1.00  0.00     0.005 A 
HETATM    3  C   UNL     1       5.564  10.413  91.068  1.00  0.00     0.005 A 
HETATM    4  C   UNL     1       7.550   9.149  90.526  1.00  0.00     0.042 A 
HETATM    5  C   UNL     1       7.862  10.067  89.523  1.00  0.00     0.008 A 
HETATM    6  C   UNL     1       6.402   9.321  91.299  1.00  0.00     0.008 A 
ENDROOT
BRANCH   1   7
HETATM    7  C   UNL     1       5.002  12.470  89.826  1.00  0.00     0.254 C 
HETATM    8  O   UNL     1       5.023  13.022  88.729  1.00  0.00    -0.268 OA
HETATM    9  N   UNL     1       4.176  12.834  90.880  1.00  0.00    -0.337 N 
HETATM   10  HN  UNL     1       4.196  12.315  91.750  1.00  0.00     0.164 HD
BRANCH   9  11
HETATM   11  C   UNL     1       3.239  13.925  90.790  1.00  0.00     0.172 C 
BRANCH  11  12
HETATM   12  C   UNL     1       1.875  13.588  91.405  1.00  0.00     0.136 C 
HETATM   13  C   UNL     1       1.927  12.358  92.303  1.00  0.00     0.034 C 
BRANCH  12  14
HETATM   14  O   UNL     1       1.408  14.700  92.168  1.00  0.00    -0.383 OA
HETATM   15  H   UNL     1       1.763  14.622  93.069  1.00  0.00     0.210 HD
ENDBRANCH  12  14
ENDBRANCH  11  12
BRANCH  11  16
HETATM   16  C   UNL     1       3.869  15.137  91.469  1.00  0.00     0.398 A 
HETATM   17  O   UNL     1       4.963  15.595  91.142  1.00  0.00    -0.136 OA
HETATM   18  N   UNL     1       4.851  15.523  92.656  1.00  0.00     0.142 N 
HETATM   19  HN  UNL     1       5.744  15.925  92.597  1.00  0.00     0.338 HD
BRANCH  18  20
HETATM   20  S   UNL     1       4.175  14.893  93.695  1.00  0.00     0.076 SA
HETATM   21  H   UNL     1       3.126  15.358  94.004  1.00  0.00     0.136 HD
ENDBRANCH  18  20
ENDBRANCH  11  16
ENDBRANCH   9  11
ENDBRANCH   1   7
BRANCH   4  22
HETATM   22  C   UNL     1       8.408   8.029  90.760  1.00  0.00    -0.059 C 
HETATM   23  C   UNL     1       9.129   7.087  90.956  1.00  0.00    -0.059 C 
BRANCH  23  24
HETATM   24  C   UNL     1       9.987   5.967  91.190  1.00  0.00     0.042 A 
HETATM   25  C   UNL     1      10.634   5.350  90.119  1.00  0.00     0.008 A 
HETATM   26  C   UNL     1      11.470   4.257  90.346  1.00  0.00    -0.002 A 
HETATM   27  C   UNL     1      11.659   3.782  91.644  1.00  0.00     0.011 A 
HETATM   28  C   UNL     1      11.012   4.400  92.714  1.00  0.00    -0.002 A 
HETATM   29  C   UNL     1      10.176   5.493  92.486  1.00  0.00     0.008 A 
BRANCH  27  30
HETATM   30  C   UNL     1      12.555   2.615  91.886  1.00  0.00     0.277 C 
BRANCH  30  31
HETATM   31  N   UNL     1      13.613   2.914  92.849  1.00  0.00     0.147 N 
HETATM   32  C   UNL     1      14.419   1.717  93.125  1.00  0.00     0.283 C 
HETATM   33  C   UNL     1      15.523   2.057  94.124  1.00  0.00     0.178 C 
HETATM   34  O   UNL     1      16.347   3.107  93.616  1.00  0.00    -0.350 OA
HETATM   35  C   UNL     1      15.576   4.285  93.374  1.00  0.00     0.178 C 
HETATM   36  C   UNL     1      14.474   3.999  92.359  1.00  0.00     0.283 C 
ENDBRANCH  30  31
ENDBRANCH  27  30
ENDBRANCH  23  24
ENDBRANCH   4  22
TORSDOF 10
ENDMDL
MODEL 2
REMARK VINA RESULT:      -6.6      1.309      2.046
REMARK  10 active torsions:
REMARK  status: ('A' for Active; 'I' for Inactive)
REMARK    1  A    between atoms: O_2  and  C_16 
REMARK    2  A    between atoms: N_5  and  C_9 
REMARK    3  A    between atoms: N_6  and  C_13 
REMARK       I    between atoms: N_6  and  C_22 
REMARK    4  A    between atoms: C_9  and  C_12 
REMARK    5  A    between atoms: C_13  and  C_16 
REMARK    6  A    between atoms: C_13  and  C_21 
REMARK    7  A    between atoms: C_19  and  C_24 
REMARK    8  A    between atoms: C_22  and  C_23 
REMARK    9  A    between atoms: C_27  and  C_30 
REMARK   10  A    between atoms: N_33  and  S_34 
ROOT
HETATM    1  C   UNL     1       5.460  10.558  91.024  1.00  0.00     0.056 A 
HETATM    2  C   UNL     1       6.132  10.113  89.905  1.00  0.00     0.005 A 
HETATM    3  C   UNL     1       5.698  10.041  92.280  1.00  0.00     0.005 A 
HETATM    4  C   UNL     1       7.345   8.565  91.308  1.00  0.00     0.042 A 
HETATM    5  C   UNL     1       7.086   9.105  90.048  1.00  0.00     0.008 A 
HETATM    6  C   UNL     1       6.651   9.033  92.424  1.00  0.00     0.008 A 
ENDROOT
BRANCH   1   7
HETATM    7  C   UNL     1       4.446  11.633  90.872  1.00  0.00     0.254 C 
HETATM    8  O   UNL     1       3.366  11.370  90.349  1.00  0.00    -0.268 OA
HETATM    9  N   UNL     1       4.802  12.880  91.369  1.00  0.00    -0.337 N 
HETATM   10  HN  UNL     1       5.703  13.017  91.811  1.00  0.00     0.164 HD
BRANCH   9  11
HETATM   11  C   UNL     1       3.918  14.016  91.317  1.00  0.00     0.172 C 
BRANCH  11  12
HETATM   12  C   UNL     1       3.799  14.613  89.909  1.00  0.00     0.136 C 
HETATM   13  C   UNL     1       5.157  14.828  89.250  1.00  0.00     0.034 C 
BRANCH  12  14
HETATM   14  O   UNL     1       3.017  13.746  89.088  1.00  0.00    -0.383 OA
HETATM   15  H   UNL     1       2.325  13.345  89.640  1.00  0.00     0.210 HD
ENDBRANCH  12  14
ENDBRANCH  11  12
BRANCH  11  16
HETATM   16  C   UNL     1       2.558  13.573  91.848  1.00  0.00     0.398 A 
HETATM   17  O   UNL     1       1.510  14.154  91.573  1.00  0.00    -0.136 OA
HETATM   18  N   UNL     1       1.556  13.823  93.056  1.00  0.00     0.142 N 
HETATM   19  HN  UNL     1       0.668  14.240  93.029  1.00  0.00     0.338 HD
BRANCH  18  20
HETATM   20  S   UNL     1       2.419  13.525  94.104  1.00  0.00     0.076 SA
HETATM   21  H   UNL     1       2.257  12.479  94.644  1.00  0.00     0.136 HD
ENDBRANCH  18  20
ENDBRANCH  11  16
ENDBRANCH   9  11
ENDBRANCH   1   7
BRANCH   4  22
HETATM   22  C   UNL     1       8.320   7.530  91.454  1.00  0.00    -0.059 C 
HETATM   23  C   UNL     1       9.140   6.660  91.577  1.00  0.00    -0.059 C 
BRANCH  23  24
HETATM   24  C   UNL     1      10.117   5.624  91.724  1.00  0.00     0.042 A 
HETATM   25  C   UNL     1      10.474   5.180  92.997  1.00  0.00     0.008 A 
HETATM   26  C   UNL     1      11.427   4.172  93.140  1.00  0.00    -0.002 A 
HETATM   27  C   UNL     1      12.021   3.607  92.011  1.00  0.00     0.011 A 
HETATM   28  C   UNL     1      11.662   4.053  90.739  1.00  0.00    -0.002 A 
HETATM   29  C   UNL     1      10.709   5.061  90.596  1.00  0.00     0.008 A 
BRANCH  27  30
HETATM   30  C   UNL     1      13.038   2.528  92.165  1.00  0.00     0.277 C 
BRANCH  30  31
HETATM   31  N   UNL     1      14.093   2.888  93.111  1.00  0.00     0.147 N 
HETATM   32  C   UNL     1      15.143   1.861  93.135  1.00  0.00     0.283 C 
HETATM   33  C   UNL     1      16.237   2.264  94.121  1.00  0.00     0.178 C 
HETATM   34  O   UNL     1      16.788   3.532  93.761  1.00  0.00    -0.350 OA
HETATM   35  C   UNL     1      15.779   4.542  93.765  1.00  0.00     0.178 C 
HETATM   36  C   UNL     1      14.674   4.195  92.773  1.00  0.00     0.283 C 
ENDBRANCH  30  31
ENDBRANCH  27  30
ENDBRANCH  23  24
ENDBRANCH   4  22
TORSDOF 10
ENDMDL
MODEL 3
REMARK VINA RESULT:      -6.5      0.766      1.246
REMARK  10 active torsions:
REMARK  status: ('A' for Active; 'I' for Inactive)
REMARK    1  A    between atoms: O_2  and  C_16 
REMARK    2  A    between atoms: N_5  and  C_9 
REMARK    3  A    between atoms: N_6  and  C_13 
REMARK       I    between atoms: N_6  and  C_22 
REMARK    4  A    between atoms: C_9  and  C_12 
REMARK    5  A    between atoms: C_13  and  C_16 
REMARK    6  A    between atoms: C_13  and  C_21 
REMARK    7  A    between atoms: C_19  and  C_24 
REMARK    8  A    between atoms: C_22  and  C_23 
REMARK    9  A    between atoms: C_27  and  C_30 
REMARK   10  A    between atoms: N_33  and  S_34 
ROOT
HETATM    1  C   UNL     1       5.430  10.753  89.767  1.00  0.00     0.056 A 
HETATM    2  C   UNL     1       6.238  10.840  90.882  1.00  0.00     0.005 A 
HETATM    3  C   UNL     1       5.489   9.684  88.897  1.00  0.00     0.005 A 
HETATM    4  C   UNL     1       7.227   8.722  90.272  1.00  0.00     0.042 A 
HETATM    5  C   UNL     1       7.147   9.814  91.138  1.00  0.00     0.008 A 
HETATM    6  C   UNL     1       6.398   8.657  89.152  1.00  0.00     0.008 A 
ENDROOT
BRANCH   1   7
HETATM    7  C   UNL     1       4.460  11.845  89.496  1.00  0.00     0.254 C 
HETATM    8  O   UNL     1       4.155  12.102  88.334  1.00  0.00    -0.268 OA
HETATM    9  N   UNL     1       3.943  12.490  90.612  1.00  0.00    -0.337 N 
HETATM   10  HN  UNL     1       4.223  12.206  91.543  1.00  0.00     0.164 HD
BRANCH   9  11
HETATM   11  C   UNL     1       2.975  13.553  90.514  1.00  0.00     0.172 C 
BRANCH  11  12
HETATM   12  C   UNL     1       1.833  13.410  91.527  1.00  0.00     0.136 C 
HETATM   13  C   UNL     1       2.114  12.341  92.577  1.00  0.00     0.034 C 
BRANCH  12  14
HETATM   14  O   UNL     1       1.617  14.659  92.183  1.00  0.00    -0.383 OA
HETATM   15  H   UNL     1       0.689  14.916  92.051  1.00  0.00     0.210 HD
ENDBRANCH  12  14
ENDBRANCH  11  12
BRANCH  11  16
HETATM   16  C   UNL     1       3.715  14.874  90.695  1.00  0.00     0.398 A 
HETATM   17  O   UNL     1       4.727  15.168  90.061  1.00  0.00    -0.136 OA
HETATM   18  N   UNL     1       4.898  15.530  91.528  1.00  0.00     0.142 N 
HETATM   19  HN  UNL     1       5.763  15.855  91.198  1.00  0.00     0.338 HD
BRANCH  18  20
HETATM   20  S   UNL     1       4.428  15.251  92.806  1.00  0.00     0.076 SA
HETATM   21  H   UNL     1       3.613  14.391  92.896  1.00  0.00     0.136 HD
ENDBRANCH  18  20
ENDBRANCH  11  16
ENDBRANCH   9  11
ENDBRANCH   1   7
BRANCH   4  22
HETATM   22  C   UNL     1       8.161   7.672  90.533  1.00  0.00    -0.059 C 
HETATM   23  C   UNL     1       8.946   6.788  90.751  1.00  0.00    -0.059 C 
BRANCH  23  24
HETATM   24  C   UNL     1       9.881   5.736  91.011  1.00  0.00     0.042 A 
HETATM   25  C   UNL     1      10.054   5.264  92.312  1.00  0.00     0.008 A 
HETATM   26  C   UNL     1      10.967   4.241  92.566  1.00  0.00    -0.002 A 
HETATM   27  C   UNL     1      11.705   3.689  91.518  1.00  0.00     0.011 A 
HETATM   28  C   UNL     1      11.530   4.162  90.217  1.00  0.00    -0.002 A 
HETATM   29  C   UNL     1      10.618   5.186  89.964  1.00  0.00     0.008 A 
BRANCH  27  30
HETATM   30  C   UNL     1      12.679   2.594  91.790  1.00  0.00     0.277 C 
BRANCH  30  31
HETATM   31  N   UNL     1      13.671   2.968  92.797  1.00  0.00     0.147 N 
HETATM   32  C   UNL     1      14.574   1.844  93.079  1.00  0.00     0.283 C 
HETATM   33  C   UNL     1      15.607   2.261  94.124  1.00  0.00     0.178 C 
HETATM   34  O   UNL     1      16.347   3.394  93.666  1.00  0.00    -0.350 OA
HETATM   35  C   UNL     1      15.479   4.501  93.419  1.00  0.00     0.178 C 
HETATM   36  C   UNL     1      14.444   4.138  92.359  1.00  0.00     0.283 C 
ENDBRANCH  30  31
ENDBRANCH  27  30
ENDBRANCH  23  24
ENDBRANCH   4  22
TORSDOF 10
ENDMDL
MODEL 4
REMARK VINA RESULT:      -6.5      1.477      1.783
REMARK  10 active torsions:
REMARK  status: ('A' for Active; 'I' for Inactive)
REMARK    1  A    between atoms: O_2  and  C_16 
REMARK    2  A    between atoms: N_5  and  C_9 
REMARK    3  A    between atoms: N_6  and  C_13 
REMARK       I    between atoms: N_6  and  C_22 
REMARK    4  A    between atoms: C_9  and  C_12 
REMARK    5  A    between atoms: C_13  and  C_16 
REMARK    6  A    between atoms: C_13  and  C_21 
REMARK    7  A    between atoms: C_19  and  C_24 
REMARK    8  A    between atoms: C_22  and  C_23 
REMARK    9  A    between atoms: C_27  and  C_30 
REMARK   10  A    between atoms: N_33  and  S_34 
ROOT
HETATM    1  C   UNL     1       4.798   9.640  90.242  1.00  0.00     0.056 A 
HETATM    2  C   UNL     1       4.719   8.389  89.667  1.00  0.00     0.005 A 
HETATM    3  C   UNL     1       5.878  10.034  91.003  1.00  0.00     0.005 A 
HETATM    4  C   UNL     1       6.872   7.864  90.630  1.00  0.00     0.042 A 
HETATM    5  C   UNL     1       5.768   7.490  89.863  1.00  0.00     0.008 A 
HETATM    6  C   UNL     1       6.927   9.136  91.200  1.00  0.00     0.008 A 
ENDROOT
BRANCH   1   7
HETATM    7  C   UNL     1       3.681  10.598  90.031  1.00  0.00     0.254 C 
HETATM    8  O   UNL     1       2.648  10.206  89.494  1.00  0.00    -0.268 OA
HETATM    9  N   UNL     1       3.893  11.890  90.491  1.00  0.00    -0.337 N 
HETATM   10  HN  UNL     1       4.764  12.135  90.948  1.00  0.00     0.164 HD
BRANCH   9  11
HETATM   11  C   UNL     1       2.898  12.925  90.382  1.00  0.00     0.172 C 
BRANCH  11  12
HETATM   12  C   UNL     1       2.314  13.333  91.741  1.00  0.00     0.136 C 
HETATM   13  C   UNL     1       1.306  14.471  91.625  1.00  0.00     0.034 C 
BRANCH  12  14
HETATM   14  O   UNL     1       1.675  12.208  92.343  1.00  0.00    -0.383 OA
HETATM   15  H   UNL     1       0.791  12.482  92.641  1.00  0.00     0.210 HD
ENDBRANCH  12  14
ENDBRANCH  11  12
BRANCH  11  16
HETATM   16  C   UNL     1       3.538  14.115  89.674  1.00  0.00     0.398 A 
HETATM   17  O   UNL     1       4.292  13.994  88.710  1.00  0.00    -0.136 OA
HETATM   18  N   UNL     1       4.851  15.010  89.693  1.00  0.00     0.142 N 
HETATM   19  HN  UNL     1       5.550  15.074  89.008  1.00  0.00     0.338 HD
BRANCH  18  20
HETATM   20  S   UNL     1       4.801  15.419  91.021  1.00  0.00     0.076 SA
HETATM   21  H   UNL     1       5.431  14.778  91.798  1.00  0.00     0.136 HD
ENDBRANCH  18  20
ENDBRANCH  11  16
ENDBRANCH   9  11
ENDBRANCH   1   7
BRANCH   4  22
HETATM   22  C   UNL     1       7.945   6.942  90.833  1.00  0.00    -0.059 C 
HETATM   23  C   UNL     1       8.848   6.167  91.004  1.00  0.00    -0.059 C 
BRANCH  23  24
HETATM   24  C   UNL     1       9.923   5.245  91.208  1.00  0.00     0.042 A 
HETATM   25  C   UNL     1      10.589   4.698  90.111  1.00  0.00     0.008 A 
HETATM   26  C   UNL     1      11.635   3.797  90.310  1.00  0.00    -0.002 A 
HETATM   27  C   UNL     1      12.017   3.446  91.605  1.00  0.00     0.011 A 
HETATM   28  C   UNL     1      11.350   3.995  92.701  1.00  0.00    -0.002 A 
HETATM   29  C   UNL     1      10.303   4.894  92.502  1.00  0.00     0.008 A 
BRANCH  27  30
HETATM   30  C   UNL     1      13.137   2.485  91.816  1.00  0.00     0.277 C 
BRANCH  30  31
HETATM   31  N   UNL     1      14.111   2.972  92.791  1.00  0.00     0.147 N 
HETATM   32  C   UNL     1      15.091   1.925  93.114  1.00  0.00     0.283 C 
HETATM   33  C   UNL     1      16.104   2.458  94.124  1.00  0.00     0.178 C 
HETATM   34  O   UNL     1      16.762   3.615  93.604  1.00  0.00    -0.350 OA
HETATM   35  C   UNL     1      15.820   4.649  93.316  1.00  0.00     0.178 C 
HETATM   36  C   UNL     1      14.801   4.168  92.288  1.00  0.00     0.283 C 
ENDBRANCH  30  31
ENDBRANCH  27  30
ENDBRANCH  23  24
ENDBRANCH   4  22
TORSDOF 10
ENDMDL
MODEL 5
REMARK VINA RESULT:      -6.3      1.400      1.634
REMARK  10 active torsions:
REMARK  status: ('A' for Active; 'I' for Inactive)
REMARK    1  A    between atoms: O_2  and  C_16 
REMARK    2  A    between atoms: N_5  and  C_9 
REMARK    3  A    between atoms: N_6  and  C_13 
REMARK       I    between atoms: N_6  and  C_22 
REMARK    4  A    between atoms: C_9  and  C_12 
REMARK    5  A    between atoms: C_13  and  C_16 
REMARK    6  A    between atoms: C_13  and  C_21 
REMARK    7  A    between atoms: C_19  and  C_24 
REMARK    8  A    between atoms: C_22  and  C_23 
REMARK    9  A    between atoms: C_27  and  C_30 
REMARK   10  A    between atoms: N_33  and  S_34 
ROOT
HETATM    1  C   UNL     1       4.609  10.041  90.851  1.00  0.00     0.056 A 
HETATM    2  C   UNL     1       5.876  10.373  90.420  1.00  0.00     0.005 A 
HETATM    3  C   UNL     1       4.319   8.812  91.407  1.00  0.00     0.005 A 
HETATM    4  C   UNL     1       6.632   8.184  91.106  1.00  0.00     0.042 A 
HETATM    5  C   UNL     1       6.899   9.435  90.548  1.00  0.00     0.008 A 
HETATM    6  C   UNL     1       5.342   7.873  91.535  1.00  0.00     0.008 A 
ENDROOT
BRANCH   1   7
HETATM    7  C   UNL     1       3.519  11.042  90.717  1.00  0.00     0.254 C 
HETATM    8  O   UNL     1       2.610  10.836  89.916  1.00  0.00    -0.268 OA
HETATM    9  N   UNL     1       3.605  12.151  91.548  1.00  0.00    -0.337 N 
HETATM   10  HN  UNL     1       4.373  12.242  92.203  1.00  0.00     0.164 HD
BRANCH   9  11
HETATM   11  C   UNL     1       2.613  13.196  91.552  1.00  0.00     0.172 C 
BRANCH  11  12
HETATM   12  C   UNL     1       2.490  13.891  92.914  1.00  0.00     0.136 C 
HETATM   13  C   UNL     1       3.819  13.956  93.659  1.00  0.00     0.034 C 
BRANCH  12  14
HETATM   14  O   UNL     1       1.997  15.218  92.729  1.00  0.00    -0.383 OA
HETATM   15  H   UNL     1       1.662  15.540  93.583  1.00  0.00     0.210 HD
ENDBRANCH  12  14
ENDBRANCH  11  12
BRANCH  11  16
HETATM   16  C   UNL     1       2.978  14.189  90.453  1.00  0.00     0.398 A 
HETATM   17  O   UNL     1       3.169  13.855  89.285  1.00  0.00    -0.136 OA
HETATM   18  N   UNL     1       4.238  14.837  89.735  1.00  0.00     0.142 N 
HETATM   19  HN  UNL     1       4.534  14.718  88.808  1.00  0.00     0.338 HD
BRANCH  18  20
HETATM   20  S   UNL     1       4.867  15.361  90.859  1.00  0.00     0.076 SA
HETATM   21  H   UNL     1       4.853  16.544  90.972  1.00  0.00     0.136 HD
ENDBRANCH  18  20
ENDBRANCH  11  16
ENDBRANCH   9  11
ENDBRANCH   1   7
BRANCH   4  22
HETATM   22  C   UNL     1       7.680   7.221  91.235  1.00  0.00    -0.059 C 
HETATM   23  C   UNL     1       8.562   6.411  91.344  1.00  0.00    -0.059 C 
BRANCH  23  24
HETATM   24  C   UNL     1       9.610   5.446  91.472  1.00  0.00     0.042 A 
HETATM   25  C   UNL     1      10.150   4.848  90.334  1.00  0.00     0.008 A 
HETATM   26  C   UNL     1      11.171   3.906  90.460  1.00  0.00    -0.002 A 
HETATM   27  C   UNL     1      11.653   3.564  91.724  1.00  0.00     0.011 A 
HETATM   28  C   UNL     1      11.112   4.164  92.861  1.00  0.00    -0.002 A 
HETATM   29  C   UNL     1      10.091   5.105  92.735  1.00  0.00     0.008 A 
BRANCH  27  30
HETATM   30  C   UNL     1      12.746   2.559  91.856  1.00  0.00     0.277 C 
BRANCH  30  31
HETATM   31  N   UNL     1      13.741   2.947  92.854  1.00  0.00     0.147 N 
HETATM   32  C   UNL     1      14.696   1.855  93.088  1.00  0.00     0.283 C 
HETATM   33  C   UNL     1      15.731   2.286  94.124  1.00  0.00     0.178 C 
HETATM   34  O   UNL     1      16.415   3.462  93.684  1.00  0.00    -0.350 OA
HETATM   35  C   UNL     1      15.497   4.537  93.484  1.00  0.00     0.178 C 
HETATM   36  C   UNL     1      14.456   4.160  92.435  1.00  0.00     0.283 C 
ENDBRANCH  30  31
ENDBRANCH  27  30
ENDBRANCH  23  24
ENDBRANCH   4  22
TORSDOF 10
ENDMDL
MODEL 6
REMARK VINA RESULT:      -6.0      1.763      2.427
REMARK  10 active torsions:
REMARK  status: ('A' for Active; 'I' for Inactive)
REMARK    1  A    between atoms: O_2  and  C_16 
REMARK    2  A    between atoms: N_5  and  C_9 
REMARK    3  A    between atoms: N_6  and  C_13 
REMARK       I    between atoms: N_6  and  C_22 
REMARK    4  A    between atoms: C_9  and  C_12 
REMARK    5  A    between atoms: C_13  and  C_16 
REMARK    6  A    between atoms: C_13  and  C_21 
REMARK    7  A    between atoms: C_19  and  C_24 
REMARK    8  A    between atoms: C_22  and  C_23 
REMARK    9  A    between atoms: C_27  and  C_30 
REMARK   10  A    between atoms: N_33  and  S_34 
ROOT
HETATM    1  C   UNL     1       5.112   9.307  90.419  1.00  0.00     0.056 A 
HETATM    2  C   UNL     1       6.149   9.665  91.254  1.00  0.00     0.005 A 
HETATM    3  C   UNL     1       5.041   8.066  89.822  1.00  0.00     0.005 A 
HETATM    4  C   UNL     1       7.117   7.478  90.910  1.00  0.00     0.042 A 
HETATM    5  C   UNL     1       7.164   8.741  91.502  1.00  0.00     0.008 A 
HETATM    6  C   UNL     1       6.056   7.141  90.070  1.00  0.00     0.008 A 
ENDROOT
BRANCH   1   7
HETATM    7  C   UNL     1       4.030  10.291  90.157  1.00  0.00     0.254 C 
HETATM    8  O   UNL     1       2.999   9.916  89.604  1.00  0.00    -0.268 OA
HETATM    9  N   UNL     1       4.269  11.588  90.591  1.00  0.00    -0.337 N 
HETATM   10  HN  UNL     1       5.135  11.819  91.064  1.00  0.00     0.164 HD
BRANCH   9  11
HETATM   11  C   UNL     1       3.307  12.649  90.432  1.00  0.00     0.172 C 
BRANCH  11  12
HETATM   12  C   UNL     1       3.143  13.497  91.699  1.00  0.00     0.136 C 
HETATM   13  C   UNL     1       1.680  13.735  92.056  1.00  0.00     0.034 C 
BRANCH  12  14
HETATM   14  O   UNL     1       3.787  12.847  92.795  1.00  0.00    -0.383 OA
HETATM   15  H   UNL     1       4.662  13.253  92.918  1.00  0.00     0.210 HD
ENDBRANCH  12  14
ENDBRANCH  11  12
BRANCH  11  16
HETATM   16  C   UNL     1       3.747  13.502  89.247  1.00  0.00     0.398 A 
HETATM   17  O   UNL     1       4.444  13.068  88.331  1.00  0.00    -0.136 OA
HETATM   18  N   UNL     1       4.938  14.438  88.767  1.00  0.00     0.142 N 
HETATM   19  HN  UNL     1       5.576  14.280  88.039  1.00  0.00     0.338 HD
BRANCH  18  20
HETATM   20  S   UNL     1       4.927  15.342  89.823  1.00  0.00     0.076 SA
HETATM   21  H   UNL     1       4.053  16.148  89.823  1.00  0.00     0.136 HD
ENDBRANCH  18  20
ENDBRANCH  11  16
ENDBRANCH   9  11
ENDBRANCH   1   7
BRANCH   4  22
HETATM   22  C   UNL     1       8.158   6.532  91.162  1.00  0.00    -0.059 C 
HETATM   23  C   UNL     1       9.034   5.736  91.374  1.00  0.00    -0.059 C 
BRANCH  23  24
HETATM   24  C   UNL     1      10.076   4.789  91.627  1.00  0.00     0.042 A 
HETATM   25  C   UNL     1      10.621   4.678  92.906  1.00  0.00     0.008 A 
HETATM   26  C   UNL     1      11.638   3.756  93.152  1.00  0.00    -0.002 A 
HETATM   27  C   UNL     1      12.108   2.943  92.120  1.00  0.00     0.011 A 
HETATM   28  C   UNL     1      11.561   3.055  90.842  1.00  0.00    -0.002 A 
HETATM   29  C   UNL     1      10.544   3.978  90.596  1.00  0.00     0.008 A 
BRANCH  27  30
HETATM   30  C   UNL     1      13.193   1.956  92.385  1.00  0.00     0.277 C 
BRANCH  30  31
HETATM   31  N   UNL     1      14.486   2.599  92.614  1.00  0.00     0.147 N 
HETATM   32  C   UNL     1      14.355   4.062  92.573  1.00  0.00     0.283 C 
HETATM   33  C   UNL     1      15.714   4.710  92.825  1.00  0.00     0.178 C 
HETATM   34  O   UNL     1      16.238   4.291  94.087  1.00  0.00    -0.350 OA
HETATM   35  C   UNL     1      16.397   2.873  94.124  1.00  0.00     0.178 C 
HETATM   36  C   UNL     1      15.056   2.181  93.902  1.00  0.00     0.283 C 
ENDBRANCH  30  31
ENDBRANCH  27  30
ENDBRANCH  23  24
ENDBRANCH   4  22
TORSDOF 10
ENDMDL
MODEL 7
REMARK VINA RESULT:      -5.4      3.116      4.019
REMARK  10 active torsions:
REMARK  status: ('A' for Active; 'I' for Inactive)
REMARK    1  A    between atoms: O_2  and  C_16 
REMARK    2  A    between atoms: N_5  and  C_9 
REMARK    3  A    between atoms: N_6  and  C_13 
REMARK       I    between atoms: N_6  and  C_22 
REMARK    4  A    between atoms: C_9  and  C_12 
REMARK    5  A    between atoms: C_13  and  C_16 
REMARK    6  A    between atoms: C_13  and  C_21 
REMARK    7  A    between atoms: C_19  and  C_24 
REMARK    8  A    between atoms: C_22  and  C_23 
REMARK    9  A    between atoms: C_27  and  C_30 
REMARK   10  A    between atoms: N_33  and  S_34 
ROOT
HETATM    1  C   UNL     1       6.170   7.514  88.450  1.00  0.00     0.056 A 
HETATM    2  C   UNL     1       7.461   7.996  88.391  1.00  0.00     0.005 A 
HETATM    3  C   UNL     1       5.841   6.374  89.153  1.00  0.00     0.005 A 
HETATM    4  C   UNL     1       8.162   6.150  89.783  1.00  0.00     0.042 A 
HETATM    5  C   UNL     1       8.469   7.307  89.065  1.00  0.00     0.008 A 
HETATM    6  C   UNL     1       6.849   5.684  89.827  1.00  0.00     0.008 A 
ENDROOT
BRANCH   1   7
HETATM    7  C   UNL     1       5.096   8.249  87.734  1.00  0.00     0.254 C 
HETATM    8  O   UNL     1       5.245   8.523  86.546  1.00  0.00    -0.268 OA
HETATM    9  N   UNL     1       3.967   8.556  88.481  1.00  0.00    -0.337 N 
HETATM   10  HN  UNL     1       3.903   8.275  89.453  1.00  0.00     0.164 HD
BRANCH   9  11
HETATM   11  C   UNL     1       2.831   9.244  87.923  1.00  0.00     0.172 C 
BRANCH  11  12
HETATM   12  C   UNL     1       1.523   8.457  88.080  1.00  0.00     0.136 C 
HETATM   13  C   UNL     1       1.315   7.442  86.962  1.00  0.00     0.034 C 
BRANCH  12  14
HETATM   14  O   UNL     1       1.526   7.772  89.333  1.00  0.00    -0.383 OA
HETATM   15  H   UNL     1       1.449   8.433  90.042  1.00  0.00     0.210 HD
ENDBRANCH  12  14
ENDBRANCH  11  12
BRANCH  11  16
HETATM   16  C   UNL     1       2.739  10.611  88.593  1.00  0.00     0.398 A 
HETATM   17  O   UNL     1       3.454  11.560  88.279  1.00  0.00    -0.136 OA
HETATM   18  N   UNL     1       3.358  11.449  89.792  1.00  0.00     0.142 N 
HETATM   19  HN  UNL     1       3.924  12.249  89.742  1.00  0.00     0.338 HD
BRANCH  18  20
HETATM   20  S   UNL     1       3.072  10.568  90.828  1.00  0.00     0.076 SA
HETATM   21  H   UNL     1       1.941  10.522  91.190  1.00  0.00     0.136 HD
ENDBRANCH  18  20
ENDBRANCH  11  16
ENDBRANCH   9  11
ENDBRANCH   1   7
BRANCH   4  22
HETATM   22  C   UNL     1       9.197   5.442  90.471  1.00  0.00    -0.059 C 
HETATM   23  C   UNL     1      10.066   4.847  91.049  1.00  0.00    -0.059 C 
BRANCH  23  24
HETATM   24  C   UNL     1      11.101   4.139  91.739  1.00  0.00     0.042 A 
HETATM   25  C   UNL     1      11.806   3.128  91.086  1.00  0.00     0.008 A 
HETATM   26  C   UNL     1      12.813   2.436  91.759  1.00  0.00    -0.002 A 
HETATM   27  C   UNL     1      13.116   2.756  93.083  1.00  0.00     0.011 A 
HETATM   28  C   UNL     1      12.409   3.768  93.734  1.00  0.00    -0.002 A 
HETATM   29  C   UNL     1      11.402   4.459  93.061  1.00  0.00     0.008 A 
BRANCH  27  30
HETATM   30  C   UNL     1      14.194   2.017  93.800  1.00  0.00     0.277 C 
BRANCH  30  31
HETATM   31  N   UNL     1      15.334   2.872  94.124  1.00  0.00     0.147 N 
HETATM   32  C   UNL     1      16.544   2.413  93.427  1.00  0.00     0.283 C 
HETATM   33  C   UNL     1      17.718   3.326  93.772  1.00  0.00     0.178 C 
HETATM   34  O   UNL     1      17.418   4.676  93.414  1.00  0.00    -0.350 OA
HETATM   35  C   UNL     1      16.262   5.141  94.110  1.00  0.00     0.178 C 
HETATM   36  C   UNL     1      15.054   4.272  93.775  1.00  0.00     0.283 C 
ENDBRANCH  30  31
ENDBRANCH  27  30
ENDBRANCH  23  24
ENDBRANCH   4  22
TORSDOF 10
ENDMDL
MODEL 8
REMARK VINA RESULT:      -5.3      3.525     12.418
REMARK  10 active torsions:
REMARK  status: ('A' for Active; 'I' for Inactive)
REMARK    1  A    between atoms: O_2  and  C_16 
REMARK    2  A    between atoms: N_5  and  C_9 
REMARK    3  A    between atoms: N_6  and  C_13 
REMARK       I    between atoms: N_6  and  C_22 
REMARK    4  A    between atoms: C_9  and  C_12 
REMARK    5  A    between atoms: C_13  and  C_16 
REMARK    6  A    between atoms: C_13  and  C_21 
REMARK    7  A    between atoms: C_19  and  C_24 
REMARK    8  A    between atoms: C_22  and  C_23 
REMARK    9  A    between atoms: C_27  and  C_30 
REMARK   10  A    between atoms: N_33  and  S_34 
ROOT
HETATM    1  C   UNL     1      10.115   5.801  89.772  1.00  0.00     0.056 A 
HETATM    2  C   UNL     1       9.269   5.908  90.857  1.00  0.00     0.005 A 
HETATM    3  C   UNL     1      10.073   6.688  88.717  1.00  0.00     0.005 A 
HETATM    4  C   UNL     1       8.277   7.857  89.831  1.00  0.00     0.042 A 
HETATM    5  C   UNL     1       8.339   6.947  90.887  1.00  0.00     0.008 A 
HETATM    6  C   UNL     1       9.144   7.728  88.746  1.00  0.00     0.008 A 
ENDROOT
BRANCH   1   7
HETATM    7  C   UNL     1      11.106   4.695  89.741  1.00  0.00     0.254 C 
HETATM    8  O   UNL     1      11.273   4.068  88.698  1.00  0.00    -0.268 OA
HETATM    9  N   UNL     1      11.802   4.469  90.921  1.00  0.00    -0.337 N 
HETATM   10  HN  UNL     1      11.628   5.044  91.737  1.00  0.00     0.164 HD
BRANCH   9  11
HETATM   11  C   UNL     1      12.812   3.449  91.042  1.00  0.00     0.172 C 
BRANCH  11  12
HETATM   12  C   UNL     1      14.232   4.025  91.116  1.00  0.00     0.136 C 
HETATM   13  C   UNL     1      15.286   3.047  90.611  1.00  0.00     0.034 C 
BRANCH  12  14
HETATM   14  O   UNL     1      14.302   5.223  90.343  1.00  0.00    -0.383 OA
HETATM   15  H   UNL     1      13.467   5.709  90.457  1.00  0.00     0.210 HD
ENDBRANCH  12  14
ENDBRANCH  11  12
BRANCH  11  16
HETATM   16  C   UNL     1      12.487   2.615  92.276  1.00  0.00     0.398 A 
HETATM   17  O   UNL     1      11.383   2.623  92.819  1.00  0.00    -0.136 OA
HETATM   18  N   UNL     1      12.486   2.695  93.863  1.00  0.00     0.142 N 
HETATM   19  HN  UNL     1      11.714   2.684  94.469  1.00  0.00     0.338 HD
BRANCH  18  20
HETATM   20  S   UNL     1      13.820   3.035  94.052  1.00  0.00     0.076 SA
HETATM   21  H   UNL     1      14.611   2.493  93.350  1.00  0.00     0.136 HD
ENDBRANCH  18  20
ENDBRANCH  11  16
ENDBRANCH   9  11
ENDBRANCH   1   7
BRANCH   4  22
HETATM   22  C   UNL     1       7.323   8.921  89.861  1.00  0.00    -0.059 C 
HETATM   23  C   UNL     1       6.520   9.816  89.887  1.00  0.00    -0.059 C 
BRANCH  23  24
HETATM   24  C   UNL     1       5.565  10.881  89.916  1.00  0.00     0.042 A 
HETATM   25  C   UNL     1       4.328  10.689  90.529  1.00  0.00     0.008 A 
HETATM   26  C   UNL     1       3.396  11.727  90.556  1.00  0.00    -0.002 A 
HETATM   27  C   UNL     1       3.703  12.956  89.971  1.00  0.00     0.011 A 
HETATM   28  C   UNL     1       4.941  13.145  89.358  1.00  0.00    -0.002 A 
HETATM   29  C   UNL     1       5.873  12.107  89.331  1.00  0.00     0.008 A 
BRANCH  27  30
HETATM   30  C   UNL     1       2.707  14.064  90.002  1.00  0.00     0.277 C 
BRANCH  30  31
HETATM   31  N   UNL     1       2.674  14.748  91.294  1.00  0.00     0.147 N 
HETATM   32  C   UNL     1       1.786  14.047  92.231  1.00  0.00     0.283 C 
HETATM   33  C   UNL     1       1.777  14.771  93.575  1.00  0.00     0.178 C 
HETATM   34  O   UNL     1       3.101  14.850  94.106  1.00  0.00    -0.350 OA
HETATM   35  C   UNL     1       3.964  15.557  93.215  1.00  0.00     0.178 C 
HETATM   36  C   UNL     1       4.025  14.853  91.863  1.00  0.00     0.283 C 
ENDBRANCH  30  31
ENDBRANCH  27  30
ENDBRANCH  23  24
ENDBRANCH   4  22
TORSDOF 10
ENDMDL
MODEL 9
REMARK VINA RESULT:      -5.0      3.518     12.582
REMARK  10 active torsions:
REMARK  status: ('A' for Active; 'I' for Inactive)
REMARK    1  A    between atoms: O_2  and  C_16 
REMARK    2  A    between atoms: N_5  and  C_9 
REMARK    3  A    between atoms: N_6  and  C_13 
REMARK       I    between atoms: N_6  and  C_22 
REMARK    4  A    between atoms: C_9  and  C_12 
REMARK    5  A    between atoms: C_13  and  C_16 
REMARK    6  A    between atoms: C_13  and  C_21 
REMARK    7  A    between atoms: C_19  and  C_24 
REMARK    8  A    between atoms: C_22  and  C_23 
REMARK    9  A    between atoms: C_27  and  C_30 
REMARK   10  A    between atoms: N_33  and  S_34 
ROOT
HETATM    1  C   UNL     1      10.286   5.103  92.189  1.00  0.00     0.056 A 
HETATM    2  C   UNL     1       9.346   4.897  91.202  1.00  0.00     0.005 A 
HETATM    3  C   UNL     1      10.397   6.302  92.861  1.00  0.00     0.005 A 
HETATM    4  C   UNL     1       8.571   7.160  91.534  1.00  0.00     0.042 A 
HETATM    5  C   UNL     1       8.478   5.937  90.869  1.00  0.00     0.008 A 
HETATM    6  C   UNL     1       9.530   7.343  92.530  1.00  0.00     0.008 A 
ENDROOT
BRANCH   1   7
HETATM    7  C   UNL     1      11.209   3.994  92.544  1.00  0.00     0.254 C 
HETATM    8  O   UNL     1      10.804   2.835  92.487  1.00  0.00    -0.268 OA
HETATM    9  N   UNL     1      12.498   4.366  92.899  1.00  0.00    -0.337 N 
HETATM   10  HN  UNL     1      12.769   5.342  92.900  1.00  0.00     0.164 HD
BRANCH   9  11
HETATM   11  C   UNL     1      13.515   3.405  93.245  1.00  0.00     0.172 C 
BRANCH  11  12
HETATM   12  C   UNL     1      13.910   2.508  92.066  1.00  0.00     0.136 C 
HETATM   13  C   UNL     1      14.325   3.308  90.836  1.00  0.00     0.034 C 
BRANCH  12  14
HETATM   14  O   UNL     1      14.991   1.659  92.453  1.00  0.00    -0.383 OA
HETATM   15  H   UNL     1      15.811   2.019  92.075  1.00  0.00     0.210 HD
ENDBRANCH  12  14
ENDBRANCH  11  12
BRANCH  11  16
HETATM   16  C   UNL     1      14.717   4.173  93.785  1.00  0.00     0.398 A 
HETATM   17  O   UNL     1      15.216   5.132  93.200  1.00  0.00    -0.136 OA
HETATM   18  N   UNL     1      16.304   4.203  93.715  1.00  0.00     0.142 N 
HETATM   19  HN  UNL     1      16.879   4.893  93.320  1.00  0.00     0.338 HD
BRANCH  18  20
HETATM   20  S   UNL     1      16.552   2.897  94.122  1.00  0.00     0.076 SA
HETATM   21  H   UNL     1      16.004   2.537  95.113  1.00  0.00     0.136 HD
ENDBRANCH  18  20
ENDBRANCH  11  16
ENDBRANCH   9  11
ENDBRANCH   1   7
BRANCH   4  22
HETATM   22  C   UNL     1       7.683   8.227  91.192  1.00  0.00    -0.059 C 
HETATM   23  C   UNL     1       6.937   9.125  90.903  1.00  0.00    -0.059 C 
BRANCH  23  24
HETATM   24  C   UNL     1       6.048  10.192  90.560  1.00  0.00     0.042 A 
HETATM   25  C   UNL     1       6.445  11.159  89.637  1.00  0.00     0.008 A 
HETATM   26  C   UNL     1       5.580  12.201  89.304  1.00  0.00    -0.002 A 
HETATM   27  C   UNL     1       4.317  12.274  89.893  1.00  0.00     0.011 A 
HETATM   28  C   UNL     1       3.921  11.306  90.816  1.00  0.00    -0.002 A 
HETATM   29  C   UNL     1       4.787  10.265  91.149  1.00  0.00     0.008 A 
BRANCH  27  30
HETATM   30  C   UNL     1       3.392  13.387  89.534  1.00  0.00     0.277 C 
BRANCH  30  31
HETATM   31  N   UNL     1       3.140  14.287  90.659  1.00  0.00     0.147 N 
HETATM   32  C   UNL     1       2.186  13.687  91.602  1.00  0.00     0.283 C 
HETATM   33  C   UNL     1       1.948  14.638  92.772  1.00  0.00     0.178 C 
HETATM   34  O   UNL     1       3.181  14.934  93.430  1.00  0.00    -0.350 OA
HETATM   35  C   UNL     1       4.103  15.546  92.528  1.00  0.00     0.178 C 
HETATM   36  C   UNL     1       4.393  14.618  91.353  1.00  0.00     0.283 C 
ENDBRANCH  30  31
ENDBRANCH  27  30
ENDBRANCH  23  24
ENDBRANCH   4  22
TORSDOF 10
ENDMDL
