MODEL 1
REMARK VINA RESULT:      -7.0      0.000      0.000
REMARK  10 active torsions:
REMARK  status: ('A' for Active; 'I' for Inactive)
REMARK    1  A    between atoms: O_2  and  C_18 
REMARK    2  A    between atoms: O_5  and  N_8 
REMARK    3  A    between atoms: N_6  and  C_11 
REMARK    4  A    between atoms: N_7  and  C_15 
REMARK       I    between atoms: N_7  and  C_24 
REMARK       I    between atoms: N_8  and  C_23 
REMARK    5  A    between atoms: C_11  and  C_14 
REMARK    6  A    between atoms: C_15  and  C_18 
REMARK    7  A    between atoms: C_15  and  C_23 
REMARK    8  A    between atoms: C_21  and  C_26 
REMARK    9  A    between atoms: C_24  and  C_25 
REMARK   10  A    between atoms: C_29  and  C_32 
ROOT
HETATM    1  O   UNK     0      16.526   4.304  94.091  0.00  0.00    -0.388 OA
HETATM    2  N   UNK     0      14.723   2.640  92.647  0.00  0.00     0.096 N 
HETATM    3  C   UNK     0      14.610   4.105  92.615  0.00  0.00     0.299 C 
HETATM    4  C   UNK     0      15.313   2.210  93.922  0.00  0.00     0.299 C 
HETATM    5  C   UNK     0      15.982   4.735  92.842  0.00  0.00     0.198 C 
HETATM    6  C   UNK     0      16.668   2.884  94.119  0.00  0.00     0.198 C 
ENDROOT
BRANCH   2   7
HETATM    7  C   UNK     0      13.417   2.016  92.442  0.00  0.00     0.311 C 
BRANCH   7   8
HETATM    8  C   UNK     0      12.339   3.017  92.205  0.00  0.00    -0.030 A 
HETATM    9  C   UNK     0      11.854   3.783  93.267  0.00  0.00     0.010 A 
HETATM   10  C   UNK     0      10.844   4.719  93.047  0.00  0.00     0.021 A 
HETATM   11  C   UNK     0      10.321   4.890  91.765  0.00  0.00     0.018 A 
HETATM   12  C   UNK     0      10.805   4.127  90.705  0.00  0.00     0.021 A 
HETATM   13  C   UNK     0      11.814   3.190  90.925  0.00  0.00     0.010 A 
BRANCH  11  14
HETATM   14  C   UNK     0       9.286   5.852  91.539  0.00  0.00    -0.061 C 
HETATM   15  C   UNK     0       8.416   6.660  91.349  0.00  0.00    -0.061 C 
BRANCH  15  16
HETATM   16  C   UNK     0       7.384   7.622  91.123  0.00  0.00     0.018 A 
HETATM   17  C   UNK     0       6.053   7.288  91.379  0.00  0.00     0.022 A 
HETATM   18  C   UNK     0       5.045   8.227  91.160  0.00  0.00     0.018 A 
HETATM   19  C   UNK     0       5.389   9.478  90.691  0.00  0.00     0.032 A 
HETATM   20  C   UNK     0       6.696   9.832  90.429  0.00  0.00     0.018 A 
HETATM   21  C   UNK     0       7.704   8.893  90.647  0.00  0.00     0.022 A 
BRANCH  19  22
HETATM   22  C   UNK     0       4.314  10.477  90.456  0.00  0.00     0.252 C 
HETATM   23  O   UNK     0       3.143  10.106  90.444  0.00  0.00    -0.268 OA
HETATM   24  N   UNK     0       4.731  11.790  90.289  0.00  0.00    -0.341 N 
HETATM   25  H   UNK     0       5.716  12.026  90.336  0.00  0.00     0.163 HD
BRANCH  24  26
HETATM   26  C   UNK     0       3.808  12.876  90.077  0.00  0.00     0.207 C 
BRANCH  26  27
HETATM   27  C   UNK     0       3.630  13.755  91.321  0.00  0.00     0.146 C 
HETATM   28  C   UNK     0       2.165  14.058  91.617  0.00  0.00     0.042 C 
BRANCH  27  29
HETATM   29  O   UNK     0       4.205  13.102  92.453  0.00  0.00    -0.393 OA
HETATM   30  H   UNK     0       3.495  12.908  93.087  0.00  0.00     0.210 HD
ENDBRANCH  27  29
ENDBRANCH  26  27
BRANCH  26  31
HETATM   31  C   UNK     0       4.312  13.691  88.890  0.00  0.00     0.266 C 
HETATM   32  O   UNK     0       4.552  14.895  88.958  0.00  0.00    -0.269 OA
HETATM   33  N   UNK     0       4.423  12.933  87.750  0.00  0.00    -0.236 N 
HETATM   34  H   UNK     0       4.149  11.964  87.636  0.00  0.00     0.197 HD
BRANCH  33  35
HETATM   35  O   UNK     0       4.844  13.617  86.601  0.00  0.00    -0.287 OA
HETATM   36  H   UNK     0       4.006  14.024  86.323  0.00  0.00     0.244 HD
ENDBRANCH  33  35
ENDBRANCH  26  31
ENDBRANCH  24  26
ENDBRANCH  19  22
ENDBRANCH  15  16
ENDBRANCH  11  14
ENDBRANCH   7   8
ENDBRANCH   2   7
TORSDOF 10
ENDMDL
MODEL 2
REMARK VINA RESULT:      -6.6      1.314      1.876
REMARK  10 active torsions:
REMARK  status: ('A' for Active; 'I' for Inactive)
REMARK    1  A    between atoms: O_2  and  C_18 
REMARK    2  A    between atoms: O_5  and  N_8 
REMARK    3  A    between atoms: N_6  and  C_11 
REMARK    4  A    between atoms: N_7  and  C_15 
REMARK       I    between atoms: N_7  and  C_24 
REMARK       I    between atoms: N_8  and  C_23 
REMARK    5  A    between atoms: C_11  and  C_14 
REMARK    6  A    between atoms: C_15  and  C_18 
REMARK    7  A    between atoms: C_15  and  C_23 
REMARK    8  A    between atoms: C_21  and  C_26 
REMARK    9  A    between atoms: C_24  and  C_25 
REMARK   10  A    between atoms: C_29  and  C_32 
ROOT
HETATM    1  O   UNK     0      16.883   3.843  93.904  0.00  0.00    -0.388 OA
HETATM    2  N   UNK     0      14.311   3.112  92.927  0.00  0.00     0.096 N 
HETATM    3  C   UNK     0      15.409   2.138  93.002  0.00  0.00     0.299 C 
HETATM    4  C   UNK     0      14.850   4.464  92.734  0.00  0.00     0.299 C 
HETATM    5  C   UNK     0      16.369   2.528  94.124  0.00  0.00     0.198 C 
HETATM    6  C   UNK     0      15.823   4.800  93.860  0.00  0.00     0.198 C 
ENDROOT
BRANCH   2   7
HETATM    7  C   UNK     0      13.384   2.764  91.851  0.00  0.00     0.311 C 
BRANCH   7   8
HETATM    8  C   UNK     0      12.221   3.693  91.781  0.00  0.00    -0.030 A 
HETATM    9  C   UNK     0      11.907   4.326  90.577  0.00  0.00     0.010 A 
HETATM   10  C   UNK     0      10.820   5.198  90.511  0.00  0.00     0.021 A 
HETATM   11  C   UNK     0      10.047   5.435  91.647  0.00  0.00     0.018 A 
HETATM   12  C   UNK     0      10.360   4.803  92.849  0.00  0.00     0.021 A 
HETATM   13  C   UNK     0      11.447   3.932  92.916  0.00  0.00     0.010 A 
BRANCH  11  14
HETATM   14  C   UNK     0       8.931   6.327  91.578  0.00  0.00    -0.061 C 
HETATM   15  C   UNK     0       7.993   7.077  91.521  0.00  0.00    -0.061 C 
BRANCH  15  16
HETATM   16  C   UNK     0       6.878   7.968  91.453  0.00  0.00     0.018 A 
HETATM   17  C   UNK     0       5.592   7.460  91.265  0.00  0.00     0.022 A 
HETATM   18  C   UNK     0       4.502   8.329  91.200  0.00  0.00     0.018 A 
HETATM   19  C   UNK     0       4.722   9.685  91.326  0.00  0.00     0.032 A 
HETATM   20  C   UNK     0       5.983  10.212  91.512  0.00  0.00     0.018 A 
HETATM   21  C   UNK     0       7.073   9.343  91.576  0.00  0.00     0.022 A 
BRANCH  19  22
HETATM   22  C   UNK     0       3.562  10.610  91.255  0.00  0.00     0.252 C 
HETATM   23  O   UNK     0       2.457  10.164  90.955  0.00  0.00    -0.268 OA
HETATM   24  N   UNK     0       3.822  11.937  91.566  0.00  0.00    -0.341 N 
HETATM   25  H   UNK     0       4.756  12.228  91.829  0.00  0.00     0.163 HD
BRANCH  24  26
HETATM   26  C   UNK     0       2.797  12.949  91.566  0.00  0.00     0.207 C 
BRANCH  26  27
HETATM   27  C   UNK     0       2.621  13.617  92.936  0.00  0.00     0.146 C 
HETATM   28  C   UNK     0       3.731  13.245  93.913  0.00  0.00     0.042 C 
BRANCH  27  29
HETATM   29  O   UNK     0       2.600  15.035  92.777  0.00  0.00    -0.393 OA
HETATM   30  H   UNK     0       2.372  15.434  93.633  0.00  0.00     0.210 HD
ENDBRANCH  27  29
ENDBRANCH  26  27
BRANCH  26  31
HETATM   31  C   UNK     0       3.152  13.972  90.492  0.00  0.00     0.266 C 
HETATM   32  O   UNK     0       2.346  14.369  89.652  0.00  0.00    -0.269 OA
HETATM   33  N   UNK     0       4.470  14.356  90.557  0.00  0.00    -0.236 N 
HETATM   34  H   UNK     0       5.180  13.984  91.176  0.00  0.00     0.197 HD
BRANCH  33  35
HETATM   35  O   UNK     0       4.888  15.269  89.578  0.00  0.00    -0.287 OA
HETATM   36  H   UNK     0       5.831  15.347  89.804  0.00  0.00     0.244 HD
ENDBRANCH  33  35
ENDBRANCH  26  31
ENDBRANCH  24  26
ENDBRANCH  19  22
ENDBRANCH  15  16
ENDBRANCH  11  14
ENDBRANCH   7   8
ENDBRANCH   2   7
TORSDOF 10
ENDMDL
MODEL 3
REMARK VINA RESULT:      -6.2      1.928      2.429
REMARK  10 active torsions:
REMARK  status: ('A' for Active; 'I' for Inactive)
REMARK    1  A    between atoms: O_2  and  C_18 
REMARK    2  A    between atoms: O_5  and  N_8 
REMARK    3  A    between atoms: N_6  and  C_11 
REMARK    4  A    between atoms: N_7  and  C_15 
REMARK       I    between atoms: N_7  and  C_24 
REMARK       I    between atoms: N_8  and  C_23 
REMARK    5  A    between atoms: C_11  and  C_14 
REMARK    6  A    between atoms: C_15  and  C_18 
REMARK    7  A    between atoms: C_15  and  C_23 
REMARK    8  A    between atoms: C_21  and  C_26 
REMARK    9  A    between atoms: C_24  and  C_25 
REMARK   10  A    between atoms: C_29  and  C_32 
ROOT
HETATM    1  O   UNK     0      16.617   3.014  93.583  0.00  0.00    -0.388 OA
HETATM    2  N   UNK     0      13.893   3.111  92.763  0.00  0.00     0.096 N 
HETATM    3  C   UNK     0      14.549   1.840  93.099  0.00  0.00     0.299 C 
HETATM    4  C   UNK     0      14.883   4.069  92.254  0.00  0.00     0.299 C 
HETATM    5  C   UNK     0      15.667   2.086  94.109  0.00  0.00     0.198 C 
HETATM    6  C   UNK     0      15.993   4.263  93.283  0.00  0.00     0.198 C 
ENDROOT
BRANCH   2   7
HETATM    7  C   UNK     0      12.825   2.900  91.788  0.00  0.00     0.311 C 
BRANCH   7   8
HETATM    8  C   UNK     0      11.709   3.877  91.947  0.00  0.00    -0.030 A 
HETATM    9  C   UNK     0      11.268   4.227  93.224  0.00  0.00     0.010 A 
HETATM   10  C   UNK     0      10.223   5.138  93.374  0.00  0.00     0.021 A 
HETATM   11  C   UNK     0       9.621   5.700  92.249  0.00  0.00     0.018 A 
HETATM   12  C   UNK     0      10.062   5.352  90.974  0.00  0.00     0.021 A 
HETATM   13  C   UNK     0      11.106   4.440  90.823  0.00  0.00     0.010 A 
BRANCH  11  14
HETATM   14  C   UNK     0       8.551   6.637  92.403  0.00  0.00    -0.061 C 
HETATM   15  C   UNK     0       7.651   7.424  92.533  0.00  0.00    -0.061 C 
BRANCH  15  16
HETATM   16  C   UNK     0       6.583   8.360  92.687  0.00  0.00     0.018 A 
HETATM   17  C   UNK     0       5.260   7.919  92.655  0.00  0.00     0.022 A 
HETATM   18  C   UNK     0       4.217   8.832  92.807  0.00  0.00     0.018 A 
HETATM   19  C   UNK     0       4.519  10.166  92.989  0.00  0.00     0.032 A 
HETATM   20  C   UNK     0       5.818  10.628  93.024  0.00  0.00     0.018 A 
HETATM   21  C   UNK     0       6.861   9.715  92.871  0.00  0.00     0.022 A 
BRANCH  19  22
HETATM   22  C   UNK     0       3.407  11.139  93.149  0.00  0.00     0.252 C 
HETATM   23  O   UNK     0       2.305  10.735  93.513  0.00  0.00    -0.268 OA
HETATM   24  N   UNK     0       3.719  12.466  92.891  0.00  0.00    -0.341 N 
HETATM   25  H   UNK     0       4.659  12.728  92.618  0.00  0.00     0.163 HD
BRANCH  24  26
HETATM   26  C   UNK     0       2.756  13.529  93.025  0.00  0.00     0.207 C 
BRANCH  26  27
HETATM   27  C   UNK     0       3.320  14.751  93.762  0.00  0.00     0.146 C 
HETATM   28  C   UNK     0       4.329  15.525  92.921  0.00  0.00     0.042 C 
BRANCH  27  29
HETATM   29  O   UNK     0       2.251  15.625  94.124  0.00  0.00    -0.393 OA
HETATM   30  H   UNK     0       1.785  15.238  94.884  0.00  0.00     0.210 HD
ENDBRANCH  27  29
ENDBRANCH  26  27
BRANCH  26  31
HETATM   31  C   UNK     0       2.272  13.899  91.627  0.00  0.00     0.266 C 
HETATM   32  O   UNK     0       1.209  14.481  91.418  0.00  0.00    -0.269 OA
HETATM   33  N   UNK     0       3.138  13.474  90.649  0.00  0.00    -0.236 N 
HETATM   34  H   UNK     0       3.974  12.916  90.779  0.00  0.00     0.197 HD
BRANCH  33  35
HETATM   35  O   UNK     0       2.747  13.741  89.329  0.00  0.00    -0.287 OA
HETATM   36  H   UNK     0       3.141  12.979  88.872  0.00  0.00     0.244 HD
ENDBRANCH  33  35
ENDBRANCH  26  31
ENDBRANCH  24  26
ENDBRANCH  19  22
ENDBRANCH  15  16
ENDBRANCH  11  14
ENDBRANCH   7   8
ENDBRANCH   2   7
TORSDOF 10
ENDMDL
MODEL 4
REMARK VINA RESULT:      -6.1      1.579      2.619
REMARK  10 active torsions:
REMARK  status: ('A' for Active; 'I' for Inactive)
REMARK    1  A    between atoms: O_2  and  C_18 
REMARK    2  A    between atoms: O_5  and  N_8 
REMARK    3  A    between atoms: N_6  and  C_11 
REMARK    4  A    between atoms: N_7  and  C_15 
REMARK       I    between atoms: N_7  and  C_24 
REMARK       I    between atoms: N_8  and  C_23 
REMARK    5  A    between atoms: C_11  and  C_14 
REMARK    6  A    between atoms: C_15  and  C_18 
REMARK    7  A    between atoms: C_15  and  C_23 
REMARK    8  A    between atoms: C_21  and  C_26 
REMARK    9  A    between atoms: C_24  and  C_25 
REMARK   10  A    between atoms: C_29  and  C_32 
ROOT
HETATM    1  O   UNK     0      15.863   4.479  93.666  0.00  0.00    -0.388 OA
HETATM    2  N   UNK     0      14.085   2.741  92.280  0.00  0.00     0.096 N 
HETATM    3  C   UNK     0      14.338   4.112  91.814  0.00  0.00     0.299 C 
HETATM    4  C   UNK     0      14.252   2.666  93.738  0.00  0.00     0.299 C 
HETATM    5  C   UNK     0      15.734   4.554  92.245  0.00  0.00     0.198 C 
HETATM    6  C   UNK     0      15.649   3.143  94.124  0.00  0.00     0.198 C 
ENDROOT
BRANCH   2   7
HETATM    7  C   UNK     0      12.748   2.300  91.888  0.00  0.00     0.311 C 
BRANCH   7   8
HETATM    8  C   UNK     0      11.800   3.438  91.718  0.00  0.00    -0.030 A 
HETATM    9  C   UNK     0      11.391   3.819  90.440  0.00  0.00     0.010 A 
HETATM   10  C   UNK     0      10.507   4.885  90.279  0.00  0.00     0.021 A 
HETATM   11  C   UNK     0      10.031   5.569  91.398  0.00  0.00     0.018 A 
HETATM   12  C   UNK     0      10.439   5.190  92.675  0.00  0.00     0.021 A 
HETATM   13  C   UNK     0      11.324   4.124  92.836  0.00  0.00     0.010 A 
BRANCH  11  14
HETATM   14  C   UNK     0       9.122   6.662  91.233  0.00  0.00    -0.061 C 
HETATM   15  C   UNK     0       8.358   7.580  91.095  0.00  0.00    -0.061 C 
BRANCH  15  16
HETATM   16  C   UNK     0       7.451   8.672  90.930  0.00  0.00     0.018 A 
HETATM   17  C   UNK     0       7.743   9.688  90.019  0.00  0.00     0.022 A 
HETATM   18  C   UNK     0       6.857  10.753  89.856  0.00  0.00     0.018 A 
HETATM   19  C   UNK     0       5.700  10.778  90.606  0.00  0.00     0.032 A 
HETATM   20  C   UNK     0       5.389   9.787  91.513  0.00  0.00     0.018 A 
HETATM   21  C   UNK     0       6.275   8.723  91.677  0.00  0.00     0.022 A 
BRANCH  19  22
HETATM   22  C   UNK     0       4.757  11.914  90.433  0.00  0.00     0.252 C 
HETATM   23  O   UNK     0       4.706  12.491  89.350  0.00  0.00    -0.268 OA
HETATM   24  N   UNK     0       3.972  12.225  91.534  0.00  0.00    -0.341 N 
HETATM   25  H   UNK     0       4.051  11.687  92.389  0.00  0.00     0.163 HD
BRANCH  24  26
HETATM   26  C   UNK     0       2.994  13.283  91.516  0.00  0.00     0.207 C 
BRANCH  26  27
HETATM   27  C   UNK     0       1.659  12.869  92.148  0.00  0.00     0.146 C 
HETATM   28  C   UNK     0       1.690  11.449  92.700  0.00  0.00     0.042 C 
BRANCH  27  29
HETATM   29  O   UNK     0       1.332  13.770  93.205  0.00  0.00    -0.393 OA
HETATM   30  H   UNK     0       2.051  13.747  93.859  0.00  0.00     0.210 HD
ENDBRANCH  27  29
ENDBRANCH  26  27
BRANCH  26  31
HETATM   31  C   UNK     0       3.597  14.487  92.232  0.00  0.00     0.266 C 
HETATM   32  O   UNK     0       3.573  15.625  91.765  0.00  0.00    -0.269 OA
HETATM   33  N   UNK     0       4.192  14.140  93.420  0.00  0.00    -0.236 N 
HETATM   34  H   UNK     0       4.308  13.203  93.790  0.00  0.00     0.197 HD
BRANCH  33  35
HETATM   35  O   UNK     0       4.805  15.186  94.124  0.00  0.00    -0.287 OA
HETATM   36  H   UNK     0       5.706  15.135  93.762  0.00  0.00     0.244 HD
ENDBRANCH  33  35
ENDBRANCH  26  31
ENDBRANCH  24  26
ENDBRANCH  19  22
ENDBRANCH  15  16
ENDBRANCH  11  14
ENDBRANCH   7   8
ENDBRANCH   2   7
TORSDOF 10
ENDMDL
MODEL 5
REMARK VINA RESULT:      -5.7      2.633     12.702
REMARK  10 active torsions:
REMARK  status: ('A' for Active; 'I' for Inactive)
REMARK    1  A    between atoms: O_2  and  C_18 
REMARK    2  A    between atoms: O_5  and  N_8 
REMARK    3  A    between atoms: N_6  and  C_11 
REMARK    4  A    between atoms: N_7  and  C_15 
REMARK       I    between atoms: N_7  and  C_24 
REMARK       I    between atoms: N_8  and  C_23 
REMARK    5  A    between atoms: C_11  and  C_14 
REMARK    6  A    between atoms: C_15  and  C_18 
REMARK    7  A    between atoms: C_15  and  C_23 
REMARK    8  A    between atoms: C_21  and  C_26 
REMARK    9  A    between atoms: C_24  and  C_25 
REMARK   10  A    between atoms: C_29  and  C_32 
ROOT
HETATM    1  O   UNK     0       1.451  15.307  93.366  0.00  0.00    -0.388 OA
HETATM    2  N   UNK     0       3.386  13.758  91.967  0.00  0.00     0.096 N 
HETATM    3  C   UNK     0       3.644  15.157  92.335  0.00  0.00     0.299 C 
HETATM    4  C   UNK     0       1.946  13.545  91.773  0.00  0.00     0.299 C 
HETATM    5  C   UNK     0       2.847  15.516  93.587  0.00  0.00     0.198 C 
HETATM    6  C   UNK     0       1.189  13.943  93.037  0.00  0.00     0.198 C 
ENDROOT
BRANCH   2   7
HETATM    7  C   UNK     0       4.131  13.395  90.762  0.00  0.00     0.311 C 
BRANCH   7   8
HETATM    8  C   UNK     0       5.044  12.238  90.987  0.00  0.00    -0.030 A 
HETATM    9  C   UNK     0       5.130  11.654  92.251  0.00  0.00     0.010 A 
HETATM   10  C   UNK     0       5.986  10.573  92.463  0.00  0.00     0.021 A 
HETATM   11  C   UNK     0       6.754  10.076  91.410  0.00  0.00     0.018 A 
HETATM   12  C   UNK     0       6.668  10.658  90.147  0.00  0.00     0.021 A 
HETATM   13  C   UNK     0       5.813  11.740  89.935  0.00  0.00     0.010 A 
BRANCH  11  14
HETATM   14  C   UNK     0       7.630   8.966  91.627  0.00  0.00    -0.061 C 
HETATM   15  C   UNK     0       8.366   8.033  91.809  0.00  0.00    -0.061 C 
BRANCH  15  16
HETATM   16  C   UNK     0       9.240   6.924  92.027  0.00  0.00     0.018 A 
HETATM   17  C   UNK     0       9.600   6.565  93.327  0.00  0.00     0.022 A 
HETATM   18  C   UNK     0      10.452   5.481  93.540  0.00  0.00     0.018 A 
HETATM   19  C   UNK     0      10.925   4.780  92.451  0.00  0.00     0.032 A 
HETATM   20  C   UNK     0      10.585   5.115  91.157  0.00  0.00     0.018 A 
HETATM   21  C   UNK     0       9.734   6.199  90.943  0.00  0.00     0.022 A 
BRANCH  19  22
HETATM   22  C   UNK     0      11.834   3.627  92.678  0.00  0.00     0.252 C 
HETATM   23  O   UNK     0      11.560   2.539  92.178  0.00  0.00    -0.268 OA
HETATM   24  N   UNK     0      12.965   3.886  93.441  0.00  0.00    -0.341 N 
HETATM   25  H   UNK     0      13.138   4.817  93.801  0.00  0.00     0.163 HD
BRANCH  24  26
HETATM   26  C   UNK     0      13.953   2.878  93.729  0.00  0.00     0.207 C 
BRANCH  26  27
HETATM   27  C   UNK     0      14.013   1.782  92.656  0.00  0.00     0.146 C 
HETATM   28  C   UNK     0      14.791   2.218  91.420  0.00  0.00     0.042 C 
BRANCH  27  29
HETATM   29  O   UNK     0      14.626   0.614  93.202  0.00  0.00    -0.393 OA
HETATM   30  H   UNK     0      14.754  -0.027  92.482  0.00  0.00     0.210 HD
ENDBRANCH  27  29
ENDBRANCH  26  27
BRANCH  26  31
HETATM   31  C   UNK     0      15.300   3.576  93.884  0.00  0.00     0.266 C 
HETATM   32  O   UNK     0      16.351   2.969  94.077  0.00  0.00    -0.269 OA
HETATM   33  N   UNK     0      15.185   4.944  93.821  0.00  0.00    -0.236 N 
HETATM   34  H   UNK     0      14.327   5.479  93.753  0.00  0.00     0.197 HD
BRANCH  33  35
HETATM   35  O   UNK     0      16.375   5.665  93.994  0.00  0.00    -0.287 OA
HETATM   36  H   UNK     0      16.056   6.569  93.834  0.00  0.00     0.244 HD
ENDBRANCH  33  35
ENDBRANCH  26  31
ENDBRANCH  24  26
ENDBRANCH  19  22
ENDBRANCH  15  16
ENDBRANCH  11  14
ENDBRANCH   7   8
ENDBRANCH   2   7
TORSDOF 10
ENDMDL
MODEL 6
REMARK VINA RESULT:      -5.4      2.586     12.439
REMARK  10 active torsions:
REMARK  status: ('A' for Active; 'I' for Inactive)
REMARK    1  A    between atoms: O_2  and  C_18 
REMARK    2  A    between atoms: O_5  and  N_8 
REMARK    3  A    between atoms: N_6  and  C_11 
REMARK    4  A    between atoms: N_7  and  C_15 
REMARK       I    between atoms: N_7  and  C_24 
REMARK       I    between atoms: N_8  and  C_23 
REMARK    5  A    between atoms: C_11  and  C_14 
REMARK    6  A    between atoms: C_15  and  C_18 
REMARK    7  A    between atoms: C_15  and  C_23 
REMARK    8  A    between atoms: C_21  and  C_26 
REMARK    9  A    between atoms: C_24  and  C_25 
REMARK   10  A    between atoms: C_29  and  C_32 
ROOT
HETATM    1  O   UNK     0       2.856  15.015  93.976  0.00  0.00    -0.388 OA
HETATM    2  N   UNK     0       2.646  14.527  91.179  0.00  0.00     0.096 N 
HETATM    3  C   UNK     0       1.662  13.987  92.129  0.00  0.00     0.299 C 
HETATM    4  C   UNK     0       3.950  14.677  91.837  0.00  0.00     0.299 C 
HETATM    5  C   UNK     0       1.575  14.895  93.354  0.00  0.00     0.198 C 
HETATM    6  C   UNK     0       3.810  15.567  93.069  0.00  0.00     0.198 C 
ENDROOT
BRANCH   2   7
HETATM    7  C   UNK     0       2.754  13.667  90.002  0.00  0.00     0.311 C 
BRANCH   7   8
HETATM    8  C   UNK     0       3.780  12.599  90.171  0.00  0.00    -0.030 A 
HETATM    9  C   UNK     0       4.984  12.673  89.469  0.00  0.00     0.010 A 
HETATM   10  C   UNK     0       5.944  11.674  89.624  0.00  0.00     0.021 A 
HETATM   11  C   UNK     0       5.701  10.602  90.482  0.00  0.00     0.018 A 
HETATM   12  C   UNK     0       4.500  10.527  91.184  0.00  0.00     0.021 A 
HETATM   13  C   UNK     0       3.539  11.526  91.028  0.00  0.00     0.010 A 
BRANCH  11  14
HETATM   14  C   UNK     0       6.687   9.578  90.643  0.00  0.00    -0.061 C 
HETATM   15  C   UNK     0       7.516   8.717  90.778  0.00  0.00    -0.061 C 
BRANCH  15  16
HETATM   16  C   UNK     0       8.500   7.694  90.940  0.00  0.00     0.018 A 
HETATM   17  C   UNK     0       9.050   7.073  89.818  0.00  0.00     0.022 A 
HETATM   18  C   UNK     0      10.012   6.075  89.975  0.00  0.00     0.018 A 
HETATM   19  C   UNK     0      10.403   5.721  91.249  0.00  0.00     0.032 A 
HETATM   20  C   UNK     0       9.874   6.318  92.374  0.00  0.00     0.018 A 
HETATM   21  C   UNK     0       8.912   7.315  92.217  0.00  0.00     0.022 A 
BRANCH  19  22
HETATM   22  C   UNK     0      11.427   4.657  91.416  0.00  0.00     0.252 C 
HETATM   23  O   UNK     0      11.739   3.967  90.448  0.00  0.00    -0.268 OA
HETATM   24  N   UNK     0      11.982   4.540  92.683  0.00  0.00    -0.341 N 
HETATM   25  H   UNK     0      11.692   5.162  93.429  0.00  0.00     0.163 HD
BRANCH  24  26
HETATM   26  C   UNK     0      13.003   3.573  92.997  0.00  0.00     0.207 C 
BRANCH  26  27
HETATM   27  C   UNK     0      12.874   2.286  92.172  0.00  0.00     0.146 C 
HETATM   28  C   UNK     0      13.928   1.248  92.542  0.00  0.00     0.042 C 
BRANCH  27  29
HETATM   29  O   UNK     0      11.579   1.721  92.369  0.00  0.00    -0.393 OA
HETATM   30  H   UNK     0      10.965   2.139  91.742  0.00  0.00     0.210 HD
ENDBRANCH  27  29
ENDBRANCH  26  27
BRANCH  26  31
HETATM   31  C   UNK     0      14.357   4.239  92.778  0.00  0.00     0.266 C 
HETATM   32  O   UNK     0      14.747   4.617  91.675  0.00  0.00    -0.269 OA
HETATM   33  N   UNK     0      15.087   4.324  93.939  0.00  0.00    -0.236 N 
HETATM   34  H   UNK     0      14.835   3.944  94.844  0.00  0.00     0.197 HD
BRANCH  33  35
HETATM   35  O   UNK     0      16.364   4.891  93.817  0.00  0.00    -0.287 OA
HETATM   36  H   UNK     0      16.145   5.834  93.903  0.00  0.00     0.244 HD
ENDBRANCH  33  35
ENDBRANCH  26  31
ENDBRANCH  24  26
ENDBRANCH  19  22
ENDBRANCH  15  16
ENDBRANCH  11  14
ENDBRANCH   7   8
ENDBRANCH   2   7
TORSDOF 10
ENDMDL
MODEL 7
REMARK VINA RESULT:      -5.3      1.546      2.780
REMARK  10 active torsions:
REMARK  status: ('A' for Active; 'I' for Inactive)
REMARK    1  A    between atoms: O_2  and  C_18 
REMARK    2  A    between atoms: O_5  and  N_8 
REMARK    3  A    between atoms: N_6  and  C_11 
REMARK    4  A    between atoms: N_7  and  C_15 
REMARK       I    between atoms: N_7  and  C_24 
REMARK       I    between atoms: N_8  and  C_23 
REMARK    5  A    between atoms: C_11  and  C_14 
REMARK    6  A    between atoms: C_15  and  C_18 
REMARK    7  A    between atoms: C_15  and  C_23 
REMARK    8  A    between atoms: C_21  and  C_26 
REMARK    9  A    between atoms: C_24  and  C_25 
REMARK   10  A    between atoms: C_29  and  C_32 
ROOT
HETATM    1  O   UNK     0      16.004   4.038  94.124  0.00  0.00    -0.388 OA
HETATM    2  N   UNK     0      14.322   2.677  92.275  0.00  0.00     0.096 N 
HETATM    3  C   UNK     0      14.421   4.143  92.287  0.00  0.00     0.299 C 
HETATM    4  C   UNK     0      14.574   2.144  93.620  0.00  0.00     0.299 C 
HETATM    5  C   UNK     0      15.791   4.564  92.812  0.00  0.00     0.198 C 
HETATM    6  C   UNK     0      15.940   2.611  94.115  0.00  0.00     0.198 C 
ENDROOT
BRANCH   2   7
HETATM    7  C   UNK     0      13.012   2.250  91.785  0.00  0.00     0.311 C 
BRANCH   7   8
HETATM    8  C   UNK     0      12.001   3.344  91.842  0.00  0.00    -0.030 A 
HETATM    9  C   UNK     0      11.410   3.808  90.666  0.00  0.00     0.010 A 
HETATM   10  C   UNK     0      10.465   4.833  90.717  0.00  0.00     0.021 A 
HETATM   11  C   UNK     0      10.111   5.392  91.945  0.00  0.00     0.018 A 
HETATM   12  C   UNK     0      10.701   4.930  93.119  0.00  0.00     0.021 A 
HETATM   13  C   UNK     0      11.646   3.906  93.068  0.00  0.00     0.010 A 
BRANCH  11  14
HETATM   14  C   UNK     0       9.141   6.442  91.998  0.00  0.00    -0.061 C 
HETATM   15  C   UNK     0       8.326   7.325  92.042  0.00  0.00    -0.061 C 
BRANCH  15  16
HETATM   16  C   UNK     0       7.357   8.374  92.095  0.00  0.00     0.018 A 
HETATM   17  C   UNK     0       7.750   9.696  91.880  0.00  0.00     0.022 A 
HETATM   18  C   UNK     0       6.804  10.720  91.931  0.00  0.00     0.018 A 
HETATM   19  C   UNK     0       5.489  10.401  92.194  0.00  0.00     0.032 A 
HETATM   20  C   UNK     0       5.075   9.103  92.410  0.00  0.00     0.018 A 
HETATM   21  C   UNK     0       6.020   8.079  92.361  0.00  0.00     0.022 A 
BRANCH  19  22
HETATM   22  C   UNK     0       4.482  11.493  92.249  0.00  0.00     0.252 C 
HETATM   23  O   UNK     0       3.519  11.383  93.003  0.00  0.00    -0.268 OA
HETATM   24  N   UNK     0       4.732  12.592  91.439  0.00  0.00    -0.341 N 
HETATM   25  H   UNK     0       5.563  12.624  90.860  0.00  0.00     0.163 HD
BRANCH  24  26
HETATM   26  C   UNK     0       3.863  13.740  91.400  0.00  0.00     0.207 C 
BRANCH  26  27
HETATM   27  C   UNK     0       3.626  14.257  89.975  0.00  0.00     0.146 C 
HETATM   28  C   UNK     0       4.856  14.942  89.390  0.00  0.00     0.042 C 
BRANCH  27  29
HETATM   29  O   UNK     0       3.255  13.170  89.128  0.00  0.00    -0.393 OA
HETATM   30  H   UNK     0       2.299  13.020  89.226  0.00  0.00     0.210 HD
ENDBRANCH  27  29
ENDBRANCH  26  27
BRANCH  26  31
HETATM   31  C   UNK     0       2.551  13.355  92.075  0.00  0.00     0.266 C 
HETATM   32  O   UNK     0       1.612  12.840  91.470  0.00  0.00    -0.269 OA
HETATM   33  N   UNK     0       2.537  13.684  93.409  0.00  0.00    -0.236 N 
HETATM   34  H   UNK     0       3.255  14.188  93.917  0.00  0.00     0.197 HD
BRANCH  33  35
HETATM   35  O   UNK     0       1.349  13.397  94.096  0.00  0.00    -0.287 OA
HETATM   36  H   UNK     0       1.295  14.171  94.682  0.00  0.00     0.244 HD
ENDBRANCH  33  35
ENDBRANCH  26  31
ENDBRANCH  24  26
ENDBRANCH  19  22
ENDBRANCH  15  16
ENDBRANCH  11  14
ENDBRANCH   7   8
ENDBRANCH   2   7
TORSDOF 10
ENDMDL
MODEL 8
REMARK VINA RESULT:      -5.3      1.876     12.458
REMARK  10 active torsions:
REMARK  status: ('A' for Active; 'I' for Inactive)
REMARK    1  A    between atoms: O_2  and  C_18 
REMARK    2  A    between atoms: O_5  and  N_8 
REMARK    3  A    between atoms: N_6  and  C_11 
REMARK    4  A    between atoms: N_7  and  C_15 
REMARK       I    between atoms: N_7  and  C_24 
REMARK       I    between atoms: N_8  and  C_23 
REMARK    5  A    between atoms: C_11  and  C_14 
REMARK    6  A    between atoms: C_15  and  C_18 
REMARK    7  A    between atoms: C_15  and  C_23 
REMARK    8  A    between atoms: C_21  and  C_26 
REMARK    9  A    between atoms: C_24  and  C_25 
REMARK   10  A    between atoms: C_29  and  C_32 
ROOT
HETATM    1  O   UNK     0       5.575  14.861  88.719  0.00  0.00    -0.388 OA
HETATM    2  N   UNK     0       3.637  13.394  90.201  0.00  0.00     0.096 N 
HETATM    3  C   UNK     0       4.317  14.565  90.773  0.00  0.00     0.299 C 
HETATM    4  C   UNK     0       4.507  12.740  89.215  0.00  0.00     0.299 C 
HETATM    5  C   UNK     0       4.724  15.523  89.656  0.00  0.00     0.198 C 
HETATM    6  C   UNK     0       4.910  13.740  88.135  0.00  0.00     0.198 C 
ENDROOT
BRANCH   2   7
HETATM    7  C   UNK     0       3.247  12.457  91.253  0.00  0.00     0.311 C 
BRANCH   7   8
HETATM    8  C   UNK     0       4.265  11.389  91.468  0.00  0.00    -0.030 A 
HETATM    9  C   UNK     0       5.252  11.554  92.441  0.00  0.00     0.010 A 
HETATM   10  C   UNK     0       6.207  10.557  92.642  0.00  0.00     0.021 A 
HETATM   11  C   UNK     0       6.172   9.395  91.871  0.00  0.00     0.018 A 
HETATM   12  C   UNK     0       5.187   9.229  90.900  0.00  0.00     0.021 A 
HETATM   13  C   UNK     0       4.233  10.227  90.698  0.00  0.00     0.010 A 
BRANCH  11  14
HETATM   14  C   UNK     0       7.150   8.371  92.079  0.00  0.00    -0.061 C 
HETATM   15  C   UNK     0       7.971   7.511  92.254  0.00  0.00    -0.061 C 
BRANCH  15  16
HETATM   16  C   UNK     0       8.948   6.489  92.462  0.00  0.00     0.018 A 
HETATM   17  C   UNK     0       9.620   6.406  93.683  0.00  0.00     0.022 A 
HETATM   18  C   UNK     0      10.572   5.407  93.888  0.00  0.00     0.018 A 
HETATM   19  C   UNK     0      10.831   4.514  92.869  0.00  0.00     0.032 A 
HETATM   20  C   UNK     0      10.181   4.575  91.654  0.00  0.00     0.018 A 
HETATM   21  C   UNK     0       9.229   5.574  91.449  0.00  0.00     0.022 A 
BRANCH  19  22
HETATM   22  C   UNK     0      11.847   3.452  93.087  0.00  0.00     0.252 C 
HETATM   23  O   UNK     0      11.545   2.280  92.871  0.00  0.00    -0.268 OA
HETATM   24  N   UNK     0      13.097   3.883  93.506  0.00  0.00    -0.341 N 
HETATM   25  H   UNK     0      13.281   4.871  93.639  0.00  0.00     0.163 HD
BRANCH  24  26
HETATM   26  C   UNK     0      14.193   2.977  93.736  0.00  0.00     0.207 C 
BRANCH  26  27
HETATM   27  C   UNK     0      14.291   1.879  92.669  0.00  0.00     0.146 C 
HETATM   28  C   UNK     0      15.171   2.286  91.493  0.00  0.00     0.042 C 
BRANCH  27  29
HETATM   29  O   UNK     0      14.819   0.690  93.255  0.00  0.00    -0.393 OA
HETATM   30  H   UNK     0      15.270   0.931  94.081  0.00  0.00     0.210 HD
ENDBRANCH  27  29
ENDBRANCH  26  27
BRANCH  26  31
HETATM   31  C   UNK     0      15.475   3.802  93.801  0.00  0.00     0.266 C 
HETATM   32  O   UNK     0      15.503   5.013  93.588  0.00  0.00    -0.269 OA
HETATM   33  N   UNK     0      16.575   3.030  94.084  0.00  0.00    -0.236 N 
HETATM   34  H   UNK     0      16.602   2.021  94.176  0.00  0.00     0.197 HD
BRANCH  33  35
HETATM   35  O   UNK     0      17.802   3.708  94.124  0.00  0.00    -0.287 OA
HETATM   36  H   UNK     0      17.606   4.383  94.797  0.00  0.00     0.244 HD
ENDBRANCH  33  35
ENDBRANCH  26  31
ENDBRANCH  24  26
ENDBRANCH  19  22
ENDBRANCH  15  16
ENDBRANCH  11  14
ENDBRANCH   7   8
ENDBRANCH   2   7
TORSDOF 10
ENDMDL
MODEL 9
REMARK VINA RESULT:      -4.8      2.263     12.433
REMARK  10 active torsions:
REMARK  status: ('A' for Active; 'I' for Inactive)
REMARK    1  A    between atoms: O_2  and  C_18 
REMARK    2  A    between atoms: O_5  and  N_8 
REMARK    3  A    between atoms: N_6  and  C_11 
REMARK    4  A    between atoms: N_7  and  C_15 
REMARK       I    between atoms: N_7  and  C_24 
REMARK       I    between atoms: N_8  and  C_23 
REMARK    5  A    between atoms: C_11  and  C_14 
REMARK    6  A    between atoms: C_15  and  C_18 
REMARK    7  A    between atoms: C_15  and  C_23 
REMARK    8  A    between atoms: C_21  and  C_26 
REMARK    9  A    between atoms: C_24  and  C_25 
REMARK   10  A    between atoms: C_29  and  C_32 
ROOT
HETATM    1  O   UNK     0       3.248  14.857  93.295  0.00  0.00    -0.388 OA
HETATM    2  N   UNK     0       2.966  13.698  90.711  0.00  0.00     0.096 N 
HETATM    3  C   UNK     0       2.055  13.353  91.810  0.00  0.00     0.299 C 
HETATM    4  C   UNK     0       4.282  14.072  91.246  0.00  0.00     0.299 C 
HETATM    5  C   UNK     0       1.955  14.523  92.786  0.00  0.00     0.198 C 
HETATM    6  C   UNK     0       4.131  15.224  92.235  0.00  0.00     0.198 C 
ENDROOT
BRANCH   2   7
HETATM    7  C   UNK     0       3.085  12.587  89.769  0.00  0.00     0.311 C 
BRANCH   7   8
HETATM    8  C   UNK     0       4.150  11.621  90.162  0.00  0.00    -0.030 A 
HETATM    9  C   UNK     0       5.412  11.696  89.570  0.00  0.00     0.010 A 
HETATM   10  C   UNK     0       6.408  10.792  89.935  0.00  0.00     0.021 A 
HETATM   11  C   UNK     0       6.144   9.814  90.893  0.00  0.00     0.018 A 
HETATM   12  C   UNK     0       4.885   9.738  91.485  0.00  0.00     0.021 A 
HETATM   13  C   UNK     0       3.888  10.642  91.120  0.00  0.00     0.010 A 
BRANCH  11  14
HETATM   14  C   UNK     0       7.167   8.887  91.269  0.00  0.00    -0.061 C 
HETATM   15  C   UNK     0       8.028   8.109  91.585  0.00  0.00    -0.061 C 
BRANCH  15  16
HETATM   16  C   UNK     0       9.049   7.183  91.959  0.00  0.00     0.018 A 
HETATM   17  C   UNK     0       9.565   6.295  91.014  0.00  0.00     0.022 A 
HETATM   18  C   UNK     0      10.564   5.392  91.379  0.00  0.00     0.018 A 
HETATM   19  C   UNK     0      11.026   5.398  92.679  0.00  0.00     0.032 A 
HETATM   20  C   UNK     0      10.533   6.265  93.631  0.00  0.00     0.018 A 
HETATM   21  C   UNK     0       9.533   7.167  93.267  0.00  0.00     0.022 A 
BRANCH  19  22
HETATM   22  C   UNK     0      12.089   4.435  93.067  0.00  0.00     0.252 C 
HETATM   23  O   UNK     0      11.899   3.684  94.021  0.00  0.00    -0.268 OA
HETATM   24  N   UNK     0      13.234   4.444  92.283  0.00  0.00    -0.341 N 
HETATM   25  H   UNK     0      13.310   5.076  91.494  0.00  0.00     0.163 HD
BRANCH  24  26
HETATM   26  C   UNK     0      14.342   3.554  92.517  0.00  0.00     0.207 C 
BRANCH  26  27
HETATM   27  C   UNK     0      15.112   3.889  93.801  0.00  0.00     0.146 C 
HETATM   28  C   UNK     0      16.186   2.857  94.124  0.00  0.00     0.042 C 
BRANCH  27  29
HETATM   29  O   UNK     0      15.726   5.171  93.667  0.00  0.00    -0.393 OA
HETATM   30  H   UNK     0      16.540   5.066  93.146  0.00  0.00     0.210 HD
ENDBRANCH  27  29
ENDBRANCH  26  27
BRANCH  26  31
HETATM   31  C   UNK     0      13.795   2.130  92.555  0.00  0.00     0.266 C 
HETATM   32  O   UNK     0      14.356   1.213  93.151  0.00  0.00    -0.269 OA
HETATM   33  N   UNK     0      12.642   1.998  91.820  0.00  0.00    -0.236 N 
HETATM   34  H   UNK     0      12.203   2.708  91.246  0.00  0.00     0.197 HD
BRANCH  33  35
HETATM   35  O   UNK     0      12.094   0.708  91.772  0.00  0.00    -0.287 OA
HETATM   36  H   UNK     0      11.311   0.872  91.220  0.00  0.00     0.244 HD
ENDBRANCH  33  35
ENDBRANCH  26  31
ENDBRANCH  24  26
ENDBRANCH  19  22
ENDBRANCH  15  16
ENDBRANCH  11  14
ENDBRANCH   7   8
ENDBRANCH   2   7
TORSDOF 10
ENDMDL
