MODEL 1
REMARK VINA RESULT:      -6.6      0.000      0.000
REMARK  10 active torsions:
REMARK  status: ('A' for Active; 'I' for Inactive)
REMARK    1  A    between atoms: O_2  and  C_16 
REMARK    2  A    between atoms: N_5  and  C_9 
REMARK    3  A    between atoms: N_6  and  C_13 
REMARK       I    between atoms: N_6  and  C_22 
REMARK    4  A    between atoms: C_9  and  C_12 
REMARK    5  A    between atoms: C_13  and  C_16 
REMARK    6  A    between atoms: C_13  and  C_21 
REMARK    7  A    between atoms: C_19  and  C_24 
REMARK    8  A    between atoms: C_22  and  C_23 
REMARK    9  A    between atoms: C_27  and  C_30 
REMARK   10  A    between atoms: N_33  and  S_34 
ROOT
HETATM    1  C   UNL     1       5.522  11.186  90.342  1.00  0.00     0.056 A 
HETATM    2  C   UNL     1       6.700  11.156  89.626  1.00  0.00     0.005 A 
HETATM    3  C   UNL     1       5.183  10.198  91.243  1.00  0.00     0.005 A 
HETATM    4  C   UNL     1       7.258   9.077  90.722  1.00  0.00     0.042 A 
HETATM    5  C   UNL     1       7.579  10.089  89.817  1.00  0.00     0.008 A 
HETATM    6  C   UNL     1       6.061   9.131  91.435  1.00  0.00     0.008 A 
ENDROOT
BRANCH   1   7
HETATM    7  C   UNL     1       4.588  12.323  90.140  1.00  0.00     0.254 C 
HETATM    8  O   UNL     1       4.422  12.769  89.007  1.00  0.00    -0.268 OA
HETATM    9  N   UNL     1       3.941  12.789  91.276  1.00  0.00    -0.337 N 
HETATM   10  HN  UNL     1       4.109  12.354  92.176  1.00  0.00     0.164 HD
BRANCH   9  11
HETATM   11  C   UNL     1       2.988  13.869  91.239  1.00  0.00     0.172 C 
BRANCH  11  12
HETATM   12  C   UNL     1       1.641  13.494  91.870  1.00  0.00     0.136 C 
HETATM   13  C   UNL     1       1.713  12.201  92.675  1.00  0.00     0.034 C 
BRANCH  12  14
HETATM   14  O   UNL     1       1.206  14.549  92.727  1.00  0.00    -0.383 OA
HETATM   15  H   UNL     1       1.768  14.550  93.520  1.00  0.00     0.210 HD
ENDBRANCH  12  14
ENDBRANCH  11  12
BRANCH  11  16
HETATM   16  C   UNL     1       3.615  15.068  91.941  1.00  0.00     0.398 A 
HETATM   17  O   UNL     1       4.634  15.625  91.535  1.00  0.00    -0.136 OA
HETATM   18  N   UNL     1       4.701  15.433  93.042  1.00  0.00     0.142 N 
HETATM   19  HN  UNL     1       5.555  15.900  92.918  1.00  0.00     0.338 HD
BRANCH  18  20
HETATM   20  S   UNL     1       4.189  14.681  94.093  1.00  0.00     0.076 SA
HETATM   21  H   UNL     1       3.310  13.927  93.827  1.00  0.00     0.136 HD
ENDBRANCH  18  20
ENDBRANCH  11  16
ENDBRANCH   9  11
ENDBRANCH   1   7
BRANCH   4  22
HETATM   22  C   UNL     1       8.157   7.982  90.916  1.00  0.00    -0.059 C 
HETATM   23  C   UNL     1       8.913   7.061  91.079  1.00  0.00    -0.059 C 
BRANCH  23  24
HETATM   24  C   UNL     1       9.811   5.965  91.273  1.00  0.00     0.042 A 
HETATM   25  C   UNL     1      10.140   5.554  92.565  1.00  0.00     0.008 A 
HETATM   26  C   UNL     1      11.018   4.487  92.754  1.00  0.00    -0.002 A 
HETATM   27  C   UNL     1      11.565   3.830  91.651  1.00  0.00     0.011 A 
HETATM   28  C   UNL     1      11.235   4.243  90.360  1.00  0.00    -0.002 A 
HETATM   29  C   UNL     1      10.357   5.310  90.171  1.00  0.00     0.008 A 
BRANCH  27  30
HETATM   30  C   UNL     1      12.502   2.688  91.854  1.00  0.00     0.277 C 
BRANCH  30  31
HETATM   31  N   UNL     1      13.551   2.995  92.825  1.00  0.00     0.147 N 
HETATM   32  C   UNL     1      14.353   1.799  93.118  1.00  0.00     0.283 C 
HETATM   33  C   UNL     1      15.448   2.145  94.124  1.00  0.00     0.178 C 
HETATM   34  O   UNL     1      16.278   3.191  93.615  1.00  0.00    -0.350 OA
HETATM   35  C   UNL     1      15.511   4.367  93.357  1.00  0.00     0.178 C 
HETATM   36  C   UNL     1      14.418   4.075  92.334  1.00  0.00     0.283 C 
ENDBRANCH  30  31
ENDBRANCH  27  30
ENDBRANCH  23  24
ENDBRANCH   4  22
TORSDOF 10
ENDMDL
