MODEL 1
REMARK VINA RESULT:      -7.5      0.000      0.000
REMARK  9 active torsions:
REMARK  status: ('A' for Active; 'I' for Inactive)
REMARK    1  A    between atoms: O_2  and  C_17 
REMARK    2  A    between atoms: N_5  and  C_10 
REMARK    3  A    between atoms: N_6  and  C_14 
REMARK       I    between atoms: N_6  and  C_23 
REMARK       I    between atoms: N_7  and  C_22 
REMARK    4  A    between atoms: C_10  and  C_13 
REMARK    5  A    between atoms: C_14  and  C_17 
REMARK    6  A    between atoms: C_14  and  C_22 
REMARK    7  A    between atoms: C_20  and  C_25 
REMARK    8  A    between atoms: C_23  and  C_24 
REMARK    9  A    between atoms: C_28  and  C_31 
ROOT
HETATM    1  O   UNL     1      16.041   3.951  93.974  1.00  0.00    -0.388 OA
HETATM    2  N   UNL     1      14.072   2.558  92.462  1.00  0.00     0.096 N 
HETATM    3  C   UNL     1      14.235   4.015  92.354  1.00  0.00     0.299 C 
HETATM    4  C   UNL     1      14.478   2.104  93.799  1.00  0.00     0.299 C 
HETATM    5  C   UNL     1      15.679   4.398  92.666  1.00  0.00     0.198 C 
HETATM    6  C   UNL     1      15.915   2.532  94.077  1.00  0.00     0.198 C 
ENDROOT
BRANCH   2   7
HETATM    7  C   UNL     1      12.692   2.170  92.178  1.00  0.00     0.311 C 
BRANCH   7   8
HETATM    8  C   UNL     1      11.829   3.339  91.847  1.00  0.00    -0.030 A 
HETATM    9  C   UNL     1      11.624   3.699  90.514  1.00  0.00     0.010 A 
HETATM   10  C   UNL     1      10.818   4.794  90.203  1.00  0.00     0.021 A 
HETATM   11  C   UNL     1      10.217   5.528  91.225  1.00  0.00     0.018 A 
HETATM   12  C   UNL     1      10.421   5.170  92.556  1.00  0.00     0.021 A 
HETATM   13  C   UNL     1      11.227   4.075  92.867  1.00  0.00     0.010 A 
BRANCH  11  14
HETATM   14  C   UNL     1       9.389   6.651  90.906  1.00  0.00    -0.061 C 
HETATM   15  C   UNL     1       8.693   7.593  90.638  1.00  0.00    -0.061 C 
BRANCH  15  16
HETATM   16  C   UNL     1       7.865   8.714  90.319  1.00  0.00     0.018 A 
HETATM   17  C   UNL     1       6.485   8.639  90.514  1.00  0.00     0.022 A 
HETATM   18  C   UNL     1       5.678   9.734  90.205  1.00  0.00     0.018 A 
HETATM   19  C   UNL     1       6.267  10.878  89.710  1.00  0.00     0.032 A 
HETATM   20  C   UNL     1       7.628  10.978  89.508  1.00  0.00     0.018 A 
HETATM   21  C   UNL     1       8.436   9.883  89.816  1.00  0.00     0.022 A 
BRANCH  19  22
HETATM   22  C   UNL     1       5.406  12.044  89.380  1.00  0.00     0.252 C 
HETATM   23  O   UNL     1       5.349  12.437  88.218  1.00  0.00    -0.268 OA
HETATM   24  N   UNL     1       4.697  12.595  90.438  1.00  0.00    -0.342 N 
HETATM   25  H   UNL     1       4.775  12.200  91.368  1.00  0.00     0.163 HD
BRANCH  24  26
HETATM   26  C   UNL     1       3.802  13.712  90.274  1.00  0.00     0.199 C 
BRANCH  26  27
HETATM   27  C   UNL     1       2.580  13.635  91.197  1.00  0.00     0.145 C 
HETATM   28  C   UNL     1       2.383  12.244  91.790  1.00  0.00     0.042 C 
BRANCH  27  29
HETATM   29  O   UNL     1       2.725  14.575  92.261  1.00  0.00    -0.393 OA
HETATM   30  H   UNL     1       1.842  14.771  92.617  1.00  0.00     0.210 HD
ENDBRANCH  27  29
ENDBRANCH  26  27
BRANCH  26  31
HETATM   31  C   UNL     1       4.601  14.988  90.517  1.00  0.00     0.220 C 
HETATM   32  O   UNL     1       4.873  15.404  91.642  1.00  0.00    -0.278 OA
HETATM   33  N   UNL     1       4.936  15.622  89.345  1.00  0.00    -0.271 NA
HETATM   34  H   UNL     1       4.653  15.357  88.409  1.00  0.00     0.127 HD
HETATM   35  H   UNL     1       4.419  16.818  88.822  1.00  0.00     0.127 HD
ENDBRANCH  26  31
ENDBRANCH  24  26
ENDBRANCH  19  22
ENDBRANCH  15  16
ENDBRANCH  11  14
ENDBRANCH   7   8
ENDBRANCH   2   7
TORSDOF 9
ENDMDL
