MODEL 1
REMARK VINA RESULT:      -7.0      0.000      0.000
REMARK  11 active torsions:
REMARK  status: ('A' for Active; 'I' for Inactive)
REMARK    1  A    between atoms: O_2  and  C_18 
REMARK    2  A    between atoms: O_5  and  P_8 
REMARK    3  A    between atoms: N_6  and  C_11 
REMARK    4  A    between atoms: N_7  and  C_15 
REMARK       I    between atoms: N_7  and  C_24 
REMARK    5  A    between atoms: P_8  and  C_23 
REMARK    6  A    between atoms: C_11  and  C_14 
REMARK    7  A    between atoms: C_15  and  C_18 
REMARK    8  A    between atoms: C_15  and  C_23 
REMARK    9  A    between atoms: C_21  and  C_26 
REMARK   10  A    between atoms: C_24  and  C_25 
REMARK   11  A    between atoms: C_29  and  C_32 
ROOT
HETATM    1  O   UNL     1      16.201   4.152  94.078  1.00  0.00     0.000 OA
HETATM    2  N   UNL     1      14.404   2.562  92.547  1.00  0.00     0.000 N 
HETATM    3  C   UNL     1      14.364   4.030  92.498  1.00  0.00     0.000 C 
HETATM    4  C   UNL     1      14.902   2.116  93.856  1.00  0.00     0.000 C 
HETATM    5  C   UNL     1      15.749   4.596  92.797  1.00  0.00     0.000 C 
HETATM    6  C   UNL     1      16.273   2.727  94.124  1.00  0.00     0.000 C 
ENDROOT
BRANCH   2   7
HETATM    7  C   UNL     1      13.084   1.998  92.273  1.00  0.00     0.000 C 
BRANCH   7   8
HETATM    8  C   UNL     1      12.076   3.046  91.942  1.00  0.00     0.000 A 
HETATM    9  C   UNL     1      11.531   3.833  92.958  1.00  0.00     0.000 A 
HETATM   10  C   UNL     1      10.586   4.812  92.650  1.00  0.00     0.000 A 
HETATM   11  C   UNL     1      10.190   5.005  91.327  1.00  0.00     0.000 A 
HETATM   12  C   UNL     1      10.734   4.220  90.313  1.00  0.00     0.000 A 
HETATM   13  C   UNL     1      11.678   3.240  90.620  1.00  0.00     0.000 A 
BRANCH  11  14
HETATM   14  C   UNL     1       9.222   6.011  91.011  1.00  0.00     0.000 C 
HETATM   15  C   UNL     1       8.409   6.856  90.746  1.00  0.00     0.000 C 
BRANCH  15  16
HETATM   16  C   UNL     1       7.442   7.860  90.430  1.00  0.00     0.000 A 
HETATM   17  C   UNL     1       6.483   7.619  89.446  1.00  0.00     0.000 A 
HETATM   18  C   UNL     1       5.538   8.599  89.141  1.00  0.00     0.000 A 
HETATM   19  C   UNL     1       5.572   9.795  89.826  1.00  0.00     0.000 A 
HETATM   20  C   UNL     1       6.510  10.058  90.802  1.00  0.00     0.000 A 
HETATM   21  C   UNL     1       7.456   9.079  91.109  1.00  0.00     0.000 A 
BRANCH  19  22
HETATM   22  C   UNL     1       4.566  10.839  89.499  1.00  0.00     0.000 C 
HETATM   23  O   UNL     1       3.646  10.565  88.732  1.00  0.00     0.000 OA
HETATM   24  N   UNL     1       4.739  12.067  90.122  1.00  0.00     0.000 N 
HETATM   25  HN  UNL     1       5.510  12.212  90.763  1.00  0.00     0.000 HD
BRANCH  24  26
HETATM   26  C   UNL     1       3.834  13.170  89.925  1.00  0.00     0.000 C 
BRANCH  26  27
HETATM   27  C   UNL     1       3.179  13.640  91.230  1.00  0.00     0.000 C 
HETATM   28  C   UNL     1       2.434  12.519  91.946  1.00  0.00     0.000 C 
BRANCH  27  29
HETATM   29  O   UNL     1       4.178  14.165  92.104  1.00  0.00     0.000 OA
HETATM   30  H   UNL     1       3.864  15.017  92.450  1.00  0.00     0.000 HD
ENDBRANCH  27  29
ENDBRANCH  26  27
BRANCH  26  31
HETATM   31  C   UNL     1       4.614  14.299  89.259  1.00  0.00     0.000 C 
HETATM   32  O   UNL     1       4.584  15.461  89.660  1.00  0.00     0.000 OA
BRANCH  31  33
HETATM   33  P   UNL     1       5.307  13.869  88.154  1.00  0.00     0.000 P 
HETATM   34  H   UNL     1       5.792  14.983  87.498  1.00  0.00     0.000 HD
BRANCH  33  35
HETATM   35  O   UNL     1       4.573  13.112  87.229  1.00  0.00     0.000 OA
HETATM   36  H   UNL     1       4.596  13.707  86.460  1.00  0.00     0.000 HD
ENDBRANCH  33  35
ENDBRANCH  31  33
ENDBRANCH  26  31
ENDBRANCH  24  26
ENDBRANCH  19  22
ENDBRANCH  15  16
ENDBRANCH  11  14
ENDBRANCH   7   8
ENDBRANCH   2   7
TORSDOF 11
ENDMDL
MODEL 2
REMARK VINA RESULT:      -6.5      2.071      3.149
REMARK  11 active torsions:
REMARK  status: ('A' for Active; 'I' for Inactive)
REMARK    1  A    between atoms: O_2  and  C_18 
REMARK    2  A    between atoms: O_5  and  P_8 
REMARK    3  A    between atoms: N_6  and  C_11 
REMARK    4  A    between atoms: N_7  and  C_15 
REMARK       I    between atoms: N_7  and  C_24 
REMARK    5  A    between atoms: P_8  and  C_23 
REMARK    6  A    between atoms: C_11  and  C_14 
REMARK    7  A    between atoms: C_15  and  C_18 
REMARK    8  A    between atoms: C_15  and  C_23 
REMARK    9  A    between atoms: C_21  and  C_26 
REMARK   10  A    between atoms: C_24  and  C_25 
REMARK   11  A    between atoms: C_29  and  C_32 
ROOT
HETATM    1  O   UNL     1      16.683   2.940  93.706  1.00  0.00     0.000 OA
HETATM    2  N   UNL     1      13.880   2.793  93.236  1.00  0.00     0.000 N 
HETATM    3  C   UNL     1      14.726   1.591  93.216  1.00  0.00     0.000 C 
HETATM    4  C   UNL     1      14.665   3.969  92.837  1.00  0.00     0.000 C 
HETATM    5  C   UNL     1      15.936   1.796  94.124  1.00  0.00     0.000 C 
HETATM    6  C   UNL     1      15.876   4.118  93.752  1.00  0.00     0.000 C 
ENDROOT
BRANCH   2   7
HETATM    7  C   UNL     1      12.719   2.622  92.364  1.00  0.00     0.000 C 
BRANCH   7   8
HETATM    8  C   UNL     1      11.779   3.777  92.438  1.00  0.00     0.000 A 
HETATM    9  C   UNL     1      11.390   4.280  93.681  1.00  0.00     0.000 A 
HETATM   10  C   UNL     1      10.509   5.358  93.752  1.00  0.00     0.000 A 
HETATM   11  C   UNL     1      10.018   5.935  92.580  1.00  0.00     0.000 A 
HETATM   12  C   UNL     1      10.405   5.433  91.339  1.00  0.00     0.000 A 
HETATM   13  C   UNL     1      11.286   4.354  91.268  1.00  0.00     0.000 A 
BRANCH  11  14
HETATM   14  C   UNL     1       9.116   7.043  92.653  1.00  0.00     0.000 C 
HETATM   15  C   UNL     1       8.357   7.973  92.715  1.00  0.00     0.000 C 
BRANCH  15  16
HETATM   16  C   UNL     1       7.454   9.080  92.788  1.00  0.00     0.000 A 
HETATM   17  C   UNL     1       7.123   9.786  91.632  1.00  0.00     0.000 A 
HETATM   18  C   UNL     1       6.240  10.864  91.703  1.00  0.00     0.000 A 
HETATM   19  C   UNL     1       5.710  11.211  92.928  1.00  0.00     0.000 A 
HETATM   20  C   UNL     1       6.022  10.529  94.086  1.00  0.00     0.000 A 
HETATM   21  C   UNL     1       6.905   9.451  94.015  1.00  0.00     0.000 A 
BRANCH  19  22
HETATM   22  C   UNL     1       4.771  12.361  93.004  1.00  0.00     0.000 C 
HETATM   23  O   UNL     1       4.459  12.808  94.105  1.00  0.00     0.000 OA
HETATM   24  N   UNL     1       4.330  12.866  91.790  1.00  0.00     0.000 N 
HETATM   25  HN  UNL     1       4.651  12.461  90.918  1.00  0.00     0.000 HD
BRANCH  24  26
HETATM   26  C   UNL     1       3.437  13.994  91.698  1.00  0.00     0.000 C 
BRANCH  26  27
HETATM   27  C   UNL     1       3.456  14.654  90.313  1.00  0.00     0.000 C 
HETATM   28  C   UNL     1       4.871  14.880  89.793  1.00  0.00     0.000 C 
BRANCH  27  29
HETATM   29  O   UNL     1       2.746  13.835  89.384  1.00  0.00     0.000 OA
HETATM   30  H   UNL     1       1.967  13.468  89.835  1.00  0.00     0.000 HD
ENDBRANCH  27  29
ENDBRANCH  26  27
BRANCH  26  31
HETATM   31  C   UNL     1       2.037  13.510  92.063  1.00  0.00     0.000 C 
HETATM   32  O   UNL     1       1.539  12.488  91.596  1.00  0.00     0.000 OA
BRANCH  31  33
HETATM   33  P   UNL     1       1.403  14.366  92.931  1.00  0.00     0.000 P 
HETATM   34  H   UNL     1       0.572  15.181  92.190  1.00  0.00     0.000 HD
BRANCH  33  35
HETATM   35  O   UNL     1       2.240  15.188  93.697  1.00  0.00     0.000 OA
HETATM   36  H   UNL     1       3.095  15.016  93.267  1.00  0.00     0.000 HD
ENDBRANCH  33  35
ENDBRANCH  31  33
ENDBRANCH  26  31
ENDBRANCH  24  26
ENDBRANCH  19  22
ENDBRANCH  15  16
ENDBRANCH  11  14
ENDBRANCH   7   8
ENDBRANCH   2   7
TORSDOF 11
ENDMDL
MODEL 3
REMARK VINA RESULT:      -6.0      1.662      2.428
REMARK  11 active torsions:
REMARK  status: ('A' for Active; 'I' for Inactive)
REMARK    1  A    between atoms: O_2  and  C_18 
REMARK    2  A    between atoms: O_5  and  P_8 
REMARK    3  A    between atoms: N_6  and  C_11 
REMARK    4  A    between atoms: N_7  and  C_15 
REMARK       I    between atoms: N_7  and  C_24 
REMARK    5  A    between atoms: P_8  and  C_23 
REMARK    6  A    between atoms: C_11  and  C_14 
REMARK    7  A    between atoms: C_15  and  C_18 
REMARK    8  A    between atoms: C_15  and  C_23 
REMARK    9  A    between atoms: C_21  and  C_26 
REMARK   10  A    between atoms: C_24  and  C_25 
REMARK   11  A    between atoms: C_29  and  C_32 
ROOT
HETATM    1  O   UNL     1      16.528   2.928  93.594  1.00  0.00     0.000 OA
HETATM    2  N   UNL     1      13.774   2.836  92.878  1.00  0.00     0.000 N 
HETATM    3  C   UNL     1      14.539   1.610  93.147  1.00  0.00     0.000 C 
HETATM    4  C   UNL     1      14.667   3.884  92.366  1.00  0.00     0.000 C 
HETATM    5  C   UNL     1      15.673   1.912  94.124  1.00  0.00     0.000 C 
HETATM    6  C   UNL     1      15.798   4.132  93.359  1.00  0.00     0.000 C 
ENDROOT
BRANCH   2   7
HETATM    7  C   UNL     1      12.688   2.572  91.936  1.00  0.00     0.000 C 
BRANCH   7   8
HETATM    8  C   UNL     1      11.642   3.634  91.963  1.00  0.00     0.000 A 
HETATM    9  C   UNL     1      10.963   3.973  90.792  1.00  0.00     0.000 A 
HETATM   10  C   UNL     1       9.986   4.968  90.816  1.00  0.00     0.000 A 
HETATM   11  C   UNL     1       9.687   5.621  92.011  1.00  0.00     0.000 A 
HETATM   12  C   UNL     1      10.363   5.283  93.181  1.00  0.00     0.000 A 
HETATM   13  C   UNL     1      11.341   4.289  93.158  1.00  0.00     0.000 A 
BRANCH  11  14
HETATM   14  C   UNL     1       8.682   6.640  92.036  1.00  0.00     0.000 C 
HETATM   15  C   UNL     1       7.839   7.497  92.056  1.00  0.00     0.000 C 
BRANCH  15  16
HETATM   16  C   UNL     1       6.835   8.515  92.080  1.00  0.00     0.000 A 
HETATM   17  C   UNL     1       6.846   9.479  93.087  1.00  0.00     0.000 A 
HETATM   18  C   UNL     1       5.868  10.474  93.109  1.00  0.00     0.000 A 
HETATM   19  C   UNL     1       4.904  10.482  92.123  1.00  0.00     0.000 A 
HETATM   20  C   UNL     1       4.871   9.540  91.117  1.00  0.00     0.000 A 
HETATM   21  C   UNL     1       5.848   8.544  91.094  1.00  0.00     0.000 A 
BRANCH  19  22
HETATM   22  C   UNL     1       3.861  11.541  92.147  1.00  0.00     0.000 C 
HETATM   23  O   UNL     1       2.691  11.226  92.348  1.00  0.00     0.000 OA
HETATM   24  N   UNL     1       4.310  12.841  91.960  1.00  0.00     0.000 N 
HETATM   25  HN  UNL     1       5.297  13.028  91.825  1.00  0.00     0.000 HD
BRANCH  24  26
HETATM   26  C   UNL     1       3.425  13.978  91.982  1.00  0.00     0.000 C 
BRANCH  26  27
HETATM   27  C   UNL     1       3.770  14.977  93.093  1.00  0.00     0.000 C 
HETATM   28  C   UNL     1       2.535  15.461  93.846  1.00  0.00     0.000 C 
BRANCH  27  29
HETATM   29  O   UNL     1       4.669  14.369  94.020  1.00  0.00     0.000 OA
HETATM   30  H   UNL     1       5.576  14.604  93.763  1.00  0.00     0.000 HD
ENDBRANCH  27  29
ENDBRANCH  26  27
BRANCH  26  31
HETATM   31  C   UNL     1       3.480  14.636  90.607  1.00  0.00     0.000 C 
HETATM   32  O   UNL     1       2.616  14.468  89.749  1.00  0.00     0.000 OA
BRANCH  31  33
HETATM   33  P   UNL     1       4.614  15.394  90.439  1.00  0.00     0.000 P 
HETATM   34  H   UNL     1       4.229  16.716  90.341  1.00  0.00     0.000 HD
BRANCH  33  35
HETATM   35  O   UNL     1       5.392  15.088  89.314  1.00  0.00     0.000 OA
HETATM   36  H   UNL     1       5.447  15.964  88.896  1.00  0.00     0.000 HD
ENDBRANCH  33  35
ENDBRANCH  31  33
ENDBRANCH  26  31
ENDBRANCH  24  26
ENDBRANCH  19  22
ENDBRANCH  15  16
ENDBRANCH  11  14
ENDBRANCH   7   8
ENDBRANCH   2   7
TORSDOF 11
ENDMDL
MODEL 4
REMARK VINA RESULT:      -5.4      3.492     12.204
REMARK  11 active torsions:
REMARK  status: ('A' for Active; 'I' for Inactive)
REMARK    1  A    between atoms: O_2  and  C_18 
REMARK    2  A    between atoms: O_5  and  P_8 
REMARK    3  A    between atoms: N_6  and  C_11 
REMARK    4  A    between atoms: N_7  and  C_15 
REMARK       I    between atoms: N_7  and  C_24 
REMARK    5  A    between atoms: P_8  and  C_23 
REMARK    6  A    between atoms: C_11  and  C_14 
REMARK    7  A    between atoms: C_15  and  C_18 
REMARK    8  A    between atoms: C_15  and  C_23 
REMARK    9  A    between atoms: C_21  and  C_26 
REMARK   10  A    between atoms: C_24  and  C_25 
REMARK   11  A    between atoms: C_29  and  C_32 
ROOT
HETATM    1  O   UNL     1       3.119  14.734  93.992  1.00  0.00     0.000 OA
HETATM    2  N   UNL     1       2.795  14.752  91.164  1.00  0.00     0.000 N 
HETATM    3  C   UNL     1       1.865  14.024  92.039  1.00  0.00     0.000 C 
HETATM    4  C   UNL     1       4.125  14.817  91.786  1.00  0.00     0.000 C 
HETATM    5  C   UNL     1       1.814  14.693  93.410  1.00  0.00     0.000 C 
HETATM    6  C   UNL     1       4.021  15.466  93.162  1.00  0.00     0.000 C 
ENDROOT
BRANCH   2   7
HETATM    7  C   UNL     1       2.868  14.122  89.847  1.00  0.00     0.000 C 
BRANCH   7   8
HETATM    8  C   UNL     1       3.847  12.999  89.808  1.00  0.00     0.000 A 
HETATM    9  C   UNL     1       3.556  11.798  90.456  1.00  0.00     0.000 A 
HETATM   10  C   UNL     1       4.473  10.747  90.423  1.00  0.00     0.000 A 
HETATM   11  C   UNL     1       5.679  10.897  89.739  1.00  0.00     0.000 A 
HETATM   12  C   UNL     1       5.970  12.096  89.091  1.00  0.00     0.000 A 
HETATM   13  C   UNL     1       5.055  13.147  89.125  1.00  0.00     0.000 A 
BRANCH  11  14
HETATM   14  C   UNL     1       6.618   9.818  89.702  1.00  0.00     0.000 C 
HETATM   15  C   UNL     1       7.408   8.912  89.672  1.00  0.00     0.000 C 
BRANCH  15  16
HETATM   16  C   UNL     1       8.346   7.834  89.637  1.00  0.00     0.000 A 
HETATM   17  C   UNL     1       9.142   7.641  88.508  1.00  0.00     0.000 A 
HETATM   18  C   UNL     1      10.060   6.590  88.474  1.00  0.00     0.000 A 
HETATM   19  C   UNL     1      10.161   5.759  89.570  1.00  0.00     0.000 A 
HETATM   20  C   UNL     1       9.385   5.929  90.697  1.00  0.00     0.000 A 
HETATM   21  C   UNL     1       8.467   6.978  90.732  1.00  0.00     0.000 A 
BRANCH  19  22
HETATM   22  C   UNL     1      11.137   4.639  89.533  1.00  0.00     0.000 C 
HETATM   23  O   UNL     1      11.239   3.966  88.510  1.00  0.00     0.000 OA
HETATM   24  N   UNL     1      11.893   4.454  90.682  1.00  0.00     0.000 N 
HETATM   25  HN  UNL     1      11.772   5.066  91.480  1.00  0.00     0.000 HD
BRANCH  24  26
HETATM   26  C   UNL     1      12.898   3.426  90.792  1.00  0.00     0.000 C 
BRANCH  26  27
HETATM   27  C   UNL     1      14.311   3.995  90.975  1.00  0.00     0.000 C 
HETATM   28  C   UNL     1      14.592   4.407  92.416  1.00  0.00     0.000 C 
BRANCH  27  29
HETATM   29  O   UNL     1      15.273   3.019  90.576  1.00  0.00     0.000 OA
HETATM   30  H   UNL     1      15.757   3.365  89.808  1.00  0.00     0.000 HD
ENDBRANCH  27  29
ENDBRANCH  26  27
BRANCH  26  31
HETATM   31  C   UNL     1      12.510   2.519  91.955  1.00  0.00     0.000 C 
HETATM   32  O   UNL     1      13.108   1.478  92.220  1.00  0.00     0.000 OA
BRANCH  31  33
HETATM   33  P   UNL     1      11.406   2.982  92.629  1.00  0.00     0.000 P 
HETATM   34  H   UNL     1      10.675   3.763  91.757  1.00  0.00     0.000 HD
BRANCH  33  35
HETATM   35  O   UNL     1      11.667   3.746  93.775  1.00  0.00     0.000 OA
HETATM   36  H   UNL     1      12.638   3.704  93.795  1.00  0.00     0.000 HD
ENDBRANCH  33  35
ENDBRANCH  31  33
ENDBRANCH  26  31
ENDBRANCH  24  26
ENDBRANCH  19  22
ENDBRANCH  15  16
ENDBRANCH  11  14
ENDBRANCH   7   8
ENDBRANCH   2   7
TORSDOF 11
ENDMDL
MODEL 5
REMARK VINA RESULT:      -5.3      1.665      1.971
REMARK  11 active torsions:
REMARK  status: ('A' for Active; 'I' for Inactive)
REMARK    1  A    between atoms: O_2  and  C_18 
REMARK    2  A    between atoms: O_5  and  P_8 
REMARK    3  A    between atoms: N_6  and  C_11 
REMARK    4  A    between atoms: N_7  and  C_15 
REMARK       I    between atoms: N_7  and  C_24 
REMARK    5  A    between atoms: P_8  and  C_23 
REMARK    6  A    between atoms: C_11  and  C_14 
REMARK    7  A    between atoms: C_15  and  C_18 
REMARK    8  A    between atoms: C_15  and  C_23 
REMARK    9  A    between atoms: C_21  and  C_26 
REMARK   10  A    between atoms: C_24  and  C_25 
REMARK   11  A    between atoms: C_29  and  C_32 
ROOT
HETATM    1  O   UNL     1      16.818   3.592  94.124  1.00  0.00     0.000 OA
HETATM    2  N   UNL     1      14.503   3.248  92.504  1.00  0.00     0.000 N 
HETATM    3  C   UNL     1      14.474   4.073  93.719  1.00  0.00     0.000 C 
HETATM    4  C   UNL     1      15.510   2.187  92.640  1.00  0.00     0.000 C 
HETATM    5  C   UNL     1      15.863   4.646  93.988  1.00  0.00     0.000 C 
HETATM    6  C   UNL     1      16.874   2.803  92.935  1.00  0.00     0.000 C 
ENDROOT
BRANCH   2   7
HETATM    7  C   UNL     1      13.183   2.680  92.233  1.00  0.00     0.000 C 
BRANCH   7   8
HETATM    8  C   UNL     1      12.106   3.710  92.255  1.00  0.00     0.000 A 
HETATM    9  C   UNL     1      11.625   4.189  93.474  1.00  0.00     0.000 A 
HETATM   10  C   UNL     1      10.615   5.151  93.496  1.00  0.00     0.000 A 
HETATM   11  C   UNL     1      10.089   5.636  92.299  1.00  0.00     0.000 A 
HETATM   12  C   UNL     1      10.569   5.159  91.081  1.00  0.00     0.000 A 
HETATM   13  C   UNL     1      11.578   4.196  91.058  1.00  0.00     0.000 A 
BRANCH  11  14
HETATM   14  C   UNL     1       9.056   6.624  92.322  1.00  0.00     0.000 C 
HETATM   15  C   UNL     1       8.186   7.455  92.342  1.00  0.00     0.000 C 
BRANCH  15  16
HETATM   16  C   UNL     1       7.153   8.443  92.365  1.00  0.00     0.000 A 
HETATM   17  C   UNL     1       5.821   8.062  92.203  1.00  0.00     0.000 A 
HETATM   18  C   UNL     1       4.813   9.026  92.229  1.00  0.00     0.000 A 
HETATM   19  C   UNL     1       5.160  10.348  92.417  1.00  0.00     0.000 A 
HETATM   20  C   UNL     1       6.469  10.750  92.579  1.00  0.00     0.000 A 
HETATM   21  C   UNL     1       7.478   9.787  92.553  1.00  0.00     0.000 A 
BRANCH  19  22
HETATM   22  C   UNL     1       4.086  11.374  92.442  1.00  0.00     0.000 C 
HETATM   23  O   UNL     1       3.087  11.180  93.131  1.00  0.00     0.000 OA
HETATM   24  N   UNL     1       4.316  12.513  91.683  1.00  0.00     0.000 N 
HETATM   25  HN  UNL     1       5.177  12.615  91.159  1.00  0.00     0.000 HD
BRANCH  24  26
HETATM   26  C   UNL     1       3.380  13.608  91.625  1.00  0.00     0.000 C 
BRANCH  26  27
HETATM   27  C   UNL     1       3.896  14.867  92.333  1.00  0.00     0.000 C 
HETATM   28  C   UNL     1       4.358  14.587  93.759  1.00  0.00     0.000 C 
BRANCH  27  29
HETATM   29  O   UNL     1       4.984  15.420  91.594  1.00  0.00     0.000 OA
HETATM   30  H   UNL     1       5.800  14.967  91.868  1.00  0.00     0.000 HD
ENDBRANCH  27  29
ENDBRANCH  26  27
BRANCH  26  31
HETATM   31  C   UNL     1       3.077  13.883  90.156  1.00  0.00     0.000 C 
HETATM   32  O   UNL     1       2.029  14.403  89.775  1.00  0.00     0.000 OA
BRANCH  31  33
HETATM   33  P   UNL     1       4.084  13.451  89.328  1.00  0.00     0.000 P 
HETATM   34  H   UNL     1       4.455  14.510  88.524  1.00  0.00     0.000 HD
BRANCH  33  35
HETATM   35  O   UNL     1       3.766  12.369  88.494  1.00  0.00     0.000 OA
HETATM   36  H   UNL     1       2.958  12.707  88.071  1.00  0.00     0.000 HD
ENDBRANCH  33  35
ENDBRANCH  31  33
ENDBRANCH  26  31
ENDBRANCH  24  26
ENDBRANCH  19  22
ENDBRANCH  15  16
ENDBRANCH  11  14
ENDBRANCH   7   8
ENDBRANCH   2   7
TORSDOF 11
ENDMDL
MODEL 6
REMARK VINA RESULT:      -4.3      3.528     12.414
REMARK  11 active torsions:
REMARK  status: ('A' for Active; 'I' for Inactive)
REMARK    1  A    between atoms: O_2  and  C_18 
REMARK    2  A    between atoms: O_5  and  P_8 
REMARK    3  A    between atoms: N_6  and  C_11 
REMARK    4  A    between atoms: N_7  and  C_15 
REMARK       I    between atoms: N_7  and  C_24 
REMARK    5  A    between atoms: P_8  and  C_23 
REMARK    6  A    between atoms: C_11  and  C_14 
REMARK    7  A    between atoms: C_15  and  C_18 
REMARK    8  A    between atoms: C_15  and  C_23 
REMARK    9  A    between atoms: C_21  and  C_26 
REMARK   10  A    between atoms: C_24  and  C_25 
REMARK   11  A    between atoms: C_29  and  C_32 
ROOT
HETATM    1  O   UNL     1       4.786  14.774  89.845  1.00  0.00     0.000 OA
HETATM    2  N   UNL     1       3.004  13.230  91.439  1.00  0.00     0.000 N 
HETATM    3  C   UNL     1       3.971  14.155  92.046  1.00  0.00     0.000 C 
HETATM    4  C   UNL     1       3.521  12.728  90.159  1.00  0.00     0.000 C 
HETATM    5  C   UNL     1       4.277  15.293  91.075  1.00  0.00     0.000 C 
HETATM    6  C   UNL     1       3.838  13.898  89.233  1.00  0.00     0.000 C 
ENDROOT
BRANCH   2   7
HETATM    7  C   UNL     1       2.704  12.125  92.348  1.00  0.00     0.000 C 
BRANCH   7   8
HETATM    8  C   UNL     1       3.782  11.096  92.366  1.00  0.00     0.000 A 
HETATM    9  C   UNL     1       3.491   9.776  92.016  1.00  0.00     0.000 A 
HETATM   10  C   UNL     1       4.498   8.812  92.034  1.00  0.00     0.000 A 
HETATM   11  C   UNL     1       5.796   9.168  92.400  1.00  0.00     0.000 A 
HETATM   12  C   UNL     1       6.088  10.485  92.749  1.00  0.00     0.000 A 
HETATM   13  C   UNL     1       5.080  11.449  92.732  1.00  0.00     0.000 A 
BRANCH  11  14
HETATM   14  C   UNL     1       6.830   8.178  92.416  1.00  0.00     0.000 C 
HETATM   15  C   UNL     1       7.698   7.347  92.430  1.00  0.00     0.000 C 
BRANCH  15  16
HETATM   16  C   UNL     1       8.731   6.359  92.445  1.00  0.00     0.000 A 
HETATM   17  C   UNL     1       9.565   6.240  93.558  1.00  0.00     0.000 A 
HETATM   18  C   UNL     1      10.571   5.274  93.574  1.00  0.00     0.000 A 
HETATM   19  C   UNL     1      10.720   4.449  92.479  1.00  0.00     0.000 A 
HETATM   20  C   UNL     1       9.910   4.547  91.368  1.00  0.00     0.000 A 
HETATM   21  C   UNL     1       8.903   5.512  91.350  1.00  0.00     0.000 A 
BRANCH  19  22
HETATM   22  C   UNL     1      11.794   3.422  92.496  1.00  0.00     0.000 C 
HETATM   23  O   UNL     1      11.527   2.270  92.163  1.00  0.00     0.000 OA
HETATM   24  N   UNL     1      13.053   3.864  92.875  1.00  0.00     0.000 N 
HETATM   25  HN  UNL     1      13.205   4.837  93.114  1.00  0.00     0.000 HD
BRANCH  24  26
HETATM   26  C   UNL     1      14.201   2.994  92.918  1.00  0.00     0.000 C 
BRANCH  26  27
HETATM   27  C   UNL     1      14.632   2.512  91.527  1.00  0.00     0.000 C 
HETATM   28  C   UNL     1      14.284   3.511  90.429  1.00  0.00     0.000 C 
BRANCH  27  29
HETATM   29  O   UNL     1      16.041   2.284  91.517  1.00  0.00     0.000 OA
HETATM   30  H   UNL     1      16.478   3.057  91.912  1.00  0.00     0.000 HD
ENDBRANCH  27  29
ENDBRANCH  26  27
BRANCH  26  31
HETATM   31  C   UNL     1      15.328   3.744  93.620  1.00  0.00     0.000 C 
HETATM   32  O   UNL     1      15.377   4.971  93.686  1.00  0.00     0.000 OA
BRANCH  31  33
HETATM   33  P   UNL     1      16.283   2.894  94.122  1.00  0.00     0.000 P 
HETATM   34  H   UNL     1      15.961   2.625  95.437  1.00  0.00     0.000 HD
BRANCH  33  35
HETATM   35  O   UNL     1      17.602   3.371  94.092  1.00  0.00     0.000 OA
HETATM   36  H   UNL     1      17.475   4.202  93.604  1.00  0.00     0.000 HD
ENDBRANCH  33  35
ENDBRANCH  31  33
ENDBRANCH  26  31
ENDBRANCH  24  26
ENDBRANCH  19  22
ENDBRANCH  15  16
ENDBRANCH  11  14
ENDBRANCH   7   8
ENDBRANCH   2   7
TORSDOF 11
ENDMDL
