MODEL 1
REMARK VINA RESULT:      -7.0      0.000      0.000
REMARK  10 active torsions:
REMARK  status: ('A' for Active; 'I' for Inactive)
REMARK    1  A    between atoms: O_2  and  C_16 
REMARK    2  A    between atoms: N_5  and  C_9 
REMARK    3  A    between atoms: N_6  and  C_13 
REMARK       I    between atoms: N_6  and  C_22 
REMARK    4  A    between atoms: C_9  and  C_12 
REMARK    5  A    between atoms: C_13  and  C_16 
REMARK    6  A    between atoms: C_13  and  C_21 
REMARK    7  A    between atoms: C_19  and  C_24 
REMARK    8  A    between atoms: C_22  and  C_23 
REMARK    9  A    between atoms: C_27  and  C_30 
REMARK   10  A    between atoms: N_33  and  S_34 
ROOT
HETATM    1  C   UNL     1       5.868  11.134  89.672  1.00  0.00     0.056 A 
HETATM    2  C   UNL     1       5.347  10.025  90.304  1.00  0.00     0.005 A 
HETATM    3  C   UNL     1       7.193  11.216  89.301  1.00  0.00     0.005 A 
HETATM    4  C   UNL     1       7.534   9.005  90.213  1.00  0.00     0.042 A 
HETATM    5  C   UNL     1       6.189   8.947  90.578  1.00  0.00     0.008 A 
HETATM    6  C   UNL     1       8.037  10.139  89.574  1.00  0.00     0.008 A 
ENDROOT
BRANCH   1   7
HETATM    7  C   UNL     1       4.969  12.281  89.379  1.00  0.00     0.254 C 
HETATM    8  O   UNL     1       4.907  12.716  88.231  1.00  0.00    -0.268 OA
HETATM    9  N   UNL     1       4.234  12.767  90.451  1.00  0.00    -0.337 N 
HETATM   10  HN  UNL     1       4.318  12.341  91.366  1.00  0.00     0.164 HD
BRANCH   9  11
HETATM   11  C   UNL     1       3.302  13.858  90.320  1.00  0.00     0.172 C 
BRANCH  11  12
HETATM   12  C   UNL     1       1.983  13.604  91.062  1.00  0.00     0.136 C 
HETATM   13  C   UNL     1       2.086  12.456  92.059  1.00  0.00     0.034 C 
BRANCH  12  14
HETATM   14  O   UNL     1       1.591  14.788  91.756  1.00  0.00    -0.383 OA
HETATM   15  H   UNL     1       2.392  15.224  92.092  1.00  0.00     0.210 HD
ENDBRANCH  12  14
ENDBRANCH  11  12
BRANCH  11  16
HETATM   16  C   UNL     1       3.989  15.121  90.829  1.00  0.00     0.398 A 
HETATM   17  O   UNL     1       5.104  15.476  90.450  1.00  0.00    -0.136 OA
HETATM   18  N   UNL     1       4.989  15.620  91.958  1.00  0.00     0.142 N 
HETATM   19  HN  UNL     1       5.901  15.966  91.850  1.00  0.00     0.338 HD
BRANCH  18  20
HETATM   20  S   UNL     1       4.283  15.173  93.069  1.00  0.00     0.076 SA
HETATM   21  H   UNL     1       3.534  15.949  93.570  1.00  0.00     0.136 HD
ENDBRANCH  18  20
ENDBRANCH  11  16
ENDBRANCH   9  11
ENDBRANCH   1   7
BRANCH   4  22
HETATM   22  C   UNL     1       8.399   7.902  90.496  1.00  0.00    -0.059 C 
HETATM   23  C   UNL     1       9.125   6.974  90.735  1.00  0.00    -0.059 C 
BRANCH  23  24
HETATM   24  C   UNL     1       9.989   5.870  91.019  1.00  0.00     0.042 A 
HETATM   25  C   UNL     1      10.684   5.245  89.983  1.00  0.00     0.008 A 
HETATM   26  C   UNL     1      11.524   4.167  90.259  1.00  0.00    -0.002 A 
HETATM   27  C   UNL     1      11.672   3.716  91.571  1.00  0.00     0.011 A 
HETATM   28  C   UNL     1      10.977   4.342  92.606  1.00  0.00    -0.002 A 
HETATM   29  C   UNL     1      10.136   5.420  92.329  1.00  0.00     0.008 A 
BRANCH  27  30
HETATM   30  C   UNL     1      12.573   2.565  91.865  1.00  0.00     0.277 C 
BRANCH  30  31
HETATM   31  N   UNL     1      13.612   2.905  92.836  1.00  0.00     0.147 N 
HETATM   32  C   UNL     1      14.462   1.740  93.118  1.00  0.00     0.283 C 
HETATM   33  C   UNL     1      15.545   2.121  94.124  1.00  0.00     0.178 C 
HETATM   34  O   UNL     1      16.332   3.203  93.621  1.00  0.00    -0.350 OA
HETATM   35  C   UNL     1      15.517   4.349  93.374  1.00  0.00     0.178 C 
HETATM   36  C   UNL     1      14.434   4.022  92.351  1.00  0.00     0.283 C 
ENDBRANCH  30  31
ENDBRANCH  27  30
ENDBRANCH  23  24
ENDBRANCH   4  22
TORSDOF 10
ENDMDL
MODEL 2
REMARK VINA RESULT:      -6.7      1.438      2.032
REMARK  10 active torsions:
REMARK  status: ('A' for Active; 'I' for Inactive)
REMARK    1  A    between atoms: O_2  and  C_16 
REMARK    2  A    between atoms: N_5  and  C_9 
REMARK    3  A    between atoms: N_6  and  C_13 
REMARK       I    between atoms: N_6  and  C_22 
REMARK    4  A    between atoms: C_9  and  C_12 
REMARK    5  A    between atoms: C_13  and  C_16 
REMARK    6  A    between atoms: C_13  and  C_21 
REMARK    7  A    between atoms: C_19  and  C_24 
REMARK    8  A    between atoms: C_22  and  C_23 
REMARK    9  A    between atoms: C_27  and  C_30 
REMARK   10  A    between atoms: N_33  and  S_34 
ROOT
HETATM    1  C   UNL     1       4.674   9.779  90.659  1.00  0.00     0.056 A 
HETATM    2  C   UNL     1       5.809   9.853  89.879  1.00  0.00     0.005 A 
HETATM    3  C   UNL     1       4.501   8.800  91.615  1.00  0.00     0.005 A 
HETATM    4  C   UNL     1       6.664   7.905  91.022  1.00  0.00     0.042 A 
HETATM    5  C   UNL     1       6.816   8.906  90.061  1.00  0.00     0.008 A 
HETATM    6  C   UNL     1       5.507   7.852  91.798  1.00  0.00     0.008 A 
ENDROOT
BRANCH   1   7
HETATM    7  C   UNL     1       3.602  10.790  90.466  1.00  0.00     0.254 C 
HETATM    8  O   UNL     1       2.549  10.453  89.929  1.00  0.00    -0.268 OA
HETATM    9  N   UNL     1       3.876  12.065  90.942  1.00  0.00    -0.337 N 
HETATM   10  HN  UNL     1       4.759  12.263  91.397  1.00  0.00     0.164 HD
BRANCH   9  11
HETATM   11  C   UNL     1       2.929  13.146  90.850  1.00  0.00     0.172 C 
BRANCH  11  12
HETATM   12  C   UNL     1       2.730  13.876  92.185  1.00  0.00     0.136 C 
HETATM   13  C   UNL     1       1.286  13.821  92.671  1.00  0.00     0.034 C 
BRANCH  12  14
HETATM   14  O   UNL     1       3.575  13.294  93.177  1.00  0.00    -0.383 OA
HETATM   15  H   UNL     1       3.416  13.752  94.020  1.00  0.00     0.210 HD
ENDBRANCH  12  14
ENDBRANCH  11  12
BRANCH  11  16
HETATM   16  C   UNL     1       3.414  14.100  89.764  1.00  0.00     0.398 A 
HETATM   17  O   UNL     1       3.959  13.717  88.730  1.00  0.00    -0.136 OA
HETATM   18  N   UNL     1       4.704  14.909  89.309  1.00  0.00     0.142 N 
HETATM   19  HN  UNL     1       5.251  14.773  88.506  1.00  0.00     0.338 HD
BRANCH  18  20
HETATM   20  S   UNL     1       4.922  15.624  90.481  1.00  0.00     0.076 SA
HETATM   21  H   UNL     1       4.089  15.530  91.323  1.00  0.00     0.136 HD
ENDBRANCH  18  20
ENDBRANCH  11  16
ENDBRANCH   9  11
ENDBRANCH   1   7
BRANCH   4  22
HETATM   22  C   UNL     1       7.695   6.932  91.207  1.00  0.00    -0.059 C 
HETATM   23  C   UNL     1       8.562   6.113  91.362  1.00  0.00    -0.059 C 
BRANCH  23  24
HETATM   24  C   UNL     1       9.594   5.140  91.547  1.00  0.00     0.042 A 
HETATM   25  C   UNL     1      10.073   4.868  92.828  1.00  0.00     0.008 A 
HETATM   26  C   UNL     1      11.081   3.921  93.008  1.00  0.00    -0.002 A 
HETATM   27  C   UNL     1      11.608   3.244  91.907  1.00  0.00     0.011 A 
HETATM   28  C   UNL     1      11.127   3.517  90.627  1.00  0.00    -0.002 A 
HETATM   29  C   UNL     1      10.120   4.465  90.447  1.00  0.00     0.008 A 
BRANCH  27  30
HETATM   30  C   UNL     1      12.683   2.230  92.101  1.00  0.00     0.277 C 
BRANCH  30  31
HETATM   31  N   UNL     1      13.768   2.725  92.947  1.00  0.00     0.147 N 
HETATM   32  C   UNL     1      14.723   1.649  93.250  1.00  0.00     0.283 C 
HETATM   33  C   UNL     1      15.852   2.191  94.124  1.00  0.00     0.178 C 
HETATM   34  O   UNL     1      16.512   3.274  93.467  1.00  0.00    -0.350 OA
HETATM   35  C   UNL     1      15.598   4.337  93.197  1.00  0.00     0.178 C 
HETATM   36  C   UNL     1      14.463   3.847  92.302  1.00  0.00     0.283 C 
ENDBRANCH  30  31
ENDBRANCH  27  30
ENDBRANCH  23  24
ENDBRANCH   4  22
TORSDOF 10
ENDMDL
MODEL 3
REMARK VINA RESULT:      -6.6      1.407      2.075
REMARK  10 active torsions:
REMARK  status: ('A' for Active; 'I' for Inactive)
REMARK    1  A    between atoms: O_2  and  C_16 
REMARK    2  A    between atoms: N_5  and  C_9 
REMARK    3  A    between atoms: N_6  and  C_13 
REMARK       I    between atoms: N_6  and  C_22 
REMARK    4  A    between atoms: C_9  and  C_12 
REMARK    5  A    between atoms: C_13  and  C_16 
REMARK    6  A    between atoms: C_13  and  C_21 
REMARK    7  A    between atoms: C_19  and  C_24 
REMARK    8  A    between atoms: C_22  and  C_23 
REMARK    9  A    between atoms: C_27  and  C_30 
REMARK   10  A    between atoms: N_33  and  S_34 
ROOT
HETATM    1  C   UNL     1       5.524  10.588  90.805  1.00  0.00     0.056 A 
HETATM    2  C   UNL     1       5.827  10.127  92.069  1.00  0.00     0.005 A 
HETATM    3  C   UNL     1       6.124  10.079  89.673  1.00  0.00     0.005 A 
HETATM    4  C   UNL     1       7.394   8.580  91.077  1.00  0.00     0.042 A 
HETATM    5  C   UNL     1       6.773   9.111  92.208  1.00  0.00     0.008 A 
HETATM    6  C   UNL     1       7.070   9.063  89.810  1.00  0.00     0.008 A 
ENDROOT
BRANCH   1   7
HETATM    7  C   UNL     1       4.515  11.669  90.658  1.00  0.00     0.254 C 
HETATM    8  O   UNL     1       3.546  11.488  89.926  1.00  0.00    -0.268 OA
HETATM    9  N   UNL     1       4.743  12.819  91.401  1.00  0.00    -0.337 N 
HETATM   10  HN  UNL     1       5.554  12.887  92.005  1.00  0.00     0.164 HD
BRANCH   9  11
HETATM   11  C   UNL     1       3.843  13.944  91.384  1.00  0.00     0.172 C 
BRANCH  11  12
HETATM   12  C   UNL     1       3.788  14.639  90.018  1.00  0.00     0.136 C 
HETATM   13  C   UNL     1       5.089  14.496  89.237  1.00  0.00     0.034 C 
BRANCH  12  14
HETATM   14  O   UNL     1       2.721  14.090  89.246  1.00  0.00    -0.383 OA
HETATM   15  H   UNL     1       2.291  13.395  89.772  1.00  0.00     0.210 HD
ENDBRANCH  12  14
ENDBRANCH  11  12
BRANCH  11  16
HETATM   16  C   UNL     1       2.466  13.446  91.809  1.00  0.00     0.398 A 
HETATM   17  O   UNL     1       1.442  14.113  91.676  1.00  0.00    -0.136 OA
HETATM   18  N   UNL     1       1.470  13.456  93.047  1.00  0.00     0.142 N 
HETATM   19  HN  UNL     1       0.599  13.901  93.119  1.00  0.00     0.338 HD
BRANCH  18  20
HETATM   20  S   UNL     1       2.318  12.897  93.996  1.00  0.00     0.076 SA
HETATM   21  H   UNL     1       3.318  12.401  93.589  1.00  0.00     0.136 HD
ENDBRANCH  18  20
ENDBRANCH  11  16
ENDBRANCH   9  11
ENDBRANCH   1   7
BRANCH   4  22
HETATM   22  C   UNL     1       8.366   7.541  91.219  1.00  0.00    -0.059 C 
HETATM   23  C   UNL     1       9.183   6.666  91.339  1.00  0.00    -0.059 C 
BRANCH  23  24
HETATM   24  C   UNL     1      10.155   5.626  91.480  1.00  0.00     0.042 A 
HETATM   25  C   UNL     1      10.454   5.120  92.744  1.00  0.00     0.008 A 
HETATM   26  C   UNL     1      11.403   4.107  92.882  1.00  0.00    -0.002 A 
HETATM   27  C   UNL     1      12.051   3.600  91.755  1.00  0.00     0.011 A 
HETATM   28  C   UNL     1      11.750   4.107  90.491  1.00  0.00    -0.002 A 
HETATM   29  C   UNL     1      10.802   5.121  90.354  1.00  0.00     0.008 A 
BRANCH  27  30
HETATM   30  C   UNL     1      13.063   2.516  91.904  1.00  0.00     0.277 C 
BRANCH  30  31
HETATM   31  N   UNL     1      14.062   2.823  92.927  1.00  0.00     0.147 N 
HETATM   32  C   UNL     1      15.026   1.722  93.060  1.00  0.00     0.283 C 
HETATM   33  C   UNL     1      16.064   2.069  94.124  1.00  0.00     0.178 C 
HETATM   34  O   UNL     1      16.737   3.283  93.784  1.00  0.00    -0.350 OA
HETATM   35  C   UNL     1      15.811   4.365  93.683  1.00  0.00     0.178 C 
HETATM   36  C   UNL     1      14.767   4.073  92.610  1.00  0.00     0.283 C 
ENDBRANCH  30  31
ENDBRANCH  27  30
ENDBRANCH  23  24
ENDBRANCH   4  22
TORSDOF 10
ENDMDL
MODEL 4
REMARK VINA RESULT:      -5.9      2.721      3.607
REMARK  10 active torsions:
REMARK  status: ('A' for Active; 'I' for Inactive)
REMARK    1  A    between atoms: O_2  and  C_16 
REMARK    2  A    between atoms: N_5  and  C_9 
REMARK    3  A    between atoms: N_6  and  C_13 
REMARK       I    between atoms: N_6  and  C_22 
REMARK    4  A    between atoms: C_9  and  C_12 
REMARK    5  A    between atoms: C_13  and  C_16 
REMARK    6  A    between atoms: C_13  and  C_21 
REMARK    7  A    between atoms: C_19  and  C_24 
REMARK    8  A    between atoms: C_22  and  C_23 
REMARK    9  A    between atoms: C_27  and  C_30 
REMARK   10  A    between atoms: N_33  and  S_34 
ROOT
HETATM    1  C   UNL     1       6.177   7.643  88.101  1.00  0.00     0.056 A 
HETATM    2  C   UNL     1       7.489   7.962  87.818  1.00  0.00     0.005 A 
HETATM    3  C   UNL     1       5.838   6.632  88.975  1.00  0.00     0.005 A 
HETATM    4  C   UNL     1       8.190   6.210  89.326  1.00  0.00     0.042 A 
HETATM    5  C   UNL     1       8.508   7.238  88.437  1.00  0.00     0.008 A 
HETATM    6  C   UNL     1       6.856   5.907  89.595  1.00  0.00     0.008 A 
ENDROOT
BRANCH   1   7
HETATM    7  C   UNL     1       5.093   8.416  87.442  1.00  0.00     0.254 C 
HETATM    8  O   UNL     1       4.900   8.272  86.237  1.00  0.00    -0.268 OA
HETATM    9  N   UNL     1       4.348   9.244  88.270  1.00  0.00    -0.337 N 
HETATM   10  HN  UNL     1       4.549   9.293  89.262  1.00  0.00     0.164 HD
BRANCH   9  11
HETATM   11  C   UNL     1       3.248  10.039  87.786  1.00  0.00     0.172 C 
BRANCH  11  12
HETATM   12  C   UNL     1       1.889   9.545  88.296  1.00  0.00     0.136 C 
HETATM   13  C   UNL     1       1.278   8.479  87.393  1.00  0.00     0.034 C 
BRANCH  12  14
HETATM   14  O   UNL     1       2.038   9.008  89.610  1.00  0.00    -0.383 OA
HETATM   15  H   UNL     1       2.828   8.441  89.620  1.00  0.00     0.210 HD
ENDBRANCH  12  14
ENDBRANCH  11  12
BRANCH  11  16
HETATM   16  C   UNL     1       3.502  11.486  88.197  1.00  0.00     0.398 A 
HETATM   17  O   UNL     1       4.467  12.135  87.799  1.00  0.00    -0.136 OA
HETATM   18  N   UNL     1       4.265  12.349  89.290  1.00  0.00     0.142 N 
HETATM   19  HN  UNL     1       5.031  12.948  89.162  1.00  0.00     0.338 HD
BRANCH  18  20
HETATM   20  S   UNL     1       3.692  11.791  90.428  1.00  0.00     0.076 SA
HETATM   21  H   UNL     1       3.253  12.551  91.228  1.00  0.00     0.136 HD
ENDBRANCH  18  20
ENDBRANCH  11  16
ENDBRANCH   9  11
ENDBRANCH   1   7
BRANCH   4  22
HETATM   22  C   UNL     1       9.234   5.466  89.959  1.00  0.00    -0.059 C 
HETATM   23  C   UNL     1      10.111   4.839  90.491  1.00  0.00    -0.059 C 
BRANCH  23  24
HETATM   24  C   UNL     1      11.156   4.093  91.124  1.00  0.00     0.042 A 
HETATM   25  C   UNL     1      12.458   4.161  90.629  1.00  0.00     0.008 A 
HETATM   26  C   UNL     1      13.475   3.433  91.245  1.00  0.00    -0.002 A 
HETATM   27  C   UNL     1      13.190   2.638  92.356  1.00  0.00     0.011 A 
HETATM   28  C   UNL     1      11.888   2.572  92.849  1.00  0.00    -0.002 A 
HETATM   29  C   UNL     1      10.870   3.300  92.233  1.00  0.00     0.008 A 
BRANCH  27  30
HETATM   30  C   UNL     1      14.280   1.862  93.014  1.00  0.00     0.277 C 
BRANCH  30  31
HETATM   31  N   UNL     1      15.251   2.724  93.685  1.00  0.00     0.147 N 
HETATM   32  C   UNL     1      16.618   2.399  93.257  1.00  0.00     0.283 C 
HETATM   33  C   UNL     1      17.613   3.318  93.962  1.00  0.00     0.178 C 
HETATM   34  O   UNL     1      17.313   4.686  93.678  1.00  0.00    -0.350 OA
HETATM   35  C   UNL     1      15.996   5.018  94.120  1.00  0.00     0.178 C 
HETATM   36  C   UNL     1      14.964   4.140  93.420  1.00  0.00     0.283 C 
ENDBRANCH  30  31
ENDBRANCH  27  30
ENDBRANCH  23  24
ENDBRANCH   4  22
TORSDOF 10
ENDMDL
MODEL 5
REMARK VINA RESULT:      -5.5      3.549     12.384
REMARK  10 active torsions:
REMARK  status: ('A' for Active; 'I' for Inactive)
REMARK    1  A    between atoms: O_2  and  C_16 
REMARK    2  A    between atoms: N_5  and  C_9 
REMARK    3  A    between atoms: N_6  and  C_13 
REMARK       I    between atoms: N_6  and  C_22 
REMARK    4  A    between atoms: C_9  and  C_12 
REMARK    5  A    between atoms: C_13  and  C_16 
REMARK    6  A    between atoms: C_13  and  C_21 
REMARK    7  A    between atoms: C_19  and  C_24 
REMARK    8  A    between atoms: C_22  and  C_23 
REMARK    9  A    between atoms: C_27  and  C_30 
REMARK   10  A    between atoms: N_33  and  S_34 
ROOT
HETATM    1  C   UNL     1      10.045   5.774  89.757  1.00  0.00     0.056 A 
HETATM    2  C   UNL     1       9.747   6.435  88.584  1.00  0.00     0.005 A 
HETATM    3  C   UNL     1       9.455   6.106  90.959  1.00  0.00     0.005 A 
HETATM    4  C   UNL     1       8.209   7.831  89.816  1.00  0.00     0.042 A 
HETATM    5  C   UNL     1       8.818   7.476  88.613  1.00  0.00     0.008 A 
HETATM    6  C   UNL     1       8.527   7.147  90.989  1.00  0.00     0.008 A 
ENDROOT
BRANCH   1   7
HETATM    7  C   UNL     1      11.032   4.665  89.725  1.00  0.00     0.254 C 
HETATM    8  O   UNL     1      11.144   3.990  88.704  1.00  0.00    -0.268 OA
HETATM    9  N   UNL     1      11.788   4.489  90.876  1.00  0.00    -0.337 N 
HETATM   10  HN  UNL     1      11.658   5.102  91.673  1.00  0.00     0.164 HD
BRANCH   9  11
HETATM   11  C   UNL     1      12.802   3.473  90.991  1.00  0.00     0.172 C 
BRANCH  11  12
HETATM   12  C   UNL     1      14.212   4.056  91.145  1.00  0.00     0.136 C 
HETATM   13  C   UNL     1      15.301   3.057  90.768  1.00  0.00     0.034 C 
BRANCH  12  14
HETATM   14  O   UNL     1      14.342   5.215  90.323  1.00  0.00    -0.383 OA
HETATM   15  H   UNL     1      15.101   5.085  89.730  1.00  0.00     0.210 HD
ENDBRANCH  12  14
ENDBRANCH  11  12
BRANCH  11  16
HETATM   16  C   UNL     1      12.437   2.582  92.174  1.00  0.00     0.398 A 
HETATM   17  O   UNL     1      11.291   2.480  92.607  1.00  0.00    -0.136 OA
HETATM   18  N   UNL     1      12.278   2.622  93.754  1.00  0.00     0.142 N 
HETATM   19  HN  UNL     1      11.457   2.528  94.282  1.00  0.00     0.338 HD
BRANCH  18  20
HETATM   20  S   UNL     1      13.552   3.074  94.077  1.00  0.00     0.076 SA
HETATM   21  H   UNL     1      13.627   4.167  94.539  1.00  0.00     0.136 HD
ENDBRANCH  18  20
ENDBRANCH  11  16
ENDBRANCH   9  11
ENDBRANCH   1   7
BRANCH   4  22
HETATM   22  C   UNL     1       7.259   8.900  89.847  1.00  0.00    -0.059 C 
HETATM   23  C   UNL     1       6.460   9.798  89.873  1.00  0.00    -0.059 C 
BRANCH  23  24
HETATM   24  C   UNL     1       5.510  10.867  89.904  1.00  0.00     0.042 A 
HETATM   25  C   UNL     1       4.270  10.678  90.514  1.00  0.00     0.008 A 
HETATM   26  C   UNL     1       3.342  11.719  90.543  1.00  0.00    -0.002 A 
HETATM   27  C   UNL     1       3.656  12.949  89.964  1.00  0.00     0.011 A 
HETATM   28  C   UNL     1       4.897  13.136  89.355  1.00  0.00    -0.002 A 
HETATM   29  C   UNL     1       5.824  12.095  89.325  1.00  0.00     0.008 A 
BRANCH  27  30
HETATM   30  C   UNL     1       2.665  14.062  89.998  1.00  0.00     0.277 C 
BRANCH  30  31
HETATM   31  N   UNL     1       2.639  14.746  91.289  1.00  0.00     0.147 N 
HETATM   32  C   UNL     1       1.740  14.057  92.225  1.00  0.00     0.283 C 
HETATM   33  C   UNL     1       1.738  14.782  93.569  1.00  0.00     0.178 C 
HETATM   34  O   UNL     1       3.062  14.844  94.103  1.00  0.00    -0.350 OA
HETATM   35  C   UNL     1       3.936  15.540  93.212  1.00  0.00     0.178 C 
HETATM   36  C   UNL     1       3.990  14.834  91.861  1.00  0.00     0.283 C 
ENDBRANCH  30  31
ENDBRANCH  27  30
ENDBRANCH  23  24
ENDBRANCH   4  22
TORSDOF 10
ENDMDL
MODEL 6
REMARK VINA RESULT:      -5.3      3.682     12.596
REMARK  10 active torsions:
REMARK  status: ('A' for Active; 'I' for Inactive)
REMARK    1  A    between atoms: O_2  and  C_16 
REMARK    2  A    between atoms: N_5  and  C_9 
REMARK    3  A    between atoms: N_6  and  C_13 
REMARK       I    between atoms: N_6  and  C_22 
REMARK    4  A    between atoms: C_9  and  C_12 
REMARK    5  A    between atoms: C_13  and  C_16 
REMARK    6  A    between atoms: C_13  and  C_21 
REMARK    7  A    between atoms: C_19  and  C_24 
REMARK    8  A    between atoms: C_22  and  C_23 
REMARK    9  A    between atoms: C_27  and  C_30 
REMARK   10  A    between atoms: N_33  and  S_34 
ROOT
HETATM    1  C   UNL     1      10.573   4.652  92.695  1.00  0.00     0.056 A 
HETATM    2  C   UNL     1      10.288   5.504  93.741  1.00  0.00     0.005 A 
HETATM    3  C   UNL     1       9.917   4.728  91.484  1.00  0.00     0.005 A 
HETATM    4  C   UNL     1       8.624   6.573  92.354  1.00  0.00     0.042 A 
HETATM    5  C   UNL     1       9.302   6.476  93.570  1.00  0.00     0.008 A 
HETATM    6  C   UNL     1       8.932   5.699  91.311  1.00  0.00     0.008 A 
ENDROOT
BRANCH   1   7
HETATM    7  C   UNL     1      11.624   3.618  92.878  1.00  0.00     0.254 C 
HETATM    8  O   UNL     1      11.306   2.431  92.871  1.00  0.00    -0.268 OA
HETATM    9  N   UNL     1      12.922   4.089  93.022  1.00  0.00    -0.337 N 
HETATM   10  HN  UNL     1      13.112   5.084  92.992  1.00  0.00     0.164 HD
BRANCH   9  11
HETATM   11  C   UNL     1      14.053   3.211  93.183  1.00  0.00     0.172 C 
BRANCH  11  12
HETATM   12  C   UNL     1      14.548   2.631  91.852  1.00  0.00     0.136 C 
HETATM   13  C   UNL     1      14.382   3.606  90.692  1.00  0.00     0.034 C 
BRANCH  12  14
HETATM   14  O   UNL     1      15.926   2.279  91.968  1.00  0.00    -0.383 OA
HETATM   15  H   UNL     1      16.037   1.369  91.645  1.00  0.00     0.210 HD
ENDBRANCH  12  14
ENDBRANCH  11  12
BRANCH  11  16
HETATM   16  C   UNL     1      15.154   3.994  93.890  1.00  0.00     0.398 A 
HETATM   17  O   UNL     1      15.577   5.074  93.480  1.00  0.00    -0.136 OA
HETATM   18  N   UNL     1      16.731   4.180  93.904  1.00  0.00     0.142 N 
HETATM   19  HN  UNL     1      17.250   4.972  93.645  1.00  0.00     0.338 HD
BRANCH  18  20
HETATM   20  S   UNL     1      17.092   2.855  94.124  1.00  0.00     0.076 SA
HETATM   21  H   UNL     1      18.127   2.502  93.660  1.00  0.00     0.136 HD
ENDBRANCH  18  20
ENDBRANCH  11  16
ENDBRANCH   9  11
ENDBRANCH   1   7
BRANCH   4  22
HETATM   22  C   UNL     1       7.612   7.567  92.179  1.00  0.00    -0.059 C 
HETATM   23  C   UNL     1       6.760   8.404  92.033  1.00  0.00    -0.059 C 
BRANCH  23  24
HETATM   24  C   UNL     1       5.748   9.399  91.858  1.00  0.00     0.042 A 
HETATM   25  C   UNL     1       5.822  10.600  92.564  1.00  0.00     0.008 A 
HETATM   26  C   UNL     1       4.834  11.569  92.395  1.00  0.00    -0.002 A 
HETATM   27  C   UNL     1       3.773  11.339  91.518  1.00  0.00     0.011 A 
HETATM   28  C   UNL     1       3.701  10.138  90.813  1.00  0.00    -0.002 A 
HETATM   29  C   UNL     1       4.688   9.168  90.983  1.00  0.00     0.008 A 
BRANCH  27  30
HETATM   30  C   UNL     1       2.719  12.377  91.337  1.00  0.00     0.277 C 
BRANCH  30  31
HETATM   31  N   UNL     1       3.234  13.589  90.701  1.00  0.00     0.147 N 
HETATM   32  C   UNL     1       4.038  14.372  91.649  1.00  0.00     0.283 C 
HETATM   33  C   UNL     1       4.574  15.625  90.961  1.00  0.00     0.178 C 
HETATM   34  O   UNL     1       5.355  15.269  89.819  1.00  0.00    -0.350 OA
HETATM   35  C   UNL     1       4.571  14.534  88.878  1.00  0.00     0.178 C 
HETATM   36  C   UNL     1       4.035  13.256  89.516  1.00  0.00     0.283 C 
ENDBRANCH  30  31
ENDBRANCH  27  30
ENDBRANCH  23  24
ENDBRANCH   4  22
TORSDOF 10
ENDMDL
MODEL 7
REMARK VINA RESULT:      -5.3      3.587     12.514
REMARK  10 active torsions:
REMARK  status: ('A' for Active; 'I' for Inactive)
REMARK    1  A    between atoms: O_2  and  C_16 
REMARK    2  A    between atoms: N_5  and  C_9 
REMARK    3  A    between atoms: N_6  and  C_13 
REMARK       I    between atoms: N_6  and  C_22 
REMARK    4  A    between atoms: C_9  and  C_12 
REMARK    5  A    between atoms: C_13  and  C_16 
REMARK    6  A    between atoms: C_13  and  C_21 
REMARK    7  A    between atoms: C_19  and  C_24 
REMARK    8  A    between atoms: C_22  and  C_23 
REMARK    9  A    between atoms: C_27  and  C_30 
REMARK   10  A    between atoms: N_33  and  S_34 
ROOT
HETATM    1  C   UNL     1      10.027   5.229  90.569  1.00  0.00     0.056 A 
HETATM    2  C   UNL     1       9.395   5.680  91.709  1.00  0.00     0.005 A 
HETATM    3  C   UNL     1       9.812   5.801  89.333  1.00  0.00     0.005 A 
HETATM    4  C   UNL     1       8.272   7.347  90.369  1.00  0.00     0.042 A 
HETATM    5  C   UNL     1       8.507   6.751  91.609  1.00  0.00     0.008 A 
HETATM    6  C   UNL     1       8.924   6.873  89.231  1.00  0.00     0.008 A 
ENDROOT
BRANCH   1   7
HETATM    7  C   UNL     1      10.974   4.089  90.676  1.00  0.00     0.254 C 
HETATM    8  O   UNL     1      10.815   3.107  89.956  1.00  0.00    -0.268 OA
HETATM    9  N   UNL     1      12.006   4.241  91.592  1.00  0.00    -0.337 N 
HETATM   10  HN  UNL     1      12.089   5.092  92.136  1.00  0.00     0.164 HD
BRANCH   9  11
HETATM   11  C   UNL     1      13.018   3.235  91.794  1.00  0.00     0.172 C 
BRANCH  11  12
HETATM   12  C   UNL     1      14.144   3.309  90.755  1.00  0.00     0.136 C 
HETATM   13  C   UNL     1      14.500   4.744  90.381  1.00  0.00     0.034 C 
BRANCH  12  14
HETATM   14  O   UNL     1      15.309   2.662  91.267  1.00  0.00    -0.383 OA
HETATM   15  H   UNL     1      16.082   2.999  90.784  1.00  0.00     0.210 HD
ENDBRANCH  12  14
ENDBRANCH  11  12
BRANCH  11  16
HETATM   16  C   UNL     1      13.559   3.396  93.211  1.00  0.00     0.398 A 
HETATM   17  O   UNL     1      14.325   4.301  93.536  1.00  0.00    -0.136 OA
HETATM   18  N   UNL     1      14.790   2.978  94.124  1.00  0.00     0.142 N 
HETATM   19  HN  UNL     1      15.485   3.556  94.505  1.00  0.00     0.338 HD
BRANCH  18  20
HETATM   20  S   UNL     1      14.697   1.599  93.974  1.00  0.00     0.076 SA
HETATM   21  H   UNL     1      15.581   1.069  93.382  1.00  0.00     0.136 HD
ENDBRANCH  18  20
ENDBRANCH  11  16
ENDBRANCH   9  11
ENDBRANCH   1   7
BRANCH   4  22
HETATM   22  C   UNL     1       7.360   8.443  90.266  1.00  0.00    -0.059 C 
HETATM   23  C   UNL     1       6.592   9.364  90.180  1.00  0.00    -0.059 C 
BRANCH  23  24
HETATM   24  C   UNL     1       5.679  10.461  90.077  1.00  0.00     0.042 A 
HETATM   25  C   UNL     1       4.399  10.355  90.621  1.00  0.00     0.008 A 
HETATM   26  C   UNL     1       3.509  11.423  90.520  1.00  0.00    -0.002 A 
HETATM   27  C   UNL     1       3.899  12.598  89.876  1.00  0.00     0.011 A 
HETATM   28  C   UNL     1       5.180  12.702  89.332  1.00  0.00    -0.002 A 
HETATM   29  C   UNL     1       6.070  11.633  89.434  1.00  0.00     0.008 A 
BRANCH  27  30
HETATM   30  C   UNL     1       2.947  13.740  89.770  1.00  0.00     0.277 C 
BRANCH  30  31
HETATM   31  N   UNL     1       2.885  14.530  90.998  1.00  0.00     0.147 N 
HETATM   32  C   UNL     1       1.942  13.933  91.954  1.00  0.00     0.283 C 
HETATM   33  C   UNL     1       1.903  14.767  93.232  1.00  0.00     0.178 C 
HETATM   34  O   UNL     1       3.208  14.856  93.807  1.00  0.00    -0.350 OA
HETATM   35  C   UNL     1       4.124  15.464  92.896  1.00  0.00     0.178 C 
HETATM   36  C   UNL     1       4.216  14.648  91.611  1.00  0.00     0.283 C 
ENDBRANCH  30  31
ENDBRANCH  27  30
ENDBRANCH  23  24
ENDBRANCH   4  22
TORSDOF 10
ENDMDL
MODEL 8
REMARK VINA RESULT:      -4.8      2.579      3.339
REMARK  10 active torsions:
REMARK  status: ('A' for Active; 'I' for Inactive)
REMARK    1  A    between atoms: O_2  and  C_16 
REMARK    2  A    between atoms: N_5  and  C_9 
REMARK    3  A    between atoms: N_6  and  C_13 
REMARK       I    between atoms: N_6  and  C_22 
REMARK    4  A    between atoms: C_9  and  C_12 
REMARK    5  A    between atoms: C_13  and  C_16 
REMARK    6  A    between atoms: C_13  and  C_21 
REMARK    7  A    between atoms: C_19  and  C_24 
REMARK    8  A    between atoms: C_22  and  C_23 
REMARK    9  A    between atoms: C_27  and  C_30 
REMARK   10  A    between atoms: N_33  and  S_34 
ROOT
HETATM    1  C   UNL     1       5.032   7.926  91.098  1.00  0.00     0.056 A 
HETATM    2  C   UNL     1       5.520   7.066  90.136  1.00  0.00     0.005 A 
HETATM    3  C   UNL     1       5.648   8.089  92.321  1.00  0.00     0.005 A 
HETATM    4  C   UNL     1       7.318   6.482  91.639  1.00  0.00     0.042 A 
HETATM    5  C   UNL     1       6.676   6.335  90.409  1.00  0.00     0.008 A 
HETATM    6  C   UNL     1       6.805   7.358  92.595  1.00  0.00     0.008 A 
ENDROOT
BRANCH   1   7
HETATM    7  C   UNL     1       3.801   8.706  90.805  1.00  0.00     0.254 C 
HETATM    8  O   UNL     1       2.749   8.109  90.596  1.00  0.00    -0.268 OA
HETATM    9  N   UNL     1       3.940  10.087  90.817  1.00  0.00    -0.337 N 
HETATM   10  HN  UNL     1       4.837  10.511  91.024  1.00  0.00     0.164 HD
BRANCH   9  11
HETATM   11  C   UNL     1       2.834  10.979  90.577  1.00  0.00     0.172 C 
BRANCH  11  12
HETATM   12  C   UNL     1       2.742  12.104  91.616  1.00  0.00     0.136 C 
HETATM   13  C   UNL     1       1.957  11.691  92.855  1.00  0.00     0.034 C 
BRANCH  12  14
HETATM   14  O   UNL     1       4.056  12.498  92.010  1.00  0.00    -0.383 OA
HETATM   15  H   UNL     1       4.431  11.796  92.568  1.00  0.00     0.210 HD
ENDBRANCH  12  14
ENDBRANCH  11  12
BRANCH  11  16
HETATM   16  C   UNL     1       2.986  11.538  89.166  1.00  0.00     0.398 A 
HETATM   17  O   UNL     1       2.701  10.896  88.157  1.00  0.00    -0.136 OA
HETATM   18  N   UNL     1       4.025  11.617  87.967  1.00  0.00     0.142 N 
HETATM   19  HN  UNL     1       3.960  11.202  87.081  1.00  0.00     0.338 HD
BRANCH  18  20
HETATM   20  S   UNL     1       5.087  12.196  88.654  1.00  0.00     0.076 SA
HETATM   21  H   UNL     1       4.817  13.082  89.398  1.00  0.00     0.136 HD
ENDBRANCH  18  20
ENDBRANCH  11  16
ENDBRANCH   9  11
ENDBRANCH   1   7
BRANCH   4  22
HETATM   22  C   UNL     1       8.502   5.730  91.920  1.00  0.00    -0.059 C 
HETATM   23  C   UNL     1       9.497   5.099  92.157  1.00  0.00    -0.059 C 
BRANCH  23  24
HETATM   24  C   UNL     1      10.682   4.348  92.439  1.00  0.00     0.042 A 
HETATM   25  C   UNL     1      11.225   4.362  93.723  1.00  0.00     0.008 A 
HETATM   26  C   UNL     1      12.381   3.631  93.998  1.00  0.00    -0.002 A 
HETATM   27  C   UNL     1      12.991   2.885  92.989  1.00  0.00     0.011 A 
HETATM   28  C   UNL     1      12.445   2.872  91.705  1.00  0.00    -0.002 A 
HETATM   29  C   UNL     1      11.290   3.603  91.431  1.00  0.00     0.008 A 
BRANCH  27  30
HETATM   30  C   UNL     1      14.225   2.102  93.285  1.00  0.00     0.277 C 
BRANCH  30  31
HETATM   31  N   UNL     1      15.282   2.928  93.865  1.00  0.00     0.147 N 
HETATM   32  C   UNL     1      16.604   2.473  93.412  1.00  0.00     0.283 C 
HETATM   33  C   UNL     1      17.691   3.356  94.021  1.00  0.00     0.178 C 
HETATM   34  O   UNL     1      17.482   4.723  93.659  1.00  0.00    -0.350 OA
HETATM   35  C   UNL     1      16.212   5.181  94.123  1.00  0.00     0.178 C 
HETATM   36  C   UNL     1      15.090   4.343  93.518  1.00  0.00     0.283 C 
ENDBRANCH  30  31
ENDBRANCH  27  30
ENDBRANCH  23  24
ENDBRANCH   4  22
TORSDOF 10
ENDMDL
MODEL 9
REMARK VINA RESULT:      -4.5      0.297      1.225
REMARK  10 active torsions:
REMARK  status: ('A' for Active; 'I' for Inactive)
REMARK    1  A    between atoms: O_2  and  C_16 
REMARK    2  A    between atoms: N_5  and  C_9 
REMARK    3  A    between atoms: N_6  and  C_13 
REMARK       I    between atoms: N_6  and  C_22 
REMARK    4  A    between atoms: C_9  and  C_12 
REMARK    5  A    between atoms: C_13  and  C_16 
REMARK    6  A    between atoms: C_13  and  C_21 
REMARK    7  A    between atoms: C_19  and  C_24 
REMARK    8  A    between atoms: C_22  and  C_23 
REMARK    9  A    between atoms: C_27  and  C_30 
REMARK   10  A    between atoms: N_33  and  S_34 
ROOT
HETATM    1  C   UNL     1       5.693  10.886  89.558  1.00  0.00     0.056 A 
HETATM    2  C   UNL     1       7.048  11.140  89.591  1.00  0.00     0.005 A 
HETATM    3  C   UNL     1       5.174   9.632  89.802  1.00  0.00     0.005 A 
HETATM    4  C   UNL     1       7.423   8.817  90.131  1.00  0.00     0.042 A 
HETATM    5  C   UNL     1       7.924  10.094  89.881  1.00  0.00     0.008 A 
HETATM    6  C   UNL     1       6.049   8.585  90.092  1.00  0.00     0.008 A 
ENDROOT
BRANCH   1   7
HETATM    7  C   UNL     1       4.760  12.001  89.251  1.00  0.00     0.254 C 
HETATM    8  O   UNL     1       4.553  12.304  88.078  1.00  0.00    -0.268 OA
HETATM    9  N   UNL     1       4.163  12.612  90.344  1.00  0.00    -0.337 N 
HETATM   10  HN  UNL     1       4.364  12.291  91.284  1.00  0.00     0.164 HD
BRANCH   9  11
HETATM   11  C   UNL     1       3.218  13.691  90.209  1.00  0.00     0.172 C 
BRANCH  11  12
HETATM   12  C   UNL     1       1.994  13.526  91.119  1.00  0.00     0.136 C 
HETATM   13  C   UNL     1       2.107  12.312  92.035  1.00  0.00     0.034 C 
BRANCH  12  14
HETATM   14  O   UNL     1       1.834  14.697  91.920  1.00  0.00    -0.383 OA
HETATM   15  H   UNL     1       0.891  14.933  91.929  1.00  0.00     0.210 HD
ENDBRANCH  12  14
ENDBRANCH  11  12
BRANCH  11  16
HETATM   16  C   UNL     1       3.954  14.995  90.501  1.00  0.00     0.398 A 
HETATM   17  O   UNL     1       5.059  15.259  90.031  1.00  0.00    -0.136 OA
HETATM   18  N   UNL     1       5.010  15.625  91.506  1.00  0.00     0.142 N 
HETATM   19  HN  UNL     1       5.924  15.926  91.314  1.00  0.00     0.338 HD
BRANCH  18  20
HETATM   20  S   UNL     1       4.341  15.365  92.696  1.00  0.00     0.076 SA
HETATM   21  H   UNL     1       3.166  15.200  92.620  1.00  0.00     0.136 HD
ENDBRANCH  18  20
ENDBRANCH  11  16
ENDBRANCH   9  11
ENDBRANCH   1   7
BRANCH   4  22
HETATM   22  C   UNL     1       8.321   7.743  90.426  1.00  0.00    -0.059 C 
HETATM   23  C   UNL     1       9.076   6.841  90.673  1.00  0.00    -0.059 C 
BRANCH  23  24
HETATM   24  C   UNL     1       9.974   5.766  90.966  1.00  0.00     0.042 A 
HETATM   25  C   UNL     1      10.080   5.284  92.270  1.00  0.00     0.008 A 
HETATM   26  C   UNL     1      10.957   4.238  92.557  1.00  0.00    -0.002 A 
HETATM   27  C   UNL     1      11.727   3.675  91.539  1.00  0.00     0.011 A 
HETATM   28  C   UNL     1      11.620   4.159  90.235  1.00  0.00    -0.002 A 
HETATM   29  C   UNL     1      10.743   5.205  89.949  1.00  0.00     0.008 A 
BRANCH  27  30
HETATM   30  C   UNL     1      12.663   2.555  91.846  1.00  0.00     0.277 C 
BRANCH  30  31
HETATM   31  N   UNL     1      13.686   2.936  92.818  1.00  0.00     0.147 N 
HETATM   32  C   UNL     1      14.569   1.800  93.116  1.00  0.00     0.283 C 
HETATM   33  C   UNL     1      15.635   2.224  94.123  1.00  0.00     0.178 C 
HETATM   34  O   UNL     1      16.392   3.324  93.613  1.00  0.00    -0.350 OA
HETATM   35  C   UNL     1      15.545   4.443  93.350  1.00  0.00     0.178 C 
HETATM   36  C   UNL     1      14.477   4.073  92.326  1.00  0.00     0.283 C 
ENDBRANCH  30  31
ENDBRANCH  27  30
ENDBRANCH  23  24
ENDBRANCH   4  22
TORSDOF 10
ENDMDL
