MODEL 1
REMARK VINA RESULT:      -7.5      0.000      0.000
REMARK  9 active torsions:
REMARK  status: ('A' for Active; 'I' for Inactive)
REMARK    1  A    between atoms: N_3  and  C_6 
REMARK    2  A    between atoms: C_6  and  C_9 
REMARK    3  A    between atoms: C_14  and  C_17 
REMARK       I    between atoms: N_26  and  C_15 
REMARK    4  A    between atoms: C_15  and  C_16 
REMARK    5  A    between atoms: C_20  and  C_23 
REMARK    6  A    between atoms: OG1_24  and  CB_28 
REMARK    7  A    between atoms: N_26  and  CA_27 
REMARK    8  A    between atoms: CA_27  and  CB_28 
REMARK    9  A    between atoms: CA_27  and  C_30 
ROOT
HETATM    1  O   UNK A   0       1.939   8.007  87.811  1.00  0.00    -0.388 OA
HETATM    2  N   UNK A   0       4.739   7.514  87.679  1.00  0.00     0.096 N 
HETATM    3  C   UNK A   0       4.203   8.880  87.769  1.00  0.00     0.299 C 
HETATM    4  C   UNK A   0       3.771   6.637  87.005  1.00  0.00     0.299 C 
HETATM    5  C   UNK A   0       2.859   8.860  88.493  1.00  0.00     0.198 C 
HETATM    6  C   UNK A   0       2.439   6.671  87.747  1.00  0.00     0.198 C 
ENDROOT
BRANCH   2   7
HETATM    7  C   UNK A   0       6.022   7.508  86.978  1.00  0.00     0.311 C 
BRANCH   7   8
HETATM    8  C   UNK A   0       7.112   6.901  87.795  1.00  0.00    -0.030 A 
HETATM    9  C   UNK A   0       8.351   6.630  87.212  1.00  0.00     0.010 A 
HETATM   10  C   UNK A   0       9.370   6.061  87.975  1.00  0.00     0.021 A 
HETATM   11  C   UNK A   0       9.151   5.765  89.320  1.00  0.00     0.018 A 
HETATM   12  C   UNK A   0       7.915   6.035  89.903  1.00  0.00     0.021 A 
HETATM   13  C   UNK A   0       6.895   6.604  89.140  1.00  0.00     0.010 A 
BRANCH  11  14
HETATM   14  C   UNK A   0      10.198   5.183  90.102  1.00  0.00    -0.061 C 
HETATM   15  C   UNK A   0      11.078   4.695  90.760  1.00  0.00    -0.061 C 
BRANCH  15  16
HETATM   16  C   UNK A   0      12.124   4.114  91.543  1.00  0.00     0.018 A 
HETATM   17  C   UNK A   0      13.383   3.906  90.979  1.00  0.00     0.022 A 
HETATM   18  C   UNK A   0      14.404   3.342  91.744  1.00  0.00     0.018 A 
HETATM   19  C   UNK A   0      14.144   2.999  93.054  1.00  0.00     0.032 A 
HETATM   20  C   UNK A   0      12.908   3.194  93.634  1.00  0.00     0.018 A 
HETATM   21  C   UNK A   0      11.886   3.758  92.870  1.00  0.00     0.022 A 
BRANCH  19  22
HETATM   22  C   UNK A   0      15.231   2.396  93.867  1.00  0.00     0.252 C 
HETATM   23  O   UNK A   0      16.357   2.886  93.822  1.00  0.00    -0.268 OA
ENDBRANCH  19  22
ENDBRANCH  15  16
ENDBRANCH  11  14
ENDBRANCH   7   8
ENDBRANCH   2   7
TORSDOF 9
ENDMDL
MODEL 2
REMARK VINA RESULT:      -7.5      0.181      1.023
REMARK  9 active torsions:
REMARK  status: ('A' for Active; 'I' for Inactive)
REMARK    1  A    between atoms: N_3  and  C_6 
REMARK    2  A    between atoms: C_6  and  C_9 
REMARK    3  A    between atoms: C_14  and  C_17 
REMARK       I    between atoms: N_26  and  C_15 
REMARK    4  A    between atoms: C_15  and  C_16 
REMARK    5  A    between atoms: C_20  and  C_23 
REMARK    6  A    between atoms: OG1_24  and  CB_28 
REMARK    7  A    between atoms: N_26  and  CA_27 
REMARK    8  A    between atoms: CA_27  and  CB_28 
REMARK    9  A    between atoms: CA_27  and  C_30 
ROOT
HETATM    1  O   UNK A   0       1.742   7.956  87.924  1.00  0.00    -0.388 OA
HETATM    2  N   UNK A   0       4.542   7.481  87.737  1.00  0.00     0.096 N 
HETATM    3  C   UNK A   0       4.000   8.842  87.856  1.00  0.00     0.299 C 
HETATM    4  C   UNK A   0       3.568   6.608  87.067  1.00  0.00     0.299 C 
HETATM    5  C   UNK A   0       2.669   8.805  88.603  1.00  0.00     0.198 C 
HETATM    6  C   UNK A   0       2.248   6.624  87.831  1.00  0.00     0.198 C 
ENDROOT
BRANCH   2   7
HETATM    7  C   UNK A   0       5.813   7.492  87.014  1.00  0.00     0.311 C 
BRANCH   7   8
HETATM    8  C   UNK A   0       6.925   6.902  87.813  1.00  0.00    -0.030 A 
HETATM    9  C   UNK A   0       6.717   6.561  89.150  1.00  0.00     0.010 A 
HETATM   10  C   UNK A   0       7.758   6.011  89.899  1.00  0.00     0.021 A 
HETATM   11  C   UNK A   0       9.004   5.801  89.310  1.00  0.00     0.018 A 
HETATM   12  C   UNK A   0       9.212   6.141  87.975  1.00  0.00     0.021 A 
HETATM   13  C   UNK A   0       8.173   6.692  87.226  1.00  0.00     0.010 A 
BRANCH  11  14
HETATM   14  C   UNK A   0      10.071   5.235  90.077  1.00  0.00    -0.061 C 
HETATM   15  C   UNK A   0      10.967   4.758  90.722  1.00  0.00    -0.061 C 
BRANCH  15  16
HETATM   16  C   UNK A   0      12.033   4.192  91.488  1.00  0.00     0.018 A 
HETATM   17  C   UNK A   0      13.271   3.956  90.891  1.00  0.00     0.022 A 
HETATM   18  C   UNK A   0      14.311   3.406  91.639  1.00  0.00     0.018 A 
HETATM   19  C   UNK A   0      14.091   3.106  92.967  1.00  0.00     0.032 A 
HETATM   20  C   UNK A   0      12.877   3.329  93.581  1.00  0.00     0.018 A 
HETATM   21  C   UNK A   0      11.835   3.879  92.833  1.00  0.00     0.022 A 
BRANCH  19  22
HETATM   22  C   UNK A   0      15.199   2.518  93.764  1.00  0.00     0.252 C 
HETATM   23  O   UNK A   0      16.289   3.085  93.785  1.00  0.00    -0.268 OA
ENDBRANCH  19  22
ENDBRANCH  15  16
ENDBRANCH  11  14
ENDBRANCH   7   8
ENDBRANCH   2   7
TORSDOF 9
ENDMDL
MODEL 3
REMARK VINA RESULT:      -6.9      1.192      1.691
REMARK  9 active torsions:
REMARK  status: ('A' for Active; 'I' for Inactive)
REMARK    1  A    between atoms: N_3  and  C_6 
REMARK    2  A    between atoms: C_6  and  C_9 
REMARK    3  A    between atoms: C_14  and  C_17 
REMARK       I    between atoms: N_26  and  C_15 
REMARK    4  A    between atoms: C_15  and  C_16 
REMARK    5  A    between atoms: C_20  and  C_23 
REMARK    6  A    between atoms: OG1_24  and  CB_28 
REMARK    7  A    between atoms: N_26  and  CA_27 
REMARK    8  A    between atoms: CA_27  and  CB_28 
REMARK    9  A    between atoms: CA_27  and  C_30 
ROOT
HETATM    1  O   UNK A   0       2.182   7.016  86.835  1.00  0.00    -0.388 OA
HETATM    2  N   UNK A   0       4.177   7.954  88.635  1.00  0.00     0.096 N 
HETATM    3  C   UNK A   0       2.988   8.759  88.318  1.00  0.00     0.299 C 
HETATM    4  C   UNK A   0       4.514   7.085  87.499  1.00  0.00     0.299 C 
HETATM    5  C   UNK A   0       1.827   7.841  87.946  1.00  0.00     0.198 C 
HETATM    6  C   UNK A   0       3.317   6.208  87.146  1.00  0.00     0.198 C 
ENDROOT
BRANCH   2   7
HETATM    7  C   UNK A   0       5.306   8.814  88.985  1.00  0.00     0.311 C 
BRANCH   7   8
HETATM    8  C   UNK A   0       6.463   8.042  89.520  1.00  0.00    -0.030 A 
HETATM    9  C   UNK A   0       7.686   8.064  88.847  1.00  0.00     0.010 A 
HETATM   10  C   UNK A   0       8.769   7.340  89.345  1.00  0.00     0.021 A 
HETATM   11  C   UNK A   0       8.630   6.597  90.517  1.00  0.00     0.018 A 
HETATM   12  C   UNK A   0       7.410   6.576  91.190  1.00  0.00     0.021 A 
HETATM   13  C   UNK A   0       6.326   7.298  90.692  1.00  0.00     0.010 A 
BRANCH  11  14
HETATM   14  C   UNK A   0       9.742   5.857  91.030  1.00  0.00    -0.061 C 
HETATM   15  C   UNK A   0      10.676   5.234  91.460  1.00  0.00    -0.061 C 
BRANCH  15  16
HETATM   16  C   UNK A   0      11.786   4.493  91.972  1.00  0.00     0.018 A 
HETATM   17  C   UNK A   0      11.758   4.010  93.280  1.00  0.00     0.022 A 
HETATM   18  C   UNK A   0      12.841   3.285  93.778  1.00  0.00     0.018 A 
HETATM   19  C   UNK A   0      13.926   3.059  92.957  1.00  0.00     0.032 A 
HETATM   20  C   UNK A   0      13.978   3.527  91.661  1.00  0.00     0.018 A 
HETATM   21  C   UNK A   0      12.896   4.252  91.162  1.00  0.00     0.022 A 
BRANCH  19  22
HETATM   22  C   UNK A   0      15.080   2.289  93.489  1.00  0.00     0.252 C 
HETATM   23  O   UNK A   0      16.177   2.403  92.948  1.00  0.00    -0.268 OA
ENDBRANCH  19  22
ENDBRANCH  15  16
ENDBRANCH  11  14
ENDBRANCH   7   8
ENDBRANCH   2   7
TORSDOF 9
ENDMDL
MODEL 4
REMARK VINA RESULT:      -6.9      1.543      2.132
REMARK  9 active torsions:
REMARK  status: ('A' for Active; 'I' for Inactive)
REMARK    1  A    between atoms: N_3  and  C_6 
REMARK    2  A    between atoms: C_6  and  C_9 
REMARK    3  A    between atoms: C_14  and  C_17 
REMARK       I    between atoms: N_26  and  C_15 
REMARK    4  A    between atoms: C_15  and  C_16 
REMARK    5  A    between atoms: C_20  and  C_23 
REMARK    6  A    between atoms: OG1_24  and  CB_28 
REMARK    7  A    between atoms: N_26  and  CA_27 
REMARK    8  A    between atoms: CA_27  and  CB_28 
REMARK    9  A    between atoms: CA_27  and  C_30 
ROOT
HETATM    1  O   UNK A   0       2.853  11.257  89.809  1.00  0.00    -0.388 OA
HETATM    2  N   UNK A   0       4.633   9.317  88.726  1.00  0.00     0.096 N 
HETATM    3  C   UNK A   0       3.735  10.100  87.866  1.00  0.00     0.299 C 
HETATM    4  C   UNK A   0       4.037   9.154  90.060  1.00  0.00     0.299 C 
HETATM    5  C   UNK A   0       3.438  11.447  88.520  1.00  0.00     0.198 C 
HETATM    6  C   UNK A   0       3.733  10.523  90.661  1.00  0.00     0.198 C 
ENDROOT
BRANCH   2   7
HETATM    7  C   UNK A   0       4.922   8.016  88.124  1.00  0.00     0.311 C 
BRANCH   7   8
HETATM    8  C   UNK A   0       6.132   7.374  88.713  1.00  0.00    -0.030 A 
HETATM    9  C   UNK A   0       6.004   6.206  89.465  1.00  0.00     0.010 A 
HETATM   10  C   UNK A   0       7.135   5.606  90.018  1.00  0.00     0.021 A 
HETATM   11  C   UNK A   0       8.393   6.173  89.817  1.00  0.00     0.018 A 
HETATM   12  C   UNK A   0       8.522   7.340  89.067  1.00  0.00     0.021 A 
HETATM   13  C   UNK A   0       7.391   7.941  88.514  1.00  0.00     0.010 A 
BRANCH  11  14
HETATM   14  C   UNK A   0       9.553   5.556  90.383  1.00  0.00    -0.061 C 
HETATM   15  C   UNK A   0      10.529   5.037  90.858  1.00  0.00    -0.061 C 
BRANCH  15  16
HETATM   16  C   UNK A   0      11.689   4.421  91.423  1.00  0.00     0.018 A 
HETATM   17  C   UNK A   0      12.860   4.322  90.671  1.00  0.00     0.022 A 
HETATM   18  C   UNK A   0      13.992   3.723  91.223  1.00  0.00     0.018 A 
HETATM   19  C   UNK A   0      13.929   3.239  92.513  1.00  0.00     0.032 A 
HETATM   20  C   UNK A   0      12.783   3.325  93.276  1.00  0.00     0.018 A 
HETATM   21  C   UNK A   0      11.650   3.923  92.725  1.00  0.00     0.022 A 
BRANCH  19  22
HETATM   22  C   UNK A   0      15.135   2.600  93.100  1.00  0.00     0.252 C 
HETATM   23  O   UNK A   0      15.958   3.298  93.688  1.00  0.00    -0.268 OA
ENDBRANCH  19  22
ENDBRANCH  15  16
ENDBRANCH  11  14
ENDBRANCH   7   8
ENDBRANCH   2   7
TORSDOF 9
ENDMDL
MODEL 5
REMARK VINA RESULT:      -6.9      1.572      2.186
REMARK  9 active torsions:
REMARK  status: ('A' for Active; 'I' for Inactive)
REMARK    1  A    between atoms: N_3  and  C_6 
REMARK    2  A    between atoms: C_6  and  C_9 
REMARK    3  A    between atoms: C_14  and  C_17 
REMARK       I    between atoms: N_26  and  C_15 
REMARK    4  A    between atoms: C_15  and  C_16 
REMARK    5  A    between atoms: C_20  and  C_23 
REMARK    6  A    between atoms: OG1_24  and  CB_28 
REMARK    7  A    between atoms: N_26  and  CA_27 
REMARK    8  A    between atoms: CA_27  and  CB_28 
REMARK    9  A    between atoms: CA_27  and  C_30 
ROOT
HETATM    1  O   UNK A   0       2.690  11.214  89.598  1.00  0.00    -0.388 OA
HETATM    2  N   UNK A   0       4.582   9.281  88.712  1.00  0.00     0.096 N 
HETATM    3  C   UNK A   0       3.876  10.155  87.764  1.00  0.00     0.299 C 
HETATM    4  C   UNK A   0       3.752   9.054  89.902  1.00  0.00     0.299 C 
HETATM    5  C   UNK A   0       3.503  11.466  88.450  1.00  0.00     0.198 C 
HETATM    6  C   UNK A   0       3.382  10.391  90.537  1.00  0.00     0.198 C 
ENDROOT
BRANCH   2   7
HETATM    7  C   UNK A   0       4.940   8.013  88.078  1.00  0.00     0.311 C 
BRANCH   7   8
HETATM    8  C   UNK A   0       6.137   7.383  88.705  1.00  0.00    -0.030 A 
HETATM    9  C   UNK A   0       7.399   7.950  88.522  1.00  0.00     0.010 A 
HETATM   10  C   UNK A   0       8.520   7.361  89.106  1.00  0.00     0.021 A 
HETATM   11  C   UNK A   0       8.379   6.206  89.874  1.00  0.00     0.018 A 
HETATM   12  C   UNK A   0       7.119   5.639  90.058  1.00  0.00     0.021 A 
HETATM   13  C   UNK A   0       5.998   6.227  89.473  1.00  0.00     0.010 A 
BRANCH  11  14
HETATM   14  C   UNK A   0       9.528   5.602  90.475  1.00  0.00    -0.061 C 
HETATM   15  C   UNK A   0      10.495   5.095  90.979  1.00  0.00    -0.061 C 
BRANCH  15  16
HETATM   16  C   UNK A   0      11.645   4.493  91.579  1.00  0.00     0.018 A 
HETATM   17  C   UNK A   0      11.592   4.059  92.904  1.00  0.00     0.022 A 
HETATM   18  C   UNK A   0      12.713   3.469  93.488  1.00  0.00     0.018 A 
HETATM   19  C   UNK A   0      13.859   3.325  92.735  1.00  0.00     0.032 A 
HETATM   20  C   UNK A   0      13.936   3.746  91.424  1.00  0.00     0.018 A 
HETATM   21  C   UNK A   0      12.816   4.336  90.838  1.00  0.00     0.022 A 
BRANCH  19  22
HETATM   22  C   UNK A   0      15.053   2.698  93.358  1.00  0.00     0.252 C 
HETATM   23  O   UNK A   0      14.902   1.749  94.124  1.00  0.00    -0.268 OA
ENDBRANCH  19  22
ENDBRANCH  15  16
ENDBRANCH  11  14
ENDBRANCH   7   8
ENDBRANCH   2   7
TORSDOF 9
ENDMDL
MODEL 6
REMARK VINA RESULT:      -6.6      3.933     10.465
REMARK  9 active torsions:
REMARK  status: ('A' for Active; 'I' for Inactive)
REMARK    1  A    between atoms: N_3  and  C_6 
REMARK    2  A    between atoms: C_6  and  C_9 
REMARK    3  A    between atoms: C_14  and  C_17 
REMARK       I    between atoms: N_26  and  C_15 
REMARK    4  A    between atoms: C_15  and  C_16 
REMARK    5  A    between atoms: C_20  and  C_23 
REMARK    6  A    between atoms: OG1_24  and  CB_28 
REMARK    7  A    between atoms: N_26  and  CA_27 
REMARK    8  A    between atoms: CA_27  and  CB_28 
REMARK    9  A    between atoms: CA_27  and  C_30 
ROOT
HETATM    1  O   UNK A   0      14.676   3.346  92.109  1.00  0.00    -0.388 OA
HETATM    2  N   UNK A   0      11.959   4.170  92.316  1.00  0.00     0.096 N 
HETATM    3  C   UNK A   0      12.579   3.305  93.330  1.00  0.00     0.299 C 
HETATM    4  C   UNK A   0      12.600   3.955  91.012  1.00  0.00     0.299 C 
HETATM    5  C   UNK A   0      14.081   3.572  93.389  1.00  0.00     0.198 C 
HETATM    6  C   UNK A   0      14.100   4.205  91.124  1.00  0.00     0.198 C 
ENDROOT
BRANCH   2   7
HETATM    7  C   UNK A   0      10.520   3.923  92.236  1.00  0.00     0.311 C 
BRANCH   7   8
HETATM    8  C   UNK A   0       9.748   5.161  91.926  1.00  0.00    -0.030 A 
HETATM    9  C   UNK A   0       8.720   5.123  90.983  1.00  0.00     0.010 A 
HETATM   10  C   UNK A   0       7.999   6.280  90.691  1.00  0.00     0.021 A 
HETATM   11  C   UNK A   0       8.305   7.474  91.344  1.00  0.00     0.018 A 
HETATM   12  C   UNK A   0       9.331   7.513  92.285  1.00  0.00     0.021 A 
HETATM   13  C   UNK A   0      10.053   6.356  92.577  1.00  0.00     0.010 A 
BRANCH  11  14
HETATM   14  C   UNK A   0       7.564   8.661  91.046  1.00  0.00    -0.061 C 
HETATM   15  C   UNK A   0       6.941   9.658  90.794  1.00  0.00    -0.061 C 
BRANCH  15  16
HETATM   16  C   UNK A   0       6.199  10.844  90.496  1.00  0.00     0.018 A 
HETATM   17  C   UNK A   0       5.287  11.346  91.424  1.00  0.00     0.022 A 
HETATM   18  C   UNK A   0       4.565  12.505  91.134  1.00  0.00     0.018 A 
HETATM   19  C   UNK A   0       4.773  13.134  89.925  1.00  0.00     0.032 A 
HETATM   20  C   UNK A   0       5.669  12.657  88.991  1.00  0.00     0.018 A 
HETATM   21  C   UNK A   0       6.390  11.499  89.280  1.00  0.00     0.022 A 
BRANCH  19  22
HETATM   22  C   UNK A   0       4.003  14.366  89.615  1.00  0.00     0.252 C 
HETATM   23  O   UNK A   0       4.579  15.452  89.624  1.00  0.00    -0.268 OA
ENDBRANCH  19  22
ENDBRANCH  15  16
ENDBRANCH  11  14
ENDBRANCH   7   8
ENDBRANCH   2   7
TORSDOF 9
ENDMDL
MODEL 7
REMARK VINA RESULT:      -6.6      3.960     10.419
REMARK  9 active torsions:
REMARK  status: ('A' for Active; 'I' for Inactive)
REMARK    1  A    between atoms: N_3  and  C_6 
REMARK    2  A    between atoms: C_6  and  C_9 
REMARK    3  A    between atoms: C_14  and  C_17 
REMARK       I    between atoms: N_26  and  C_15 
REMARK    4  A    between atoms: C_15  and  C_16 
REMARK    5  A    between atoms: C_20  and  C_23 
REMARK    6  A    between atoms: OG1_24  and  CB_28 
REMARK    7  A    between atoms: N_26  and  CA_27 
REMARK    8  A    between atoms: CA_27  and  CB_28 
REMARK    9  A    between atoms: CA_27  and  C_30 
ROOT
HETATM    1  O   UNK A   0      14.528   3.281  91.921  1.00  0.00    -0.388 OA
HETATM    2  N   UNK A   0      11.837   4.154  92.237  1.00  0.00     0.096 N 
HETATM    3  C   UNK A   0      12.490   3.299  93.238  1.00  0.00     0.299 C 
HETATM    4  C   UNK A   0      12.413   3.902  90.908  1.00  0.00     0.299 C 
HETATM    5  C   UNK A   0      13.997   3.542  93.222  1.00  0.00     0.198 C 
HETATM    6  C   UNK A   0      13.920   4.130  90.946  1.00  0.00     0.198 C 
ENDROOT
BRANCH   2   7
HETATM    7  C   UNK A   0      10.392   3.930  92.228  1.00  0.00     0.311 C 
BRANCH   7   8
HETATM    8  C   UNK A   0       9.627   5.174  91.931  1.00  0.00    -0.030 A 
HETATM    9  C   UNK A   0       9.861   6.331  92.676  1.00  0.00     0.010 A 
HETATM   10  C   UNK A   0       9.144   7.495  92.400  1.00  0.00     0.021 A 
HETATM   11  C   UNK A   0       8.194   7.502  91.379  1.00  0.00     0.018 A 
HETATM   12  C   UNK A   0       7.959   6.348  90.635  1.00  0.00     0.021 A 
HETATM   13  C   UNK A   0       8.676   5.184  90.911  1.00  0.00     0.010 A 
BRANCH  11  14
HETATM   14  C   UNK A   0       7.460   8.697  91.095  1.00  0.00    -0.061 C 
HETATM   15  C   UNK A   0       6.844   9.701  90.856  1.00  0.00    -0.061 C 
BRANCH  15  16
HETATM   16  C   UNK A   0       6.110  10.895  90.572  1.00  0.00     0.018 A 
HETATM   17  C   UNK A   0       6.272  11.536  89.343  1.00  0.00     0.022 A 
HETATM   18  C   UNK A   0       5.554  12.699  89.065  1.00  0.00     0.018 A 
HETATM   19  C   UNK A   0       4.690  13.194  90.020  1.00  0.00     0.032 A 
HETATM   20  C   UNK A   0       4.513  12.579  91.242  1.00  0.00     0.018 A 
HETATM   21  C   UNK A   0       5.230  11.416  91.521  1.00  0.00     0.022 A 
BRANCH  19  22
HETATM   22  C   UNK A   0       3.927  14.434  89.724  1.00  0.00     0.252 C 
HETATM   23  O   UNK A   0       4.513  15.513  89.723  1.00  0.00    -0.268 OA
ENDBRANCH  19  22
ENDBRANCH  15  16
ENDBRANCH  11  14
ENDBRANCH   7   8
ENDBRANCH   2   7
TORSDOF 9
ENDMDL
MODEL 8
REMARK VINA RESULT:      -6.5      1.979      2.834
REMARK  9 active torsions:
REMARK  status: ('A' for Active; 'I' for Inactive)
REMARK    1  A    between atoms: N_3  and  C_6 
REMARK    2  A    between atoms: C_6  and  C_9 
REMARK    3  A    between atoms: C_14  and  C_17 
REMARK       I    between atoms: N_26  and  C_15 
REMARK    4  A    between atoms: C_15  and  C_16 
REMARK    5  A    between atoms: C_20  and  C_23 
REMARK    6  A    between atoms: OG1_24  and  CB_28 
REMARK    7  A    between atoms: N_26  and  CA_27 
REMARK    8  A    between atoms: CA_27  and  CB_28 
REMARK    9  A    between atoms: CA_27  and  C_30 
ROOT
HETATM    1  O   UNK A   0       4.053  11.917  88.738  1.00  0.00    -0.388 OA
HETATM    2  N   UNK A   0       4.684   9.255  89.527  1.00  0.00     0.096 N 
HETATM    3  C   UNK A   0       3.416   9.578  88.858  1.00  0.00     0.299 C 
HETATM    4  C   UNK A   0       5.160  10.417  90.291  1.00  0.00     0.299 C 
HETATM    5  C   UNK A   0       3.599  10.803  87.966  1.00  0.00     0.198 C 
HETATM    6  C   UNK A   0       5.301  11.622  89.367  1.00  0.00     0.198 C 
ENDROOT
BRANCH   2   7
HETATM    7  C   UNK A   0       4.529   8.090  90.396  1.00  0.00     0.311 C 
BRANCH   7   8
HETATM    8  C   UNK A   0       5.831   7.430  90.698  1.00  0.00    -0.030 A 
HETATM    9  C   UNK A   0       6.797   7.305  89.698  1.00  0.00     0.010 A 
HETATM   10  C   UNK A   0       8.015   6.685  89.979  1.00  0.00     0.021 A 
HETATM   11  C   UNK A   0       8.267   6.193  91.260  1.00  0.00     0.018 A 
HETATM   12  C   UNK A   0       7.303   6.318  92.258  1.00  0.00     0.021 A 
HETATM   13  C   UNK A   0       6.085   6.937  91.978  1.00  0.00     0.010 A 
BRANCH  11  14
HETATM   14  C   UNK A   0       9.517   5.560  91.548  1.00  0.00    -0.061 C 
HETATM   15  C   UNK A   0      10.567   5.027  91.791  1.00  0.00    -0.061 C 
BRANCH  15  16
HETATM   16  C   UNK A   0      11.816   4.394  92.079  1.00  0.00     0.018 A 
HETATM   17  C   UNK A   0      12.043   3.842  93.340  1.00  0.00     0.022 A 
HETATM   18  C   UNK A   0      13.261   3.222  93.620  1.00  0.00     0.018 A 
HETATM   19  C   UNK A   0      14.222   3.166  92.633  1.00  0.00     0.032 A 
HETATM   20  C   UNK A   0      14.022   3.703  91.378  1.00  0.00     0.018 A 
HETATM   21  C   UNK A   0      12.805   4.324  91.098  1.00  0.00     0.022 A 
BRANCH  19  22
HETATM   22  C   UNK A   0      15.520   2.507  92.932  1.00  0.00     0.252 C 
HETATM   23  O   UNK A   0      16.137   2.828  93.944  1.00  0.00    -0.268 OA
ENDBRANCH  19  22
ENDBRANCH  15  16
ENDBRANCH  11  14
ENDBRANCH   7   8
ENDBRANCH   2   7
TORSDOF 9
ENDMDL
MODEL 9
REMARK VINA RESULT:      -6.2      4.827     10.063
REMARK  9 active torsions:
REMARK  status: ('A' for Active; 'I' for Inactive)
REMARK    1  A    between atoms: N_3  and  C_6 
REMARK    2  A    between atoms: C_6  and  C_9 
REMARK    3  A    between atoms: C_14  and  C_17 
REMARK       I    between atoms: N_26  and  C_15 
REMARK    4  A    between atoms: C_15  and  C_16 
REMARK    5  A    between atoms: C_20  and  C_23 
REMARK    6  A    between atoms: OG1_24  and  CB_28 
REMARK    7  A    between atoms: N_26  and  CA_27 
REMARK    8  A    between atoms: CA_27  and  CB_28 
REMARK    9  A    between atoms: CA_27  and  C_30 
ROOT
HETATM    1  O   UNK A   0      10.139   3.139  88.815  1.00  0.00    -0.388 OA
HETATM    2  N   UNK A   0       9.555   5.662  87.634  1.00  0.00     0.096 N 
HETATM    3  C   UNK A   0       8.764   5.138  88.757  1.00  0.00     0.299 C 
HETATM    4  C   UNK A   0      10.104   4.552  86.843  1.00  0.00     0.299 C 
HETATM    5  C   UNK A   0       9.627   4.211  89.609  1.00  0.00     0.198 C 
HETATM    6  C   UNK A   0      10.934   3.639  87.739  1.00  0.00     0.198 C 
ENDROOT
BRANCH   2   7
HETATM    7  C   UNK A   0       8.744   6.545  86.798  1.00  0.00     0.311 C 
BRANCH   7   8
HETATM    8  C   UNK A   0       8.049   7.599  87.591  1.00  0.00    -0.030 A 
HETATM    9  C   UNK A   0       6.660   7.568  87.723  1.00  0.00     0.010 A 
HETATM   10  C   UNK A   0       6.009   8.555  88.464  1.00  0.00     0.021 A 
HETATM   11  C   UNK A   0       6.747   9.569  89.073  1.00  0.00     0.018 A 
HETATM   12  C   UNK A   0       8.133   9.600  88.941  1.00  0.00     0.021 A 
HETATM   13  C   UNK A   0       8.785   8.615  88.201  1.00  0.00     0.010 A 
BRANCH  11  14
HETATM   14  C   UNK A   0       6.078  10.580  89.834  1.00  0.00    -0.061 C 
HETATM   15  C   UNK A   0       5.516  11.430  90.473  1.00  0.00    -0.061 C 
BRANCH  15  16
HETATM   16  C   UNK A   0       4.848  12.439  91.233  1.00  0.00     0.018 A 
HETATM   17  C   UNK A   0       4.559  13.673  90.650  1.00  0.00     0.022 A 
HETATM   18  C   UNK A   0       3.904  14.657  91.391  1.00  0.00     0.018 A 
HETATM   19  C   UNK A   0       3.553  14.384  92.697  1.00  0.00     0.032 A 
HETATM   20  C   UNK A   0       3.827  13.173  93.296  1.00  0.00     0.018 A 
HETATM   21  C   UNK A   0       4.482  12.188  92.555  1.00  0.00     0.022 A 
BRANCH  19  22
HETATM   22  C   UNK A   0       2.857  15.433  93.486  1.00  0.00     0.252 C 
HETATM   23  O   UNK A   0       1.632  15.511  93.433  1.00  0.00    -0.268 OA
ENDBRANCH  19  22
ENDBRANCH  15  16
ENDBRANCH  11  14
ENDBRANCH   7   8
ENDBRANCH   2   7
TORSDOF 9
ENDMDL
