MODEL 1
REMARK VINA RESULT:      -6.2      0.000      0.000
REMARK  10 active torsions:
REMARK  status: ('A' for Active; 'I' for Inactive)
REMARK    1  A    between atoms: O_2  and  C_18 
REMARK    2  A    between atoms: O_5  and  N_8 
REMARK    3  A    between atoms: N_6  and  C_11 
REMARK    4  A    between atoms: N_7  and  C_15 
REMARK       I    between atoms: N_7  and  C_24 
REMARK       I    between atoms: N_8  and  C_23 
REMARK    5  A    between atoms: C_11  and  C_14 
REMARK    6  A    between atoms: C_15  and  C_18 
REMARK    7  A    between atoms: C_15  and  C_23 
REMARK    8  A    between atoms: C_21  and  C_26 
REMARK    9  A    between atoms: C_24  and  C_25 
REMARK   10  A    between atoms: C_29  and  C_32 
ROOT
HETATM    1  O   UNK     0      16.839   3.708  93.812  0.00  0.00    -0.388 OA
HETATM    2  N   UNK     0      14.216   3.028  92.941  0.00  0.00     0.096 N 
HETATM    3  C   UNK     0      15.275   2.015  93.051  0.00  0.00     0.299 C 
HETATM    4  C   UNK     0      14.805   4.342  92.652  0.00  0.00     0.299 C 
HETATM    5  C   UNK     0      16.279   2.432  94.124  0.00  0.00     0.198 C 
HETATM    6  C   UNK     0      15.819   4.704  93.733  0.00  0.00     0.198 C 
ENDROOT
BRANCH   2   7
HETATM    7  C   UNK     0      13.249   2.655  91.910  0.00  0.00     0.311 C 
BRANCH   7   8
HETATM    8  C   UNK     0      12.139   3.643  91.788  0.00  0.00    -0.030 A 
HETATM    9  C   UNK     0      11.424   4.031  92.922  0.00  0.00     0.010 A 
HETATM   10  C   UNK     0      10.385   4.954  92.809  0.00  0.00     0.021 A 
HETATM   11  C   UNK     0      10.062   5.490  91.562  0.00  0.00     0.018 A 
HETATM   12  C   UNK     0      10.775   5.103  90.429  0.00  0.00     0.021 A 
HETATM   13  C   UNK     0      11.815   4.179  90.542  0.00  0.00     0.010 A 
BRANCH  11  14
HETATM   14  C   UNK     0       8.997   6.438  91.446  0.00  0.00    -0.061 C 
HETATM   15  C   UNK     0       8.102   7.235  91.349  0.00  0.00    -0.061 C 
BRANCH  15  16
HETATM   16  C   UNK     0       7.039   8.182  91.232  0.00  0.00     0.018 A 
HETATM   17  C   UNK     0       7.235   9.503  91.638  0.00  0.00     0.022 A 
HETATM   18  C   UNK     0       6.198  10.429  91.522  0.00  0.00     0.018 A 
HETATM   19  C   UNK     0       4.989  10.014  91.002  0.00  0.00     0.032 A 
HETATM   20  C   UNK     0       4.770   8.715  90.595  0.00  0.00     0.018 A 
HETATM   21  C   UNK     0       5.806   7.789  90.711  0.00  0.00     0.022 A 
BRANCH  19  22
HETATM   22  C   UNK     0       3.884  11.000  90.881  0.00  0.00     0.252 C 
HETATM   23  O   UNK     0       2.973  10.785  90.085  0.00  0.00    -0.268 OA
HETATM   24  N   UNK     0       3.961  12.105  91.718  0.00  0.00    -0.341 N 
HETATM   25  H   UNK     0       4.731  12.203  92.368  0.00  0.00     0.163 HD
BRANCH  24  26
HETATM   26  C   UNK     0       2.954  13.136  91.735  0.00  0.00     0.207 C 
BRANCH  26  27
HETATM   27  C   UNK     0       2.879  13.869  93.080  0.00  0.00     0.146 C 
HETATM   28  C   UNK     0       4.061  13.548  93.988  0.00  0.00     0.042 C 
BRANCH  27  29
HETATM   29  O   UNK     0       2.838  15.278  92.854  0.00  0.00    -0.393 OA
HETATM   30  H   UNK     0       3.660  15.666  93.197  0.00  0.00     0.210 HD
ENDBRANCH  27  29
ENDBRANCH  26  27
BRANCH  26  31
HETATM   31  C   UNK     0       3.256  14.101  90.594  0.00  0.00     0.266 C 
HETATM   32  O   UNK     0       2.442  14.372  89.712  0.00  0.00    -0.269 OA
HETATM   33  N   UNK     0       4.539  14.589  90.652  0.00  0.00    -0.236 N 
HETATM   34  H   UNK     0       5.262  14.319  91.310  0.00  0.00     0.197 HD
BRANCH  33  35
HETATM   35  O   UNK     0       4.910  15.456  89.614  0.00  0.00    -0.287 OA
HETATM   36  H   UNK     0       4.117  16.016  89.563  0.00  0.00     0.244 HD
ENDBRANCH  33  35
ENDBRANCH  26  31
ENDBRANCH  24  26
ENDBRANCH  19  22
ENDBRANCH  15  16
ENDBRANCH  11  14
ENDBRANCH   7   8
ENDBRANCH   2   7
TORSDOF 10
ENDMDL
