MODEL 1
REMARK VINA RESULT:      -6.3      0.000      0.000
REMARK  12 active torsions:
REMARK  status: ('A' for Active; 'I' for Inactive)
REMARK    1  A    between atoms: O_2  and  C_16 
REMARK    2  A    between atoms: N_5  and  C_9 
REMARK    3  A    between atoms: N_6  and  C_13 
REMARK       I    between atoms: N_6  and  C_22 
REMARK    4  A    between atoms: C_9  and  C_12 
REMARK    5  A    between atoms: C_13  and  C_16 
REMARK    6  A    between atoms: C_13  and  C_21 
REMARK    7  A    between atoms: C_19  and  C_24 
REMARK    8  A    between atoms: C_21  and  C_33 
REMARK    9  A    between atoms: C_22  and  C_23 
REMARK   10  A    between atoms: C_27  and  C_30 
REMARK   11  A    between atoms: C_33  and  C_34 
REMARK   12  A    between atoms: C_34  and  C_35 
ROOT
HETATM    1  O   UNL     1      16.377   3.245  93.746  1.00  0.00    -0.350 OA
HETATM    2  N   UNL     1      13.763   2.927  92.663  1.00  0.00     0.147 N 
HETATM    3  C   UNL     1      14.604   1.768  92.993  1.00  0.00     0.283 C 
HETATM    4  C   UNL     1      14.608   4.076  92.309  1.00  0.00     0.283 C 
HETATM    5  C   UNL     1      15.565   2.131  94.123  1.00  0.00     0.178 C 
HETATM    6  C   UNL     1      15.568   4.385  93.453  1.00  0.00     0.178 C 
ENDROOT
BRANCH   2   7
HETATM    7  C   UNL     1      12.842   2.604  91.575  1.00  0.00     0.277 C 
BRANCH   7   8
HETATM    8  C   UNL     1      11.720   3.581  91.473  1.00  0.00     0.011 A 
HETATM    9  C   UNL     1      11.259   3.983  90.219  1.00  0.00    -0.002 A 
HETATM   10  C   UNL     1      10.211   4.899  90.122  1.00  0.00     0.008 A 
HETATM   11  C   UNL     1       9.624   5.410  91.278  1.00  0.00     0.042 A 
HETATM   12  C   UNL     1      10.084   5.010  92.531  1.00  0.00     0.008 A 
HETATM   13  C   UNL     1      11.132   4.095  92.629  1.00  0.00    -0.002 A 
BRANCH  11  14
HETATM   14  C   UNL     1       8.548   6.348  91.179  1.00  0.00    -0.059 C 
HETATM   15  C   UNL     1       7.643   7.135  91.094  1.00  0.00    -0.059 C 
BRANCH  15  16
HETATM   16  C   UNL     1       6.567   8.071  90.995  1.00  0.00     0.042 A 
HETATM   17  C   UNL     1       6.265   8.902  92.075  1.00  0.00     0.008 A 
HETATM   18  C   UNL     1       5.217   9.817  91.976  1.00  0.00     0.005 A 
HETATM   19  C   UNL     1       4.496   9.882  90.803  1.00  0.00     0.056 A 
HETATM   20  C   UNL     1       4.775   9.071  89.722  1.00  0.00     0.005 A 
HETATM   21  C   UNL     1       5.822   8.156  89.819  1.00  0.00     0.008 A 
BRANCH  19  22
HETATM   22  C   UNL     1       3.378  10.855  90.699  1.00  0.00     0.254 C 
HETATM   23  O   UNL     1       2.426  10.600  89.966  1.00  0.00    -0.268 OA
HETATM   24  N   UNL     1       3.492  11.996  91.481  1.00  0.00    -0.335 N 
HETATM   25  HN  UNL     1       4.296  12.128  92.083  1.00  0.00     0.164 HD
BRANCH  24  26
HETATM   26  C   UNL     1       2.479  13.022  91.509  1.00  0.00     0.166 C 
BRANCH  26  27
HETATM   27  C   UNL     1       1.757  13.106  92.860  1.00  0.00     0.138 C 
HETATM   28  C   UNL     1       1.193  11.762  93.306  1.00  0.00     0.034 C 
BRANCH  27  29
HETATM   29  O   UNL     1       2.662  13.582  93.856  1.00  0.00    -0.383 OA
HETATM   30  H   UNL     1       3.567  13.492  93.514  1.00  0.00     0.210 HD
ENDBRANCH  27  29
ENDBRANCH  26  27
BRANCH  26  31
HETATM   31  C   UNL     1       3.148  14.346  91.154  1.00  0.00     0.181 C 
HETATM   32  O   UNL     1       3.019  15.364  91.831  1.00  0.00    -0.294 OA
BRANCH  31  33
HETATM   33  C   UNL     1       4.739  14.169  90.902  1.00  0.00     0.138 C 
BRANCH  33  34
HETATM   34  C   UNL     1       4.834  14.475  89.526  1.00  0.00     0.208 C 
HETATM   35  O   UNL     1       5.138  15.613  89.254  1.00  0.00    -0.289 OA
BRANCH  34  36
HETATM   36  C   UNL     1       4.924  13.651  88.438  1.00  0.00     0.194 C 
HETATM   37  O   UNL     1       5.558  12.412  88.292  1.00  0.00    -0.185 OA
ENDBRANCH  34  36
ENDBRANCH  33  34
ENDBRANCH  31  33
ENDBRANCH  26  31
ENDBRANCH  24  26
ENDBRANCH  19  22
ENDBRANCH  15  16
ENDBRANCH  11  14
ENDBRANCH   7   8
ENDBRANCH   2   7
TORSDOF 12
ENDMDL
MODEL 2
REMARK VINA RESULT:      -5.6      2.398      3.631
REMARK  12 active torsions:
REMARK  status: ('A' for Active; 'I' for Inactive)
REMARK    1  A    between atoms: O_2  and  C_16 
REMARK    2  A    between atoms: N_5  and  C_9 
REMARK    3  A    between atoms: N_6  and  C_13 
REMARK       I    between atoms: N_6  and  C_22 
REMARK    4  A    between atoms: C_9  and  C_12 
REMARK    5  A    between atoms: C_13  and  C_16 
REMARK    6  A    between atoms: C_13  and  C_21 
REMARK    7  A    between atoms: C_19  and  C_24 
REMARK    8  A    between atoms: C_21  and  C_33 
REMARK    9  A    between atoms: C_22  and  C_23 
REMARK   10  A    between atoms: C_27  and  C_30 
REMARK   11  A    between atoms: C_33  and  C_34 
REMARK   12  A    between atoms: C_34  and  C_35 
ROOT
HETATM    1  O   UNL     1      17.417   4.629  93.614  1.00  0.00    -0.350 OA
HETATM    2  N   UNL     1      15.248   2.857  94.124  1.00  0.00     0.147 N 
HETATM    3  C   UNL     1      16.542   2.365  93.631  1.00  0.00     0.283 C 
HETATM    4  C   UNL     1      15.024   4.234  93.662  1.00  0.00     0.283 C 
HETATM    5  C   UNL     1      17.659   3.301  94.086  1.00  0.00     0.178 C 
HETATM    6  C   UNL     1      16.176   5.126  94.115  1.00  0.00     0.178 C 
ENDROOT
BRANCH   2   7
HETATM    7  C   UNL     1      14.162   1.980  93.691  1.00  0.00     0.277 C 
BRANCH   7   8
HETATM    8  C   UNL     1      13.092   2.719  92.961  1.00  0.00     0.011 A 
HETATM    9  C   UNL     1      12.900   2.498  91.596  1.00  0.00    -0.002 A 
HETATM   10  C   UNL     1      11.902   3.190  90.912  1.00  0.00     0.008 A 
HETATM   11  C   UNL     1      11.094   4.101  91.592  1.00  0.00     0.042 A 
HETATM   12  C   UNL     1      11.285   4.322  92.954  1.00  0.00     0.008 A 
HETATM   13  C   UNL     1      12.284   3.631  93.639  1.00  0.00    -0.002 A 
BRANCH  11  14
HETATM   14  C   UNL     1      10.068   4.809  90.890  1.00  0.00    -0.059 C 
HETATM   15  C   UNL     1       9.206   5.404  90.301  1.00  0.00    -0.059 C 
BRANCH  15  16
HETATM   16  C   UNL     1       8.181   6.113  89.600  1.00  0.00     0.042 A 
HETATM   17  C   UNL     1       8.455   6.688  88.359  1.00  0.00     0.008 A 
HETATM   18  C   UNL     1       7.454   7.376  87.674  1.00  0.00     0.005 A 
HETATM   19  C   UNL     1       6.202   7.474  88.244  1.00  0.00     0.056 A 
HETATM   20  C   UNL     1       5.906   6.915  89.470  1.00  0.00     0.005 A 
HETATM   21  C   UNL     1       6.906   6.226  90.156  1.00  0.00     0.008 A 
BRANCH  19  22
HETATM   22  C   UNL     1       5.136   8.209  87.515  1.00  0.00     0.254 C 
HETATM   23  O   UNL     1       5.069   8.112  86.293  1.00  0.00    -0.268 OA
HETATM   24  N   UNL     1       4.263   8.950  88.300  1.00  0.00    -0.335 N 
HETATM   25  HN  UNL     1       4.365   8.963  89.308  1.00  0.00     0.164 HD
BRANCH  24  26
HETATM   26  C   UNL     1       3.164   9.697  87.743  1.00  0.00     0.166 C 
BRANCH  26  27
HETATM   27  C   UNL     1       1.797   9.114  88.123  1.00  0.00     0.138 C 
HETATM   28  C   UNL     1       1.439   7.880  87.302  1.00  0.00     0.034 C 
BRANCH  27  29
HETATM   29  O   UNL     1       1.794   8.767  89.508  1.00  0.00    -0.383 OA
HETATM   30  H   UNL     1       1.364   9.486  90.001  1.00  0.00     0.210 HD
ENDBRANCH  27  29
ENDBRANCH  26  27
BRANCH  26  31
HETATM   31  C   UNL     1       3.300  11.143  88.210  1.00  0.00     0.181 C 
HETATM   32  O   UNL     1       2.332  11.871  88.422  1.00  0.00    -0.294 OA
BRANCH  31  33
HETATM   33  C   UNL     1       4.255  11.267  89.514  1.00  0.00     0.138 C 
BRANCH  33  34
HETATM   34  C   UNL     1       5.264  12.130  89.032  1.00  0.00     0.208 C 
HETATM   35  O   UNL     1       6.303  11.605  88.706  1.00  0.00    -0.289 OA
BRANCH  34  36
HETATM   36  C   UNL     1       5.190  13.425  88.595  1.00  0.00     0.194 C 
HETATM   37  O   UNL     1       5.345  14.626  89.296  1.00  0.00    -0.185 OA
ENDBRANCH  34  36
ENDBRANCH  33  34
ENDBRANCH  31  33
ENDBRANCH  26  31
ENDBRANCH  24  26
ENDBRANCH  19  22
ENDBRANCH  15  16
ENDBRANCH  11  14
ENDBRANCH   7   8
ENDBRANCH   2   7
TORSDOF 12
ENDMDL
MODEL 3
REMARK VINA RESULT:      -5.3      1.256      1.942
REMARK  12 active torsions:
REMARK  status: ('A' for Active; 'I' for Inactive)
REMARK    1  A    between atoms: O_2  and  C_16 
REMARK    2  A    between atoms: N_5  and  C_9 
REMARK    3  A    between atoms: N_6  and  C_13 
REMARK       I    between atoms: N_6  and  C_22 
REMARK    4  A    between atoms: C_9  and  C_12 
REMARK    5  A    between atoms: C_13  and  C_16 
REMARK    6  A    between atoms: C_13  and  C_21 
REMARK    7  A    between atoms: C_19  and  C_24 
REMARK    8  A    between atoms: C_21  and  C_33 
REMARK    9  A    between atoms: C_22  and  C_23 
REMARK   10  A    between atoms: C_27  and  C_30 
REMARK   11  A    between atoms: C_33  and  C_34 
REMARK   12  A    between atoms: C_34  and  C_35 
ROOT
HETATM    1  O   UNL     1      16.994   3.794  94.124  1.00  0.00    -0.350 OA
HETATM    2  N   UNL     1      14.647   3.148  92.649  1.00  0.00     0.147 N 
HETATM    3  C   UNL     1      14.621   4.131  93.741  1.00  0.00     0.283 C 
HETATM    4  C   UNL     1      15.700   2.152  92.893  1.00  0.00     0.283 C 
HETATM    5  C   UNL     1      15.994   4.785  93.880  1.00  0.00     0.178 C 
HETATM    6  C   UNL     1      17.046   2.851  93.052  1.00  0.00     0.178 C 
ENDROOT
BRANCH   2   7
HETATM    7  C   UNL     1      13.344   2.501  92.505  1.00  0.00     0.277 C 
BRANCH   7   8
HETATM    8  C   UNL     1      12.227   3.485  92.425  1.00  0.00     0.011 A 
HETATM    9  C   UNL     1      11.749   3.896  91.181  1.00  0.00    -0.002 A 
HETATM   10  C   UNL     1      10.705   4.819  91.105  1.00  0.00     0.008 A 
HETATM   11  C   UNL     1      10.139   5.327  92.274  1.00  0.00     0.042 A 
HETATM   12  C   UNL     1      10.616   4.917  93.517  1.00  0.00     0.008 A 
HETATM   13  C   UNL     1      11.660   3.995  93.593  1.00  0.00    -0.002 A 
BRANCH  11  14
HETATM   14  C   UNL     1       9.067   6.272  92.196  1.00  0.00    -0.059 C 
HETATM   15  C   UNL     1       8.167   7.066  92.131  1.00  0.00    -0.059 C 
BRANCH  15  16
HETATM   16  C   UNL     1       7.096   8.010  92.054  1.00  0.00     0.042 A 
HETATM   17  C   UNL     1       6.122   7.879  91.063  1.00  0.00     0.008 A 
HETATM   18  C   UNL     1       5.076   8.799  90.990  1.00  0.00     0.005 A 
HETATM   19  C   UNL     1       5.027   9.828  91.907  1.00  0.00     0.056 A 
HETATM   20  C   UNL     1       5.978   9.979  92.895  1.00  0.00     0.005 A 
HETATM   21  C   UNL     1       7.024   9.060  92.970  1.00  0.00     0.008 A 
BRANCH  19  22
HETATM   22  C   UNL     1       3.914  10.809  91.827  1.00  0.00     0.254 C 
HETATM   23  O   UNL     1       2.768  10.437  92.070  1.00  0.00    -0.268 OA
HETATM   24  N   UNL     1       4.272  12.109  91.499  1.00  0.00    -0.335 N 
HETATM   25  HN  UNL     1       5.243  12.348  91.336  1.00  0.00     0.164 HD
BRANCH  24  26
HETATM   26  C   UNL     1       3.310  13.178  91.406  1.00  0.00     0.166 C 
BRANCH  26  27
HETATM   27  C   UNL     1       3.193  13.985  92.705  1.00  0.00     0.138 C 
HETATM   28  C   UNL     1       4.491  14.696  93.070  1.00  0.00     0.034 C 
BRANCH  27  29
HETATM   29  O   UNL     1       2.154  14.955  92.572  1.00  0.00    -0.383 OA
HETATM   30  H   UNL     1       1.477  14.596  91.975  1.00  0.00     0.210 HD
ENDBRANCH  27  29
ENDBRANCH  26  27
BRANCH  26  31
HETATM   31  C   UNL     1       3.714  14.068  90.235  1.00  0.00     0.181 C 
HETATM   32  O   UNL     1       3.803  15.291  90.323  1.00  0.00    -0.294 OA
BRANCH  31  33
HETATM   33  C   UNL     1       5.090  13.563  89.542  1.00  0.00     0.138 C 
BRANCH  33  34
HETATM   34  C   UNL     1       4.610  13.067  88.310  1.00  0.00     0.208 C 
HETATM   35  O   UNL     1       5.054  13.593  87.315  1.00  0.00    -0.289 OA
BRANCH  34  36
HETATM   36  C   UNL     1       3.948  11.906  88.019  1.00  0.00     0.194 C 
HETATM   37  O   UNL     1       2.870  11.293  88.667  1.00  0.00    -0.185 OA
ENDBRANCH  34  36
ENDBRANCH  33  34
ENDBRANCH  31  33
ENDBRANCH  26  31
ENDBRANCH  24  26
ENDBRANCH  19  22
ENDBRANCH  15  16
ENDBRANCH  11  14
ENDBRANCH   7   8
ENDBRANCH   2   7
TORSDOF 12
ENDMDL
MODEL 4
REMARK VINA RESULT:      -3.6      2.260     12.828
REMARK  12 active torsions:
REMARK  status: ('A' for Active; 'I' for Inactive)
REMARK    1  A    between atoms: O_2  and  C_16 
REMARK    2  A    between atoms: N_5  and  C_9 
REMARK    3  A    between atoms: N_6  and  C_13 
REMARK       I    between atoms: N_6  and  C_22 
REMARK    4  A    between atoms: C_9  and  C_12 
REMARK    5  A    between atoms: C_13  and  C_16 
REMARK    6  A    between atoms: C_13  and  C_21 
REMARK    7  A    between atoms: C_19  and  C_24 
REMARK    8  A    between atoms: C_21  and  C_33 
REMARK    9  A    between atoms: C_22  and  C_23 
REMARK   10  A    between atoms: C_27  and  C_30 
REMARK   11  A    between atoms: C_33  and  C_34 
REMARK   12  A    between atoms: C_34  and  C_35 
ROOT
HETATM    1  O   UNL     1       1.837  13.588  93.990  1.00  0.00    -0.350 OA
HETATM    2  N   UNL     1       2.085  13.643  91.155  1.00  0.00     0.147 N 
HETATM    3  C   UNL     1       2.025  12.375  91.897  1.00  0.00     0.283 C 
HETATM    4  C   UNL     1       2.674  14.692  91.999  1.00  0.00     0.283 C 
HETATM    5  C   UNL     1       1.236  12.569  93.189  1.00  0.00     0.178 C 
HETATM    6  C   UNL     1       1.871  14.831  93.288  1.00  0.00     0.178 C 
ENDROOT
BRANCH   2   7
HETATM    7  C   UNL     1       2.846  13.482  89.918  1.00  0.00     0.277 C 
BRANCH   7   8
HETATM    8  C   UNL     1       3.814  12.350  89.988  1.00  0.00     0.011 A 
HETATM    9  C   UNL     1       5.114  12.573  90.442  1.00  0.00    -0.002 A 
HETATM   10  C   UNL     1       6.021  11.515  90.507  1.00  0.00     0.008 A 
HETATM   11  C   UNL     1       5.626  10.235  90.119  1.00  0.00     0.042 A 
HETATM   12  C   UNL     1       4.328  10.012  89.666  1.00  0.00     0.008 A 
HETATM   13  C   UNL     1       3.421  11.069  89.600  1.00  0.00    -0.002 A 
BRANCH  11  14
HETATM   14  C   UNL     1       6.556   9.150  90.187  1.00  0.00    -0.059 C 
HETATM   15  C   UNL     1       7.337   8.238  90.244  1.00  0.00    -0.059 C 
BRANCH  15  16
HETATM   16  C   UNL     1       8.267   7.154  90.312  1.00  0.00     0.042 A 
HETATM   17  C   UNL     1       8.686   6.521  89.141  1.00  0.00     0.008 A 
HETATM   18  C   UNL     1       9.595   5.465  89.208  1.00  0.00     0.005 A 
HETATM   19  C   UNL     1      10.065   5.066  90.441  1.00  0.00     0.056 A 
HETATM   20  C   UNL     1       9.665   5.675  91.613  1.00  0.00     0.005 A 
HETATM   21  C   UNL     1       8.756   6.731  91.548  1.00  0.00     0.008 A 
BRANCH  19  22
HETATM   22  C   UNL     1      11.031   3.940  90.512  1.00  0.00     0.254 C 
HETATM   23  O   UNL     1      10.749   2.873  89.972  1.00  0.00    -0.268 OA
HETATM   24  N   UNL     1      12.220   4.200  91.180  1.00  0.00    -0.335 N 
HETATM   25  HN  UNL     1      12.394   5.115  91.580  1.00  0.00     0.164 HD
BRANCH  24  26
HETATM   26  C   UNL     1      13.266   3.218  91.312  1.00  0.00     0.166 C 
BRANCH  26  27
HETATM   27  C   UNL     1      14.628   3.733  90.828  1.00  0.00     0.138 C 
HETATM   28  C   UNL     1      15.123   2.996  89.589  1.00  0.00     0.034 C 
BRANCH  27  29
HETATM   29  O   UNL     1      14.533   5.126  90.532  1.00  0.00    -0.383 OA
HETATM   30  H   UNL     1      13.764   5.487  91.005  1.00  0.00     0.210 HD
ENDBRANCH  27  29
ENDBRANCH  26  27
BRANCH  26  31
HETATM   31  C   UNL     1      13.323   2.791  92.775  1.00  0.00     0.181 C 
HETATM   32  O   UNL     1      13.982   1.830  93.167  1.00  0.00    -0.294 OA
BRANCH  31  33
HETATM   33  C   UNL     1      13.706   4.029  93.749  1.00  0.00     0.138 C 
BRANCH  33  34
HETATM   34  C   UNL     1      15.116   3.959  93.740  1.00  0.00     0.208 C 
HETATM   35  O   UNL     1      15.702   5.011  93.628  1.00  0.00    -0.289 OA
BRANCH  34  36
HETATM   36  C   UNL     1      15.957   2.948  94.119  1.00  0.00     0.194 C 
HETATM   37  O   UNL     1      17.354   2.875  94.091  1.00  0.00    -0.185 OA
ENDBRANCH  34  36
ENDBRANCH  33  34
ENDBRANCH  31  33
ENDBRANCH  26  31
ENDBRANCH  24  26
ENDBRANCH  19  22
ENDBRANCH  15  16
ENDBRANCH  11  14
ENDBRANCH   7   8
ENDBRANCH   2   7
TORSDOF 12
ENDMDL
