MODEL 1
REMARK VINA RESULT:      -7.0      0.000      0.000
REMARK  10 active torsions:
REMARK  status: ('A' for Active; 'I' for Inactive)
REMARK    1  A    between atoms: O_2  and  C_18 
REMARK    2  A    between atoms: O_5  and  N_8 
REMARK    3  A    between atoms: N_6  and  C_11 
REMARK    4  A    between atoms: N_7  and  C_15 
REMARK       I    between atoms: N_7  and  C_24 
REMARK       I    between atoms: N_8  and  C_23 
REMARK    5  A    between atoms: C_11  and  C_14 
REMARK    6  A    between atoms: C_15  and  C_18 
REMARK    7  A    between atoms: C_15  and  C_23 
REMARK    8  A    between atoms: C_21  and  C_26 
REMARK    9  A    between atoms: C_24  and  C_25 
REMARK   10  A    between atoms: C_29  and  C_32 
ROOT
HETATM    1  O   UNK     0      16.444   4.261  94.123  0.00  0.00    -0.388 OA
HETATM    2  N   UNK     0      14.742   2.593  92.565  0.00  0.00     0.096 N 
HETATM    3  C   UNK     0      14.595   4.055  92.563  0.00  0.00     0.299 C 
HETATM    4  C   UNK     0      15.290   2.144  93.852  0.00  0.00     0.299 C 
HETATM    5  C   UNK     0      15.941   4.711  92.863  0.00  0.00     0.198 C 
HETATM    6  C   UNK     0      16.619   2.844  94.122  0.00  0.00     0.198 C 
ENDROOT
BRANCH   2   7
HETATM    7  C   UNK     0      13.462   1.944  92.291  0.00  0.00     0.311 C 
BRANCH   7   8
HETATM    8  C   UNK     0      12.390   2.923  91.950  0.00  0.00    -0.030 A 
HETATM    9  C   UNK     0      12.364   3.515  90.687  0.00  0.00     0.010 A 
HETATM   10  C   UNK     0      11.363   4.433  90.368  0.00  0.00     0.021 A 
HETATM   11  C   UNK     0      10.388   4.756  91.311  0.00  0.00     0.018 A 
HETATM   12  C   UNK     0      10.413   4.165  92.573  0.00  0.00     0.021 A 
HETATM   13  C   UNK     0      11.415   3.248  92.892  0.00  0.00     0.010 A 
BRANCH  11  14
HETATM   14  C   UNK     0       9.360   5.695  90.983  0.00  0.00    -0.061 C 
HETATM   15  C   UNK     0       8.496   6.485  90.708  0.00  0.00    -0.061 C 
BRANCH  15  16
HETATM   16  C   UNK     0       7.469   7.422  90.380  0.00  0.00     0.018 A 
HETATM   17  C   UNK     0       7.801   8.641  89.785  0.00  0.00     0.022 A 
HETATM   18  C   UNK     0       6.799   9.555  89.463  0.00  0.00     0.018 A 
HETATM   19  C   UNK     0       5.487   9.232  89.741  0.00  0.00     0.032 A 
HETATM   20  C   UNK     0       5.132   8.035  90.328  0.00  0.00     0.018 A 
HETATM   21  C   UNK     0       6.135   7.121  90.651  0.00  0.00     0.022 A 
BRANCH  19  22
HETATM   22  C   UNK     0       4.419  10.207  89.400  0.00  0.00     0.252 C 
HETATM   23  O   UNK     0       3.573   9.901  88.564  0.00  0.00    -0.268 OA
HETATM   24  N   UNK     0       4.452  11.411  90.090  0.00  0.00    -0.341 N 
HETATM   25  H   UNK     0       5.168  11.584  90.786  0.00  0.00     0.163 HD
BRANCH  24  26
HETATM   26  C   UNK     0       3.472  12.447  89.888  0.00  0.00     0.207 C 
BRANCH  26  27
HETATM   27  C   UNK     0       3.081  13.156  91.191  0.00  0.00     0.146 C 
HETATM   28  C   UNK     0       2.042  12.378  91.990  0.00  0.00     0.042 C 
BRANCH  27  29
HETATM   29  O   UNK     0       4.242  13.345  91.999  0.00  0.00    -0.393 OA
HETATM   30  H   UNK     0       5.009  12.990  91.518  0.00  0.00     0.210 HD
ENDBRANCH  27  29
ENDBRANCH  26  27
BRANCH  26  31
HETATM   31  C   UNK     0       4.038  13.432  88.869  0.00  0.00     0.266 C 
HETATM   32  O   UNK     0       4.153  14.635  89.094  0.00  0.00    -0.269 OA
HETATM   33  N   UNK     0       4.359  12.821  87.681  0.00  0.00    -0.236 N 
HETATM   34  H   UNK     0       4.194  11.853  87.432  0.00  0.00     0.197 HD
BRANCH  33  35
HETATM   35  O   UNK     0       4.851  13.665  86.676  0.00  0.00    -0.287 OA
HETATM   36  H   UNK     0       5.752  13.824  87.007  0.00  0.00     0.244 HD
ENDBRANCH  33  35
ENDBRANCH  26  31
ENDBRANCH  24  26
ENDBRANCH  19  22
ENDBRANCH  15  16
ENDBRANCH  11  14
ENDBRANCH   7   8
ENDBRANCH   2   7
TORSDOF 10
ENDMDL
MODEL 2
REMARK VINA RESULT:      -6.9      0.557      1.482
REMARK  10 active torsions:
REMARK  status: ('A' for Active; 'I' for Inactive)
REMARK    1  A    between atoms: O_2  and  C_18 
REMARK    2  A    between atoms: O_5  and  N_8 
REMARK    3  A    between atoms: N_6  and  C_11 
REMARK    4  A    between atoms: N_7  and  C_15 
REMARK       I    between atoms: N_7  and  C_24 
REMARK       I    between atoms: N_8  and  C_23 
REMARK    5  A    between atoms: C_11  and  C_14 
REMARK    6  A    between atoms: C_15  and  C_18 
REMARK    7  A    between atoms: C_15  and  C_23 
REMARK    8  A    between atoms: C_21  and  C_26 
REMARK    9  A    between atoms: C_24  and  C_25 
REMARK   10  A    between atoms: C_29  and  C_32 
ROOT
HETATM    1  O   UNK     0      17.059   4.086  93.862  0.00  0.00    -0.388 OA
HETATM    2  N   UNK     0      14.616   2.737  93.303  0.00  0.00     0.096 N 
HETATM    3  C   UNK     0      15.914   2.063  93.165  0.00  0.00     0.299 C 
HETATM    4  C   UNK     0      14.770   4.178  93.065  0.00  0.00     0.299 C 
HETATM    5  C   UNK     0      16.925   2.687  94.123  0.00  0.00     0.198 C 
HETATM    6  C   UNK     0      15.808   4.754  94.024  0.00  0.00     0.198 C 
ENDROOT
BRANCH   2   7
HETATM    7  C   UNK     0      13.634   2.161  92.386  0.00  0.00     0.311 C 
BRANCH   7   8
HETATM    8  C   UNK     0      12.516   3.102  92.087  0.00  0.00    -0.030 A 
HETATM    9  C   UNK     0      11.680   3.539  93.114  0.00  0.00     0.010 A 
HETATM   10  C   UNK     0      10.633   4.418  92.835  0.00  0.00     0.021 A 
HETATM   11  C   UNK     0      10.425   4.859  91.528  0.00  0.00     0.018 A 
HETATM   12  C   UNK     0      11.260   4.423  90.502  0.00  0.00     0.021 A 
HETATM   13  C   UNK     0      12.306   3.544  90.781  0.00  0.00     0.010 A 
BRANCH  11  14
HETATM   14  C   UNK     0       9.352   5.762  91.242  0.00  0.00    -0.061 C 
HETATM   15  C   UNK     0       8.451   6.520  91.002  0.00  0.00    -0.061 C 
BRANCH  15  16
HETATM   16  C   UNK     0       7.380   7.421  90.714  0.00  0.00     0.018 A 
HETATM   17  C   UNK     0       6.325   7.561  91.618  0.00  0.00     0.022 A 
HETATM   18  C   UNK     0       5.281   8.442  91.339  0.00  0.00     0.018 A 
HETATM   19  C   UNK     0       5.313   9.164  90.164  0.00  0.00     0.032 A 
HETATM   20  C   UNK     0       6.343   9.044  89.255  0.00  0.00     0.018 A 
HETATM   21  C   UNK     0       7.388   8.163  89.533  0.00  0.00     0.022 A 
BRANCH  19  22
HETATM   22  C   UNK     0       4.199  10.102  89.867  0.00  0.00     0.252 C 
HETATM   23  O   UNK     0       3.125   9.651  89.476  0.00  0.00    -0.268 OA
HETATM   24  N   UNK     0       4.462  11.447  90.084  0.00  0.00    -0.341 N 
HETATM   25  H   UNK     0       5.366  11.743  90.433  0.00  0.00     0.163 HD
BRANCH  24  26
HETATM   26  C   UNK     0       3.477  12.475  89.865  0.00  0.00     0.207 C 
BRANCH  26  27
HETATM   27  C   UNK     0       3.036  13.162  91.164  0.00  0.00     0.146 C 
HETATM   28  C   UNK     0       2.338  12.204  92.123  0.00  0.00     0.042 C 
BRANCH  27  29
HETATM   29  O   UNK     0       4.175  13.723  91.817  0.00  0.00    -0.393 OA
HETATM   30  H   UNK     0       4.310  14.622  91.474  0.00  0.00     0.210 HD
ENDBRANCH  27  29
ENDBRANCH  26  27
BRANCH  26  31
HETATM   31  C   UNK     0       4.062  13.479  88.878  0.00  0.00     0.266 C 
HETATM   32  O   UNK     0       4.161  14.680  89.123  0.00  0.00    -0.269 OA
HETATM   33  N   UNK     0       4.421  12.890  87.690  0.00  0.00    -0.236 N 
HETATM   34  H   UNK     0       4.272  11.924  87.422  0.00  0.00     0.197 HD
BRANCH  33  35
HETATM   35  O   UNK     0       4.934  13.753  86.711  0.00  0.00    -0.287 OA
HETATM   36  H   UNK     0       4.142  13.888  86.164  0.00  0.00     0.244 HD
ENDBRANCH  33  35
ENDBRANCH  26  31
ENDBRANCH  24  26
ENDBRANCH  19  22
ENDBRANCH  15  16
ENDBRANCH  11  14
ENDBRANCH   7   8
ENDBRANCH   2   7
TORSDOF 10
ENDMDL
MODEL 3
REMARK VINA RESULT:      -6.1      2.731     12.821
REMARK  10 active torsions:
REMARK  status: ('A' for Active; 'I' for Inactive)
REMARK    1  A    between atoms: O_2  and  C_18 
REMARK    2  A    between atoms: O_5  and  N_8 
REMARK    3  A    between atoms: N_6  and  C_11 
REMARK    4  A    between atoms: N_7  and  C_15 
REMARK       I    between atoms: N_7  and  C_24 
REMARK       I    between atoms: N_8  and  C_23 
REMARK    5  A    between atoms: C_11  and  C_14 
REMARK    6  A    between atoms: C_15  and  C_18 
REMARK    7  A    between atoms: C_15  and  C_23 
REMARK    8  A    between atoms: C_21  and  C_26 
REMARK    9  A    between atoms: C_24  and  C_25 
REMARK   10  A    between atoms: C_29  and  C_32 
ROOT
HETATM    1  O   UNK     0       1.795  15.522  93.128  0.00  0.00    -0.388 OA
HETATM    2  N   UNK     0       3.486  13.687  91.759  0.00  0.00     0.096 N 
HETATM    3  C   UNK     0       3.943  15.039  92.108  0.00  0.00     0.299 C 
HETATM    4  C   UNK     0       2.030  13.683  91.563  0.00  0.00     0.299 C 
HETATM    5  C   UNK     0       3.206  15.529  93.352  0.00  0.00     0.198 C 
HETATM    6  C   UNK     0       1.337  14.205  92.818  0.00  0.00     0.198 C 
ENDROOT
BRANCH   2   7
HETATM    7  C   UNK     0       4.172  13.201  90.563  0.00  0.00     0.311 C 
BRANCH   7   8
HETATM    8  C   UNK     0       5.098  12.071  90.859  0.00  0.00    -0.030 A 
HETATM    9  C   UNK     0       5.796  11.451  89.821  0.00  0.00     0.010 A 
HETATM   10  C   UNK     0       6.660  10.392  90.096  0.00  0.00     0.021 A 
HETATM   11  C   UNK     0       6.828   9.954  91.410  0.00  0.00     0.018 A 
HETATM   12  C   UNK     0       6.133  10.572  92.447  0.00  0.00     0.021 A 
HETATM   13  C   UNK     0       5.267  11.631  92.172  0.00  0.00     0.010 A 
BRANCH  11  14
HETATM   14  C   UNK     0       7.717   8.869  91.692  0.00  0.00    -0.061 C 
HETATM   15  C   UNK     0       8.464   7.957  91.929  0.00  0.00    -0.061 C 
BRANCH  15  16
HETATM   16  C   UNK     0       9.350   6.873  92.212  0.00  0.00     0.018 A 
HETATM   17  C   UNK     0       9.782   6.649  93.520  0.00  0.00     0.022 A 
HETATM   18  C   UNK     0      10.646   5.589  93.797  0.00  0.00     0.018 A 
HETATM   19  C   UNK     0      11.058   4.777  92.761  0.00  0.00     0.032 A 
HETATM   20  C   UNK     0      10.646   4.977  91.461  0.00  0.00     0.018 A 
HETATM   21  C   UNK     0       9.783   6.037  91.183  0.00  0.00     0.022 A 
BRANCH  19  22
HETATM   22  C   UNK     0      11.980   3.650  93.057  0.00  0.00     0.252 C 
HETATM   23  O   UNK     0      11.620   2.501  92.810  0.00  0.00    -0.268 OA
HETATM   24  N   UNK     0      13.217   3.997  93.580  0.00  0.00    -0.341 N 
HETATM   25  H   UNK     0      13.454   4.970  93.734  0.00  0.00     0.163 HD
BRANCH  24  26
HETATM   26  C   UNK     0      14.228   3.020  93.895  0.00  0.00     0.207 C 
BRANCH  26  27
HETATM   27  C   UNK     0      14.236   1.837  92.918  0.00  0.00     0.146 C 
HETATM   28  C   UNK     0      14.985   2.151  91.628  0.00  0.00     0.042 C 
BRANCH  27  29
HETATM   29  O   UNK     0      14.842   0.706  93.543  0.00  0.00    -0.393 OA
HETATM   30  H   UNK     0      15.807   0.819  93.507  0.00  0.00     0.210 HD
ENDBRANCH  27  29
ENDBRANCH  26  27
BRANCH  26  31
HETATM   31  C   UNK     0      15.576   3.733  93.913  0.00  0.00     0.266 C 
HETATM   32  O   UNK     0      15.687   4.956  93.856  0.00  0.00    -0.269 OA
HETATM   33  N   UNK     0      16.629   2.852  93.962  0.00  0.00    -0.236 N 
HETATM   34  H   UNK     0      16.576   1.840  93.920  0.00  0.00     0.197 HD
BRANCH  33  35
HETATM   35  O   UNK     0      17.907   3.427  93.943  0.00  0.00    -0.287 OA
HETATM   36  H   UNK     0      17.678   4.366  94.045  0.00  0.00     0.244 HD
ENDBRANCH  33  35
ENDBRANCH  26  31
ENDBRANCH  24  26
ENDBRANCH  19  22
ENDBRANCH  15  16
ENDBRANCH  11  14
ENDBRANCH   7   8
ENDBRANCH   2   7
TORSDOF 10
ENDMDL
MODEL 4
REMARK VINA RESULT:      -6.0      1.790      2.078
REMARK  10 active torsions:
REMARK  status: ('A' for Active; 'I' for Inactive)
REMARK    1  A    between atoms: O_2  and  C_18 
REMARK    2  A    between atoms: O_5  and  N_8 
REMARK    3  A    between atoms: N_6  and  C_11 
REMARK    4  A    between atoms: N_7  and  C_15 
REMARK       I    between atoms: N_7  and  C_24 
REMARK       I    between atoms: N_8  and  C_23 
REMARK    5  A    between atoms: C_11  and  C_14 
REMARK    6  A    between atoms: C_15  and  C_18 
REMARK    7  A    between atoms: C_15  and  C_23 
REMARK    8  A    between atoms: C_21  and  C_26 
REMARK    9  A    between atoms: C_24  and  C_25 
REMARK   10  A    between atoms: C_29  and  C_32 
ROOT
HETATM    1  O   UNK     0      16.480   4.401  94.063  0.00  0.00    -0.388 OA
HETATM    2  N   UNK     0      14.744   2.860  92.417  0.00  0.00     0.096 N 
HETATM    3  C   UNK     0      14.759   4.328  92.354  0.00  0.00     0.299 C 
HETATM    4  C   UNK     0      15.129   2.409  93.761  0.00  0.00     0.299 C 
HETATM    5  C   UNK     0      16.138   4.848  92.750  0.00  0.00     0.198 C 
HETATM    6  C   UNK     0      16.499   2.975  94.124  0.00  0.00     0.198 C 
ENDROOT
BRANCH   2   7
HETATM    7  C   UNK     0      13.428   2.339  92.051  0.00  0.00     0.311 C 
BRANCH   7   8
HETATM    8  C   UNK     0      12.364   3.382  92.124  0.00  0.00    -0.030 A 
HETATM    9  C   UNK     0      11.716   3.798  90.961  0.00  0.00     0.010 A 
HETATM   10  C   UNK     0      10.723   4.775  91.028  0.00  0.00     0.021 A 
HETATM   11  C   UNK     0      10.377   5.333  92.258  0.00  0.00     0.018 A 
HETATM   12  C   UNK     0      11.023   4.918  93.420  0.00  0.00     0.021 A 
HETATM   13  C   UNK     0      12.017   3.941  93.354  0.00  0.00     0.010 A 
BRANCH  11  14
HETATM   14  C   UNK     0       9.356   6.333  92.327  0.00  0.00    -0.061 C 
HETATM   15  C   UNK     0       8.499   7.174  92.385  0.00  0.00    -0.061 C 
BRANCH  15  16
HETATM   16  C   UNK     0       7.479   8.172  92.454  0.00  0.00     0.018 A 
HETATM   17  C   UNK     0       7.741   9.395  93.074  0.00  0.00     0.022 A 
HETATM   18  C   UNK     0       6.746  10.370  93.139  0.00  0.00     0.018 A 
HETATM   19  C   UNK     0       5.512  10.102  92.584  0.00  0.00     0.032 A 
HETATM   20  C   UNK     0       5.228   8.903  91.966  0.00  0.00     0.018 A 
HETATM   21  C   UNK     0       6.222   7.927  91.901  0.00  0.00     0.022 A 
BRANCH  19  22
HETATM   22  C   UNK     0       4.452  11.141  92.655  0.00  0.00     0.252 C 
HETATM   23  O   UNK     0       3.642  11.109  93.579  0.00  0.00    -0.268 OA
HETATM   24  N   UNK     0       4.477  12.106  91.658  0.00  0.00    -0.341 N 
HETATM   25  H   UNK     0       5.192  12.083  90.940  0.00  0.00     0.163 HD
BRANCH  24  26
HETATM   26  C   UNK     0       3.531  13.191  91.604  0.00  0.00     0.207 C 
BRANCH  26  27
HETATM   27  C   UNK     0       3.946  14.383  92.477  0.00  0.00     0.146 C 
HETATM   28  C   UNK     0       4.602  15.497  91.669  0.00  0.00     0.042 C 
BRANCH  27  29
HETATM   29  O   UNK     0       2.799  14.908  93.144  0.00  0.00    -0.393 OA
HETATM   30  H   UNK     0       3.102  15.466  93.879  0.00  0.00     0.210 HD
ENDBRANCH  27  29
ENDBRANCH  26  27
BRANCH  26  31
HETATM   31  C   UNK     0       3.375  13.601  90.144  0.00  0.00     0.266 C 
HETATM   32  O   UNK     0       2.414  14.247  89.729  0.00  0.00    -0.269 OA
HETATM   33  N   UNK     0       4.401  13.133  89.360  0.00  0.00    -0.236 N 
HETATM   34  H   UNK     0       5.158  12.525  89.651  0.00  0.00     0.197 HD
BRANCH  33  35
HETATM   35  O   UNK     0       4.312  13.435  87.994  0.00  0.00    -0.287 OA
HETATM   36  H   UNK     0       4.440  12.550  87.611  0.00  0.00     0.244 HD
ENDBRANCH  33  35
ENDBRANCH  26  31
ENDBRANCH  24  26
ENDBRANCH  19  22
ENDBRANCH  15  16
ENDBRANCH  11  14
ENDBRANCH   7   8
ENDBRANCH   2   7
TORSDOF 10
ENDMDL
MODEL 5
REMARK VINA RESULT:      -5.0      2.075     12.350
REMARK  10 active torsions:
REMARK  status: ('A' for Active; 'I' for Inactive)
REMARK    1  A    between atoms: O_2  and  C_18 
REMARK    2  A    between atoms: O_5  and  N_8 
REMARK    3  A    between atoms: N_6  and  C_11 
REMARK    4  A    between atoms: N_7  and  C_15 
REMARK       I    between atoms: N_7  and  C_24 
REMARK       I    between atoms: N_8  and  C_23 
REMARK    5  A    between atoms: C_11  and  C_14 
REMARK    6  A    between atoms: C_15  and  C_18 
REMARK    7  A    between atoms: C_15  and  C_23 
REMARK    8  A    between atoms: C_21  and  C_26 
REMARK    9  A    between atoms: C_24  and  C_25 
REMARK   10  A    between atoms: C_29  and  C_32 
ROOT
HETATM    1  O   UNK     0       5.441  14.770  88.621  0.00  0.00    -0.388 OA
HETATM    2  N   UNK     0       3.634  13.335  90.287  0.00  0.00     0.096 N 
HETATM    3  C   UNK     0       4.306  14.555  90.755  0.00  0.00     0.299 C 
HETATM    4  C   UNK     0       4.468  12.651  89.291  0.00  0.00     0.299 C 
HETATM    5  C   UNK     0       4.622  15.460  89.567  0.00  0.00     0.198 C 
HETATM    6  C   UNK     0       4.781  13.599  88.137  0.00  0.00     0.198 C 
ENDROOT
BRANCH   2   7
HETATM    7  C   UNK     0       3.331  12.448  91.409  0.00  0.00     0.311 C 
BRANCH   7   8
HETATM    8  C   UNK     0       4.361  11.385  91.587  0.00  0.00    -0.030 A 
HETATM    9  C   UNK     0       4.287  10.211  90.837  0.00  0.00     0.010 A 
HETATM   10  C   UNK     0       5.250   9.215  91.005  0.00  0.00     0.021 A 
HETATM   11  C   UNK     0       6.287   9.396  91.920  0.00  0.00     0.018 A 
HETATM   12  C   UNK     0       6.362  10.569  92.668  0.00  0.00     0.021 A 
HETATM   13  C   UNK     0       5.399  11.564  92.502  0.00  0.00     0.010 A 
BRANCH  11  14
HETATM   14  C   UNK     0       7.275   8.375  92.089  0.00  0.00    -0.061 C 
HETATM   15  C   UNK     0       8.106   7.518  92.232  0.00  0.00    -0.061 C 
BRANCH  15  16
HETATM   16  C   UNK     0       9.092   6.498  92.401  0.00  0.00     0.018 A 
HETATM   17  C   UNK     0       9.708   6.324  93.641  0.00  0.00     0.022 A 
HETATM   18  C   UNK     0      10.670   5.327  93.808  0.00  0.00     0.018 A 
HETATM   19  C   UNK     0      10.993   4.526  92.733  0.00  0.00     0.032 A 
HETATM   20  C   UNK     0      10.398   4.678  91.497  0.00  0.00     0.018 A 
HETATM   21  C   UNK     0       9.438   5.675  91.330  0.00  0.00     0.022 A 
BRANCH  19  22
HETATM   22  C   UNK     0      12.018   3.466  92.910  0.00  0.00     0.252 C 
HETATM   23  O   UNK     0      11.656   2.302  93.066  0.00  0.00    -0.268 OA
HETATM   24  N   UNK     0      13.340   3.884  92.860  0.00  0.00    -0.341 N 
HETATM   25  H   UNK     0      13.564   4.860  92.702  0.00  0.00     0.163 HD
BRANCH  24  26
HETATM   26  C   UNK     0      14.448   2.972  92.991  0.00  0.00     0.207 C 
BRANCH  26  27
HETATM   27  C   UNK     0      14.815   2.290  91.666  0.00  0.00     0.146 C 
HETATM   28  C   UNK     0      14.673   3.224  90.470  0.00  0.00     0.042 C 
BRANCH  27  29
HETATM   29  O   UNK     0      16.161   1.818  91.729  0.00  0.00    -0.393 OA
HETATM   30  H   UNK     0      16.720   2.537  92.069  0.00  0.00     0.210 HD
ENDBRANCH  27  29
ENDBRANCH  26  27
BRANCH  26  31
HETATM   31  C   UNK     0      15.629   3.751  93.559  0.00  0.00     0.266 C 
HETATM   32  O   UNK     0      16.578   3.211  94.124  0.00  0.00    -0.269 OA
HETATM   33  N   UNK     0      15.482   5.108  93.398  0.00  0.00    -0.236 N 
HETATM   34  H   UNK     0      14.675   5.590  93.019  0.00  0.00     0.197 HD
BRANCH  33  35
HETATM   35  O   UNK     0      16.509   5.901  93.928  0.00  0.00    -0.287 OA
HETATM   36  H   UNK     0      16.929   5.262  94.530  0.00  0.00     0.244 HD
ENDBRANCH  33  35
ENDBRANCH  26  31
ENDBRANCH  24  26
ENDBRANCH  19  22
ENDBRANCH  15  16
ENDBRANCH  11  14
ENDBRANCH   7   8
ENDBRANCH   2   7
TORSDOF 10
ENDMDL
MODEL 6
REMARK VINA RESULT:      -4.8      1.321      1.625
REMARK  10 active torsions:
REMARK  status: ('A' for Active; 'I' for Inactive)
REMARK    1  A    between atoms: O_2  and  C_18 
REMARK    2  A    between atoms: O_5  and  N_8 
REMARK    3  A    between atoms: N_6  and  C_11 
REMARK    4  A    between atoms: N_7  and  C_15 
REMARK       I    between atoms: N_7  and  C_24 
REMARK       I    between atoms: N_8  and  C_23 
REMARK    5  A    between atoms: C_11  and  C_14 
REMARK    6  A    between atoms: C_15  and  C_18 
REMARK    7  A    between atoms: C_15  and  C_23 
REMARK    8  A    between atoms: C_21  and  C_26 
REMARK    9  A    between atoms: C_24  and  C_25 
REMARK   10  A    between atoms: C_29  and  C_32 
ROOT
HETATM    1  O   UNK     0      16.690   2.438  92.027  0.00  0.00    -0.388 OA
HETATM    2  N   UNK     0      14.180   2.926  93.278  0.00  0.00     0.096 N 
HETATM    3  C   UNK     0      15.201   2.078  93.909  0.00  0.00     0.299 C 
HETATM    4  C   UNK     0      14.311   2.867  91.816  0.00  0.00     0.299 C 
HETATM    5  C   UNK     0      16.590   2.513  93.450  0.00  0.00     0.198 C 
HETATM    6  C   UNK     0      15.721   3.283  91.405  0.00  0.00     0.198 C 
ENDROOT
BRANCH   2   7
HETATM    7  C   UNK     0      12.839   2.520  93.695  0.00  0.00     0.311 C 
BRANCH   7   8
HETATM    8  C   UNK     0      11.798   3.512  93.303  0.00  0.00    -0.030 A 
HETATM    9  C   UNK     0      11.085   3.340  92.116  0.00  0.00     0.010 A 
HETATM   10  C   UNK     0      10.112   4.269  91.747  0.00  0.00     0.021 A 
HETATM   11  C   UNK     0       9.850   5.366  92.566  0.00  0.00     0.018 A 
HETATM   12  C   UNK     0      10.561   5.538  93.752  0.00  0.00     0.021 A 
HETATM   13  C   UNK     0      11.535   4.610  94.121  0.00  0.00     0.010 A 
BRANCH  11  14
HETATM   14  C   UNK     0       8.850   6.317  92.188  0.00  0.00    -0.061 C 
HETATM   15  C   UNK     0       8.009   7.116  91.871  0.00  0.00    -0.061 C 
BRANCH  15  16
HETATM   16  C   UNK     0       7.010   8.065  91.493  0.00  0.00     0.018 A 
HETATM   17  C   UNK     0       7.187   8.843  90.348  0.00  0.00     0.022 A 
HETATM   18  C   UNK     0       6.211   9.768  89.977  0.00  0.00     0.018 A 
HETATM   19  C   UNK     0       5.081   9.894  90.758  0.00  0.00     0.032 A 
HETATM   20  C   UNK     0       4.883   9.138  91.894  0.00  0.00     0.018 A 
HETATM   21  C   UNK     0       5.859   8.213  92.266  0.00  0.00     0.022 A 
BRANCH  19  22
HETATM   22  C   UNK     0       4.042  10.881  90.363  0.00  0.00     0.252 C 
HETATM   23  O   UNK     0       2.945  10.478  89.985  0.00  0.00    -0.268 OA
HETATM   24  N   UNK     0       4.398  12.218  90.480  0.00  0.00    -0.341 N 
HETATM   25  H   UNK     0       5.316  12.476  90.824  0.00  0.00     0.163 HD
BRANCH  24  26
HETATM   26  C   UNK     0       3.493  13.292  90.160  0.00  0.00     0.207 C 
BRANCH  26  27
HETATM   27  C   UNK     0       3.249  14.236  91.344  0.00  0.00     0.146 C 
HETATM   28  C   UNK     0       2.578  13.535  92.520  0.00  0.00     0.042 C 
BRANCH  27  29
HETATM   29  O   UNK     0       4.491  14.786  91.780  0.00  0.00    -0.393 OA
HETATM   30  H   UNK     0       4.520  15.721  91.517  0.00  0.00     0.210 HD
ENDBRANCH  27  29
ENDBRANCH  26  27
BRANCH  26  31
HETATM   31  C   UNK     0       4.066  14.042  88.962  0.00  0.00     0.266 C 
HETATM   32  O   UNK     0       4.237  15.260  88.954  0.00  0.00    -0.269 OA
HETATM   33  N   UNK     0       4.326  13.208  87.902  0.00  0.00    -0.236 N 
HETATM   34  H   UNK     0       4.115  12.218  87.843  0.00  0.00     0.197 HD
BRANCH  33  35
HETATM   35  O   UNK     0       4.821  13.826  86.745  0.00  0.00    -0.287 OA
HETATM   36  H   UNK     0       4.546  14.745  86.908  0.00  0.00     0.244 HD
ENDBRANCH  33  35
ENDBRANCH  26  31
ENDBRANCH  24  26
ENDBRANCH  19  22
ENDBRANCH  15  16
ENDBRANCH  11  14
ENDBRANCH   7   8
ENDBRANCH   2   7
TORSDOF 10
ENDMDL
MODEL 7
REMARK VINA RESULT:      -4.3      1.633     12.287
REMARK  10 active torsions:
REMARK  status: ('A' for Active; 'I' for Inactive)
REMARK    1  A    between atoms: O_2  and  C_18 
REMARK    2  A    between atoms: O_5  and  N_8 
REMARK    3  A    between atoms: N_6  and  C_11 
REMARK    4  A    between atoms: N_7  and  C_15 
REMARK       I    between atoms: N_7  and  C_24 
REMARK       I    between atoms: N_8  and  C_23 
REMARK    5  A    between atoms: C_11  and  C_14 
REMARK    6  A    between atoms: C_15  and  C_18 
REMARK    7  A    between atoms: C_15  and  C_23 
REMARK    8  A    between atoms: C_21  and  C_26 
REMARK    9  A    between atoms: C_24  and  C_25 
REMARK   10  A    between atoms: C_29  and  C_32 
ROOT
HETATM    1  O   UNK     0       4.691  14.178  89.653  0.00  0.00    -0.388 OA
HETATM    2  N   UNK     0       3.358  11.852  88.696  0.00  0.00     0.096 N 
HETATM    3  C   UNK     0       3.061  12.417  90.020  0.00  0.00     0.299 C 
HETATM    4  C   UNK     0       4.746  12.151  88.321  0.00  0.00     0.299 C 
HETATM    5  C   UNK     0       3.332  13.920  90.013  0.00  0.00     0.198 C 
HETATM    6  C   UNK     0       4.978  13.658  88.354  0.00  0.00     0.198 C 
ENDROOT
BRANCH   2   7
HETATM    7  C   UNK     0       3.115  10.410  88.683  0.00  0.00     0.311 C 
BRANCH   7   8
HETATM    8  C   UNK     0       4.318   9.628  89.087  0.00  0.00    -0.030 A 
HETATM    9  C   UNK     0       4.932   8.773  88.172  0.00  0.00     0.010 A 
HETATM   10  C   UNK     0       6.056   8.039  88.549  0.00  0.00     0.021 A 
HETATM   11  C   UNK     0       6.566   8.162  89.841  0.00  0.00     0.018 A 
HETATM   12  C   UNK     0       5.953   9.016  90.756  0.00  0.00     0.021 A 
HETATM   13  C   UNK     0       4.829   9.749  90.379  0.00  0.00     0.010 A 
BRANCH  11  14
HETATM   14  C   UNK     0       7.721   7.410  90.228  0.00  0.00    -0.061 C 
HETATM   15  C   UNK     0       8.691   6.779  90.553  0.00  0.00    -0.061 C 
BRANCH  15  16
HETATM   16  C   UNK     0       9.844   6.028  90.938  0.00  0.00     0.018 A 
HETATM   17  C   UNK     0      10.683   5.490  89.961  0.00  0.00     0.022 A 
HETATM   18  C   UNK     0      11.810   4.759  90.336  0.00  0.00     0.018 A 
HETATM   19  C   UNK     0      12.073   4.581  91.679  0.00  0.00     0.032 A 
HETATM   20  C   UNK     0      11.260   5.102  92.663  0.00  0.00     0.018 A 
HETATM   21  C   UNK     0      10.132   5.833  92.288  0.00  0.00     0.022 A 
BRANCH  19  22
HETATM   22  C   UNK     0      13.273   3.800  92.078  0.00  0.00     0.252 C 
HETATM   23  O   UNK     0      14.132   3.549  91.236  0.00  0.00    -0.268 OA
HETATM   24  N   UNK     0      13.339   3.428  93.413  0.00  0.00    -0.341 N 
HETATM   25  H   UNK     0      12.602   3.693  94.057  0.00  0.00     0.163 HD
BRANCH  24  26
HETATM   26  C   UNK     0      14.449   2.689  93.958  0.00  0.00     0.207 C 
BRANCH  26  27
HETATM   27  C   UNK     0      14.730   1.389  93.193  0.00  0.00     0.146 C 
HETATM   28  C   UNK     0      13.489   0.841  92.498  0.00  0.00     0.042 C 
BRANCH  27  29
HETATM   29  O   UNK     0      15.744   1.621  92.216  0.00  0.00    -0.393 OA
HETATM   30  H   UNK     0      15.788   0.845  91.632  0.00  0.00     0.210 HD
ENDBRANCH  27  29
ENDBRANCH  26  27
BRANCH  26  31
HETATM   31  C   UNK     0      15.666   3.608  93.956  0.00  0.00     0.266 C 
HETATM   32  O   UNK     0      16.814   3.200  94.124  0.00  0.00    -0.269 OA
HETATM   33  N   UNK     0      15.320   4.927  93.785  0.00  0.00    -0.236 N 
HETATM   34  H   UNK     0      14.382   5.306  93.733  0.00  0.00     0.197 HD
BRANCH  33  35
HETATM   35  O   UNK     0      16.381   5.844  93.809  0.00  0.00    -0.287 OA
HETATM   36  H   UNK     0      16.624   5.804  94.749  0.00  0.00     0.244 HD
ENDBRANCH  33  35
ENDBRANCH  26  31
ENDBRANCH  24  26
ENDBRANCH  19  22
ENDBRANCH  15  16
ENDBRANCH  11  14
ENDBRANCH   7   8
ENDBRANCH   2   7
TORSDOF 10
ENDMDL
MODEL 8
REMARK VINA RESULT:      -4.2      1.665      2.411
REMARK  10 active torsions:
REMARK  status: ('A' for Active; 'I' for Inactive)
REMARK    1  A    between atoms: O_2  and  C_18 
REMARK    2  A    between atoms: O_5  and  N_8 
REMARK    3  A    between atoms: N_6  and  C_11 
REMARK    4  A    between atoms: N_7  and  C_15 
REMARK       I    between atoms: N_7  and  C_24 
REMARK       I    between atoms: N_8  and  C_23 
REMARK    5  A    between atoms: C_11  and  C_14 
REMARK    6  A    between atoms: C_15  and  C_18 
REMARK    7  A    between atoms: C_15  and  C_23 
REMARK    8  A    between atoms: C_21  and  C_26 
REMARK    9  A    between atoms: C_24  and  C_25 
REMARK   10  A    between atoms: C_29  and  C_32 
ROOT
HETATM    1  O   UNK     0      16.280   3.737  92.749  0.00  0.00    -0.388 OA
HETATM    2  N   UNK     0      14.039   1.984  92.654  0.00  0.00     0.096 N 
HETATM    3  C   UNK     0      14.451   2.769  91.481  0.00  0.00     0.299 C 
HETATM    4  C   UNK     0      14.410   2.690  93.887  0.00  0.00     0.299 C 
HETATM    5  C   UNK     0      15.951   3.043  91.544  0.00  0.00     0.198 C 
HETATM    6  C   UNK     0      15.911   2.966  93.894  0.00  0.00     0.198 C 
ENDROOT
BRANCH   2   7
HETATM    7  C   UNK     0      12.602   1.719  92.620  0.00  0.00     0.311 C 
BRANCH   7   8
HETATM    8  C   UNK     0      11.808   2.931  92.267  0.00  0.00    -0.030 A 
HETATM    9  C   UNK     0      11.279   3.066  90.983  0.00  0.00     0.010 A 
HETATM   10  C   UNK     0      10.538   4.201  90.651  0.00  0.00     0.021 A 
HETATM   11  C   UNK     0      10.326   5.197  91.603  0.00  0.00     0.018 A 
HETATM   12  C   UNK     0      10.854   5.063  92.885  0.00  0.00     0.021 A 
HETATM   13  C   UNK     0      11.596   3.929  93.217  0.00  0.00     0.010 A 
BRANCH  11  14
HETATM   14  C   UNK     0       9.564   6.360  91.262  0.00  0.00    -0.061 C 
HETATM   15  C   UNK     0       8.924   7.336  90.976  0.00  0.00    -0.061 C 
BRANCH  15  16
HETATM   16  C   UNK     0       8.163   8.496  90.635  0.00  0.00     0.018 A 
HETATM   17  C   UNK     0       8.145   9.596  91.495  0.00  0.00     0.022 A 
HETATM   18  C   UNK     0       7.404  10.729  91.162  0.00  0.00     0.018 A 
HETATM   19  C   UNK     0       6.698  10.739  89.977  0.00  0.00     0.032 A 
HETATM   20  C   UNK     0       6.698   9.666  89.111  0.00  0.00     0.018 A 
HETATM   21  C   UNK     0       7.439   8.532  89.444  0.00  0.00     0.022 A 
BRANCH  19  22
HETATM   22  C   UNK     0       5.907  11.946  89.624  0.00  0.00     0.252 C 
HETATM   23  O   UNK     0       5.792  12.264  88.442  0.00  0.00    -0.268 OA
HETATM   24  N   UNK     0       5.323  12.624  90.686  0.00  0.00    -0.341 N 
HETATM   25  H   UNK     0       5.441  12.288  91.634  0.00  0.00     0.163 HD
BRANCH  24  26
HETATM   26  C   UNK     0       4.507  13.797  90.503  0.00  0.00     0.207 C 
BRANCH  26  27
HETATM   27  C   UNK     0       3.201  13.501  89.755  0.00  0.00     0.146 C 
HETATM   28  C   UNK     0       2.772  12.043  89.884  0.00  0.00     0.042 C 
BRANCH  27  29
HETATM   29  O   UNK     0       2.161  14.336  90.262  0.00  0.00    -0.393 OA
HETATM   30  H   UNK     0       1.413  14.303  89.642  0.00  0.00     0.210 HD
ENDBRANCH  27  29
ENDBRANCH  26  27
BRANCH  26  31
HETATM   31  C   UNK     0       4.235  14.394  91.879  0.00  0.00     0.266 C 
HETATM   32  O   UNK     0       4.289  15.601  92.108  0.00  0.00    -0.269 OA
HETATM   33  N   UNK     0       3.967  13.430  92.820  0.00  0.00    -0.236 N 
HETATM   34  H   UNK     0       4.003  12.426  92.687  0.00  0.00     0.197 HD
BRANCH  33  35
HETATM   35  O   UNK     0       3.743  13.894  94.124  0.00  0.00    -0.287 OA
HETATM   36  H   UNK     0       4.186  13.197  94.636  0.00  0.00     0.244 HD
ENDBRANCH  33  35
ENDBRANCH  26  31
ENDBRANCH  24  26
ENDBRANCH  19  22
ENDBRANCH  15  16
ENDBRANCH  11  14
ENDBRANCH   7   8
ENDBRANCH   2   7
TORSDOF 10
ENDMDL
