MODEL 1
REMARK VINA RESULT:      -6.6      0.000      0.000
REMARK  10 active torsions:
REMARK  status: ('A' for Active; 'I' for Inactive)
REMARK    1  A    between atoms: O_2  and  C_18 
REMARK    2  A    between atoms: O_5  and  N_8 
REMARK    3  A    between atoms: N_6  and  C_11 
REMARK    4  A    between atoms: N_7  and  C_15 
REMARK       I    between atoms: N_7  and  C_24 
REMARK       I    between atoms: N_8  and  C_23 
REMARK    5  A    between atoms: C_11  and  C_14 
REMARK    6  A    between atoms: C_15  and  C_18 
REMARK    7  A    between atoms: C_15  and  C_23 
REMARK    8  A    between atoms: C_21  and  C_26 
REMARK    9  A    between atoms: C_24  and  C_25 
REMARK   10  A    between atoms: C_29  and  C_32 
ROOT
HETATM    1  O   UNK     0      17.337   4.189  93.525  0.00  0.00    -0.388 OA
HETATM    2  N   UNK     0      14.785   2.928  93.538  0.00  0.00     0.096 N 
HETATM    3  C   UNK     0      16.026   2.149  93.431  0.00  0.00     0.299 C 
HETATM    4  C   UNK     0      14.979   4.265  92.960  0.00  0.00     0.299 C 
HETATM    5  C   UNK     0      17.168   2.898  94.113  0.00  0.00     0.198 C 
HETATM    6  C   UNK     0      16.145   4.965  93.653  0.00  0.00     0.198 C 
ENDROOT
BRANCH   2   7
HETATM    7  C   UNK     0      13.679   2.234  92.881  0.00  0.00     0.311 C 
BRANCH   7   8
HETATM    8  C   UNK     0      12.549   3.149  92.552  0.00  0.00    -0.030 A 
HETATM    9  C   UNK     0      11.972   3.931  93.553  0.00  0.00     0.010 A 
HETATM   10  C   UNK     0      10.913   4.786  93.247  0.00  0.00     0.021 A 
HETATM   11  C   UNK     0      10.434   4.859  91.940  0.00  0.00     0.018 A 
HETATM   12  C   UNK     0      11.009   4.079  90.939  0.00  0.00     0.021 A 
HETATM   13  C   UNK     0      12.067   3.223  91.245  0.00  0.00     0.010 A 
BRANCH  11  14
HETATM   14  C   UNK     0       9.349   5.738  91.626  0.00  0.00    -0.061 C 
HETATM   15  C   UNK     0       8.438   6.476  91.362  0.00  0.00    -0.061 C 
BRANCH  15  16
HETATM   16  C   UNK     0       7.354   7.353  91.049  0.00  0.00     0.018 A 
HETATM   17  C   UNK     0       6.354   7.590  91.994  0.00  0.00     0.022 A 
HETATM   18  C   UNK     0       5.297   8.448  91.690  0.00  0.00     0.018 A 
HETATM   19  C   UNK     0       5.262   9.049  90.450  0.00  0.00     0.032 A 
HETATM   20  C   UNK     0       6.237   8.832  89.498  0.00  0.00     0.018 A 
HETATM   21  C   UNK     0       7.294   7.973  89.802  0.00  0.00     0.022 A 
BRANCH  19  22
HETATM   22  C   UNK     0       4.135   9.961  90.126  0.00  0.00     0.252 C 
HETATM   23  O   UNK     0       3.044   9.483  89.824  0.00  0.00    -0.268 OA
HETATM   24  N   UNK     0       4.406  11.320  90.216  0.00  0.00    -0.341 N 
HETATM   25  H   UNK     0       5.325  11.641  90.496  0.00  0.00     0.163 HD
BRANCH  24  26
HETATM   26  C   UNK     0       3.410  12.328  89.957  0.00  0.00     0.207 C 
BRANCH  26  27
HETATM   27  C   UNK     0       2.961  13.060  91.228  0.00  0.00     0.146 C 
HETATM   28  C   UNK     0       2.025  12.217  92.087  0.00  0.00     0.042 C 
BRANCH  27  29
HETATM   29  O   UNK     0       4.106  13.416  92.003  0.00  0.00    -0.393 OA
HETATM   30  H   UNK     0       4.499  12.601  92.359  0.00  0.00     0.210 HD
ENDBRANCH  27  29
ENDBRANCH  26  27
BRANCH  26  31
HETATM   31  C   UNK     0       3.987  13.300  88.932  0.00  0.00     0.266 C 
HETATM   32  O   UNK     0       4.148  14.497  89.162  0.00  0.00    -0.269 OA
HETATM   33  N   UNK     0       4.262  12.687  87.734  0.00  0.00    -0.236 N 
HETATM   34  H   UNK     0       4.060  11.727  87.483  0.00  0.00     0.197 HD
BRANCH  33  35
HETATM   35  O   UNK     0       4.761  13.521  86.723  0.00  0.00    -0.287 OA
HETATM   36  H   UNK     0       4.222  14.317  86.871  0.00  0.00     0.244 HD
ENDBRANCH  33  35
ENDBRANCH  26  31
ENDBRANCH  24  26
ENDBRANCH  19  22
ENDBRANCH  15  16
ENDBRANCH  11  14
ENDBRANCH   7   8
ENDBRANCH   2   7
TORSDOF 10
ENDMDL
MODEL 2
REMARK VINA RESULT:      -6.5      1.407      1.871
REMARK  10 active torsions:
REMARK  status: ('A' for Active; 'I' for Inactive)
REMARK    1  A    between atoms: O_2  and  C_18 
REMARK    2  A    between atoms: O_5  and  N_8 
REMARK    3  A    between atoms: N_6  and  C_11 
REMARK    4  A    between atoms: N_7  and  C_15 
REMARK       I    between atoms: N_7  and  C_24 
REMARK       I    between atoms: N_8  and  C_23 
REMARK    5  A    between atoms: C_11  and  C_14 
REMARK    6  A    between atoms: C_15  and  C_18 
REMARK    7  A    between atoms: C_15  and  C_23 
REMARK    8  A    between atoms: C_21  and  C_26 
REMARK    9  A    between atoms: C_24  and  C_25 
REMARK   10  A    between atoms: C_29  and  C_32 
ROOT
HETATM    1  O   UNK     0      16.783   3.700  93.805  0.00  0.00    -0.388 OA
HETATM    2  N   UNK     0      14.154   3.043  92.934  0.00  0.00     0.096 N 
HETATM    3  C   UNK     0      15.203   2.020  93.051  0.00  0.00     0.299 C 
HETATM    4  C   UNK     0      14.757   4.349  92.639  0.00  0.00     0.299 C 
HETATM    5  C   UNK     0      16.209   2.431  94.124  0.00  0.00     0.198 C 
HETATM    6  C   UNK     0      15.774   4.706  93.720  0.00  0.00     0.198 C 
ENDROOT
BRANCH   2   7
HETATM    7  C   UNK     0      13.185   2.674  91.904  0.00  0.00     0.311 C 
BRANCH   7   8
HETATM    8  C   UNK     0      12.070   3.658  91.795  0.00  0.00    -0.030 A 
HETATM    9  C   UNK     0      11.741   4.204  90.554  0.00  0.00     0.010 A 
HETATM   10  C   UNK     0      10.700   5.126  90.451  0.00  0.00     0.021 A 
HETATM   11  C   UNK     0       9.987   5.500  91.589  0.00  0.00     0.018 A 
HETATM   12  C   UNK     0      10.314   4.955  92.829  0.00  0.00     0.021 A 
HETATM   13  C   UNK     0      11.356   4.034  92.933  0.00  0.00     0.010 A 
BRANCH  11  14
HETATM   14  C   UNK     0       8.917   6.444  91.483  0.00  0.00    -0.061 C 
HETATM   15  C   UNK     0       8.018   7.238  91.394  0.00  0.00    -0.061 C 
BRANCH  15  16
HETATM   16  C   UNK     0       6.950   8.181  91.287  0.00  0.00     0.018 A 
HETATM   17  C   UNK     0       7.221   9.549  91.341  0.00  0.00     0.022 A 
HETATM   18  C   UNK     0       6.179  10.470  91.234  0.00  0.00     0.018 A 
HETATM   19  C   UNK     0       4.890  10.004  91.076  0.00  0.00     0.032 A 
HETATM   20  C   UNK     0       4.596   8.657  91.020  0.00  0.00     0.018 A 
HETATM   21  C   UNK     0       5.638   7.736  91.128  0.00  0.00     0.022 A 
BRANCH  19  22
HETATM   22  C   UNK     0       3.781  10.985  90.964  0.00  0.00     0.252 C 
HETATM   23  O   UNK     0       2.769  10.679  90.338  0.00  0.00    -0.268 OA
HETATM   24  N   UNK     0       3.972  12.196  91.616  0.00  0.00    -0.341 N 
HETATM   25  H   UNK     0       4.824  12.369  92.136  0.00  0.00     0.163 HD
BRANCH  24  26
HETATM   26  C   UNK     0       2.978  13.239  91.621  0.00  0.00     0.207 C 
BRANCH  26  27
HETATM   27  C   UNK     0       2.971  14.046  92.926  0.00  0.00     0.146 C 
HETATM   28  C   UNK     0       4.149  13.703  93.831  0.00  0.00     0.042 C 
BRANCH  27  29
HETATM   29  O   UNK     0       3.008  15.441  92.625  0.00  0.00    -0.393 OA
HETATM   30  H   UNK     0       3.643  15.579  91.902  0.00  0.00     0.210 HD
ENDBRANCH  27  29
ENDBRANCH  26  27
BRANCH  26  31
HETATM   31  C   UNK     0       3.239  14.137  90.416  0.00  0.00     0.266 C 
HETATM   32  O   UNK     0       2.357  14.473  89.628  0.00  0.00    -0.269 OA
HETATM   33  N   UNK     0       4.564  14.481  90.303  0.00  0.00    -0.236 N 
HETATM   34  H   UNK     0       5.329  14.150  90.880  0.00  0.00     0.197 HD
BRANCH  33  35
HETATM   35  O   UNK     0       4.895  15.276  89.196  0.00  0.00    -0.287 OA
HETATM   36  H   UNK     0       5.556  14.708  88.765  0.00  0.00     0.244 HD
ENDBRANCH  33  35
ENDBRANCH  26  31
ENDBRANCH  24  26
ENDBRANCH  19  22
ENDBRANCH  15  16
ENDBRANCH  11  14
ENDBRANCH   7   8
ENDBRANCH   2   7
TORSDOF 10
ENDMDL
MODEL 3
REMARK VINA RESULT:      -5.8      2.016      2.599
REMARK  10 active torsions:
REMARK  status: ('A' for Active; 'I' for Inactive)
REMARK    1  A    between atoms: O_2  and  C_18 
REMARK    2  A    between atoms: O_5  and  N_8 
REMARK    3  A    between atoms: N_6  and  C_11 
REMARK    4  A    between atoms: N_7  and  C_15 
REMARK       I    between atoms: N_7  and  C_24 
REMARK       I    between atoms: N_8  and  C_23 
REMARK    5  A    between atoms: C_11  and  C_14 
REMARK    6  A    between atoms: C_15  and  C_18 
REMARK    7  A    between atoms: C_15  and  C_23 
REMARK    8  A    between atoms: C_21  and  C_26 
REMARK    9  A    between atoms: C_24  and  C_25 
REMARK   10  A    between atoms: C_29  and  C_32 
ROOT
HETATM    1  O   UNK     0      16.287   2.470  94.029  0.00  0.00    -0.388 OA
HETATM    2  N   UNK     0      13.894   3.156  92.648  0.00  0.00     0.096 N 
HETATM    3  C   UNK     0      14.285   1.755  92.857  0.00  0.00     0.299 C 
HETATM    4  C   UNK     0      15.089   4.008  92.584  0.00  0.00     0.299 C 
HETATM    5  C   UNK     0      15.129   1.638  94.124  0.00  0.00     0.198 C 
HETATM    6  C   UNK     0      15.915   3.838  93.856  0.00  0.00     0.198 C 
ENDROOT
BRANCH   2   7
HETATM    7  C   UNK     0      13.093   3.294  91.433  0.00  0.00     0.311 C 
BRANCH   7   8
HETATM    8  C   UNK     0      11.933   4.212  91.618  0.00  0.00    -0.030 A 
HETATM    9  C   UNK     0      11.536   4.581  92.904  0.00  0.00     0.010 A 
HETATM   10  C   UNK     0      10.449   5.437  93.079  0.00  0.00     0.021 A 
HETATM   11  C   UNK     0       9.762   5.926  91.968  0.00  0.00     0.018 A 
HETATM   12  C   UNK     0      10.158   5.559  90.684  0.00  0.00     0.021 A 
HETATM   13  C   UNK     0      11.244   4.701  90.509  0.00  0.00     0.010 A 
BRANCH  11  14
HETATM   14  C   UNK     0       8.649   6.807  92.148  0.00  0.00    -0.061 C 
HETATM   15  C   UNK     0       7.714   7.547  92.299  0.00  0.00    -0.061 C 
BRANCH  15  16
HETATM   16  C   UNK     0       6.603   8.427  92.479  0.00  0.00     0.018 A 
HETATM   17  C   UNK     0       5.302   7.954  92.295  0.00  0.00     0.022 A 
HETATM   18  C   UNK     0       4.217   8.812  92.474  0.00  0.00     0.018 A 
HETATM   19  C   UNK     0       4.455  10.122  92.832  0.00  0.00     0.032 A 
HETATM   20  C   UNK     0       5.729  10.614  93.020  0.00  0.00     0.018 A 
HETATM   21  C   UNK     0       6.815   9.757  92.841  0.00  0.00     0.022 A 
BRANCH  19  22
HETATM   22  C   UNK     0       3.298  11.036  93.020  0.00  0.00     0.252 C 
HETATM   23  O   UNK     0       2.182  10.560  93.210  0.00  0.00    -0.268 OA
HETATM   24  N   UNK     0       3.585  12.394  92.989  0.00  0.00    -0.341 N 
HETATM   25  H   UNK     0       4.537  12.714  92.852  0.00  0.00     0.163 HD
BRANCH  24  26
HETATM   26  C   UNK     0       2.576  13.404  93.179  0.00  0.00     0.207 C 
BRANCH  26  27
HETATM   27  C   UNK     0       3.044  14.548  94.088  0.00  0.00     0.146 C 
HETATM   28  C   UNK     0       4.362  15.159  93.624  0.00  0.00     0.042 C 
BRANCH  27  29
HETATM   29  O   UNK     0       2.047  15.569  94.123  0.00  0.00    -0.393 OA
HETATM   30  H   UNK     0       2.230  16.147  94.883  0.00  0.00     0.210 HD
ENDBRANCH  27  29
ENDBRANCH  26  27
BRANCH  26  31
HETATM   31  C   UNK     0       2.168  13.920  91.803  0.00  0.00     0.266 C 
HETATM   32  O   UNK     0       1.216  14.679  91.628  0.00  0.00    -0.269 OA
HETATM   33  N   UNK     0       2.957  13.409  90.802  0.00  0.00    -0.236 N 
HETATM   34  H   UNK     0       3.689  12.715  90.901  0.00  0.00     0.197 HD
BRANCH  33  35
HETATM   35  O   UNK     0       2.623  13.805  89.499  0.00  0.00    -0.287 OA
HETATM   36  H   UNK     0       3.233  13.248  88.986  0.00  0.00     0.244 HD
ENDBRANCH  33  35
ENDBRANCH  26  31
ENDBRANCH  24  26
ENDBRANCH  19  22
ENDBRANCH  15  16
ENDBRANCH  11  14
ENDBRANCH   7   8
ENDBRANCH   2   7
TORSDOF 10
ENDMDL
MODEL 4
REMARK VINA RESULT:      -5.8      1.537      2.590
REMARK  10 active torsions:
REMARK  status: ('A' for Active; 'I' for Inactive)
REMARK    1  A    between atoms: O_2  and  C_18 
REMARK    2  A    between atoms: O_5  and  N_8 
REMARK    3  A    between atoms: N_6  and  C_11 
REMARK    4  A    between atoms: N_7  and  C_15 
REMARK       I    between atoms: N_7  and  C_24 
REMARK       I    between atoms: N_8  and  C_23 
REMARK    5  A    between atoms: C_11  and  C_14 
REMARK    6  A    between atoms: C_15  and  C_18 
REMARK    7  A    between atoms: C_15  and  C_23 
REMARK    8  A    between atoms: C_21  and  C_26 
REMARK    9  A    between atoms: C_24  and  C_25 
REMARK   10  A    between atoms: C_29  and  C_32 
ROOT
HETATM    1  O   UNK     0      16.028   4.128  93.878  0.00  0.00    -0.388 OA
HETATM    2  N   UNK     0      14.133   2.632  92.371  0.00  0.00     0.096 N 
HETATM    3  C   UNK     0      14.186   4.099  92.299  0.00  0.00     0.299 C 
HETATM    4  C   UNK     0      14.601   2.176  93.687  0.00  0.00     0.299 C 
HETATM    5  C   UNK     0      15.605   4.580  92.591  0.00  0.00     0.198 C 
HETATM    6  C   UNK     0      16.010   2.702  93.946  0.00  0.00     0.198 C 
ENDROOT
BRANCH   2   7
HETATM    7  C   UNK     0      12.779   2.149  92.106  0.00  0.00     0.311 C 
BRANCH   7   8
HETATM    8  C   UNK     0      11.799   3.261  91.953  0.00  0.00    -0.030 A 
HETATM    9  C   UNK     0      11.404   4.000  93.069  0.00  0.00     0.010 A 
HETATM   10  C   UNK     0      10.485   5.040  92.927  0.00  0.00     0.021 A 
HETATM   11  C   UNK     0       9.964   5.342  91.669  0.00  0.00     0.018 A 
HETATM   12  C   UNK     0      10.358   4.605  90.554  0.00  0.00     0.021 A 
HETATM   13  C   UNK     0      11.276   3.565  90.696  0.00  0.00     0.010 A 
BRANCH  11  14
HETATM   14  C   UNK     0       9.023   6.410  91.524  0.00  0.00    -0.061 C 
HETATM   15  C   UNK     0       8.233   7.308  91.402  0.00  0.00    -0.061 C 
BRANCH  15  16
HETATM   16  C   UNK     0       7.292   8.374  91.258  0.00  0.00     0.018 A 
HETATM   17  C   UNK     0       7.173   9.338  92.259  0.00  0.00     0.022 A 
HETATM   18  C   UNK     0       6.257  10.380  92.117  0.00  0.00     0.018 A 
HETATM   19  C   UNK     0       5.480  10.435  90.979  0.00  0.00     0.032 A 
HETATM   20  C   UNK     0       5.578   9.494  89.975  0.00  0.00     0.018 A 
HETATM   21  C   UNK     0       6.494   8.452  90.117  0.00  0.00     0.022 A 
BRANCH  19  22
HETATM   22  C   UNK     0       4.503  11.544  90.829  0.00  0.00     0.252 C 
HETATM   23  O   UNK     0       3.453  11.341  90.224  0.00  0.00    -0.268 OA
HETATM   24  N   UNK     0       4.854  12.749  91.423  0.00  0.00    -0.341 N 
HETATM   25  H   UNK     0       5.728  12.835  91.928  0.00  0.00     0.163 HD
BRANCH  24  26
HETATM   26  C   UNK     0       4.001  13.909  91.386  0.00  0.00     0.207 C 
BRANCH  26  27
HETATM   27  C   UNK     0       3.884  14.516  89.982  0.00  0.00     0.146 C 
HETATM   28  C   UNK     0       5.218  14.541  89.244  0.00  0.00     0.042 C 
BRANCH  27  29
HETATM   29  O   UNK     0       2.945  13.764  89.214  0.00  0.00    -0.393 OA
HETATM   30  H   UNK     0       3.420  13.037  88.778  0.00  0.00     0.210 HD
ENDBRANCH  27  29
ENDBRANCH  26  27
BRANCH  26  31
HETATM   31  C   UNK     0       2.636  13.501  91.929  0.00  0.00     0.266 C 
HETATM   32  O   UNK     0       1.584  14.011  91.547  0.00  0.00    -0.269 OA
HETATM   33  N   UNK     0       2.732  12.541  92.907  0.00  0.00    -0.236 N 
HETATM   34  H   UNK     0       3.584  12.166  93.307  0.00  0.00     0.197 HD
BRANCH  33  35
HETATM   35  O   UNK     0       1.521  12.137  93.487  0.00  0.00    -0.287 OA
HETATM   36  H   UNK     0       0.934  12.181  92.713  0.00  0.00     0.244 HD
ENDBRANCH  33  35
ENDBRANCH  26  31
ENDBRANCH  24  26
ENDBRANCH  19  22
ENDBRANCH  15  16
ENDBRANCH  11  14
ENDBRANCH   7   8
ENDBRANCH   2   7
TORSDOF 10
ENDMDL
MODEL 5
REMARK VINA RESULT:      -4.7      2.014     12.533
REMARK  10 active torsions:
REMARK  status: ('A' for Active; 'I' for Inactive)
REMARK    1  A    between atoms: O_2  and  C_18 
REMARK    2  A    between atoms: O_5  and  N_8 
REMARK    3  A    between atoms: N_6  and  C_11 
REMARK    4  A    between atoms: N_7  and  C_15 
REMARK       I    between atoms: N_7  and  C_24 
REMARK       I    between atoms: N_8  and  C_23 
REMARK    5  A    between atoms: C_11  and  C_14 
REMARK    6  A    between atoms: C_15  and  C_18 
REMARK    7  A    between atoms: C_15  and  C_23 
REMARK    8  A    between atoms: C_21  and  C_26 
REMARK    9  A    between atoms: C_24  and  C_25 
REMARK   10  A    between atoms: C_29  and  C_32 
ROOT
HETATM    1  O   UNK     0       5.606  15.081  89.428  0.00  0.00    -0.388 OA
HETATM    2  N   UNK     0       3.613  13.424  90.606  0.00  0.00     0.096 N 
HETATM    3  C   UNK     0       4.207  14.551  91.339  0.00  0.00     0.299 C 
HETATM    4  C   UNK     0       4.577  12.893  89.633  0.00  0.00     0.299 C 
HETATM    5  C   UNK     0       4.664  15.625  90.355  0.00  0.00     0.198 C 
HETATM    6  C   UNK     0       5.026  14.005  88.689  0.00  0.00     0.198 C 
ENDROOT
BRANCH   2   7
HETATM    7  C   UNK     0       3.178  12.378  91.529  0.00  0.00     0.311 C 
BRANCH   7   8
HETATM    8  C   UNK     0       4.222  11.335  91.739  0.00  0.00    -0.030 A 
HETATM    9  C   UNK     0       4.451  10.371  90.757  0.00  0.00     0.010 A 
HETATM   10  C   UNK     0       5.426   9.393  90.954  0.00  0.00     0.021 A 
HETATM   11  C   UNK     0       6.173   9.382  92.131  0.00  0.00     0.018 A 
HETATM   12  C   UNK     0       5.945  10.344  93.112  0.00  0.00     0.021 A 
HETATM   13  C   UNK     0       4.970  11.322  92.917  0.00  0.00     0.010 A 
BRANCH  11  14
HETATM   14  C   UNK     0       7.175   8.380  92.332  0.00  0.00    -0.061 C 
HETATM   15  C   UNK     0       8.017   7.539  92.500  0.00  0.00    -0.061 C 
BRANCH  15  16
HETATM   16  C   UNK     0       9.016   6.537  92.699  0.00  0.00     0.018 A 
HETATM   17  C   UNK     0       9.293   5.617  91.687  0.00  0.00     0.022 A 
HETATM   18  C   UNK     0      10.270   4.641  91.880  0.00  0.00     0.018 A 
HETATM   19  C   UNK     0      10.950   4.606  93.080  0.00  0.00     0.032 A 
HETATM   20  C   UNK     0      10.695   5.504  94.096  0.00  0.00     0.018 A 
HETATM   21  C   UNK     0       9.717   6.479  93.904  0.00  0.00     0.022 A 
BRANCH  19  22
HETATM   22  C   UNK     0      11.989   3.565  93.286  0.00  0.00     0.252 C 
HETATM   23  O   UNK     0      11.730   2.396  93.013  0.00  0.00    -0.268 OA
HETATM   24  N   UNK     0      13.213   4.014  93.763  0.00  0.00    -0.341 N 
HETATM   25  H   UNK     0      13.363   5.000  93.943  0.00  0.00     0.163 HD
BRANCH  24  26
HETATM   26  C   UNK     0      14.328   3.130  93.991  0.00  0.00     0.207 C 
BRANCH  26  27
HETATM   27  C   UNK     0      14.319   1.911  93.060  0.00  0.00     0.146 C 
HETATM   28  C   UNK     0      15.010   2.188  91.729  0.00  0.00     0.042 C 
BRANCH  27  29
HETATM   29  O   UNK     0      14.971   0.815  93.701  0.00  0.00    -0.393 OA
HETATM   30  H   UNK     0      14.439   0.015  93.554  0.00  0.00     0.210 HD
ENDBRANCH  27  29
ENDBRANCH  26  27
BRANCH  26  31
HETATM   31  C   UNK     0      15.608   3.943  93.828  0.00  0.00     0.266 C 
HETATM   32  O   UNK     0      15.610   5.142  93.558  0.00  0.00    -0.269 OA
HETATM   33  N   UNK     0      16.735   3.172  93.980  0.00  0.00    -0.236 N 
HETATM   34  H   UNK     0      16.770   2.168  94.113  0.00  0.00     0.197 HD
BRANCH  33  35
HETATM   35  O   UNK     0      17.957   3.838  93.807  0.00  0.00    -0.287 OA
HETATM   36  H   UNK     0      17.669   4.761  93.910  0.00  0.00     0.244 HD
ENDBRANCH  33  35
ENDBRANCH  26  31
ENDBRANCH  24  26
ENDBRANCH  19  22
ENDBRANCH  15  16
ENDBRANCH  11  14
ENDBRANCH   7   8
ENDBRANCH   2   7
TORSDOF 10
ENDMDL
MODEL 6
REMARK VINA RESULT:      -4.5      2.126     12.594
REMARK  10 active torsions:
REMARK  status: ('A' for Active; 'I' for Inactive)
REMARK    1  A    between atoms: O_2  and  C_18 
REMARK    2  A    between atoms: O_5  and  N_8 
REMARK    3  A    between atoms: N_6  and  C_11 
REMARK    4  A    between atoms: N_7  and  C_15 
REMARK       I    between atoms: N_7  and  C_24 
REMARK       I    between atoms: N_8  and  C_23 
REMARK    5  A    between atoms: C_11  and  C_14 
REMARK    6  A    between atoms: C_15  and  C_18 
REMARK    7  A    between atoms: C_15  and  C_23 
REMARK    8  A    between atoms: C_21  and  C_26 
REMARK    9  A    between atoms: C_24  and  C_25 
REMARK   10  A    between atoms: C_29  and  C_32 
ROOT
HETATM    1  O   UNK     0       2.965  14.294  92.322  0.00  0.00    -0.388 OA
HETATM    2  N   UNK     0       3.877  14.007  89.641  0.00  0.00     0.096 N 
HETATM    3  C   UNK     0       2.809  13.156  90.184  0.00  0.00     0.299 C 
HETATM    4  C   UNK     0       4.781  14.429  90.719  0.00  0.00     0.299 C 
HETATM    5  C   UNK     0       2.062  13.904  91.286  0.00  0.00     0.198 C 
HETATM    6  C   UNK     0       3.988  15.146  91.808  0.00  0.00     0.198 C 
ENDROOT
BRANCH   2   7
HETATM    7  C   UNK     0       4.613  13.306  88.591  0.00  0.00     0.311 C 
BRANCH   7   8
HETATM    8  C   UNK     0       5.456  12.200  89.129  0.00  0.00    -0.030 A 
HETATM    9  C   UNK     0       4.873  11.189  89.894  0.00  0.00     0.010 A 
HETATM   10  C   UNK     0       5.661  10.156  90.400  0.00  0.00     0.021 A 
HETATM   11  C   UNK     0       7.031  10.132  90.138  0.00  0.00     0.018 A 
HETATM   12  C   UNK     0       7.614  11.141  89.374  0.00  0.00     0.021 A 
HETATM   13  C   UNK     0       6.826  12.175  88.869  0.00  0.00     0.010 A 
BRANCH  11  14
HETATM   14  C   UNK     0       7.838   9.070  90.655  0.00  0.00    -0.061 C 
HETATM   15  C   UNK     0       8.517   8.178  91.090  0.00  0.00    -0.061 C 
BRANCH  15  16
HETATM   16  C   UNK     0       9.325   7.119  91.607  0.00  0.00     0.018 A 
HETATM   17  C   UNK     0       9.570   7.035  92.978  0.00  0.00     0.022 A 
HETATM   18  C   UNK     0      10.357   6.000  93.483  0.00  0.00     0.018 A 
HETATM   19  C   UNK     0      10.880   5.072  92.607  0.00  0.00     0.032 A 
HETATM   20  C   UNK     0      10.653   5.133  91.248  0.00  0.00     0.018 A 
HETATM   21  C   UNK     0       9.867   6.168  90.742  0.00  0.00     0.022 A 
BRANCH  19  22
HETATM   22  C   UNK     0      11.720   3.970  93.145  0.00  0.00     0.252 C 
HETATM   23  O   UNK     0      11.175   2.965  93.593  0.00  0.00    -0.268 OA
HETATM   24  N   UNK     0      13.093   4.162  93.074  0.00  0.00    -0.341 N 
HETATM   25  H   UNK     0      13.472   5.009  92.667  0.00  0.00     0.163 HD
BRANCH  24  26
HETATM   26  C   UNK     0      14.038   3.176  93.532  0.00  0.00     0.207 C 
BRANCH  26  27
HETATM   27  C   UNK     0      14.193   2.003  92.555  0.00  0.00     0.146 C 
HETATM   28  C   UNK     0      15.186   2.302  91.438  0.00  0.00     0.042 C 
BRANCH  27  29
HETATM   29  O   UNK     0      14.629   0.845  93.266  0.00  0.00    -0.393 OA
HETATM   30  H   UNK     0      13.852   0.294  93.457  0.00  0.00     0.210 HD
ENDBRANCH  27  29
ENDBRANCH  26  27
BRANCH  26  31
HETATM   31  C   UNK     0      15.370   3.881  93.768  0.00  0.00     0.266 C 
HETATM   32  O   UNK     0      15.488   5.105  93.768  0.00  0.00    -0.269 OA
HETATM   33  N   UNK     0      16.405   2.993  93.936  0.00  0.00    -0.236 N 
HETATM   34  H   UNK     0      16.358   1.985  93.853  0.00  0.00     0.197 HD
BRANCH  33  35
HETATM   35  O   UNK     0      17.673   3.563  94.120  0.00  0.00    -0.287 OA
HETATM   36  H   UNK     0      17.483   4.180  94.847  0.00  0.00     0.244 HD
ENDBRANCH  33  35
ENDBRANCH  26  31
ENDBRANCH  24  26
ENDBRANCH  19  22
ENDBRANCH  15  16
ENDBRANCH  11  14
ENDBRANCH   7   8
ENDBRANCH   2   7
TORSDOF 10
ENDMDL
MODEL 7
REMARK VINA RESULT:      -4.2      2.467     12.618
REMARK  10 active torsions:
REMARK  status: ('A' for Active; 'I' for Inactive)
REMARK    1  A    between atoms: O_2  and  C_18 
REMARK    2  A    between atoms: O_5  and  N_8 
REMARK    3  A    between atoms: N_6  and  C_11 
REMARK    4  A    between atoms: N_7  and  C_15 
REMARK       I    between atoms: N_7  and  C_24 
REMARK       I    between atoms: N_8  and  C_23 
REMARK    5  A    between atoms: C_11  and  C_14 
REMARK    6  A    between atoms: C_15  and  C_18 
REMARK    7  A    between atoms: C_15  and  C_23 
REMARK    8  A    between atoms: C_21  and  C_26 
REMARK    9  A    between atoms: C_24  and  C_25 
REMARK   10  A    between atoms: C_29  and  C_32 
ROOT
HETATM    1  O   UNK     0       2.800  15.465  93.252  0.00  0.00    -0.388 OA
HETATM    2  N   UNK     0       3.086  12.971  91.911  0.00  0.00     0.096 N 
HETATM    3  C   UNK     0       4.248  13.818  92.213  0.00  0.00     0.299 C 
HETATM    4  C   UNK     0       1.888  13.802  91.738  0.00  0.00     0.299 C 
HETATM    5  C   UNK     0       3.964  14.662  93.453  0.00  0.00     0.198 C 
HETATM    6  C   UNK     0       1.659  14.647  92.988  0.00  0.00     0.198 C 
ENDROOT
BRANCH   2   7
HETATM    7  C   UNK     0       3.332  12.161  90.719  0.00  0.00     0.311 C 
BRANCH   7   8
HETATM    8  C   UNK     0       4.381  11.125  90.943  0.00  0.00    -0.030 A 
HETATM    9  C   UNK     0       5.730  11.464  90.827  0.00  0.00     0.010 A 
HETATM   10  C   UNK     0       6.712  10.496  91.034  0.00  0.00     0.021 A 
HETATM   11  C   UNK     0       6.346   9.190  91.358  0.00  0.00     0.018 A 
HETATM   12  C   UNK     0       4.999   8.851  91.474  0.00  0.00     0.021 A 
HETATM   13  C   UNK     0       4.016   9.819  91.267  0.00  0.00     0.010 A 
BRANCH  11  14
HETATM   14  C   UNK     0       7.353   8.197  91.573  0.00  0.00    -0.061 C 
HETATM   15  C   UNK     0       8.201   7.364  91.753  0.00  0.00    -0.061 C 
BRANCH  15  16
HETATM   16  C   UNK     0       9.207   6.372  91.965  0.00  0.00     0.018 A 
HETATM   17  C   UNK     0       9.691   6.135  93.253  0.00  0.00     0.022 A 
HETATM   18  C   UNK     0      10.672   5.166  93.461  0.00  0.00     0.018 A 
HETATM   19  C   UNK     0      11.147   4.455  92.379  0.00  0.00     0.032 A 
HETATM   20  C   UNK     0      10.687   4.670  91.097  0.00  0.00     0.018 A 
HETATM   21  C   UNK     0       9.706   5.640  90.888  0.00  0.00     0.022 A 
BRANCH  19  22
HETATM   22  C   UNK     0      12.194   3.424  92.602  0.00  0.00     0.252 C 
HETATM   23  O   UNK     0      12.184   2.402  91.919  0.00  0.00    -0.268 OA
HETATM   24  N   UNK     0      13.139   3.717  93.574  0.00  0.00    -0.341 N 
HETATM   25  H   UNK     0      13.098   4.593  94.082  0.00  0.00     0.163 HD
BRANCH  24  26
HETATM   26  C   UNK     0      14.230   2.829  93.889  0.00  0.00     0.207 C 
BRANCH  26  27
HETATM   27  C   UNK     0      14.354   1.667  92.895  0.00  0.00     0.146 C 
HETATM   28  C   UNK     0      15.195   2.029  91.676  0.00  0.00     0.042 C 
BRANCH  27  29
HETATM   29  O   UNK     0      14.943   0.542  93.547  0.00  0.00    -0.393 OA
HETATM   30  H   UNK     0      15.648   0.194  92.976  0.00  0.00     0.210 HD
ENDBRANCH  27  29
ENDBRANCH  26  27
BRANCH  26  31
HETATM   31  C   UNK     0      15.508   3.659  93.934  0.00  0.00     0.266 C 
HETATM   32  O   UNK     0      16.629   3.159  94.008  0.00  0.00    -0.269 OA
HETATM   33  N   UNK     0      15.251   5.009  93.921  0.00  0.00    -0.236 N 
HETATM   34  H   UNK     0      14.341   5.454  93.950  0.00  0.00     0.197 HD
BRANCH  33  35
HETATM   35  O   UNK     0      16.375   5.844  93.999  0.00  0.00    -0.287 OA
HETATM   36  H   UNK     0      15.969   6.702  93.785  0.00  0.00     0.244 HD
ENDBRANCH  33  35
ENDBRANCH  26  31
ENDBRANCH  24  26
ENDBRANCH  19  22
ENDBRANCH  15  16
ENDBRANCH  11  14
ENDBRANCH   7   8
ENDBRANCH   2   7
TORSDOF 10
ENDMDL
MODEL 8
REMARK VINA RESULT:      -3.7      2.643     12.497
REMARK  10 active torsions:
REMARK  status: ('A' for Active; 'I' for Inactive)
REMARK    1  A    between atoms: O_2  and  C_18 
REMARK    2  A    between atoms: O_5  and  N_8 
REMARK    3  A    between atoms: N_6  and  C_11 
REMARK    4  A    between atoms: N_7  and  C_15 
REMARK       I    between atoms: N_7  and  C_24 
REMARK       I    between atoms: N_8  and  C_23 
REMARK    5  A    between atoms: C_11  and  C_14 
REMARK    6  A    between atoms: C_15  and  C_18 
REMARK    7  A    between atoms: C_15  and  C_23 
REMARK    8  A    between atoms: C_21  and  C_26 
REMARK    9  A    between atoms: C_24  and  C_25 
REMARK   10  A    between atoms: C_29  and  C_32 
ROOT
HETATM    1  O   UNK     0       2.811  14.982  92.307  0.00  0.00    -0.388 OA
HETATM    2  N   UNK     0       1.346  12.572  92.691  0.00  0.00     0.096 N 
HETATM    3  C   UNK     0       1.520  13.546  93.777  0.00  0.00     0.299 C 
HETATM    4  C   UNK     0       2.486  12.639  91.767  0.00  0.00     0.299 C 
HETATM    5  C   UNK     0       1.691  14.947  93.194  0.00  0.00     0.198 C 
HETATM    6  C   UNK     0       2.635  14.060  91.231  0.00  0.00     0.198 C 
ENDROOT
BRANCH   2   7
HETATM    7  C   UNK     0       1.190  11.221  93.227  0.00  0.00     0.311 C 
BRANCH   7   8
HETATM    8  C   UNK     0       2.432  10.409  93.088  0.00  0.00    -0.030 A 
HETATM    9  C   UNK     0       2.419   9.241  92.324  0.00  0.00     0.010 A 
HETATM   10  C   UNK     0       3.580   8.479  92.196  0.00  0.00     0.021 A 
HETATM   11  C   UNK     0       4.754   8.886  92.829  0.00  0.00     0.018 A 
HETATM   12  C   UNK     0       4.768  10.052  93.592  0.00  0.00     0.021 A 
HETATM   13  C   UNK     0       3.607  10.814  93.722  0.00  0.00     0.010 A 
BRANCH  11  14
HETATM   14  C   UNK     0       5.945   8.105  92.695  0.00  0.00    -0.061 C 
HETATM   15  C   UNK     0       6.947   7.449  92.583  0.00  0.00    -0.061 C 
BRANCH  15  16
HETATM   16  C   UNK     0       8.137   6.671  92.449  0.00  0.00     0.018 A 
HETATM   17  C   UNK     0       8.211   5.671  91.477  0.00  0.00     0.022 A 
HETATM   18  C   UNK     0       9.373   4.912  91.345  0.00  0.00     0.018 A 
HETATM   19  C   UNK     0      10.436   5.169  92.185  0.00  0.00     0.032 A 
HETATM   20  C   UNK     0      10.389   6.150  93.153  0.00  0.00     0.018 A 
HETATM   21  C   UNK     0       9.226   6.909  93.287  0.00  0.00     0.022 A 
BRANCH  19  22
HETATM   22  C   UNK     0      11.674   4.359  92.045  0.00  0.00     0.252 C 
HETATM   23  O   UNK     0      12.034   4.003  90.926  0.00  0.00    -0.268 OA
HETATM   24  N   UNK     0      12.356   4.082  93.222  0.00  0.00    -0.341 N 
HETATM   25  H   UNK     0      12.011   4.431  94.109  0.00  0.00     0.163 HD
BRANCH  24  26
HETATM   26  C   UNK     0      13.584   3.329  93.248  0.00  0.00     0.207 C 
BRANCH  26  27
HETATM   27  C   UNK     0      13.555   2.114  92.312  0.00  0.00     0.146 C 
HETATM   28  C   UNK     0      14.492   1.002  92.771  0.00  0.00     0.042 C 
BRANCH  27  29
HETATM   29  O   UNK     0      12.226   1.600  92.238  0.00  0.00    -0.393 OA
HETATM   30  H   UNK     0      12.117   0.936  92.940  0.00  0.00     0.210 HD
ENDBRANCH  27  29
ENDBRANCH  26  27
BRANCH  26  31
HETATM   31  C   UNK     0      14.721   4.280  92.887  0.00  0.00     0.266 C 
HETATM   32  O   UNK     0      14.950   4.643  91.734  0.00  0.00    -0.269 OA
HETATM   33  N   UNK     0      15.464   4.641  93.984  0.00  0.00    -0.236 N 
HETATM   34  H   UNK     0      15.359   4.292  94.930  0.00  0.00     0.197 HD
BRANCH  33  35
HETATM   35  O   UNK     0      16.555   5.485  93.732  0.00  0.00    -0.287 OA
HETATM   36  H   UNK     0      16.832   5.156  92.861  0.00  0.00     0.244 HD
ENDBRANCH  33  35
ENDBRANCH  26  31
ENDBRANCH  24  26
ENDBRANCH  19  22
ENDBRANCH  15  16
ENDBRANCH  11  14
ENDBRANCH   7   8
ENDBRANCH   2   7
TORSDOF 10
ENDMDL
