MODEL 1
REMARK VINA RESULT:      -7.5      0.000      0.000
REMARK  9 active torsions:
REMARK  status: ('A' for Active; 'I' for Inactive)
REMARK    1  A    between atoms: N_3  and  C_6 
REMARK    2  A    between atoms: C_6  and  C_9 
REMARK    3  A    between atoms: C_14  and  C_17 
REMARK       I    between atoms: N_26  and  C_15 
REMARK    4  A    between atoms: C_15  and  C_16 
REMARK    5  A    between atoms: C_20  and  C_23 
REMARK    6  A    between atoms: OG1_24  and  CB_28 
REMARK    7  A    between atoms: N_26  and  CA_27 
REMARK    8  A    between atoms: CA_27  and  CB_28 
REMARK    9  A    between atoms: CA_27  and  C_30 
ROOT
HETATM    1  O   UNK A   0       1.915   8.249  87.837  1.00  0.00    -0.388 OA
HETATM    2  N   UNK A   0       4.691   7.643  87.664  1.00  0.00     0.096 N 
HETATM    3  C   UNK A   0       4.212   9.029  87.751  1.00  0.00     0.299 C 
HETATM    4  C   UNK A   0       3.678   6.800  87.014  1.00  0.00     0.299 C 
HETATM    5  C   UNK A   0       2.881   9.070  88.497  1.00  0.00     0.198 C 
HETATM    6  C   UNK A   0       2.360   6.893  87.775  1.00  0.00     0.198 C 
ENDROOT
BRANCH   2   7
HETATM    7  C   UNK A   0       5.962   7.578  86.943  1.00  0.00     0.311 C 
BRANCH   7   8
HETATM    8  C   UNK A   0       7.050   6.975  87.764  1.00  0.00    -0.030 A 
HETATM    9  C   UNK A   0       8.283   6.683  87.179  1.00  0.00     0.010 A 
HETATM   10  C   UNK A   0       9.301   6.117  87.945  1.00  0.00     0.021 A 
HETATM   11  C   UNK A   0       9.087   5.845  89.296  1.00  0.00     0.018 A 
HETATM   12  C   UNK A   0       7.857   6.136  89.881  1.00  0.00     0.021 A 
HETATM   13  C   UNK A   0       6.838   6.702  89.115  1.00  0.00     0.010 A 
BRANCH  11  14
HETATM   14  C   UNK A   0      10.133   5.266  90.083  1.00  0.00    -0.061 C 
HETATM   15  C   UNK A   0      11.012   4.778  90.743  1.00  0.00    -0.061 C 
BRANCH  15  16
HETATM   16  C   UNK A   0      12.057   4.199  91.528  1.00  0.00     0.018 A 
HETATM   17  C   UNK A   0      11.817   3.848  92.857  1.00  0.00     0.022 A 
HETATM   18  C   UNK A   0      12.837   3.281  93.622  1.00  0.00     0.018 A 
HETATM   19  C   UNK A   0      14.071   3.077  93.042  1.00  0.00     0.032 A 
HETATM   20  C   UNK A   0      14.333   3.416  91.731  1.00  0.00     0.018 A 
HETATM   21  C   UNK A   0      13.315   3.984  90.965  1.00  0.00     0.022 A 
BRANCH  19  22
HETATM   22  C   UNK A   0      15.157   2.475  93.857  1.00  0.00     0.252 C 
HETATM   23  O   UNK A   0      16.304   2.899  93.736  1.00  0.00    -0.268 OA
ENDBRANCH  19  22
ENDBRANCH  15  16
ENDBRANCH  11  14
ENDBRANCH   7   8
ENDBRANCH   2   7
TORSDOF 9
ENDMDL
