MODEL 1
REMARK VINA RESULT:      -7.0      0.000      0.000
REMARK  9 active torsions:
REMARK  status: ('A' for Active; 'I' for Inactive)
REMARK    1  A    between atoms: O_2  and  C_17 
REMARK    2  A    between atoms: N_5  and  C_10 
REMARK    3  A    between atoms: N_6  and  C_14 
REMARK       I    between atoms: N_6  and  C_23 
REMARK       I    between atoms: N_7  and  C_22 
REMARK    4  A    between atoms: C_10  and  C_13 
REMARK    5  A    between atoms: C_14  and  C_17 
REMARK    6  A    between atoms: C_14  and  C_22 
REMARK    7  A    between atoms: C_20  and  C_25 
REMARK    8  A    between atoms: C_23  and  C_24 
REMARK    9  A    between atoms: C_28  and  C_31 
ROOT
HETATM    1  O   UNL     1      16.105   3.971  93.929  1.00  0.00    -0.388 OA
HETATM    2  N   UNL     1      14.183   2.526  92.406  1.00  0.00     0.096 N 
HETATM    3  C   UNL     1      14.355   3.977  92.247  1.00  0.00     0.299 C 
HETATM    4  C   UNL     1      14.542   2.123  93.773  1.00  0.00     0.299 C 
HETATM    5  C   UNL     1      15.790   4.368  92.593  1.00  0.00     0.198 C 
HETATM    6  C   UNL     1      15.970   2.558  94.083  1.00  0.00     0.198 C 
ENDROOT
BRANCH   2   7
HETATM    7  C   UNL     1      12.812   2.130  92.090  1.00  0.00     0.311 C 
BRANCH   7   8
HETATM    8  C   UNL     1      11.942   3.299  91.774  1.00  0.00    -0.030 A 
HETATM    9  C   UNL     1      11.686   3.638  90.445  1.00  0.00     0.010 A 
HETATM   10  C   UNL     1      10.873   4.732  90.149  1.00  0.00     0.021 A 
HETATM   11  C   UNL     1      10.316   5.485  91.182  1.00  0.00     0.018 A 
HETATM   12  C   UNL     1      10.570   5.147  92.509  1.00  0.00     0.021 A 
HETATM   13  C   UNL     1      11.383   4.053  92.806  1.00  0.00     0.010 A 
BRANCH  11  14
HETATM   14  C   UNL     1       9.480   6.606  90.877  1.00  0.00    -0.061 C 
HETATM   15  C   UNL     1       8.778   7.548  90.621  1.00  0.00    -0.061 C 
BRANCH  15  16
HETATM   16  C   UNL     1       7.943   8.668  90.317  1.00  0.00     0.018 A 
HETATM   17  C   UNL     1       6.595   8.648  90.675  1.00  0.00     0.022 A 
HETATM   18  C   UNL     1       5.781   9.742  90.381  1.00  0.00     0.018 A 
HETATM   19  C   UNL     1       6.332  10.830  89.737  1.00  0.00     0.032 A 
HETATM   20  C   UNL     1       7.662  10.873  89.372  1.00  0.00     0.018 A 
HETATM   21  C   UNL     1       8.477   9.780  89.666  1.00  0.00     0.022 A 
BRANCH  19  22
HETATM   22  C   UNL     1       5.464  11.994  89.422  1.00  0.00     0.252 C 
HETATM   23  O   UNL     1       5.451  12.440  88.277  1.00  0.00    -0.268 OA
HETATM   24  N   UNL     1       4.698  12.482  90.471  1.00  0.00    -0.342 N 
HETATM   25  H   UNL     1       4.742  12.046  91.385  1.00  0.00     0.163 HD
BRANCH  24  26
HETATM   26  C   UNL     1       3.789  13.590  90.317  1.00  0.00     0.199 C 
BRANCH  26  27
HETATM   27  C   UNL     1       2.500  13.417  91.130  1.00  0.00     0.145 C 
HETATM   28  C   UNL     1       2.726  12.648  92.427  1.00  0.00     0.042 C 
BRANCH  27  29
HETATM   29  O   UNL     1       1.955  14.699  91.440  1.00  0.00    -0.393 OA
HETATM   30  H   UNL     1       1.107  14.791  90.973  1.00  0.00     0.210 HD
ENDBRANCH  27  29
ENDBRANCH  26  27
BRANCH  26  31
HETATM   31  C   UNL     1       4.532  14.860  90.719  1.00  0.00     0.220 C 
HETATM   32  O   UNL     1       4.750  15.166  91.890  1.00  0.00    -0.278 OA
HETATM   33  N   UNL     1       4.883  15.622  89.632  1.00  0.00    -0.271 NA
HETATM   34  H   UNL     1       4.641  15.446  88.663  1.00  0.00     0.127 HD
HETATM   35  H   UNL     1       4.339  16.848  89.214  1.00  0.00     0.127 HD
ENDBRANCH  26  31
ENDBRANCH  24  26
ENDBRANCH  19  22
ENDBRANCH  15  16
ENDBRANCH  11  14
ENDBRANCH   7   8
ENDBRANCH   2   7
TORSDOF 9
ENDMDL
