MODEL 1
REMARK VINA RESULT:      -6.9      0.000      0.000
REMARK  11 active torsions:
REMARK  status: ('A' for Active; 'I' for Inactive)
REMARK    1  A    between atoms: O_2  and  C_18 
REMARK    2  A    between atoms: O_5  and  P_8 
REMARK    3  A    between atoms: N_6  and  C_11 
REMARK    4  A    between atoms: N_7  and  C_15 
REMARK       I    between atoms: N_7  and  C_24 
REMARK    5  A    between atoms: P_8  and  C_23 
REMARK    6  A    between atoms: C_11  and  C_14 
REMARK    7  A    between atoms: C_15  and  C_18 
REMARK    8  A    between atoms: C_15  and  C_23 
REMARK    9  A    between atoms: C_21  and  C_26 
REMARK   10  A    between atoms: C_24  and  C_25 
REMARK   11  A    between atoms: C_29  and  C_32 
ROOT
HETATM    1  O   UNL     1      16.535   4.299  94.123  1.00  0.00     0.000 OA
HETATM    2  N   UNL     1      14.668   2.667  92.725  1.00  0.00     0.000 N 
HETATM    3  C   UNL     1      14.562   4.133  92.720  1.00  0.00     0.000 C 
HETATM    4  C   UNL     1      15.306   2.213  93.969  1.00  0.00     0.000 C 
HETATM    5  C   UNL     1      15.945   4.752  92.903  1.00  0.00     0.000 C 
HETATM    6  C   UNL     1      16.670   2.877  94.124  1.00  0.00     0.000 C 
ENDROOT
BRANCH   2   7
HETATM    7  C   UNL     1      13.352   2.052  92.562  1.00  0.00     0.000 C 
BRANCH   7   8
HETATM    8  C   UNL     1      12.295   3.051  92.234  1.00  0.00     0.000 A 
HETATM    9  C   UNL     1      11.747   3.843  93.244  1.00  0.00     0.000 A 
HETATM   10  C   UNL     1      10.757   4.777  92.938  1.00  0.00     0.000 A 
HETATM   11  C   UNL     1      10.317   4.919  91.623  1.00  0.00     0.000 A 
HETATM   12  C   UNL     1      10.863   4.129  90.613  1.00  0.00     0.000 A 
HETATM   13  C   UNL     1      11.853   3.195  90.918  1.00  0.00     0.000 A 
BRANCH  11  14
HETATM   14  C   UNL     1       9.302   5.879  91.309  1.00  0.00     0.000 C 
HETATM   15  C   UNL     1       8.449   6.684  91.046  1.00  0.00     0.000 C 
BRANCH  15  16
HETATM   16  C   UNL     1       7.436   7.643  90.734  1.00  0.00     0.000 A 
HETATM   17  C   UNL     1       6.907   8.450  91.741  1.00  0.00     0.000 A 
HETATM   18  C   UNL     1       5.920   9.387  91.435  1.00  0.00     0.000 A 
HETATM   19  C   UNL     1       5.485   9.496  90.131  1.00  0.00     0.000 A 
HETATM   20  C   UNL     1       5.992   8.710  89.118  1.00  0.00     0.000 A 
HETATM   21  C   UNL     1       6.979   7.772  89.422  1.00  0.00     0.000 A 
BRANCH  19  22
HETATM   22  C   UNL     1       4.432  10.493  89.806  1.00  0.00     0.000 C 
HETATM   23  O   UNL     1       3.422  10.127  89.211  1.00  0.00     0.000 OA
HETATM   24  N   UNL     1       4.671  11.792  90.235  1.00  0.00     0.000 N 
HETATM   25  HN  UNL     1       5.518  12.016  90.744  1.00  0.00     0.000 HD
BRANCH  24  26
HETATM   26  C   UNL     1       3.735  12.865  90.018  1.00  0.00     0.000 C 
BRANCH  26  27
HETATM   27  C   UNL     1       3.008  13.288  91.301  1.00  0.00     0.000 C 
HETATM   28  C   UNL     1       2.499  12.095  92.104  1.00  0.00     0.000 C 
BRANCH  27  29
HETATM   29  O   UNL     1       3.891  14.054  92.119  1.00  0.00     0.000 OA
HETATM   30  H   UNL     1       3.361  14.697  92.621  1.00  0.00     0.000 HD
ENDBRANCH  27  29
ENDBRANCH  26  27
BRANCH  26  31
HETATM   31  C   UNL     1       4.499  14.033  89.403  1.00  0.00     0.000 C 
HETATM   32  O   UNL     1       4.428  15.182  89.836  1.00  0.00     0.000 OA
BRANCH  31  33
HETATM   33  P   UNL     1       5.231  13.653  88.304  1.00  0.00     0.000 P 
HETATM   34  H   UNL     1       5.728  14.796  87.711  1.00  0.00     0.000 HD
BRANCH  33  35
HETATM   35  O   UNL     1       4.534  12.930  87.327  1.00  0.00     0.000 OA
HETATM   36  H   UNL     1       5.199  12.908  86.618  1.00  0.00     0.000 HD
ENDBRANCH  33  35
ENDBRANCH  31  33
ENDBRANCH  26  31
ENDBRANCH  24  26
ENDBRANCH  19  22
ENDBRANCH  15  16
ENDBRANCH  11  14
ENDBRANCH   7   8
ENDBRANCH   2   7
TORSDOF 11
ENDMDL
