MODEL 1
REMARK VINA RESULT:      -6.9      0.000      0.000
REMARK  11 active torsions:
REMARK  status: ('A' for Active; 'I' for Inactive)
REMARK    1  A    between atoms: O_2  and  C_18 
REMARK    2  A    between atoms: O_5  and  P_8 
REMARK    3  A    between atoms: N_6  and  C_11 
REMARK    4  A    between atoms: N_7  and  C_15 
REMARK       I    between atoms: N_7  and  C_24 
REMARK    5  A    between atoms: P_8  and  C_23 
REMARK    6  A    between atoms: C_11  and  C_14 
REMARK    7  A    between atoms: C_15  and  C_18 
REMARK    8  A    between atoms: C_15  and  C_23 
REMARK    9  A    between atoms: C_21  and  C_26 
REMARK   10  A    between atoms: C_24  and  C_25 
REMARK   11  A    between atoms: C_29  and  C_32 
ROOT
HETATM    1  O   UNL     1      16.157   3.992  94.124  1.00  0.00     0.000 OA
HETATM    2  N   UNL     1      14.325   2.636  92.417  1.00  0.00     0.000 N 
HETATM    3  C   UNL     1      14.376   4.104  92.479  1.00  0.00     0.000 C 
HETATM    4  C   UNL     1      14.745   2.064  93.704  1.00  0.00     0.000 C 
HETATM    5  C   UNL     1      15.781   4.557  92.866  1.00  0.00     0.000 C 
HETATM    6  C   UNL     1      16.140   2.565  94.063  1.00  0.00     0.000 C 
ENDROOT
BRANCH   2   7
HETATM    7  C   UNL     1      12.984   2.179  92.058  1.00  0.00     0.000 C 
BRANCH   7   8
HETATM    8  C   UNL     1      12.057   3.310  91.768  1.00  0.00     0.000 A 
HETATM    9  C   UNL     1      11.260   3.836  92.785  1.00  0.00     0.000 A 
HETATM   10  C   UNL     1      10.391   4.893  92.515  1.00  0.00     0.000 A 
HETATM   11  C   UNL     1      10.321   5.425  91.227  1.00  0.00     0.000 A 
HETATM   12  C   UNL     1      11.117   4.901  90.211  1.00  0.00     0.000 A 
HETATM   13  C   UNL     1      11.986   3.844  90.481  1.00  0.00     0.000 A 
BRANCH  11  14
HETATM   14  C   UNL     1       9.431   6.510  90.950  1.00  0.00     0.000 C 
HETATM   15  C   UNL     1       8.683   7.422  90.718  1.00  0.00     0.000 C 
BRANCH  15  16
HETATM   16  C   UNL     1       7.795   8.508  90.442  1.00  0.00     0.000 A 
HETATM   17  C   UNL     1       6.464   8.441  90.857  1.00  0.00     0.000 A 
HETATM   18  C   UNL     1       5.598   9.502  90.590  1.00  0.00     0.000 A 
HETATM   19  C   UNL     1       6.081  10.603  89.915  1.00  0.00     0.000 A 
HETATM   20  C   UNL     1       7.391  10.692  89.494  1.00  0.00     0.000 A 
HETATM   21  C   UNL     1       8.258   9.633  89.760  1.00  0.00     0.000 A 
BRANCH  19  22
HETATM   22  C   UNL     1       5.157  11.731  89.629  1.00  0.00     0.000 C 
HETATM   23  O   UNL     1       4.899  12.013  88.461  1.00  0.00     0.000 OA
HETATM   24  N   UNL     1       4.627  12.379  90.736  1.00  0.00     0.000 N 
HETATM   25  HN  UNL     1       4.867  12.074  91.672  1.00  0.00     0.000 HD
BRANCH  24  26
HETATM   26  C   UNL     1       3.698  13.475  90.623  1.00  0.00     0.000 C 
BRANCH  26  27
HETATM   27  C   UNL     1       2.375  13.209  91.351  1.00  0.00     0.000 C 
HETATM   28  C   UNL     1       2.527  12.213  92.495  1.00  0.00     0.000 C 
BRANCH  27  29
HETATM   29  O   UNL     1       1.860  14.435  91.869  1.00  0.00     0.000 OA
HETATM   30  H   UNL     1       1.909  14.400  92.839  1.00  0.00     0.000 HD
ENDBRANCH  27  29
ENDBRANCH  26  27
BRANCH  26  31
HETATM   31  C   UNL     1       4.386  14.725  91.161  1.00  0.00     0.000 C 
HETATM   32  O   UNL     1       4.505  14.959  92.362  1.00  0.00     0.000 OA
BRANCH  31  33
HETATM   33  P   UNL     1       4.811  15.558  90.154  1.00  0.00     0.000 P 
HETATM   34  H   UNL     1       3.705  16.212  89.651  1.00  0.00     0.000 HD
BRANCH  33  35
HETATM   35  O   UNL     1       5.466  14.935  89.083  1.00  0.00     0.000 OA
HETATM   36  H   UNL     1       6.345  15.345  89.153  1.00  0.00     0.000 HD
ENDBRANCH  33  35
ENDBRANCH  31  33
ENDBRANCH  26  31
ENDBRANCH  24  26
ENDBRANCH  19  22
ENDBRANCH  15  16
ENDBRANCH  11  14
ENDBRANCH   7   8
ENDBRANCH   2   7
TORSDOF 11
ENDMDL
