MODEL 1
REMARK VINA RESULT:      -6.5      0.000      0.000
REMARK  14 active torsions:
REMARK  status: ('A' for Active; 'I' for Inactive)
REMARK    1  A    between atoms: O_2  and  C_18 
REMARK    2  A    between atoms: C_5  and  C_8 
REMARK    3  A    between atoms: C_5  and  O_35 
REMARK    4  A    between atoms: C_5  and  C_36 
REMARK    5  A    between atoms: N_6  and  C_11 
REMARK    6  A    between atoms: N_7  and  C_15 
REMARK       I    between atoms: N_7  and  C_24 
REMARK    7  A    between atoms: C_8  and  C_23 
REMARK    8  A    between atoms: C_11  and  C_14 
REMARK    9  A    between atoms: C_15  and  C_18 
REMARK   10  A    between atoms: C_15  and  C_23 
REMARK   11  A    between atoms: C_21  and  C_26 
REMARK   12  A    between atoms: C_24  and  C_25 
REMARK   13  A    between atoms: C_29  and  C_32 
REMARK   14  A    between atoms: C_36  and  O_39 
ROOT
HETATM    1  O   UNL     1      16.445   3.252  93.565  1.00  0.00    -0.350 OA
HETATM    2  N   UNL     1      13.730   2.871  92.801  1.00  0.00     0.147 N 
HETATM    3  C   UNL     1      14.599   1.735  93.141  1.00  0.00     0.283 C 
HETATM    4  C   UNL     1      14.534   3.974  92.258  1.00  0.00     0.283 C 
HETATM    5  C   UNL     1      15.677   2.185  94.124  1.00  0.00     0.178 C 
HETATM    6  C   UNL     1      15.612   4.372  93.260  1.00  0.00     0.178 C 
ENDROOT
BRANCH   2   7
HETATM    7  C   UNL     1      12.696   2.464  91.851  1.00  0.00     0.277 C 
BRANCH   7   8
HETATM    8  C   UNL     1      11.555   3.423  91.809  1.00  0.00     0.011 A 
HETATM    9  C   UNL     1      11.033   3.937  92.997  1.00  0.00    -0.002 A 
HETATM   10  C   UNL     1       9.964   4.832  92.959  1.00  0.00     0.008 A 
HETATM   11  C   UNL     1       9.420   5.215  91.734  1.00  0.00     0.042 A 
HETATM   12  C   UNL     1       9.940   4.703  90.547  1.00  0.00     0.008 A 
HETATM   13  C   UNL     1      11.008   3.807  90.585  1.00  0.00    -0.002 A 
BRANCH  11  14
HETATM   14  C   UNL     1       8.325   6.135  91.695  1.00  0.00    -0.059 C 
HETATM   15  C   UNL     1       7.405   6.908  91.663  1.00  0.00    -0.059 C 
BRANCH  15  16
HETATM   16  C   UNL     1       6.311   7.828  91.625  1.00  0.00     0.042 A 
HETATM   17  C   UNL     1       5.122   7.525  92.290  1.00  0.00     0.008 A 
HETATM   18  C   UNL     1       4.056   8.424  92.255  1.00  0.00     0.005 A 
HETATM   19  C   UNL     1       4.203   9.605  91.558  1.00  0.00     0.056 A 
HETATM   20  C   UNL     1       5.367   9.928  90.893  1.00  0.00     0.005 A 
HETATM   21  C   UNL     1       6.434   9.030  90.927  1.00  0.00     0.008 A 
BRANCH  19  22
HETATM   22  C   UNL     1       3.066  10.562  91.519  1.00  0.00     0.254 C 
HETATM   23  O   UNL     1       1.933  10.138  91.303  1.00  0.00    -0.268 OA
HETATM   24  N   UNL     1       3.382  11.891  91.762  1.00  0.00    -0.335 N 
HETATM   25  HN  UNL     1       4.338  12.164  91.958  1.00  0.00     0.164 HD
BRANCH  24  26
HETATM   26  C   UNL     1       2.387  12.933  91.782  1.00  0.00     0.169 C 
BRANCH  26  27
HETATM   27  C   UNL     1       2.331  13.674  93.124  1.00  0.00     0.138 C 
HETATM   28  C   UNL     1       3.596  13.479  93.952  1.00  0.00     0.034 C 
BRANCH  27  29
HETATM   29  O   UNL     1       2.140  15.069  92.892  1.00  0.00    -0.383 OA
HETATM   30  H   UNL     1       2.463  15.276  91.999  1.00  0.00     0.210 HD
ENDBRANCH  27  29
ENDBRANCH  26  27
BRANCH  26  31
HETATM   31  C   UNL     1       2.691  13.890  90.634  1.00  0.00     0.194 C 
HETATM   32  O   UNL     1       1.813  14.451  89.980  1.00  0.00    -0.289 OA
BRANCH  31  33
HETATM   33  C   UNL     1       4.039  14.011  90.402  1.00  0.00     0.053 C 
BRANCH  33  34
HETATM   34  C   UNL     1       4.405  14.344  89.090  1.00  0.00     0.220 C 
BRANCH  34  35
HETATM   35  O   UNL     1       5.312  15.196  89.153  1.00  0.00    -0.371 OA
HETATM   36  H   UNL     1       5.339  15.293  90.092  1.00  0.00     0.211 HD
ENDBRANCH  34  35
BRANCH  34  37
HETATM   37  C   UNL     1       4.770  13.233  88.311  1.00  0.00     0.185 C 
HETATM   38  O   UNL     1       5.645  13.038  89.286  1.00  0.00    -0.647 OA
BRANCH  37  39
HETATM   39  O   UNL     1       4.453  12.759  87.261  1.00  0.00    -0.774 OA
HETATM   40  H   UNL     1       3.824  11.825  87.397  1.00  0.00     0.167 HD
ENDBRANCH  37  39
ENDBRANCH  34  37
ENDBRANCH  33  34
ENDBRANCH  31  33
ENDBRANCH  26  31
ENDBRANCH  24  26
ENDBRANCH  19  22
ENDBRANCH  15  16
ENDBRANCH  11  14
ENDBRANCH   7   8
ENDBRANCH   2   7
TORSDOF 14
ENDMDL
