MODEL 1
REMARK VINA RESULT:      -6.9      0.000      0.000
REMARK  10 active torsions:
REMARK  status: ('A' for Active; 'I' for Inactive)
REMARK    1  A    between atoms: O_2  and  C_18 
REMARK    2  A    between atoms: O_5  and  N_8 
REMARK    3  A    between atoms: N_6  and  C_11 
REMARK    4  A    between atoms: N_7  and  C_15 
REMARK       I    between atoms: N_7  and  C_24 
REMARK       I    between atoms: N_8  and  C_23 
REMARK    5  A    between atoms: C_11  and  C_14 
REMARK    6  A    between atoms: C_15  and  C_18 
REMARK    7  A    between atoms: C_15  and  C_23 
REMARK    8  A    between atoms: C_21  and  C_26 
REMARK    9  A    between atoms: C_24  and  C_25 
REMARK   10  A    between atoms: C_29  and  C_32 
ROOT
HETATM    1  O   UNK     0      16.861   4.331  94.124  0.00  0.00    -0.388 OA
HETATM    2  N   UNK     0      14.939   2.645  92.874  0.00  0.00     0.096 N 
HETATM    3  C   UNK     0      14.798   4.108  92.866  0.00  0.00     0.299 C 
HETATM    4  C   UNK     0      15.673   2.216  94.071  0.00  0.00     0.299 C 
HETATM    5  C   UNK     0      16.175   4.760  92.946  0.00  0.00     0.198 C 
HETATM    6  C   UNK     0      17.030   2.913  94.124  0.00  0.00     0.198 C 
ENDROOT
BRANCH   2   7
HETATM    7  C   UNK     0      13.630   1.998  92.809  0.00  0.00     0.311 C 
BRANCH   7   8
HETATM    8  C   UNK     0      12.544   2.949  92.434  0.00  0.00    -0.030 A 
HETATM    9  C   UNK     0      11.927   3.724  93.416  0.00  0.00     0.010 A 
HETATM   10  C   UNK     0      10.911   4.613  93.067  0.00  0.00     0.021 A 
HETATM   11  C   UNK     0      10.513   4.727  91.735  0.00  0.00     0.018 A 
HETATM   12  C   UNK     0      11.128   3.954  90.753  0.00  0.00     0.021 A 
HETATM   13  C   UNK     0      12.145   3.064  91.102  0.00  0.00     0.010 A 
BRANCH  11  14
HETATM   14  C   UNK     0       9.471   5.640  91.377  0.00  0.00    -0.061 C 
HETATM   15  C   UNK     0       8.596   6.407  91.076  0.00  0.00    -0.061 C 
BRANCH  15  16
HETATM   16  C   UNK     0       7.556   7.319  90.717  0.00  0.00     0.018 A 
HETATM   17  C   UNK     0       7.578   8.627  91.204  0.00  0.00     0.022 A 
HETATM   18  C   UNK     0       6.565   9.518  90.852  0.00  0.00     0.018 A 
HETATM   19  C   UNK     0       5.553   9.084  90.021  0.00  0.00     0.032 A 
HETATM   20  C   UNK     0       5.509   7.798  89.527  0.00  0.00     0.018 A 
HETATM   21  C   UNK     0       6.521   6.905  89.879  0.00  0.00     0.022 A 
BRANCH  19  22
HETATM   22  C   UNK     0       4.473  10.034  89.648  0.00  0.00     0.252 C 
HETATM   23  O   UNK     0       3.552   9.644  88.935  0.00  0.00    -0.268 OA
HETATM   24  N   UNK     0       4.582  11.315  90.172  0.00  0.00    -0.341 N 
HETATM   25  H   UNK     0       5.359  11.558  90.775  0.00  0.00     0.163 HD
BRANCH  24  26
HETATM   26  C   UNK     0       3.602  12.341  89.922  0.00  0.00     0.207 C 
BRANCH  26  27
HETATM   27  C   UNK     0       3.180  13.082  91.196  0.00  0.00     0.146 C 
HETATM   28  C   UNK     0       2.215  12.269  92.052  0.00  0.00     0.042 C 
BRANCH  27  29
HETATM   29  O   UNK     0       4.337  13.395  91.972  0.00  0.00    -0.393 OA
HETATM   30  H   UNK     0       4.235  12.987  92.849  0.00  0.00     0.210 HD
ENDBRANCH  27  29
ENDBRANCH  26  27
BRANCH  26  31
HETATM   31  C   UNK     0       4.185  13.300  88.889  0.00  0.00     0.266 C 
HETATM   32  O   UNK     0       4.371  14.495  89.115  0.00  0.00    -0.269 OA
HETATM   33  N   UNK     0       4.434  12.682  87.688  0.00  0.00    -0.236 N 
HETATM   34  H   UNK     0       4.211  11.725  87.441  0.00  0.00     0.197 HD
BRANCH  33  35
HETATM   35  O   UNK     0       4.937  13.505  86.671  0.00  0.00    -0.287 OA
HETATM   36  H   UNK     0       4.121  13.686  86.174  0.00  0.00     0.244 HD
ENDBRANCH  33  35
ENDBRANCH  26  31
ENDBRANCH  24  26
ENDBRANCH  19  22
ENDBRANCH  15  16
ENDBRANCH  11  14
ENDBRANCH   7   8
ENDBRANCH   2   7
TORSDOF 10
ENDMDL
MODEL 2
REMARK VINA RESULT:      -6.7      1.532      2.080
REMARK  10 active torsions:
REMARK  status: ('A' for Active; 'I' for Inactive)
REMARK    1  A    between atoms: O_2  and  C_18 
REMARK    2  A    between atoms: O_5  and  N_8 
REMARK    3  A    between atoms: N_6  and  C_11 
REMARK    4  A    between atoms: N_7  and  C_15 
REMARK       I    between atoms: N_7  and  C_24 
REMARK       I    between atoms: N_8  and  C_23 
REMARK    5  A    between atoms: C_11  and  C_14 
REMARK    6  A    between atoms: C_15  and  C_18 
REMARK    7  A    between atoms: C_15  and  C_23 
REMARK    8  A    between atoms: C_21  and  C_26 
REMARK    9  A    between atoms: C_24  and  C_25 
REMARK   10  A    between atoms: C_29  and  C_32 
ROOT
HETATM    1  O   UNK     0      16.846   3.699  93.814  0.00  0.00    -0.388 OA
HETATM    2  N   UNK     0      14.220   3.025  92.948  0.00  0.00     0.096 N 
HETATM    3  C   UNK     0      15.278   2.010  93.052  0.00  0.00     0.299 C 
HETATM    4  C   UNK     0      14.810   4.339  92.662  0.00  0.00     0.299 C 
HETATM    5  C   UNK     0      16.285   2.422  94.124  0.00  0.00     0.198 C 
HETATM    6  C   UNK     0      15.827   4.696  93.742  0.00  0.00     0.198 C 
ENDROOT
BRANCH   2   7
HETATM    7  C   UNK     0      13.249   2.656  91.919  0.00  0.00     0.311 C 
BRANCH   7   8
HETATM    8  C   UNK     0      12.130   3.635  91.817  0.00  0.00    -0.030 A 
HETATM    9  C   UNK     0      11.840   4.237  90.592  0.00  0.00     0.010 A 
HETATM   10  C   UNK     0      10.794   5.155  90.496  0.00  0.00     0.021 A 
HETATM   11  C   UNK     0      10.038   5.469  91.625  0.00  0.00     0.018 A 
HETATM   12  C   UNK     0      10.326   4.868  92.849  0.00  0.00     0.021 A 
HETATM   13  C   UNK     0      11.372   3.951  92.945  0.00  0.00     0.010 A 
BRANCH  11  14
HETATM   14  C   UNK     0       8.964   6.409  91.526  0.00  0.00    -0.061 C 
HETATM   15  C   UNK     0       8.061   7.198  91.443  0.00  0.00    -0.061 C 
BRANCH  15  16
HETATM   16  C   UNK     0       6.988   8.137  91.343  0.00  0.00     0.018 A 
HETATM   17  C   UNK     0       7.260   9.480  91.079  0.00  0.00     0.022 A 
HETATM   18  C   UNK     0       6.213  10.396  90.979  0.00  0.00     0.018 A 
HETATM   19  C   UNK     0       4.919   9.950  91.144  0.00  0.00     0.032 A 
HETATM   20  C   UNK     0       4.623   8.629  91.406  0.00  0.00     0.018 A 
HETATM   21  C   UNK     0       5.670   7.712  91.507  0.00  0.00     0.022 A 
BRANCH  19  22
HETATM   22  C   UNK     0       3.804  10.927  91.040  0.00  0.00     0.252 C 
HETATM   23  O   UNK     0       2.790  10.616  90.419  0.00  0.00    -0.268 OA
HETATM   24  N   UNK     0       3.993  12.138  91.691  0.00  0.00    -0.341 N 
HETATM   25  H   UNK     0       4.848  12.315  92.206  0.00  0.00     0.163 HD
BRANCH  24  26
HETATM   26  C   UNK     0       2.995  13.177  91.702  0.00  0.00     0.207 C 
BRANCH  26  27
HETATM   27  C   UNK     0       2.899  13.893  93.055  0.00  0.00     0.146 C 
HETATM   28  C   UNK     0       4.084  13.586  93.964  0.00  0.00     0.042 C 
BRANCH  27  29
HETATM   29  O   UNK     0       2.829  15.303  92.846  0.00  0.00    -0.393 OA
HETATM   30  H   UNK     0       3.671  15.596  92.459  0.00  0.00     0.210 HD
ENDBRANCH  27  29
ENDBRANCH  26  27
BRANCH  26  31
HETATM   31  C   UNK     0       3.329  14.155  90.580  0.00  0.00     0.266 C 
HETATM   32  O   UNK     0       2.543  14.428  89.675  0.00  0.00    -0.269 OA
HETATM   33  N   UNK     0       4.605  14.651  90.686  0.00  0.00    -0.236 N 
HETATM   34  H   UNK     0       5.307  14.380  91.365  0.00  0.00     0.197 HD
BRANCH  33  35
HETATM   35  O   UNK     0       5.005  15.530  89.670  0.00  0.00    -0.287 OA
HETATM   36  H   UNK     0       4.222  16.106  89.619  0.00  0.00     0.244 HD
ENDBRANCH  33  35
ENDBRANCH  26  31
ENDBRANCH  24  26
ENDBRANCH  19  22
ENDBRANCH  15  16
ENDBRANCH  11  14
ENDBRANCH   7   8
ENDBRANCH   2   7
TORSDOF 10
ENDMDL
MODEL 3
REMARK VINA RESULT:      -6.0      1.477      2.593
REMARK  10 active torsions:
REMARK  status: ('A' for Active; 'I' for Inactive)
REMARK    1  A    between atoms: O_2  and  C_18 
REMARK    2  A    between atoms: O_5  and  N_8 
REMARK    3  A    between atoms: N_6  and  C_11 
REMARK    4  A    between atoms: N_7  and  C_15 
REMARK       I    between atoms: N_7  and  C_24 
REMARK       I    between atoms: N_8  and  C_23 
REMARK    5  A    between atoms: C_11  and  C_14 
REMARK    6  A    between atoms: C_15  and  C_18 
REMARK    7  A    between atoms: C_15  and  C_23 
REMARK    8  A    between atoms: C_21  and  C_26 
REMARK    9  A    between atoms: C_24  and  C_25 
REMARK   10  A    between atoms: C_29  and  C_32 
ROOT
HETATM    1  O   UNK     0      15.883   4.240  93.905  0.00  0.00    -0.388 OA
HETATM    2  N   UNK     0      14.183   2.622  92.295  0.00  0.00     0.096 N 
HETATM    3  C   UNK     0      14.301   4.070  92.073  0.00  0.00     0.299 C 
HETATM    4  C   UNK     0      14.429   2.308  93.708  0.00  0.00     0.299 C 
HETATM    5  C   UNK     0      15.676   4.553  92.526  0.00  0.00     0.198 C 
HETATM    6  C   UNK     0      15.801   2.832  94.124  0.00  0.00     0.198 C 
ENDROOT
BRANCH   2   7
HETATM    7  C   UNK     0      12.868   2.139  91.877  0.00  0.00     0.311 C 
BRANCH   7   8
HETATM    8  C   UNK     0      11.873   3.242  91.747  0.00  0.00    -0.030 A 
HETATM    9  C   UNK     0      11.528   3.723  90.483  0.00  0.00     0.010 A 
HETATM   10  C   UNK     0      10.599   4.756  90.360  0.00  0.00     0.021 A 
HETATM   11  C   UNK     0      10.015   5.306  91.501  0.00  0.00     0.018 A 
HETATM   12  C   UNK     0      10.359   4.826  92.763  0.00  0.00     0.021 A 
HETATM   13  C   UNK     0      11.288   3.794  92.886  0.00  0.00     0.010 A 
BRANCH  11  14
HETATM   14  C   UNK     0       9.060   6.364  91.375  0.00  0.00    -0.061 C 
HETATM   15  C   UNK     0       8.258   7.254  91.268  0.00  0.00    -0.061 C 
BRANCH  15  16
HETATM   16  C   UNK     0       7.305   8.311  91.144  0.00  0.00     0.018 A 
HETATM   17  C   UNK     0       7.677   9.623  91.439  0.00  0.00     0.022 A 
HETATM   18  C   UNK     0       6.748  10.656  91.316  0.00  0.00     0.018 A 
HETATM   19  C   UNK     0       5.468  10.355  90.899  0.00  0.00     0.032 A 
HETATM   20  C   UNK     0       5.075   9.067  90.601  0.00  0.00     0.018 A 
HETATM   21  C   UNK     0       6.004   8.034  90.725  0.00  0.00     0.022 A 
BRANCH  19  22
HETATM   22  C   UNK     0       4.478  11.455  90.769  0.00  0.00     0.252 C 
HETATM   23  O   UNK     0       3.367  11.210  90.305  0.00  0.00    -0.268 OA
HETATM   24  N   UNK     0       4.892  12.701  91.219  0.00  0.00    -0.341 N 
HETATM   25  H   UNK     0       5.817  12.823  91.614  0.00  0.00     0.163 HD
BRANCH  24  26
HETATM   26  C   UNK     0       4.038  13.861  91.182  0.00  0.00     0.207 C 
BRANCH  26  27
HETATM   27  C   UNK     0       3.747  14.340  89.754  0.00  0.00     0.146 C 
HETATM   28  C   UNK     0       4.960  14.216  88.838  0.00  0.00     0.042 C 
BRANCH  27  29
HETATM   29  O   UNK     0       2.672  13.578  89.205  0.00  0.00    -0.393 OA
HETATM   30  H   UNK     0       2.839  13.455  88.256  0.00  0.00     0.210 HD
ENDBRANCH  27  29
ENDBRANCH  26  27
BRANCH  26  31
HETATM   31  C   UNK     0       2.751  13.516  91.924  0.00  0.00     0.266 C 
HETATM   32  O   UNK     0       1.664  14.024  91.653  0.00  0.00    -0.269 OA
HETATM   33  N   UNK     0       2.963  12.614  92.939  0.00  0.00    -0.236 N 
HETATM   34  H   UNK     0       3.855  12.246  93.246  0.00  0.00     0.197 HD
BRANCH  33  35
HETATM   35  O   UNK     0       1.834  12.272  93.697  0.00  0.00    -0.287 OA
HETATM   36  H   UNK     0       1.209  12.048  92.987  0.00  0.00     0.244 HD
ENDBRANCH  33  35
ENDBRANCH  26  31
ENDBRANCH  24  26
ENDBRANCH  19  22
ENDBRANCH  15  16
ENDBRANCH  11  14
ENDBRANCH   7   8
ENDBRANCH   2   7
TORSDOF 10
ENDMDL
MODEL 4
REMARK VINA RESULT:      -5.8      1.787      2.462
REMARK  10 active torsions:
REMARK  status: ('A' for Active; 'I' for Inactive)
REMARK    1  A    between atoms: O_2  and  C_18 
REMARK    2  A    between atoms: O_5  and  N_8 
REMARK    3  A    between atoms: N_6  and  C_11 
REMARK    4  A    between atoms: N_7  and  C_15 
REMARK       I    between atoms: N_7  and  C_24 
REMARK       I    between atoms: N_8  and  C_23 
REMARK    5  A    between atoms: C_11  and  C_14 
REMARK    6  A    between atoms: C_15  and  C_18 
REMARK    7  A    between atoms: C_15  and  C_23 
REMARK    8  A    between atoms: C_21  and  C_26 
REMARK    9  A    between atoms: C_24  and  C_25 
REMARK   10  A    between atoms: C_29  and  C_32 
ROOT
HETATM    1  O   UNK     0      16.033   3.913  93.911  0.00  0.00    -0.388 OA
HETATM    2  N   UNK     0      14.150   2.517  92.295  0.00  0.00     0.096 N 
HETATM    3  C   UNK     0      14.432   3.944  92.086  0.00  0.00     0.299 C 
HETATM    4  C   UNK     0      14.365   2.163  93.704  0.00  0.00     0.299 C 
HETATM    5  C   UNK     0      15.857   4.260  92.536  0.00  0.00     0.198 C 
HETATM    6  C   UNK     0      15.790   2.521  94.117  0.00  0.00     0.198 C 
ENDROOT
BRANCH   2   7
HETATM    7  C   UNK     0      12.786   2.193  91.881  0.00  0.00     0.311 C 
BRANCH   7   8
HETATM    8  C   UNK     0      11.860   3.353  92.020  0.00  0.00    -0.030 A 
HETATM    9  C   UNK     0      11.524   3.827  93.289  0.00  0.00     0.010 A 
HETATM   10  C   UNK     0      10.655   4.911  93.420  0.00  0.00     0.021 A 
HETATM   11  C   UNK     0      10.125   5.520  92.283  0.00  0.00     0.018 A 
HETATM   12  C   UNK     0      10.460   5.048  91.016  0.00  0.00     0.021 A 
HETATM   13  C   UNK     0      11.328   3.964  90.884  0.00  0.00     0.010 A 
BRANCH  11  14
HETATM   14  C   UNK     0       9.236   6.633  92.419  0.00  0.00    -0.061 C 
HETATM   15  C   UNK     0       8.490   7.569  92.532  0.00  0.00    -0.061 C 
BRANCH  15  16
HETATM   16  C   UNK     0       7.602   8.680  92.668  0.00  0.00     0.018 A 
HETATM   17  C   UNK     0       7.546   9.383  93.873  0.00  0.00     0.022 A 
HETATM   18  C   UNK     0       6.681  10.469  94.005  0.00  0.00     0.018 A 
HETATM   19  C   UNK     0       5.892  10.829  92.932  0.00  0.00     0.032 A 
HETATM   20  C   UNK     0       5.929  10.151  91.732  0.00  0.00     0.018 A 
HETATM   21  C   UNK     0       6.793   9.064  91.599  0.00  0.00     0.022 A 
BRANCH  19  22
HETATM   22  C   UNK     0       4.970  11.985  93.075  0.00  0.00     0.252 C 
HETATM   23  O   UNK     0       4.972  12.629  94.122  0.00  0.00    -0.268 OA
HETATM   24  N   UNK     0       4.174  12.267  91.974  0.00  0.00    -0.341 N 
HETATM   25  H   UNK     0       4.244  11.706  91.133  0.00  0.00     0.163 HD
BRANCH  24  26
HETATM   26  C   UNK     0       3.247  13.370  91.949  0.00  0.00     0.207 C 
BRANCH  26  27
HETATM   27  C   UNK     0       3.902  14.704  92.328  0.00  0.00     0.146 C 
HETATM   28  C   UNK     0       4.681  15.322  91.172  0.00  0.00     0.042 C 
BRANCH  27  29
HETATM   29  O   UNK     0       2.897  15.625  92.754  0.00  0.00    -0.393 OA
HETATM   30  H   UNK     0       2.137  15.116  93.083  0.00  0.00     0.210 HD
ENDBRANCH  27  29
ENDBRANCH  26  27
BRANCH  26  31
HETATM   31  C   UNK     0       2.632  13.430  90.555  0.00  0.00     0.266 C 
HETATM   32  O   UNK     0       1.752  14.231  90.245  0.00  0.00    -0.269 OA
HETATM   33  N   UNK     0       3.148  12.471  89.718  0.00  0.00    -0.236 N 
HETATM   34  H   UNK     0       3.806  11.741  89.965  0.00  0.00     0.197 HD
BRANCH  33  35
HETATM   35  O   UNK     0       2.607  12.434  88.425  0.00  0.00    -0.287 OA
HETATM   36  H   UNK     0       1.905  13.102  88.510  0.00  0.00     0.244 HD
ENDBRANCH  33  35
ENDBRANCH  26  31
ENDBRANCH  24  26
ENDBRANCH  19  22
ENDBRANCH  15  16
ENDBRANCH  11  14
ENDBRANCH   7   8
ENDBRANCH   2   7
TORSDOF 10
ENDMDL
MODEL 5
REMARK VINA RESULT:      -5.5      2.978     12.278
REMARK  10 active torsions:
REMARK  status: ('A' for Active; 'I' for Inactive)
REMARK    1  A    between atoms: O_2  and  C_18 
REMARK    2  A    between atoms: O_5  and  N_8 
REMARK    3  A    between atoms: N_6  and  C_11 
REMARK    4  A    between atoms: N_7  and  C_15 
REMARK       I    between atoms: N_7  and  C_24 
REMARK       I    between atoms: N_8  and  C_23 
REMARK    5  A    between atoms: C_11  and  C_14 
REMARK    6  A    between atoms: C_15  and  C_18 
REMARK    7  A    between atoms: C_15  and  C_23 
REMARK    8  A    between atoms: C_21  and  C_26 
REMARK    9  A    between atoms: C_24  and  C_25 
REMARK   10  A    between atoms: C_29  and  C_32 
ROOT
HETATM    1  O   UNK     0       3.053  14.688  94.123  0.00  0.00    -0.388 OA
HETATM    2  N   UNK     0       2.846  14.792  91.286  0.00  0.00     0.096 N 
HETATM    3  C   UNK     0       1.952  13.948  92.090  0.00  0.00     0.299 C 
HETATM    4  C   UNK     0       4.137  14.952  91.968  0.00  0.00     0.299 C 
HETATM    5  C   UNK     0       1.783  14.554  93.482  0.00  0.00     0.198 C 
HETATM    6  C   UNK     0       3.918  15.533  93.362  0.00  0.00     0.198 C 
ENDROOT
BRANCH   2   7
HETATM    7  C   UNK     0       3.031  14.225  89.951  0.00  0.00     0.311 C 
BRANCH   7   8
HETATM    8  C   UNK     0       4.016  13.106  89.941  0.00  0.00    -0.030 A 
HETATM    9  C   UNK     0       3.800  11.980  90.736  0.00  0.00     0.010 A 
HETATM   10  C   UNK     0       4.723  10.934  90.729  0.00  0.00     0.021 A 
HETATM   11  C   UNK     0       5.859  11.014  89.925  0.00  0.00     0.018 A 
HETATM   12  C   UNK     0       6.076  12.137  89.130  0.00  0.00     0.021 A 
HETATM   13  C   UNK     0       5.154  13.184  89.138  0.00  0.00     0.010 A 
BRANCH  11  14
HETATM   14  C   UNK     0       6.804   9.939  89.916  0.00  0.00    -0.061 C 
HETATM   15  C   UNK     0       7.599   9.037  89.908  0.00  0.00    -0.061 C 
BRANCH  15  16
HETATM   16  C   UNK     0       8.542   7.964  89.898  0.00  0.00     0.018 A 
HETATM   17  C   UNK     0       9.398   7.799  88.809  0.00  0.00     0.022 A 
HETATM   18  C   UNK     0      10.320   6.753  88.799  0.00  0.00     0.018 A 
HETATM   19  C   UNK     0      10.367   5.895  89.878  0.00  0.00     0.032 A 
HETATM   20  C   UNK     0       9.532   6.036  90.967  0.00  0.00     0.018 A 
HETATM   21  C   UNK     0       8.609   7.082  90.977  0.00  0.00     0.022 A 
BRANCH  19  22
HETATM   22  C   UNK     0      11.349   4.780  89.867  0.00  0.00     0.252 C 
HETATM   23  O   UNK     0      11.545   4.164  88.822  0.00  0.00    -0.268 OA
HETATM   24  N   UNK     0      12.001   4.532  91.067  0.00  0.00    -0.341 N 
HETATM   25  H   UNK     0      11.806   5.099  91.883  0.00  0.00     0.163 HD
BRANCH  24  26
HETATM   26  C   UNK     0      12.997   3.500  91.209  0.00  0.00     0.207 C 
BRANCH  26  27
HETATM   27  C   UNK     0      14.234   3.972  91.984  0.00  0.00     0.146 C 
HETATM   28  C   UNK     0      13.923   4.288  93.443  0.00  0.00     0.042 C 
BRANCH  27  29
HETATM   29  O   UNK     0      15.242   2.964  91.933  0.00  0.00    -0.393 OA
HETATM   30  H   UNK     0      16.094   3.373  92.160  0.00  0.00     0.210 HD
ENDBRANCH  27  29
ENDBRANCH  26  27
BRANCH  26  31
HETATM   31  C   UNK     0      12.337   2.306  91.891  0.00  0.00     0.266 C 
HETATM   32  O   UNK     0      12.949   1.281  92.185  0.00  0.00    -0.269 OA
HETATM   33  N   UNK     0      10.993   2.503  92.094  0.00  0.00    -0.236 N 
HETATM   34  H   UNK     0      10.441   3.295  91.785  0.00  0.00     0.197 HD
BRANCH  33  35
HETATM   35  O   UNK     0      10.302   1.434  92.683  0.00  0.00    -0.287 OA
HETATM   36  H   UNK     0      10.832   0.685  92.361  0.00  0.00     0.244 HD
ENDBRANCH  33  35
ENDBRANCH  26  31
ENDBRANCH  24  26
ENDBRANCH  19  22
ENDBRANCH  15  16
ENDBRANCH  11  14
ENDBRANCH   7   8
ENDBRANCH   2   7
TORSDOF 10
ENDMDL
MODEL 6
REMARK VINA RESULT:      -5.1      2.131     12.516
REMARK  10 active torsions:
REMARK  status: ('A' for Active; 'I' for Inactive)
REMARK    1  A    between atoms: O_2  and  C_18 
REMARK    2  A    between atoms: O_5  and  N_8 
REMARK    3  A    between atoms: N_6  and  C_11 
REMARK    4  A    between atoms: N_7  and  C_15 
REMARK       I    between atoms: N_7  and  C_24 
REMARK       I    between atoms: N_8  and  C_23 
REMARK    5  A    between atoms: C_11  and  C_14 
REMARK    6  A    between atoms: C_15  and  C_18 
REMARK    7  A    between atoms: C_15  and  C_23 
REMARK    8  A    between atoms: C_21  and  C_26 
REMARK    9  A    between atoms: C_24  and  C_25 
REMARK   10  A    between atoms: C_29  and  C_32 
ROOT
HETATM    1  O   UNK     0       3.237  14.352  92.159  0.00  0.00    -0.388 OA
HETATM    2  N   UNK     0       4.103  14.070  89.462  0.00  0.00     0.096 N 
HETATM    3  C   UNK     0       3.098  13.170  90.044  0.00  0.00     0.299 C 
HETATM    4  C   UNK     0       5.005  14.563  90.511  0.00  0.00     0.299 C 
HETATM    5  C   UNK     0       2.334  13.893  91.150  0.00  0.00     0.198 C 
HETATM    6  C   UNK     0       4.198  15.252  91.607  0.00  0.00     0.198 C 
ENDROOT
BRANCH   2   7
HETATM    7  C   UNK     0       4.854  13.395  88.406  0.00  0.00     0.311 C 
BRANCH   7   8
HETATM    8  C   UNK     0       5.672  12.262  88.926  0.00  0.00    -0.030 A 
HETATM    9  C   UNK     0       7.056  12.264  88.751  0.00  0.00     0.010 A 
HETATM   10  C   UNK     0       7.822  11.204  89.236  0.00  0.00     0.021 A 
HETATM   11  C   UNK     0       7.203  10.143  89.897  0.00  0.00     0.018 A 
HETATM   12  C   UNK     0       5.821  10.140  90.072  0.00  0.00     0.021 A 
HETATM   13  C   UNK     0       5.055  11.200  89.587  0.00  0.00     0.010 A 
BRANCH  11  14
HETATM   14  C   UNK     0       7.989   9.057  90.396  0.00  0.00    -0.061 C 
HETATM   15  C   UNK     0       8.649   8.144  90.815  0.00  0.00    -0.061 C 
BRANCH  15  16
HETATM   16  C   UNK     0       9.434   7.059  91.314  0.00  0.00     0.018 A 
HETATM   17  C   UNK     0       9.698   6.962  92.682  0.00  0.00     0.022 A 
HETATM   18  C   UNK     0      10.462   5.902  93.170  0.00  0.00     0.018 A 
HETATM   19  C   UNK     0      10.945   4.963  92.282  0.00  0.00     0.032 A 
HETATM   20  C   UNK     0      10.699   5.037  90.927  0.00  0.00     0.018 A 
HETATM   21  C   UNK     0       9.935   6.097  90.438  0.00  0.00     0.022 A 
BRANCH  19  22
HETATM   22  C   UNK     0      11.760   3.836  92.803  0.00  0.00     0.252 C 
HETATM   23  O   UNK     0      11.284   2.703  92.807  0.00  0.00    -0.268 OA
HETATM   24  N   UNK     0      13.040   4.158  93.232  0.00  0.00    -0.341 N 
HETATM   25  H   UNK     0      13.375   5.113  93.175  0.00  0.00     0.163 HD
BRANCH  24  26
HETATM   26  C   UNK     0      13.960   3.172  93.740  0.00  0.00     0.207 C 
BRANCH  26  27
HETATM   27  C   UNK     0      14.036   1.921  92.855  0.00  0.00     0.146 C 
HETATM   28  C   UNK     0      14.773   2.176  91.545  0.00  0.00     0.042 C 
BRANCH  27  29
HETATM   29  O   UNK     0      14.700   0.875  93.565  0.00  0.00    -0.393 OA
HETATM   30  H   UNK     0      14.086   0.520  94.230  0.00  0.00     0.210 HD
ENDBRANCH  27  29
ENDBRANCH  26  27
BRANCH  26  31
HETATM   31  C   UNK     0      15.325   3.837  93.879  0.00  0.00     0.266 C 
HETATM   32  O   UNK     0      15.485   5.055  93.830  0.00  0.00    -0.269 OA
HETATM   33  N   UNK     0      16.337   2.918  94.024  0.00  0.00    -0.236 N 
HETATM   34  H   UNK     0      16.252   1.910  93.979  0.00  0.00     0.197 HD
BRANCH  33  35
HETATM   35  O   UNK     0      17.632   3.447  94.121  0.00  0.00    -0.287 OA
HETATM   36  H   UNK     0      17.428   4.360  94.387  0.00  0.00     0.244 HD
ENDBRANCH  33  35
ENDBRANCH  26  31
ENDBRANCH  24  26
ENDBRANCH  19  22
ENDBRANCH  15  16
ENDBRANCH  11  14
ENDBRANCH   7   8
ENDBRANCH   2   7
TORSDOF 10
ENDMDL
MODEL 7
REMARK VINA RESULT:      -5.0      1.957     12.442
REMARK  10 active torsions:
REMARK  status: ('A' for Active; 'I' for Inactive)
REMARK    1  A    between atoms: O_2  and  C_18 
REMARK    2  A    between atoms: O_5  and  N_8 
REMARK    3  A    between atoms: N_6  and  C_11 
REMARK    4  A    between atoms: N_7  and  C_15 
REMARK       I    between atoms: N_7  and  C_24 
REMARK       I    between atoms: N_8  and  C_23 
REMARK    5  A    between atoms: C_11  and  C_14 
REMARK    6  A    between atoms: C_15  and  C_18 
REMARK    7  A    between atoms: C_15  and  C_23 
REMARK    8  A    between atoms: C_21  and  C_26 
REMARK    9  A    between atoms: C_24  and  C_25 
REMARK   10  A    between atoms: C_29  and  C_32 
ROOT
HETATM    1  O   UNK     0       5.660  15.039  89.142  0.00  0.00    -0.388 OA
HETATM    2  N   UNK     0       3.610  13.371  90.198  0.00  0.00     0.096 N 
HETATM    3  C   UNK     0       4.196  14.461  90.990  0.00  0.00     0.299 C 
HETATM    4  C   UNK     0       4.596  12.861  89.236  0.00  0.00     0.299 C 
HETATM    5  C   UNK     0       4.698  15.563  90.060  0.00  0.00     0.198 C 
HETATM    6  C   UNK     0       5.089  13.999  88.348  0.00  0.00     0.198 C 
ENDROOT
BRANCH   2   7
HETATM    7  C   UNK     0       3.132  12.298  91.069  0.00  0.00     0.311 C 
BRANCH   7   8
HETATM    8  C   UNK     0       4.170  11.255  91.309  0.00  0.00    -0.030 A 
HETATM    9  C   UNK     0       3.997   9.970  90.794  0.00  0.00     0.010 A 
HETATM   10  C   UNK     0       4.967   8.993  91.019  0.00  0.00     0.021 A 
HETATM   11  C   UNK     0       6.108   9.302  91.757  0.00  0.00     0.018 A 
HETATM   12  C   UNK     0       6.282  10.585  92.272  0.00  0.00     0.021 A 
HETATM   13  C   UNK     0       5.312  11.563  92.048  0.00  0.00     0.010 A 
BRANCH  11  14
HETATM   14  C   UNK     0       7.104   8.300  91.987  0.00  0.00    -0.061 C 
HETATM   15  C   UNK     0       7.940   7.458  92.179  0.00  0.00    -0.061 C 
BRANCH  15  16
HETATM   16  C   UNK     0       8.933   6.457  92.409  0.00  0.00     0.018 A 
HETATM   17  C   UNK     0       9.403   6.225  93.702  0.00  0.00     0.022 A 
HETATM   18  C   UNK     0      10.371   5.247  93.928  0.00  0.00     0.018 A 
HETATM   19  C   UNK     0      10.847   4.521  92.856  0.00  0.00     0.032 A 
HETATM   20  C   UNK     0      10.401   4.731  91.568  0.00  0.00     0.018 A 
HETATM   21  C   UNK     0       9.433   5.710  91.342  0.00  0.00     0.022 A 
BRANCH  19  22
HETATM   22  C   UNK     0      11.880   3.480  93.096  0.00  0.00     0.252 C 
HETATM   23  O   UNK     0      11.617   2.306  92.848  0.00  0.00    -0.268 OA
HETATM   24  N   UNK     0      13.102   3.935  93.572  0.00  0.00    -0.341 N 
HETATM   25  H   UNK     0      13.255   4.924  93.730  0.00  0.00     0.163 HD
BRANCH  24  26
HETATM   26  C   UNK     0      14.211   3.051  93.831  0.00  0.00     0.207 C 
BRANCH  26  27
HETATM   27  C   UNK     0      14.302   1.902  92.819  0.00  0.00     0.146 C 
HETATM   28  C   UNK     0      15.197   2.239  91.631  0.00  0.00     0.042 C 
BRANCH  27  29
HETATM   29  O   UNK     0      14.811   0.736  93.466  0.00  0.00    -0.393 OA
HETATM   30  H   UNK     0      14.226  -0.011  93.253  0.00  0.00     0.210 HD
ENDBRANCH  27  29
ENDBRANCH  26  27
BRANCH  26  31
HETATM   31  C   UNK     0      15.484   3.890  93.834  0.00  0.00     0.266 C 
HETATM   32  O   UNK     0      15.496   5.091  93.570  0.00  0.00    -0.269 OA
HETATM   33  N   UNK     0      16.599   3.141  94.124  0.00  0.00    -0.236 N 
HETATM   34  H   UNK     0      16.637   2.137  94.257  0.00  0.00     0.197 HD
BRANCH  33  35
HETATM   35  O   UNK     0      17.819   3.832  94.109  0.00  0.00    -0.287 OA
HETATM   36  H   UNK     0      18.025   3.842  95.059  0.00  0.00     0.244 HD
ENDBRANCH  33  35
ENDBRANCH  26  31
ENDBRANCH  24  26
ENDBRANCH  19  22
ENDBRANCH  15  16
ENDBRANCH  11  14
ENDBRANCH   7   8
ENDBRANCH   2   7
TORSDOF 10
ENDMDL
MODEL 8
REMARK VINA RESULT:      -4.5      2.398     12.431
REMARK  10 active torsions:
REMARK  status: ('A' for Active; 'I' for Inactive)
REMARK    1  A    between atoms: O_2  and  C_18 
REMARK    2  A    between atoms: O_5  and  N_8 
REMARK    3  A    between atoms: N_6  and  C_11 
REMARK    4  A    between atoms: N_7  and  C_15 
REMARK       I    between atoms: N_7  and  C_24 
REMARK       I    between atoms: N_8  and  C_23 
REMARK    5  A    between atoms: C_11  and  C_14 
REMARK    6  A    between atoms: C_15  and  C_18 
REMARK    7  A    between atoms: C_15  and  C_23 
REMARK    8  A    between atoms: C_21  and  C_26 
REMARK    9  A    between atoms: C_24  and  C_25 
REMARK   10  A    between atoms: C_29  and  C_32 
ROOT
HETATM    1  O   UNK     0       3.034  14.641  93.200  0.00  0.00    -0.388 OA
HETATM    2  N   UNK     0       2.915  13.641  90.538  0.00  0.00     0.096 N 
HETATM    3  C   UNK     0       2.011  13.146  91.585  0.00  0.00     0.299 C 
HETATM    4  C   UNK     0       4.181  14.086  91.135  0.00  0.00     0.299 C 
HETATM    5  C   UNK     0       1.788  14.234  92.632  0.00  0.00     0.198 C 
HETATM    6  C   UNK     0       3.908  15.152  92.192  0.00  0.00     0.198 C 
ENDROOT
BRANCH   2   7
HETATM    7  C   UNK     0       3.151  12.610  89.529  0.00  0.00     0.311 C 
BRANCH   7   8
HETATM    8  C   UNK     0       4.210  11.644  89.940  0.00  0.00    -0.030 A 
HETATM    9  C   UNK     0       3.881  10.549  90.741  0.00  0.00     0.010 A 
HETATM   10  C   UNK     0       4.870   9.646  91.129  0.00  0.00     0.021 A 
HETATM   11  C   UNK     0       6.188   9.837  90.714  0.00  0.00     0.018 A 
HETATM   12  C   UNK     0       6.518  10.930  89.914  0.00  0.00     0.021 A 
HETATM   13  C   UNK     0       5.528  11.833  89.527  0.00  0.00     0.010 A 
BRANCH  11  14
HETATM   14  C   UNK     0       7.203   8.910  91.110  0.00  0.00    -0.061 C 
HETATM   15  C   UNK     0       8.055   8.130  91.443  0.00  0.00    -0.061 C 
BRANCH  15  16
HETATM   16  C   UNK     0       9.069   7.204  91.840  0.00  0.00     0.018 A 
HETATM   17  C   UNK     0       9.577   6.290  90.916  0.00  0.00     0.022 A 
HETATM   18  C   UNK     0      10.568   5.387  91.302  0.00  0.00     0.018 A 
HETATM   19  C   UNK     0      11.028   5.419  92.602  0.00  0.00     0.032 A 
HETATM   20  C   UNK     0      10.542   6.311  93.534  0.00  0.00     0.018 A 
HETATM   21  C   UNK     0       9.551   7.214  93.148  0.00  0.00     0.022 A 
BRANCH  19  22
HETATM   22  C   UNK     0      12.082   4.455  93.013  0.00  0.00     0.252 C 
HETATM   23  O   UNK     0      11.883   3.725  93.981  0.00  0.00    -0.268 OA
HETATM   24  N   UNK     0      13.231   4.442  92.235  0.00  0.00    -0.341 N 
HETATM   25  H   UNK     0      13.316   5.058  91.434  0.00  0.00     0.163 HD
BRANCH  24  26
HETATM   26  C   UNK     0      14.332   3.548  92.491  0.00  0.00     0.207 C 
BRANCH  26  27
HETATM   27  C   UNK     0      15.099   3.903  93.772  0.00  0.00     0.146 C 
HETATM   28  C   UNK     0      16.159   2.865  94.123  0.00  0.00     0.042 C 
BRANCH  27  29
HETATM   29  O   UNK     0      15.728   5.174  93.614  0.00  0.00    -0.393 OA
HETATM   30  H   UNK     0      16.085   5.446  94.476  0.00  0.00     0.210 HD
ENDBRANCH  27  29
ENDBRANCH  26  27
BRANCH  26  31
HETATM   31  C   UNK     0      13.775   2.129  92.554  0.00  0.00     0.266 C 
HETATM   32  O   UNK     0      14.316   1.225  93.187  0.00  0.00    -0.269 OA
HETATM   33  N   UNK     0      12.637   1.985  91.797  0.00  0.00    -0.236 N 
HETATM   34  H   UNK     0      12.216   2.683  91.195  0.00  0.00     0.197 HD
BRANCH  33  35
HETATM   35  O   UNK     0      12.082   0.698  91.770  0.00  0.00    -0.287 OA
HETATM   36  H   UNK     0      11.320   0.824  92.360  0.00  0.00     0.244 HD
ENDBRANCH  33  35
ENDBRANCH  26  31
ENDBRANCH  24  26
ENDBRANCH  19  22
ENDBRANCH  15  16
ENDBRANCH  11  14
ENDBRANCH   7   8
ENDBRANCH   2   7
TORSDOF 10
ENDMDL
MODEL 9
REMARK VINA RESULT:      -4.3      2.478     12.481
REMARK  10 active torsions:
REMARK  status: ('A' for Active; 'I' for Inactive)
REMARK    1  A    between atoms: O_2  and  C_18 
REMARK    2  A    between atoms: O_5  and  N_8 
REMARK    3  A    between atoms: N_6  and  C_11 
REMARK    4  A    between atoms: N_7  and  C_15 
REMARK       I    between atoms: N_7  and  C_24 
REMARK       I    between atoms: N_8  and  C_23 
REMARK    5  A    between atoms: C_11  and  C_14 
REMARK    6  A    between atoms: C_15  and  C_18 
REMARK    7  A    between atoms: C_15  and  C_23 
REMARK    8  A    between atoms: C_21  and  C_26 
REMARK    9  A    between atoms: C_24  and  C_25 
REMARK   10  A    between atoms: C_29  and  C_32 
ROOT
HETATM    1  O   UNK     0       3.384  14.524  89.774  0.00  0.00    -0.388 OA
HETATM    2  N   UNK     0       2.688  13.972  92.478  0.00  0.00     0.096 N 
HETATM    3  C   UNK     0       4.000  14.528  92.122  0.00  0.00     0.299 C 
HETATM    4  C   UNK     0       2.167  13.161  91.370  0.00  0.00     0.299 C 
HETATM    5  C   UNK     0       3.885  15.341  90.834  0.00  0.00     0.198 C 
HETATM    6  C   UNK     0       2.094  14.005  90.101  0.00  0.00     0.198 C 
ENDROOT
BRANCH   2   7
HETATM    7  C   UNK     0       2.777  13.180  93.704  0.00  0.00     0.311 C 
BRANCH   7   8
HETATM    8  C   UNK     0       3.766  12.070  93.592  0.00  0.00    -0.030 A 
HETATM    9  C   UNK     0       3.354  10.812  93.151  0.00  0.00     0.010 A 
HETATM   10  C   UNK     0       4.278   9.772  93.048  0.00  0.00     0.021 A 
HETATM   11  C   UNK     0       5.613   9.992  93.384  0.00  0.00     0.018 A 
HETATM   12  C   UNK     0       6.026  11.247  93.825  0.00  0.00     0.021 A 
HETATM   13  C   UNK     0       5.102  12.287  93.929  0.00  0.00     0.010 A 
BRANCH  11  14
HETATM   14  C   UNK     0       6.562   8.925  93.276  0.00  0.00    -0.061 C 
HETATM   15  C   UNK     0       7.358   8.029  93.185  0.00  0.00    -0.061 C 
BRANCH  15  16
HETATM   16  C   UNK     0       8.304   6.964  93.078  0.00  0.00     0.018 A 
HETATM   17  C   UNK     0       8.166   6.010  92.068  0.00  0.00     0.022 A 
HETATM   18  C   UNK     0       9.090   4.970  91.962  0.00  0.00     0.018 A 
HETATM   19  C   UNK     0      10.131   4.908  92.864  0.00  0.00     0.032 A 
HETATM   20  C   UNK     0      10.290   5.838  93.870  0.00  0.00     0.018 A 
HETATM   21  C   UNK     0       9.365   6.877  93.978  0.00  0.00     0.022 A 
BRANCH  19  22
HETATM   22  C   UNK     0      11.114   3.800  92.751  0.00  0.00     0.252 C 
HETATM   23  O   UNK     0      10.708   2.643  92.675  0.00  0.00    -0.268 OA
HETATM   24  N   UNK     0      12.451   4.174  92.715  0.00  0.00    -0.341 N 
HETATM   25  H   UNK     0      12.711   5.152  92.757  0.00  0.00     0.163 HD
BRANCH  24  26
HETATM   26  C   UNK     0      13.520   3.217  92.583  0.00  0.00     0.207 C 
BRANCH  26  27
HETATM   27  C   UNK     0      13.946   3.000  91.126  0.00  0.00     0.146 C 
HETATM   28  C   UNK     0      13.178   3.889  90.154  0.00  0.00     0.042 C 
BRANCH  27  29
HETATM   29  O   UNK     0      15.342   3.266  90.992  0.00  0.00    -0.393 OA
HETATM   30  H   UNK     0      15.789   2.964  91.801  0.00  0.00     0.210 HD
ENDBRANCH  27  29
ENDBRANCH  26  27
BRANCH  26  31
HETATM   31  C   UNK     0      14.687   3.703  93.436  0.00  0.00     0.266 C 
HETATM   32  O   UNK     0      14.668   4.766  94.054  0.00  0.00    -0.269 OA
HETATM   33  N   UNK     0      15.755   2.840  93.395  0.00  0.00    -0.236 N 
HETATM   34  H   UNK     0      15.838   2.004  92.828  0.00  0.00     0.197 HD
BRANCH  33  35
HETATM   35  O   UNK     0      16.886   3.233  94.124  0.00  0.00    -0.287 OA
HETATM   36  H   UNK     0      16.885   2.560  94.825  0.00  0.00     0.244 HD
ENDBRANCH  33  35
ENDBRANCH  26  31
ENDBRANCH  24  26
ENDBRANCH  19  22
ENDBRANCH  15  16
ENDBRANCH  11  14
ENDBRANCH   7   8
ENDBRANCH   2   7
TORSDOF 10
ENDMDL
