MODEL 1
REMARK VINA RESULT:      -7.4      0.000      0.000
REMARK  9 active torsions:
REMARK  status: ('A' for Active; 'I' for Inactive)
REMARK    1  A    between atoms: O_2  and  C_17 
REMARK    2  A    between atoms: N_5  and  C_10 
REMARK    3  A    between atoms: N_6  and  C_14 
REMARK       I    between atoms: N_6  and  C_23 
REMARK       I    between atoms: N_7  and  C_22 
REMARK    4  A    between atoms: C_10  and  C_13 
REMARK    5  A    between atoms: C_14  and  C_17 
REMARK    6  A    between atoms: C_14  and  C_22 
REMARK    7  A    between atoms: C_20  and  C_25 
REMARK    8  A    between atoms: C_23  and  C_24 
REMARK    9  A    between atoms: C_28  and  C_31 
ROOT
HETATM    1  O   UNL     1      16.949   4.292  93.690  1.00  0.00    -0.388 OA
HETATM    2  N   UNL     1      14.557   2.772  93.432  1.00  0.00     0.096 N 
HETATM    3  C   UNL     1      15.859   2.231  93.017  1.00  0.00     0.299 C 
HETATM    4  C   UNL     1      14.555   4.235  93.303  1.00  0.00     0.299 C 
HETATM    5  C   UNL     1      16.971   2.872  93.843  1.00  0.00     0.198 C 
HETATM    6  C   UNL     1      15.698   4.829  94.120  1.00  0.00     0.198 C 
ENDROOT
BRANCH   2   7
HETATM    7  C   UNL     1      13.476   2.179  92.646  1.00  0.00     0.311 C 
BRANCH   7   8
HETATM    8  C   UNL     1      12.471   3.190  92.209  1.00  0.00    -0.030 A 
HETATM    9  C   UNL     1      12.396   3.562  90.866  1.00  0.00     0.010 A 
HETATM   10  C   UNL     1      11.458   4.509  90.457  1.00  0.00     0.021 A 
HETATM   11  C   UNL     1      10.594   5.082  91.389  1.00  0.00     0.018 A 
HETATM   12  C   UNL     1      10.668   4.711  92.730  1.00  0.00     0.021 A 
HETATM   13  C   UNL     1      11.606   3.764  93.141  1.00  0.00     0.010 A 
BRANCH  11  14
HETATM   14  C   UNL     1       9.630   6.052  90.968  1.00  0.00    -0.061 C 
HETATM   15  C   UNL     1       8.820   6.866  90.615  1.00  0.00    -0.061 C 
BRANCH  15  16
HETATM   16  C   UNL     1       7.856   7.836  90.195  1.00  0.00     0.018 A 
HETATM   17  C   UNL     1       7.102   7.614  89.042  1.00  0.00     0.022 A 
HETATM   18  C   UNL     1       6.161   8.559  88.635  1.00  0.00     0.018 A 
HETATM   19  C   UNL     1       5.993   9.702  89.388  1.00  0.00     0.032 A 
HETATM   20  C   UNL     1       6.726   9.944  90.531  1.00  0.00     0.018 A 
HETATM   21  C   UNL     1       7.668   9.000  90.940  1.00  0.00     0.022 A 
BRANCH  19  22
HETATM   22  C   UNL     1       4.991  10.709  88.952  1.00  0.00     0.252 C 
HETATM   23  O   UNL     1       4.271  10.460  87.988  1.00  0.00    -0.268 OA
HETATM   24  N   UNL     1       4.930  11.872  89.707  1.00  0.00    -0.342 N 
HETATM   25  H   UNL     1       5.540  11.997  90.506  1.00  0.00     0.163 HD
BRANCH  24  26
HETATM   26  C   UNL     1       3.995  12.931  89.425  1.00  0.00     0.199 C 
BRANCH  26  27
HETATM   27  C   UNL     1       3.479  13.621  90.694  1.00  0.00     0.145 C 
HETATM   28  C   UNL     1       2.446  12.780  91.436  1.00  0.00     0.042 C 
BRANCH  27  29
HETATM   29  O   UNL     1       4.573  13.890  91.569  1.00  0.00    -0.393 OA
HETATM   30  H   UNL     1       4.275  13.745  92.483  1.00  0.00     0.210 HD
ENDBRANCH  27  29
ENDBRANCH  26  27
BRANCH  26  31
HETATM   31  C   UNL     1       4.683  13.925  88.494  1.00  0.00     0.220 C 
HETATM   32  O   UNL     1       4.963  15.074  88.831  1.00  0.00    -0.278 OA
HETATM   33  N   UNL     1       4.909  13.397  87.246  1.00  0.00    -0.271 NA
HETATM   34  H   UNL     1       4.612  12.488  86.909  1.00  0.00     0.127 HD
HETATM   35  H   UNL     1       4.263  13.705  86.039  1.00  0.00     0.127 HD
ENDBRANCH  26  31
ENDBRANCH  24  26
ENDBRANCH  19  22
ENDBRANCH  15  16
ENDBRANCH  11  14
ENDBRANCH   7   8
ENDBRANCH   2   7
TORSDOF 9
ENDMDL
MODEL 2
REMARK VINA RESULT:      -7.0      1.923      3.034
REMARK  9 active torsions:
REMARK  status: ('A' for Active; 'I' for Inactive)
REMARK    1  A    between atoms: O_2  and  C_17 
REMARK    2  A    between atoms: N_5  and  C_10 
REMARK    3  A    between atoms: N_6  and  C_14 
REMARK       I    between atoms: N_6  and  C_23 
REMARK       I    between atoms: N_7  and  C_22 
REMARK    4  A    between atoms: C_10  and  C_13 
REMARK    5  A    between atoms: C_14  and  C_17 
REMARK    6  A    between atoms: C_14  and  C_22 
REMARK    7  A    between atoms: C_20  and  C_25 
REMARK    8  A    between atoms: C_23  and  C_24 
REMARK    9  A    between atoms: C_28  and  C_31 
ROOT
HETATM    1  O   UNL     1      15.993   3.914  94.106  1.00  0.00    -0.388 OA
HETATM    2  N   UNL     1      14.149   2.654  92.341  1.00  0.00     0.096 N 
HETATM    3  C   UNL     1      14.356   4.108  92.325  1.00  0.00     0.299 C 
HETATM    4  C   UNL     1      14.411   2.123  93.686  1.00  0.00     0.299 C 
HETATM    5  C   UNL     1      15.772   4.434  92.794  1.00  0.00     0.198 C 
HETATM    6  C   UNL     1      15.824   2.496  94.124  1.00  0.00     0.198 C 
ENDROOT
BRANCH   2   7
HETATM    7  C   UNL     1      12.795   2.318  91.905  1.00  0.00     0.311 C 
BRANCH   7   8
HETATM    8  C   UNL     1      11.863   3.479  92.002  1.00  0.00    -0.030 A 
HETATM    9  C   UNL     1      11.289   4.009  90.846  1.00  0.00     0.010 A 
HETATM   10  C   UNL     1      10.420   5.096  90.935  1.00  0.00     0.021 A 
HETATM   11  C   UNL     1      10.123   5.650  92.180  1.00  0.00     0.018 A 
HETATM   12  C   UNL     1      10.695   5.120  93.335  1.00  0.00     0.021 A 
HETATM   13  C   UNL     1      11.565   4.034  93.246  1.00  0.00     0.010 A 
BRANCH  11  14
HETATM   14  C   UNL     1       9.229   6.763  92.272  1.00  0.00    -0.061 C 
HETATM   15  C   UNL     1       8.477   7.698  92.349  1.00  0.00    -0.061 C 
BRANCH  15  16
HETATM   16  C   UNL     1       7.584   8.811  92.442  1.00  0.00     0.018 A 
HETATM   17  C   UNL     1       7.483   9.526  93.636  1.00  0.00     0.022 A 
HETATM   18  C   UNL     1       6.614  10.613  93.725  1.00  0.00     0.018 A 
HETATM   19  C   UNL     1       5.866  10.961  92.620  1.00  0.00     0.032 A 
HETATM   20  C   UNL     1       5.947  10.270  91.429  1.00  0.00     0.018 A 
HETATM   21  C   UNL     1       6.816   9.182  91.338  1.00  0.00     0.022 A 
BRANCH  19  22
HETATM   22  C   UNL     1       4.938  12.117  92.716  1.00  0.00     0.252 C 
HETATM   23  O   UNL     1       4.685  12.593  93.820  1.00  0.00    -0.268 OA
HETATM   24  N   UNL     1       4.437  12.596  91.513  1.00  0.00    -0.342 N 
HETATM   25  H   UNL     1       4.710  12.168  90.637  1.00  0.00     0.163 HD
BRANCH  24  26
HETATM   26  C   UNL     1       3.546  13.726  91.440  1.00  0.00     0.199 C 
BRANCH  26  27
HETATM   27  C   UNL     1       3.504  14.359  90.043  1.00  0.00     0.145 C 
HETATM   28  C   UNL     1       4.860  14.901  89.606  1.00  0.00     0.042 C 
BRANCH  27  29
HETATM   29  O   UNL     1       3.065  13.388  89.093  1.00  0.00    -0.393 OA
HETATM   30  H   UNL     1       2.654  13.857  88.346  1.00  0.00     0.210 HD
ENDBRANCH  27  29
ENDBRANCH  26  27
BRANCH  26  31
HETATM   31  C   UNL     1       2.162  13.258  91.878  1.00  0.00     0.220 C 
HETATM   32  O   UNL     1       1.690  12.169  91.556  1.00  0.00    -0.278 OA
HETATM   33  N   UNL     1       1.509  14.204  92.631  1.00  0.00    -0.271 NA
HETATM   34  H   UNL     1       1.830  15.142  92.839  1.00  0.00     0.127 HD
HETATM   35  H   UNL     1       0.412  15.001  92.267  1.00  0.00     0.127 HD
ENDBRANCH  26  31
ENDBRANCH  24  26
ENDBRANCH  19  22
ENDBRANCH  15  16
ENDBRANCH  11  14
ENDBRANCH   7   8
ENDBRANCH   2   7
TORSDOF 9
ENDMDL
MODEL 3
REMARK VINA RESULT:      -6.5      1.391      1.919
REMARK  9 active torsions:
REMARK  status: ('A' for Active; 'I' for Inactive)
REMARK    1  A    between atoms: O_2  and  C_17 
REMARK    2  A    between atoms: N_5  and  C_10 
REMARK    3  A    between atoms: N_6  and  C_14 
REMARK       I    between atoms: N_6  and  C_23 
REMARK       I    between atoms: N_7  and  C_22 
REMARK    4  A    between atoms: C_10  and  C_13 
REMARK    5  A    between atoms: C_14  and  C_17 
REMARK    6  A    between atoms: C_14  and  C_22 
REMARK    7  A    between atoms: C_20  and  C_25 
REMARK    8  A    between atoms: C_23  and  C_24 
REMARK    9  A    between atoms: C_28  and  C_31 
ROOT
HETATM    1  O   UNL     1      16.177   3.862  94.124  1.00  0.00    -0.388 OA
HETATM    2  N   UNL     1      14.193   2.618  92.505  1.00  0.00     0.096 N 
HETATM    3  C   UNL     1      14.331   4.080  92.564  1.00  0.00     0.299 C 
HETATM    4  C   UNL     1      14.638   2.020  93.771  1.00  0.00     0.299 C 
HETATM    5  C   UNL     1      15.776   4.451  92.885  1.00  0.00     0.198 C 
HETATM    6  C   UNL     1      16.075   2.439  94.065  1.00  0.00     0.198 C 
ENDROOT
BRANCH   2   7
HETATM    7  C   UNL     1      12.812   2.240  92.209  1.00  0.00     0.311 C 
BRANCH   7   8
HETATM    8  C   UNL     1      11.958   3.418  91.882  1.00  0.00    -0.030 A 
HETATM    9  C   UNL     1      11.265   4.078  92.897  1.00  0.00     0.010 A 
HETATM   10  C   UNL     1      10.464   5.179  92.592  1.00  0.00     0.021 A 
HETATM   11  C   UNL     1      10.359   5.619  91.273  1.00  0.00     0.018 A 
HETATM   12  C   UNL     1      11.051   4.960  90.259  1.00  0.00     0.021 A 
HETATM   13  C   UNL     1      11.852   3.859  90.563  1.00  0.00     0.010 A 
BRANCH  11  14
HETATM   14  C   UNL     1       9.539   6.749  90.960  1.00  0.00    -0.061 C 
HETATM   15  C   UNL     1       8.851   7.699  90.697  1.00  0.00    -0.061 C 
BRANCH  15  16
HETATM   16  C   UNL     1       8.032   8.829  90.384  1.00  0.00     0.018 A 
HETATM   17  C   UNL     1       6.774   8.961  90.973  1.00  0.00     0.022 A 
HETATM   18  C   UNL     1       5.976  10.065  90.670  1.00  0.00     0.018 A 
HETATM   19  C   UNL     1       6.453  11.009  89.785  1.00  0.00     0.032 A 
HETATM   20  C   UNL     1       7.692  10.900  89.190  1.00  0.00     0.018 A 
HETATM   21  C   UNL     1       8.491   9.798  89.492  1.00  0.00     0.022 A 
BRANCH  19  22
HETATM   22  C   UNL     1       5.602  12.183  89.461  1.00  0.00     0.252 C 
HETATM   23  O   UNL     1       5.674  12.685  88.342  1.00  0.00    -0.268 OA
HETATM   24  N   UNL     1       4.752  12.615  90.469  1.00  0.00    -0.342 N 
HETATM   25  H   UNL     1       4.728  12.135  91.361  1.00  0.00     0.163 HD
BRANCH  24  26
HETATM   26  C   UNL     1       3.848  13.724  90.300  1.00  0.00     0.199 C 
BRANCH  26  27
HETATM   27  C   UNL     1       2.634  13.649  91.234  1.00  0.00     0.145 C 
HETATM   28  C   UNL     1       2.497  12.287  91.906  1.00  0.00     0.042 C 
BRANCH  27  29
HETATM   29  O   UNL     1       2.745  14.654  92.242  1.00  0.00    -0.393 OA
HETATM   30  H   UNL     1       1.874  14.765  92.659  1.00  0.00     0.210 HD
ENDBRANCH  27  29
ENDBRANCH  26  27
BRANCH  26  31
HETATM   31  C   UNL     1       4.641  15.009  90.522  1.00  0.00     0.220 C 
HETATM   32  O   UNL     1       4.853  15.480  91.638  1.00  0.00    -0.278 OA
HETATM   33  N   UNL     1       5.044  15.581  89.340  1.00  0.00    -0.271 NA
HETATM   34  H   UNL     1       4.810  15.270  88.404  1.00  0.00     0.127 HD
HETATM   35  H   UNL     1       4.563  16.750  88.729  1.00  0.00     0.127 HD
ENDBRANCH  26  31
ENDBRANCH  24  26
ENDBRANCH  19  22
ENDBRANCH  15  16
ENDBRANCH  11  14
ENDBRANCH   7   8
ENDBRANCH   2   7
TORSDOF 9
ENDMDL
MODEL 4
REMARK VINA RESULT:      -6.2      2.634     12.241
REMARK  9 active torsions:
REMARK  status: ('A' for Active; 'I' for Inactive)
REMARK    1  A    between atoms: O_2  and  C_17 
REMARK    2  A    between atoms: N_5  and  C_10 
REMARK    3  A    between atoms: N_6  and  C_14 
REMARK       I    between atoms: N_6  and  C_23 
REMARK       I    between atoms: N_7  and  C_22 
REMARK    4  A    between atoms: C_10  and  C_13 
REMARK    5  A    between atoms: C_14  and  C_17 
REMARK    6  A    between atoms: C_14  and  C_22 
REMARK    7  A    between atoms: C_20  and  C_25 
REMARK    8  A    between atoms: C_23  and  C_24 
REMARK    9  A    between atoms: C_28  and  C_31 
ROOT
HETATM    1  O   UNL     1       2.520  14.564  94.122  1.00  0.00    -0.388 OA
HETATM    2  N   UNL     1       2.394  14.673  91.281  1.00  0.00     0.096 N 
HETATM    3  C   UNL     1       1.483  13.821  92.058  1.00  0.00     0.299 C 
HETATM    4  C   UNL     1       3.663  14.841  92.001  1.00  0.00     0.299 C 
HETATM    5  C   UNL     1       1.270  14.422  93.445  1.00  0.00     0.198 C 
HETATM    6  C   UNL     1       3.400  15.417  93.389  1.00  0.00     0.198 C 
ENDROOT
BRANCH   2   7
HETATM    7  C   UNL     1       2.621  14.111  89.951  1.00  0.00     0.311 C 
BRANCH   7   8
HETATM    8  C   UNL     1       3.632  13.016  89.963  1.00  0.00    -0.030 A 
HETATM    9  C   UNL     1       4.841  13.176  89.284  1.00  0.00     0.010 A 
HETATM   10  C   UNL     1       5.787  12.151  89.292  1.00  0.00     0.021 A 
HETATM   11  C   UNL     1       5.524  10.967  89.981  1.00  0.00     0.018 A 
HETATM   12  C   UNL     1       4.318  10.806  90.659  1.00  0.00     0.021 A 
HETATM   13  C   UNL     1       3.371  11.831  90.651  1.00  0.00     0.010 A 
BRANCH  11  14
HETATM   14  C   UNL     1       6.496   9.917  89.991  1.00  0.00    -0.061 C 
HETATM   15  C   UNL     1       7.313   9.035  90.000  1.00  0.00    -0.061 C 
BRANCH  15  16
HETATM   16  C   UNL     1       8.283   7.985  90.012  1.00  0.00     0.018 A 
HETATM   17  C   UNL     1       8.581   7.324  91.204  1.00  0.00     0.022 A 
HETATM   18  C   UNL     1       9.526   6.299  91.214  1.00  0.00     0.018 A 
HETATM   19  C   UNL     1      10.151   5.956  90.033  1.00  0.00     0.032 A 
HETATM   20  C   UNL     1       9.874   6.594  88.842  1.00  0.00     0.018 A 
HETATM   21  C   UNL     1       8.930   7.620  88.831  1.00  0.00     0.022 A 
BRANCH  19  22
HETATM   22  C   UNL     1      11.159   4.864  90.045  1.00  0.00     0.252 C 
HETATM   23  O   UNL     1      11.398   4.257  89.004  1.00  0.00    -0.268 OA
HETATM   24  N   UNL     1      11.785   4.628  91.261  1.00  0.00    -0.342 N 
HETATM   25  H   UNL     1      11.554   5.187  92.074  1.00  0.00     0.163 HD
BRANCH  24  26
HETATM   26  C   UNL     1      12.801   3.620  91.427  1.00  0.00     0.199 C 
BRANCH  26  27
HETATM   27  C   UNL     1      14.159   4.208  91.832  1.00  0.00     0.145 C 
HETATM   28  C   UNL     1      15.191   3.130  92.146  1.00  0.00     0.042 C 
BRANCH  27  29
HETATM   29  O   UNL     1      14.656   5.032  90.778  1.00  0.00    -0.393 OA
HETATM   30  H   UNL     1      14.599   4.531  89.947  1.00  0.00     0.210 HD
ENDBRANCH  27  29
ENDBRANCH  26  27
BRANCH  26  31
HETATM   31  C   UNL     1      12.299   2.619  92.463  1.00  0.00     0.220 C 
HETATM   32  O   UNL     1      12.184   2.891  93.656  1.00  0.00    -0.278 OA
HETATM   33  N   UNL     1      12.036   1.389  91.910  1.00  0.00    -0.271 NA
HETATM   34  H   UNL     1      12.204   1.106  90.952  1.00  0.00     0.127 HD
HETATM   35  H   UNL     1      12.759   0.195  92.057  1.00  0.00     0.127 HD
ENDBRANCH  26  31
ENDBRANCH  24  26
ENDBRANCH  19  22
ENDBRANCH  15  16
ENDBRANCH  11  14
ENDBRANCH   7   8
ENDBRANCH   2   7
TORSDOF 9
ENDMDL
MODEL 5
REMARK VINA RESULT:      -5.7      1.790     12.266
REMARK  9 active torsions:
REMARK  status: ('A' for Active; 'I' for Inactive)
REMARK    1  A    between atoms: O_2  and  C_17 
REMARK    2  A    between atoms: N_5  and  C_10 
REMARK    3  A    between atoms: N_6  and  C_14 
REMARK       I    between atoms: N_6  and  C_23 
REMARK       I    between atoms: N_7  and  C_22 
REMARK    4  A    between atoms: C_10  and  C_13 
REMARK    5  A    between atoms: C_14  and  C_17 
REMARK    6  A    between atoms: C_14  and  C_22 
REMARK    7  A    between atoms: C_20  and  C_25 
REMARK    8  A    between atoms: C_23  and  C_24 
REMARK    9  A    between atoms: C_28  and  C_31 
ROOT
HETATM    1  O   UNL     1       3.388  14.150  92.169  1.00  0.00    -0.388 OA
HETATM    2  N   UNL     1       3.582  13.110  89.526  1.00  0.00     0.096 N 
HETATM    3  C   UNL     1       2.753  12.457  90.550  1.00  0.00     0.299 C 
HETATM    4  C   UNL     1       4.707  13.811  90.161  1.00  0.00     0.299 C 
HETATM    5  C   UNL     1       2.273  13.493  91.563  1.00  0.00     0.198 C 
HETATM    6  C   UNL     1       4.181  14.813  91.183  1.00  0.00     0.198 C 
ENDROOT
BRANCH   2   7
HETATM    7  C   UNL     1       4.062  12.134  88.549  1.00  0.00     0.311 C 
BRANCH   7   8
HETATM    8  C   UNL     1       5.027  11.164  89.142  1.00  0.00    -0.030 A 
HETATM    9  C   UNL     1       6.368  11.519  89.291  1.00  0.00     0.010 A 
HETATM   10  C   UNL     1       7.272  10.612  89.843  1.00  0.00     0.021 A 
HETATM   11  C   UNL     1       6.834   9.352  90.249  1.00  0.00     0.018 A 
HETATM   12  C   UNL     1       5.495   8.997  90.101  1.00  0.00     0.021 A 
HETATM   13  C   UNL     1       4.591   9.903  89.548  1.00  0.00     0.010 A 
BRANCH  11  14
HETATM   14  C   UNL     1       7.761   8.422  90.818  1.00  0.00    -0.061 C 
HETATM   15  C   UNL     1       8.540   7.641  91.296  1.00  0.00    -0.061 C 
BRANCH  15  16
HETATM   16  C   UNL     1       9.466   6.712  91.865  1.00  0.00     0.018 A 
HETATM   17  C   UNL     1      10.130   5.800  91.045  1.00  0.00     0.022 A 
HETATM   18  C   UNL     1      11.035   4.895  91.600  1.00  0.00     0.018 A 
HETATM   19  C   UNL     1      11.256   4.923  92.961  1.00  0.00     0.032 A 
HETATM   20  C   UNL     1      10.612   5.815  93.793  1.00  0.00     0.018 A 
HETATM   21  C   UNL     1       9.707   6.720  93.239  1.00  0.00     0.022 A 
BRANCH  19  22
HETATM   22  C   UNL     1      12.219   3.958  93.551  1.00  0.00     0.252 C 
HETATM   23  O   UNL     1      11.791   2.959  94.124  1.00  0.00    -0.268 OA
HETATM   24  N   UNL     1      13.563   4.260  93.383  1.00  0.00    -0.342 N 
HETATM   25  H   UNL     1      13.842   5.092  92.877  1.00  0.00     0.163 HD
BRANCH  24  26
HETATM   26  C   UNL     1      14.617   3.410  93.877  1.00  0.00     0.199 C 
BRANCH  26  27
HETATM   27  C   UNL     1      14.771   2.121  93.061  1.00  0.00     0.145 C 
HETATM   28  C   UNL     1      14.757   0.872  93.935  1.00  0.00     0.042 C 
BRANCH  27  29
HETATM   29  O   UNL     1      13.713   2.030  92.107  1.00  0.00    -0.393 OA
HETATM   30  H   UNL     1      12.878   1.911  92.589  1.00  0.00     0.210 HD
ENDBRANCH  27  29
ENDBRANCH  26  27
BRANCH  26  31
HETATM   31  C   UNL     1      15.908   4.223  93.880  1.00  0.00     0.220 C 
HETATM   32  O   UNL     1      15.933   5.441  93.714  1.00  0.00    -0.278 OA
HETATM   33  N   UNL     1      17.018   3.431  94.048  1.00  0.00    -0.271 NA
HETATM   34  H   UNL     1      17.041   2.420  94.098  1.00  0.00     0.127 HD
HETATM   35  H   UNL     1      17.997   3.091  93.102  1.00  0.00     0.127 HD
ENDBRANCH  26  31
ENDBRANCH  24  26
ENDBRANCH  19  22
ENDBRANCH  15  16
ENDBRANCH  11  14
ENDBRANCH   7   8
ENDBRANCH   2   7
TORSDOF 9
ENDMDL
MODEL 6
REMARK VINA RESULT:      -5.5      1.883     12.267
REMARK  9 active torsions:
REMARK  status: ('A' for Active; 'I' for Inactive)
REMARK    1  A    between atoms: O_2  and  C_17 
REMARK    2  A    between atoms: N_5  and  C_10 
REMARK    3  A    between atoms: N_6  and  C_14 
REMARK       I    between atoms: N_6  and  C_23 
REMARK       I    between atoms: N_7  and  C_22 
REMARK    4  A    between atoms: C_10  and  C_13 
REMARK    5  A    between atoms: C_14  and  C_17 
REMARK    6  A    between atoms: C_14  and  C_22 
REMARK    7  A    between atoms: C_20  and  C_25 
REMARK    8  A    between atoms: C_23  and  C_24 
REMARK    9  A    between atoms: C_28  and  C_31 
ROOT
HETATM    1  O   UNL     1       5.518  14.813  88.849  1.00  0.00    -0.388 OA
HETATM    2  N   UNL     1       3.657  13.097  90.151  1.00  0.00     0.096 N 
HETATM    3  C   UNL     1       4.085  14.366  90.756  1.00  0.00     0.299 C 
HETATM    4  C   UNL     1       4.724  12.564  89.292  1.00  0.00     0.299 C 
HETATM    5  C   UNL     1       4.475  15.355  89.661  1.00  0.00     0.198 C 
HETATM    6  C   UNL     1       5.099  13.595  88.232  1.00  0.00     0.198 C 
ENDROOT
BRANCH   2   7
HETATM    7  C   UNL     1       3.289  12.129  91.183  1.00  0.00     0.311 C 
BRANCH   7   8
HETATM    8  C   UNL     1       4.361  11.122  91.426  1.00  0.00    -0.030 A 
HETATM    9  C   UNL     1       4.403   9.952  90.667  1.00  0.00     0.010 A 
HETATM   10  C   UNL     1       5.404   9.008  90.895  1.00  0.00     0.021 A 
HETATM   11  C   UNL     1       6.364   9.236  91.880  1.00  0.00     0.018 A 
HETATM   12  C   UNL     1       6.324  10.404  92.638  1.00  0.00     0.021 A 
HETATM   13  C   UNL     1       5.322  11.348  92.411  1.00  0.00     0.010 A 
BRANCH  11  14
HETATM   14  C   UNL     1       7.392   8.269  92.112  1.00  0.00    -0.061 C 
HETATM   15  C   UNL     1       8.257   7.456  92.307  1.00  0.00    -0.061 C 
BRANCH  15  16
HETATM   16  C   UNL     1       9.285   6.490  92.539  1.00  0.00     0.018 A 
HETATM   17  C   UNL     1       9.857   5.810  91.463  1.00  0.00     0.022 A 
HETATM   18  C   UNL     1      10.862   4.869  91.689  1.00  0.00     0.018 A 
HETATM   19  C   UNL     1      11.272   4.631  92.984  1.00  0.00     0.032 A 
HETATM   20  C   UNL     1      10.722   5.289  94.064  1.00  0.00     0.018 A 
HETATM   21  C   UNL     1       9.717   6.230  93.839  1.00  0.00     0.022 A 
BRANCH  19  22
HETATM   22  C   UNL     1      12.341   3.627  93.225  1.00  0.00     0.252 C 
HETATM   23  O   UNL     1      12.058   2.432  93.204  1.00  0.00    -0.268 OA
HETATM   24  N   UNL     1      13.616   4.135  93.437  1.00  0.00    -0.342 N 
HETATM   25  H   UNL     1      13.779   5.135  93.415  1.00  0.00     0.163 HD
BRANCH  24  26
HETATM   26  C   UNL     1      14.761   3.290  93.660  1.00  0.00     0.199 C 
BRANCH  26  27
HETATM   27  C   UNL     1      15.074   2.387  92.460  1.00  0.00     0.145 C 
HETATM   28  C   UNL     1      14.900   3.106  91.127  1.00  0.00     0.042 C 
BRANCH  27  29
HETATM   29  O   UNL     1      16.417   1.912  92.558  1.00  0.00    -0.393 OA
HETATM   30  H   UNL     1      16.976   2.641  92.874  1.00  0.00     0.210 HD
ENDBRANCH  27  29
ENDBRANCH  26  27
BRANCH  26  31
HETATM   31  C   UNL     1      15.944   4.189  94.001  1.00  0.00     0.220 C 
HETATM   32  O   UNL     1      15.847   5.409  94.116  1.00  0.00    -0.278 OA
HETATM   33  N   UNL     1      17.115   3.481  94.124  1.00  0.00    -0.271 NA
HETATM   34  H   UNL     1      17.247   2.491  93.949  1.00  0.00     0.127 HD
HETATM   35  H   UNL     1      18.216   3.459  93.253  1.00  0.00     0.127 HD
ENDBRANCH  26  31
ENDBRANCH  24  26
ENDBRANCH  19  22
ENDBRANCH  15  16
ENDBRANCH  11  14
ENDBRANCH   7   8
ENDBRANCH   2   7
TORSDOF 9
ENDMDL
MODEL 7
REMARK VINA RESULT:      -5.4      2.385     12.512
REMARK  9 active torsions:
REMARK  status: ('A' for Active; 'I' for Inactive)
REMARK    1  A    between atoms: O_2  and  C_17 
REMARK    2  A    between atoms: N_5  and  C_10 
REMARK    3  A    between atoms: N_6  and  C_14 
REMARK       I    between atoms: N_6  and  C_23 
REMARK       I    between atoms: N_7  and  C_22 
REMARK    4  A    between atoms: C_10  and  C_13 
REMARK    5  A    between atoms: C_14  and  C_17 
REMARK    6  A    between atoms: C_14  and  C_22 
REMARK    7  A    between atoms: C_20  and  C_25 
REMARK    8  A    between atoms: C_23  and  C_24 
REMARK    9  A    between atoms: C_28  and  C_31 
ROOT
HETATM    1  O   UNL     1       1.929  14.985  92.978  1.00  0.00    -0.388 OA
HETATM    2  N   UNL     1       2.953  12.637  91.738  1.00  0.00     0.096 N 
HETATM    3  C   UNL     1       3.376  13.978  91.311  1.00  0.00     0.299 C 
HETATM    4  C   UNL     1       1.587  12.688  92.278  1.00  0.00     0.299 C 
HETATM    5  C   UNL     1       3.268  14.952  92.482  1.00  0.00     0.198 C 
HETATM    6  C   UNL     1       1.521  13.692  93.424  1.00  0.00     0.198 C 
ENDROOT
BRANCH   2   7
HETATM    7  C   UNL     1       3.038  11.689  90.628  1.00  0.00     0.311 C 
BRANCH   7   8
HETATM    8  C   UNL     1       4.197  10.761  90.761  1.00  0.00    -0.030 A 
HETATM    9  C   UNL     1       5.475  11.272  90.993  1.00  0.00     0.010 A 
HETATM   10  C   UNL     1       6.560  10.404  91.116  1.00  0.00     0.021 A 
HETATM   11  C   UNL     1       6.367   9.027  91.009  1.00  0.00     0.018 A 
HETATM   12  C   UNL     1       5.091   8.517  90.778  1.00  0.00     0.021 A 
HETATM   13  C   UNL     1       4.006   9.384  90.654  1.00  0.00     0.010 A 
BRANCH  11  14
HETATM   14  C   UNL     1       7.480   8.138  91.137  1.00  0.00    -0.061 C 
HETATM   15  C   UNL     1       8.416   7.391  91.245  1.00  0.00    -0.061 C 
BRANCH  15  16
HETATM   16  C   UNL     1       9.529   6.502  91.373  1.00  0.00     0.018 A 
HETATM   17  C   UNL     1      10.047   6.213  92.636  1.00  0.00     0.022 A 
HETATM   18  C   UNL     1      11.130   5.344  92.762  1.00  0.00     0.018 A 
HETATM   19  C   UNL     1      11.671   4.783  91.624  1.00  0.00     0.032 A 
HETATM   20  C   UNL     1      11.177   5.053  90.365  1.00  0.00     0.018 A 
HETATM   21  C   UNL     1      10.093   5.922  90.238  1.00  0.00     0.022 A 
BRANCH  19  22
HETATM   22  C   UNL     1      12.826   3.859  91.758  1.00  0.00     0.252 C 
HETATM   23  O   UNL     1      13.004   2.993  90.905  1.00  0.00    -0.268 OA
HETATM   24  N   UNL     1      13.649   4.070  92.856  1.00  0.00    -0.342 N 
HETATM   25  H   UNL     1      13.453   4.821  93.506  1.00  0.00     0.163 HD
BRANCH  24  26
HETATM   26  C   UNL     1      14.822   3.272  93.110  1.00  0.00     0.199 C 
BRANCH  26  27
HETATM   27  C   UNL     1      15.896   4.032  93.899  1.00  0.00     0.145 C 
HETATM   28  C   UNL     1      17.284   3.425  93.728  1.00  0.00     0.042 C 
BRANCH  27  29
HETATM   29  O   UNL     1      15.929   5.393  93.472  1.00  0.00    -0.393 OA
HETATM   30  H   UNL     1      16.708   5.516  92.905  1.00  0.00     0.210 HD
ENDBRANCH  27  29
ENDBRANCH  26  27
BRANCH  26  31
HETATM   31  C   UNL     1      14.378   2.013  93.848  1.00  0.00     0.220 C 
HETATM   32  O   UNL     1      15.146   1.093  94.124  1.00  0.00    -0.278 OA
HETATM   33  N   UNL     1      13.032   2.020  94.124  1.00  0.00    -0.271 NA
HETATM   34  H   UNL     1      12.357   2.718  93.833  1.00  0.00     0.127 HD
HETATM   35  H   UNL     1      12.018   1.250  93.534  1.00  0.00     0.127 HD
ENDBRANCH  26  31
ENDBRANCH  24  26
ENDBRANCH  19  22
ENDBRANCH  15  16
ENDBRANCH  11  14
ENDBRANCH   7   8
ENDBRANCH   2   7
TORSDOF 9
ENDMDL
MODEL 8
REMARK VINA RESULT:      -4.8      2.571      3.243
REMARK  9 active torsions:
REMARK  status: ('A' for Active; 'I' for Inactive)
REMARK    1  A    between atoms: O_2  and  C_17 
REMARK    2  A    between atoms: N_5  and  C_10 
REMARK    3  A    between atoms: N_6  and  C_14 
REMARK       I    between atoms: N_6  and  C_23 
REMARK       I    between atoms: N_7  and  C_22 
REMARK    4  A    between atoms: C_10  and  C_13 
REMARK    5  A    between atoms: C_14  and  C_17 
REMARK    6  A    between atoms: C_14  and  C_22 
REMARK    7  A    between atoms: C_20  and  C_25 
REMARK    8  A    between atoms: C_23  and  C_24 
REMARK    9  A    between atoms: C_28  and  C_31 
ROOT
HETATM    1  O   UNL     1      16.674   3.343  93.834  1.00  0.00    -0.388 OA
HETATM    2  N   UNL     1      14.057   3.181  92.728  1.00  0.00     0.096 N 
HETATM    3  C   UNL     1      14.341   4.007  93.909  1.00  0.00     0.299 C 
HETATM    4  C   UNL     1      14.986   2.044  92.673  1.00  0.00     0.299 C 
HETATM    5  C   UNL     1      15.796   4.469  93.879  1.00  0.00     0.198 C 
HETATM    6  C   UNL     1      16.425   2.551  92.672  1.00  0.00     0.198 C 
ENDROOT
BRANCH   2   7
HETATM    7  C   UNL     1      12.670   2.718  92.741  1.00  0.00     0.311 C 
BRANCH   7   8
HETATM    8  C   UNL     1      11.695   3.846  92.776  1.00  0.00    -0.030 A 
HETATM    9  C   UNL     1      11.318   4.402  93.999  1.00  0.00     0.010 A 
HETATM   10  C   UNL     1      10.404   5.455  94.033  1.00  0.00     0.021 A 
HETATM   11  C   UNL     1       9.871   5.953  92.845  1.00  0.00     0.018 A 
HETATM   12  C   UNL     1      10.248   5.399  91.623  1.00  0.00     0.021 A 
HETATM   13  C   UNL     1      11.161   4.345  91.589  1.00  0.00     0.010 A 
BRANCH  11  14
HETATM   14  C   UNL     1       8.936   7.035  92.880  1.00  0.00    -0.061 C 
HETATM   15  C   UNL     1       8.150   7.945  92.910  1.00  0.00    -0.061 C 
BRANCH  15  16
HETATM   16  C   UNL     1       7.216   9.027  92.944  1.00  0.00     0.018 A 
HETATM   17  C   UNL     1       7.533  10.199  93.633  1.00  0.00     0.022 A 
HETATM   18  C   UNL     1       6.623  11.255  93.664  1.00  0.00     0.018 A 
HETATM   19  C   UNL     1       5.418  11.117  93.007  1.00  0.00     0.032 A 
HETATM   20  C   UNL     1       5.081   9.969  92.320  1.00  0.00     0.018 A 
HETATM   21  C   UNL     1       5.991   8.912  92.288  1.00  0.00     0.022 A 
BRANCH  19  22
HETATM   22  C   UNL     1       4.448  12.242  93.043  1.00  0.00     0.252 C 
HETATM   23  O   UNL     1       4.151  12.744  94.124  1.00  0.00    -0.268 OA
HETATM   24  N   UNL     1       3.960  12.663  91.813  1.00  0.00    -0.342 N 
HETATM   25  H   UNL     1       4.270  12.217  90.958  1.00  0.00     0.163 HD
BRANCH  24  26
HETATM   26  C   UNL     1       3.032  13.757  91.681  1.00  0.00     0.199 C 
BRANCH  26  27
HETATM   27  C   UNL     1       1.705  13.501  92.407  1.00  0.00     0.145 C 
HETATM   28  C   UNL     1       1.304  12.030  92.389  1.00  0.00     0.042 C 
BRANCH  27  29
HETATM   29  O   UNL     1       1.810  13.937  93.762  1.00  0.00    -0.393 OA
HETATM   30  H   UNL     1       1.022  13.631  94.242  1.00  0.00     0.210 HD
ENDBRANCH  27  29
ENDBRANCH  26  27
BRANCH  26  31
HETATM   31  C   UNL     1       3.717  15.015  92.205  1.00  0.00     0.220 C 
HETATM   32  O   UNL     1       3.327  15.625  93.199  1.00  0.00    -0.278 OA
HETATM   33  N   UNL     1       4.778  15.394  91.419  1.00  0.00    -0.271 NA
HETATM   34  H   UNL     1       5.070  14.968  90.547  1.00  0.00     0.127 HD
HETATM   35  H   UNL     1       4.869  16.491  90.548  1.00  0.00     0.127 HD
ENDBRANCH  26  31
ENDBRANCH  24  26
ENDBRANCH  19  22
ENDBRANCH  15  16
ENDBRANCH  11  14
ENDBRANCH   7   8
ENDBRANCH   2   7
TORSDOF 9
ENDMDL
MODEL 9
REMARK VINA RESULT:      -4.7      2.859     12.495
REMARK  9 active torsions:
REMARK  status: ('A' for Active; 'I' for Inactive)
REMARK    1  A    between atoms: O_2  and  C_17 
REMARK    2  A    between atoms: N_5  and  C_10 
REMARK    3  A    between atoms: N_6  and  C_14 
REMARK       I    between atoms: N_6  and  C_23 
REMARK       I    between atoms: N_7  and  C_22 
REMARK    4  A    between atoms: C_10  and  C_13 
REMARK    5  A    between atoms: C_14  and  C_17 
REMARK    6  A    between atoms: C_14  and  C_22 
REMARK    7  A    between atoms: C_20  and  C_25 
REMARK    8  A    between atoms: C_23  and  C_24 
REMARK    9  A    between atoms: C_28  and  C_31 
ROOT
HETATM    1  O   UNL     1       2.272  15.160  93.154  1.00  0.00    -0.388 OA
HETATM    2  N   UNL     1       2.724  12.378  92.753  1.00  0.00     0.096 N 
HETATM    3  C   UNL     1       3.331  13.389  91.876  1.00  0.00     0.299 C 
HETATM    4  C   UNL     1       1.454  12.881  93.296  1.00  0.00     0.299 C 
HETATM    5  C   UNL     1       3.524  14.693  92.646  1.00  0.00     0.198 C 
HETATM    6  C   UNL     1       1.690  14.196  94.032  1.00  0.00     0.198 C 
ENDROOT
BRANCH   2   7
HETATM    7  C   UNL     1       2.520  11.123  92.032  1.00  0.00     0.311 C 
BRANCH   7   8
HETATM    8  C   UNL     1       3.683  10.199  92.162  1.00  0.00    -0.030 A 
HETATM    9  C   UNL     1       3.684   8.981  91.481  1.00  0.00     0.010 A 
HETATM   10  C   UNL     1       4.770   8.114  91.604  1.00  0.00     0.021 A 
HETATM   11  C   UNL     1       5.855   8.467  92.405  1.00  0.00     0.018 A 
HETATM   12  C   UNL     1       5.855   9.683  93.086  1.00  0.00     0.021 A 
HETATM   13  C   UNL     1       4.769  10.550  92.964  1.00  0.00     0.010 A 
BRANCH  11  14
HETATM   14  C   UNL     1       6.970   7.579  92.529  1.00  0.00    -0.061 C 
HETATM   15  C   UNL     1       7.908   6.834  92.633  1.00  0.00    -0.061 C 
BRANCH  15  16
HETATM   16  C   UNL     1       9.022   5.947  92.758  1.00  0.00     0.018 A 
HETATM   17  C   UNL     1       9.365   5.106  91.698  1.00  0.00     0.022 A 
HETATM   18  C   UNL     1      10.454   4.243  91.819  1.00  0.00     0.018 A 
HETATM   19  C   UNL     1      11.175   4.240  92.994  1.00  0.00     0.032 A 
HETATM   20  C   UNL     1      10.856   5.061  94.056  1.00  0.00     0.018 A 
HETATM   21  C   UNL     1       9.767   5.924  93.937  1.00  0.00     0.022 A 
BRANCH  19  22
HETATM   22  C   UNL     1      12.334   3.319  93.123  1.00  0.00     0.252 C 
HETATM   23  O   UNL     1      12.135   2.108  93.174  1.00  0.00    -0.268 OA
HETATM   24  N   UNL     1      13.586   3.917  93.152  1.00  0.00    -0.342 N 
HETATM   25  H   UNL     1      13.675   4.924  93.080  1.00  0.00     0.163 HD
BRANCH  24  26
HETATM   26  C   UNL     1      14.807   3.158  93.249  1.00  0.00     0.199 C 
BRANCH  26  27
HETATM   27  C   UNL     1      15.173   2.453  91.937  1.00  0.00     0.145 C 
HETATM   28  C   UNL     1      14.897   3.319  90.712  1.00  0.00     0.042 C 
BRANCH  27  29
HETATM   29  O   UNL     1      16.556   2.101  91.954  1.00  0.00    -0.393 OA
HETATM   30  H   UNL     1      16.873   2.156  92.871  1.00  0.00     0.210 HD
ENDBRANCH  27  29
ENDBRANCH  26  27
BRANCH  26  31
HETATM   31  C   UNL     1      15.913   4.108  93.695  1.00  0.00     0.220 C 
HETATM   32  O   UNL     1      15.806   5.332  93.643  1.00  0.00    -0.278 OA
HETATM   33  N   UNL     1      17.035   3.437  94.118  1.00  0.00    -0.271 NA
HETATM   34  H   UNL     1      17.189   2.436  94.090  1.00  0.00     0.127 HD
HETATM   35  H   UNL     1      18.278   3.328  93.475  1.00  0.00     0.127 HD
ENDBRANCH  26  31
ENDBRANCH  24  26
ENDBRANCH  19  22
ENDBRANCH  15  16
ENDBRANCH  11  14
ENDBRANCH   7   8
ENDBRANCH   2   7
TORSDOF 9
ENDMDL
