MODEL 1
REMARK VINA RESULT:      -7.6      0.000      0.000
REMARK  9 active torsions:
REMARK  status: ('A' for Active; 'I' for Inactive)
REMARK    1  A    between atoms: N_3  and  C_6 
REMARK    2  A    between atoms: C_6  and  C_9 
REMARK    3  A    between atoms: C_14  and  C_17 
REMARK       I    between atoms: N_26  and  C_15 
REMARK    4  A    between atoms: C_15  and  C_16 
REMARK    5  A    between atoms: C_20  and  C_23 
REMARK    6  A    between atoms: OG1_24  and  CB_28 
REMARK    7  A    between atoms: N_26  and  CA_27 
REMARK    8  A    between atoms: CA_27  and  CB_28 
REMARK    9  A    between atoms: CA_27  and  C_30 
ROOT
HETATM    1  O   UNK A   0       1.923   8.207  87.828  1.00  0.00    -0.388 OA
HETATM    2  N   UNK A   0       4.700   7.610  87.653  1.00  0.00     0.096 N 
HETATM    3  C   UNK A   0       4.217   8.994  87.747  1.00  0.00     0.299 C 
HETATM    4  C   UNK A   0       3.690   6.768  86.997  1.00  0.00     0.299 C 
HETATM    5  C   UNK A   0       2.885   9.027  88.493  1.00  0.00     0.198 C 
HETATM    6  C   UNK A   0       2.371   6.853  87.759  1.00  0.00     0.198 C 
ENDROOT
BRANCH   2   7
HETATM    7  C   UNK A   0       5.971   7.553  86.932  1.00  0.00     0.311 C 
BRANCH   7   8
HETATM    8  C   UNK A   0       7.060   6.944  87.748  1.00  0.00    -0.030 A 
HETATM    9  C   UNK A   0       8.308   6.701  87.173  1.00  0.00     0.010 A 
HETATM   10  C   UNK A   0       9.327   6.130  87.934  1.00  0.00     0.021 A 
HETATM   11  C   UNK A   0       9.098   5.803  89.271  1.00  0.00     0.018 A 
HETATM   12  C   UNK A   0       7.852   6.046  89.846  1.00  0.00     0.021 A 
HETATM   13  C   UNK A   0       6.833   6.617  89.084  1.00  0.00     0.010 A 
BRANCH  11  14
HETATM   14  C   UNK A   0      10.144   5.219  90.052  1.00  0.00    -0.061 C 
HETATM   15  C   UNK A   0      11.024   4.729  90.710  1.00  0.00    -0.061 C 
BRANCH  15  16
HETATM   16  C   UNK A   0      12.068   4.145  91.492  1.00  0.00     0.018 A 
HETATM   17  C   UNK A   0      13.327   3.936  90.927  1.00  0.00     0.022 A 
HETATM   18  C   UNK A   0      14.347   3.369  91.691  1.00  0.00     0.018 A 
HETATM   19  C   UNK A   0      14.086   3.024  93.001  1.00  0.00     0.032 A 
HETATM   20  C   UNK A   0      12.851   3.220  93.582  1.00  0.00     0.018 A 
HETATM   21  C   UNK A   0      11.830   3.787  92.819  1.00  0.00     0.022 A 
BRANCH  19  22
HETATM   22  C   UNK A   0      15.173   2.418  93.814  1.00  0.00     0.252 C 
HETATM   23  O   UNK A   0      16.320   2.842  93.692  1.00  0.00    -0.268 OA
ENDBRANCH  19  22
ENDBRANCH  15  16
ENDBRANCH  11  14
ENDBRANCH   7   8
ENDBRANCH   2   7
TORSDOF 9
ENDMDL
