MODEL 1
REMARK VINA RESULT:      -6.0      0.000      0.000
REMARK  12 active torsions:
REMARK  status: ('A' for Active; 'I' for Inactive)
REMARK    1  A    between atoms: O_2  and  C_16 
REMARK    2  A    between atoms: N_5  and  C_9 
REMARK    3  A    between atoms: N_6  and  C_13 
REMARK       I    between atoms: N_6  and  C_22 
REMARK    4  A    between atoms: C_9  and  C_12 
REMARK    5  A    between atoms: C_13  and  C_16 
REMARK    6  A    between atoms: C_13  and  C_21 
REMARK    7  A    between atoms: C_19  and  C_24 
REMARK    8  A    between atoms: C_21  and  C_33 
REMARK    9  A    between atoms: C_22  and  C_23 
REMARK   10  A    between atoms: C_27  and  C_30 
REMARK   11  A    between atoms: C_33  and  C_34 
REMARK   12  A    between atoms: C_34  and  C_35 
ROOT
HETATM    1  O   UNL     1      16.999   3.827  93.828  1.00  0.00    -0.350 OA
HETATM    2  N   UNL     1      14.420   3.007  92.946  1.00  0.00     0.147 N 
HETATM    3  C   UNL     1      15.536   2.056  93.045  1.00  0.00     0.283 C 
HETATM    4  C   UNL     1      14.932   4.358  92.675  1.00  0.00     0.283 C 
HETATM    5  C   UNL     1      16.513   2.517  94.124  1.00  0.00     0.178 C 
HETATM    6  C   UNL     1      15.923   4.764  93.761  1.00  0.00     0.178 C 
ENDROOT
BRANCH   2   7
HETATM    7  C   UNL     1      13.476   2.591  91.910  1.00  0.00     0.277 C 
BRANCH   7   8
HETATM    8  C   UNL     1      12.305   3.508  91.808  1.00  0.00     0.011 A 
HETATM    9  C   UNL     1      11.586   3.850  92.953  1.00  0.00    -0.002 A 
HETATM   10  C   UNL     1      10.489   4.706  92.858  1.00  0.00     0.008 A 
HETATM   11  C   UNL     1      10.112   5.220  91.618  1.00  0.00     0.042 A 
HETATM   12  C   UNL     1      10.830   4.879  90.473  1.00  0.00     0.008 A 
HETATM   13  C   UNL     1      11.927   4.023  90.568  1.00  0.00    -0.002 A 
BRANCH  11  14
HETATM   14  C   UNL     1       8.988   6.100  91.521  1.00  0.00    -0.059 C 
HETATM   15  C   UNL     1       8.043   6.839  91.441  1.00  0.00    -0.059 C 
BRANCH  15  16
HETATM   16  C   UNL     1       6.920   7.718  91.344  1.00  0.00     0.042 A 
HETATM   17  C   UNL     1       6.091   7.670  90.223  1.00  0.00     0.008 A 
HETATM   18  C   UNL     1       4.994   8.526  90.131  1.00  0.00     0.005 A 
HETATM   19  C   UNL     1       4.750   9.410  91.160  1.00  0.00     0.056 A 
HETATM   20  C   UNL     1       5.554   9.478  92.279  1.00  0.00     0.005 A 
HETATM   21  C   UNL     1       6.652   8.622  92.372  1.00  0.00     0.008 A 
BRANCH  19  22
HETATM   22  C   UNL     1       3.582  10.323  91.061  1.00  0.00     0.254 C 
HETATM   23  O   UNL     1       2.559   9.930  90.506  1.00  0.00    -0.268 OA
HETATM   24  N   UNL     1       3.738  11.575  91.640  1.00  0.00    -0.335 N 
HETATM   25  HN  UNL     1       4.605  11.821  92.103  1.00  0.00     0.164 HD
BRANCH  24  26
HETATM   26  C   UNL     1       2.689  12.562  91.647  1.00  0.00     0.166 C 
BRANCH  26  27
HETATM   27  C   UNL     1       2.639  13.367  92.951  1.00  0.00     0.138 C 
HETATM   28  C   UNL     1       1.324  13.185  93.700  1.00  0.00     0.034 C 
BRANCH  27  29
HETATM   29  O   UNL     1       3.715  12.967  93.800  1.00  0.00    -0.383 OA
HETATM   30  H   UNL     1       3.368  12.339  94.456  1.00  0.00     0.210 HD
ENDBRANCH  27  29
ENDBRANCH  26  27
BRANCH  26  31
HETATM   31  C   UNL     1       2.898  13.473  90.441  1.00  0.00     0.181 C 
HETATM   32  O   UNL     1       1.990  14.125  89.929  1.00  0.00    -0.294 OA
BRANCH  31  33
HETATM   33  C   UNL     1       4.123  14.509  90.674  1.00  0.00     0.138 C 
BRANCH  33  34
HETATM   34  C   UNL     1       4.817  14.392  89.449  1.00  0.00     0.208 C 
HETATM   35  O   UNL     1       5.511  15.333  89.139  1.00  0.00    -0.289 OA
BRANCH  34  36
HETATM   36  C   UNL     1       5.076  13.292  88.678  1.00  0.00     0.194 C 
HETATM   37  O   UNL     1       5.969  12.234  88.884  1.00  0.00    -0.185 OA
ENDBRANCH  34  36
ENDBRANCH  33  34
ENDBRANCH  31  33
ENDBRANCH  26  31
ENDBRANCH  24  26
ENDBRANCH  19  22
ENDBRANCH  15  16
ENDBRANCH  11  14
ENDBRANCH   7   8
ENDBRANCH   2   7
TORSDOF 12
ENDMDL
