MODEL 1
REMARK VINA RESULT:      -6.2      0.000      0.000
REMARK  12 active torsions:
REMARK  status: ('A' for Active; 'I' for Inactive)
REMARK    1  A    between atoms: O_2  and  C_16 
REMARK    2  A    between atoms: N_5  and  C_9 
REMARK    3  A    between atoms: N_6  and  C_13 
REMARK       I    between atoms: N_6  and  C_22 
REMARK    4  A    between atoms: C_9  and  C_12 
REMARK    5  A    between atoms: C_13  and  C_16 
REMARK    6  A    between atoms: C_13  and  C_21 
REMARK    7  A    between atoms: C_19  and  C_24 
REMARK    8  A    between atoms: C_21  and  C_33 
REMARK    9  A    between atoms: C_22  and  C_23 
REMARK   10  A    between atoms: C_27  and  C_30 
REMARK   11  A    between atoms: C_33  and  C_34 
REMARK   12  A    between atoms: C_34  and  C_35 
ROOT
HETATM    1  O   UNL     1      16.552   3.261  93.826  1.00  0.00    -0.350 OA
HETATM    2  N   UNL     1      13.949   2.896  92.733  1.00  0.00     0.147 N 
HETATM    3  C   UNL     1      14.847   1.758  92.974  1.00  0.00     0.283 C 
HETATM    4  C   UNL     1      14.734   4.108  92.461  1.00  0.00     0.283 C 
HETATM    5  C   UNL     1      15.798   2.084  94.123  1.00  0.00     0.178 C 
HETATM    6  C   UNL     1      15.687   4.378  93.621  1.00  0.00     0.178 C 
ENDROOT
BRANCH   2   7
HETATM    7  C   UNL     1      13.035   2.609  91.629  1.00  0.00     0.277 C 
BRANCH   7   8
HETATM    8  C   UNL     1      11.888   3.559  91.579  1.00  0.00     0.011 A 
HETATM    9  C   UNL     1      11.486   4.104  90.359  1.00  0.00    -0.002 A 
HETATM   10  C   UNL     1      10.414   4.995  90.312  1.00  0.00     0.008 A 
HETATM   11  C   UNL     1       9.743   5.339  91.485  1.00  0.00     0.042 A 
HETATM   12  C   UNL     1      10.143   4.796  92.704  1.00  0.00     0.008 A 
HETATM   13  C   UNL     1      11.216   3.906  92.752  1.00  0.00    -0.002 A 
BRANCH  11  14
HETATM   14  C   UNL     1       8.642   6.251  91.436  1.00  0.00    -0.059 C 
HETATM   15  C   UNL     1       7.716   7.018  91.395  1.00  0.00    -0.059 C 
BRANCH  15  16
HETATM   16  C   UNL     1       6.615   7.928  91.346  1.00  0.00     0.042 A 
HETATM   17  C   UNL     1       6.608   9.056  92.167  1.00  0.00     0.008 A 
HETATM   18  C   UNL     1       5.535   9.946  92.118  1.00  0.00     0.005 A 
HETATM   19  C   UNL     1       4.495   9.689  91.249  1.00  0.00     0.056 A 
HETATM   20  C   UNL     1       4.479   8.582  90.427  1.00  0.00     0.005 A 
HETATM   21  C   UNL     1       5.551   7.691  90.476  1.00  0.00     0.008 A 
BRANCH  19  22
HETATM   22  C   UNL     1       3.351  10.637  91.197  1.00  0.00     0.254 C 
HETATM   23  O   UNL     1       2.302  10.282  90.667  1.00  0.00    -0.268 OA
HETATM   24  N   UNL     1       3.559  11.873  91.792  1.00  0.00    -0.335 N 
HETATM   25  HN  UNL     1       4.446  12.087  92.234  1.00  0.00     0.164 HD
BRANCH  24  26
HETATM   26  C   UNL     1       2.539  12.889  91.845  1.00  0.00     0.166 C 
BRANCH  26  27
HETATM   27  C   UNL     1       2.565  13.689  93.155  1.00  0.00     0.138 C 
HETATM   28  C   UNL     1       3.970  14.147  93.531  1.00  0.00     0.034 C 
BRANCH  27  29
HETATM   29  O   UNL     1       1.721  14.833  93.032  1.00  0.00    -0.383 OA
HETATM   30  H   UNL     1       1.128  14.695  92.274  1.00  0.00     0.210 HD
ENDBRANCH  27  29
ENDBRANCH  26  27
BRANCH  26  31
HETATM   31  C   UNL     1       2.725  13.800  90.636  1.00  0.00     0.181 C 
HETATM   32  O   UNL     1       1.944  14.707  90.355  1.00  0.00    -0.294 OA
BRANCH  31  33
HETATM   33  C   UNL     1       4.209  14.452  90.595  1.00  0.00     0.138 C 
BRANCH  33  34
HETATM   34  C   UNL     1       4.613  14.129  89.281  1.00  0.00     0.208 C 
HETATM   35  O   UNL     1       4.995  15.053  88.600  1.00  0.00    -0.289 OA
BRANCH  34  36
HETATM   36  C   UNL     1       4.925  12.921  88.720  1.00  0.00     0.194 C 
HETATM   37  O   UNL     1       4.177  12.100  87.868  1.00  0.00    -0.185 OA
ENDBRANCH  34  36
ENDBRANCH  33  34
ENDBRANCH  31  33
ENDBRANCH  26  31
ENDBRANCH  24  26
ENDBRANCH  19  22
ENDBRANCH  15  16
ENDBRANCH  11  14
ENDBRANCH   7   8
ENDBRANCH   2   7
TORSDOF 12
ENDMDL
MODEL 2
REMARK VINA RESULT:      -5.7      1.233      1.770
REMARK  12 active torsions:
REMARK  status: ('A' for Active; 'I' for Inactive)
REMARK    1  A    between atoms: O_2  and  C_16 
REMARK    2  A    between atoms: N_5  and  C_9 
REMARK    3  A    between atoms: N_6  and  C_13 
REMARK       I    between atoms: N_6  and  C_22 
REMARK    4  A    between atoms: C_9  and  C_12 
REMARK    5  A    between atoms: C_13  and  C_16 
REMARK    6  A    between atoms: C_13  and  C_21 
REMARK    7  A    between atoms: C_19  and  C_24 
REMARK    8  A    between atoms: C_21  and  C_33 
REMARK    9  A    between atoms: C_22  and  C_23 
REMARK   10  A    between atoms: C_27  and  C_30 
REMARK   11  A    between atoms: C_33  and  C_34 
REMARK   12  A    between atoms: C_34  and  C_35 
ROOT
HETATM    1  O   UNL     1      16.326   4.342  94.060  1.00  0.00    -0.350 OA
HETATM    2  N   UNL     1      14.550   2.716  92.542  1.00  0.00     0.147 N 
HETATM    3  C   UNL     1      14.488   4.183  92.483  1.00  0.00     0.283 C 
HETATM    4  C   UNL     1      15.056   2.286  93.853  1.00  0.00     0.283 C 
HETATM    5  C   UNL     1      15.866   4.771  92.777  1.00  0.00     0.178 C 
HETATM    6  C   UNL     1      16.419   2.918  94.115  1.00  0.00     0.178 C 
ENDROOT
BRANCH   2   7
HETATM    7  C   UNL     1      13.237   2.132  92.274  1.00  0.00     0.277 C 
BRANCH   7   8
HETATM    8  C   UNL     1      12.143   3.143  92.329  1.00  0.00     0.011 A 
HETATM    9  C   UNL     1      11.948   3.896  93.487  1.00  0.00    -0.002 A 
HETATM   10  C   UNL     1      10.923   4.841  93.540  1.00  0.00     0.008 A 
HETATM   11  C   UNL     1      10.096   5.034  92.434  1.00  0.00     0.042 A 
HETATM   12  C   UNL     1      10.290   4.283  91.277  1.00  0.00     0.008 A 
HETATM   13  C   UNL     1      11.314   3.337  91.224  1.00  0.00    -0.002 A 
BRANCH  11  14
HETATM   14  C   UNL     1       9.047   6.005  92.487  1.00  0.00    -0.059 C 
HETATM   15  C   UNL     1       8.165   6.821  92.532  1.00  0.00    -0.059 C 
BRANCH  15  16
HETATM   16  C   UNL     1       7.115   7.790  92.585  1.00  0.00     0.042 A 
HETATM   17  C   UNL     1       7.153   8.904  91.746  1.00  0.00     0.008 A 
HETATM   18  C   UNL     1       6.128   9.849  91.796  1.00  0.00     0.005 A 
HETATM   19  C   UNL     1       5.089   9.658  92.683  1.00  0.00     0.056 A 
HETATM   20  C   UNL     1       5.029   8.566  93.523  1.00  0.00     0.005 A 
HETATM   21  C   UNL     1       6.053   7.621  93.474  1.00  0.00     0.008 A 
BRANCH  19  22
HETATM   22  C   UNL     1       3.998  10.665  92.738  1.00  0.00     0.254 C 
HETATM   23  O   UNL     1       2.930  10.365  93.267  1.00  0.00    -0.268 OA
HETATM   24  N   UNL     1       4.290  11.908  92.193  1.00  0.00    -0.335 N 
HETATM   25  HN  UNL     1       5.203  12.092  91.795  1.00  0.00     0.164 HD
BRANCH  24  26
HETATM   26  C   UNL     1       3.345  12.996  92.192  1.00  0.00     0.166 C 
BRANCH  26  27
HETATM   27  C   UNL     1       3.676  14.070  93.235  1.00  0.00     0.138 C 
HETATM   28  C   UNL     1       2.456  14.490  94.048  1.00  0.00     0.034 C 
BRANCH  27  29
HETATM   29  O   UNL     1       4.679  13.580  94.124  1.00  0.00    -0.383 OA
HETATM   30  H   UNL     1       4.942  12.693  93.826  1.00  0.00     0.210 HD
ENDBRANCH  27  29
ENDBRANCH  26  27
BRANCH  26  31
HETATM   31  C   UNL     1       3.310  13.581  90.784  1.00  0.00     0.181 C 
HETATM   32  O   UNL     1       2.346  14.202  90.340  1.00  0.00    -0.294 OA
BRANCH  31  33
HETATM   33  C   UNL     1       4.614  14.495  90.480  1.00  0.00     0.138 C 
BRANCH  33  34
HETATM   34  C   UNL     1       4.932  14.089  89.164  1.00  0.00     0.208 C 
HETATM   35  O   UNL     1       5.026  14.972  88.343  1.00  0.00    -0.289 OA
BRANCH  34  36
HETATM   36  C   UNL     1       5.434  12.906  88.698  1.00  0.00     0.194 C 
HETATM   37  O   UNL     1       4.792  11.841  88.055  1.00  0.00    -0.185 OA
ENDBRANCH  34  36
ENDBRANCH  33  34
ENDBRANCH  31  33
ENDBRANCH  26  31
ENDBRANCH  24  26
ENDBRANCH  19  22
ENDBRANCH  15  16
ENDBRANCH  11  14
ENDBRANCH   7   8
ENDBRANCH   2   7
TORSDOF 12
ENDMDL
MODEL 3
REMARK VINA RESULT:      -4.6      1.642      3.310
REMARK  12 active torsions:
REMARK  status: ('A' for Active; 'I' for Inactive)
REMARK    1  A    between atoms: O_2  and  C_16 
REMARK    2  A    between atoms: N_5  and  C_9 
REMARK    3  A    between atoms: N_6  and  C_13 
REMARK       I    between atoms: N_6  and  C_22 
REMARK    4  A    between atoms: C_9  and  C_12 
REMARK    5  A    between atoms: C_13  and  C_16 
REMARK    6  A    between atoms: C_13  and  C_21 
REMARK    7  A    between atoms: C_19  and  C_24 
REMARK    8  A    between atoms: C_21  and  C_33 
REMARK    9  A    between atoms: C_22  and  C_23 
REMARK   10  A    between atoms: C_27  and  C_30 
REMARK   11  A    between atoms: C_33  and  C_34 
REMARK   12  A    between atoms: C_34  and  C_35 
ROOT
HETATM    1  O   UNL     1      16.375   4.072  93.667  1.00  0.00    -0.350 OA
HETATM    2  N   UNL     1      14.006   2.753  92.802  1.00  0.00     0.147 N 
HETATM    3  C   UNL     1      14.142   4.215  92.728  1.00  0.00     0.283 C 
HETATM    4  C   UNL     1      14.818   2.227  93.908  1.00  0.00     0.283 C 
HETATM    5  C   UNL     1      15.614   4.589  92.574  1.00  0.00     0.178 C 
HETATM    6  C   UNL     1      16.273   2.649  93.727  1.00  0.00     0.178 C 
ENDROOT
BRANCH   2   7
HETATM    7  C   UNL     1      12.604   2.371  92.960  1.00  0.00     0.277 C 
BRANCH   7   8
HETATM    8  C   UNL     1      11.691   3.550  92.965  1.00  0.00     0.011 A 
HETATM    9  C   UNL     1      11.639   4.386  94.081  1.00  0.00    -0.002 A 
HETATM   10  C   UNL     1      10.784   5.488  94.087  1.00  0.00     0.008 A 
HETATM   11  C   UNL     1       9.983   5.754  92.977  1.00  0.00     0.042 A 
HETATM   12  C   UNL     1      10.034   4.920  91.863  1.00  0.00     0.008 A 
HETATM   13  C   UNL     1      10.888   3.818  91.856  1.00  0.00    -0.002 A 
BRANCH  11  14
HETATM   14  C   UNL     1       9.108   6.886  92.983  1.00  0.00    -0.059 C 
HETATM   15  C   UNL     1       8.372   7.837  92.989  1.00  0.00    -0.059 C 
BRANCH  15  16
HETATM   16  C   UNL     1       7.497   8.968  92.996  1.00  0.00     0.042 A 
HETATM   17  C   UNL     1       6.576   9.142  91.963  1.00  0.00     0.008 A 
HETATM   18  C   UNL     1       5.721  10.244  91.972  1.00  0.00     0.005 A 
HETATM   19  C   UNL     1       5.806  11.146  93.012  1.00  0.00     0.056 A 
HETATM   20  C   UNL     1       6.708  10.996  94.044  1.00  0.00     0.005 A 
HETATM   21  C   UNL     1       7.563   9.895  94.036  1.00  0.00     0.008 A 
BRANCH  19  22
HETATM   22  C   UNL     1       4.896  12.321  93.019  1.00  0.00     0.254 C 
HETATM   23  O   UNL     1       4.578  12.827  94.093  1.00  0.00    -0.268 OA
HETATM   24  N   UNL     1       4.486  12.780  91.775  1.00  0.00    -0.335 N 
HETATM   25  HN  UNL     1       4.810  12.326  90.929  1.00  0.00     0.164 HD
BRANCH  24  26
HETATM   26  C   UNL     1       3.624  13.923  91.616  1.00  0.00     0.166 C 
BRANCH  26  27
HETATM   27  C   UNL     1       3.586  14.442  90.173  1.00  0.00     0.138 C 
HETATM   28  C   UNL     1       4.959  14.877  89.673  1.00  0.00     0.034 C 
BRANCH  27  29
HETATM   29  O   UNL     1       3.080  13.422  89.312  1.00  0.00    -0.383 OA
HETATM   30  H   UNL     1       2.499  13.840  88.654  1.00  0.00     0.210 HD
ENDBRANCH  27  29
ENDBRANCH  26  27
BRANCH  26  31
HETATM   31  C   UNL     1       2.232  13.529  92.100  1.00  0.00     0.181 C 
HETATM   32  O   UNL     1       1.213  14.132  91.770  1.00  0.00    -0.294 OA
BRANCH  31  33
HETATM   33  C   UNL     1       1.930  11.956  91.846  1.00  0.00     0.138 C 
BRANCH  33  34
HETATM   34  C   UNL     1       1.857  11.475  93.172  1.00  0.00     0.208 C 
HETATM   35  O   UNL     1       1.295  12.191  93.968  1.00  0.00    -0.289 OA
BRANCH  34  36
HETATM   36  C   UNL     1       2.053  10.216  93.671  1.00  0.00     0.194 C 
HETATM   37  O   UNL     1       2.804   9.149  93.164  1.00  0.00    -0.185 OA
ENDBRANCH  34  36
ENDBRANCH  33  34
ENDBRANCH  31  33
ENDBRANCH  26  31
ENDBRANCH  24  26
ENDBRANCH  19  22
ENDBRANCH  15  16
ENDBRANCH  11  14
ENDBRANCH   7   8
ENDBRANCH   2   7
TORSDOF 12
ENDMDL
MODEL 4
REMARK VINA RESULT:      -4.0      1.974      3.243
REMARK  12 active torsions:
REMARK  status: ('A' for Active; 'I' for Inactive)
REMARK    1  A    between atoms: O_2  and  C_16 
REMARK    2  A    between atoms: N_5  and  C_9 
REMARK    3  A    between atoms: N_6  and  C_13 
REMARK       I    between atoms: N_6  and  C_22 
REMARK    4  A    between atoms: C_9  and  C_12 
REMARK    5  A    between atoms: C_13  and  C_16 
REMARK    6  A    between atoms: C_13  and  C_21 
REMARK    7  A    between atoms: C_19  and  C_24 
REMARK    8  A    between atoms: C_21  and  C_33 
REMARK    9  A    between atoms: C_22  and  C_23 
REMARK   10  A    between atoms: C_27  and  C_30 
REMARK   11  A    between atoms: C_33  and  C_34 
REMARK   12  A    between atoms: C_34  and  C_35 
ROOT
HETATM    1  O   UNL     1      16.891   3.773  92.994  1.00  0.00    -0.350 OA
HETATM    2  N   UNL     1      14.816   1.830  92.849  1.00  0.00     0.147 N 
HETATM    3  C   UNL     1      15.081   2.755  91.738  1.00  0.00     0.283 C 
HETATM    4  C   UNL     1      15.200   2.451  94.124  1.00  0.00     0.283 C 
HETATM    5  C   UNL     1      16.551   3.165  91.746  1.00  0.00     0.178 C 
HETATM    6  C   UNL     1      16.666   2.869  94.076  1.00  0.00     0.178 C 
ENDROOT
BRANCH   2   7
HETATM    7  C   UNL     1      13.409   1.432  92.867  1.00  0.00     0.277 C 
BRANCH   7   8
HETATM    8  C   UNL     1      12.489   2.593  92.701  1.00  0.00     0.011 A 
HETATM    9  C   UNL     1      12.370   3.539  93.720  1.00  0.00    -0.002 A 
HETATM   10  C   UNL     1      11.508   4.624  93.567  1.00  0.00     0.008 A 
HETATM   11  C   UNL     1      10.766   4.764  92.394  1.00  0.00     0.042 A 
HETATM   12  C   UNL     1      10.883   3.820  91.376  1.00  0.00     0.008 A 
HETATM   13  C   UNL     1      11.745   2.734  91.529  1.00  0.00    -0.002 A 
BRANCH  11  14
HETATM   14  C   UNL     1       9.882   5.878  92.237  1.00  0.00    -0.059 C 
HETATM   15  C   UNL     1       9.139   6.814  92.104  1.00  0.00    -0.059 C 
BRANCH  15  16
HETATM   16  C   UNL     1       8.256   7.928  91.947  1.00  0.00     0.042 A 
HETATM   17  C   UNL     1       7.567   8.106  90.748  1.00  0.00     0.008 A 
HETATM   18  C   UNL     1       6.703   9.191  90.596  1.00  0.00     0.005 A 
HETATM   19  C   UNL     1       6.548  10.072  91.646  1.00  0.00     0.056 A 
HETATM   20  C   UNL     1       7.218   9.917  92.841  1.00  0.00     0.005 A 
HETATM   21  C   UNL     1       8.082   8.833  92.994  1.00  0.00     0.008 A 
BRANCH  19  22
HETATM   22  C   UNL     1       5.629  11.228  91.483  1.00  0.00     0.254 C 
HETATM   23  O   UNL     1       5.146  11.755  92.482  1.00  0.00    -0.268 OA
HETATM   24  N   UNL     1       5.404  11.647  90.179  1.00  0.00    -0.335 N 
HETATM   25  HN  UNL     1       5.859  11.178  89.404  1.00  0.00     0.164 HD
BRANCH  24  26
HETATM   26  C   UNL     1       4.558  12.769  89.860  1.00  0.00     0.166 C 
BRANCH  26  27
HETATM   27  C   UNL     1       5.180  13.702  88.814  1.00  0.00     0.138 C 
HETATM   28  C   UNL     1       5.321  15.134  89.319  1.00  0.00     0.034 C 
BRANCH  27  29
HETATM   29  O   UNL     1       6.468  13.213  88.443  1.00  0.00    -0.383 OA
HETATM   30  H   UNL     1       7.075  13.355  89.189  1.00  0.00     0.210 HD
ENDBRANCH  27  29
ENDBRANCH  26  27
BRANCH  26  31
HETATM   31  C   UNL     1       3.216  12.220  89.386  1.00  0.00     0.181 C 
HETATM   32  O   UNL     1       2.316  12.936  88.951  1.00  0.00    -0.294 OA
BRANCH  31  33
HETATM   33  C   UNL     1       3.402  11.022  88.310  1.00  0.00     0.138 C 
BRANCH  33  34
HETATM   34  C   UNL     1       2.571  10.024  88.866  1.00  0.00     0.208 C 
HETATM   35  O   UNL     1       1.860   9.429  88.089  1.00  0.00    -0.289 OA
BRANCH  34  36
HETATM   36  C   UNL     1       2.623   9.404  90.084  1.00  0.00     0.194 C 
HETATM   37  O   UNL     1       3.303   8.247  90.481  1.00  0.00    -0.185 OA
ENDBRANCH  34  36
ENDBRANCH  33  34
ENDBRANCH  31  33
ENDBRANCH  26  31
ENDBRANCH  24  26
ENDBRANCH  19  22
ENDBRANCH  15  16
ENDBRANCH  11  14
ENDBRANCH   7   8
ENDBRANCH   2   7
TORSDOF 12
ENDMDL
MODEL 5
REMARK VINA RESULT:      -3.3      1.598      2.286
REMARK  12 active torsions:
REMARK  status: ('A' for Active; 'I' for Inactive)
REMARK    1  A    between atoms: O_2  and  C_16 
REMARK    2  A    between atoms: N_5  and  C_9 
REMARK    3  A    between atoms: N_6  and  C_13 
REMARK       I    between atoms: N_6  and  C_22 
REMARK    4  A    between atoms: C_9  and  C_12 
REMARK    5  A    between atoms: C_13  and  C_16 
REMARK    6  A    between atoms: C_13  and  C_21 
REMARK    7  A    between atoms: C_19  and  C_24 
REMARK    8  A    between atoms: C_21  and  C_33 
REMARK    9  A    between atoms: C_22  and  C_23 
REMARK   10  A    between atoms: C_27  and  C_30 
REMARK   11  A    between atoms: C_33  and  C_34 
REMARK   12  A    between atoms: C_34  and  C_35 
ROOT
HETATM    1  O   UNL     1      17.178   4.341  93.096  1.00  0.00    -0.350 OA
HETATM    2  N   UNL     1      14.935   2.620  93.419  1.00  0.00     0.147 N 
HETATM    3  C   UNL     1      15.949   2.372  92.386  1.00  0.00     0.283 C 
HETATM    4  C   UNL     1      14.847   4.059  93.705  1.00  0.00     0.283 C 
HETATM    5  C   UNL     1      17.293   2.941  92.834  1.00  0.00     0.178 C 
HETATM    6  C   UNL     1      16.216   4.588  94.121  1.00  0.00     0.178 C 
ENDROOT
BRANCH   2   7
HETATM    7  C   UNL     1      13.635   2.092  93.006  1.00  0.00     0.277 C 
BRANCH   7   8
HETATM    8  C   UNL     1      12.611   3.164  92.847  1.00  0.00     0.011 A 
HETATM    9  C   UNL     1      11.989   3.705  93.973  1.00  0.00    -0.002 A 
HETATM   10  C   UNL     1      11.029   4.706  93.826  1.00  0.00     0.008 A 
HETATM   11  C   UNL     1      10.694   5.167  92.553  1.00  0.00     0.042 A 
HETATM   12  C   UNL     1      11.315   4.628  91.428  1.00  0.00     0.008 A 
HETATM   13  C   UNL     1      12.274   3.626  91.575  1.00  0.00    -0.002 A 
BRANCH  11  14
HETATM   14  C   UNL     1       9.711   6.196  92.402  1.00  0.00    -0.059 C 
HETATM   15  C   UNL     1       8.885   7.060  92.276  1.00  0.00    -0.059 C 
BRANCH  15  16
HETATM   16  C   UNL     1       7.903   8.088  92.126  1.00  0.00     0.042 A 
HETATM   17  C   UNL     1       6.688   7.996  92.806  1.00  0.00     0.008 A 
HETATM   18  C   UNL     1       5.732   9.001  92.662  1.00  0.00     0.005 A 
HETATM   19  C   UNL     1       6.011  10.074  91.843  1.00  0.00     0.056 A 
HETATM   20  C   UNL     1       7.203  10.189  91.160  1.00  0.00     0.005 A 
HETATM   21  C   UNL     1       8.161   9.184  91.303  1.00  0.00     0.008 A 
BRANCH  19  22
HETATM   22  C   UNL     1       4.990  11.143  91.688  1.00  0.00     0.254 C 
HETATM   23  O   UNL     1       5.343  12.320  91.729  1.00  0.00    -0.268 OA
HETATM   24  N   UNL     1       3.687  10.714  91.479  1.00  0.00    -0.335 N 
HETATM   25  HN  UNL     1       3.474   9.725  91.432  1.00  0.00     0.164 HD
BRANCH  24  26
HETATM   26  C   UNL     1       2.591  11.629  91.287  1.00  0.00     0.166 C 
BRANCH  26  27
HETATM   27  C   UNL     1       2.044  12.187  92.607  1.00  0.00     0.138 C 
HETATM   28  C   UNL     1       1.189  11.173  93.360  1.00  0.00     0.034 C 
BRANCH  27  29
HETATM   29  O   UNL     1       3.130  12.587  93.442  1.00  0.00    -0.383 OA
HETATM   30  H   UNL     1       2.824  12.580  94.365  1.00  0.00     0.210 HD
ENDBRANCH  27  29
ENDBRANCH  26  27
BRANCH  26  31
HETATM   31  C   UNL     1       3.073  12.748  90.370  1.00  0.00     0.181 C 
HETATM   32  O   UNL     1       2.998  12.689  89.144  1.00  0.00    -0.294 OA
BRANCH  31  33
HETATM   33  C   UNL     1       2.450  14.184  90.792  1.00  0.00     0.138 C 
BRANCH  33  34
HETATM   34  C   UNL     1       3.623  14.924  91.060  1.00  0.00     0.208 C 
HETATM   35  O   UNL     1       3.757  15.316  92.196  1.00  0.00    -0.289 OA
BRANCH  34  36
HETATM   36  C   UNL     1       4.781  15.041  90.342  1.00  0.00     0.194 C 
HETATM   37  O   UNL     1       5.005  15.576  89.068  1.00  0.00    -0.185 OA
ENDBRANCH  34  36
ENDBRANCH  33  34
ENDBRANCH  31  33
ENDBRANCH  26  31
ENDBRANCH  24  26
ENDBRANCH  19  22
ENDBRANCH  15  16
ENDBRANCH  11  14
ENDBRANCH   7   8
ENDBRANCH   2   7
TORSDOF 12
ENDMDL
