MODEL 1
REMARK VINA RESULT:      -7.5      0.000      0.000
REMARK  9 active torsions:
REMARK  status: ('A' for Active; 'I' for Inactive)
REMARK    1  A    between atoms: N_3  and  C_6 
REMARK    2  A    between atoms: C_6  and  C_9 
REMARK    3  A    between atoms: C_14  and  C_17 
REMARK       I    between atoms: N_26  and  C_15 
REMARK    4  A    between atoms: C_15  and  C_16 
REMARK    5  A    between atoms: C_20  and  C_23 
REMARK    6  A    between atoms: OG1_24  and  CB_28 
REMARK    7  A    between atoms: N_26  and  CA_27 
REMARK    8  A    between atoms: CA_27  and  CB_28 
REMARK    9  A    between atoms: CA_27  and  C_30 
ROOT
HETATM    1  O   UNK A   0       1.747   7.988  87.907  1.00  0.00    -0.388 OA
HETATM    2  N   UNK A   0       4.549   7.521  87.728  1.00  0.00     0.096 N 
HETATM    3  C   UNK A   0       4.005   8.877  87.885  1.00  0.00     0.299 C 
HETATM    4  C   UNK A   0       3.581   6.669  87.024  1.00  0.00     0.299 C 
HETATM    5  C   UNK A   0       2.668   8.816  88.620  1.00  0.00     0.198 C 
HETATM    6  C   UNK A   0       2.255   6.660  87.777  1.00  0.00     0.198 C 
ENDROOT
BRANCH   2   7
HETATM    7  C   UNK A   0       5.826   7.554  87.017  1.00  0.00     0.311 C 
BRANCH   7   8
HETATM    8  C   UNK A   0       6.935   6.954  87.812  1.00  0.00    -0.030 A 
HETATM    9  C   UNK A   0       6.728   6.615  89.150  1.00  0.00     0.010 A 
HETATM   10  C   UNK A   0       7.766   6.055  89.896  1.00  0.00     0.021 A 
HETATM   11  C   UNK A   0       9.008   5.832  89.302  1.00  0.00     0.018 A 
HETATM   12  C   UNK A   0       9.215   6.170  87.966  1.00  0.00     0.021 A 
HETATM   13  C   UNK A   0       8.178   6.731  87.221  1.00  0.00     0.010 A 
BRANCH  11  14
HETATM   14  C   UNK A   0      10.071   5.256  90.067  1.00  0.00    -0.061 C 
HETATM   15  C   UNK A   0      10.965   4.771  90.709  1.00  0.00    -0.061 C 
BRANCH  15  16
HETATM   16  C   UNK A   0      12.028   4.195  91.472  1.00  0.00     0.018 A 
HETATM   17  C   UNK A   0      11.815   3.838  92.803  1.00  0.00     0.022 A 
HETATM   18  C   UNK A   0      12.852   3.273  93.547  1.00  0.00     0.018 A 
HETATM   19  C   UNK A   0      14.076   3.078  92.942  1.00  0.00     0.032 A 
HETATM   20  C   UNK A   0      14.311   3.423  91.628  1.00  0.00     0.018 A 
HETATM   21  C   UNK A   0      13.275   3.987  90.883  1.00  0.00     0.022 A 
BRANCH  19  22
HETATM   22  C   UNK A   0      15.180   2.478  93.735  1.00  0.00     0.252 C 
HETATM   23  O   UNK A   0      16.234   3.097  93.859  1.00  0.00    -0.268 OA
ENDBRANCH  19  22
ENDBRANCH  15  16
ENDBRANCH  11  14
ENDBRANCH   7   8
ENDBRANCH   2   7
TORSDOF 9
ENDMDL
