MODEL 1
REMARK VINA RESULT:      -7.5      0.000      0.000
REMARK  9 active torsions:
REMARK  status: ('A' for Active; 'I' for Inactive)
REMARK    1  A    between atoms: N_3  and  C_6 
REMARK    2  A    between atoms: C_6  and  C_9 
REMARK    3  A    between atoms: C_14  and  C_17 
REMARK       I    between atoms: N_26  and  C_15 
REMARK    4  A    between atoms: C_15  and  C_16 
REMARK    5  A    between atoms: C_20  and  C_23 
REMARK    6  A    between atoms: OG1_24  and  CB_28 
REMARK    7  A    between atoms: N_26  and  CA_27 
REMARK    8  A    between atoms: CA_27  and  CB_28 
REMARK    9  A    between atoms: CA_27  and  C_30 
ROOT
HETATM    1  O   UNK A   0       1.866   8.080  87.870  1.00  0.00    -0.388 OA
HETATM    2  N   UNK A   0       4.653   7.531  87.694  1.00  0.00     0.096 N 
HETATM    3  C   UNK A   0       4.146   8.907  87.785  1.00  0.00     0.299 C 
HETATM    4  C   UNK A   0       3.657   6.669  87.042  1.00  0.00     0.299 C 
HETATM    5  C   UNK A   0       2.814   8.918  88.532  1.00  0.00     0.198 C 
HETATM    6  C   UNK A   0       2.338   6.734  87.805  1.00  0.00     0.198 C 
ENDROOT
BRANCH   2   7
HETATM    7  C   UNK A   0       5.924   7.495  86.972  1.00  0.00     0.311 C 
BRANCH   7   8
HETATM    8  C   UNK A   0       7.023   6.902  87.787  1.00  0.00    -0.030 A 
HETATM    9  C   UNK A   0       8.287   6.720  87.224  1.00  0.00     0.010 A 
HETATM   10  C   UNK A   0       9.315   6.164  87.984  1.00  0.00     0.021 A 
HETATM   11  C   UNK A   0       9.079   5.791  89.307  1.00  0.00     0.018 A 
HETATM   12  C   UNK A   0       7.818   5.972  89.870  1.00  0.00     0.021 A 
HETATM   13  C   UNK A   0       6.789   6.528  89.110  1.00  0.00     0.010 A 
BRANCH  11  14
HETATM   14  C   UNK A   0      10.135   5.222  90.088  1.00  0.00    -0.061 C 
HETATM   15  C   UNK A   0      11.022   4.744  90.744  1.00  0.00    -0.061 C 
BRANCH  15  16
HETATM   16  C   UNK A   0      12.077   4.174  91.523  1.00  0.00     0.018 A 
HETATM   17  C   UNK A   0      11.844   3.812  92.850  1.00  0.00     0.022 A 
HETATM   18  C   UNK A   0      12.873   3.254  93.609  1.00  0.00     0.018 A 
HETATM   19  C   UNK A   0      14.109   3.071  93.025  1.00  0.00     0.032 A 
HETATM   20  C   UNK A   0      14.364   3.421  91.716  1.00  0.00     0.018 A 
HETATM   21  C   UNK A   0      13.336   3.979  90.956  1.00  0.00     0.022 A 
BRANCH  19  22
HETATM   22  C   UNK A   0      15.205   2.478  93.835  1.00  0.00     0.252 C 
HETATM   23  O   UNK A   0      16.356   2.873  93.666  1.00  0.00    -0.268 OA
ENDBRANCH  19  22
ENDBRANCH  15  16
ENDBRANCH  11  14
ENDBRANCH   7   8
ENDBRANCH   2   7
TORSDOF 9
ENDMDL
MODEL 2
REMARK VINA RESULT:      -7.5      0.032      1.425
REMARK  9 active torsions:
REMARK  status: ('A' for Active; 'I' for Inactive)
REMARK    1  A    between atoms: N_3  and  C_6 
REMARK    2  A    between atoms: C_6  and  C_9 
REMARK    3  A    between atoms: C_14  and  C_17 
REMARK       I    between atoms: N_26  and  C_15 
REMARK    4  A    between atoms: C_15  and  C_16 
REMARK    5  A    between atoms: C_20  and  C_23 
REMARK    6  A    between atoms: OG1_24  and  CB_28 
REMARK    7  A    between atoms: N_26  and  CA_27 
REMARK    8  A    between atoms: CA_27  and  CB_28 
REMARK    9  A    between atoms: CA_27  and  C_30 
ROOT
HETATM    1  O   UNK A   0       1.849   8.075  87.893  1.00  0.00    -0.388 OA
HETATM    2  N   UNK A   0       4.641   7.552  87.713  1.00  0.00     0.096 N 
HETATM    3  C   UNK A   0       4.120   8.924  87.797  1.00  0.00     0.299 C 
HETATM    4  C   UNK A   0       3.652   6.677  87.069  1.00  0.00     0.299 C 
HETATM    5  C   UNK A   0       2.791   8.927  88.548  1.00  0.00     0.198 C 
HETATM    6  C   UNK A   0       2.334   6.733  87.835  1.00  0.00     0.198 C 
ENDROOT
BRANCH   2   7
HETATM    7  C   UNK A   0       5.910   7.524  86.988  1.00  0.00     0.311 C 
BRANCH   7   8
HETATM    8  C   UNK A   0       7.012   6.926  87.795  1.00  0.00    -0.030 A 
HETATM    9  C   UNK A   0       6.777   6.538  89.114  1.00  0.00     0.010 A 
HETATM   10  C   UNK A   0       7.808   5.980  89.871  1.00  0.00     0.021 A 
HETATM   11  C   UNK A   0       9.072   5.810  89.307  1.00  0.00     0.018 A 
HETATM   12  C   UNK A   0       9.307   6.197  87.989  1.00  0.00     0.021 A 
HETATM   13  C   UNK A   0       8.277   6.755  87.233  1.00  0.00     0.010 A 
BRANCH  11  14
HETATM   14  C   UNK A   0      10.129   5.236  90.082  1.00  0.00    -0.061 C 
HETATM   15  C   UNK A   0      11.016   4.753  90.734  1.00  0.00    -0.061 C 
BRANCH  15  16
HETATM   16  C   UNK A   0      12.072   4.179  91.508  1.00  0.00     0.018 A 
HETATM   17  C   UNK A   0      13.334   4.000  90.940  1.00  0.00     0.022 A 
HETATM   18  C   UNK A   0      14.365   3.443  91.697  1.00  0.00     0.018 A 
HETATM   19  C   UNK A   0      14.112   3.078  93.002  1.00  0.00     0.032 A 
HETATM   20  C   UNK A   0      12.873   3.244  93.586  1.00  0.00     0.018 A 
HETATM   21  C   UNK A   0      11.842   3.801  92.831  1.00  0.00     0.022 A 
BRANCH  19  22
HETATM   22  C   UNK A   0      15.210   2.483  93.807  1.00  0.00     0.252 C 
HETATM   23  O   UNK A   0      16.368   2.831  93.592  1.00  0.00    -0.268 OA
ENDBRANCH  19  22
ENDBRANCH  15  16
ENDBRANCH  11  14
ENDBRANCH   7   8
ENDBRANCH   2   7
TORSDOF 9
ENDMDL
MODEL 3
REMARK VINA RESULT:      -7.5      0.115      1.013
REMARK  9 active torsions:
REMARK  status: ('A' for Active; 'I' for Inactive)
REMARK    1  A    between atoms: N_3  and  C_6 
REMARK    2  A    between atoms: C_6  and  C_9 
REMARK    3  A    between atoms: C_14  and  C_17 
REMARK       I    between atoms: N_26  and  C_15 
REMARK    4  A    between atoms: C_15  and  C_16 
REMARK    5  A    between atoms: C_20  and  C_23 
REMARK    6  A    between atoms: OG1_24  and  CB_28 
REMARK    7  A    between atoms: N_26  and  CA_27 
REMARK    8  A    between atoms: CA_27  and  CB_28 
REMARK    9  A    between atoms: CA_27  and  C_30 
ROOT
HETATM    1  O   UNK A   0       1.868   8.079  88.046  1.00  0.00    -0.388 OA
HETATM    2  N   UNK A   0       4.653   7.534  87.830  1.00  0.00     0.096 N 
HETATM    3  C   UNK A   0       4.146   8.909  87.943  1.00  0.00     0.299 C 
HETATM    4  C   UNK A   0       3.650   6.680  87.179  1.00  0.00     0.299 C 
HETATM    5  C   UNK A   0       2.824   8.911  88.707  1.00  0.00     0.198 C 
HETATM    6  C   UNK A   0       2.340   6.734  87.959  1.00  0.00     0.198 C 
ENDROOT
BRANCH   2   7
HETATM    7  C   UNK A   0       5.915   7.507  87.092  1.00  0.00     0.311 C 
BRANCH   7   8
HETATM    8  C   UNK A   0       7.026   6.914  87.890  1.00  0.00    -0.030 A 
HETATM    9  C   UNK A   0       6.827   6.598  89.234  1.00  0.00     0.010 A 
HETATM   10  C   UNK A   0       7.866   6.045  89.982  1.00  0.00     0.021 A 
HETATM   11  C   UNK A   0       9.104   5.808  89.385  1.00  0.00     0.018 A 
HETATM   12  C   UNK A   0       9.304   6.123  88.042  1.00  0.00     0.021 A 
HETATM   13  C   UNK A   0       8.265   6.677  87.294  1.00  0.00     0.010 A 
BRANCH  11  14
HETATM   14  C   UNK A   0      10.170   5.239  90.151  1.00  0.00    -0.061 C 
HETATM   15  C   UNK A   0      11.066   4.761  90.796  1.00  0.00    -0.061 C 
BRANCH  15  16
HETATM   16  C   UNK A   0      12.131   4.194  91.562  1.00  0.00     0.018 A 
HETATM   17  C   UNK A   0      11.927   3.869  92.904  1.00  0.00     0.022 A 
HETATM   18  C   UNK A   0      12.965   3.313  93.651  1.00  0.00     0.018 A 
HETATM   19  C   UNK A   0      14.182   3.093  93.040  1.00  0.00     0.032 A 
HETATM   20  C   UNK A   0      14.409   3.406  91.716  1.00  0.00     0.018 A 
HETATM   21  C   UNK A   0      13.371   3.962  90.968  1.00  0.00     0.022 A 
BRANCH  19  22
HETATM   22  C   UNK A   0      15.289   2.503  93.837  1.00  0.00     0.252 C 
HETATM   23  O   UNK A   0      16.434   2.915  93.671  1.00  0.00    -0.268 OA
ENDBRANCH  19  22
ENDBRANCH  15  16
ENDBRANCH  11  14
ENDBRANCH   7   8
ENDBRANCH   2   7
TORSDOF 9
ENDMDL
MODEL 4
REMARK VINA RESULT:      -6.9      1.504      2.135
REMARK  9 active torsions:
REMARK  status: ('A' for Active; 'I' for Inactive)
REMARK    1  A    between atoms: N_3  and  C_6 
REMARK    2  A    between atoms: C_6  and  C_9 
REMARK    3  A    between atoms: C_14  and  C_17 
REMARK       I    between atoms: N_26  and  C_15 
REMARK    4  A    between atoms: C_15  and  C_16 
REMARK    5  A    between atoms: C_20  and  C_23 
REMARK    6  A    between atoms: OG1_24  and  CB_28 
REMARK    7  A    between atoms: N_26  and  CA_27 
REMARK    8  A    between atoms: CA_27  and  CB_28 
REMARK    9  A    between atoms: CA_27  and  C_30 
ROOT
HETATM    1  O   UNK A   0       2.738  11.220  89.634  1.00  0.00    -0.388 OA
HETATM    2  N   UNK A   0       4.548   9.206  88.757  1.00  0.00     0.096 N 
HETATM    3  C   UNK A   0       3.826  10.059  87.802  1.00  0.00     0.299 C 
HETATM    4  C   UNK A   0       3.760   9.048  89.986  1.00  0.00     0.299 C 
HETATM    5  C   UNK A   0       3.512  11.406  88.448  1.00  0.00     0.198 C 
HETATM    6  C   UNK A   0       3.446  10.418  90.580  1.00  0.00     0.198 C 
ENDROOT
BRANCH   2   7
HETATM    7  C   UNK A   0       4.851   7.905  88.162  1.00  0.00     0.311 C 
BRANCH   7   8
HETATM    8  C   UNK A   0       6.075   7.286  88.745  1.00  0.00    -0.030 A 
HETATM    9  C   UNK A   0       7.334   7.791  88.418  1.00  0.00     0.010 A 
HETATM   10  C   UNK A   0       8.481   7.210  88.960  1.00  0.00     0.021 A 
HETATM   11  C   UNK A   0       8.367   6.127  89.832  1.00  0.00     0.018 A 
HETATM   12  C   UNK A   0       7.110   5.623  90.159  1.00  0.00     0.021 A 
HETATM   13  C   UNK A   0       5.964   6.202  89.616  1.00  0.00     0.010 A 
BRANCH  11  14
HETATM   14  C   UNK A   0       9.543   5.534  90.390  1.00  0.00    -0.061 C 
HETATM   15  C   UNK A   0      10.532   5.035  90.859  1.00  0.00    -0.061 C 
BRANCH  15  16
HETATM   16  C   UNK A   0      11.707   4.443  91.417  1.00  0.00     0.018 A 
HETATM   17  C   UNK A   0      12.853   4.298  90.634  1.00  0.00     0.022 A 
HETATM   18  C   UNK A   0      14.000   3.722  91.180  1.00  0.00     0.018 A 
HETATM   19  C   UNK A   0      13.977   3.306  92.495  1.00  0.00     0.032 A 
HETATM   20  C   UNK A   0      12.857   3.438  93.289  1.00  0.00     0.018 A 
HETATM   21  C   UNK A   0      11.709   4.013  92.744  1.00  0.00     0.022 A 
BRANCH  19  22
HETATM   22  C   UNK A   0      15.198   2.691  93.075  1.00  0.00     0.252 C 
HETATM   23  O   UNK A   0      15.107   2.040  94.113  1.00  0.00    -0.268 OA
ENDBRANCH  19  22
ENDBRANCH  15  16
ENDBRANCH  11  14
ENDBRANCH   7   8
ENDBRANCH   2   7
TORSDOF 9
ENDMDL
MODEL 5
REMARK VINA RESULT:      -6.6      3.470     10.341
REMARK  9 active torsions:
REMARK  status: ('A' for Active; 'I' for Inactive)
REMARK    1  A    between atoms: N_3  and  C_6 
REMARK    2  A    between atoms: C_6  and  C_9 
REMARK    3  A    between atoms: C_14  and  C_17 
REMARK       I    between atoms: N_26  and  C_15 
REMARK    4  A    between atoms: C_15  and  C_16 
REMARK    5  A    between atoms: C_20  and  C_23 
REMARK    6  A    between atoms: OG1_24  and  CB_28 
REMARK    7  A    between atoms: N_26  and  CA_27 
REMARK    8  A    between atoms: CA_27  and  CB_28 
REMARK    9  A    between atoms: CA_27  and  C_30 
ROOT
HETATM    1  O   UNK A   0      16.125   3.125  93.661  1.00  0.00    -0.388 OA
HETATM    2  N   UNK A   0      13.437   2.897  92.753  1.00  0.00     0.096 N 
HETATM    3  C   UNK A   0      14.244   1.710  93.068  1.00  0.00     0.299 C 
HETATM    4  C   UNK A   0      14.307   3.995  92.311  1.00  0.00     0.299 C 
HETATM    5  C   UNK A   0      15.290   2.061  94.124  1.00  0.00     0.198 C 
HETATM    6  C   UNK A   0      15.351   4.292  93.382  1.00  0.00     0.198 C 
ENDROOT
BRANCH   2   7
HETATM    7  C   UNK A   0      12.434   2.586  91.736  1.00  0.00     0.311 C 
BRANCH   7   8
HETATM    8  C   UNK A   0      11.573   3.758  91.410  1.00  0.00    -0.030 A 
HETATM    9  C   UNK A   0      11.390   4.140  90.080  1.00  0.00     0.010 A 
HETATM   10  C   UNK A   0      10.587   5.238  89.774  1.00  0.00     0.021 A 
HETATM   11  C   UNK A   0       9.965   5.952  90.797  1.00  0.00     0.018 A 
HETATM   12  C   UNK A   0      10.146   5.572  92.125  1.00  0.00     0.021 A 
HETATM   13  C   UNK A   0      10.950   4.474  92.432  1.00  0.00     0.010 A 
BRANCH  11  14
HETATM   14  C   UNK A   0       9.138   7.077  90.483  1.00  0.00    -0.061 C 
HETATM   15  C   UNK A   0       8.444   8.022  90.219  1.00  0.00    -0.061 C 
BRANCH  15  16
HETATM   16  C   UNK A   0       7.618   9.147  89.906  1.00  0.00     0.018 A 
HETATM   17  C   UNK A   0       8.203  10.357  89.533  1.00  0.00     0.022 A 
HETATM   18  C   UNK A   0       7.397  11.453  89.224  1.00  0.00     0.018 A 
HETATM   19  C   UNK A   0       6.027  11.315  89.295  1.00  0.00     0.032 A 
HETATM   20  C   UNK A   0       5.425  10.129  89.662  1.00  0.00     0.018 A 
HETATM   21  C   UNK A   0       6.230   9.032  89.971  1.00  0.00     0.022 A 
BRANCH  19  22
HETATM   22  C   UNK A   0       5.169  12.483  88.969  1.00  0.00     0.252 C 
HETATM   23  O   UNK A   0       4.782  12.639  87.813  1.00  0.00    -0.268 OA
ENDBRANCH  19  22
ENDBRANCH  15  16
ENDBRANCH  11  14
ENDBRANCH   7   8
ENDBRANCH   2   7
TORSDOF 9
ENDMDL
MODEL 6
REMARK VINA RESULT:      -6.6      3.946     10.392
REMARK  9 active torsions:
REMARK  status: ('A' for Active; 'I' for Inactive)
REMARK    1  A    between atoms: N_3  and  C_6 
REMARK    2  A    between atoms: C_6  and  C_9 
REMARK    3  A    between atoms: C_14  and  C_17 
REMARK       I    between atoms: N_26  and  C_15 
REMARK    4  A    between atoms: C_15  and  C_16 
REMARK    5  A    between atoms: C_20  and  C_23 
REMARK    6  A    between atoms: OG1_24  and  CB_28 
REMARK    7  A    between atoms: N_26  and  CA_27 
REMARK    8  A    between atoms: CA_27  and  CB_28 
REMARK    9  A    between atoms: CA_27  and  C_30 
ROOT
HETATM    1  O   UNK A   0      14.490   3.217  92.115  1.00  0.00    -0.388 OA
HETATM    2  N   UNK A   0      11.785   4.095  92.240  1.00  0.00     0.096 N 
HETATM    3  C   UNK A   0      12.370   3.259  93.297  1.00  0.00     0.299 C 
HETATM    4  C   UNK A   0      12.445   3.819  90.957  1.00  0.00     0.299 C 
HETATM    5  C   UNK A   0      13.876   3.502  93.374  1.00  0.00     0.198 C 
HETATM    6  C   UNK A   0      13.948   4.048  91.088  1.00  0.00     0.198 C 
ENDROOT
BRANCH   2   7
HETATM    7  C   UNK A   0      10.344   3.871  92.142  1.00  0.00     0.311 C 
BRANCH   7   8
HETATM    8  C   UNK A   0       9.592   5.125  91.851  1.00  0.00    -0.030 A 
HETATM    9  C   UNK A   0       9.912   6.302  92.529  1.00  0.00     0.010 A 
HETATM   10  C   UNK A   0       9.208   7.475  92.259  1.00  0.00     0.021 A 
HETATM   11  C   UNK A   0       8.187   7.472  91.310  1.00  0.00     0.018 A 
HETATM   12  C   UNK A   0       7.867   6.297  90.632  1.00  0.00     0.021 A 
HETATM   13  C   UNK A   0       8.570   5.123  90.902  1.00  0.00     0.010 A 
BRANCH  11  14
HETATM   14  C   UNK A   0       7.467   8.676  91.031  1.00  0.00    -0.061 C 
HETATM   15  C   UNK A   0       6.861   9.688  90.796  1.00  0.00    -0.061 C 
BRANCH  15  16
HETATM   16  C   UNK A   0       6.141  10.891  90.518  1.00  0.00     0.018 A 
HETATM   17  C   UNK A   0       5.242  11.398  91.457  1.00  0.00     0.022 A 
HETATM   18  C   UNK A   0       4.541  12.573  91.186  1.00  0.00     0.018 A 
HETATM   19  C   UNK A   0       4.755  13.215  89.985  1.00  0.00     0.032 A 
HETATM   20  C   UNK A   0       5.637  12.735  89.040  1.00  0.00     0.018 A 
HETATM   21  C   UNK A   0       6.339  11.559  89.310  1.00  0.00     0.022 A 
BRANCH  19  22
HETATM   22  C   UNK A   0       4.006  14.466  89.696  1.00  0.00     0.252 C 
HETATM   23  O   UNK A   0       4.626  15.518  89.562  1.00  0.00    -0.268 OA
ENDBRANCH  19  22
ENDBRANCH  15  16
ENDBRANCH  11  14
ENDBRANCH   7   8
ENDBRANCH   2   7
TORSDOF 9
ENDMDL
MODEL 7
REMARK VINA RESULT:      -6.6      3.968     10.463
REMARK  9 active torsions:
REMARK  status: ('A' for Active; 'I' for Inactive)
REMARK    1  A    between atoms: N_3  and  C_6 
REMARK    2  A    between atoms: C_6  and  C_9 
REMARK    3  A    between atoms: C_14  and  C_17 
REMARK       I    between atoms: N_26  and  C_15 
REMARK    4  A    between atoms: C_15  and  C_16 
REMARK    5  A    between atoms: C_20  and  C_23 
REMARK    6  A    between atoms: OG1_24  and  CB_28 
REMARK    7  A    between atoms: N_26  and  CA_27 
REMARK    8  A    between atoms: CA_27  and  CB_28 
REMARK    9  A    between atoms: CA_27  and  C_30 
ROOT
HETATM    1  O   UNK A   0      14.602   3.367  92.113  1.00  0.00    -0.388 OA
HETATM    2  N   UNK A   0      11.883   4.185  92.314  1.00  0.00     0.096 N 
HETATM    3  C   UNK A   0      12.499   3.314  93.324  1.00  0.00     0.299 C 
HETATM    4  C   UNK A   0      12.530   3.981  91.010  1.00  0.00     0.299 C 
HETATM    5  C   UNK A   0      14.001   3.582  93.391  1.00  0.00     0.198 C 
HETATM    6  C   UNK A   0      14.029   4.233  91.132  1.00  0.00     0.198 C 
ENDROOT
BRANCH   2   7
HETATM    7  C   UNK A   0      10.445   3.937  92.225  1.00  0.00     0.311 C 
BRANCH   7   8
HETATM    8  C   UNK A   0       9.671   5.179  91.938  1.00  0.00    -0.030 A 
HETATM    9  C   UNK A   0       8.734   5.193  90.904  1.00  0.00     0.010 A 
HETATM   10  C   UNK A   0       8.012   6.355  90.634  1.00  0.00     0.021 A 
HETATM   11  C   UNK A   0       8.224   7.501  91.399  1.00  0.00     0.018 A 
HETATM   12  C   UNK A   0       9.159   7.488  92.432  1.00  0.00     0.021 A 
HETATM   13  C   UNK A   0       9.883   6.327  92.702  1.00  0.00     0.010 A 
BRANCH  11  14
HETATM   14  C   UNK A   0       7.481   8.692  91.123  1.00  0.00    -0.061 C 
HETATM   15  C   UNK A   0       6.856   9.692  90.891  1.00  0.00    -0.061 C 
BRANCH  15  16
HETATM   16  C   UNK A   0       6.113  10.882  90.616  1.00  0.00     0.018 A 
HETATM   17  C   UNK A   0       6.220  11.497  89.368  1.00  0.00     0.022 A 
HETATM   18  C   UNK A   0       5.492  12.656  89.099  1.00  0.00     0.018 A 
HETATM   19  C   UNK A   0       4.675  13.174  90.082  1.00  0.00     0.032 A 
HETATM   20  C   UNK A   0       4.552  12.585  91.323  1.00  0.00     0.018 A 
HETATM   21  C   UNK A   0       5.279  11.426  91.593  1.00  0.00     0.022 A 
BRANCH  19  22
HETATM   22  C   UNK A   0       3.902  14.410  89.795  1.00  0.00     0.252 C 
HETATM   23  O   UNK A   0       4.460  15.501  89.885  1.00  0.00    -0.268 OA
ENDBRANCH  19  22
ENDBRANCH  15  16
ENDBRANCH  11  14
ENDBRANCH   7   8
ENDBRANCH   2   7
TORSDOF 9
ENDMDL
MODEL 8
REMARK VINA RESULT:      -6.3      1.923      2.775
REMARK  9 active torsions:
REMARK  status: ('A' for Active; 'I' for Inactive)
REMARK    1  A    between atoms: N_3  and  C_6 
REMARK    2  A    between atoms: C_6  and  C_9 
REMARK    3  A    between atoms: C_14  and  C_17 
REMARK       I    between atoms: N_26  and  C_15 
REMARK    4  A    between atoms: C_15  and  C_16 
REMARK    5  A    between atoms: C_20  and  C_23 
REMARK    6  A    between atoms: OG1_24  and  CB_28 
REMARK    7  A    between atoms: N_26  and  CA_27 
REMARK    8  A    between atoms: CA_27  and  CB_28 
REMARK    9  A    between atoms: CA_27  and  C_30 
ROOT
HETATM    1  O   UNK A   0       2.300   9.837  88.132  1.00  0.00    -0.388 OA
HETATM    2  N   UNK A   0       3.729   8.191  89.962  1.00  0.00     0.096 N 
HETATM    3  C   UNK A   0       2.539   7.699  89.255  1.00  0.00     0.299 C 
HETATM    4  C   UNK A   0       3.641   9.646  90.144  1.00  0.00     0.299 C 
HETATM    5  C   UNK A   0       2.392   8.427  87.921  1.00  0.00     0.198 C 
HETATM    6  C   UNK A   0       3.468  10.328  88.791  1.00  0.00     0.198 C 
ENDROOT
BRANCH   2   7
HETATM    7  C   UNK A   0       3.883   7.514  91.249  1.00  0.00     0.311 C 
BRANCH   7   8
HETATM    8  C   UNK A   0       5.249   6.944  91.431  1.00  0.00    -0.030 A 
HETATM    9  C   UNK A   0       5.846   6.956  92.692  1.00  0.00     0.010 A 
HETATM   10  C   UNK A   0       7.124   6.425  92.863  1.00  0.00     0.021 A 
HETATM   11  C   UNK A   0       7.804   5.881  91.774  1.00  0.00     0.018 A 
HETATM   12  C   UNK A   0       7.209   5.869  90.514  1.00  0.00     0.021 A 
HETATM   13  C   UNK A   0       5.931   6.400  90.342  1.00  0.00     0.010 A 
BRANCH  11  14
HETATM   14  C   UNK A   0       9.114   5.335  91.950  1.00  0.00    -0.061 C 
HETATM   15  C   UNK A   0      10.216   4.876  92.098  1.00  0.00    -0.061 C 
BRANCH  15  16
HETATM   16  C   UNK A   0      11.526   4.331  92.274  1.00  0.00     0.018 A 
HETATM   17  C   UNK A   0      11.959   3.958  93.546  1.00  0.00     0.022 A 
HETATM   18  C   UNK A   0      13.236   3.423  93.718  1.00  0.00     0.018 A 
HETATM   19  C   UNK A   0      14.050   3.274  92.614  1.00  0.00     0.032 A 
HETATM   20  C   UNK A   0      13.645   3.636  91.347  1.00  0.00     0.018 A 
HETATM   21  C   UNK A   0      12.368   4.170  91.174  1.00  0.00     0.022 A 
BRANCH  19  22
HETATM   22  C   UNK A   0      15.411   2.707  92.798  1.00  0.00     0.252 C 
HETATM   23  O   UNK A   0      15.750   2.309  93.910  1.00  0.00    -0.268 OA
ENDBRANCH  19  22
ENDBRANCH  15  16
ENDBRANCH  11  14
ENDBRANCH   7   8
ENDBRANCH   2   7
TORSDOF 9
ENDMDL
MODEL 9
REMARK VINA RESULT:      -6.3      4.921     10.317
REMARK  9 active torsions:
REMARK  status: ('A' for Active; 'I' for Inactive)
REMARK    1  A    between atoms: N_3  and  C_6 
REMARK    2  A    between atoms: C_6  and  C_9 
REMARK    3  A    between atoms: C_14  and  C_17 
REMARK       I    between atoms: N_26  and  C_15 
REMARK    4  A    between atoms: C_15  and  C_16 
REMARK    5  A    between atoms: C_20  and  C_23 
REMARK    6  A    between atoms: OG1_24  and  CB_28 
REMARK    7  A    between atoms: N_26  and  CA_27 
REMARK    8  A    between atoms: CA_27  and  CB_28 
REMARK    9  A    between atoms: CA_27  and  C_30 
ROOT
HETATM    1  O   UNK A   0      11.250   4.159  88.848  1.00  0.00    -0.388 OA
HETATM    2  N   UNK A   0       9.440   6.045  87.721  1.00  0.00     0.096 N 
HETATM    3  C   UNK A   0      10.235   5.144  86.875  1.00  0.00     0.299 C 
HETATM    4  C   UNK A   0      10.155   6.319  88.975  1.00  0.00     0.299 C 
HETATM    5  C   UNK A   0      10.548   3.860  87.639  1.00  0.00     0.198 C 
HETATM    6  C   UNK A   0      10.471   5.009  89.689  1.00  0.00     0.198 C 
ENDROOT
BRANCH   2   7
HETATM    7  C   UNK A   0       9.137   7.287  87.013  1.00  0.00     0.311 C 
BRANCH   7   8
HETATM    8  C   UNK A   0       8.334   8.232  87.841  1.00  0.00    -0.030 A 
HETATM    9  C   UNK A   0       6.999   7.944  88.128  1.00  0.00     0.010 A 
HETATM   10  C   UNK A   0       6.246   8.828  88.901  1.00  0.00     0.021 A 
HETATM   11  C   UNK A   0       6.829   9.998  89.387  1.00  0.00     0.018 A 
HETATM   12  C   UNK A   0       8.162  10.286  89.100  1.00  0.00     0.021 A 
HETATM   13  C   UNK A   0       8.915   9.402  88.327  1.00  0.00     0.010 A 
BRANCH  11  14
HETATM   14  C   UNK A   0       6.057  10.904  90.181  1.00  0.00    -0.061 C 
HETATM   15  C   UNK A   0       5.409  11.665  90.849  1.00  0.00    -0.061 C 
BRANCH  15  16
HETATM   16  C   UNK A   0       4.639  12.571  91.643  1.00  0.00     0.018 A 
HETATM   17  C   UNK A   0       4.057  13.693  91.052  1.00  0.00     0.022 A 
HETATM   18  C   UNK A   0       3.303  14.575  91.826  1.00  0.00     0.018 A 
HETATM   19  C   UNK A   0       3.147  14.316  93.171  1.00  0.00     0.032 A 
HETATM   20  C   UNK A   0       3.712  13.214  93.779  1.00  0.00     0.018 A 
HETATM   21  C   UNK A   0       4.466  12.331  93.006  1.00  0.00     0.022 A 
BRANCH  19  22
HETATM   22  C   UNK A   0       2.346  15.257  93.996  1.00  0.00     0.252 C 
HETATM   23  O   UNK A   0       1.246  15.624  93.589  1.00  0.00    -0.268 OA
ENDBRANCH  19  22
ENDBRANCH  15  16
ENDBRANCH  11  14
ENDBRANCH   7   8
ENDBRANCH   2   7
TORSDOF 9
ENDMDL
