MODEL 1
REMARK VINA RESULT:      -7.6      0.000      0.000
REMARK  9 active torsions:
REMARK  status: ('A' for Active; 'I' for Inactive)
REMARK    1  A    between atoms: N_3  and  C_6 
REMARK    2  A    between atoms: C_6  and  C_9 
REMARK    3  A    between atoms: C_14  and  C_17 
REMARK       I    between atoms: N_26  and  C_15 
REMARK    4  A    between atoms: C_15  and  C_16 
REMARK    5  A    between atoms: C_20  and  C_23 
REMARK    6  A    between atoms: OG1_24  and  CB_28 
REMARK    7  A    between atoms: N_26  and  CA_27 
REMARK    8  A    between atoms: CA_27  and  CB_28 
REMARK    9  A    between atoms: CA_27  and  C_30 
ROOT
HETATM    1  O   UNK A   0       1.835   8.059  87.852  1.00  0.00    -0.388 OA
HETATM    2  N   UNK A   0       4.624   7.523  87.675  1.00  0.00     0.096 N 
HETATM    3  C   UNK A   0       4.113   8.894  87.811  1.00  0.00     0.299 C 
HETATM    4  C   UNK A   0       3.635   6.683  86.986  1.00  0.00     0.299 C 
HETATM    5  C   UNK A   0       2.777   8.876  88.549  1.00  0.00     0.198 C 
HETATM    6  C   UNK A   0       2.311   6.717  87.742  1.00  0.00     0.198 C 
ENDROOT
BRANCH   2   7
HETATM    7  C   UNK A   0       5.900   7.515  86.961  1.00  0.00     0.311 C 
BRANCH   7   8
HETATM    8  C   UNK A   0       6.999   6.914  87.768  1.00  0.00    -0.030 A 
HETATM    9  C   UNK A   0       8.231   6.638  87.173  1.00  0.00     0.010 A 
HETATM   10  C   UNK A   0       9.259   6.073  87.927  1.00  0.00     0.021 A 
HETATM   11  C   UNK A   0       9.056   5.787  89.277  1.00  0.00     0.018 A 
HETATM   12  C   UNK A   0       7.828   6.063  89.873  1.00  0.00     0.021 A 
HETATM   13  C   UNK A   0       6.798   6.626  89.119  1.00  0.00     0.010 A 
BRANCH  11  14
HETATM   14  C   UNK A   0      10.112   5.210  90.051  1.00  0.00    -0.061 C 
HETATM   15  C   UNK A   0      11.000   4.725  90.701  1.00  0.00    -0.061 C 
BRANCH  15  16
HETATM   16  C   UNK A   0      12.056   4.149  91.474  1.00  0.00     0.018 A 
HETATM   17  C   UNK A   0      13.320   3.980  90.909  1.00  0.00     0.022 A 
HETATM   18  C   UNK A   0      14.351   3.420  91.665  1.00  0.00     0.018 A 
HETATM   19  C   UNK A   0      14.095   3.044  92.966  1.00  0.00     0.032 A 
HETATM   20  C   UNK A   0      12.854   3.201  93.547  1.00  0.00     0.018 A 
HETATM   21  C   UNK A   0      11.822   3.760  92.793  1.00  0.00     0.022 A 
BRANCH  19  22
HETATM   22  C   UNK A   0      15.192   2.447  93.770  1.00  0.00     0.252 C 
HETATM   23  O   UNK A   0      16.347   2.821  93.580  1.00  0.00    -0.268 OA
ENDBRANCH  19  22
ENDBRANCH  15  16
ENDBRANCH  11  14
ENDBRANCH   7   8
ENDBRANCH   2   7
TORSDOF 9
ENDMDL
MODEL 2
REMARK VINA RESULT:      -7.5      0.081      1.011
REMARK  9 active torsions:
REMARK  status: ('A' for Active; 'I' for Inactive)
REMARK    1  A    between atoms: N_3  and  C_6 
REMARK    2  A    between atoms: C_6  and  C_9 
REMARK    3  A    between atoms: C_14  and  C_17 
REMARK       I    between atoms: N_26  and  C_15 
REMARK    4  A    between atoms: C_15  and  C_16 
REMARK    5  A    between atoms: C_20  and  C_23 
REMARK    6  A    between atoms: OG1_24  and  CB_28 
REMARK    7  A    between atoms: N_26  and  CA_27 
REMARK    8  A    between atoms: CA_27  and  CB_28 
REMARK    9  A    between atoms: CA_27  and  C_30 
ROOT
HETATM    1  O   UNK A   0       1.889   8.035  87.848  1.00  0.00    -0.388 OA
HETATM    2  N   UNK A   0       4.690   7.550  87.701  1.00  0.00     0.096 N 
HETATM    3  C   UNK A   0       4.150   8.914  87.777  1.00  0.00     0.299 C 
HETATM    4  C   UNK A   0       3.720   6.660  87.047  1.00  0.00     0.299 C 
HETATM    5  C   UNK A   0       2.812   8.901  88.512  1.00  0.00     0.198 C 
HETATM    6  C   UNK A   0       2.393   6.700  87.798  1.00  0.00     0.198 C 
ENDROOT
BRANCH   2   7
HETATM    7  C   UNK A   0       5.967   7.537  86.991  1.00  0.00     0.311 C 
BRANCH   7   8
HETATM    8  C   UNK A   0       7.063   6.938  87.804  1.00  0.00    -0.030 A 
HETATM    9  C   UNK A   0       8.311   6.701  87.225  1.00  0.00     0.010 A 
HETATM   10  C   UNK A   0       9.336   6.138  87.984  1.00  0.00     0.021 A 
HETATM   11  C   UNK A   0       9.115   5.814  89.322  1.00  0.00     0.018 A 
HETATM   12  C   UNK A   0       7.870   6.050  89.902  1.00  0.00     0.021 A 
HETATM   13  C   UNK A   0       6.843   6.612  89.143  1.00  0.00     0.010 A 
BRANCH  11  14
HETATM   14  C   UNK A   0      10.167   5.238  90.101  1.00  0.00    -0.061 C 
HETATM   15  C   UNK A   0      11.052   4.753  90.756  1.00  0.00    -0.061 C 
BRANCH  15  16
HETATM   16  C   UNK A   0      12.104   4.178  91.534  1.00  0.00     0.018 A 
HETATM   17  C   UNK A   0      11.862   3.783  92.850  1.00  0.00     0.022 A 
HETATM   18  C   UNK A   0      12.888   3.219  93.608  1.00  0.00     0.018 A 
HETATM   19  C   UNK A   0      14.132   3.062  93.033  1.00  0.00     0.032 A 
HETATM   20  C   UNK A   0      14.397   3.444  91.735  1.00  0.00     0.018 A 
HETATM   21  C   UNK A   0      13.372   4.008  90.976  1.00  0.00     0.022 A 
BRANCH  19  22
HETATM   22  C   UNK A   0      15.226   2.463  93.842  1.00  0.00     0.252 C 
HETATM   23  O   UNK A   0      16.385   2.814  93.636  1.00  0.00    -0.268 OA
ENDBRANCH  19  22
ENDBRANCH  15  16
ENDBRANCH  11  14
ENDBRANCH   7   8
ENDBRANCH   2   7
TORSDOF 9
ENDMDL
MODEL 3
REMARK VINA RESULT:      -7.5      0.342      1.465
REMARK  9 active torsions:
REMARK  status: ('A' for Active; 'I' for Inactive)
REMARK    1  A    between atoms: N_3  and  C_6 
REMARK    2  A    between atoms: C_6  and  C_9 
REMARK    3  A    between atoms: C_14  and  C_17 
REMARK       I    between atoms: N_26  and  C_15 
REMARK    4  A    between atoms: C_15  and  C_16 
REMARK    5  A    between atoms: C_20  and  C_23 
REMARK    6  A    between atoms: OG1_24  and  CB_28 
REMARK    7  A    between atoms: N_26  and  CA_27 
REMARK    8  A    between atoms: CA_27  and  CB_28 
REMARK    9  A    between atoms: CA_27  and  C_30 
ROOT
HETATM    1  O   UNK A   0       1.792   8.613  88.337  1.00  0.00    -0.388 OA
HETATM    2  N   UNK A   0       4.463   7.720  87.923  1.00  0.00     0.096 N 
HETATM    3  C   UNK A   0       4.142   9.149  88.052  1.00  0.00     0.299 C 
HETATM    4  C   UNK A   0       3.314   6.995  87.363  1.00  0.00     0.299 C 
HETATM    5  C   UNK A   0       2.891   9.322  88.911  1.00  0.00     0.198 C 
HETATM    6  C   UNK A   0       2.084   7.219  88.237  1.00  0.00     0.198 C 
ENDROOT
BRANCH   2   7
HETATM    7  C   UNK A   0       5.652   7.530  87.095  1.00  0.00     0.311 C 
BRANCH   7   8
HETATM    8  C   UNK A   0       6.786   6.934  87.857  1.00  0.00    -0.030 A 
HETATM    9  C   UNK A   0       6.619   6.591  89.200  1.00  0.00     0.010 A 
HETATM   10  C   UNK A   0       7.680   6.036  89.915  1.00  0.00     0.021 A 
HETATM   11  C   UNK A   0       8.906   5.822  89.287  1.00  0.00     0.018 A 
HETATM   12  C   UNK A   0       9.075   6.164  87.947  1.00  0.00     0.021 A 
HETATM   13  C   UNK A   0       8.014   6.720  87.231  1.00  0.00     0.010 A 
BRANCH  11  14
HETATM   14  C   UNK A   0       9.994   5.250  90.020  1.00  0.00    -0.061 C 
HETATM   15  C   UNK A   0      10.907   4.770  90.637  1.00  0.00    -0.061 C 
BRANCH  15  16
HETATM   16  C   UNK A   0      11.994   4.198  91.370  1.00  0.00     0.018 A 
HETATM   17  C   UNK A   0      11.808   3.804  92.695  1.00  0.00     0.022 A 
HETATM   18  C   UNK A   0      12.867   3.243  93.409  1.00  0.00     0.018 A 
HETATM   19  C   UNK A   0      14.086   3.089  92.783  1.00  0.00     0.032 A 
HETATM   20  C   UNK A   0      14.295   3.472  91.474  1.00  0.00     0.018 A 
HETATM   21  C   UNK A   0      13.237   4.033  90.759  1.00  0.00     0.022 A 
BRANCH  19  22
HETATM   22  C   UNK A   0      15.215   2.494  93.544  1.00  0.00     0.252 C 
HETATM   23  O   UNK A   0      16.269   3.117  93.639  1.00  0.00    -0.268 OA
ENDBRANCH  19  22
ENDBRANCH  15  16
ENDBRANCH  11  14
ENDBRANCH   7   8
ENDBRANCH   2   7
TORSDOF 9
ENDMDL
MODEL 4
REMARK VINA RESULT:      -6.9      1.622      2.245
REMARK  9 active torsions:
REMARK  status: ('A' for Active; 'I' for Inactive)
REMARK    1  A    between atoms: N_3  and  C_6 
REMARK    2  A    between atoms: C_6  and  C_9 
REMARK    3  A    between atoms: C_14  and  C_17 
REMARK       I    between atoms: N_26  and  C_15 
REMARK    4  A    between atoms: C_15  and  C_16 
REMARK    5  A    between atoms: C_20  and  C_23 
REMARK    6  A    between atoms: OG1_24  and  CB_28 
REMARK    7  A    between atoms: N_26  and  CA_27 
REMARK    8  A    between atoms: CA_27  and  CB_28 
REMARK    9  A    between atoms: CA_27  and  C_30 
ROOT
HETATM    1  O   UNK A   0       2.742  11.351  89.824  1.00  0.00    -0.388 OA
HETATM    2  N   UNK A   0       4.540   9.324  88.953  1.00  0.00     0.096 N 
HETATM    3  C   UNK A   0       3.892  10.236  88.001  1.00  0.00     0.299 C 
HETATM    4  C   UNK A   0       3.685   9.138  90.134  1.00  0.00     0.299 C 
HETATM    5  C   UNK A   0       3.580  11.564  88.687  1.00  0.00     0.198 C 
HETATM    6  C   UNK A   0       3.378  10.490  90.769  1.00  0.00     0.198 C 
ENDROOT
BRANCH   2   7
HETATM    7  C   UNK A   0       4.838   8.041  88.319  1.00  0.00     0.311 C 
BRANCH   7   8
HETATM    8  C   UNK A   0       6.056   7.396  88.888  1.00  0.00    -0.030 A 
HETATM    9  C   UNK A   0       7.287   8.048  88.818  1.00  0.00     0.010 A 
HETATM   10  C   UNK A   0       8.428   7.445  89.347  1.00  0.00     0.021 A 
HETATM   11  C   UNK A   0       8.335   6.190  89.949  1.00  0.00     0.018 A 
HETATM   12  C   UNK A   0       7.106   5.538  90.021  1.00  0.00     0.021 A 
HETATM   13  C   UNK A   0       5.966   6.141  89.490  1.00  0.00     0.010 A 
BRANCH  11  14
HETATM   14  C   UNK A   0       9.505   5.572  90.495  1.00  0.00    -0.061 C 
HETATM   15  C   UNK A   0      10.488   5.053  90.953  1.00  0.00    -0.061 C 
BRANCH  15  16
HETATM   16  C   UNK A   0      11.657   4.437  91.498  1.00  0.00     0.018 A 
HETATM   17  C   UNK A   0      11.670   4.027  92.832  1.00  0.00     0.022 A 
HETATM   18  C   UNK A   0      12.810   3.423  93.363  1.00  0.00     0.018 A 
HETATM   19  C   UNK A   0      13.909   3.241  92.550  1.00  0.00     0.032 A 
HETATM   20  C   UNK A   0      13.920   3.638  91.229  1.00  0.00     0.018 A 
HETATM   21  C   UNK A   0      12.782   4.242  90.697  1.00  0.00     0.022 A 
BRANCH  19  22
HETATM   22  C   UNK A   0      15.123   2.599  93.117  1.00  0.00     0.252 C 
HETATM   23  O   UNK A   0      15.931   3.287  93.737  1.00  0.00    -0.268 OA
ENDBRANCH  19  22
ENDBRANCH  15  16
ENDBRANCH  11  14
ENDBRANCH   7   8
ENDBRANCH   2   7
TORSDOF 9
ENDMDL
MODEL 5
REMARK VINA RESULT:      -6.7      3.522     10.313
REMARK  9 active torsions:
REMARK  status: ('A' for Active; 'I' for Inactive)
REMARK    1  A    between atoms: N_3  and  C_6 
REMARK    2  A    between atoms: C_6  and  C_9 
REMARK    3  A    between atoms: C_14  and  C_17 
REMARK       I    between atoms: N_26  and  C_15 
REMARK    4  A    between atoms: C_15  and  C_16 
REMARK    5  A    between atoms: C_20  and  C_23 
REMARK    6  A    between atoms: OG1_24  and  CB_28 
REMARK    7  A    between atoms: N_26  and  CA_27 
REMARK    8  A    between atoms: CA_27  and  CB_28 
REMARK    9  A    between atoms: CA_27  and  C_30 
ROOT
HETATM    1  O   UNK A   0      16.127   3.032  93.639  1.00  0.00    -0.388 OA
HETATM    2  N   UNK A   0      13.435   2.867  92.731  1.00  0.00     0.096 N 
HETATM    3  C   UNK A   0      14.205   1.663  93.073  1.00  0.00     0.299 C 
HETATM    4  C   UNK A   0      14.339   3.928  92.267  1.00  0.00     0.299 C 
HETATM    5  C   UNK A   0      15.259   2.005  94.123  1.00  0.00     0.198 C 
HETATM    6  C   UNK A   0      15.391   4.216  93.333  1.00  0.00     0.198 C 
ENDROOT
BRANCH   2   7
HETATM    7  C   UNK A   0      12.425   2.565  91.718  1.00  0.00     0.311 C 
BRANCH   7   8
HETATM    8  C   UNK A   0      11.574   3.746  91.394  1.00  0.00    -0.030 A 
HETATM    9  C   UNK A   0      11.436   4.162  90.070  1.00  0.00     0.010 A 
HETATM   10  C   UNK A   0      10.642   5.268  89.766  1.00  0.00     0.021 A 
HETATM   11  C   UNK A   0       9.986   5.956  90.786  1.00  0.00     0.018 A 
HETATM   12  C   UNK A   0      10.123   5.541  92.109  1.00  0.00     0.021 A 
HETATM   13  C   UNK A   0      10.918   4.436  92.414  1.00  0.00     0.010 A 
BRANCH  11  14
HETATM   14  C   UNK A   0       9.170   7.089  90.474  1.00  0.00    -0.061 C 
HETATM   15  C   UNK A   0       8.484   8.041  90.212  1.00  0.00    -0.061 C 
BRANCH  15  16
HETATM   16  C   UNK A   0       7.668   9.173  89.900  1.00  0.00     0.018 A 
HETATM   17  C   UNK A   0       8.260  10.362  89.472  1.00  0.00     0.022 A 
HETATM   18  C   UNK A   0       7.464  11.465  89.166  1.00  0.00     0.018 A 
HETATM   19  C   UNK A   0       6.095  11.356  89.294  1.00  0.00     0.032 A 
HETATM   20  C   UNK A   0       5.486  10.192  89.716  1.00  0.00     0.018 A 
HETATM   21  C   UNK A   0       6.281   9.088  90.022  1.00  0.00     0.022 A 
BRANCH  19  22
HETATM   22  C   UNK A   0       5.247  12.532  88.969  1.00  0.00     0.252 C 
HETATM   23  O   UNK A   0       4.940  12.745  87.799  1.00  0.00    -0.268 OA
ENDBRANCH  19  22
ENDBRANCH  15  16
ENDBRANCH  11  14
ENDBRANCH   7   8
ENDBRANCH   2   7
TORSDOF 9
ENDMDL
MODEL 6
REMARK VINA RESULT:      -6.6      1.529      1.903
REMARK  9 active torsions:
REMARK  status: ('A' for Active; 'I' for Inactive)
REMARK    1  A    between atoms: N_3  and  C_6 
REMARK    2  A    between atoms: C_6  and  C_9 
REMARK    3  A    between atoms: C_14  and  C_17 
REMARK       I    between atoms: N_26  and  C_15 
REMARK    4  A    between atoms: C_15  and  C_16 
REMARK    5  A    between atoms: C_20  and  C_23 
REMARK    6  A    between atoms: OG1_24  and  CB_28 
REMARK    7  A    between atoms: N_26  and  CA_27 
REMARK    8  A    between atoms: CA_27  and  CB_28 
REMARK    9  A    between atoms: CA_27  and  C_30 
ROOT
HETATM    1  O   UNK A   0       4.796  11.573  88.692  1.00  0.00    -0.388 OA
HETATM    2  N   UNK A   0       4.860   8.730  88.826  1.00  0.00     0.096 N 
HETATM    3  C   UNK A   0       6.070   9.536  89.039  1.00  0.00     0.299 C 
HETATM    4  C   UNK A   0       3.936   9.437  87.928  1.00  0.00     0.299 C 
HETATM    5  C   UNK A   0       5.687  10.907  89.590  1.00  0.00     0.198 C 
HETATM    6  C   UNK A   0       3.604  10.810  88.504  1.00  0.00     0.198 C 
ENDROOT
BRANCH   2   7
HETATM    7  C   UNK A   0       5.202   7.415  88.288  1.00  0.00     0.311 C 
BRANCH   7   8
HETATM    8  C   UNK A   0       6.429   6.846  88.916  1.00  0.00    -0.030 A 
HETATM    9  C   UNK A   0       7.628   6.817  88.202  1.00  0.00     0.010 A 
HETATM   10  C   UNK A   0       8.775   6.283  88.788  1.00  0.00     0.021 A 
HETATM   11  C   UNK A   0       8.724   5.781  90.088  1.00  0.00     0.018 A 
HETATM   12  C   UNK A   0       7.528   5.810  90.802  1.00  0.00     0.021 A 
HETATM   13  C   UNK A   0       6.380   6.342  90.216  1.00  0.00     0.010 A 
BRANCH  11  14
HETATM   14  C   UNK A   0       9.902   5.235  90.690  1.00  0.00    -0.061 C 
HETATM   15  C   UNK A   0      10.892   4.777  91.196  1.00  0.00    -0.061 C 
BRANCH  15  16
HETATM   16  C   UNK A   0      12.068   4.232  91.798  1.00  0.00     0.018 A 
HETATM   17  C   UNK A   0      13.220   4.046  91.033  1.00  0.00     0.022 A 
HETATM   18  C   UNK A   0      14.368   3.517  91.621  1.00  0.00     0.018 A 
HETATM   19  C   UNK A   0      14.340   3.185  92.960  1.00  0.00     0.032 A 
HETATM   20  C   UNK A   0      13.214   3.358  93.737  1.00  0.00     0.018 A 
HETATM   21  C   UNK A   0      12.065   3.888  93.150  1.00  0.00     0.022 A 
BRANCH  19  22
HETATM   22  C   UNK A   0      15.563   2.619  93.585  1.00  0.00     0.252 C 
HETATM   23  O   UNK A   0      16.435   3.381  93.994  1.00  0.00    -0.268 OA
ENDBRANCH  19  22
ENDBRANCH  15  16
ENDBRANCH  11  14
ENDBRANCH   7   8
ENDBRANCH   2   7
TORSDOF 9
ENDMDL
MODEL 7
REMARK VINA RESULT:      -6.6      3.921     10.424
REMARK  9 active torsions:
REMARK  status: ('A' for Active; 'I' for Inactive)
REMARK    1  A    between atoms: N_3  and  C_6 
REMARK    2  A    between atoms: C_6  and  C_9 
REMARK    3  A    between atoms: C_14  and  C_17 
REMARK       I    between atoms: N_26  and  C_15 
REMARK    4  A    between atoms: C_15  and  C_16 
REMARK    5  A    between atoms: C_20  and  C_23 
REMARK    6  A    between atoms: OG1_24  and  CB_28 
REMARK    7  A    between atoms: N_26  and  CA_27 
REMARK    8  A    between atoms: CA_27  and  CB_28 
REMARK    9  A    between atoms: CA_27  and  C_30 
ROOT
HETATM    1  O   UNK A   0      14.672   3.298  92.115  1.00  0.00    -0.388 OA
HETATM    2  N   UNK A   0      11.958   4.146  92.259  1.00  0.00     0.096 N 
HETATM    3  C   UNK A   0      12.569   3.342  93.327  1.00  0.00     0.299 C 
HETATM    4  C   UNK A   0      12.603   3.849  90.973  1.00  0.00     0.299 C 
HETATM    5  C   UNK A   0      14.073   3.604  93.375  1.00  0.00     0.198 C 
HETATM    6  C   UNK A   0      14.105   4.098  91.077  1.00  0.00     0.198 C 
ENDROOT
BRANCH   2   7
HETATM    7  C   UNK A   0      10.519   3.903  92.188  1.00  0.00     0.311 C 
BRANCH   7   8
HETATM    8  C   UNK A   0       9.748   5.142  91.882  1.00  0.00    -0.030 A 
HETATM    9  C   UNK A   0       9.927   6.284  92.664  1.00  0.00     0.010 A 
HETATM   10  C   UNK A   0       9.204   7.443  92.381  1.00  0.00     0.021 A 
HETATM   11  C   UNK A   0       8.306   7.460  91.315  1.00  0.00     0.018 A 
HETATM   12  C   UNK A   0       8.127   6.321  90.533  1.00  0.00     0.021 A 
HETATM   13  C   UNK A   0       8.848   5.161  90.817  1.00  0.00     0.010 A 
BRANCH  11  14
HETATM   14  C   UNK A   0       7.567   8.650  91.023  1.00  0.00    -0.061 C 
HETATM   15  C   UNK A   0       6.946   9.650  90.778  1.00  0.00    -0.061 C 
BRANCH  15  16
HETATM   16  C   UNK A   0       6.208  10.839  90.485  1.00  0.00     0.018 A 
HETATM   17  C   UNK A   0       6.404  11.500  89.272  1.00  0.00     0.022 A 
HETATM   18  C   UNK A   0       5.681  12.658  88.986  1.00  0.00     0.018 A 
HETATM   19  C   UNK A   0       4.780  13.129  89.918  1.00  0.00     0.032 A 
HETATM   20  C   UNK A   0       4.569  12.495  91.124  1.00  0.00     0.018 A 
HETATM   21  C   UNK A   0       5.291  11.336  91.411  1.00  0.00     0.022 A 
BRANCH  19  22
HETATM   22  C   UNK A   0       4.012  14.365  89.613  1.00  0.00     0.252 C 
HETATM   23  O   UNK A   0       4.620  15.408  89.388  1.00  0.00    -0.268 OA
ENDBRANCH  19  22
ENDBRANCH  15  16
ENDBRANCH  11  14
ENDBRANCH   7   8
ENDBRANCH   2   7
TORSDOF 9
ENDMDL
MODEL 8
REMARK VINA RESULT:      -6.6      3.970     10.473
REMARK  9 active torsions:
REMARK  status: ('A' for Active; 'I' for Inactive)
REMARK    1  A    between atoms: N_3  and  C_6 
REMARK    2  A    between atoms: C_6  and  C_9 
REMARK    3  A    between atoms: C_14  and  C_17 
REMARK       I    between atoms: N_26  and  C_15 
REMARK    4  A    between atoms: C_15  and  C_16 
REMARK    5  A    between atoms: C_20  and  C_23 
REMARK    6  A    between atoms: OG1_24  and  CB_28 
REMARK    7  A    between atoms: N_26  and  CA_27 
REMARK    8  A    between atoms: CA_27  and  CB_28 
REMARK    9  A    between atoms: CA_27  and  C_30 
ROOT
HETATM    1  O   UNK A   0      14.599   3.353  92.161  1.00  0.00    -0.388 OA
HETATM    2  N   UNK A   0      11.879   4.182  92.303  1.00  0.00     0.096 N 
HETATM    3  C   UNK A   0      12.485   3.353  93.354  1.00  0.00     0.299 C 
HETATM    4  C   UNK A   0      12.538   3.922  91.015  1.00  0.00     0.299 C 
HETATM    5  C   UNK A   0      13.986   3.622  93.424  1.00  0.00     0.198 C 
HETATM    6  C   UNK A   0      14.037   4.177  91.139  1.00  0.00     0.198 C 
ENDROOT
BRANCH   2   7
HETATM    7  C   UNK A   0      10.442   3.933  92.211  1.00  0.00     0.311 C 
BRANCH   7   8
HETATM    8  C   UNK A   0       9.667   5.174  91.927  1.00  0.00    -0.030 A 
HETATM    9  C   UNK A   0       8.745   5.196  90.880  1.00  0.00     0.010 A 
HETATM   10  C   UNK A   0       8.021   6.358  90.612  1.00  0.00     0.021 A 
HETATM   11  C   UNK A   0       8.218   7.496  91.393  1.00  0.00     0.018 A 
HETATM   12  C   UNK A   0       9.138   7.475  92.440  1.00  0.00     0.021 A 
HETATM   13  C   UNK A   0       9.863   6.314  92.707  1.00  0.00     0.010 A 
BRANCH  11  14
HETATM   14  C   UNK A   0       7.474   8.687  91.120  1.00  0.00    -0.061 C 
HETATM   15  C   UNK A   0       6.849   9.688  90.890  1.00  0.00    -0.061 C 
BRANCH  15  16
HETATM   16  C   UNK A   0       6.105  10.878  90.616  1.00  0.00     0.018 A 
HETATM   17  C   UNK A   0       5.278  11.424  91.598  1.00  0.00     0.022 A 
HETATM   18  C   UNK A   0       4.555  12.586  91.331  1.00  0.00     0.018 A 
HETATM   19  C   UNK A   0       4.674  13.176  90.091  1.00  0.00     0.032 A 
HETATM   20  C   UNK A   0       5.484  12.656  89.103  1.00  0.00     0.018 A 
HETATM   21  C   UNK A   0       6.208  11.493  89.368  1.00  0.00     0.022 A 
BRANCH  19  22
HETATM   22  C   UNK A   0       3.901  14.413  89.806  1.00  0.00     0.252 C 
HETATM   23  O   UNK A   0       4.473  15.500  89.847  1.00  0.00    -0.268 OA
ENDBRANCH  19  22
ENDBRANCH  15  16
ENDBRANCH  11  14
ENDBRANCH   7   8
ENDBRANCH   2   7
TORSDOF 9
ENDMDL
MODEL 9
REMARK VINA RESULT:      -6.5      1.808      2.671
REMARK  9 active torsions:
REMARK  status: ('A' for Active; 'I' for Inactive)
REMARK    1  A    between atoms: N_3  and  C_6 
REMARK    2  A    between atoms: C_6  and  C_9 
REMARK    3  A    between atoms: C_14  and  C_17 
REMARK       I    between atoms: N_26  and  C_15 
REMARK    4  A    between atoms: C_15  and  C_16 
REMARK    5  A    between atoms: C_20  and  C_23 
REMARK    6  A    between atoms: OG1_24  and  CB_28 
REMARK    7  A    between atoms: N_26  and  CA_27 
REMARK    8  A    between atoms: CA_27  and  CB_28 
REMARK    9  A    between atoms: CA_27  and  C_30 
ROOT
HETATM    1  O   UNK A   0       3.253  11.406  89.025  1.00  0.00    -0.388 OA
HETATM    2  N   UNK A   0       4.318   8.845  89.666  1.00  0.00     0.096 N 
HETATM    3  C   UNK A   0       3.319   9.017  88.602  1.00  0.00     0.299 C 
HETATM    4  C   UNK A   0       4.146   9.884  90.690  1.00  0.00     0.299 C 
HETATM    5  C   UNK A   0       3.433  10.419  88.008  1.00  0.00     0.198 C 
HETATM    6  C   UNK A   0       4.240  11.265  90.048  1.00  0.00     0.198 C 
ENDROOT
BRANCH   2   7
HETATM    7  C   UNK A   0       4.219   7.511  90.257  1.00  0.00     0.311 C 
BRANCH   7   8
HETATM    8  C   UNK A   0       5.555   6.932  90.577  1.00  0.00    -0.030 A 
HETATM    9  C   UNK A   0       6.039   6.976  91.885  1.00  0.00     0.010 A 
HETATM   10  C   UNK A   0       7.289   6.436  92.185  1.00  0.00     0.021 A 
HETATM   11  C   UNK A   0       8.055   5.851  91.176  1.00  0.00     0.018 A 
HETATM   12  C   UNK A   0       7.573   5.807  89.870  1.00  0.00     0.021 A 
HETATM   13  C   UNK A   0       6.323   6.347  89.569  1.00  0.00     0.010 A 
BRANCH  11  14
HETATM   14  C   UNK A   0       9.337   5.296  91.485  1.00  0.00    -0.061 C 
HETATM   15  C   UNK A   0      10.414   4.828  91.743  1.00  0.00    -0.061 C 
BRANCH  15  16
HETATM   16  C   UNK A   0      11.695   4.273  92.050  1.00  0.00     0.018 A 
HETATM   17  C   UNK A   0      12.686   4.223  91.069  1.00  0.00     0.022 A 
HETATM   18  C   UNK A   0      13.937   3.684  91.370  1.00  0.00     0.018 A 
HETATM   19  C   UNK A   0      14.169   3.207  92.643  1.00  0.00     0.032 A 
HETATM   20  C   UNK A   0      13.206   3.244  93.630  1.00  0.00     0.018 A 
HETATM   21  C   UNK A   0      11.955   3.784  93.330  1.00  0.00     0.022 A 
BRANCH  19  22
HETATM   22  C   UNK A   0      15.501   2.631  92.962  1.00  0.00     0.252 C 
HETATM   23  O   UNK A   0      15.970   2.791  94.086  1.00  0.00    -0.268 OA
ENDBRANCH  19  22
ENDBRANCH  15  16
ENDBRANCH  11  14
ENDBRANCH   7   8
ENDBRANCH   2   7
TORSDOF 9
ENDMDL
