MODEL 1
REMARK VINA RESULT:      -6.8      0.000      0.000
REMARK  10 active torsions:
REMARK  status: ('A' for Active; 'I' for Inactive)
REMARK    1  A    between atoms: O_2  and  C_16 
REMARK    2  A    between atoms: N_5  and  C_9 
REMARK    3  A    between atoms: N_6  and  C_13 
REMARK       I    between atoms: N_6  and  C_22 
REMARK    4  A    between atoms: C_9  and  C_12 
REMARK    5  A    between atoms: C_13  and  C_16 
REMARK    6  A    between atoms: C_13  and  C_21 
REMARK    7  A    between atoms: C_19  and  C_24 
REMARK    8  A    between atoms: C_22  and  C_23 
REMARK    9  A    between atoms: C_27  and  C_30 
REMARK   10  A    between atoms: N_33  and  S_34 
ROOT
HETATM    1  C   UNL     1       4.956   9.751  90.373  1.00  0.00     0.056 A 
HETATM    2  C   UNL     1       4.761   8.438  89.998  1.00  0.00     0.005 A 
HETATM    3  C   UNL     1       6.137  10.189  90.934  1.00  0.00     0.005 A 
HETATM    4  C   UNL     1       6.999   7.939  90.759  1.00  0.00     0.042 A 
HETATM    5  C   UNL     1       5.794   7.521  90.193  1.00  0.00     0.008 A 
HETATM    6  C   UNL     1       7.170   9.273  91.130  1.00  0.00     0.008 A 
ENDROOT
BRANCH   1   7
HETATM    7  C   UNL     1       3.856  10.727  90.163  1.00  0.00     0.254 C 
HETATM    8  O   UNL     1       2.833  10.364  89.588  1.00  0.00    -0.268 OA
HETATM    9  N   UNL     1       4.070  12.002  90.669  1.00  0.00    -0.337 N 
HETATM   10  HN  UNL     1       4.931  12.223  91.156  1.00  0.00     0.164 HD
BRANCH   9  11
HETATM   11  C   UNL     1       3.088  13.052  90.566  1.00  0.00     0.172 C 
BRANCH  11  12
HETATM   12  C   UNL     1       2.707  13.644  91.929  1.00  0.00     0.136 C 
HETATM   13  C   UNL     1       1.251  14.093  91.984  1.00  0.00     0.034 C 
BRANCH  12  14
HETATM   14  O   UNL     1       2.932  12.673  92.951  1.00  0.00    -0.383 OA
HETATM   15  H   UNL     1       2.999  11.799  92.531  1.00  0.00     0.210 HD
ENDBRANCH  12  14
ENDBRANCH  11  12
BRANCH  11  16
HETATM   16  C   UNL     1       3.647  14.122  89.634  1.00  0.00     0.398 A 
HETATM   17  O   UNL     1       4.320  13.858  88.639  1.00  0.00    -0.136 OA
HETATM   18  N   UNL     1       4.940  15.015  89.404  1.00  0.00     0.142 N 
HETATM   19  HN  UNL     1       5.579  14.976  88.661  1.00  0.00     0.338 HD
BRANCH  18  20
HETATM   20  S   UNL     1       4.994  15.623  90.654  1.00  0.00     0.076 SA
HETATM   21  H   UNL     1       5.391  16.743  90.683  1.00  0.00     0.136 HD
ENDBRANCH  18  20
ENDBRANCH  11  16
ENDBRANCH   9  11
ENDBRANCH   1   7
BRANCH   4  22
HETATM   22  C   UNL     1       8.056   6.999  90.962  1.00  0.00    -0.059 C 
HETATM   23  C   UNL     1       8.946   6.208  91.133  1.00  0.00    -0.059 C 
BRANCH  23  24
HETATM   24  C   UNL     1      10.004   5.266  91.336  1.00  0.00     0.042 A 
HETATM   25  C   UNL     1      10.590   4.632  90.242  1.00  0.00     0.008 A 
HETATM   26  C   UNL     1      11.620   3.712  90.440  1.00  0.00    -0.002 A 
HETATM   27  C   UNL     1      12.064   3.430  91.733  1.00  0.00     0.011 A 
HETATM   28  C   UNL     1      11.476   4.066  92.826  1.00  0.00    -0.002 A 
HETATM   29  C   UNL     1      10.446   4.985  92.627  1.00  0.00     0.008 A 
BRANCH  27  30
HETATM   30  C   UNL     1      13.166   2.448  91.943  1.00  0.00     0.277 C 
BRANCH  30  31
HETATM   31  N   UNL     1      14.119   2.890  92.961  1.00  0.00     0.147 N 
HETATM   32  C   UNL     1      15.243   1.950  93.064  1.00  0.00     0.283 C 
HETATM   33  C   UNL     1      16.229   2.437  94.123  1.00  0.00     0.178 C 
HETATM   34  O   UNL     1      16.701   3.746  93.799  1.00  0.00    -0.350 OA
HETATM   35  C   UNL     1      15.616   4.672  93.727  1.00  0.00     0.178 C 
HETATM   36  C   UNL     1      14.617   4.239  92.660  1.00  0.00     0.283 C 
ENDBRANCH  30  31
ENDBRANCH  27  30
ENDBRANCH  23  24
ENDBRANCH   4  22
TORSDOF 10
ENDMDL
MODEL 2
REMARK VINA RESULT:      -6.7      1.539      2.009
REMARK  10 active torsions:
REMARK  status: ('A' for Active; 'I' for Inactive)
REMARK    1  A    between atoms: O_2  and  C_16 
REMARK    2  A    between atoms: N_5  and  C_9 
REMARK    3  A    between atoms: N_6  and  C_13 
REMARK       I    between atoms: N_6  and  C_22 
REMARK    4  A    between atoms: C_9  and  C_12 
REMARK    5  A    between atoms: C_13  and  C_16 
REMARK    6  A    between atoms: C_13  and  C_21 
REMARK    7  A    between atoms: C_19  and  C_24 
REMARK    8  A    between atoms: C_22  and  C_23 
REMARK    9  A    between atoms: C_27  and  C_30 
REMARK   10  A    between atoms: N_33  and  S_34 
ROOT
HETATM    1  C   UNL     1       5.775  11.354  90.216  1.00  0.00     0.056 A 
HETATM    2  C   UNL     1       6.711  11.053  89.249  1.00  0.00     0.005 A 
HETATM    3  C   UNL     1       5.653  10.618  91.376  1.00  0.00     0.005 A 
HETATM    4  C   UNL     1       7.460   9.208  90.616  1.00  0.00     0.042 A 
HETATM    5  C   UNL     1       7.564   9.967  89.450  1.00  0.00     0.008 A 
HETATM    6  C   UNL     1       6.505   9.533  91.579  1.00  0.00     0.008 A 
ENDROOT
BRANCH   1   7
HETATM    7  C   UNL     1       4.868  12.511  90.002  1.00  0.00     0.254 C 
HETATM    8  O   UNL     1       4.845  13.059  88.902  1.00  0.00    -0.268 OA
HETATM    9  N   UNL     1       4.081  12.876  91.085  1.00  0.00    -0.337 N 
HETATM   10  HN  UNL     1       4.136  12.360  91.956  1.00  0.00     0.164 HD
BRANCH   9  11
HETATM   11  C   UNL     1       3.135  13.961  91.026  1.00  0.00     0.172 C 
BRANCH  11  12
HETATM   12  C   UNL     1       1.784  13.606  91.659  1.00  0.00     0.136 C 
HETATM   13  C   UNL     1       1.865  12.377  92.558  1.00  0.00     0.034 C 
BRANCH  12  14
HETATM   14  O   UNL     1       1.311  14.712  92.427  1.00  0.00    -0.383 OA
HETATM   15  H   UNL     1       1.682  15.527  92.049  1.00  0.00     0.210 HD
ENDBRANCH  12  14
ENDBRANCH  11  12
BRANCH  11  16
HETATM   16  C   UNL     1       3.768  15.168  91.712  1.00  0.00     0.398 A 
HETATM   17  O   UNL     1       4.863  15.624  91.388  1.00  0.00    -0.136 OA
HETATM   18  N   UNL     1       4.751  15.544  92.902  1.00  0.00     0.142 N 
HETATM   19  HN  UNL     1       5.645  15.944  92.845  1.00  0.00     0.338 HD
BRANCH  18  20
HETATM   20  S   UNL     1       4.073  14.910  93.937  1.00  0.00     0.076 SA
HETATM   21  H   UNL     1       3.451  13.940  93.648  1.00  0.00     0.136 HD
ENDBRANCH  18  20
ENDBRANCH  11  16
ENDBRANCH   9  11
ENDBRANCH   1   7
BRANCH   4  22
HETATM   22  C   UNL     1       8.332   8.093  90.821  1.00  0.00    -0.059 C 
HETATM   23  C   UNL     1       9.065   7.156  90.995  1.00  0.00    -0.059 C 
BRANCH  23  24
HETATM   24  C   UNL     1       9.937   6.040  91.200  1.00  0.00     0.042 A 
HETATM   25  C   UNL     1      10.061   5.478  92.470  1.00  0.00     0.008 A 
HETATM   26  C   UNL     1      10.912   4.392  92.671  1.00  0.00    -0.002 A 
HETATM   27  C   UNL     1      11.637   3.867  91.601  1.00  0.00     0.011 A 
HETATM   28  C   UNL     1      11.511   4.430  90.331  1.00  0.00    -0.002 A 
HETATM   29  C   UNL     1      10.660   5.517  90.131  1.00  0.00     0.008 A 
BRANCH  27  30
HETATM   30  C   UNL     1      12.545   2.704  91.816  1.00  0.00     0.277 C 
BRANCH  30  31
HETATM   31  N   UNL     1      13.539   2.959  92.858  1.00  0.00     0.147 N 
HETATM   32  C   UNL     1      14.412   1.792  93.040  1.00  0.00     0.283 C 
HETATM   33  C   UNL     1      15.447   2.085  94.124  1.00  0.00     0.178 C 
HETATM   34  O   UNL     1      16.219   3.236  93.776  1.00  0.00    -0.350 OA
HETATM   35  C   UNL     1      15.380   4.382  93.627  1.00  0.00     0.178 C 
HETATM   36  C   UNL     1      14.344   4.145  92.533  1.00  0.00     0.283 C 
ENDBRANCH  30  31
ENDBRANCH  27  30
ENDBRANCH  23  24
ENDBRANCH   4  22
TORSDOF 10
ENDMDL
MODEL 3
REMARK VINA RESULT:      -6.5      1.439      2.110
REMARK  10 active torsions:
REMARK  status: ('A' for Active; 'I' for Inactive)
REMARK    1  A    between atoms: O_2  and  C_16 
REMARK    2  A    between atoms: N_5  and  C_9 
REMARK    3  A    between atoms: N_6  and  C_13 
REMARK       I    between atoms: N_6  and  C_22 
REMARK    4  A    between atoms: C_9  and  C_12 
REMARK    5  A    between atoms: C_13  and  C_16 
REMARK    6  A    between atoms: C_13  and  C_21 
REMARK    7  A    between atoms: C_19  and  C_24 
REMARK    8  A    between atoms: C_22  and  C_23 
REMARK    9  A    between atoms: C_27  and  C_30 
REMARK   10  A    between atoms: N_33  and  S_34 
ROOT
HETATM    1  C   UNL     1       5.524  10.457  90.984  1.00  0.00     0.056 A 
HETATM    2  C   UNL     1       5.718   9.549  89.963  1.00  0.00     0.005 A 
HETATM    3  C   UNL     1       6.247  10.410  92.157  1.00  0.00     0.005 A 
HETATM    4  C   UNL     1       7.421   8.481  91.302  1.00  0.00     0.042 A 
HETATM    5  C   UNL     1       6.677   8.549  90.124  1.00  0.00     0.008 A 
HETATM    6  C   UNL     1       7.206   9.411  92.319  1.00  0.00     0.008 A 
ENDROOT
BRANCH   1   7
HETATM    7  C   UNL     1       4.504  11.523  90.811  1.00  0.00     0.254 C 
HETATM    8  O   UNL     1       3.494  11.287  90.153  1.00  0.00    -0.268 OA
HETATM    9  N   UNL     1       4.770  12.728  91.447  1.00  0.00    -0.337 N 
HETATM   10  HN  UNL     1       5.614  12.843  91.996  1.00  0.00     0.164 HD
BRANCH   9  11
HETATM   11  C   UNL     1       3.867  13.849  91.395  1.00  0.00     0.172 C 
BRANCH  11  12
HETATM   12  C   UNL     1       3.731  14.436  89.984  1.00  0.00     0.136 C 
HETATM   13  C   UNL     1       5.019  14.320  89.177  1.00  0.00     0.034 C 
BRANCH  12  14
HETATM   14  O   UNL     1       2.684  13.763  89.286  1.00  0.00    -0.383 OA
HETATM   15  H   UNL     1       2.071  14.432  88.937  1.00  0.00     0.210 HD
ENDBRANCH  12  14
ENDBRANCH  11  12
BRANCH  11  16
HETATM   16  C   UNL     1       2.518  13.386  91.935  1.00  0.00     0.398 A 
HETATM   17  O   UNL     1       1.548  14.134  92.045  1.00  0.00    -0.136 OA
HETATM   18  N   UNL     1       1.696  13.273  93.290  1.00  0.00     0.142 N 
HETATM   19  HN  UNL     1       0.884  13.760  93.548  1.00  0.00     0.338 HD
BRANCH  18  20
HETATM   20  S   UNL     1       2.607  12.518  94.020  1.00  0.00     0.076 SA
HETATM   21  H   UNL     1       3.059  11.561  93.478  1.00  0.00     0.136 HD
ENDBRANCH  18  20
ENDBRANCH  11  16
ENDBRANCH   9  11
ENDBRANCH   1   7
BRANCH   4  22
HETATM   22  C   UNL     1       8.402   7.454  91.468  1.00  0.00    -0.059 C 
HETATM   23  C   UNL     1       9.227   6.590  91.606  1.00  0.00    -0.059 C 
BRANCH  23  24
HETATM   24  C   UNL     1      10.210   5.563  91.772  1.00  0.00     0.042 A 
HETATM   25  C   UNL     1      10.750   4.930  90.653  1.00  0.00     0.008 A 
HETATM   26  C   UNL     1      11.706   3.928  90.814  1.00  0.00    -0.002 A 
HETATM   27  C   UNL     1      12.123   3.560  92.094  1.00  0.00     0.011 A 
HETATM   28  C   UNL     1      11.581   4.195  93.212  1.00  0.00    -0.002 A 
HETATM   29  C   UNL     1      10.625   5.197  93.050  1.00  0.00     0.008 A 
BRANCH  27  30
HETATM   30  C   UNL     1      13.146   2.490  92.265  1.00  0.00     0.277 C 
BRANCH  30  31
HETATM   31  N   UNL     1      14.213   2.881  93.184  1.00  0.00     0.147 N 
HETATM   32  C   UNL     1      15.303   1.896  93.165  1.00  0.00     0.283 C 
HETATM   33  C   UNL     1      16.409   2.331  94.124  1.00  0.00     0.178 C 
HETATM   34  O   UNL     1      16.898   3.625  93.765  1.00  0.00    -0.350 OA
HETATM   35  C   UNL     1      15.851   4.594  93.811  1.00  0.00     0.178 C 
HETATM   36  C   UNL     1      14.732   4.214  92.846  1.00  0.00     0.283 C 
ENDBRANCH  30  31
ENDBRANCH  27  30
ENDBRANCH  23  24
ENDBRANCH   4  22
TORSDOF 10
ENDMDL
MODEL 4
REMARK VINA RESULT:      -6.0      1.845      3.074
REMARK  10 active torsions:
REMARK  status: ('A' for Active; 'I' for Inactive)
REMARK    1  A    between atoms: O_2  and  C_16 
REMARK    2  A    between atoms: N_5  and  C_9 
REMARK    3  A    between atoms: N_6  and  C_13 
REMARK       I    between atoms: N_6  and  C_22 
REMARK    4  A    between atoms: C_9  and  C_12 
REMARK    5  A    between atoms: C_13  and  C_16 
REMARK    6  A    between atoms: C_13  and  C_21 
REMARK    7  A    between atoms: C_19  and  C_24 
REMARK    8  A    between atoms: C_22  and  C_23 
REMARK    9  A    between atoms: C_27  and  C_30 
REMARK   10  A    between atoms: N_33  and  S_34 
ROOT
HETATM    1  C   UNL     1       5.940  10.985  92.855  1.00  0.00     0.056 A 
HETATM    2  C   UNL     1       6.661  10.626  93.975  1.00  0.00     0.005 A 
HETATM    3  C   UNL     1       6.048  10.303  91.661  1.00  0.00     0.005 A 
HETATM    4  C   UNL     1       7.657   8.832  92.701  1.00  0.00     0.042 A 
HETATM    5  C   UNL     1       7.529   9.538  93.898  1.00  0.00     0.008 A 
HETATM    6  C   UNL     1       6.917   9.214  91.583  1.00  0.00     0.008 A 
ENDROOT
BRANCH   1   7
HETATM    7  C   UNL     1       5.014  12.143  92.938  1.00  0.00     0.254 C 
HETATM    8  O   UNL     1       4.888  12.735  94.007  1.00  0.00    -0.268 OA
HETATM    9  N   UNL     1       4.364  12.488  91.761  1.00  0.00    -0.337 N 
HETATM   10  HN  UNL     1       4.536  11.967  90.909  1.00  0.00     0.164 HD
BRANCH   9  11
HETATM   11  C   UNL     1       3.454  13.601  91.675  1.00  0.00     0.172 C 
BRANCH  11  12
HETATM   12  C   UNL     1       3.423  14.237  90.279  1.00  0.00     0.136 C 
HETATM   13  C   UNL     1       4.799  14.709  89.823  1.00  0.00     0.034 C 
BRANCH  12  14
HETATM   14  O   UNL     1       2.921  13.292  89.335  1.00  0.00    -0.383 OA
HETATM   15  H   UNL     1       3.267  13.524  88.457  1.00  0.00     0.210 HD
ENDBRANCH  12  14
ENDBRANCH  11  12
BRANCH  11  16
HETATM   16  C   UNL     1       2.072  13.106  92.089  1.00  0.00     0.398 A 
HETATM   17  O   UNL     1       1.533  13.430  93.146  1.00  0.00    -0.136 OA
HETATM   18  N   UNL     1       1.364  11.939  92.901  1.00  0.00     0.142 N 
HETATM   19  HN  UNL     1       0.862  12.004  93.742  1.00  0.00     0.338 HD
BRANCH  18  20
HETATM   20  S   UNL     1       1.895  10.856  92.210  1.00  0.00     0.076 SA
HETATM   21  H   UNL     1       1.227   9.875  92.165  1.00  0.00     0.136 HD
ENDBRANCH  18  20
ENDBRANCH  11  16
ENDBRANCH   9  11
ENDBRANCH   1   7
BRANCH   4  22
HETATM   22  C   UNL     1       8.549   7.718  92.622  1.00  0.00    -0.059 C 
HETATM   23  C   UNL     1       9.300   6.781  92.554  1.00  0.00    -0.059 C 
BRANCH  23  24
HETATM   24  C   UNL     1      10.194   5.666  92.473  1.00  0.00     0.042 A 
HETATM   25  C   UNL     1      10.796   5.172  93.630  1.00  0.00     0.008 A 
HETATM   26  C   UNL     1      11.669   4.088  93.551  1.00  0.00    -0.002 A 
HETATM   27  C   UNL     1      11.937   3.496  92.316  1.00  0.00     0.011 A 
HETATM   28  C   UNL     1      11.333   3.991  91.161  1.00  0.00    -0.002 A 
HETATM   29  C   UNL     1      10.461   5.077  91.239  1.00  0.00     0.008 A 
BRANCH  27  30
HETATM   30  C   UNL     1      12.869   2.335  92.234  1.00  0.00     0.277 C 
BRANCH  30  31
HETATM   31  N   UNL     1      14.251   2.707  92.532  1.00  0.00     0.147 N 
HETATM   32  C   UNL     1      14.409   4.168  92.522  1.00  0.00     0.283 C 
HETATM   33  C   UNL     1      15.856   4.533  92.846  1.00  0.00     0.178 C 
HETATM   34  O   UNL     1      16.231   3.999  94.117  1.00  0.00    -0.350 OA
HETATM   35  C   UNL     1      16.109   2.576  94.124  1.00  0.00     0.178 C 
HETATM   36  C   UNL     1      14.670   2.164  93.831  1.00  0.00     0.283 C 
ENDBRANCH  30  31
ENDBRANCH  27  30
ENDBRANCH  23  24
ENDBRANCH   4  22
TORSDOF 10
ENDMDL
MODEL 5
REMARK VINA RESULT:      -5.8      1.407      1.650
REMARK  10 active torsions:
REMARK  status: ('A' for Active; 'I' for Inactive)
REMARK    1  A    between atoms: O_2  and  C_16 
REMARK    2  A    between atoms: N_5  and  C_9 
REMARK    3  A    between atoms: N_6  and  C_13 
REMARK       I    between atoms: N_6  and  C_22 
REMARK    4  A    between atoms: C_9  and  C_12 
REMARK    5  A    between atoms: C_13  and  C_16 
REMARK    6  A    between atoms: C_13  and  C_21 
REMARK    7  A    between atoms: C_19  and  C_24 
REMARK    8  A    between atoms: C_22  and  C_23 
REMARK    9  A    between atoms: C_27  and  C_30 
REMARK   10  A    between atoms: N_33  and  S_34 
ROOT
HETATM    1  C   UNL     1       5.154   9.260  91.222  1.00  0.00     0.056 A 
HETATM    2  C   UNL     1       5.716   9.153  92.477  1.00  0.00     0.005 A 
HETATM    3  C   UNL     1       5.613   8.531  90.145  1.00  0.00     0.005 A 
HETATM    4  C   UNL     1       7.269   7.529  91.590  1.00  0.00     0.042 A 
HETATM    5  C   UNL     1       6.786   8.278  92.664  1.00  0.00     0.008 A 
HETATM    6  C   UNL     1       6.683   7.655  90.331  1.00  0.00     0.008 A 
ENDROOT
BRANCH   1   7
HETATM    7  C   UNL     1       4.013  10.192  91.024  1.00  0.00     0.254 C 
HETATM    8  O   UNL     1       2.874   9.738  90.956  1.00  0.00    -0.268 OA
HETATM    9  N   UNL     1       4.334  11.540  90.954  1.00  0.00    -0.337 N 
HETATM   10  HN  UNL     1       5.297  11.844  91.044  1.00  0.00     0.164 HD
BRANCH   9  11
HETATM   11  C   UNL     1       3.337  12.567  90.789  1.00  0.00     0.172 C 
BRANCH  11  12
HETATM   12  C   UNL     1       3.675  13.852  91.556  1.00  0.00     0.136 C 
HETATM   13  C   UNL     1       4.436  14.859  90.700  1.00  0.00     0.034 C 
BRANCH  12  14
HETATM   14  O   UNL     1       2.471  14.458  92.025  1.00  0.00    -0.383 OA
HETATM   15  H   UNL     1       2.708  15.249  92.538  1.00  0.00     0.210 HD
ENDBRANCH  12  14
ENDBRANCH  11  12
BRANCH  11  16
HETATM   16  C   UNL     1       3.188  12.836  89.295  1.00  0.00     0.398 A 
HETATM   17  O   UNL     1       2.619  12.061  88.529  1.00  0.00    -0.136 OA
HETATM   18  N   UNL     1       3.912  12.563  87.907  1.00  0.00     0.142 N 
HETATM   19  HN  UNL     1       3.603  12.004  87.163  1.00  0.00     0.338 HD
BRANCH  18  20
HETATM   20  S   UNL     1       5.150  13.120  88.209  1.00  0.00     0.076 SA
HETATM   21  H   UNL     1       5.140  14.120  88.851  1.00  0.00     0.136 HD
ENDBRANCH  18  20
ENDBRANCH  11  16
ENDBRANCH   9  11
ENDBRANCH   1   7
BRANCH   4  22
HETATM   22  C   UNL     1       8.367   6.634  91.781  1.00  0.00    -0.059 C 
HETATM   23  C   UNL     1       9.291   5.881  91.941  1.00  0.00    -0.059 C 
BRANCH  23  24
HETATM   24  C   UNL     1      10.391   4.986  92.131  1.00  0.00     0.042 A 
HETATM   25  C   UNL     1      10.929   4.302  91.041  1.00  0.00     0.008 A 
HETATM   26  C   UNL     1      11.999   3.428  91.226  1.00  0.00    -0.002 A 
HETATM   27  C   UNL     1      12.532   3.239  92.502  1.00  0.00     0.011 A 
HETATM   28  C   UNL     1      11.993   3.924  93.591  1.00  0.00    -0.002 A 
HETATM   29  C   UNL     1      10.922   4.797  93.405  1.00  0.00     0.008 A 
BRANCH  27  30
HETATM   30  C   UNL     1      13.678   2.306  92.699  1.00  0.00     0.277 C 
BRANCH  30  31
HETATM   31  N   UNL     1      14.751   2.901  93.495  1.00  0.00     0.147 N 
HETATM   32  C   UNL     1      16.014   2.179  93.288  1.00  0.00     0.283 C 
HETATM   33  C   UNL     1      17.120   2.824  94.120  1.00  0.00     0.178 C 
HETATM   34  O   UNL     1      17.268   4.201  93.767  1.00  0.00    -0.350 OA
HETATM   35  C   UNL     1      16.053   4.916  93.994  1.00  0.00     0.178 C 
HETATM   36  C   UNL     1      14.922   4.322  93.161  1.00  0.00     0.283 C 
ENDBRANCH  30  31
ENDBRANCH  27  30
ENDBRANCH  23  24
ENDBRANCH   4  22
TORSDOF 10
ENDMDL
MODEL 6
REMARK VINA RESULT:      -5.6      2.364      3.159
REMARK  10 active torsions:
REMARK  status: ('A' for Active; 'I' for Inactive)
REMARK    1  A    between atoms: O_2  and  C_16 
REMARK    2  A    between atoms: N_5  and  C_9 
REMARK    3  A    between atoms: N_6  and  C_13 
REMARK       I    between atoms: N_6  and  C_22 
REMARK    4  A    between atoms: C_9  and  C_12 
REMARK    5  A    between atoms: C_13  and  C_16 
REMARK    6  A    between atoms: C_13  and  C_21 
REMARK    7  A    between atoms: C_19  and  C_24 
REMARK    8  A    between atoms: C_22  and  C_23 
REMARK    9  A    between atoms: C_27  and  C_30 
REMARK   10  A    between atoms: N_33  and  S_34 
ROOT
HETATM    1  C   UNL     1       6.180   7.718  88.381  1.00  0.00     0.056 A 
HETATM    2  C   UNL     1       7.497   8.088  88.198  1.00  0.00     0.005 A 
HETATM    3  C   UNL     1       5.816   6.680  89.212  1.00  0.00     0.005 A 
HETATM    4  C   UNL     1       8.151   6.332  89.723  1.00  0.00     0.042 A 
HETATM    5  C   UNL     1       8.494   7.387  88.876  1.00  0.00     0.008 A 
HETATM    6  C   UNL     1       6.812   5.978  89.890  1.00  0.00     0.008 A 
ENDROOT
BRANCH   1   7
HETATM    7  C   UNL     1       5.118   8.467  87.660  1.00  0.00     0.254 C 
HETATM    8  O   UNL     1       5.041   8.370  86.437  1.00  0.00    -0.268 OA
HETATM    9  N   UNL     1       4.260   9.218  88.450  1.00  0.00    -0.337 N 
HETATM   10  HN  UNL     1       4.369   9.230  89.458  1.00  0.00     0.164 HD
BRANCH   9  11
HETATM   11  C   UNL     1       3.166   9.978  87.902  1.00  0.00     0.172 C 
BRANCH  11  12
HETATM   12  C   UNL     1       1.802   9.323  88.153  1.00  0.00     0.136 C 
HETATM   13  C   UNL     1       1.600   8.060  87.323  1.00  0.00     0.034 C 
BRANCH  12  14
HETATM   14  O   UNL     1       1.678   8.993  89.536  1.00  0.00    -0.383 OA
HETATM   15  H   UNL     1       2.495   8.548  89.817  1.00  0.00     0.210 HD
ENDBRANCH  12  14
ENDBRANCH  11  12
BRANCH  11  16
HETATM   16  C   UNL     1       3.226  11.380  88.501  1.00  0.00     0.398 A 
HETATM   17  O   UNL     1       3.962  12.263  88.065  1.00  0.00    -0.136 OA
HETATM   18  N   UNL     1       4.015  12.233  89.584  1.00  0.00     0.142 N 
HETATM   19  HN  UNL     1       4.620  12.991  89.434  1.00  0.00     0.338 HD
BRANCH  18  20
HETATM   20  S   UNL     1       3.785  11.424  90.690  1.00  0.00     0.076 SA
HETATM   21  H   UNL     1       4.225  11.803  91.727  1.00  0.00     0.136 HD
ENDBRANCH  18  20
ENDBRANCH  11  16
ENDBRANCH   9  11
ENDBRANCH   1   7
BRANCH   4  22
HETATM   22  C   UNL     1       9.173   5.612  90.416  1.00  0.00    -0.059 C 
HETATM   23  C   UNL     1      10.032   5.005  90.998  1.00  0.00    -0.059 C 
BRANCH  23  24
HETATM   24  C   UNL     1      11.056   4.284  91.691  1.00  0.00     0.042 A 
HETATM   25  C   UNL     1      12.017   3.575  90.971  1.00  0.00     0.008 A 
HETATM   26  C   UNL     1      13.013   2.870  91.646  1.00  0.00    -0.002 A 
HETATM   27  C   UNL     1      13.049   2.877  93.041  1.00  0.00     0.011 A 
HETATM   28  C   UNL     1      12.087   3.587  93.759  1.00  0.00    -0.002 A 
HETATM   29  C   UNL     1      11.091   4.291  93.084  1.00  0.00     0.008 A 
BRANCH  27  30
HETATM   30  C   UNL     1      14.116   2.125  93.761  1.00  0.00     0.277 C 
BRANCH  30  31
HETATM   31  N   UNL     1      15.269   2.965  94.083  1.00  0.00     0.147 N 
HETATM   32  C   UNL     1      16.456   2.527  93.336  1.00  0.00     0.283 C 
HETATM   33  C   UNL     1      17.643   3.424  93.679  1.00  0.00     0.178 C 
HETATM   34  O   UNL     1      17.339   4.787  93.378  1.00  0.00    -0.350 OA
HETATM   35  C   UNL     1      16.204   5.230  94.123  1.00  0.00     0.178 C 
HETATM   36  C   UNL     1      14.984   4.377  93.792  1.00  0.00     0.283 C 
ENDBRANCH  30  31
ENDBRANCH  27  30
ENDBRANCH  23  24
ENDBRANCH   4  22
TORSDOF 10
ENDMDL
MODEL 7
REMARK VINA RESULT:      -5.5      2.610      3.243
REMARK  10 active torsions:
REMARK  status: ('A' for Active; 'I' for Inactive)
REMARK    1  A    between atoms: O_2  and  C_16 
REMARK    2  A    between atoms: N_5  and  C_9 
REMARK    3  A    between atoms: N_6  and  C_13 
REMARK       I    between atoms: N_6  and  C_22 
REMARK    4  A    between atoms: C_9  and  C_12 
REMARK    5  A    between atoms: C_13  and  C_16 
REMARK    6  A    between atoms: C_13  and  C_21 
REMARK    7  A    between atoms: C_19  and  C_24 
REMARK    8  A    between atoms: C_22  and  C_23 
REMARK    9  A    between atoms: C_27  and  C_30 
REMARK   10  A    between atoms: N_33  and  S_34 
ROOT
HETATM    1  C   UNL     1       6.093   8.325  89.160  1.00  0.00     0.056 A 
HETATM    2  C   UNL     1       5.878   6.972  89.321  1.00  0.00     0.005 A 
HETATM    3  C   UNL     1       7.288   8.925  89.499  1.00  0.00     0.005 A 
HETATM    4  C   UNL     1       8.120   6.767  90.194  1.00  0.00     0.042 A 
HETATM    5  C   UNL     1       6.903   6.184  89.844  1.00  0.00     0.008 A 
HETATM    6  C   UNL     1       8.313   8.138  90.022  1.00  0.00     0.008 A 
ENDROOT
BRANCH   1   7
HETATM    7  C   UNL     1       5.002   9.164  88.601  1.00  0.00     0.254 C 
HETATM    8  O   UNL     1       4.789   9.143  87.391  1.00  0.00    -0.268 OA
HETATM    9  N   UNL     1       4.274   9.906  89.520  1.00  0.00    -0.337 N 
HETATM   10  HN  UNL     1       4.491   9.854  90.508  1.00  0.00     0.164 HD
BRANCH   9  11
HETATM   11  C   UNL     1       3.170  10.749  89.136  1.00  0.00     0.172 C 
BRANCH  11  12
HETATM   12  C   UNL     1       3.609  12.172  88.769  1.00  0.00     0.136 C 
HETATM   13  C   UNL     1       4.695  12.706  89.696  1.00  0.00     0.034 C 
BRANCH  12  14
HETATM   14  O   UNL     1       4.096  12.190  87.427  1.00  0.00    -0.383 OA
HETATM   15  H   UNL     1       5.053  12.358  87.452  1.00  0.00     0.210 HD
ENDBRANCH  12  14
ENDBRANCH  11  12
BRANCH  11  16
HETATM   16  C   UNL     1       2.451  10.073  87.973  1.00  0.00     0.398 A 
HETATM   17  O   UNL     1       1.518  10.598  87.367  1.00  0.00    -0.136 OA
HETATM   18  N   UNL     1       1.205   9.139  87.659  1.00  0.00     0.142 N 
HETATM   19  HN  UNL     1       0.387   9.366  87.166  1.00  0.00     0.338 HD
BRANCH  18  20
HETATM   20  S   UNL     1       1.531   8.075  88.493  1.00  0.00     0.076 SA
HETATM   21  H   UNL     1       2.689   7.871  88.664  1.00  0.00     0.136 HD
ENDBRANCH  18  20
ENDBRANCH  11  16
ENDBRANCH   9  11
ENDBRANCH   1   7
BRANCH   4  22
HETATM   22  C   UNL     1       9.170   5.960  90.734  1.00  0.00    -0.059 C 
HETATM   23  C   UNL     1      10.052   5.280  91.187  1.00  0.00    -0.059 C 
BRANCH  23  24
HETATM   24  C   UNL     1      11.103   4.472  91.725  1.00  0.00     0.042 A 
HETATM   25  C   UNL     1      10.964   3.903  92.991  1.00  0.00     0.008 A 
HETATM   26  C   UNL     1      11.989   3.117  93.517  1.00  0.00    -0.002 A 
HETATM   27  C   UNL     1      13.151   2.898  92.776  1.00  0.00     0.011 A 
HETATM   28  C   UNL     1      13.287   3.467  91.510  1.00  0.00    -0.002 A 
HETATM   29  C   UNL     1      12.263   4.254  90.985  1.00  0.00     0.008 A 
BRANCH  27  30
HETATM   30  C   UNL     1      14.245   2.056  93.338  1.00  0.00     0.277 C 
BRANCH  30  31
HETATM   31  N   UNL     1      15.351   2.855  93.861  1.00  0.00     0.147 N 
HETATM   32  C   UNL     1      16.630   2.411  93.289  1.00  0.00     0.283 C 
HETATM   33  C   UNL     1      17.768   3.267  93.840  1.00  0.00     0.178 C 
HETATM   34  O   UNL     1      17.541   4.646  93.544  1.00  0.00    -0.350 OA
HETATM   35  C   UNL     1      16.314   5.094  94.123  1.00  0.00     0.178 C 
HETATM   36  C   UNL     1      15.142   4.283  93.580  1.00  0.00     0.283 C 
ENDBRANCH  30  31
ENDBRANCH  27  30
ENDBRANCH  23  24
ENDBRANCH   4  22
TORSDOF 10
ENDMDL
MODEL 8
REMARK VINA RESULT:      -5.4      3.720     12.401
REMARK  10 active torsions:
REMARK  status: ('A' for Active; 'I' for Inactive)
REMARK    1  A    between atoms: O_2  and  C_16 
REMARK    2  A    between atoms: N_5  and  C_9 
REMARK    3  A    between atoms: N_6  and  C_13 
REMARK       I    between atoms: N_6  and  C_22 
REMARK    4  A    between atoms: C_9  and  C_12 
REMARK    5  A    between atoms: C_13  and  C_16 
REMARK    6  A    between atoms: C_13  and  C_21 
REMARK    7  A    between atoms: C_19  and  C_24 
REMARK    8  A    between atoms: C_22  and  C_23 
REMARK    9  A    between atoms: C_27  and  C_30 
REMARK   10  A    between atoms: N_33  and  S_34 
ROOT
HETATM    1  C   UNL     1      10.078   5.785  89.785  1.00  0.00     0.056 A 
HETATM    2  C   UNL     1       9.612   6.229  91.005  1.00  0.00     0.005 A 
HETATM    3  C   UNL     1       9.659   6.336  88.592  1.00  0.00     0.005 A 
HETATM    4  C   UNL     1       8.242   7.842  89.841  1.00  0.00     0.042 A 
HETATM    5  C   UNL     1       8.683   7.269  91.034  1.00  0.00     0.008 A 
HETATM    6  C   UNL     1       8.730   7.376  88.620  1.00  0.00     0.008 A 
ENDROOT
BRANCH   1   7
HETATM    7  C   UNL     1      11.070   4.679  89.755  1.00  0.00     0.254 C 
HETATM    8  O   UNL     1      11.234   4.049  88.713  1.00  0.00    -0.268 OA
HETATM    9  N   UNL     1      11.767   4.455  90.934  1.00  0.00    -0.337 N 
HETATM   10  HN  UNL     1      11.596   5.032  91.748  1.00  0.00     0.164 HD
BRANCH   9  11
HETATM   11  C   UNL     1      12.777   3.435  91.055  1.00  0.00     0.172 C 
BRANCH  11  12
HETATM   12  C   UNL     1      14.197   4.011  91.131  1.00  0.00     0.136 C 
HETATM   13  C   UNL     1      15.251   3.035  90.621  1.00  0.00     0.034 C 
BRANCH  12  14
HETATM   14  O   UNL     1      14.266   5.211  90.361  1.00  0.00    -0.383 OA
HETATM   15  H   UNL     1      13.368   5.436  90.065  1.00  0.00     0.210 HD
ENDBRANCH  12  14
ENDBRANCH  11  12
BRANCH  11  16
HETATM   16  C   UNL     1      12.451   2.601  92.290  1.00  0.00     0.398 A 
HETATM   17  O   UNL     1      11.342   2.594  92.819  1.00  0.00    -0.136 OA
HETATM   18  N   UNL     1      12.431   2.688  93.876  1.00  0.00     0.142 N 
HETATM   19  HN  UNL     1      11.653   2.667  94.473  1.00  0.00     0.338 HD
BRANCH  18  20
HETATM   20  S   UNL     1      13.757   3.051  94.078  1.00  0.00     0.076 SA
HETATM   21  H   UNL     1      13.996   4.215  94.075  1.00  0.00     0.136 HD
ENDBRANCH  18  20
ENDBRANCH  11  16
ENDBRANCH   9  11
ENDBRANCH   1   7
BRANCH   4  22
HETATM   22  C   UNL     1       7.288   8.906  89.870  1.00  0.00    -0.059 C 
HETATM   23  C   UNL     1       6.486   9.802  89.895  1.00  0.00    -0.059 C 
BRANCH  23  24
HETATM   24  C   UNL     1       5.532  10.867  89.924  1.00  0.00     0.042 A 
HETATM   25  C   UNL     1       5.823  12.080  89.301  1.00  0.00     0.008 A 
HETATM   26  C   UNL     1       4.894  13.120  89.331  1.00  0.00    -0.002 A 
HETATM   27  C   UNL     1       3.672  12.945  89.983  1.00  0.00     0.011 A 
HETATM   28  C   UNL     1       3.382  11.731  90.606  1.00  0.00    -0.002 A 
HETATM   29  C   UNL     1       4.312  10.692  90.576  1.00  0.00     0.008 A 
BRANCH  27  30
HETATM   30  C   UNL     1       2.679  14.056  90.013  1.00  0.00     0.277 C 
BRANCH  30  31
HETATM   31  N   UNL     1       2.648  14.742  91.303  1.00  0.00     0.147 N 
HETATM   32  C   UNL     1       1.716  14.076  92.224  1.00  0.00     0.283 C 
HETATM   33  C   UNL     1       1.709  14.802  93.567  1.00  0.00     0.178 C 
HETATM   34  O   UNL     1       3.025  14.830  94.123  1.00  0.00    -0.350 OA
HETATM   35  C   UNL     1       3.931  15.503  93.248  1.00  0.00     0.178 C 
HETATM   36  C   UNL     1       3.991  14.796  91.898  1.00  0.00     0.283 C 
ENDBRANCH  30  31
ENDBRANCH  27  30
ENDBRANCH  23  24
ENDBRANCH   4  22
TORSDOF 10
ENDMDL
MODEL 9
REMARK VINA RESULT:      -5.2      3.752     12.506
REMARK  10 active torsions:
REMARK  status: ('A' for Active; 'I' for Inactive)
REMARK    1  A    between atoms: O_2  and  C_16 
REMARK    2  A    between atoms: N_5  and  C_9 
REMARK    3  A    between atoms: N_6  and  C_13 
REMARK       I    between atoms: N_6  and  C_22 
REMARK    4  A    between atoms: C_9  and  C_12 
REMARK    5  A    between atoms: C_13  and  C_16 
REMARK    6  A    between atoms: C_13  and  C_21 
REMARK    7  A    between atoms: C_19  and  C_24 
REMARK    8  A    between atoms: C_22  and  C_23 
REMARK    9  A    between atoms: C_27  and  C_30 
REMARK   10  A    between atoms: N_33  and  S_34 
ROOT
HETATM    1  C   UNL     1       9.950   5.095  90.638  1.00  0.00     0.056 A 
HETATM    2  C   UNL     1      10.045   5.932  89.546  1.00  0.00     0.005 A 
HETATM    3  C   UNL     1       9.012   5.284  91.631  1.00  0.00     0.005 A 
HETATM    4  C   UNL     1       8.205   7.220  90.433  1.00  0.00     0.042 A 
HETATM    5  C   UNL     1       9.163   7.007  89.442  1.00  0.00     0.008 A 
HETATM    6  C   UNL     1       8.129   6.359  91.528  1.00  0.00     0.008 A 
ENDROOT
BRANCH   1   7
HETATM    7  C   UNL     1      10.889   3.948  90.748  1.00  0.00     0.254 C 
HETATM    8  O   UNL     1      10.651   2.917  90.124  1.00  0.00    -0.268 OA
HETATM    9  N   UNL     1      12.003   4.149  91.550  1.00  0.00    -0.337 N 
HETATM   10  HN  UNL     1      12.146   5.038  92.015  1.00  0.00     0.164 HD
BRANCH   9  11
HETATM   11  C   UNL     1      13.016   3.142  91.737  1.00  0.00     0.172 C 
BRANCH  11  12
HETATM   12  C   UNL     1      14.187   3.289  90.757  1.00  0.00     0.136 C 
HETATM   13  C   UNL     1      14.475   4.744  90.406  1.00  0.00     0.034 C 
BRANCH  12  14
HETATM   14  O   UNL     1      15.361   2.708  91.325  1.00  0.00    -0.383 OA
HETATM   15  H   UNL     1      15.514   3.118  92.193  1.00  0.00     0.210 HD
ENDBRANCH  12  14
ENDBRANCH  11  12
BRANCH  11  16
HETATM   16  C   UNL     1      13.491   3.221  93.184  1.00  0.00     0.398 A 
HETATM   17  O   UNL     1      14.223   4.117  93.601  1.00  0.00    -0.136 OA
HETATM   18  N   UNL     1      14.689   2.768  94.123  1.00  0.00     0.142 N 
HETATM   19  HN  UNL     1      15.354   3.333  94.571  1.00  0.00     0.338 HD
BRANCH  18  20
HETATM   20  S   UNL     1      14.633   1.400  93.882  1.00  0.00     0.076 SA
HETATM   21  H   UNL     1      14.345   0.709  94.805  1.00  0.00     0.136 HD
ENDBRANCH  18  20
ENDBRANCH  11  16
ENDBRANCH   9  11
ENDBRANCH   1   7
BRANCH   4  22
HETATM   22  C   UNL     1       7.302   8.324  90.328  1.00  0.00    -0.059 C 
HETATM   23  C   UNL     1       6.543   9.253  90.241  1.00  0.00    -0.059 C 
BRANCH  23  24
HETATM   24  C   UNL     1       5.641  10.358  90.136  1.00  0.00     0.042 A 
HETATM   25  C   UNL     1       4.352  10.256  90.659  1.00  0.00     0.008 A 
HETATM   26  C   UNL     1       3.471  11.333  90.555  1.00  0.00    -0.002 A 
HETATM   27  C   UNL     1       3.881  12.511  89.930  1.00  0.00     0.011 A 
HETATM   28  C   UNL     1       5.171  12.611  89.408  1.00  0.00    -0.002 A 
HETATM   29  C   UNL     1       6.051  11.534  89.512  1.00  0.00     0.008 A 
BRANCH  27  30
HETATM   30  C   UNL     1       2.940  13.662  89.822  1.00  0.00     0.277 C 
BRANCH  30  31
HETATM   31  N   UNL     1       2.923  14.483  91.031  1.00  0.00     0.147 N 
HETATM   32  C   UNL     1       1.961  13.952  92.008  1.00  0.00     0.283 C 
HETATM   33  C   UNL     1       1.969  14.818  93.265  1.00  0.00     0.178 C 
HETATM   34  O   UNL     1       3.281  14.863  93.829  1.00  0.00    -0.350 OA
HETATM   35  C   UNL     1       4.216  15.407  92.897  1.00  0.00     0.178 C 
HETATM   36  C   UNL     1       4.262  14.557  91.632  1.00  0.00     0.283 C 
ENDBRANCH  30  31
ENDBRANCH  27  30
ENDBRANCH  23  24
ENDBRANCH   4  22
TORSDOF 10
ENDMDL
