MODEL 1
REMARK VINA RESULT:      -7.1      0.000      0.000
REMARK  9 active torsions:
REMARK  status: ('A' for Active; 'I' for Inactive)
REMARK    1  A    between atoms: O_2  and  C_17 
REMARK    2  A    between atoms: N_5  and  C_10 
REMARK    3  A    between atoms: N_6  and  C_14 
REMARK       I    between atoms: N_6  and  C_23 
REMARK       I    between atoms: N_7  and  C_22 
REMARK    4  A    between atoms: C_10  and  C_13 
REMARK    5  A    between atoms: C_14  and  C_17 
REMARK    6  A    between atoms: C_14  and  C_22 
REMARK    7  A    between atoms: C_20  and  C_25 
REMARK    8  A    between atoms: C_23  and  C_24 
REMARK    9  A    between atoms: C_28  and  C_31 
ROOT
HETATM    1  O   UNL     1      16.133   3.960  94.117  1.00  0.00    -0.388 OA
HETATM    2  N   UNL     1      14.209   2.579  92.539  1.00  0.00     0.096 N 
HETATM    3  C   UNL     1      14.262   4.047  92.574  1.00  0.00     0.299 C 
HETATM    4  C   UNL     1      14.701   2.027  93.808  1.00  0.00     0.299 C 
HETATM    5  C   UNL     1      15.686   4.506  92.874  1.00  0.00     0.198 C 
HETATM    6  C   UNL     1      16.114   2.533  94.080  1.00  0.00     0.198 C 
ENDROOT
BRANCH   2   7
HETATM    7  C   UNL     1      12.850   2.116  92.263  1.00  0.00     0.311 C 
BRANCH   7   8
HETATM    8  C   UNL     1      11.927   3.237  91.923  1.00  0.00    -0.030 A 
HETATM    9  C   UNL     1      11.648   3.528  90.587  1.00  0.00     0.010 A 
HETATM   10  C   UNL     1      10.786   4.578  90.268  1.00  0.00     0.021 A 
HETATM   11  C   UNL     1      10.202   5.333  91.284  1.00  0.00     0.018 A 
HETATM   12  C   UNL     1      10.479   5.042  92.619  1.00  0.00     0.021 A 
HETATM   13  C   UNL     1      11.342   3.993  92.938  1.00  0.00     0.010 A 
BRANCH  11  14
HETATM   14  C   UNL     1       9.316   6.408  90.957  1.00  0.00    -0.061 C 
HETATM   15  C   UNL     1       8.572   7.311  90.682  1.00  0.00    -0.061 C 
BRANCH  15  16
HETATM   16  C   UNL     1       7.687   8.386  90.355  1.00  0.00     0.018 A 
HETATM   17  C   UNL     1       6.311   8.163  90.302  1.00  0.00     0.022 A 
HETATM   18  C   UNL     1       5.448   9.212  89.985  1.00  0.00     0.018 A 
HETATM   19  C   UNL     1       5.980  10.459  89.731  1.00  0.00     0.032 A 
HETATM   20  C   UNL     1       7.336  10.704  89.777  1.00  0.00     0.018 A 
HETATM   21  C   UNL     1       8.200   9.656  90.093  1.00  0.00     0.022 A 
BRANCH  19  22
HETATM   22  C   UNL     1       5.060  11.576  89.392  1.00  0.00     0.252 C 
HETATM   23  O   UNL     1       4.513  11.590  88.292  1.00  0.00    -0.268 OA
HETATM   24  N   UNL     1       4.869  12.528  90.383  1.00  0.00    -0.342 N 
HETATM   25  H   UNL     1       5.336  12.438  91.278  1.00  0.00     0.163 HD
BRANCH  24  26
HETATM   26  C   UNL     1       3.990  13.657  90.215  1.00  0.00     0.199 C 
BRANCH  26  27
HETATM   27  C   UNL     1       3.186  13.977  91.482  1.00  0.00     0.145 C 
HETATM   28  C   UNL     1       1.804  13.332  91.475  1.00  0.00     0.042 C 
BRANCH  27  29
HETATM   29  O   UNL     1       3.903  13.524  92.629  1.00  0.00    -0.393 OA
HETATM   30  H   UNL     1       3.326  13.618  93.406  1.00  0.00     0.210 HD
ENDBRANCH  27  29
ENDBRANCH  26  27
BRANCH  26  31
HETATM   31  C   UNL     1       4.838  14.848  89.781  1.00  0.00     0.220 C 
HETATM   32  O   UNL     1       5.144  15.061  88.609  1.00  0.00    -0.278 OA
HETATM   33  N   UNL     1       5.240  15.615  90.847  1.00  0.00    -0.271 NA
HETATM   34  H   UNL     1       5.082  15.420  91.829  1.00  0.00     0.127 HD
HETATM   35  H   UNL     1       6.525  15.730  91.402  1.00  0.00     0.127 HD
ENDBRANCH  26  31
ENDBRANCH  24  26
ENDBRANCH  19  22
ENDBRANCH  15  16
ENDBRANCH  11  14
ENDBRANCH   7   8
ENDBRANCH   2   7
TORSDOF 9
ENDMDL
MODEL 2
REMARK VINA RESULT:      -6.6      1.856      2.679
REMARK  9 active torsions:
REMARK  status: ('A' for Active; 'I' for Inactive)
REMARK    1  A    between atoms: O_2  and  C_17 
REMARK    2  A    between atoms: N_5  and  C_10 
REMARK    3  A    between atoms: N_6  and  C_14 
REMARK       I    between atoms: N_6  and  C_23 
REMARK       I    between atoms: N_7  and  C_22 
REMARK    4  A    between atoms: C_10  and  C_13 
REMARK    5  A    between atoms: C_14  and  C_17 
REMARK    6  A    between atoms: C_14  and  C_22 
REMARK    7  A    between atoms: C_20  and  C_25 
REMARK    8  A    between atoms: C_23  and  C_24 
REMARK    9  A    between atoms: C_28  and  C_31 
ROOT
HETATM    1  O   UNL     1      15.924   3.787  94.066  1.00  0.00    -0.388 OA
HETATM    2  N   UNL     1      13.979   2.564  92.386  1.00  0.00     0.096 N 
HETATM    3  C   UNL     1      14.192   4.018  92.381  1.00  0.00     0.299 C 
HETATM    4  C   UNL     1      14.312   2.010  93.705  1.00  0.00     0.299 C 
HETATM    5  C   UNL     1      15.634   4.330  92.777  1.00  0.00     0.198 C 
HETATM    6  C   UNL     1      15.749   2.369  94.070  1.00  0.00     0.198 C 
ENDROOT
BRANCH   2   7
HETATM    7  C   UNL     1      12.600   2.242  92.020  1.00  0.00     0.311 C 
BRANCH   7   8
HETATM    8  C   UNL     1      11.698   3.426  92.109  1.00  0.00    -0.030 A 
HETATM    9  C   UNL     1      11.452   4.022  93.346  1.00  0.00     0.010 A 
HETATM   10  C   UNL     1      10.606   5.128  93.431  1.00  0.00     0.021 A 
HETATM   11  C   UNL     1      10.009   5.638  92.279  1.00  0.00     0.018 A 
HETATM   12  C   UNL     1      10.255   5.043  91.043  1.00  0.00     0.021 A 
HETATM   13  C   UNL     1      11.100   3.937  90.958  1.00  0.00     0.010 A 
BRANCH  11  14
HETATM   14  C   UNL     1       9.143   6.773  92.366  1.00  0.00    -0.061 C 
HETATM   15  C   UNL     1       8.416   7.728  92.439  1.00  0.00    -0.061 C 
BRANCH  15  16
HETATM   16  C   UNL     1       7.551   8.864  92.525  1.00  0.00     0.018 A 
HETATM   17  C   UNL     1       6.804   9.255  91.415  1.00  0.00     0.022 A 
HETATM   18  C   UNL     1       5.958  10.361  91.500  1.00  0.00     0.018 A 
HETATM   19  C   UNL     1       5.878  11.049  92.692  1.00  0.00     0.032 A 
HETATM   20  C   UNL     1       6.607  10.682  93.804  1.00  0.00     0.018 A 
HETATM   21  C   UNL     1       7.453   9.577  93.720  1.00  0.00     0.022 A 
BRANCH  19  22
HETATM   22  C   UNL     1       4.979  12.229  92.782  1.00  0.00     0.252 C 
HETATM   23  O   UNL     1       4.778  12.748  93.877  1.00  0.00    -0.268 OA
HETATM   24  N   UNL     1       4.442  12.676  91.583  1.00  0.00    -0.342 N 
HETATM   25  H   UNL     1       4.673  12.212  90.712  1.00  0.00     0.163 HD
BRANCH  24  26
HETATM   26  C   UNL     1       3.572  13.822  91.502  1.00  0.00     0.199 C 
BRANCH  26  27
HETATM   27  C   UNL     1       3.572  14.471  90.113  1.00  0.00     0.145 C 
HETATM   28  C   UNL     1       4.973  14.581  89.520  1.00  0.00     0.042 C 
BRANCH  27  29
HETATM   29  O   UNL     1       2.754  13.707  89.228  1.00  0.00    -0.393 OA
HETATM   30  H   UNL     1       3.209  13.642  88.372  1.00  0.00     0.210 HD
ENDBRANCH  27  29
ENDBRANCH  26  27
BRANCH  26  31
HETATM   31  C   UNL     1       2.171  13.372  91.903  1.00  0.00     0.220 C 
HETATM   32  O   UNL     1       1.645  12.349  91.468  1.00  0.00    -0.278 OA
HETATM   33  N   UNL     1       1.568  14.257  92.765  1.00  0.00    -0.271 NA
HETATM   34  H   UNL     1       1.935  15.150  93.073  1.00  0.00     0.127 HD
HETATM   35  H   UNL     1       0.508  15.140  92.507  1.00  0.00     0.127 HD
ENDBRANCH  26  31
ENDBRANCH  24  26
ENDBRANCH  19  22
ENDBRANCH  15  16
ENDBRANCH  11  14
ENDBRANCH   7   8
ENDBRANCH   2   7
TORSDOF 9
ENDMDL
MODEL 3
REMARK VINA RESULT:      -6.3      1.124      1.478
REMARK  9 active torsions:
REMARK  status: ('A' for Active; 'I' for Inactive)
REMARK    1  A    between atoms: O_2  and  C_17 
REMARK    2  A    between atoms: N_5  and  C_10 
REMARK    3  A    between atoms: N_6  and  C_14 
REMARK       I    between atoms: N_6  and  C_23 
REMARK       I    between atoms: N_7  and  C_22 
REMARK    4  A    between atoms: C_10  and  C_13 
REMARK    5  A    between atoms: C_14  and  C_17 
REMARK    6  A    between atoms: C_14  and  C_22 
REMARK    7  A    between atoms: C_20  and  C_25 
REMARK    8  A    between atoms: C_23  and  C_24 
REMARK    9  A    between atoms: C_28  and  C_31 
ROOT
HETATM    1  O   UNL     1      16.949   3.507  94.124  1.00  0.00    -0.388 OA
HETATM    2  N   UNL     1      14.623   3.101  92.535  1.00  0.00     0.096 N 
HETATM    3  C   UNL     1      14.577   3.884  93.777  1.00  0.00     0.299 C 
HETATM    4  C   UNL     1      15.684   2.087  92.618  1.00  0.00     0.299 C 
HETATM    5  C   UNL     1      15.941   4.517  94.040  1.00  0.00     0.198 C 
HETATM    6  C   UNL     1      17.021   2.761  92.909  1.00  0.00     0.198 C 
ENDROOT
BRANCH   2   7
HETATM    7  C   UNL     1      13.328   2.477  92.268  1.00  0.00     0.311 C 
BRANCH   7   8
HETATM    8  C   UNL     1      12.265   3.479  91.971  1.00  0.00    -0.030 A 
HETATM    9  C   UNL     1      11.514   4.027  93.011  1.00  0.00     0.010 A 
HETATM   10  C   UNL     1      10.518   4.963  92.734  1.00  0.00     0.021 A 
HETATM   11  C   UNL     1      10.275   5.352  91.417  1.00  0.00     0.018 A 
HETATM   12  C   UNL     1      11.025   4.805  90.378  1.00  0.00     0.021 A 
HETATM   13  C   UNL     1      12.020   3.869  90.654  1.00  0.00     0.010 A 
BRANCH  11  14
HETATM   14  C   UNL     1       9.254   6.314  91.134  1.00  0.00    -0.061 C 
HETATM   15  C   UNL     1       8.397   7.122  90.896  1.00  0.00    -0.061 C 
BRANCH  15  16
HETATM   16  C   UNL     1       7.378   8.084  90.613  1.00  0.00     0.018 A 
HETATM   17  C   UNL     1       6.911   8.923  91.625  1.00  0.00     0.022 A 
HETATM   18  C   UNL     1       5.919   9.863  91.348  1.00  0.00     0.018 A 
HETATM   19  C   UNL     1       5.416   9.944  90.066  1.00  0.00     0.032 A 
HETATM   20  C   UNL     1       5.860   9.125  89.049  1.00  0.00     0.018 A 
HETATM   21  C   UNL     1       6.852   8.185  89.325  1.00  0.00     0.022 A 
BRANCH  19  22
HETATM   22  C   UNL     1       4.357  10.944  89.772  1.00  0.00     0.252 C 
HETATM   23  O   UNL     1       3.309  10.572  89.250  1.00  0.00    -0.268 OA
HETATM   24  N   UNL     1       4.636  12.252  90.144  1.00  0.00    -0.342 N 
HETATM   25  H   UNL     1       5.515  12.480  90.595  1.00  0.00     0.163 HD
BRANCH  24  26
HETATM   26  C   UNL     1       3.701  13.330  89.948  1.00  0.00     0.199 C 
BRANCH  26  27
HETATM   27  C   UNL     1       3.064  13.810  91.258  1.00  0.00     0.145 C 
HETATM   28  C   UNL     1       2.100  12.786  91.848  1.00  0.00     0.042 C 
BRANCH  27  29
HETATM   29  O   UNL     1       4.088  14.086  92.213  1.00  0.00    -0.393 OA
HETATM   30  H   UNL     1       4.204  15.050  92.266  1.00  0.00     0.210 HD
ENDBRANCH  27  29
ENDBRANCH  26  27
BRANCH  26  31
HETATM   31  C   UNL     1       4.439  14.464  89.243  1.00  0.00     0.220 C 
HETATM   32  O   UNL     1       4.425  15.625  89.646  1.00  0.00    -0.278 OA
HETATM   33  N   UNL     1       5.075  14.038  88.102  1.00  0.00    -0.271 NA
HETATM   34  H   UNL     1       5.033  13.112  87.693  1.00  0.00     0.127 HD
HETATM   35  H   UNL     1       4.733  14.298  86.765  1.00  0.00     0.127 HD
ENDBRANCH  26  31
ENDBRANCH  24  26
ENDBRANCH  19  22
ENDBRANCH  15  16
ENDBRANCH  11  14
ENDBRANCH   7   8
ENDBRANCH   2   7
TORSDOF 9
ENDMDL
MODEL 4
REMARK VINA RESULT:      -5.5      1.877     12.235
REMARK  9 active torsions:
REMARK  status: ('A' for Active; 'I' for Inactive)
REMARK    1  A    between atoms: O_2  and  C_17 
REMARK    2  A    between atoms: N_5  and  C_10 
REMARK    3  A    between atoms: N_6  and  C_14 
REMARK       I    between atoms: N_6  and  C_23 
REMARK       I    between atoms: N_7  and  C_22 
REMARK    4  A    between atoms: C_10  and  C_13 
REMARK    5  A    between atoms: C_14  and  C_17 
REMARK    6  A    between atoms: C_14  and  C_22 
REMARK    7  A    between atoms: C_20  and  C_25 
REMARK    8  A    between atoms: C_23  and  C_24 
REMARK    9  A    between atoms: C_28  and  C_31 
ROOT
HETATM    1  O   UNL     1       5.607  14.574  88.748  1.00  0.00    -0.388 OA
HETATM    2  N   UNL     1       3.570  13.051  90.025  1.00  0.00     0.096 N 
HETATM    3  C   UNL     1       4.421  13.981  90.780  1.00  0.00     0.299 C 
HETATM    4  C   UNL     1       4.300  12.534  88.860  1.00  0.00     0.299 C 
HETATM    5  C   UNL     1       4.895  15.107  89.865  1.00  0.00     0.198 C 
HETATM    6  C   UNL     1       4.776  13.693  87.991  1.00  0.00     0.198 C 
ENDROOT
BRANCH   2   7
HETATM    7  C   UNL     1       3.113  11.957  90.881  1.00  0.00     0.311 C 
BRANCH   7   8
HETATM    8  C   UNL     1       4.199  10.982  91.184  1.00  0.00    -0.030 A 
HETATM    9  C   UNL     1       5.136  11.269  92.177  1.00  0.00     0.010 A 
HETATM   10  C   UNL     1       6.154  10.359  92.460  1.00  0.00     0.021 A 
HETATM   11  C   UNL     1       6.232   9.160  91.751  1.00  0.00     0.018 A 
HETATM   12  C   UNL     1       5.296   8.871  90.760  1.00  0.00     0.021 A 
HETATM   13  C   UNL     1       4.279   9.782  90.476  1.00  0.00     0.010 A 
BRANCH  11  14
HETATM   14  C   UNL     1       7.275   8.225  92.043  1.00  0.00    -0.061 C 
HETATM   15  C   UNL     1       8.151   7.439  92.288  1.00  0.00    -0.061 C 
BRANCH  15  16
HETATM   16  C   UNL     1       9.194   6.505  92.580  1.00  0.00     0.018 A 
HETATM   17  C   UNL     1       9.814   6.521  93.829  1.00  0.00     0.022 A 
HETATM   18  C   UNL     1      10.829   5.608  94.114  1.00  0.00     0.018 A 
HETATM   19  C   UNL     1      11.201   4.700  93.145  1.00  0.00     0.032 A 
HETATM   20  C   UNL     1      10.604   4.664  91.902  1.00  0.00     0.018 A 
HETATM   21  C   UNL     1       9.588   5.577  91.616  1.00  0.00     0.022 A 
BRANCH  19  22
HETATM   22  C   UNL     1      12.284   3.729  93.449  1.00  0.00     0.252 C 
HETATM   23  O   UNL     1      11.987   2.602  93.838  1.00  0.00    -0.268 OA
HETATM   24  N   UNL     1      13.580   4.178  93.238  1.00  0.00    -0.342 N 
HETATM   25  H   UNL     1      13.748   5.115  92.891  1.00  0.00     0.163 HD
BRANCH  24  26
HETATM   26  C   UNL     1      14.735   3.347  93.464  1.00  0.00     0.199 C 
BRANCH  26  27
HETATM   27  C   UNL     1      15.030   2.409  92.287  1.00  0.00     0.145 C 
HETATM   28  C   UNL     1      14.566   2.983  90.952  1.00  0.00     0.042 C 
BRANCH  27  29
HETATM   29  O   UNL     1      16.433   2.155  92.219  1.00  0.00    -0.393 OA
HETATM   30  H   UNL     1      16.633   1.396  92.792  1.00  0.00     0.210 HD
ENDBRANCH  27  29
ENDBRANCH  26  27
BRANCH  26  31
HETATM   31  C   UNL     1      15.919   4.264  93.752  1.00  0.00     0.220 C 
HETATM   32  O   UNL     1      15.866   5.486  93.627  1.00  0.00    -0.278 OA
HETATM   33  N   UNL     1      17.041   3.562  94.124  1.00  0.00    -0.271 NA
HETATM   34  H   UNL     1      17.145   2.555  94.150  1.00  0.00     0.127 HD
HETATM   35  H   UNL     1      18.218   3.348  93.389  1.00  0.00     0.127 HD
ENDBRANCH  26  31
ENDBRANCH  24  26
ENDBRANCH  19  22
ENDBRANCH  15  16
ENDBRANCH  11  14
ENDBRANCH   7   8
ENDBRANCH   2   7
TORSDOF 9
ENDMDL
MODEL 5
REMARK VINA RESULT:      -5.3      1.383      1.749
REMARK  9 active torsions:
REMARK  status: ('A' for Active; 'I' for Inactive)
REMARK    1  A    between atoms: O_2  and  C_17 
REMARK    2  A    between atoms: N_5  and  C_10 
REMARK    3  A    between atoms: N_6  and  C_14 
REMARK       I    between atoms: N_6  and  C_23 
REMARK       I    between atoms: N_7  and  C_22 
REMARK    4  A    between atoms: C_10  and  C_13 
REMARK    5  A    between atoms: C_14  and  C_17 
REMARK    6  A    between atoms: C_14  and  C_22 
REMARK    7  A    between atoms: C_20  and  C_25 
REMARK    8  A    between atoms: C_23  and  C_24 
REMARK    9  A    between atoms: C_28  and  C_31 
ROOT
HETATM    1  O   UNL     1      16.432   3.927  93.825  1.00  0.00    -0.388 OA
HETATM    2  N   UNL     1      14.114   2.543  92.925  1.00  0.00     0.096 N 
HETATM    3  C   UNL     1      15.465   2.037  92.649  1.00  0.00     0.299 C 
HETATM    4  C   UNL     1      14.138   4.007  93.041  1.00  0.00     0.299 C 
HETATM    5  C   UNL     1      16.424   2.501  93.743  1.00  0.00     0.198 C 
HETATM    6  C   UNL     1      15.127   4.425  94.124  1.00  0.00     0.198 C 
ENDROOT
BRANCH   2   7
HETATM    7  C   UNL     1      13.180   2.119  91.883  1.00  0.00     0.311 C 
BRANCH   7   8
HETATM    8  C   UNL     1      12.069   3.094  91.685  1.00  0.00    -0.030 A 
HETATM    9  C   UNL     1      11.946   3.773  90.472  1.00  0.00     0.010 A 
HETATM   10  C   UNL     1      10.909   4.686  90.287  1.00  0.00     0.021 A 
HETATM   11  C   UNL     1       9.994   4.919  91.313  1.00  0.00     0.018 A 
HETATM   12  C   UNL     1      10.116   4.241  92.525  1.00  0.00     0.021 A 
HETATM   13  C   UNL     1      11.153   3.328  92.711  1.00  0.00     0.010 A 
BRANCH  11  14
HETATM   14  C   UNL     1       8.929   5.855  91.122  1.00  0.00    -0.061 C 
HETATM   15  C   UNL     1       8.033   6.641  90.962  1.00  0.00    -0.061 C 
BRANCH  15  16
HETATM   16  C   UNL     1       6.969   7.577  90.771  1.00  0.00     0.018 A 
HETATM   17  C   UNL     1       6.537   7.886  89.481  1.00  0.00     0.022 A 
HETATM   18  C   UNL     1       5.497   8.797  89.296  1.00  0.00     0.018 A 
HETATM   19  C   UNL     1       4.913   9.377  90.402  1.00  0.00     0.032 A 
HETATM   20  C   UNL     1       5.322   9.088  91.687  1.00  0.00     0.018 A 
HETATM   21  C   UNL     1       6.362   8.177  91.874  1.00  0.00     0.022 A 
BRANCH  19  22
HETATM   22  C   UNL     1       3.807  10.349  90.204  1.00  0.00     0.252 C 
HETATM   23  O   UNL     1       3.035  10.194  89.261  1.00  0.00    -0.268 OA
HETATM   24  N   UNL     1       3.717  11.368  91.141  1.00  0.00    -0.342 N 
HETATM   25  H   UNL     1       4.376  11.418  91.909  1.00  0.00     0.163 HD
BRANCH  24  26
HETATM   26  C   UNL     1       2.685  12.373  91.099  1.00  0.00     0.199 C 
BRANCH  26  27
HETATM   27  C   UNL     1       2.121  12.704  92.486  1.00  0.00     0.145 C 
HETATM   28  C   UNL     1       2.169  11.512  93.435  1.00  0.00     0.042 C 
BRANCH  27  29
HETATM   29  O   UNL     1       2.863  13.781  93.058  1.00  0.00    -0.393 OA
HETATM   30  H   UNL     1       3.026  14.441  92.364  1.00  0.00     0.210 HD
ENDBRANCH  27  29
ENDBRANCH  26  27
BRANCH  26  31
HETATM   31  C   UNL     1       3.269  13.612  90.427  1.00  0.00     0.220 C 
HETATM   32  O   UNL     1       2.572  14.496  89.933  1.00  0.00    -0.278 OA
HETATM   33  N   UNL     1       4.642  13.595  90.410  1.00  0.00    -0.271 NA
HETATM   34  H   UNL     1       5.244  12.843  90.727  1.00  0.00     0.127 HD
HETATM   35  H   UNL     1       5.498  13.394  89.316  1.00  0.00     0.127 HD
ENDBRANCH  26  31
ENDBRANCH  24  26
ENDBRANCH  19  22
ENDBRANCH  15  16
ENDBRANCH  11  14
ENDBRANCH   7   8
ENDBRANCH   2   7
TORSDOF 9
ENDMDL
MODEL 6
REMARK VINA RESULT:      -5.0      2.051     12.278
REMARK  9 active torsions:
REMARK  status: ('A' for Active; 'I' for Inactive)
REMARK    1  A    between atoms: O_2  and  C_17 
REMARK    2  A    between atoms: N_5  and  C_10 
REMARK    3  A    between atoms: N_6  and  C_14 
REMARK       I    between atoms: N_6  and  C_23 
REMARK       I    between atoms: N_7  and  C_22 
REMARK    4  A    between atoms: C_10  and  C_13 
REMARK    5  A    between atoms: C_14  and  C_17 
REMARK    6  A    between atoms: C_14  and  C_22 
REMARK    7  A    between atoms: C_20  and  C_25 
REMARK    8  A    between atoms: C_23  and  C_24 
REMARK    9  A    between atoms: C_28  and  C_31 
ROOT
HETATM    1  O   UNL     1       3.147  14.968  93.306  1.00  0.00    -0.388 OA
HETATM    2  N   UNL     1       2.950  14.228  90.565  1.00  0.00     0.096 N 
HETATM    3  C   UNL     1       1.882  13.915  91.523  1.00  0.00     0.299 C 
HETATM    4  C   UNL     1       4.246  14.282  91.255  1.00  0.00     0.299 C 
HETATM    5  C   UNL     1       1.879  14.945  92.649  1.00  0.00     0.198 C 
HETATM    6  C   UNL     1       4.188  15.303  92.387  1.00  0.00     0.198 C 
ENDROOT
BRANCH   2   7
HETATM    7  C   UNL     1       2.979  13.247  89.482  1.00  0.00     0.311 C 
BRANCH   7   8
HETATM    8  C   UNL     1       3.918  12.123  89.759  1.00  0.00    -0.030 A 
HETATM    9  C   UNL     1       5.260  12.229  89.389  1.00  0.00     0.010 A 
HETATM   10  C   UNL     1       6.139  11.177  89.646  1.00  0.00     0.021 A 
HETATM   11  C   UNL     1       5.677  10.021  90.274  1.00  0.00     0.018 A 
HETATM   12  C   UNL     1       4.338   9.914  90.643  1.00  0.00     0.021 A 
HETATM   13  C   UNL     1       3.458  10.965  90.386  1.00  0.00     0.010 A 
BRANCH  11  14
HETATM   14  C   UNL     1       6.579   8.943  90.539  1.00  0.00    -0.061 C 
HETATM   15  C   UNL     1       7.339   8.037  90.761  1.00  0.00    -0.061 C 
BRANCH  15  16
HETATM   16  C   UNL     1       8.241   6.961  91.027  1.00  0.00     0.018 A 
HETATM   17  C   UNL     1       9.224   6.630  90.093  1.00  0.00     0.022 A 
HETATM   18  C   UNL     1      10.106   5.581  90.354  1.00  0.00     0.018 A 
HETATM   19  C   UNL     1       9.986   4.888  91.540  1.00  0.00     0.032 A 
HETATM   20  C   UNL     1       9.023   5.196  92.478  1.00  0.00     0.018 A 
HETATM   21  C   UNL     1       8.140   6.244  92.219  1.00  0.00     0.022 A 
BRANCH  19  22
HETATM   22  C   UNL     1      10.925   3.770  91.816  1.00  0.00     0.252 C 
HETATM   23  O   UNL     1      10.473   2.658  92.078  1.00  0.00    -0.268 OA
HETATM   24  N   UNL     1      12.276   4.075  91.730  1.00  0.00    -0.342 N 
HETATM   25  H   UNL     1      12.576   5.011  91.484  1.00  0.00     0.163 HD
BRANCH  24  26
HETATM   26  C   UNL     1      13.308   3.093  91.946  1.00  0.00     0.199 C 
BRANCH  26  27
HETATM   27  C   UNL     1      14.508   3.276  91.008  1.00  0.00     0.145 C 
HETATM   28  C   UNL     1      14.897   4.741  90.837  1.00  0.00     0.042 C 
BRANCH  27  29
HETATM   29  O   UNL     1      15.629   2.556  91.519  1.00  0.00    -0.393 OA
HETATM   30  H   UNL     1      15.837   2.903  92.403  1.00  0.00     0.210 HD
ENDBRANCH  27  29
ENDBRANCH  26  27
BRANCH  26  31
HETATM   31  C   UNL     1      13.731   3.176  93.409  1.00  0.00     0.220 C 
HETATM   32  O   UNL     1      13.490   4.148  94.122  1.00  0.00    -0.278 OA
HETATM   33  N   UNL     1      14.436   2.066  93.809  1.00  0.00    -0.271 NA
HETATM   34  H   UNL     1      14.729   1.291  93.227  1.00  0.00     0.127 HD
HETATM   35  H   UNL     1      15.806   1.960  94.093  1.00  0.00     0.127 HD
ENDBRANCH  26  31
ENDBRANCH  24  26
ENDBRANCH  19  22
ENDBRANCH  15  16
ENDBRANCH  11  14
ENDBRANCH   7   8
ENDBRANCH   2   7
TORSDOF 9
ENDMDL
MODEL 7
REMARK VINA RESULT:      -4.8      1.826     12.307
REMARK  9 active torsions:
REMARK  status: ('A' for Active; 'I' for Inactive)
REMARK    1  A    between atoms: O_2  and  C_17 
REMARK    2  A    between atoms: N_5  and  C_10 
REMARK    3  A    between atoms: N_6  and  C_14 
REMARK       I    between atoms: N_6  and  C_23 
REMARK       I    between atoms: N_7  and  C_22 
REMARK    4  A    between atoms: C_10  and  C_13 
REMARK    5  A    between atoms: C_14  and  C_17 
REMARK    6  A    between atoms: C_14  and  C_22 
REMARK    7  A    between atoms: C_20  and  C_25 
REMARK    8  A    between atoms: C_23  and  C_24 
REMARK    9  A    between atoms: C_28  and  C_31 
ROOT
HETATM    1  O   UNL     1       3.040  14.403  92.422  1.00  0.00    -0.388 OA
HETATM    2  N   UNL     1       3.589  13.297  89.857  1.00  0.00     0.096 N 
HETATM    3  C   UNL     1       2.247  13.227  90.452  1.00  0.00     0.299 C 
HETATM    4  C   UNL     1       4.608  13.328  90.916  1.00  0.00     0.299 C 
HETATM    5  C   UNL     1       2.040  14.405  91.401  1.00  0.00     0.198 C 
HETATM    6  C   UNL     1       4.346  14.502  91.853  1.00  0.00     0.198 C 
ENDROOT
BRANCH   2   7
HETATM    7  C   UNL     1       3.814  12.171  88.952  1.00  0.00     0.311 C 
BRANCH   7   8
HETATM    8  C   UNL     1       4.806  11.198  89.492  1.00  0.00    -0.030 A 
HETATM    9  C   UNL     1       4.375  10.128  90.277  1.00  0.00     0.010 A 
HETATM   10  C   UNL     1       5.303   9.218  90.784  1.00  0.00     0.021 A 
HETATM   11  C   UNL     1       6.659   9.377  90.504  1.00  0.00     0.018 A 
HETATM   12  C   UNL     1       7.090  10.445  89.719  1.00  0.00     0.021 A 
HETATM   13  C   UNL     1       6.163  11.356  89.213  1.00  0.00     0.010 A 
BRANCH  11  14
HETATM   14  C   UNL     1       7.610   8.442  91.022  1.00  0.00    -0.061 C 
HETATM   15  C   UNL     1       8.410   7.657  91.457  1.00  0.00    -0.061 C 
BRANCH  15  16
HETATM   16  C   UNL     1       9.361   6.723  91.975  1.00  0.00     0.018 A 
HETATM   17  C   UNL     1       9.979   5.811  91.118  1.00  0.00     0.022 A 
HETATM   18  C   UNL     1      10.909   4.902  91.623  1.00  0.00     0.018 A 
HETATM   19  C   UNL     1      11.200   4.926  92.971  1.00  0.00     0.032 A 
HETATM   20  C   UNL     1      10.603   5.817  93.838  1.00  0.00     0.018 A 
HETATM   21  C   UNL     1       9.673   6.726  93.334  1.00  0.00     0.022 A 
BRANCH  19  22
HETATM   22  C   UNL     1      12.189   3.956  93.509  1.00  0.00     0.252 C 
HETATM   23  O   UNL     1      11.789   2.920  94.035  1.00  0.00    -0.268 OA
HETATM   24  N   UNL     1      13.525   4.297  93.347  1.00  0.00    -0.342 N 
HETATM   25  H   UNL     1      13.781   5.159  92.880  1.00  0.00     0.163 HD
BRANCH  24  26
HETATM   26  C   UNL     1      14.601   3.450  93.793  1.00  0.00     0.199 C 
BRANCH  26  27
HETATM   27  C   UNL     1      14.804   2.224  92.893  1.00  0.00     0.145 C 
HETATM   28  C   UNL     1      14.663   0.911  93.655  1.00  0.00     0.042 C 
BRANCH  27  29
HETATM   29  O   UNL     1      13.850   2.249  91.831  1.00  0.00    -0.393 OA
HETATM   30  H   UNL     1      14.331   2.346  90.992  1.00  0.00     0.210 HD
ENDBRANCH  27  29
ENDBRANCH  26  27
BRANCH  26  31
HETATM   31  C   UNL     1      15.865   4.300  93.865  1.00  0.00     0.220 C 
HETATM   32  O   UNL     1      15.866   5.515  93.675  1.00  0.00    -0.278 OA
HETATM   33  N   UNL     1      16.984   3.546  94.124  1.00  0.00    -0.271 NA
HETATM   34  H   UNL     1      17.032   2.537  94.197  1.00  0.00     0.127 HD
HETATM   35  H   UNL     1      18.034   3.217  93.252  1.00  0.00     0.127 HD
ENDBRANCH  26  31
ENDBRANCH  24  26
ENDBRANCH  19  22
ENDBRANCH  15  16
ENDBRANCH  11  14
ENDBRANCH   7   8
ENDBRANCH   2   7
TORSDOF 9
ENDMDL
MODEL 8
REMARK VINA RESULT:      -4.5      2.329     12.525
REMARK  9 active torsions:
REMARK  status: ('A' for Active; 'I' for Inactive)
REMARK    1  A    between atoms: O_2  and  C_17 
REMARK    2  A    between atoms: N_5  and  C_10 
REMARK    3  A    between atoms: N_6  and  C_14 
REMARK       I    between atoms: N_6  and  C_23 
REMARK       I    between atoms: N_7  and  C_22 
REMARK    4  A    between atoms: C_10  and  C_13 
REMARK    5  A    between atoms: C_14  and  C_17 
REMARK    6  A    between atoms: C_14  and  C_22 
REMARK    7  A    between atoms: C_20  and  C_25 
REMARK    8  A    between atoms: C_23  and  C_24 
REMARK    9  A    between atoms: C_28  and  C_31 
ROOT
HETATM    1  O   UNL     1       2.382  14.486  90.534  1.00  0.00    -0.388 OA
HETATM    2  N   UNL     1       2.874  12.219  92.184  1.00  0.00     0.096 N 
HETATM    3  C   UNL     1       3.085  12.171  90.730  1.00  0.00     0.299 C 
HETATM    4  C   UNL     1       1.821  13.191  92.508  1.00  0.00     0.299 C 
HETATM    5  C   UNL     1       3.426  13.566  90.212  1.00  0.00     0.198 C 
HETATM    6  C   UNL     1       2.191  14.561  91.947  1.00  0.00     0.198 C 
ENDROOT
BRANCH   2   7
HETATM    7  C   UNL     1       2.534  10.894  92.701  1.00  0.00     0.311 C 
BRANCH   7   8
HETATM    8  C   UNL     1       3.705   9.971  92.709  1.00  0.00    -0.030 A 
HETATM    9  C   UNL     1       4.836  10.287  93.464  1.00  0.00     0.010 A 
HETATM   10  C   UNL     1       5.932   9.425  93.471  1.00  0.00     0.021 A 
HETATM   11  C   UNL     1       5.897   8.247  92.726  1.00  0.00     0.018 A 
HETATM   12  C   UNL     1       4.768   7.931  91.972  1.00  0.00     0.021 A 
HETATM   13  C   UNL     1       3.672   8.792  91.964  1.00  0.00     0.010 A 
BRANCH  11  14
HETATM   14  C   UNL     1       7.021   7.362  92.735  1.00  0.00    -0.061 C 
HETATM   15  C   UNL     1       7.966   6.619  92.743  1.00  0.00    -0.061 C 
BRANCH  15  16
HETATM   16  C   UNL     1       9.089   5.735  92.753  1.00  0.00     0.018 A 
HETATM   17  C   UNL     1       9.188   4.723  91.798  1.00  0.00     0.022 A 
HETATM   18  C   UNL     1      10.286   3.862  91.806  1.00  0.00     0.018 A 
HETATM   19  C   UNL     1      11.259   4.032  92.768  1.00  0.00     0.032 A 
HETATM   20  C   UNL     1      11.184   5.024  93.724  1.00  0.00     0.018 A 
HETATM   21  C   UNL     1      10.087   5.885  93.717  1.00  0.00     0.022 A 
BRANCH  19  22
HETATM   22  C   UNL     1      12.427   3.114  92.778  1.00  0.00     0.252 C 
HETATM   23  O   UNL     1      12.272   1.943  92.439  1.00  0.00    -0.268 OA
HETATM   24  N   UNL     1      13.638   3.674  93.157  1.00  0.00    -0.342 N 
HETATM   25  H   UNL     1      13.695   4.656  93.400  1.00  0.00     0.163 HD
BRANCH  24  26
HETATM   26  C   UNL     1      14.865   2.919  93.194  1.00  0.00     0.199 C 
BRANCH  26  27
HETATM   27  C   UNL     1      15.243   2.335  91.827  1.00  0.00     0.145 C 
HETATM   28  C   UNL     1      14.971   3.304  90.682  1.00  0.00     0.042 C 
BRANCH  27  29
HETATM   29  O   UNL     1      16.627   1.988  91.822  1.00  0.00    -0.393 OA
HETATM   30  H   UNL     1      17.095   2.593  92.422  1.00  0.00     0.210 HD
ENDBRANCH  27  29
ENDBRANCH  26  27
BRANCH  26  31
HETATM   31  C   UNL     1      15.961   3.836  93.726  1.00  0.00     0.220 C 
HETATM   32  O   UNL     1      15.854   5.061  93.756  1.00  0.00    -0.278 OA
HETATM   33  N   UNL     1      17.075   3.137  94.124  1.00  0.00    -0.271 NA
HETATM   34  H   UNL     1      17.231   2.140  94.031  1.00  0.00     0.127 HD
HETATM   35  H   UNL     1      18.331   3.072  93.501  1.00  0.00     0.127 HD
ENDBRANCH  26  31
ENDBRANCH  24  26
ENDBRANCH  19  22
ENDBRANCH  15  16
ENDBRANCH  11  14
ENDBRANCH   7   8
ENDBRANCH   2   7
TORSDOF 9
ENDMDL
