MODEL 1
REMARK VINA RESULT:      -6.8      0.000      0.000
REMARK  14 active torsions:
REMARK  status: ('A' for Active; 'I' for Inactive)
REMARK    1  A    between atoms: O_2  and  C_18 
REMARK    2  A    between atoms: C_5  and  C_8 
REMARK    3  A    between atoms: C_5  and  O_35 
REMARK    4  A    between atoms: C_5  and  C_36 
REMARK    5  A    between atoms: N_6  and  C_11 
REMARK    6  A    between atoms: N_7  and  C_15 
REMARK       I    between atoms: N_7  and  C_24 
REMARK    7  A    between atoms: C_8  and  C_23 
REMARK    8  A    between atoms: C_11  and  C_14 
REMARK    9  A    between atoms: C_15  and  C_18 
REMARK   10  A    between atoms: C_15  and  C_23 
REMARK   11  A    between atoms: C_21  and  C_26 
REMARK   12  A    between atoms: C_24  and  C_25 
REMARK   13  A    between atoms: C_29  and  C_32 
REMARK   14  A    between atoms: C_36  and  O_39 
ROOT
HETATM    1  O   UNL     1      16.310   4.267  94.122  1.00  0.00    -0.350 OA
HETATM    2  N   UNL     1      14.510   2.779  92.496  1.00  0.00     0.147 N 
HETATM    3  C   UNL     1      14.426   4.243  92.592  1.00  0.00     0.283 C 
HETATM    4  C   UNL     1      15.062   2.223  93.739  1.00  0.00     0.283 C 
HETATM    5  C   UNL     1      15.804   4.820  92.905  1.00  0.00     0.178 C 
HETATM    6  C   UNL     1      16.424   2.847  94.025  1.00  0.00     0.178 C 
ENDROOT
BRANCH   2   7
HETATM    7  C   UNL     1      13.197   2.203  92.206  1.00  0.00     0.277 C 
BRANCH   7   8
HETATM    8  C   UNL     1      12.140   3.244  92.061  1.00  0.00     0.011 A 
HETATM    9  C   UNL     1      11.522   3.771  93.196  1.00  0.00    -0.002 A 
HETATM   10  C   UNL     1      10.531   4.744  93.061  1.00  0.00     0.008 A 
HETATM   11  C   UNL     1      10.161   5.190  91.793  1.00  0.00     0.042 A 
HETATM   12  C   UNL     1      10.778   4.665  90.660  1.00  0.00     0.008 A 
HETATM   13  C   UNL     1      11.768   3.692  90.794  1.00  0.00    -0.002 A 
BRANCH  11  14
HETATM   14  C   UNL     1       9.146   6.189  91.656  1.00  0.00    -0.059 C 
HETATM   15  C   UNL     1       8.293   7.029  91.539  1.00  0.00    -0.059 C 
BRANCH  15  16
HETATM   16  C   UNL     1       7.279   8.026  91.401  1.00  0.00     0.042 A 
HETATM   17  C   UNL     1       6.387   7.969  90.329  1.00  0.00     0.008 A 
HETATM   18  C   UNL     1       5.396   8.942  90.197  1.00  0.00     0.005 A 
HETATM   19  C   UNL     1       5.317   9.947  91.137  1.00  0.00     0.056 A 
HETATM   20  C   UNL     1       6.187  10.026  92.205  1.00  0.00     0.005 A 
HETATM   21  C   UNL     1       7.179   9.054  92.339  1.00  0.00     0.008 A 
BRANCH  19  22
HETATM   22  C   UNL     1       4.262  10.983  90.994  1.00  0.00     0.254 C 
HETATM   23  O   UNL     1       3.281  10.748  90.292  1.00  0.00    -0.268 OA
HETATM   24  N   UNL     1       4.464  12.159  91.704  1.00  0.00    -0.335 N 
HETATM   25  HN  UNL     1       5.287  12.273  92.284  1.00  0.00     0.164 HD
BRANCH  24  26
HETATM   26  C   UNL     1       3.520  13.247  91.687  1.00  0.00     0.169 C 
BRANCH  26  27
HETATM   27  C   UNL     1       3.160  13.743  93.093  1.00  0.00     0.138 C 
HETATM   28  C   UNL     1       2.385  12.706  93.898  1.00  0.00     0.034 C 
BRANCH  27  29
HETATM   29  O   UNL     1       4.353  14.081  93.800  1.00  0.00    -0.383 OA
HETATM   30  H   UNL     1       4.542  13.371  94.436  1.00  0.00     0.210 HD
ENDBRANCH  27  29
ENDBRANCH  26  27
BRANCH  26  31
HETATM   31  C   UNL     1       4.115  14.367  90.839  1.00  0.00     0.194 C 
HETATM   32  O   UNL     1       4.865  15.227  91.297  1.00  0.00    -0.289 OA
BRANCH  31  33
HETATM   33  C   UNL     1       3.684  14.316  89.536  1.00  0.00     0.053 C 
BRANCH  33  34
HETATM   34  C   UNL     1       4.681  14.113  88.571  1.00  0.00     0.220 C 
BRANCH  34  35
HETATM   35  O   UNL     1       5.763  14.492  89.057  1.00  0.00    -0.371 OA
HETATM   36  H   UNL     1       5.873  15.276  88.542  1.00  0.00     0.211 HD
ENDBRANCH  34  35
BRANCH  34  37
HETATM   37  C   UNL     1       4.742  12.791  88.098  1.00  0.00     0.185 C 
HETATM   38  O   UNL     1       5.983  12.854  88.554  1.00  0.00    -0.647 OA
BRANCH  37  39
HETATM   39  O   UNL     1       4.018  12.034  87.523  1.00  0.00    -0.774 OA
HETATM   40  H   UNL     1       3.617  12.486  86.563  1.00  0.00     0.167 HD
ENDBRANCH  37  39
ENDBRANCH  34  37
ENDBRANCH  33  34
ENDBRANCH  31  33
ENDBRANCH  26  31
ENDBRANCH  24  26
ENDBRANCH  19  22
ENDBRANCH  15  16
ENDBRANCH  11  14
ENDBRANCH   7   8
ENDBRANCH   2   7
TORSDOF 14
ENDMDL
