MODEL 1
REMARK VINA RESULT:      -6.8      0.000      0.000
REMARK  11 active torsions:
REMARK  status: ('A' for Active; 'I' for Inactive)
REMARK    1  A    between atoms: O_2  and  C_18 
REMARK    2  A    between atoms: O_5  and  P_8 
REMARK    3  A    between atoms: N_6  and  C_11 
REMARK    4  A    between atoms: N_7  and  C_15 
REMARK       I    between atoms: N_7  and  C_24 
REMARK    5  A    between atoms: P_8  and  C_23 
REMARK    6  A    between atoms: C_11  and  C_14 
REMARK    7  A    between atoms: C_15  and  C_18 
REMARK    8  A    between atoms: C_15  and  C_23 
REMARK    9  A    between atoms: C_21  and  C_26 
REMARK   10  A    between atoms: C_24  and  C_25 
REMARK   11  A    between atoms: C_29  and  C_32 
ROOT
HETATM    1  O   UNL     1      15.844   3.560  94.124  1.00  0.00     0.000 OA
HETATM    2  N   UNL     1      13.977   2.518  92.245  1.00  0.00     0.000 N 
HETATM    3  C   UNL     1      13.995   3.944  92.599  1.00  0.00     0.000 C 
HETATM    4  C   UNL     1      14.462   1.713  93.374  1.00  0.00     0.000 C 
HETATM    5  C   UNL     1      15.404   4.354  93.021  1.00  0.00     0.000 C 
HETATM    6  C   UNL     1      15.859   2.175  93.777  1.00  0.00     0.000 C 
ENDROOT
BRANCH   2   7
HETATM    7  C   UNL     1      12.633   2.101  91.848  1.00  0.00     0.000 C 
BRANCH   7   8
HETATM    8  C   UNL     1      11.738   3.260  91.568  1.00  0.00     0.000 A 
HETATM    9  C   UNL     1      10.851   3.707  92.549  1.00  0.00     0.000 A 
HETATM   10  C   UNL     1      10.011   4.790  92.288  1.00  0.00     0.000 A 
HETATM   11  C   UNL     1      10.060   5.425  91.047  1.00  0.00     0.000 A 
HETATM   12  C   UNL     1      10.946   4.980  90.068  1.00  0.00     0.000 A 
HETATM   13  C   UNL     1      11.785   3.897  90.328  1.00  0.00     0.000 A 
BRANCH  11  14
HETATM   14  C   UNL     1       9.201   6.537  90.781  1.00  0.00     0.000 C 
HETATM   15  C   UNL     1       8.478   7.472  90.557  1.00  0.00     0.000 C 
BRANCH  15  16
HETATM   16  C   UNL     1       7.619   8.584  90.291  1.00  0.00     0.000 A 
HETATM   17  C   UNL     1       8.148   9.762  89.763  1.00  0.00     0.000 A 
HETATM   18  C   UNL     1       7.310  10.845  89.501  1.00  0.00     0.000 A 
HETATM   19  C   UNL     1       5.962  10.726  89.771  1.00  0.00     0.000 A 
HETATM   20  C   UNL     1       5.415   9.573  90.293  1.00  0.00     0.000 A 
HETATM   21  C   UNL     1       6.253   8.489  90.556  1.00  0.00     0.000 A 
BRANCH  19  22
HETATM   22  C   UNL     1       5.070  11.881  89.494  1.00  0.00     0.000 C 
HETATM   23  O   UNL     1       4.847  12.201  88.329  1.00  0.00     0.000 OA
HETATM   24  N   UNL     1       4.526  12.510  90.605  1.00  0.00     0.000 N 
HETATM   25  HN  UNL     1       4.735  12.175  91.538  1.00  0.00     0.000 HD
BRANCH  24  26
HETATM   26  C   UNL     1       3.623  13.628  90.499  1.00  0.00     0.000 C 
BRANCH  26  27
HETATM   27  C   UNL     1       2.264  13.358  91.156  1.00  0.00     0.000 C 
HETATM   28  C   UNL     1       2.330  12.252  92.203  1.00  0.00     0.000 C 
BRANCH  27  29
HETATM   29  O   UNL     1       1.787  14.553  91.775  1.00  0.00     0.000 OA
HETATM   30  H   UNL     1       2.545  15.013  92.174  1.00  0.00     0.000 HD
ENDBRANCH  27  29
ENDBRANCH  26  27
BRANCH  26  31
HETATM   31  C   UNL     1       4.309  14.840  91.121  1.00  0.00     0.000 C 
HETATM   32  O   UNL     1       4.269  15.088  92.325  1.00  0.00     0.000 OA
BRANCH  31  33
HETATM   33  P   UNL     1       4.931  15.625  90.180  1.00  0.00     0.000 P 
HETATM   34  H   UNL     1       4.276  16.839  90.143  1.00  0.00     0.000 HD
BRANCH  33  35
HETATM   35  O   UNL     1       4.956  15.110  88.877  1.00  0.00     0.000 OA
HETATM   36  H   UNL     1       4.429  15.783  88.413  1.00  0.00     0.000 HD
ENDBRANCH  33  35
ENDBRANCH  31  33
ENDBRANCH  26  31
ENDBRANCH  24  26
ENDBRANCH  19  22
ENDBRANCH  15  16
ENDBRANCH  11  14
ENDBRANCH   7   8
ENDBRANCH   2   7
TORSDOF 11
ENDMDL
