MODEL 1
REMARK VINA RESULT:      -7.3      0.000      0.000
REMARK  9 active torsions:
REMARK  status: ('A' for Active; 'I' for Inactive)
REMARK    1  A    between atoms: O_2  and  C_17 
REMARK    2  A    between atoms: N_5  and  C_10 
REMARK    3  A    between atoms: N_6  and  C_14 
REMARK       I    between atoms: N_6  and  C_23 
REMARK       I    between atoms: N_7  and  C_22 
REMARK    4  A    between atoms: C_10  and  C_13 
REMARK    5  A    between atoms: C_14  and  C_17 
REMARK    6  A    between atoms: C_14  and  C_22 
REMARK    7  A    between atoms: C_20  and  C_25 
REMARK    8  A    between atoms: C_23  and  C_24 
REMARK    9  A    between atoms: C_28  and  C_31 
ROOT
HETATM    1  O   UNL     1      16.218   3.825  94.124  1.00  0.00    -0.388 OA
HETATM    2  N   UNL     1      14.197   2.587  92.547  1.00  0.00     0.096 N 
HETATM    3  C   UNL     1      14.306   4.050  92.646  1.00  0.00     0.299 C 
HETATM    4  C   UNL     1      14.706   1.961  93.775  1.00  0.00     0.299 C 
HETATM    5  C   UNL     1      15.755   4.443  92.921  1.00  0.00     0.198 C 
HETATM    6  C   UNL     1      16.144   2.403  94.024  1.00  0.00     0.198 C 
ENDROOT
BRANCH   2   7
HETATM    7  C   UNL     1      12.814   2.187  92.294  1.00  0.00     0.311 C 
BRANCH   7   8
HETATM    8  C   UNL     1      11.936   3.349  91.975  1.00  0.00    -0.030 A 
HETATM    9  C   UNL     1      11.593   3.620  90.649  1.00  0.00     0.010 A 
HETATM   10  C   UNL     1      10.773   4.708  90.349  1.00  0.00     0.021 A 
HETATM   11  C   UNL     1      10.295   5.523  91.375  1.00  0.00     0.018 A 
HETATM   12  C   UNL     1      10.637   5.253  92.699  1.00  0.00     0.021 A 
HETATM   13  C   UNL     1      11.457   4.166  92.999  1.00  0.00     0.010 A 
BRANCH  11  14
HETATM   14  C   UNL     1       9.453   6.637  91.067  1.00  0.00    -0.061 C 
HETATM   15  C   UNL     1       8.745   7.574  90.809  1.00  0.00    -0.061 C 
BRANCH  15  16
HETATM   16  C   UNL     1       7.903   8.689  90.502  1.00  0.00     0.018 A 
HETATM   17  C   UNL     1       6.711   8.874  91.202  1.00  0.00     0.022 A 
HETATM   18  C   UNL     1       5.891   9.963  90.904  1.00  0.00     0.018 A 
HETATM   19  C   UNL     1       6.283  10.841  89.915  1.00  0.00     0.032 A 
HETATM   20  C   UNL     1       7.456  10.679  89.209  1.00  0.00     0.018 A 
HETATM   21  C   UNL     1       8.276   9.591  89.506  1.00  0.00     0.022 A 
BRANCH  19  22
HETATM   22  C   UNL     1       5.408  12.000  89.597  1.00  0.00     0.252 C 
HETATM   23  O   UNL     1       5.255  12.331  88.424  1.00  0.00    -0.268 OA
HETATM   24  N   UNL     1       4.799  12.618  90.680  1.00  0.00    -0.342 N 
HETATM   25  H   UNL     1       4.954  12.273  91.621  1.00  0.00     0.163 HD
BRANCH  24  26
HETATM   26  C   UNL     1       3.905  13.738  90.532  1.00  0.00     0.199 C 
BRANCH  26  27
HETATM   27  C   UNL     1       2.818  13.776  91.614  1.00  0.00     0.145 C 
HETATM   28  C   UNL     1       2.102  12.439  91.769  1.00  0.00     0.042 C 
BRANCH  27  29
HETATM   29  O   UNL     1       3.401  14.137  92.865  1.00  0.00    -0.393 OA
HETATM   30  H   UNL     1       4.364  14.020  92.798  1.00  0.00     0.210 HD
ENDBRANCH  27  29
ENDBRANCH  26  27
BRANCH  26  31
HETATM   31  C   UNL     1       4.746  15.010  90.547  1.00  0.00     0.220 C 
HETATM   32  O   UNL     1       5.023  15.618  91.579  1.00  0.00    -0.278 OA
HETATM   33  N   UNL     1       5.114  15.403  89.283  1.00  0.00    -0.271 NA
HETATM   34  H   UNL     1       4.830  14.978  88.408  1.00  0.00     0.127 HD
HETATM   35  H   UNL     1       4.644  16.497  88.538  1.00  0.00     0.127 HD
ENDBRANCH  26  31
ENDBRANCH  24  26
ENDBRANCH  19  22
ENDBRANCH  15  16
ENDBRANCH  11  14
ENDBRANCH   7   8
ENDBRANCH   2   7
TORSDOF 9
ENDMDL
