MODEL 1
REMARK VINA RESULT:      -6.5      0.000      0.000
REMARK  12 active torsions:
REMARK  status: ('A' for Active; 'I' for Inactive)
REMARK    1  A    between atoms: O_2  and  C_16 
REMARK    2  A    between atoms: N_5  and  C_9 
REMARK    3  A    between atoms: N_6  and  C_13 
REMARK       I    between atoms: N_6  and  C_22 
REMARK    4  A    between atoms: C_9  and  C_12 
REMARK    5  A    between atoms: C_13  and  C_16 
REMARK    6  A    between atoms: C_13  and  C_21 
REMARK    7  A    between atoms: C_19  and  C_24 
REMARK    8  A    between atoms: C_21  and  C_33 
REMARK    9  A    between atoms: C_22  and  C_23 
REMARK   10  A    between atoms: C_27  and  C_30 
REMARK   11  A    between atoms: C_33  and  C_34 
REMARK   12  A    between atoms: C_34  and  C_35 
ROOT
HETATM    1  O   UNL     1      17.363   4.670  93.776  1.00  0.00    -0.350 OA
HETATM    2  N   UNL     1      15.269   2.743  93.722  1.00  0.00     0.147 N 
HETATM    3  C   UNL     1      16.654   2.381  93.391  1.00  0.00     0.283 C 
HETATM    4  C   UNL     1      15.024   4.154  93.392  1.00  0.00     0.283 C 
HETATM    5  C   UNL     1      17.620   3.308  94.124  1.00  0.00     0.178 C 
HETATM    6  C   UNL     1      16.028   5.039  94.124  1.00  0.00     0.178 C 
ENDROOT
BRANCH   2   7
HETATM    7  C   UNL     1      14.325   1.874  93.022  1.00  0.00     0.277 C 
BRANCH   7   8
HETATM    8  C   UNL     1      13.232   2.641  92.358  1.00  0.00     0.011 A 
HETATM    9  C   UNL     1      11.964   2.693  92.940  1.00  0.00    -0.002 A 
HETATM   10  C   UNL     1      10.941   3.408  92.319  1.00  0.00     0.008 A 
HETATM   11  C   UNL     1      11.185   4.073  91.118  1.00  0.00     0.042 A 
HETATM   12  C   UNL     1      12.450   4.022  90.536  1.00  0.00     0.008 A 
HETATM   13  C   UNL     1      13.474   3.306  91.156  1.00  0.00    -0.002 A 
BRANCH  11  14
HETATM   14  C   UNL     1      10.136   4.808  90.482  1.00  0.00    -0.059 C 
HETATM   15  C   UNL     1       9.254   5.426  89.947  1.00  0.00    -0.059 C 
BRANCH  15  16
HETATM   16  C   UNL     1       8.205   6.160  89.311  1.00  0.00     0.042 A 
HETATM   17  C   UNL     1       8.451   6.831  88.113  1.00  0.00     0.008 A 
HETATM   18  C   UNL     1       7.427   7.545  87.491  1.00  0.00     0.005 A 
HETATM   19  C   UNL     1       6.180   7.571  88.080  1.00  0.00     0.056 A 
HETATM   20  C   UNL     1       5.911   6.917  89.264  1.00  0.00     0.005 A 
HETATM   21  C   UNL     1       6.935   6.203  89.887  1.00  0.00     0.008 A 
BRANCH  19  22
HETATM   22  C   UNL     1       5.090   8.334  87.419  1.00  0.00     0.254 C 
HETATM   23  O   UNL     1       4.890   8.174  86.217  1.00  0.00    -0.268 OA
HETATM   24  N   UNL     1       4.348   9.171  88.240  1.00  0.00    -0.335 N 
HETATM   25  HN  UNL     1       4.555   9.233  89.230  1.00  0.00     0.164 HD
BRANCH  24  26
HETATM   26  C   UNL     1       3.243   9.957  87.752  1.00  0.00     0.166 C 
BRANCH  26  27
HETATM   27  C   UNL     1       1.881   9.338  88.088  1.00  0.00     0.138 C 
HETATM   28  C   UNL     1       1.667   7.991  87.408  1.00  0.00     0.034 C 
BRANCH  27  29
HETATM   29  O   UNL     1       1.770   9.166  89.501  1.00  0.00    -0.383 OA
HETATM   30  H   UNL     1       2.431   9.735  89.930  1.00  0.00     0.210 HD
ENDBRANCH  27  29
ENDBRANCH  26  27
BRANCH  26  31
HETATM   31  C   UNL     1       3.375  11.359  88.337  1.00  0.00     0.181 C 
HETATM   32  O   UNL     1       2.607  11.805  89.187  1.00  0.00    -0.294 OA
BRANCH  31  33
HETATM   33  C   UNL     1       4.873  11.645  88.886  1.00  0.00     0.138 C 
BRANCH  33  34
HETATM   34  C   UNL     1       5.039  13.003  88.536  1.00  0.00     0.208 C 
HETATM   35  O   UNL     1       4.988  13.258  87.355  1.00  0.00    -0.289 OA
BRANCH  34  36
HETATM   36  C   UNL     1       4.965  14.133  89.303  1.00  0.00     0.194 C 
HETATM   37  O   UNL     1       4.012  14.520  90.252  1.00  0.00    -0.185 OA
ENDBRANCH  34  36
ENDBRANCH  33  34
ENDBRANCH  31  33
ENDBRANCH  26  31
ENDBRANCH  24  26
ENDBRANCH  19  22
ENDBRANCH  15  16
ENDBRANCH  11  14
ENDBRANCH   7   8
ENDBRANCH   2   7
TORSDOF 12
ENDMDL
