MODEL 1
REMARK VINA RESULT:      -6.6      0.000      0.000
REMARK  11 active torsions:
REMARK  status: ('A' for Active; 'I' for Inactive)
REMARK    1  A    between atoms: O_2  and  C_18 
REMARK    2  A    between atoms: O_5  and  P_8 
REMARK    3  A    between atoms: N_6  and  C_11 
REMARK    4  A    between atoms: N_7  and  C_15 
REMARK       I    between atoms: N_7  and  C_24 
REMARK    5  A    between atoms: P_8  and  C_23 
REMARK    6  A    between atoms: C_11  and  C_14 
REMARK    7  A    between atoms: C_15  and  C_18 
REMARK    8  A    between atoms: C_15  and  C_23 
REMARK    9  A    between atoms: C_21  and  C_26 
REMARK   10  A    between atoms: C_24  and  C_25 
REMARK   11  A    between atoms: C_29  and  C_32 
ROOT
HETATM    1  O   UNL     1      16.594   3.373  93.738  1.00  0.00     0.000 OA
HETATM    2  N   UNL     1      13.935   2.915  92.831  1.00  0.00     0.000 N 
HETATM    3  C   UNL     1      14.874   1.806  93.049  1.00  0.00     0.000 C 
HETATM    4  C   UNL     1      14.671   4.134  92.470  1.00  0.00     0.000 C 
HETATM    5  C   UNL     1      15.889   2.191  94.122  1.00  0.00     0.000 C 
HETATM    6  C   UNL     1      15.691   4.464  93.555  1.00  0.00     0.000 C 
ENDROOT
BRANCH   2   7
HETATM    7  C   UNL     1      12.959   2.572  91.799  1.00  0.00     0.000 C 
BRANCH   7   8
HETATM    8  C   UNL     1      11.944   3.645  91.598  1.00  0.00     0.000 A 
HETATM    9  C   UNL     1      11.686   4.128  90.314  1.00  0.00     0.000 A 
HETATM   10  C   UNL     1      10.738   5.133  90.125  1.00  0.00     0.000 A 
HETATM   11  C   UNL     1      10.047   5.654  91.219  1.00  0.00     0.000 A 
HETATM   12  C   UNL     1      10.304   5.172  92.501  1.00  0.00     0.000 A 
HETATM   13  C   UNL     1      11.252   4.167  92.691  1.00  0.00     0.000 A 
BRANCH  11  14
HETATM   14  C   UNL     1       9.074   6.684  91.024  1.00  0.00     0.000 C 
HETATM   15  C   UNL     1       8.255   7.550  90.860  1.00  0.00     0.000 C 
BRANCH  15  16
HETATM   16  C   UNL     1       7.282   8.579  90.665  1.00  0.00     0.000 A 
HETATM   17  C   UNL     1       7.351   9.754  91.414  1.00  0.00     0.000 A 
HETATM   18  C   UNL     1       6.403  10.759  91.221  1.00  0.00     0.000 A 
HETATM   19  C   UNL     1       5.409  10.566  90.285  1.00  0.00     0.000 A 
HETATM   20  C   UNL     1       5.318   9.414  89.533  1.00  0.00     0.000 A 
HETATM   21  C   UNL     1       6.266   8.408  89.725  1.00  0.00     0.000 A 
BRANCH  19  22
HETATM   22  C   UNL     1       4.398  11.636  90.082  1.00  0.00     0.000 C 
HETATM   23  O   UNL     1       3.594  11.534  89.158  1.00  0.00     0.000 OA
HETATM   24  N   UNL     1       4.428  12.683  90.993  1.00  0.00     0.000 N 
HETATM   25  HN  UNL     1       5.106  12.687  91.746  1.00  0.00     0.000 HD
BRANCH  24  26
HETATM   26  C   UNL     1       3.498  13.782  90.943  1.00  0.00     0.000 C 
BRANCH  26  27
HETATM   27  C   UNL     1       2.292  13.582  91.870  1.00  0.00     0.000 C 
HETATM   28  C   UNL     1       2.682  12.968  93.210  1.00  0.00     0.000 C 
BRANCH  27  29
HETATM   29  O   UNL     1       1.655  14.837  92.103  1.00  0.00     0.000 OA
HETATM   30  H   UNL     1       0.869  14.683  92.653  1.00  0.00     0.000 HD
ENDBRANCH  27  29
ENDBRANCH  26  27
BRANCH  26  31
HETATM   31  C   UNL     1       4.262  15.055  91.294  1.00  0.00     0.000 C 
HETATM   32  O   UNL     1       4.302  15.519  92.431  1.00  0.00     0.000 OA
BRANCH  31  33
HETATM   33  P   UNL     1       4.854  15.625  90.193  1.00  0.00     0.000 P 
HETATM   34  H   UNL     1       4.083  16.704  89.810  1.00  0.00     0.000 HD
BRANCH  33  35
HETATM   35  O   UNL     1       5.004  14.787  89.079  1.00  0.00     0.000 OA
HETATM   36  H   UNL     1       5.919  14.485  89.210  1.00  0.00     0.000 HD
ENDBRANCH  33  35
ENDBRANCH  31  33
ENDBRANCH  26  31
ENDBRANCH  24  26
ENDBRANCH  19  22
ENDBRANCH  15  16
ENDBRANCH  11  14
ENDBRANCH   7   8
ENDBRANCH   2   7
TORSDOF 11
ENDMDL
MODEL 2
REMARK VINA RESULT:      -6.5      0.652      1.568
REMARK  11 active torsions:
REMARK  status: ('A' for Active; 'I' for Inactive)
REMARK    1  A    between atoms: O_2  and  C_18 
REMARK    2  A    between atoms: O_5  and  P_8 
REMARK    3  A    between atoms: N_6  and  C_11 
REMARK    4  A    between atoms: N_7  and  C_15 
REMARK       I    between atoms: N_7  and  C_24 
REMARK    5  A    between atoms: P_8  and  C_23 
REMARK    6  A    between atoms: C_11  and  C_14 
REMARK    7  A    between atoms: C_15  and  C_18 
REMARK    8  A    between atoms: C_15  and  C_23 
REMARK    9  A    between atoms: C_21  and  C_26 
REMARK   10  A    between atoms: C_24  and  C_25 
REMARK   11  A    between atoms: C_29  and  C_32 
ROOT
HETATM    1  O   UNL     1      16.002   3.966  94.120  1.00  0.00     0.000 OA
HETATM    2  N   UNL     1      14.264   2.603  92.323  1.00  0.00     0.000 N 
HETATM    3  C   UNL     1      14.276   4.070  92.416  1.00  0.00     0.000 C 
HETATM    4  C   UNL     1      14.653   2.015  93.612  1.00  0.00     0.000 C 
HETATM    5  C   UNL     1      15.656   4.549  92.861  1.00  0.00     0.000 C 
HETATM    6  C   UNL     1      16.022   2.541  94.030  1.00  0.00     0.000 C 
ENDROOT
BRANCH   2   7
HETATM    7  C   UNL     1      12.948   2.122  91.908  1.00  0.00     0.000 C 
BRANCH   7   8
HETATM    8  C   UNL     1      12.000   3.236  91.621  1.00  0.00     0.000 A 
HETATM    9  C   UNL     1      11.309   3.849  92.667  1.00  0.00     0.000 A 
HETATM   10  C   UNL     1      10.420   4.890  92.399  1.00  0.00     0.000 A 
HETATM   11  C   UNL     1      10.225   5.319  91.087  1.00  0.00     0.000 A 
HETATM   12  C   UNL     1      10.915   4.708  90.042  1.00  0.00     0.000 A 
HETATM   13  C   UNL     1      11.803   3.666  90.309  1.00  0.00     0.000 A 
BRANCH  11  14
HETATM   14  C   UNL     1       9.315   6.388  90.813  1.00  0.00     0.000 C 
HETATM   15  C   UNL     1       8.550   7.287  90.584  1.00  0.00     0.000 C 
BRANCH  15  16
HETATM   16  C   UNL     1       7.641   8.357  90.310  1.00  0.00     0.000 A 
HETATM   17  C   UNL     1       6.344   8.075  89.879  1.00  0.00     0.000 A 
HETATM   18  C   UNL     1       5.457   9.119  89.615  1.00  0.00     0.000 A 
HETATM   19  C   UNL     1       5.886  10.418  89.788  1.00  0.00     0.000 A 
HETATM   20  C   UNL     1       7.162  10.722  90.212  1.00  0.00     0.000 A 
HETATM   21  C   UNL     1       8.050   9.680  90.477  1.00  0.00     0.000 A 
BRANCH  19  22
HETATM   22  C   UNL     1       4.940  11.529  89.504  1.00  0.00     0.000 C 
HETATM   23  O   UNL     1       4.498  11.664  88.366  1.00  0.00     0.000 OA
HETATM   24  N   UNL     1       4.606  12.334  90.584  1.00  0.00     0.000 N 
HETATM   25  HN  UNL     1       4.992  12.146  91.502  1.00  0.00     0.000 HD
BRANCH  24  26
HETATM   26  C   UNL     1       3.684  13.435  90.475  1.00  0.00     0.000 C 
BRANCH  26  27
HETATM   27  C   UNL     1       2.405  13.223  91.295  1.00  0.00     0.000 C 
HETATM   28  C   UNL     1       2.653  12.416  92.564  1.00  0.00     0.000 C 
BRANCH  27  29
HETATM   29  O   UNL     1       1.852  14.490  91.651  1.00  0.00     0.000 OA
HETATM   30  H   UNL     1       2.584  15.112  91.800  1.00  0.00     0.000 HD
ENDBRANCH  27  29
ENDBRANCH  26  27
BRANCH  26  31
HETATM   31  C   UNL     1       4.417  14.701  90.907  1.00  0.00     0.000 C 
HETATM   32  O   UNL     1       4.449  15.091  92.073  1.00  0.00     0.000 OA
BRANCH  31  33
HETATM   33  P   UNL     1       4.992  15.356  89.846  1.00  0.00     0.000 P 
HETATM   34  H   UNL     1       4.321  16.550  89.672  1.00  0.00     0.000 HD
BRANCH  33  35
HETATM   35  O   UNL     1       4.974  14.671  88.623  1.00  0.00     0.000 OA
HETATM   36  H   UNL     1       5.822  14.962  88.247  1.00  0.00     0.000 HD
ENDBRANCH  33  35
ENDBRANCH  31  33
ENDBRANCH  26  31
ENDBRANCH  24  26
ENDBRANCH  19  22
ENDBRANCH  15  16
ENDBRANCH  11  14
ENDBRANCH   7   8
ENDBRANCH   2   7
TORSDOF 11
ENDMDL
MODEL 3
REMARK VINA RESULT:      -5.6      1.333      1.735
REMARK  11 active torsions:
REMARK  status: ('A' for Active; 'I' for Inactive)
REMARK    1  A    between atoms: O_2  and  C_18 
REMARK    2  A    between atoms: O_5  and  P_8 
REMARK    3  A    between atoms: N_6  and  C_11 
REMARK    4  A    between atoms: N_7  and  C_15 
REMARK       I    between atoms: N_7  and  C_24 
REMARK    5  A    between atoms: P_8  and  C_23 
REMARK    6  A    between atoms: C_11  and  C_14 
REMARK    7  A    between atoms: C_15  and  C_18 
REMARK    8  A    between atoms: C_15  and  C_23 
REMARK    9  A    between atoms: C_21  and  C_26 
REMARK   10  A    between atoms: C_24  and  C_25 
REMARK   11  A    between atoms: C_29  and  C_32 
ROOT
HETATM    1  O   UNL     1      16.382   3.178  93.835  1.00  0.00     0.000 OA
HETATM    2  N   UNL     1      13.802   3.098  92.635  1.00  0.00     0.000 N 
HETATM    3  C   UNL     1      14.545   1.868  92.940  1.00  0.00     0.000 C 
HETATM    4  C   UNL     1      14.738   4.200  92.373  1.00  0.00     0.000 C 
HETATM    5  C   UNL     1      15.479   2.108  94.123  1.00  0.00     0.000 C 
HETATM    6  C   UNL     1      15.667   4.385  93.568  1.00  0.00     0.000 C 
ENDROOT
BRANCH   2   7
HETATM    7  C   UNL     1      12.907   2.894  91.497  1.00  0.00     0.000 C 
BRANCH   7   8
HETATM    8  C   UNL     1      11.742   3.823  91.516  1.00  0.00     0.000 A 
HETATM    9  C   UNL     1      11.216   4.255  92.735  1.00  0.00     0.000 A 
HETATM   10  C   UNL     1      10.124   5.123  92.754  1.00  0.00     0.000 A 
HETATM   11  C   UNL     1       9.561   5.560  91.556  1.00  0.00     0.000 A 
HETATM   12  C   UNL     1      10.085   5.129  90.339  1.00  0.00     0.000 A 
HETATM   13  C   UNL     1      11.177   4.261  90.319  1.00  0.00     0.000 A 
BRANCH  11  14
HETATM   14  C   UNL     1       8.442   6.452  91.576  1.00  0.00     0.000 C 
HETATM   15  C   UNL     1       7.502   7.202  91.593  1.00  0.00     0.000 C 
BRANCH  15  16
HETATM   16  C   UNL     1       6.385   8.094  91.613  1.00  0.00     0.000 A 
HETATM   17  C   UNL     1       6.592   9.466  91.760  1.00  0.00     0.000 A 
HETATM   18  C   UNL     1       5.502  10.336  91.777  1.00  0.00     0.000 A 
HETATM   19  C   UNL     1       4.232   9.816  91.646  1.00  0.00     0.000 A 
HETATM   20  C   UNL     1       4.001   8.464  91.499  1.00  0.00     0.000 A 
HETATM   21  C   UNL     1       5.090   7.593  91.483  1.00  0.00     0.000 A 
BRANCH  19  22
HETATM   22  C   UNL     1       3.071  10.743  91.665  1.00  0.00     0.000 C 
HETATM   23  O   UNL     1       1.941  10.294  91.486  1.00  0.00     0.000 OA
HETATM   24  N   UNL     1       3.362  12.077  91.916  1.00  0.00     0.000 N 
HETATM   25  HN  UNL     1       4.318  12.371  92.080  1.00  0.00     0.000 HD
BRANCH  24  26
HETATM   26  C   UNL     1       2.343  13.092  91.991  1.00  0.00     0.000 C 
BRANCH  26  27
HETATM   27  C   UNL     1       2.408  13.904  93.291  1.00  0.00     0.000 C 
HETATM   28  C   UNL     1       3.798  13.893  93.917  1.00  0.00     0.000 C 
BRANCH  27  29
HETATM   29  O   UNL     1       2.027  15.254  93.031  1.00  0.00     0.000 OA
HETATM   30  H   UNL     1       2.545  15.835  93.614  1.00  0.00     0.000 HD
ENDBRANCH  27  29
ENDBRANCH  26  27
BRANCH  26  31
HETATM   31  C   UNL     1       2.491  13.992  90.768  1.00  0.00     0.000 C 
HETATM   32  O   UNL     1       1.580  14.701  90.345  1.00  0.00     0.000 OA
BRANCH  31  33
HETATM   33  P   UNL     1       3.732  13.881  90.190  1.00  0.00     0.000 P 
HETATM   34  H   UNL     1       4.141  12.569  90.313  1.00  0.00     0.000 HD
BRANCH  33  35
HETATM   35  O   UNL     1       4.734  14.696  90.735  1.00  0.00     0.000 OA
HETATM   36  H   UNL     1       4.848  15.339  90.014  1.00  0.00     0.000 HD
ENDBRANCH  33  35
ENDBRANCH  31  33
ENDBRANCH  26  31
ENDBRANCH  24  26
ENDBRANCH  19  22
ENDBRANCH  15  16
ENDBRANCH  11  14
ENDBRANCH   7   8
ENDBRANCH   2   7
TORSDOF 11
ENDMDL
MODEL 4
REMARK VINA RESULT:      -5.4      1.668      2.368
REMARK  11 active torsions:
REMARK  status: ('A' for Active; 'I' for Inactive)
REMARK    1  A    between atoms: O_2  and  C_18 
REMARK    2  A    between atoms: O_5  and  P_8 
REMARK    3  A    between atoms: N_6  and  C_11 
REMARK    4  A    between atoms: N_7  and  C_15 
REMARK       I    between atoms: N_7  and  C_24 
REMARK    5  A    between atoms: P_8  and  C_23 
REMARK    6  A    between atoms: C_11  and  C_14 
REMARK    7  A    between atoms: C_15  and  C_18 
REMARK    8  A    between atoms: C_15  and  C_23 
REMARK    9  A    between atoms: C_21  and  C_26 
REMARK   10  A    between atoms: C_24  and  C_25 
REMARK   11  A    between atoms: C_29  and  C_32 
ROOT
HETATM    1  O   UNL     1      16.986   3.601  93.624  1.00  0.00     0.000 OA
HETATM    2  N   UNL     1      14.192   3.226  93.234  1.00  0.00     0.000 N 
HETATM    3  C   UNL     1      15.123   2.089  93.257  1.00  0.00     0.000 C 
HETATM    4  C   UNL     1      14.880   4.431  92.752  1.00  0.00     0.000 C 
HETATM    5  C   UNL     1      16.334   2.432  94.122  1.00  0.00     0.000 C 
HETATM    6  C   UNL     1      16.096   4.718  93.627  1.00  0.00     0.000 C 
ENDROOT
BRANCH   2   7
HETATM    7  C   UNL     1      13.028   2.924  92.402  1.00  0.00     0.000 C 
BRANCH   7   8
HETATM    8  C   UNL     1      11.974   3.974  92.496  1.00  0.00     0.000 A 
HETATM    9  C   UNL     1      11.542   4.416  93.747  1.00  0.00     0.000 A 
HETATM   10  C   UNL     1      10.555   5.397  93.837  1.00  0.00     0.000 A 
HETATM   11  C   UNL     1      10.002   5.937  92.676  1.00  0.00     0.000 A 
HETATM   12  C   UNL     1      10.433   5.496  91.427  1.00  0.00     0.000 A 
HETATM   13  C   UNL     1      11.419   4.515  91.336  1.00  0.00     0.000 A 
BRANCH  11  14
HETATM   14  C   UNL     1       8.991   6.945  92.769  1.00  0.00     0.000 C 
HETATM   15  C   UNL     1       8.140   7.791  92.846  1.00  0.00     0.000 C 
BRANCH  15  16
HETATM   16  C   UNL     1       7.129   8.798  92.940  1.00  0.00     0.000 A 
HETATM   17  C   UNL     1       6.248   8.801  94.021  1.00  0.00     0.000 A 
HETATM   18  C   UNL     1       5.263   9.786  94.113  1.00  0.00     0.000 A 
HETATM   19  C   UNL     1       5.183  10.743  93.123  1.00  0.00     0.000 A 
HETATM   20  C   UNL     1       6.042  10.761  92.045  1.00  0.00     0.000 A 
HETATM   21  C   UNL     1       7.027   9.777  91.952  1.00  0.00     0.000 A 
BRANCH  19  22
HETATM   22  C   UNL     1       4.133  11.790  93.221  1.00  0.00     0.000 C 
HETATM   23  O   UNL     1       3.268  11.693  94.088  1.00  0.00     0.000 OA
HETATM   24  N   UNL     1       4.231  12.836  92.314  1.00  0.00     0.000 N 
HETATM   25  HN  UNL     1       4.988  12.862  91.641  1.00  0.00     0.000 HD
BRANCH  24  26
HETATM   26  C   UNL     1       3.303  13.938  92.298  1.00  0.00     0.000 C 
BRANCH  26  27
HETATM   27  C   UNL     1       3.963  15.274  92.660  1.00  0.00     0.000 C 
HETATM   28  C   UNL     1       4.554  15.271  94.066  1.00  0.00     0.000 C 
BRANCH  27  29
HETATM   29  O   UNL     1       4.999  15.565  91.723  1.00  0.00     0.000 OA
HETATM   30  H   UNL     1       4.597  15.996  90.949  1.00  0.00     0.000 HD
ENDBRANCH  27  29
ENDBRANCH  26  27
BRANCH  26  31
HETATM   31  C   UNL     1       2.667  13.991  90.913  1.00  0.00     0.000 C 
HETATM   32  O   UNL     1       1.586  14.535  90.693  1.00  0.00     0.000 OA
BRANCH  31  33
HETATM   33  P   UNL     1       3.420  13.335  89.970  1.00  0.00     0.000 P 
HETATM   34  H   UNL     1       4.210  12.413  90.626  1.00  0.00     0.000 HD
BRANCH  33  35
HETATM   35  O   UNL     1       4.260  14.142  89.189  1.00  0.00     0.000 OA
HETATM   36  H   UNL     1       3.608  14.541  88.588  1.00  0.00     0.000 HD
ENDBRANCH  33  35
ENDBRANCH  31  33
ENDBRANCH  26  31
ENDBRANCH  24  26
ENDBRANCH  19  22
ENDBRANCH  15  16
ENDBRANCH  11  14
ENDBRANCH   7   8
ENDBRANCH   2   7
TORSDOF 11
ENDMDL
MODEL 5
REMARK VINA RESULT:      -5.3      3.486     12.458
REMARK  11 active torsions:
REMARK  status: ('A' for Active; 'I' for Inactive)
REMARK    1  A    between atoms: O_2  and  C_18 
REMARK    2  A    between atoms: O_5  and  P_8 
REMARK    3  A    between atoms: N_6  and  C_11 
REMARK    4  A    between atoms: N_7  and  C_15 
REMARK       I    between atoms: N_7  and  C_24 
REMARK    5  A    between atoms: P_8  and  C_23 
REMARK    6  A    between atoms: C_11  and  C_14 
REMARK    7  A    between atoms: C_15  and  C_18 
REMARK    8  A    between atoms: C_15  and  C_23 
REMARK    9  A    between atoms: C_21  and  C_26 
REMARK   10  A    between atoms: C_24  and  C_25 
REMARK   11  A    between atoms: C_29  and  C_32 
ROOT
HETATM    1  O   UNL     1       2.835  14.821  94.006  1.00  0.00     0.000 OA
HETATM    2  N   UNL     1       2.547  14.765  91.175  1.00  0.00     0.000 N 
HETATM    3  C   UNL     1       1.619  14.042  92.056  1.00  0.00     0.000 C 
HETATM    4  C   UNL     1       3.867  14.869  91.812  1.00  0.00     0.000 C 
HETATM    5  C   UNL     1       1.539  14.743  93.409  1.00  0.00     0.000 C 
HETATM    6  C   UNL     1       3.735  15.549  93.171  1.00  0.00     0.000 C 
ENDROOT
BRANCH   2   7
HETATM    7  C   UNL     1       2.647  14.104  89.875  1.00  0.00     0.000 C 
BRANCH   7   8
HETATM    8  C   UNL     1       3.652  13.003  89.874  1.00  0.00     0.000 A 
HETATM    9  C   UNL     1       3.337  11.773  90.453  1.00  0.00     0.000 A 
HETATM   10  C   UNL     1       4.277  10.742  90.454  1.00  0.00     0.000 A 
HETATM   11  C   UNL     1       5.530  10.941  89.875  1.00  0.00     0.000 A 
HETATM   12  C   UNL     1       5.845  12.169  89.296  1.00  0.00     0.000 A 
HETATM   13  C   UNL     1       4.906  13.200  89.295  1.00  0.00     0.000 A 
BRANCH  11  14
HETATM   14  C   UNL     1       6.493   9.883  89.874  1.00  0.00     0.000 C 
HETATM   15  C   UNL     1       7.302   8.993  89.874  1.00  0.00     0.000 C 
BRANCH  15  16
HETATM   16  C   UNL     1       8.264   7.936  89.873  1.00  0.00     0.000 A 
HETATM   17  C   UNL     1       8.972   7.640  88.708  1.00  0.00     0.000 A 
HETATM   18  C   UNL     1       9.913   6.610  88.708  1.00  0.00     0.000 A 
HETATM   19  C   UNL     1      10.124   5.900  89.871  1.00  0.00     0.000 A 
HETATM   20  C   UNL     1       9.436   6.172  91.035  1.00  0.00     0.000 A 
HETATM   21  C   UNL     1       8.495   7.202  91.036  1.00  0.00     0.000 A 
BRANCH  19  22
HETATM   22  C   UNL     1      11.124   4.801  89.869  1.00  0.00     0.000 C 
HETATM   23  O   UNL     1      11.281   4.134  88.850  1.00  0.00     0.000 OA
HETATM   24  N   UNL     1      11.838   4.628  91.047  1.00  0.00     0.000 N 
HETATM   25  HN  UNL     1      11.672   5.234  91.842  1.00  0.00     0.000 HD
BRANCH  24  26
HETATM   26  C   UNL     1      12.859   3.622  91.194  1.00  0.00     0.000 C 
BRANCH  26  27
HETATM   27  C   UNL     1      14.180   4.190  91.727  1.00  0.00     0.000 C 
HETATM   28  C   UNL     1      15.214   3.103  92.004  1.00  0.00     0.000 C 
BRANCH  27  29
HETATM   29  O   UNL     1      14.720   5.112  90.780  1.00  0.00     0.000 OA
HETATM   30  H   UNL     1      14.115   5.869  90.713  1.00  0.00     0.000 HD
ENDBRANCH  27  29
ENDBRANCH  26  27
BRANCH  26  31
HETATM   31  C   UNL     1      12.312   2.534  92.113  1.00  0.00     0.000 C 
HETATM   32  O   UNL     1      12.512   1.335  91.925  1.00  0.00     0.000 OA
BRANCH  31  33
HETATM   33  P   UNL     1      11.552   3.051  93.133  1.00  0.00     0.000 P 
HETATM   34  H   UNL     1      10.407   3.587  92.578  1.00  0.00     0.000 HD
BRANCH  33  35
HETATM   35  O   UNL     1      12.163   4.049  93.905  1.00  0.00     0.000 OA
HETATM   36  H   UNL     1      13.092   3.767  93.851  1.00  0.00     0.000 HD
ENDBRANCH  33  35
ENDBRANCH  31  33
ENDBRANCH  26  31
ENDBRANCH  24  26
ENDBRANCH  19  22
ENDBRANCH  15  16
ENDBRANCH  11  14
ENDBRANCH   7   8
ENDBRANCH   2   7
TORSDOF 11
ENDMDL
MODEL 6
REMARK VINA RESULT:      -5.1      1.294      2.118
REMARK  11 active torsions:
REMARK  status: ('A' for Active; 'I' for Inactive)
REMARK    1  A    between atoms: O_2  and  C_18 
REMARK    2  A    between atoms: O_5  and  P_8 
REMARK    3  A    between atoms: N_6  and  C_11 
REMARK    4  A    between atoms: N_7  and  C_15 
REMARK       I    between atoms: N_7  and  C_24 
REMARK    5  A    between atoms: P_8  and  C_23 
REMARK    6  A    between atoms: C_11  and  C_14 
REMARK    7  A    between atoms: C_15  and  C_18 
REMARK    8  A    between atoms: C_15  and  C_23 
REMARK    9  A    between atoms: C_21  and  C_26 
REMARK   10  A    between atoms: C_24  and  C_25 
REMARK   11  A    between atoms: C_29  and  C_32 
ROOT
HETATM    1  O   UNL     1      16.431   2.653  93.264  1.00  0.00     0.000 OA
HETATM    2  N   UNL     1      13.624   2.713  92.798  1.00  0.00     0.000 N 
HETATM    3  C   UNL     1      14.284   1.526  93.359  1.00  0.00     0.000 C 
HETATM    4  C   UNL     1      14.561   3.454  91.942  1.00  0.00     0.000 C 
HETATM    5  C   UNL     1      15.537   1.944  94.124  1.00  0.00     0.000 C 
HETATM    6  C   UNL     1      15.807   3.825  92.739  1.00  0.00     0.000 C 
ENDROOT
BRANCH   2   7
HETATM    7  C   UNL     1      12.425   2.335  92.051  1.00  0.00     0.000 C 
BRANCH   7   8
HETATM    8  C   UNL     1      11.455   3.460  91.928  1.00  0.00     0.000 A 
HETATM    9  C   UNL     1      11.285   4.353  92.987  1.00  0.00     0.000 A 
HETATM   10  C   UNL     1      10.375   5.404  92.874  1.00  0.00     0.000 A 
HETATM   11  C   UNL     1       9.637   5.563  91.701  1.00  0.00     0.000 A 
HETATM   12  C   UNL     1       9.806   4.672  90.643  1.00  0.00     0.000 A 
HETATM   13  C   UNL     1      10.715   3.620  90.756  1.00  0.00     0.000 A 
BRANCH  11  14
HETATM   14  C   UNL     1       8.706   6.643  91.584  1.00  0.00     0.000 C 
HETATM   15  C   UNL     1       7.924   7.550  91.486  1.00  0.00     0.000 C 
BRANCH  15  16
HETATM   16  C   UNL     1       6.993   8.630  91.369  1.00  0.00     0.000 A 
HETATM   17  C   UNL     1       7.104   9.739  92.207  1.00  0.00     0.000 A 
HETATM   18  C   UNL     1       6.198  10.793  92.091  1.00  0.00     0.000 A 
HETATM   19  C   UNL     1       5.203  10.715  91.139  1.00  0.00     0.000 A 
HETATM   20  C   UNL     1       5.072   9.629  90.299  1.00  0.00     0.000 A 
HETATM   21  C   UNL     1       5.977   8.574  90.415  1.00  0.00     0.000 A 
BRANCH  19  22
HETATM   22  C   UNL     1       4.237  11.837  91.017  1.00  0.00     0.000 C 
HETATM   23  O   UNL     1       3.146  11.634  90.489  1.00  0.00     0.000 OA
HETATM   24  N   UNL     1       4.647  13.053  91.545  1.00  0.00     0.000 N 
HETATM   25  HN  UNL     1       5.554  13.139  91.989  1.00  0.00     0.000 HD
BRANCH  24  26
HETATM   26  C   UNL     1       3.814  14.228  91.525  1.00  0.00     0.000 C 
BRANCH  26  27
HETATM   27  C   UNL     1       3.668  14.829  90.121  1.00  0.00     0.000 C 
HETATM   28  C   UNL     1       5.011  15.208  89.506  1.00  0.00     0.000 C 
BRANCH  27  29
HETATM   29  O   UNL     1       3.016  13.891  89.265  1.00  0.00     0.000 OA
HETATM   30  H   UNL     1       3.657  13.201  89.024  1.00  0.00     0.000 HD
ENDBRANCH  27  29
ENDBRANCH  26  27
BRANCH  26  31
HETATM   31  C   UNL     1       2.457  13.847  92.108  1.00  0.00     0.000 C 
HETATM   32  O   UNL     1       1.476  13.592  91.411  1.00  0.00     0.000 OA
BRANCH  31  33
HETATM   33  P   UNL     1       2.460  13.862  93.482  1.00  0.00     0.000 P 
HETATM   34  H   UNL     1       1.391  14.630  93.898  1.00  0.00     0.000 HD
BRANCH  33  35
HETATM   35  O   UNL     1       3.618  14.374  94.084  1.00  0.00     0.000 OA
HETATM   36  H   UNL     1       3.228  15.052  94.662  1.00  0.00     0.000 HD
ENDBRANCH  33  35
ENDBRANCH  31  33
ENDBRANCH  26  31
ENDBRANCH  24  26
ENDBRANCH  19  22
ENDBRANCH  15  16
ENDBRANCH  11  14
ENDBRANCH   7   8
ENDBRANCH   2   7
TORSDOF 11
ENDMDL
MODEL 7
REMARK VINA RESULT:      -4.2      3.313     12.651
REMARK  11 active torsions:
REMARK  status: ('A' for Active; 'I' for Inactive)
REMARK    1  A    between atoms: O_2  and  C_18 
REMARK    2  A    between atoms: O_5  and  P_8 
REMARK    3  A    between atoms: N_6  and  C_11 
REMARK    4  A    between atoms: N_7  and  C_15 
REMARK       I    between atoms: N_7  and  C_24 
REMARK    5  A    between atoms: P_8  and  C_23 
REMARK    6  A    between atoms: C_11  and  C_14 
REMARK    7  A    between atoms: C_15  and  C_18 
REMARK    8  A    between atoms: C_15  and  C_23 
REMARK    9  A    between atoms: C_21  and  C_26 
REMARK   10  A    between atoms: C_24  and  C_25 
REMARK   11  A    between atoms: C_29  and  C_32 
ROOT
HETATM    1  O   UNL     1       5.416  14.569  89.105  1.00  0.00     0.000 OA
HETATM    2  N   UNL     1       3.900  12.761  90.697  1.00  0.00     0.000 N 
HETATM    3  C   UNL     1       4.158  14.140  91.135  1.00  0.00     0.000 C 
HETATM    4  C   UNL     1       4.994  12.295  89.834  1.00  0.00     0.000 C 
HETATM    5  C   UNL     1       4.341  15.044  89.919  1.00  0.00     0.000 C 
HETATM    6  C   UNL     1       5.158  13.241  88.649  1.00  0.00     0.000 C 
ENDROOT
BRANCH   2   7
HETATM    7  C   UNL     1       3.731  11.876  91.848  1.00  0.00     0.000 C 
BRANCH   7   8
HETATM    8  C   UNL     1       4.789  10.828  91.918  1.00  0.00     0.000 A 
HETATM    9  C   UNL     1       6.056  11.149  92.407  1.00  0.00     0.000 A 
HETATM   10  C   UNL     1       7.047  10.170  92.471  1.00  0.00     0.000 A 
HETATM   11  C   UNL     1       6.771   8.870  92.048  1.00  0.00     0.000 A 
HETATM   12  C   UNL     1       5.506   8.549  91.559  1.00  0.00     0.000 A 
HETATM   13  C   UNL     1       4.515   9.527  91.494  1.00  0.00     0.000 A 
BRANCH  11  14
HETATM   14  C   UNL     1       7.788   7.866  92.116  1.00  0.00     0.000 C 
HETATM   15  C   UNL     1       8.641   7.021  92.173  1.00  0.00     0.000 C 
BRANCH  15  16
HETATM   16  C   UNL     1       9.657   6.017  92.240  1.00  0.00     0.000 A 
HETATM   17  C   UNL     1       9.884   5.182  91.146  1.00  0.00     0.000 A 
HETATM   18  C   UNL     1      10.877   4.204  91.211  1.00  0.00     0.000 A 
HETATM   19  C   UNL     1      11.619   4.083  92.367  1.00  0.00     0.000 A 
HETATM   20  C   UNL     1      11.413   4.895  93.463  1.00  0.00     0.000 A 
HETATM   21  C   UNL     1      10.420   5.874  93.399  1.00  0.00     0.000 A 
BRANCH  19  22
HETATM   22  C   UNL     1      12.674   3.040  92.437  1.00  0.00     0.000 C 
HETATM   23  O   UNL     1      12.394   1.882  92.138  1.00  0.00     0.000 OA
HETATM   24  N   UNL     1      13.935   3.475  92.821  1.00  0.00     0.000 N 
HETATM   25  HN  UNL     1      14.098   4.453  93.029  1.00  0.00     0.000 HD
BRANCH  24  26
HETATM   26  C   UNL     1      15.067   2.588  92.912  1.00  0.00     0.000 C 
BRANCH  26  27
HETATM   27  C   UNL     1      15.600   2.163  91.538  1.00  0.00     0.000 C 
HETATM   28  C   UNL     1      15.102   3.065  90.414  1.00  0.00     0.000 C 
BRANCH  27  29
HETATM   29  O   UNL     1      17.027   2.186  91.552  1.00  0.00     0.000 OA
HETATM   30  H   UNL     1      17.340   1.393  92.019  1.00  0.00     0.000 HD
ENDBRANCH  27  29
ENDBRANCH  26  27
BRANCH  26  31
HETATM   31  C   UNL     1      16.144   3.291  93.732  1.00  0.00     0.000 C 
HETATM   32  O   UNL     1      17.164   2.726  94.123  1.00  0.00     0.000 OA
BRANCH  31  33
HETATM   33  P   UNL     1      15.819   4.598  94.005  1.00  0.00     0.000 P 
HETATM   34  H   UNL     1      14.445   4.711  93.955  1.00  0.00     0.000 HD
BRANCH  33  35
HETATM   35  O   UNL     1      16.361   5.556  93.136  1.00  0.00     0.000 OA
HETATM   36  H   UNL     1      17.285   5.561  93.438  1.00  0.00     0.000 HD
ENDBRANCH  33  35
ENDBRANCH  31  33
ENDBRANCH  26  31
ENDBRANCH  24  26
ENDBRANCH  19  22
ENDBRANCH  15  16
ENDBRANCH  11  14
ENDBRANCH   7   8
ENDBRANCH   2   7
TORSDOF 11
ENDMDL
MODEL 8
REMARK VINA RESULT:      -4.1      3.531     12.563
REMARK  11 active torsions:
REMARK  status: ('A' for Active; 'I' for Inactive)
REMARK    1  A    between atoms: O_2  and  C_18 
REMARK    2  A    between atoms: O_5  and  P_8 
REMARK    3  A    between atoms: N_6  and  C_11 
REMARK    4  A    between atoms: N_7  and  C_15 
REMARK       I    between atoms: N_7  and  C_24 
REMARK    5  A    between atoms: P_8  and  C_23 
REMARK    6  A    between atoms: C_11  and  C_14 
REMARK    7  A    between atoms: C_15  and  C_18 
REMARK    8  A    between atoms: C_15  and  C_23 
REMARK    9  A    between atoms: C_21  and  C_26 
REMARK   10  A    between atoms: C_24  and  C_25 
REMARK   11  A    between atoms: C_29  and  C_32 
ROOT
HETATM    1  O   UNL     1       4.226  14.678  91.664  1.00  0.00     0.000 OA
HETATM    2  N   UNL     1       3.871  13.206  89.253  1.00  0.00     0.000 N 
HETATM    3  C   UNL     1       3.357  12.711  90.538  1.00  0.00     0.000 C 
HETATM    4  C   UNL     1       5.058  14.044  89.475  1.00  0.00     0.000 C 
HETATM    5  C   UNL     1       3.052  13.888  91.461  1.00  0.00     0.000 C 
HETATM    6  C   UNL     1       4.714  15.189  90.423  1.00  0.00     0.000 C 
ENDROOT
BRANCH   2   7
HETATM    7  C   UNL     1       4.181  12.095  88.356  1.00  0.00     0.000 C 
BRANCH   7   8
HETATM    8  C   UNL     1       5.137  11.125  88.962  1.00  0.00     0.000 A 
HETATM    9  C   UNL     1       4.761   9.792  89.137  1.00  0.00     0.000 A 
HETATM   10  C   UNL     1       5.654   8.885  89.706  1.00  0.00     0.000 A 
HETATM   11  C   UNL     1       6.923   9.309  90.098  1.00  0.00     0.000 A 
HETATM   12  C   UNL     1       7.300  10.639  89.924  1.00  0.00     0.000 A 
HETATM   13  C   UNL     1       6.407  11.548  89.355  1.00  0.00     0.000 A 
BRANCH  11  14
HETATM   14  C   UNL     1       7.840   8.378  90.679  1.00  0.00     0.000 C 
HETATM   15  C   UNL     1       8.611   7.595  91.169  1.00  0.00     0.000 C 
BRANCH  15  16
HETATM   16  C   UNL     1       9.527   6.664  91.751  1.00  0.00     0.000 A 
HETATM   17  C   UNL     1       9.864   6.771  93.100  1.00  0.00     0.000 A 
HETATM   18  C   UNL     1      10.756   5.861  93.668  1.00  0.00     0.000 A 
HETATM   19  C   UNL     1      11.288   4.865  92.876  1.00  0.00     0.000 A 
HETATM   20  C   UNL     1      10.970   4.739  91.540  1.00  0.00     0.000 A 
HETATM   21  C   UNL     1      10.079   5.649  90.970  1.00  0.00     0.000 A 
BRANCH  19  22
HETATM   22  C   UNL     1      12.239   3.897  93.481  1.00  0.00     0.000 C 
HETATM   23  O   UNL     1      11.799   2.910  94.066  1.00  0.00     0.000 OA
HETATM   24  N   UNL     1      13.587   4.182  93.312  1.00  0.00     0.000 N 
HETATM   25  HN  UNL     1      13.876   5.004  92.795  1.00  0.00     0.000 HD
BRANCH  24  26
HETATM   26  C   UNL     1      14.630   3.327  93.820  1.00  0.00     0.000 C 
BRANCH  26  27
HETATM   27  C   UNL     1      14.744   2.008  93.046  1.00  0.00     0.000 C 
HETATM   28  C   UNL     1      14.366   0.799  93.895  1.00  0.00     0.000 C 
BRANCH  27  29
HETATM   29  O   UNL     1      13.897   2.052  91.899  1.00  0.00     0.000 OA
HETATM   30  H   UNL     1      13.250   2.766  92.025  1.00  0.00     0.000 HD
ENDBRANCH  27  29
ENDBRANCH  26  27
BRANCH  26  31
HETATM   31  C   UNL     1      15.937   4.111  93.775  1.00  0.00     0.000 C 
HETATM   32  O   UNL     1      16.000   5.290  93.431  1.00  0.00     0.000 OA
BRANCH  31  33
HETATM   33  P   UNL     1      17.018   3.338  94.124  1.00  0.00     0.000 P 
HETATM   34  H   UNL     1      17.163   3.406  95.495  1.00  0.00     0.000 HD
BRANCH  33  35
HETATM   35  O   UNL     1      18.242   3.703  93.544  1.00  0.00     0.000 OA
HETATM   36  H   UNL     1      17.929   4.276  92.824  1.00  0.00     0.000 HD
ENDBRANCH  33  35
ENDBRANCH  31  33
ENDBRANCH  26  31
ENDBRANCH  24  26
ENDBRANCH  19  22
ENDBRANCH  15  16
ENDBRANCH  11  14
ENDBRANCH   7   8
ENDBRANCH   2   7
TORSDOF 11
ENDMDL
MODEL 9
REMARK VINA RESULT:      -3.9      3.713     12.602
REMARK  11 active torsions:
REMARK  status: ('A' for Active; 'I' for Inactive)
REMARK    1  A    between atoms: O_2  and  C_18 
REMARK    2  A    between atoms: O_5  and  P_8 
REMARK    3  A    between atoms: N_6  and  C_11 
REMARK    4  A    between atoms: N_7  and  C_15 
REMARK       I    between atoms: N_7  and  C_24 
REMARK    5  A    between atoms: P_8  and  C_23 
REMARK    6  A    between atoms: C_11  and  C_14 
REMARK    7  A    between atoms: C_15  and  C_18 
REMARK    8  A    between atoms: C_15  and  C_23 
REMARK    9  A    between atoms: C_21  and  C_26 
REMARK   10  A    between atoms: C_24  and  C_25 
REMARK   11  A    between atoms: C_29  and  C_32 
ROOT
HETATM    1  O   UNL     1       3.766  14.879  90.154  1.00  0.00     0.000 OA
HETATM    2  N   UNL     1       2.702  13.935  92.619  1.00  0.00     0.000 N 
HETATM    3  C   UNL     1       4.067  14.472  92.527  1.00  0.00     0.000 C 
HETATM    4  C   UNL     1       2.306  13.343  91.334  1.00  0.00     0.000 C 
HETATM    5  C   UNL     1       4.148  15.486  91.389  1.00  0.00     0.000 C 
HETATM    6  C   UNL     1       2.429  14.382  90.225  1.00  0.00     0.000 C 
ENDROOT
BRANCH   2   7
HETATM    7  C   UNL     1       2.604  12.953  93.697  1.00  0.00     0.000 C 
BRANCH   7   8
HETATM    8  C   UNL     1       3.641  11.887  93.591  1.00  0.00     0.000 A 
HETATM    9  C   UNL     1       3.338  10.681  92.958  1.00  0.00     0.000 A 
HETATM   10  C   UNL     1       4.307   9.683  92.860  1.00  0.00     0.000 A 
HETATM   11  C   UNL     1       5.579   9.892  93.392  1.00  0.00     0.000 A 
HETATM   12  C   UNL     1       5.882  11.096  94.024  1.00  0.00     0.000 A 
HETATM   13  C   UNL     1       4.913  12.094  94.123  1.00  0.00     0.000 A 
BRANCH  11  14
HETATM   14  C   UNL     1       6.573   8.868  93.289  1.00  0.00     0.000 C 
HETATM   15  C   UNL     1       7.409   8.008  93.202  1.00  0.00     0.000 C 
BRANCH  15  16
HETATM   16  C   UNL     1       8.403   6.986  93.099  1.00  0.00     0.000 A 
HETATM   17  C   UNL     1       9.409   6.894  94.061  1.00  0.00     0.000 A 
HETATM   18  C   UNL     1      10.378   5.895  93.962  1.00  0.00     0.000 A 
HETATM   19  C   UNL     1      10.318   5.011  92.905  1.00  0.00     0.000 A 
HETATM   20  C   UNL     1       9.334   5.082  91.941  1.00  0.00     0.000 A 
HETATM   21  C   UNL     1       8.365   6.081  92.039  1.00  0.00     0.000 A 
BRANCH  19  22
HETATM   22  C   UNL     1      11.351   3.949  92.798  1.00  0.00     0.000 C 
HETATM   23  O   UNL     1      11.028   2.777  92.980  1.00  0.00     0.000 OA
HETATM   24  N   UNL     1      12.630   4.375  92.469  1.00  0.00     0.000 N 
HETATM   25  HN  UNL     1      12.818   5.358  92.309  1.00  0.00     0.000 HD
BRANCH  24  26
HETATM   26  C   UNL     1      13.734   3.463  92.305  1.00  0.00     0.000 C 
BRANCH  26  27
HETATM   27  C   UNL     1      14.493   3.680  90.990  1.00  0.00     0.000 C 
HETATM   28  C   UNL     1      13.666   3.297  89.768  1.00  0.00     0.000 C 
BRANCH  27  29
HETATM   29  O   UNL     1      14.875   5.051  90.880  1.00  0.00     0.000 OA
HETATM   30  H   UNL     1      15.000   5.258  89.939  1.00  0.00     0.000 HD
ENDBRANCH  27  29
ENDBRANCH  26  27
BRANCH  26  31
HETATM   31  C   UNL     1      14.654   3.624  93.510  1.00  0.00     0.000 C 
HETATM   32  O   UNL     1      15.121   4.708  93.856  1.00  0.00     0.000 OA
BRANCH  31  33
HETATM   33  P   UNL     1      14.921   2.424  94.124  1.00  0.00     0.000 P 
HETATM   34  H   UNL     1      16.019   2.602  94.942  1.00  0.00     0.000 HD
BRANCH  33  35
HETATM   35  O   UNL     1      15.194   1.348  93.267  1.00  0.00     0.000 OA
HETATM   36  H   UNL     1      15.124   0.606  93.892  1.00  0.00     0.000 HD
ENDBRANCH  33  35
ENDBRANCH  31  33
ENDBRANCH  26  31
ENDBRANCH  24  26
ENDBRANCH  19  22
ENDBRANCH  15  16
ENDBRANCH  11  14
ENDBRANCH   7   8
ENDBRANCH   2   7
TORSDOF 11
ENDMDL
