MODEL 1
REMARK VINA RESULT:      -7.3      0.000      0.000
REMARK  9 active torsions:
REMARK  status: ('A' for Active; 'I' for Inactive)
REMARK    1  A    between atoms: O_2  and  C_17 
REMARK    2  A    between atoms: N_5  and  C_10 
REMARK    3  A    between atoms: N_6  and  C_14 
REMARK       I    between atoms: N_6  and  C_23 
REMARK       I    between atoms: N_7  and  C_22 
REMARK    4  A    between atoms: C_10  and  C_13 
REMARK    5  A    between atoms: C_14  and  C_17 
REMARK    6  A    between atoms: C_14  and  C_22 
REMARK    7  A    between atoms: C_20  and  C_25 
REMARK    8  A    between atoms: C_23  and  C_24 
REMARK    9  A    between atoms: C_28  and  C_31 
ROOT
HETATM    1  O   UNL     1      16.390   4.115  94.124  1.00  0.00    -0.388 OA
HETATM    2  N   UNL     1      14.588   2.557  92.566  1.00  0.00     0.096 N 
HETATM    3  C   UNL     1      14.530   4.025  92.567  1.00  0.00     0.299 C 
HETATM    4  C   UNL     1      15.109   2.072  93.851  1.00  0.00     0.299 C 
HETATM    5  C   UNL     1      15.914   4.597  92.866  1.00  0.00     0.198 C 
HETATM    6  C   UNL     1      16.478   2.689  94.120  1.00  0.00     0.198 C 
ENDROOT
BRANCH   2   7
HETATM    7  C   UNL     1      13.269   1.987  92.292  1.00  0.00     0.311 C 
BRANCH   7   8
HETATM    8  C   UNL     1      12.275   3.023  91.891  1.00  0.00    -0.030 A 
HETATM    9  C   UNL     1      12.192   3.430  90.558  1.00  0.00     0.010 A 
HETATM   10  C   UNL     1      11.264   4.401  90.182  1.00  0.00     0.021 A 
HETATM   11  C   UNL     1      10.418   4.963  91.138  1.00  0.00     0.018 A 
HETATM   12  C   UNL     1      10.500   4.557  92.469  1.00  0.00     0.021 A 
HETATM   13  C   UNL     1      11.428   3.587  92.845  1.00  0.00     0.010 A 
BRANCH  11  14
HETATM   14  C   UNL     1       9.465   5.957  90.752  1.00  0.00    -0.061 C 
HETATM   15  C   UNL     1       8.663   6.792  90.427  1.00  0.00    -0.061 C 
BRANCH  15  16
HETATM   16  C   UNL     1       7.709   7.785  90.042  1.00  0.00     0.018 A 
HETATM   17  C   UNL     1       6.487   7.400  89.489  1.00  0.00     0.022 A 
HETATM   18  C   UNL     1       5.556   8.369  89.115  1.00  0.00     0.018 A 
HETATM   19  C   UNL     1       5.867   9.699  89.304  1.00  0.00     0.032 A 
HETATM   20  C   UNL     1       7.067  10.105  89.848  1.00  0.00     0.018 A 
HETATM   21  C   UNL     1       7.999   9.137  90.221  1.00  0.00     0.022 A 
BRANCH  19  22
HETATM   22  C   UNL     1       4.875  10.731  88.904  1.00  0.00     0.252 C 
HETATM   23  O   UNL     1       4.073  10.477  88.009  1.00  0.00    -0.268 OA
HETATM   24  N   UNL     1       4.921  11.925  89.611  1.00  0.00    -0.342 N 
HETATM   25  H   UNL     1       5.596  12.054  90.356  1.00  0.00     0.163 HD
BRANCH  24  26
HETATM   26  C   UNL     1       4.010  13.012  89.357  1.00  0.00     0.199 C 
BRANCH  26  27
HETATM   27  C   UNL     1       3.494  13.667  90.645  1.00  0.00     0.145 C 
HETATM   28  C   UNL     1       2.527  12.769  91.410  1.00  0.00     0.042 C 
BRANCH  27  29
HETATM   29  O   UNL     1       4.597  13.988  91.492  1.00  0.00    -0.393 OA
HETATM   30  H   UNL     1       5.187  14.591  91.009  1.00  0.00     0.210 HD
ENDBRANCH  27  29
ENDBRANCH  26  27
BRANCH  26  31
HETATM   31  C   UNL     1       4.727  14.023  88.470  1.00  0.00     0.220 C 
HETATM   32  O   UNL     1       5.022  15.156  88.848  1.00  0.00    -0.278 OA
HETATM   33  N   UNL     1       4.963  13.532  87.208  1.00  0.00    -0.271 NA
HETATM   34  H   UNL     1       4.656  12.641  86.837  1.00  0.00     0.127 HD
HETATM   35  H   UNL     1       4.339  13.891  86.003  1.00  0.00     0.127 HD
ENDBRANCH  26  31
ENDBRANCH  24  26
ENDBRANCH  19  22
ENDBRANCH  15  16
ENDBRANCH  11  14
ENDBRANCH   7   8
ENDBRANCH   2   7
TORSDOF 9
ENDMDL
