MODEL 1
REMARK VINA RESULT:      -6.3      0.000      0.000
REMARK  14 active torsions:
REMARK  status: ('A' for Active; 'I' for Inactive)
REMARK    1  A    between atoms: O_2  and  C_18 
REMARK    2  A    between atoms: C_5  and  C_8 
REMARK    3  A    between atoms: C_5  and  O_35 
REMARK    4  A    between atoms: C_5  and  C_36 
REMARK    5  A    between atoms: N_6  and  C_11 
REMARK    6  A    between atoms: N_7  and  C_15 
REMARK       I    between atoms: N_7  and  C_24 
REMARK    7  A    between atoms: C_8  and  C_23 
REMARK    8  A    between atoms: C_11  and  C_14 
REMARK    9  A    between atoms: C_15  and  C_18 
REMARK   10  A    between atoms: C_15  and  C_23 
REMARK   11  A    between atoms: C_21  and  C_26 
REMARK   12  A    between atoms: C_24  and  C_25 
REMARK   13  A    between atoms: C_29  and  C_32 
REMARK   14  A    between atoms: C_36  and  O_39 
ROOT
HETATM    1  O   UNL     1      16.489   2.868  93.360  1.00  0.00    -0.350 OA
HETATM    2  N   UNL     1      13.706   2.661  92.798  1.00  0.00     0.147 N 
HETATM    3  C   UNL     1      14.484   1.503  93.259  1.00  0.00     0.283 C 
HETATM    4  C   UNL     1      14.573   3.588  92.057  1.00  0.00     0.283 C 
HETATM    5  C   UNL     1      15.661   1.976  94.109  1.00  0.00     0.178 C 
HETATM    6  C   UNL     1      15.747   4.011  92.934  1.00  0.00     0.178 C 
ENDROOT
BRANCH   2   7
HETATM    7  C   UNL     1      12.579   2.231  91.972  1.00  0.00     0.277 C 
BRANCH   7   8
HETATM    8  C   UNL     1      11.542   3.293  91.830  1.00  0.00     0.011 A 
HETATM    9  C   UNL     1      10.914   3.493  90.600  1.00  0.00    -0.002 A 
HETATM   10  C   UNL     1       9.945   4.487  90.466  1.00  0.00     0.008 A 
HETATM   11  C   UNL     1       9.602   5.278  91.562  1.00  0.00     0.042 A 
HETATM   12  C   UNL     1      10.228   5.078  92.791  1.00  0.00     0.008 A 
HETATM   13  C   UNL     1      11.198   4.085  92.925  1.00  0.00    -0.002 A 
BRANCH  11  14
HETATM   14  C   UNL     1       8.607   6.297  91.425  1.00  0.00    -0.059 C 
HETATM   15  C   UNL     1       7.770   7.153  91.309  1.00  0.00    -0.059 C 
BRANCH  15  16
HETATM   16  C   UNL     1       6.775   8.170  91.171  1.00  0.00     0.042 A 
HETATM   17  C   UNL     1       5.428   7.855  91.347  1.00  0.00     0.008 A 
HETATM   18  C   UNL     1       4.457   8.848  91.215  1.00  0.00     0.005 A 
HETATM   19  C   UNL     1       4.856  10.133  90.910  1.00  0.00     0.056 A 
HETATM   20  C   UNL     1       6.181  10.469  90.730  1.00  0.00     0.005 A 
HETATM   21  C   UNL     1       7.152   9.477  90.862  1.00  0.00     0.008 A 
BRANCH  19  22
HETATM   22  C   UNL     1       3.821  11.190  90.768  1.00  0.00     0.254 C 
HETATM   23  O   UNL     1       2.773  10.929  90.182  1.00  0.00    -0.268 OA
HETATM   24  N   UNL     1       4.121  12.416  91.346  1.00  0.00    -0.335 N 
HETATM   25  HN  UNL     1       4.998  12.551  91.836  1.00  0.00     0.164 HD
BRANCH  24  26
HETATM   26  C   UNL     1       3.211  13.532  91.313  1.00  0.00     0.169 C 
BRANCH  26  27
HETATM   27  C   UNL     1       2.629  13.864  92.693  1.00  0.00     0.138 C 
HETATM   28  C   UNL     1       3.710  14.092  93.743  1.00  0.00     0.034 C 
BRANCH  27  29
HETATM   29  O   UNL     1       1.818  15.035  92.600  1.00  0.00    -0.383 OA
HETATM   30  H   UNL     1       1.729  15.415  93.490  1.00  0.00     0.210 HD
ENDBRANCH  27  29
ENDBRANCH  26  27
BRANCH  26  31
HETATM   31  C   UNL     1       3.957  14.725  90.724  1.00  0.00     0.194 C 
HETATM   32  O   UNL     1       4.499  15.584  91.417  1.00  0.00    -0.289 OA
BRANCH  31  33
HETATM   33  C   UNL     1       3.913  14.738  89.351  1.00  0.00     0.053 C 
BRANCH  33  34
HETATM   34  C   UNL     1       5.107  14.399  88.700  1.00  0.00     0.220 C 
BRANCH  34  35
HETATM   35  O   UNL     1       6.014  14.379  89.553  1.00  0.00    -0.371 OA
HETATM   36  H   UNL     1       6.418  15.205  89.337  1.00  0.00     0.211 HD
ENDBRANCH  34  35
BRANCH  34  37
HETATM   37  C   UNL     1       5.029  13.196  87.977  1.00  0.00     0.185 C 
HETATM   38  O   UNL     1       6.334  13.166  88.194  1.00  0.00    -0.647 OA
BRANCH  37  39
HETATM   39  O   UNL     1       4.182  12.568  87.414  1.00  0.00    -0.774 OA
HETATM   40  H   UNL     1       4.096  12.867  86.323  1.00  0.00     0.167 HD
ENDBRANCH  37  39
ENDBRANCH  34  37
ENDBRANCH  33  34
ENDBRANCH  31  33
ENDBRANCH  26  31
ENDBRANCH  24  26
ENDBRANCH  19  22
ENDBRANCH  15  16
ENDBRANCH  11  14
ENDBRANCH   7   8
ENDBRANCH   2   7
TORSDOF 14
ENDMDL
