MODEL 1
REMARK VINA RESULT:      -6.7      0.000      0.000
REMARK  14 active torsions:
REMARK  status: ('A' for Active; 'I' for Inactive)
REMARK    1  A    between atoms: O_2  and  C_18 
REMARK    2  A    between atoms: C_5  and  C_8 
REMARK    3  A    between atoms: C_5  and  O_35 
REMARK    4  A    between atoms: C_5  and  C_36 
REMARK    5  A    between atoms: N_6  and  C_11 
REMARK    6  A    between atoms: N_7  and  C_15 
REMARK       I    between atoms: N_7  and  C_24 
REMARK    7  A    between atoms: C_8  and  C_23 
REMARK    8  A    between atoms: C_11  and  C_14 
REMARK    9  A    between atoms: C_15  and  C_18 
REMARK   10  A    between atoms: C_15  and  C_23 
REMARK   11  A    between atoms: C_21  and  C_26 
REMARK   12  A    between atoms: C_24  and  C_25 
REMARK   13  A    between atoms: C_29  and  C_32 
REMARK   14  A    between atoms: C_36  and  O_39 
ROOT
HETATM    1  O   UNL     1      16.937   3.925  93.965  1.00  0.00    -0.350 OA
HETATM    2  N   UNL     1      14.457   2.954  92.962  1.00  0.00     0.147 N 
HETATM    3  C   UNL     1      15.658   2.109  92.988  1.00  0.00     0.283 C 
HETATM    4  C   UNL     1      14.838   4.367  92.831  1.00  0.00     0.283 C 
HETATM    5  C   UNL     1      16.578   2.552  94.124  1.00  0.00     0.178 C 
HETATM    6  C   UNL     1      15.776   4.757  93.969  1.00  0.00     0.178 C 
ENDROOT
BRANCH   2   7
HETATM    7  C   UNL     1      13.566   2.554  91.874  1.00  0.00     0.277 C 
BRANCH   7   8
HETATM    8  C   UNL     1      12.412   3.483  91.714  1.00  0.00     0.011 A 
HETATM    9  C   UNL     1      11.554   3.721  92.789  1.00  0.00    -0.002 A 
HETATM   10  C   UNL     1      10.473   4.588  92.640  1.00  0.00     0.008 A 
HETATM   11  C   UNL     1      10.250   5.219  91.416  1.00  0.00     0.042 A 
HETATM   12  C   UNL     1      11.105   4.983  90.342  1.00  0.00     0.008 A 
HETATM   13  C   UNL     1      12.187   4.115  90.491  1.00  0.00    -0.002 A 
BRANCH  11  14
HETATM   14  C   UNL     1       9.141   6.111  91.264  1.00  0.00    -0.059 C 
HETATM   15  C   UNL     1       8.210   6.861  91.136  1.00  0.00    -0.059 C 
BRANCH  15  16
HETATM   16  C   UNL     1       7.102   7.751  90.983  1.00  0.00     0.042 A 
HETATM   17  C   UNL     1       6.079   7.442  90.086  1.00  0.00     0.008 A 
HETATM   18  C   UNL     1       4.997   8.310  89.939  1.00  0.00     0.005 A 
HETATM   19  C   UNL     1       4.961   9.465  90.692  1.00  0.00     0.056 A 
HETATM   20  C   UNL     1       5.960   9.793  91.584  1.00  0.00     0.005 A 
HETATM   21  C   UNL     1       7.043   8.926  91.732  1.00  0.00     0.008 A 
BRANCH  19  22
HETATM   22  C   UNL     1       3.809  10.390  90.534  1.00  0.00     0.254 C 
HETATM   23  O   UNL     1       2.785   9.985  89.989  1.00  0.00    -0.268 OA
HETATM   24  N   UNL     1       3.979  11.667  91.050  1.00  0.00    -0.335 N 
HETATM   25  HN  UNL     1       4.845  11.923  91.510  1.00  0.00     0.164 HD
BRANCH  24  26
HETATM   26  C   UNL     1       2.946  12.669  90.996  1.00  0.00     0.169 C 
BRANCH  26  27
HETATM   27  C   UNL     1       2.078  12.696  92.261  1.00  0.00     0.138 C 
HETATM   28  C   UNL     1       1.255  13.974  92.377  1.00  0.00     0.034 C 
BRANCH  27  29
HETATM   29  O   UNL     1       1.195  11.575  92.257  1.00  0.00    -0.383 OA
HETATM   30  H   UNL     1       0.361  11.844  91.835  1.00  0.00     0.210 HD
ENDBRANCH  27  29
ENDBRANCH  26  27
BRANCH  26  31
HETATM   31  C   UNL     1       3.616  14.018  90.755  1.00  0.00     0.194 C 
HETATM   32  O   UNL     1       4.174  14.657  91.646  1.00  0.00    -0.289 OA
BRANCH  31  33
HETATM   33  C   UNL     1       3.487  14.437  89.453  1.00  0.00     0.053 C 
BRANCH  33  34
HETATM   34  C   UNL     1       4.671  14.476  88.704  1.00  0.00     0.220 C 
BRANCH  34  35
HETATM   35  O   UNL     1       5.604  14.757  89.481  1.00  0.00    -0.371 OA
HETATM   36  H   UNL     1       6.322  14.620  88.882  1.00  0.00     0.211 HD
ENDBRANCH  34  35
BRANCH  34  37
HETATM   37  C   UNL     1       4.916  13.296  87.982  1.00  0.00     0.185 C 
HETATM   38  O   UNL     1       6.176  13.554  88.297  1.00  0.00    -0.647 OA
BRANCH  37  39
HETATM   39  O   UNL     1       4.275  12.503  87.360  1.00  0.00    -0.774 OA
HETATM   40  H   UNL     1       3.428  13.002  86.793  1.00  0.00     0.167 HD
ENDBRANCH  37  39
ENDBRANCH  34  37
ENDBRANCH  33  34
ENDBRANCH  31  33
ENDBRANCH  26  31
ENDBRANCH  24  26
ENDBRANCH  19  22
ENDBRANCH  15  16
ENDBRANCH  11  14
ENDBRANCH   7   8
ENDBRANCH   2   7
TORSDOF 14
ENDMDL
MODEL 2
REMARK VINA RESULT:      -6.4      1.571      2.373
REMARK  14 active torsions:
REMARK  status: ('A' for Active; 'I' for Inactive)
REMARK    1  A    between atoms: O_2  and  C_18 
REMARK    2  A    between atoms: C_5  and  C_8 
REMARK    3  A    between atoms: C_5  and  O_35 
REMARK    4  A    between atoms: C_5  and  C_36 
REMARK    5  A    between atoms: N_6  and  C_11 
REMARK    6  A    between atoms: N_7  and  C_15 
REMARK       I    between atoms: N_7  and  C_24 
REMARK    7  A    between atoms: C_8  and  C_23 
REMARK    8  A    between atoms: C_11  and  C_14 
REMARK    9  A    between atoms: C_15  and  C_18 
REMARK   10  A    between atoms: C_15  and  C_23 
REMARK   11  A    between atoms: C_21  and  C_26 
REMARK   12  A    between atoms: C_24  and  C_25 
REMARK   13  A    between atoms: C_29  and  C_32 
REMARK   14  A    between atoms: C_36  and  O_39 
ROOT
HETATM    1  O   UNL     1      16.373   4.245  93.988  1.00  0.00    -0.350 OA
HETATM    2  N   UNL     1      14.278   2.727  92.801  1.00  0.00     0.147 N 
HETATM    3  C   UNL     1      14.276   4.197  92.766  1.00  0.00     0.283 C 
HETATM    4  C   UNL     1      14.989   2.253  93.996  1.00  0.00     0.283 C 
HETATM    5  C   UNL     1      15.711   4.716  92.812  1.00  0.00     0.178 C 
HETATM    6  C   UNL     1      16.406   2.818  94.014  1.00  0.00     0.178 C 
ENDROOT
BRANCH   2   7
HETATM    7  C   UNL     1      12.912   2.208  92.768  1.00  0.00     0.277 C 
BRANCH   7   8
HETATM    8  C   UNL     1      11.891   3.294  92.767  1.00  0.00     0.011 A 
HETATM    9  C   UNL     1      11.682   4.055  93.917  1.00  0.00    -0.002 A 
HETATM   10  C   UNL     1      10.726   5.070  93.918  1.00  0.00     0.008 A 
HETATM   11  C   UNL     1       9.980   5.324  92.767  1.00  0.00     0.042 A 
HETATM   12  C   UNL     1      10.187   4.564  91.618  1.00  0.00     0.008 A 
HETATM   13  C   UNL     1      11.143   3.549  91.617  1.00  0.00    -0.002 A 
BRANCH  11  14
HETATM   14  C   UNL     1       9.000   6.367  92.768  1.00  0.00    -0.059 C 
HETATM   15  C   UNL     1       8.177   7.243  92.767  1.00  0.00    -0.059 C 
BRANCH  15  16
HETATM   16  C   UNL     1       7.197   8.285  92.766  1.00  0.00     0.042 A 
HETATM   17  C   UNL     1       5.940   8.059  92.204  1.00  0.00     0.008 A 
HETATM   18  C   UNL     1       4.984   9.074  92.206  1.00  0.00     0.005 A 
HETATM   19  C   UNL     1       5.305  10.291  92.770  1.00  0.00     0.056 A 
HETATM   20  C   UNL     1       6.540  10.540  93.331  1.00  0.00     0.005 A 
HETATM   21  C   UNL     1       7.497   9.525  93.330  1.00  0.00     0.008 A 
BRANCH  19  22
HETATM   22  C   UNL     1       4.287  11.373  92.770  1.00  0.00     0.254 C 
HETATM   23  O   UNL     1       3.389  11.352  93.608  1.00  0.00    -0.268 OA
HETATM   24  N   UNL     1       4.450  12.362  91.810  1.00  0.00    -0.335 N 
HETATM   25  HN  UNL     1       5.231  12.327  91.165  1.00  0.00     0.164 HD
BRANCH  24  26
HETATM   26  C   UNL     1       3.560  13.489  91.698  1.00  0.00     0.169 C 
BRANCH  26  27
HETATM   27  C   UNL     1       4.167  14.783  92.254  1.00  0.00     0.138 C 
HETATM   28  C   UNL     1       4.964  15.552  91.206  1.00  0.00     0.034 C 
BRANCH  27  29
HETATM   29  O   UNL     1       3.127  15.623  92.754  1.00  0.00    -0.383 OA
HETATM   30  H   UNL     1       3.536  16.399  93.172  1.00  0.00     0.210 HD
ENDBRANCH  27  29
ENDBRANCH  26  27
BRANCH  26  31
HETATM   31  C   UNL     1       3.183  13.641  90.228  1.00  0.00     0.194 C 
HETATM   32  O   UNL     1       2.153  14.199  89.855  1.00  0.00    -0.289 OA
BRANCH  31  33
HETATM   33  C   UNL     1       4.102  13.053  89.393  1.00  0.00     0.053 C 
BRANCH  33  34
HETATM   34  C   UNL     1       3.575  12.226  88.391  1.00  0.00     0.220 C 
BRANCH  34  35
HETATM   35  O   UNL     1       4.323  12.308  87.398  1.00  0.00    -0.371 OA
HETATM   36  H   UNL     1       4.009  13.135  87.063  1.00  0.00     0.211 HD
ENDBRANCH  34  35
BRANCH  34  37
HETATM   37  C   UNL     1       3.382  10.897  88.805  1.00  0.00     0.185 C 
HETATM   38  O   UNL     1       4.138  10.628  87.752  1.00  0.00    -0.647 OA
BRANCH  37  39
HETATM   39  O   UNL     1       2.780  10.329  89.666  1.00  0.00    -0.774 OA
HETATM   40  H   UNL     1       3.451   9.627  90.252  1.00  0.00     0.167 HD
ENDBRANCH  37  39
ENDBRANCH  34  37
ENDBRANCH  33  34
ENDBRANCH  31  33
ENDBRANCH  26  31
ENDBRANCH  24  26
ENDBRANCH  19  22
ENDBRANCH  15  16
ENDBRANCH  11  14
ENDBRANCH   7   8
ENDBRANCH   2   7
TORSDOF 14
ENDMDL
MODEL 3
REMARK VINA RESULT:      -6.4      1.623      1.977
REMARK  14 active torsions:
REMARK  status: ('A' for Active; 'I' for Inactive)
REMARK    1  A    between atoms: O_2  and  C_18 
REMARK    2  A    between atoms: C_5  and  C_8 
REMARK    3  A    between atoms: C_5  and  O_35 
REMARK    4  A    between atoms: C_5  and  C_36 
REMARK    5  A    between atoms: N_6  and  C_11 
REMARK    6  A    between atoms: N_7  and  C_15 
REMARK       I    between atoms: N_7  and  C_24 
REMARK    7  A    between atoms: C_8  and  C_23 
REMARK    8  A    between atoms: C_11  and  C_14 
REMARK    9  A    between atoms: C_15  and  C_18 
REMARK   10  A    between atoms: C_15  and  C_23 
REMARK   11  A    between atoms: C_21  and  C_26 
REMARK   12  A    between atoms: C_24  and  C_25 
REMARK   13  A    between atoms: C_29  and  C_32 
REMARK   14  A    between atoms: C_36  and  O_39 
ROOT
HETATM    1  O   UNL     1      16.536   3.272  93.540  1.00  0.00    -0.350 OA
HETATM    2  N   UNL     1      13.745   2.975  93.066  1.00  0.00     0.147 N 
HETATM    3  C   UNL     1      14.622   1.809  93.244  1.00  0.00     0.283 C 
HETATM    4  C   UNL     1      14.506   4.095  92.497  1.00  0.00     0.283 C 
HETATM    5  C   UNL     1      15.811   2.187  94.123  1.00  0.00     0.178 C 
HETATM    6  C   UNL     1      15.698   4.419  93.391  1.00  0.00     0.178 C 
ENDROOT
BRANCH   2   7
HETATM    7  C   UNL     1      12.603   2.638  92.218  1.00  0.00     0.277 C 
BRANCH   7   8
HETATM    8  C   UNL     1      11.496   3.631  92.335  1.00  0.00     0.011 A 
HETATM    9  C   UNL     1      11.499   4.557  93.378  1.00  0.00    -0.002 A 
HETATM   10  C   UNL     1      10.463   5.484  93.490  1.00  0.00     0.008 A 
HETATM   11  C   UNL     1       9.427   5.486  92.557  1.00  0.00     0.042 A 
HETATM   12  C   UNL     1       9.424   4.562  91.514  1.00  0.00     0.008 A 
HETATM   13  C   UNL     1      10.459   3.634  91.403  1.00  0.00    -0.002 A 
BRANCH  11  14
HETATM   14  C   UNL     1       8.366   6.439  92.671  1.00  0.00    -0.059 C 
HETATM   15  C   UNL     1       7.474   7.240  92.766  1.00  0.00    -0.059 C 
BRANCH  15  16
HETATM   16  C   UNL     1       6.413   8.192  92.881  1.00  0.00     0.042 A 
HETATM   17  C   UNL     1       5.099   7.754  93.047  1.00  0.00     0.008 A 
HETATM   18  C   UNL     1       4.065   8.683  93.161  1.00  0.00     0.005 A 
HETATM   19  C   UNL     1       4.368  10.028  93.108  1.00  0.00     0.056 A 
HETATM   20  C   UNL     1       5.659  10.486  92.944  1.00  0.00     0.005 A 
HETATM   21  C   UNL     1       6.693   9.557  92.829  1.00  0.00     0.008 A 
BRANCH  19  22
HETATM   22  C   UNL     1       3.266  11.017  93.228  1.00  0.00     0.254 C 
HETATM   23  O   UNL     1       2.344  10.796  94.009  1.00  0.00    -0.268 OA
HETATM   24  N   UNL     1       3.383  12.156  92.442  1.00  0.00    -0.335 N 
HETATM   25  HN  UNL     1       4.186  12.281  91.838  1.00  0.00     0.164 HD
BRANCH  24  26
HETATM   26  C   UNL     1       2.408  13.217  92.465  1.00  0.00     0.169 C 
BRANCH  26  27
HETATM   27  C   UNL     1       2.719  14.285  93.520  1.00  0.00     0.138 C 
HETATM   28  C   UNL     1       4.121  14.865  93.370  1.00  0.00     0.034 C 
BRANCH  27  29
HETATM   29  O   UNL     1       1.767  15.344  93.422  1.00  0.00    -0.383 OA
HETATM   30  H   UNL     1       0.879  14.968  93.540  1.00  0.00     0.210 HD
ENDBRANCH  27  29
ENDBRANCH  26  27
BRANCH  26  31
HETATM   31  C   UNL     1       2.345  13.821  91.066  1.00  0.00     0.194 C 
HETATM   32  O   UNL     1       1.655  14.801  90.790  1.00  0.00    -0.289 OA
BRANCH  31  33
HETATM   33  C   UNL     1       3.111  13.123  90.164  1.00  0.00     0.053 C 
BRANCH  33  34
HETATM   34  C   UNL     1       3.859  13.900  89.268  1.00  0.00     0.220 C 
BRANCH  34  35
HETATM   35  O   UNL     1       4.578  14.665  89.937  1.00  0.00    -0.371 OA
HETATM   36  H   UNL     1       4.365  15.471  89.491  1.00  0.00     0.211 HD
ENDBRANCH  34  35
BRANCH  34  37
HETATM   37  C   UNL     1       4.600  13.137  88.349  1.00  0.00     0.185 C 
HETATM   38  O   UNL     1       5.013  12.516  89.443  1.00  0.00    -0.647 OA
BRANCH  37  39
HETATM   39  O   UNL     1       4.780  13.123  87.168  1.00  0.00    -0.774 OA
HETATM   40  H   UNL     1       5.188  14.114  86.796  1.00  0.00     0.167 HD
ENDBRANCH  37  39
ENDBRANCH  34  37
ENDBRANCH  33  34
ENDBRANCH  31  33
ENDBRANCH  26  31
ENDBRANCH  24  26
ENDBRANCH  19  22
ENDBRANCH  15  16
ENDBRANCH  11  14
ENDBRANCH   7   8
ENDBRANCH   2   7
TORSDOF 14
ENDMDL
MODEL 4
REMARK VINA RESULT:      -5.3      2.695     12.965
REMARK  14 active torsions:
REMARK  status: ('A' for Active; 'I' for Inactive)
REMARK    1  A    between atoms: O_2  and  C_18 
REMARK    2  A    between atoms: C_5  and  C_8 
REMARK    3  A    between atoms: C_5  and  O_35 
REMARK    4  A    between atoms: C_5  and  C_36 
REMARK    5  A    between atoms: N_6  and  C_11 
REMARK    6  A    between atoms: N_7  and  C_15 
REMARK       I    between atoms: N_7  and  C_24 
REMARK    7  A    between atoms: C_8  and  C_23 
REMARK    8  A    between atoms: C_11  and  C_14 
REMARK    9  A    between atoms: C_15  and  C_18 
REMARK   10  A    between atoms: C_15  and  C_23 
REMARK   11  A    between atoms: C_21  and  C_26 
REMARK   12  A    between atoms: C_24  and  C_25 
REMARK   13  A    between atoms: C_29  and  C_32 
REMARK   14  A    between atoms: C_36  and  O_39 
ROOT
HETATM    1  O   UNL     1       3.351  15.249  93.835  1.00  0.00    -0.350 OA
HETATM    2  N   UNL     1       2.754  14.714  91.104  1.00  0.00     0.147 N 
HETATM    3  C   UNL     1       1.810  14.373  92.177  1.00  0.00     0.283 C 
HETATM    4  C   UNL     1       4.132  14.670  91.613  1.00  0.00     0.283 C 
HETATM    5  C   UNL     1       2.006  15.320  93.358  1.00  0.00     0.178 C 
HETATM    6  C   UNL     1       4.273  15.609  92.806  1.00  0.00     0.178 C 
ENDROOT
BRANCH   2   7
HETATM    7  C   UNL     1       2.591  13.812  89.965  1.00  0.00     0.277 C 
BRANCH   7   8
HETATM    8  C   UNL     1       3.550  12.671  90.003  1.00  0.00     0.011 A 
HETATM    9  C   UNL     1       4.795  12.787  89.384  1.00  0.00    -0.002 A 
HETATM   10  C   UNL     1       5.692  11.720  89.417  1.00  0.00     0.008 A 
HETATM   11  C   UNL     1       5.345  10.538  90.070  1.00  0.00     0.042 A 
HETATM   12  C   UNL     1       4.102  10.421  90.689  1.00  0.00     0.008 A 
HETATM   13  C   UNL     1       3.204  11.488  90.656  1.00  0.00    -0.002 A 
BRANCH  11  14
HETATM   14  C   UNL     1       6.266   9.444  90.106  1.00  0.00    -0.059 C 
HETATM   15  C   UNL     1       7.040   8.525  90.136  1.00  0.00    -0.059 C 
BRANCH  15  16
HETATM   16  C   UNL     1       7.961   7.431  90.172  1.00  0.00     0.042 A 
HETATM   17  C   UNL     1       7.805   6.360  89.292  1.00  0.00     0.008 A 
HETATM   18  C   UNL     1       8.705   5.295  89.325  1.00  0.00     0.005 A 
HETATM   19  C   UNL     1       9.739   5.324  90.237  1.00  0.00     0.056 A 
HETATM   20  C   UNL     1       9.914   6.371  91.118  1.00  0.00     0.005 A 
HETATM   21  C   UNL     1       9.015   7.437  91.085  1.00  0.00     0.008 A 
BRANCH  19  22
HETATM   22  C   UNL     1      10.696   4.188  90.274  1.00  0.00     0.254 C 
HETATM   23  O   UNL     1      10.453   3.177  89.619  1.00  0.00    -0.268 OA
HETATM   24  N   UNL     1      11.832   4.375  91.049  1.00  0.00    -0.335 N 
HETATM   25  HN  UNL     1      11.978   5.247  91.543  1.00  0.00     0.164 HD
BRANCH  24  26
HETATM   26  C   UNL     1      12.864   3.376  91.166  1.00  0.00     0.169 C 
BRANCH  26  27
HETATM   27  C   UNL     1      14.276   3.965  91.057  1.00  0.00     0.138 C 
HETATM   28  C   UNL     1      15.224   3.067  90.270  1.00  0.00     0.034 C 
BRANCH  27  29
HETATM   29  O   UNL     1      14.212   5.242  90.422  1.00  0.00    -0.383 OA
HETATM   30  H   UNL     1      13.281   5.517  90.384  1.00  0.00     0.210 HD
ENDBRANCH  27  29
ENDBRANCH  26  27
BRANCH  26  31
HETATM   31  C   UNL     1      12.665   2.654  92.495  1.00  0.00     0.194 C 
HETATM   32  O   UNL     1      11.872   1.726  92.641  1.00  0.00    -0.289 OA
BRANCH  31  33
HETATM   33  C   UNL     1      13.439   3.189  93.496  1.00  0.00     0.053 C 
BRANCH  33  34
HETATM   34  C   UNL     1      14.501   2.387  93.940  1.00  0.00     0.220 C 
BRANCH  34  35
HETATM   35  O   UNL     1      14.494   1.340  93.266  1.00  0.00    -0.371 OA
HETATM   36  H   UNL     1      15.428   1.197  93.234  1.00  0.00     0.211 HD
ENDBRANCH  34  35
BRANCH  34  37
HETATM   37  C   UNL     1      15.746   3.037  93.904  1.00  0.00     0.185 C 
HETATM   38  O   UNL     1      15.006   4.122  94.070  1.00  0.00    -0.647 OA
BRANCH  37  39
HETATM   39  O   UNL     1      16.889   2.728  93.747  1.00  0.00    -0.774 OA
HETATM   40  H   UNL     1      17.034   2.128  92.795  1.00  0.00     0.167 HD
ENDBRANCH  37  39
ENDBRANCH  34  37
ENDBRANCH  33  34
ENDBRANCH  31  33
ENDBRANCH  26  31
ENDBRANCH  24  26
ENDBRANCH  19  22
ENDBRANCH  15  16
ENDBRANCH  11  14
ENDBRANCH   7   8
ENDBRANCH   2   7
TORSDOF 14
ENDMDL
MODEL 5
REMARK VINA RESULT:      -4.7      2.993     12.406
REMARK  14 active torsions:
REMARK  status: ('A' for Active; 'I' for Inactive)
REMARK    1  A    between atoms: O_2  and  C_18 
REMARK    2  A    between atoms: C_5  and  C_8 
REMARK    3  A    between atoms: C_5  and  O_35 
REMARK    4  A    between atoms: C_5  and  C_36 
REMARK    5  A    between atoms: N_6  and  C_11 
REMARK    6  A    between atoms: N_7  and  C_15 
REMARK       I    between atoms: N_7  and  C_24 
REMARK    7  A    between atoms: C_8  and  C_23 
REMARK    8  A    between atoms: C_11  and  C_14 
REMARK    9  A    between atoms: C_15  and  C_18 
REMARK   10  A    between atoms: C_15  and  C_23 
REMARK   11  A    between atoms: C_21  and  C_26 
REMARK   12  A    between atoms: C_24  and  C_25 
REMARK   13  A    between atoms: C_29  and  C_32 
REMARK   14  A    between atoms: C_36  and  O_39 
ROOT
HETATM    1  O   UNL     1       3.115  14.824  94.123  1.00  0.00    -0.350 OA
HETATM    2  N   UNL     1       2.727  14.786  91.303  1.00  0.00     0.147 N 
HETATM    3  C   UNL     1       1.752  14.180  92.221  1.00  0.00     0.283 C 
HETATM    4  C   UNL     1       4.071  14.741  91.895  1.00  0.00     0.283 C 
HETATM    5  C   UNL     1       1.799  14.893  93.570  1.00  0.00     0.178 C 
HETATM    6  C   UNL     1       4.064  15.439  93.251  1.00  0.00     0.178 C 
ENDROOT
BRANCH   2   7
HETATM    7  C   UNL     1       2.707  14.111  90.007  1.00  0.00     0.277 C 
BRANCH   7   8
HETATM    8  C   UNL     1       3.693  12.996  89.931  1.00  0.00     0.011 A 
HETATM    9  C   UNL     1       4.922  13.195  89.301  1.00  0.00    -0.002 A 
HETATM   10  C   UNL     1       5.845  12.151  89.227  1.00  0.00     0.008 A 
HETATM   11  C   UNL     1       5.540  10.911  89.787  1.00  0.00     0.042 A 
HETATM   12  C   UNL     1       4.313  10.712  90.417  1.00  0.00     0.008 A 
HETATM   13  C   UNL     1       3.389  11.754  90.490  1.00  0.00    -0.002 A 
BRANCH  11  14
HETATM   14  C   UNL     1       6.487   9.842  89.714  1.00  0.00    -0.059 C 
HETATM   15  C   UNL     1       7.284   8.943  89.653  1.00  0.00    -0.059 C 
BRANCH  15  16
HETATM   16  C   UNL     1       8.231   7.875  89.581  1.00  0.00     0.042 A 
HETATM   17  C   UNL     1       8.325   7.105  88.421  1.00  0.00     0.008 A 
HETATM   18  C   UNL     1       9.251   6.064  88.350  1.00  0.00     0.005 A 
HETATM   19  C   UNL     1      10.061   5.816  89.438  1.00  0.00     0.056 A 
HETATM   20  C   UNL     1       9.987   6.563  90.595  1.00  0.00     0.005 A 
HETATM   21  C   UNL     1       9.062   7.604  90.668  1.00  0.00     0.008 A 
BRANCH  19  22
HETATM   22  C   UNL     1      11.046   4.706  89.362  1.00  0.00     0.254 C 
HETATM   23  O   UNL     1      11.170   4.086  88.309  1.00  0.00    -0.268 OA
HETATM   24  N   UNL     1      11.783   4.468  90.514  1.00  0.00    -0.335 N 
HETATM   25  HN  UNL     1      11.643   5.038  91.340  1.00  0.00     0.164 HD
BRANCH  24  26
HETATM   26  C   UNL     1      12.793   3.443  90.590  1.00  0.00     0.169 C 
BRANCH  26  27
HETATM   27  C   UNL     1      14.217   4.012  90.612  1.00  0.00     0.138 C 
HETATM   28  C   UNL     1      14.674   4.387  92.017  1.00  0.00     0.034 C 
BRANCH  27  29
HETATM   29  O   UNL     1      15.123   3.052  90.071  1.00  0.00    -0.383 OA
HETATM   30  H   UNL     1      15.682   3.498  89.412  1.00  0.00     0.210 HD
ENDBRANCH  27  29
ENDBRANCH  26  27
BRANCH  26  31
HETATM   31  C   UNL     1      12.512   2.604  91.832  1.00  0.00     0.194 C 
HETATM   32  O   UNL     1      13.296   1.759  92.261  1.00  0.00    -0.289 OA
BRANCH  31  33
HETATM   33  C   UNL     1      11.280   2.878  92.376  1.00  0.00     0.053 C 
BRANCH  33  34
HETATM   34  C   UNL     1      11.293   3.544  93.610  1.00  0.00     0.220 C 
BRANCH  34  35
HETATM   35  O   UNL     1      12.482   3.703  93.944  1.00  0.00    -0.371 OA
HETATM   36  H   UNL     1      12.771   2.809  93.835  1.00  0.00     0.211 HD
ENDBRANCH  34  35
BRANCH  34  37
HETATM   37  C   UNL     1      10.575   4.752  93.601  1.00  0.00     0.185 C 
HETATM   38  O   UNL     1       9.830   4.118  92.709  1.00  0.00    -0.647 OA
BRANCH  37  39
HETATM   39  O   UNL     1      10.660   5.823  94.124  1.00  0.00    -0.774 OA
HETATM   40  H   UNL     1      10.248   5.806  95.181  1.00  0.00     0.167 HD
ENDBRANCH  37  39
ENDBRANCH  34  37
ENDBRANCH  33  34
ENDBRANCH  31  33
ENDBRANCH  26  31
ENDBRANCH  24  26
ENDBRANCH  19  22
ENDBRANCH  15  16
ENDBRANCH  11  14
ENDBRANCH   7   8
ENDBRANCH   2   7
TORSDOF 14
ENDMDL
MODEL 6
REMARK VINA RESULT:      -3.9      1.441      3.112
REMARK  14 active torsions:
REMARK  status: ('A' for Active; 'I' for Inactive)
REMARK    1  A    between atoms: O_2  and  C_18 
REMARK    2  A    between atoms: C_5  and  C_8 
REMARK    3  A    between atoms: C_5  and  O_35 
REMARK    4  A    between atoms: C_5  and  C_36 
REMARK    5  A    between atoms: N_6  and  C_11 
REMARK    6  A    between atoms: N_7  and  C_15 
REMARK       I    between atoms: N_7  and  C_24 
REMARK    7  A    between atoms: C_8  and  C_23 
REMARK    8  A    between atoms: C_11  and  C_14 
REMARK    9  A    between atoms: C_15  and  C_18 
REMARK   10  A    between atoms: C_15  and  C_23 
REMARK   11  A    between atoms: C_21  and  C_26 
REMARK   12  A    between atoms: C_24  and  C_25 
REMARK   13  A    between atoms: C_29  and  C_32 
REMARK   14  A    between atoms: C_36  and  O_39 
ROOT
HETATM    1  O   UNL     1      16.796   3.441  93.635  1.00  0.00    -0.350 OA
HETATM    2  N   UNL     1      14.033   2.780  93.448  1.00  0.00     0.147 N 
HETATM    3  C   UNL     1      15.078   1.753  93.337  1.00  0.00     0.283 C 
HETATM    4  C   UNL     1      14.548   4.074  92.978  1.00  0.00     0.283 C 
HETATM    5  C   UNL     1      16.315   2.186  94.120  1.00  0.00     0.178 C 
HETATM    6  C   UNL     1      15.796   4.453  93.768  1.00  0.00     0.178 C 
ENDROOT
BRANCH   2   7
HETATM    7  C   UNL     1      12.842   2.391  92.695  1.00  0.00     0.277 C 
BRANCH   7   8
HETATM    8  C   UNL     1      11.932   3.543  92.436  1.00  0.00     0.011 A 
HETATM    9  C   UNL     1      11.222   4.120  93.490  1.00  0.00    -0.002 A 
HETATM   10  C   UNL     1      10.369   5.197  93.248  1.00  0.00     0.008 A 
HETATM   11  C   UNL     1      10.227   5.696  91.954  1.00  0.00     0.042 A 
HETATM   12  C   UNL     1      10.935   5.120  90.901  1.00  0.00     0.008 A 
HETATM   13  C   UNL     1      11.788   4.043  91.142  1.00  0.00    -0.002 A 
BRANCH  11  14
HETATM   14  C   UNL     1       9.353   6.801  91.707  1.00  0.00    -0.059 C 
HETATM   15  C   UNL     1       8.618   7.730  91.499  1.00  0.00    -0.059 C 
BRANCH  15  16
HETATM   16  C   UNL     1       7.744   8.834  91.252  1.00  0.00     0.042 A 
HETATM   17  C   UNL     1       7.848   9.552  90.060  1.00  0.00     0.008 A 
HETATM   18  C   UNL     1       6.993  10.628  89.819  1.00  0.00     0.005 A 
HETATM   19  C   UNL     1       6.055  10.960  90.773  1.00  0.00     0.056 A 
HETATM   20  C   UNL     1       5.932  10.267  91.959  1.00  0.00     0.005 A 
HETATM   21  C   UNL     1       6.786   9.191  92.201  1.00  0.00     0.008 A 
BRANCH  19  22
HETATM   22  C   UNL     1       5.146  12.108  90.516  1.00  0.00     0.254 C 
HETATM   23  O   UNL     1       5.086  12.584  89.385  1.00  0.00    -0.268 OA
HETATM   24  N   UNL     1       4.398  12.546  91.600  1.00  0.00    -0.335 N 
HETATM   25  HN  UNL     1       4.482  12.087  92.500  1.00  0.00     0.164 HD
BRANCH  24  26
HETATM   26  C   UNL     1       3.455  13.631  91.504  1.00  0.00     0.169 C 
BRANCH  26  27
HETATM   27  C   UNL     1       3.119  13.999  90.053  1.00  0.00     0.138 C 
HETATM   28  C   UNL     1       1.686  14.493  89.894  1.00  0.00     0.034 C 
BRANCH  27  29
HETATM   29  O   UNL     1       4.013  15.015  89.600  1.00  0.00    -0.383 OA
HETATM   30  H   UNL     1       3.501  15.667  89.093  1.00  0.00     0.210 HD
ENDBRANCH  27  29
ENDBRANCH  26  27
BRANCH  26  31
HETATM   31  C   UNL     1       2.204  13.231  92.279  1.00  0.00     0.194 C 
HETATM   32  O   UNL     1       1.556  14.023  92.960  1.00  0.00    -0.289 OA
BRANCH  31  33
HETATM   33  C   UNL     1       1.921  11.892  92.153  1.00  0.00     0.053 C 
BRANCH  33  34
HETATM   34  C   UNL     1       2.240  11.094  93.261  1.00  0.00     0.220 C 
BRANCH  34  35
HETATM   35  O   UNL     1       1.358  11.271  94.123  1.00  0.00    -0.371 OA
HETATM   36  H   UNL     1       1.600  12.147  94.382  1.00  0.00     0.211 HD
ENDBRANCH  34  35
BRANCH  34  37
HETATM   37  C   UNL     1       2.411   9.736  92.943  1.00  0.00     0.185 C 
HETATM   38  O   UNL     1       2.419  10.193  91.700  1.00  0.00    -0.647 OA
BRANCH  37  39
HETATM   39  O   UNL     1       2.467   8.700  93.534  1.00  0.00    -0.774 OA
HETATM   40  H   UNL     1       2.265   7.817  92.852  1.00  0.00     0.167 HD
ENDBRANCH  37  39
ENDBRANCH  34  37
ENDBRANCH  33  34
ENDBRANCH  31  33
ENDBRANCH  26  31
ENDBRANCH  24  26
ENDBRANCH  19  22
ENDBRANCH  15  16
ENDBRANCH  11  14
ENDBRANCH   7   8
ENDBRANCH   2   7
TORSDOF 14
ENDMDL
