MODEL 1
REMARK VINA RESULT:      -7.0      0.000      0.000
REMARK  10 active torsions:
REMARK  status: ('A' for Active; 'I' for Inactive)
REMARK    1  A    between atoms: O_2  and  C_16 
REMARK    2  A    between atoms: N_5  and  C_9 
REMARK    3  A    between atoms: N_6  and  C_13 
REMARK       I    between atoms: N_6  and  C_22 
REMARK    4  A    between atoms: C_9  and  C_12 
REMARK    5  A    between atoms: C_13  and  C_16 
REMARK    6  A    between atoms: C_13  and  C_21 
REMARK    7  A    between atoms: C_19  and  C_24 
REMARK    8  A    between atoms: C_22  and  C_23 
REMARK    9  A    between atoms: C_27  and  C_30 
REMARK   10  A    between atoms: N_33  and  S_34 
ROOT
HETATM    1  C   UNL     1       5.404  10.715  89.339  1.00  0.00     0.056 A 
HETATM    2  C   UNL     1       6.738  11.021  89.510  1.00  0.00     0.005 A 
HETATM    3  C   UNL     1       4.924   9.426  89.450  1.00  0.00     0.005 A 
HETATM    4  C   UNL     1       7.173   8.681  89.922  1.00  0.00     0.042 A 
HETATM    5  C   UNL     1       7.633   9.993  89.805  1.00  0.00     0.008 A 
HETATM    6  C   UNL     1       5.819   8.397  89.745  1.00  0.00     0.008 A 
ENDROOT
BRANCH   1   7
HETATM    7  C   UNL     1       4.450  11.811  89.027  1.00  0.00     0.254 C 
HETATM    8  O   UNL     1       4.089  11.978  87.865  1.00  0.00    -0.268 OA
HETATM    9  N   UNL     1       4.014  12.563  90.108  1.00  0.00    -0.337 N 
HETATM   10  HN  UNL     1       4.337  12.350  91.045  1.00  0.00     0.164 HD
BRANCH   9  11
HETATM   11  C   UNL     1       3.071  13.644  89.971  1.00  0.00     0.172 C 
BRANCH  11  12
HETATM   12  C   UNL     1       1.934  13.573  90.998  1.00  0.00     0.136 C 
HETATM   13  C   UNL     1       2.176  12.511  92.065  1.00  0.00     0.034 C 
BRANCH  12  14
HETATM   14  O   UNL     1       1.785  14.843  91.633  1.00  0.00    -0.383 OA
HETATM   15  H   UNL     1       1.077  15.329  91.179  1.00  0.00     0.210 HD
ENDBRANCH  12  14
ENDBRANCH  11  12
BRANCH  11  16
HETATM   16  C   UNL     1       3.843  14.954  90.088  1.00  0.00     0.398 A 
HETATM   17  O   UNL     1       4.866  15.188  89.446  1.00  0.00    -0.136 OA
HETATM   18  N   UNL     1       5.039  15.621  90.893  1.00  0.00     0.142 N 
HETATM   19  HN  UNL     1       5.914  15.906  90.552  1.00  0.00     0.338 HD
BRANCH  18  20
HETATM   20  S   UNL     1       4.556  15.421  92.181  1.00  0.00     0.076 SA
HETATM   21  H   UNL     1       3.965  14.408  92.375  1.00  0.00     0.136 HD
ENDBRANCH  18  20
ENDBRANCH  11  16
ENDBRANCH   9  11
ENDBRANCH   1   7
BRANCH   4  22
HETATM   22  C   UNL     1       8.091   7.626  90.221  1.00  0.00    -0.059 C 
HETATM   23  C   UNL     1       8.862   6.739  90.473  1.00  0.00    -0.059 C 
BRANCH  23  24
HETATM   24  C   UNL     1       9.781   5.684  90.772  1.00  0.00     0.042 A 
HETATM   25  C   UNL     1       9.890   5.204  92.076  1.00  0.00     0.008 A 
HETATM   26  C   UNL     1      10.787   4.177  92.368  1.00  0.00    -0.002 A 
HETATM   27  C   UNL     1      11.573   3.628  91.354  1.00  0.00     0.011 A 
HETATM   28  C   UNL     1      11.462   4.109  90.049  1.00  0.00    -0.002 A 
HETATM   29  C   UNL     1      10.566   5.137  89.758  1.00  0.00     0.008 A 
BRANCH  27  30
HETATM   30  C   UNL     1      12.530   2.528  91.667  1.00  0.00     0.277 C 
BRANCH  30  31
HETATM   31  N   UNL     1      13.490   2.903  92.703  1.00  0.00     0.147 N 
HETATM   32  C   UNL     1      14.353   1.765  93.049  1.00  0.00     0.283 C 
HETATM   33  C   UNL     1      15.353   2.183  94.124  1.00  0.00     0.178 C 
HETATM   34  O   UNL     1      16.140   3.285  93.668  1.00  0.00    -0.350 OA
HETATM   35  C   UNL     1      15.312   4.406  93.359  1.00  0.00     0.178 C 
HETATM   36  C   UNL     1      14.310   4.042  92.268  1.00  0.00     0.283 C 
ENDBRANCH  30  31
ENDBRANCH  27  30
ENDBRANCH  23  24
ENDBRANCH   4  22
TORSDOF 10
ENDMDL
