MODEL 1
REMARK VINA RESULT:      -6.7      0.000      0.000
REMARK  11 active torsions:
REMARK  status: ('A' for Active; 'I' for Inactive)
REMARK    1  A    between atoms: O_2  and  C_18 
REMARK    2  A    between atoms: O_5  and  P_8 
REMARK    3  A    between atoms: N_6  and  C_11 
REMARK    4  A    between atoms: N_7  and  C_15 
REMARK       I    between atoms: N_7  and  C_24 
REMARK    5  A    between atoms: P_8  and  C_23 
REMARK    6  A    between atoms: C_11  and  C_14 
REMARK    7  A    between atoms: C_15  and  C_18 
REMARK    8  A    between atoms: C_15  and  C_23 
REMARK    9  A    between atoms: C_21  and  C_26 
REMARK   10  A    between atoms: C_24  and  C_25 
REMARK   11  A    between atoms: C_29  and  C_32 
ROOT
HETATM    1  O   UNL     1      16.723   4.301  94.124  1.00  0.00     0.000 OA
HETATM    2  N   UNL     1      14.881   2.635  92.732  1.00  0.00     0.000 N 
HETATM    3  C   UNL     1      14.747   4.099  92.728  1.00  0.00     0.000 C 
HETATM    4  C   UNL     1      15.532   2.192  93.973  1.00  0.00     0.000 C 
HETATM    5  C   UNL     1      16.120   4.743  92.906  1.00  0.00     0.000 C 
HETATM    6  C   UNL     1      16.884   2.882  94.123  1.00  0.00     0.000 C 
ENDROOT
BRANCH   2   7
HETATM    7  C   UNL     1      13.576   1.996  92.573  1.00  0.00     0.000 C 
BRANCH   7   8
HETATM    8  C   UNL     1      12.502   2.973  92.235  1.00  0.00     0.000 A 
HETATM    9  C   UNL     1      11.762   3.574  93.254  1.00  0.00     0.000 A 
HETATM   10  C   UNL     1      10.755   4.486  92.939  1.00  0.00     0.000 A 
HETATM   11  C   UNL     1      10.492   4.799  91.605  1.00  0.00     0.000 A 
HETATM   12  C   UNL     1      11.231   4.200  90.587  1.00  0.00     0.000 A 
HETATM   13  C   UNL     1      12.237   3.287  90.902  1.00  0.00     0.000 A 
BRANCH  11  14
HETATM   14  C   UNL     1       9.461   5.737  91.282  1.00  0.00     0.000 C 
HETATM   15  C   UNL     1       8.594   6.525  91.011  1.00  0.00     0.000 C 
BRANCH  15  16
HETATM   16  C   UNL     1       7.563   7.462  90.689  1.00  0.00     0.000 A 
HETATM   17  C   UNL     1       6.417   7.033  90.019  1.00  0.00     0.000 A 
HETATM   18  C   UNL     1       5.410   7.947  89.707  1.00  0.00     0.000 A 
HETATM   19  C   UNL     1       5.571   9.267  90.072  1.00  0.00     0.000 A 
HETATM   20  C   UNL     1       6.695   9.716  90.735  1.00  0.00     0.000 A 
HETATM   21  C   UNL     1       7.702   8.803  91.047  1.00  0.00     0.000 A 
BRANCH  19  22
HETATM   22  C   UNL     1       4.499  10.240  89.738  1.00  0.00     0.000 C 
HETATM   23  O   UNL     1       3.480   9.842  89.180  1.00  0.00     0.000 OA
HETATM   24  N   UNL     1       4.732  11.555  90.117  1.00  0.00     0.000 N 
HETATM   25  HN  UNL     1       5.588  11.806  90.598  1.00  0.00     0.000 HD
BRANCH  24  26
HETATM   26  C   UNL     1       3.778  12.610  89.885  1.00  0.00     0.000 C 
BRANCH  26  27
HETATM   27  C   UNL     1       2.896  12.892  91.107  1.00  0.00     0.000 C 
HETATM   28  C   UNL     1       3.694  12.933  92.406  1.00  0.00     0.000 C 
BRANCH  27  29
HETATM   29  O   UNL     1       2.227  14.141  90.935  1.00  0.00     0.000 OA
HETATM   30  H   UNL     1       1.535  14.212  91.614  1.00  0.00     0.000 HD
ENDBRANCH  27  29
ENDBRANCH  26  27
BRANCH  26  31
HETATM   31  C   UNL     1       4.553  13.853  89.461  1.00  0.00     0.000 C 
HETATM   32  O   UNL     1       4.650  14.855  90.167  1.00  0.00     0.000 OA
BRANCH  31  33
HETATM   33  P   UNL     1       5.084  13.730  88.200  1.00  0.00     0.000 P 
HETATM   34  H   UNL     1       5.014  14.965  87.588  1.00  0.00     0.000 HD
BRANCH  33  35
HETATM   35  O   UNL     1       4.453  12.799  87.361  1.00  0.00     0.000 OA
HETATM   36  H   UNL     1       4.525  11.997  87.906  1.00  0.00     0.000 HD
ENDBRANCH  33  35
ENDBRANCH  31  33
ENDBRANCH  26  31
ENDBRANCH  24  26
ENDBRANCH  19  22
ENDBRANCH  15  16
ENDBRANCH  11  14
ENDBRANCH   7   8
ENDBRANCH   2   7
TORSDOF 11
ENDMDL
