MODEL 1
REMARK VINA RESULT:      -7.0      0.000      0.000
REMARK  10 active torsions:
REMARK  status: ('A' for Active; 'I' for Inactive)
REMARK    1  A    between atoms: O_2  and  C_18 
REMARK    2  A    between atoms: O_5  and  N_8 
REMARK    3  A    between atoms: N_6  and  C_11 
REMARK    4  A    between atoms: N_7  and  C_15 
REMARK       I    between atoms: N_7  and  C_24 
REMARK       I    between atoms: N_8  and  C_23 
REMARK    5  A    between atoms: C_11  and  C_14 
REMARK    6  A    between atoms: C_15  and  C_18 
REMARK    7  A    between atoms: C_15  and  C_23 
REMARK    8  A    between atoms: C_21  and  C_26 
REMARK    9  A    between atoms: C_24  and  C_25 
REMARK   10  A    between atoms: C_29  and  C_32 
ROOT
HETATM    1  O   UNK     0      17.231   4.410  93.798  0.00  0.00    -0.388 OA
HETATM    2  N   UNK     0      14.830   2.889  93.643  0.00  0.00     0.096 N 
HETATM    3  C   UNK     0      16.138   2.292  93.342  0.00  0.00     0.299 C 
HETATM    4  C   UNK     0      14.850   4.326  93.337  0.00  0.00     0.299 C 
HETATM    5  C   UNK     0      17.231   3.019  94.122  0.00  0.00     0.198 C 
HETATM    6  C   UNK     0      15.973   5.005  94.117  0.00  0.00     0.198 C 
ENDROOT
BRANCH   2   7
HETATM    7  C   UNK     0      13.769   2.215  92.897  0.00  0.00     0.311 C 
BRANCH   7   8
HETATM    8  C   UNK     0      12.689   3.151  92.473  0.00  0.00    -0.030 A 
HETATM    9  C   UNK     0      12.462   3.385  91.116  0.00  0.00     0.010 A 
HETATM   10  C   UNK     0      11.454   4.262  90.719  0.00  0.00     0.021 A 
HETATM   11  C   UNK     0      10.671   4.904  91.678  0.00  0.00     0.018 A 
HETATM   12  C   UNK     0      10.897   4.672  93.033  0.00  0.00     0.021 A 
HETATM   13  C   UNK     0      11.906   3.795  93.431  0.00  0.00     0.010 A 
BRANCH  11  14
HETATM   14  C   UNK     0       9.635   5.803  91.270  0.00  0.00    -0.061 C 
HETATM   15  C   UNK     0       8.765   6.558  90.927  0.00  0.00    -0.061 C 
BRANCH  15  16
HETATM   16  C   UNK     0       7.731   7.456  90.520  0.00  0.00     0.018 A 
HETATM   17  C   UNK     0       7.683   8.747  91.047  0.00  0.00     0.022 A 
HETATM   18  C   UNK     0       6.675   9.625  90.648  0.00  0.00     0.018 A 
HETATM   19  C   UNK     0       5.739   9.194  89.732  0.00  0.00     0.032 A 
HETATM   20  C   UNK     0       5.764   7.923  89.197  0.00  0.00     0.018 A 
HETATM   21  C   UNK     0       6.771   7.044  89.596  0.00  0.00     0.022 A 
BRANCH  19  22
HETATM   22  C   UNK     0       4.664  10.129  89.309  0.00  0.00     0.252 C 
HETATM   23  O   UNK     0       3.950   9.830  88.355  0.00  0.00    -0.268 OA
HETATM   24  N   UNK     0       4.535  11.287  90.062  0.00  0.00    -0.341 N 
HETATM   25  H   UNK     0       5.145  11.455  90.853  0.00  0.00     0.163 HD
BRANCH  24  26
HETATM   26  C   UNK     0       3.525  12.279  89.792  0.00  0.00     0.207 C 
BRANCH  26  27
HETATM   27  C   UNK     0       2.985  12.939  91.068  0.00  0.00     0.146 C 
HETATM   28  C   UNK     0       2.262  11.950  91.975  0.00  0.00     0.042 C 
BRANCH  27  29
HETATM   29  O   UNK     0       4.063  13.531  91.792  0.00  0.00    -0.393 OA
HETATM   30  H   UNK     0       4.062  14.486  91.614  0.00  0.00     0.210 HD
ENDBRANCH  27  29
ENDBRANCH  26  27
BRANCH  26  31
HETATM   31  C   UNK     0       4.129  13.313  88.847  0.00  0.00     0.266 C 
HETATM   32  O   UNK     0       4.345  14.477  89.177  0.00  0.00    -0.269 OA
HETATM   33  N   UNK     0       4.358  12.798  87.594  0.00  0.00    -0.236 N 
HETATM   34  H   UNK     0       4.110  11.873  87.263  0.00  0.00     0.197 HD
BRANCH  33  35
HETATM   35  O   UNK     0       4.878  13.696  86.651  0.00  0.00    -0.287 OA
HETATM   36  H   UNK     0       5.354  13.081  86.068  0.00  0.00     0.244 HD
ENDBRANCH  33  35
ENDBRANCH  26  31
ENDBRANCH  24  26
ENDBRANCH  19  22
ENDBRANCH  15  16
ENDBRANCH  11  14
ENDBRANCH   7   8
ENDBRANCH   2   7
TORSDOF 10
ENDMDL
MODEL 2
REMARK VINA RESULT:      -6.6      1.575      1.905
REMARK  10 active torsions:
REMARK  status: ('A' for Active; 'I' for Inactive)
REMARK    1  A    between atoms: O_2  and  C_18 
REMARK    2  A    between atoms: O_5  and  N_8 
REMARK    3  A    between atoms: N_6  and  C_11 
REMARK    4  A    between atoms: N_7  and  C_15 
REMARK       I    between atoms: N_7  and  C_24 
REMARK       I    between atoms: N_8  and  C_23 
REMARK    5  A    between atoms: C_11  and  C_14 
REMARK    6  A    between atoms: C_15  and  C_18 
REMARK    7  A    between atoms: C_15  and  C_23 
REMARK    8  A    between atoms: C_21  and  C_26 
REMARK    9  A    between atoms: C_24  and  C_25 
REMARK   10  A    between atoms: C_29  and  C_32 
ROOT
HETATM    1  O   UNK     0      16.546   3.368  93.653  0.00  0.00    -0.388 OA
HETATM    2  N   UNK     0      13.854   2.875  92.873  0.00  0.00     0.096 N 
HETATM    3  C   UNK     0      14.798   1.774  93.111  0.00  0.00     0.299 C 
HETATM    4  C   UNK     0      14.578   4.070  92.421  0.00  0.00     0.299 C 
HETATM    5  C   UNK     0      15.854   2.210  94.124  0.00  0.00     0.198 C 
HETATM    6  C   UNK     0      15.640   4.452  93.448  0.00  0.00     0.198 C 
ENDROOT
BRANCH   2   7
HETATM    7  C   UNK     0      12.838   2.483  91.898  0.00  0.00     0.311 C 
BRANCH   7   8
HETATM    8  C   UNK     0      11.748   3.493  91.776  0.00  0.00    -0.030 A 
HETATM    9  C   UNK     0      11.164   3.742  90.533  0.00  0.00     0.010 A 
HETATM   10  C   UNK     0      10.146   4.688  90.417  0.00  0.00     0.021 A 
HETATM   11  C   UNK     0       9.711   5.384  91.545  0.00  0.00     0.018 A 
HETATM   12  C   UNK     0      10.293   5.137  92.786  0.00  0.00     0.021 A 
HETATM   13  C   UNK     0      11.312   4.191  92.902  0.00  0.00     0.010 A 
BRANCH  11  14
HETATM   14  C   UNK     0       8.666   6.353  91.426  0.00  0.00    -0.061 C 
HETATM   15  C   UNK     0       7.786   7.167  91.327  0.00  0.00    -0.061 C 
BRANCH  15  16
HETATM   16  C   UNK     0       6.742   8.135  91.207  0.00  0.00     0.018 A 
HETATM   17  C   UNK     0       6.090   8.601  92.350  0.00  0.00     0.022 A 
HETATM   18  C   UNK     0       5.071   9.547  92.234  0.00  0.00     0.018 A 
HETATM   19  C   UNK     0       4.728  10.007  90.979  0.00  0.00     0.032 A 
HETATM   20  C   UNK     0       5.357   9.562  89.835  0.00  0.00     0.018 A 
HETATM   21  C   UNK     0       6.375   8.616  89.951  0.00  0.00     0.022 A 
BRANCH  19  22
HETATM   22  C   UNK     0       3.642  11.013  90.856  0.00  0.00     0.252 C 
HETATM   23  O   UNK     0       2.767  10.851  90.010  0.00  0.00    -0.268 OA
HETATM   24  N   UNK     0       3.692  12.074  91.750  0.00  0.00    -0.341 N 
HETATM   25  H   UNK     0       4.433  12.130  92.439  0.00  0.00     0.163 HD
BRANCH  24  26
HETATM   26  C   UNK     0       2.698  13.117  91.771  0.00  0.00     0.207 C 
BRANCH  26  27
HETATM   27  C   UNK     0       2.634  13.848  93.119  0.00  0.00     0.146 C 
HETATM   28  C   UNK     0       3.880  13.618  93.968  0.00  0.00     0.042 C 
BRANCH  27  29
HETATM   29  O   UNK     0       2.479  15.249  92.895  0.00  0.00    -0.393 OA
HETATM   30  H   UNK     0       3.128  15.525  92.226  0.00  0.00     0.210 HD
ENDBRANCH  27  29
ENDBRANCH  26  27
BRANCH  26  31
HETATM   31  C   UNK     0       3.010  14.082  90.632  0.00  0.00     0.266 C 
HETATM   32  O   UNK     0       2.164  14.457  89.822  0.00  0.00    -0.269 OA
HETATM   33  N   UNK     0       4.336  14.440  90.602  0.00  0.00    -0.236 N 
HETATM   34  H   UNK     0       5.074  14.081  91.197  0.00  0.00     0.197 HD
BRANCH  33  35
HETATM   35  O   UNK     0       4.714  15.296  89.559  0.00  0.00    -0.287 OA
HETATM   36  H   UNK     0       4.061  16.008  89.673  0.00  0.00     0.244 HD
ENDBRANCH  33  35
ENDBRANCH  26  31
ENDBRANCH  24  26
ENDBRANCH  19  22
ENDBRANCH  15  16
ENDBRANCH  11  14
ENDBRANCH   7   8
ENDBRANCH   2   7
TORSDOF 10
ENDMDL
MODEL 3
REMARK VINA RESULT:      -6.2      1.663      2.319
REMARK  10 active torsions:
REMARK  status: ('A' for Active; 'I' for Inactive)
REMARK    1  A    between atoms: O_2  and  C_18 
REMARK    2  A    between atoms: O_5  and  N_8 
REMARK    3  A    between atoms: N_6  and  C_11 
REMARK    4  A    between atoms: N_7  and  C_15 
REMARK       I    between atoms: N_7  and  C_24 
REMARK       I    between atoms: N_8  and  C_23 
REMARK    5  A    between atoms: C_11  and  C_14 
REMARK    6  A    between atoms: C_15  and  C_18 
REMARK    7  A    between atoms: C_15  and  C_23 
REMARK    8  A    between atoms: C_21  and  C_26 
REMARK    9  A    between atoms: C_24  and  C_25 
REMARK   10  A    between atoms: C_29  and  C_32 
ROOT
HETATM    1  O   UNK     0      17.322   4.721  93.252  0.00  0.00    -0.388 OA
HETATM    2  N   UNK     0      15.283   2.926  94.103  0.00  0.00     0.096 N 
HETATM    3  C   UNK     0      16.379   2.485  93.229  0.00  0.00     0.299 C 
HETATM    4  C   UNK     0      15.009   4.353  93.885  0.00  0.00     0.299 C 
HETATM    5  C   UNK     0      17.618   3.342  93.480  0.00  0.00     0.198 C 
HETATM    6  C   UNK     0      16.279   5.166  94.120  0.00  0.00     0.198 C 
ENDROOT
BRANCH   2   7
HETATM    7  C   UNK     0      14.083   2.125  93.872  0.00  0.00     0.311 C 
BRANCH   7   8
HETATM    8  C   UNK     0      13.031   2.879  93.130  0.00  0.00    -0.030 A 
HETATM    9  C   UNK     0      13.017   2.864  91.735  0.00  0.00     0.010 A 
HETATM   10  C   UNK     0      12.035   3.571  91.040  0.00  0.00     0.021 A 
HETATM   11  C   UNK     0      11.067   4.289  91.741  0.00  0.00     0.018 A 
HETATM   12  C   UNK     0      11.081   4.304  93.135  0.00  0.00     0.021 A 
HETATM   13  C   UNK     0      12.063   3.599  93.830  0.00  0.00     0.010 A 
BRANCH  11  14
HETATM   14  C   UNK     0      10.059   5.012  91.029  0.00  0.00    -0.061 C 
HETATM   15  C   UNK     0       9.212   5.620  90.430  0.00  0.00    -0.061 C 
BRANCH  15  16
HETATM   16  C   UNK     0       8.205   6.343  89.719  0.00  0.00     0.018 A 
HETATM   17  C   UNK     0       7.596   7.451  90.309  0.00  0.00     0.022 A 
HETATM   18  C   UNK     0       6.614   8.158  89.614  0.00  0.00     0.018 A 
HETATM   19  C   UNK     0       6.264   7.743  88.347  0.00  0.00     0.032 A 
HETATM   20  C   UNK     0       6.850   6.651  87.742  0.00  0.00     0.018 A 
HETATM   21  C   UNK     0       7.831   5.943  88.436  0.00  0.00     0.022 A 
BRANCH  19  22
HETATM   22  C   UNK     0       5.217   8.495  87.609  0.00  0.00     0.252 C 
HETATM   23  O   UNK     0       5.230   8.493  86.380  0.00  0.00    -0.268 OA
HETATM   24  N   UNK     0       4.267   9.139  88.389  0.00  0.00    -0.341 N 
HETATM   25  H   UNK     0       4.305   9.077  89.399  0.00  0.00     0.163 HD
BRANCH  24  26
HETATM   26  C   UNK     0       3.175   9.889  87.821  0.00  0.00     0.207 C 
BRANCH  26  27
HETATM   27  C   UNK     0       1.810   9.243  88.085  0.00  0.00     0.146 C 
HETATM   28  C   UNK     0       1.648   7.906  87.369  0.00  0.00     0.042 C 
BRANCH  27  29
HETATM   29  O   UNK     0       1.642   9.040  89.488  0.00  0.00    -0.393 OA
HETATM   30  H   UNK     0       2.518   9.071  89.908  0.00  0.00     0.210 HD
ENDBRANCH  27  29
ENDBRANCH  26  27
BRANCH  26  31
HETATM   31  C   UNK     0       3.238  11.304  88.386  0.00  0.00     0.266 C 
HETATM   32  O   UNK     0       2.562  11.673  89.345  0.00  0.00    -0.269 OA
HETATM   33  N   UNK     0       4.098  12.108  87.678  0.00  0.00    -0.236 N 
HETATM   34  H   UNK     0       4.601  11.864  86.833  0.00  0.00     0.197 HD
BRANCH  33  35
HETATM   35  O   UNK     0       4.185  13.439  88.112  0.00  0.00    -0.287 OA
HETATM   36  H   UNK     0       4.878  13.771  87.516  0.00  0.00     0.244 HD
ENDBRANCH  33  35
ENDBRANCH  26  31
ENDBRANCH  24  26
ENDBRANCH  19  22
ENDBRANCH  15  16
ENDBRANCH  11  14
ENDBRANCH   7   8
ENDBRANCH   2   7
TORSDOF 10
ENDMDL
MODEL 4
REMARK VINA RESULT:      -5.3      2.996     12.315
REMARK  10 active torsions:
REMARK  status: ('A' for Active; 'I' for Inactive)
REMARK    1  A    between atoms: O_2  and  C_18 
REMARK    2  A    between atoms: O_5  and  N_8 
REMARK    3  A    between atoms: N_6  and  C_11 
REMARK    4  A    between atoms: N_7  and  C_15 
REMARK       I    between atoms: N_7  and  C_24 
REMARK       I    between atoms: N_8  and  C_23 
REMARK    5  A    between atoms: C_11  and  C_14 
REMARK    6  A    between atoms: C_15  and  C_18 
REMARK    7  A    between atoms: C_15  and  C_23 
REMARK    8  A    between atoms: C_21  and  C_26 
REMARK    9  A    between atoms: C_24  and  C_25 
REMARK   10  A    between atoms: C_29  and  C_32 
ROOT
HETATM    1  O   UNK     0       2.651  14.443  94.121  0.00  0.00    -0.388 OA
HETATM    2  N   UNK     0       2.662  14.682  91.285  0.00  0.00     0.096 N 
HETATM    3  C   UNK     0       1.678  13.842  91.980  0.00  0.00     0.299 C 
HETATM    4  C   UNK     0       3.903  14.756  92.066  0.00  0.00     0.299 C 
HETATM    5  C   UNK     0       1.429  14.390  93.383  0.00  0.00     0.198 C 
HETATM    6  C   UNK     0       3.603  15.283  93.467  0.00  0.00     0.198 C 
ENDROOT
BRANCH   2   7
HETATM    7  C   UNK     0       2.924  14.169  89.941  0.00  0.00     0.311 C 
BRANCH   7   8
HETATM    8  C   UNK     0       3.912  13.052  89.943  0.00  0.00    -0.030 A 
HETATM    9  C   UNK     0       3.640  11.883  90.656  0.00  0.00     0.010 A 
HETATM   10  C   UNK     0       4.564  10.838  90.661  0.00  0.00     0.021 A 
HETATM   11  C   UNK     0       5.757  10.961  89.950  0.00  0.00     0.018 A 
HETATM   12  C   UNK     0       6.030  12.127  89.238  0.00  0.00     0.021 A 
HETATM   13  C   UNK     0       5.106  13.173  89.234  0.00  0.00     0.010 A 
BRANCH  11  14
HETATM   14  C   UNK     0       6.704   9.889  89.953  0.00  0.00    -0.061 C 
HETATM   15  C   UNK     0       7.500   8.987  89.955  0.00  0.00    -0.061 C 
BRANCH  15  16
HETATM   16  C   UNK     0       8.444   7.915  89.957  0.00  0.00     0.018 A 
HETATM   17  C   UNK     0       9.503   7.917  89.047  0.00  0.00     0.022 A 
HETATM   18  C   UNK     0      10.426   6.872  89.050  0.00  0.00     0.018 A 
HETATM   19  C   UNK     0      10.272   5.848  89.962  0.00  0.00     0.032 A 
HETATM   20  C   UNK     0       9.234   5.822  90.870  0.00  0.00     0.018 A 
HETATM   21  C   UNK     0       8.310   6.867  90.867  0.00  0.00     0.022 A 
BRANCH  19  22
HETATM   22  C   UNK     0      11.254   4.734  89.963  0.00  0.00     0.252 C 
HETATM   23  O   UNK     0      11.355   4.022  88.967  0.00  0.00    -0.268 OA
HETATM   24  N   UNK     0      12.018   4.599  91.114  0.00  0.00    -0.341 N 
HETATM   25  H   UNK     0      11.897   5.241  91.888  0.00  0.00     0.163 HD
BRANCH  24  26
HETATM   26  C   UNK     0      13.030   3.582  91.258  0.00  0.00     0.207 C 
BRANCH  26  27
HETATM   27  C   UNK     0      14.219   4.045  92.109  0.00  0.00     0.146 C 
HETATM   28  C   UNK     0      13.855   4.210  93.581  0.00  0.00     0.042 C 
BRANCH  27  29
HETATM   29  O   UNK     0      15.282   3.099  91.998  0.00  0.00    -0.393 OA
HETATM   30  H   UNK     0      16.111   3.541  92.249  0.00  0.00     0.210 HD
ENDBRANCH  27  29
ENDBRANCH  26  27
BRANCH  26  31
HETATM   31  C   UNK     0      12.366   2.347  91.858  0.00  0.00     0.266 C 
HETATM   32  O   UNK     0      12.959   1.282  92.024  0.00  0.00    -0.269 OA
HETATM   33  N   UNK     0      11.040   2.558  92.146  0.00  0.00    -0.236 N 
HETATM   34  H   UNK     0      10.499   3.390  91.940  0.00  0.00     0.197 HD
BRANCH  33  35
HETATM   35  O   UNK     0      10.345   1.457  92.667  0.00  0.00    -0.287 OA
HETATM   36  H   UNK     0       9.481   1.865  92.846  0.00  0.00     0.244 HD
ENDBRANCH  33  35
ENDBRANCH  26  31
ENDBRANCH  24  26
ENDBRANCH  19  22
ENDBRANCH  15  16
ENDBRANCH  11  14
ENDBRANCH   7   8
ENDBRANCH   2   7
TORSDOF 10
ENDMDL
MODEL 5
REMARK VINA RESULT:      -5.0      2.734     12.402
REMARK  10 active torsions:
REMARK  status: ('A' for Active; 'I' for Inactive)
REMARK    1  A    between atoms: O_2  and  C_18 
REMARK    2  A    between atoms: O_5  and  N_8 
REMARK    3  A    between atoms: N_6  and  C_11 
REMARK    4  A    between atoms: N_7  and  C_15 
REMARK       I    between atoms: N_7  and  C_24 
REMARK       I    between atoms: N_8  and  C_23 
REMARK    5  A    between atoms: C_11  and  C_14 
REMARK    6  A    between atoms: C_15  and  C_18 
REMARK    7  A    between atoms: C_15  and  C_23 
REMARK    8  A    between atoms: C_21  and  C_26 
REMARK    9  A    between atoms: C_24  and  C_25 
REMARK   10  A    between atoms: C_29  and  C_32 
ROOT
HETATM    1  O   UNK     0       2.992  15.032  93.861  0.00  0.00    -0.388 OA
HETATM    2  N   UNK     0       2.637  14.399  91.108  0.00  0.00     0.096 N 
HETATM    3  C   UNK     0       1.718  13.893  92.138  0.00  0.00     0.299 C 
HETATM    4  C   UNK     0       3.973  14.603  91.683  0.00  0.00     0.299 C 
HETATM    5  C   UNK     0       1.681  14.860  93.318  0.00  0.00     0.198 C 
HETATM    6  C   UNK     0       3.884  15.553  92.875  0.00  0.00     0.198 C 
ENDROOT
BRANCH   2   7
HETATM    7  C   UNK     0       2.696  13.481  89.972  0.00  0.00     0.311 C 
BRANCH   7   8
HETATM    8  C   UNK     0       3.739  12.431  90.143  0.00  0.00    -0.030 A 
HETATM    9  C   UNK     0       3.550  11.405  91.070  0.00  0.00     0.010 A 
HETATM   10  C   UNK     0       4.526  10.423  91.233  0.00  0.00     0.021 A 
HETATM   11  C   UNK     0       5.691  10.465  90.467  0.00  0.00     0.018 A 
HETATM   12  C   UNK     0       5.881  11.489  89.540  0.00  0.00     0.021 A 
HETATM   13  C   UNK     0       4.905  12.472  89.378  0.00  0.00     0.010 A 
BRANCH  11  14
HETATM   14  C   UNK     0       6.692   9.456  90.632  0.00  0.00    -0.061 C 
HETATM   15  C   UNK     0       7.533   8.609  90.771  0.00  0.00    -0.061 C 
BRANCH  15  16
HETATM   16  C   UNK     0       8.533   7.601  90.935  0.00  0.00     0.018 A 
HETATM   17  C   UNK     0       9.036   7.319  92.206  0.00  0.00     0.022 A 
HETATM   18  C   UNK     0      10.010   6.334  92.367  0.00  0.00     0.018 A 
HETATM   19  C   UNK     0      10.460   5.653  91.255  0.00  0.00     0.032 A 
HETATM   20  C   UNK     0       9.980   5.913  89.989  0.00  0.00     0.018 A 
HETATM   21  C   UNK     0       9.006   6.899  89.827  0.00  0.00     0.022 A 
BRANCH  19  22
HETATM   22  C   UNK     0      11.499   4.605  91.427  0.00  0.00     0.252 C 
HETATM   23  O   UNK     0      11.810   3.906  90.466  0.00  0.00    -0.268 OA
HETATM   24  N   UNK     0      12.069   4.515  92.689  0.00  0.00    -0.341 N 
HETATM   25  H   UNK     0      11.779   5.144  93.429  0.00  0.00     0.163 HD
BRANCH  24  26
HETATM   26  C   UNK     0      13.106   3.567  93.006  0.00  0.00     0.207 C 
BRANCH  26  27
HETATM   27  C   UNK     0      12.980   2.261  92.211  0.00  0.00     0.146 C 
HETATM   28  C   UNK     0      14.026   1.228  92.614  0.00  0.00     0.042 C 
BRANCH  27  29
HETATM   29  O   UNK     0      11.680   1.706  92.409  0.00  0.00    -0.393 OA
HETATM   30  H   UNK     0      11.023   2.407  92.260  0.00  0.00     0.210 HD
ENDBRANCH  27  29
ENDBRANCH  26  27
BRANCH  26  31
HETATM   31  C   UNK     0      14.449   4.243  92.751  0.00  0.00     0.266 C 
HETATM   32  O   UNK     0      14.858   4.517  91.624  0.00  0.00    -0.269 OA
HETATM   33  N   UNK     0      15.147   4.467  93.913  0.00  0.00    -0.236 N 
HETATM   34  H   UNK     0      14.880   4.175  94.846  0.00  0.00     0.197 HD
BRANCH  33  35
HETATM   35  O   UNK     0      16.412   5.052  93.763  0.00  0.00    -0.287 OA
HETATM   36  H   UNK     0      16.831   4.411  93.165  0.00  0.00     0.244 HD
ENDBRANCH  33  35
ENDBRANCH  26  31
ENDBRANCH  24  26
ENDBRANCH  19  22
ENDBRANCH  15  16
ENDBRANCH  11  14
ENDBRANCH   7   8
ENDBRANCH   2   7
TORSDOF 10
ENDMDL
MODEL 6
REMARK VINA RESULT:      -4.9      2.051     12.516
REMARK  10 active torsions:
REMARK  status: ('A' for Active; 'I' for Inactive)
REMARK    1  A    between atoms: O_2  and  C_18 
REMARK    2  A    between atoms: O_5  and  N_8 
REMARK    3  A    between atoms: N_6  and  C_11 
REMARK    4  A    between atoms: N_7  and  C_15 
REMARK       I    between atoms: N_7  and  C_24 
REMARK       I    between atoms: N_8  and  C_23 
REMARK    5  A    between atoms: C_11  and  C_14 
REMARK    6  A    between atoms: C_15  and  C_18 
REMARK    7  A    between atoms: C_15  and  C_23 
REMARK    8  A    between atoms: C_21  and  C_26 
REMARK    9  A    between atoms: C_24  and  C_25 
REMARK   10  A    between atoms: C_29  and  C_32 
ROOT
HETATM    1  O   UNK     0       3.464  14.502  92.146  0.00  0.00    -0.388 OA
HETATM    2  N   UNK     0       3.906  13.703  89.451  0.00  0.00     0.096 N 
HETATM    3  C   UNK     0       3.072  12.906  90.361  0.00  0.00     0.299 C 
HETATM    4  C   UNK     0       4.928  14.432  90.213  0.00  0.00     0.299 C 
HETATM    5  C   UNK     0       2.446  13.814  91.417  0.00  0.00     0.198 C 
HETATM    6  C   UNK     0       4.260  15.304  91.273  0.00  0.00     0.198 C 
ENDROOT
BRANCH   2   7
HETATM    7  C   UNK     0       4.524  12.851  88.436  0.00  0.00     0.311 C 
BRANCH   7   8
HETATM    8  C   UNK     0       5.397  11.800  89.032  0.00  0.00    -0.030 A 
HETATM    9  C   UNK     0       4.825  10.717  89.700  0.00  0.00     0.010 A 
HETATM   10  C   UNK     0       5.641   9.733  90.260  0.00  0.00     0.021 A 
HETATM   11  C   UNK     0       7.028   9.833  90.150  0.00  0.00     0.018 A 
HETATM   12  C   UNK     0       7.599  10.915  89.483  0.00  0.00     0.021 A 
HETATM   13  C   UNK     0       6.784  11.898  88.923  0.00  0.00     0.010 A 
BRANCH  11  14
HETATM   14  C   UNK     0       7.864   8.824  90.722  0.00  0.00    -0.061 C 
HETATM   15  C   UNK     0       8.567   7.975  91.204  0.00  0.00    -0.061 C 
BRANCH  15  16
HETATM   16  C   UNK     0       9.403   6.968  91.775  0.00  0.00     0.018 A 
HETATM   17  C   UNK     0       9.959   5.979  90.962  0.00  0.00     0.022 A 
HETATM   18  C   UNK     0      10.777   4.997  91.519  0.00  0.00     0.018 A 
HETATM   19  C   UNK     0      11.023   5.024  92.876  0.00  0.00     0.032 A 
HETATM   20  C   UNK     0      10.486   5.989  93.702  0.00  0.00     0.018 A 
HETATM   21  C   UNK     0       9.667   6.972  93.145  0.00  0.00     0.022 A 
BRANCH  19  22
HETATM   22  C   UNK     0      11.893   3.976  93.469  0.00  0.00     0.252 C 
HETATM   23  O   UNK     0      11.381   3.071  94.124  0.00  0.00    -0.268 OA
HETATM   24  N   UNK     0      13.251   4.094  93.208  0.00  0.00    -0.341 N 
HETATM   25  H   UNK     0      13.599   4.855  92.637  0.00  0.00     0.163 HD
BRANCH  24  26
HETATM   26  C   UNK     0      14.219   3.143  93.693  0.00  0.00     0.207 C 
BRANCH  26  27
HETATM   27  C   UNK     0      14.335   1.904  92.796  0.00  0.00     0.146 C 
HETATM   28  C   UNK     0      13.032   1.583  92.073  0.00  0.00     0.042 C 
BRANCH  27  29
HETATM   29  O   UNK     0      15.364   2.109  91.828  0.00  0.00    -0.393 OA
HETATM   30  H   UNK     0      15.182   1.537  91.064  0.00  0.00     0.210 HD
ENDBRANCH  27  29
ENDBRANCH  26  27
BRANCH  26  31
HETATM   31  C   UNK     0      15.557   3.864  93.818  0.00  0.00     0.266 C 
HETATM   32  O   UNK     0      15.675   5.082  93.700  0.00  0.00    -0.269 OA
HETATM   33  N   UNK     0      16.598   2.993  94.035  0.00  0.00    -0.236 N 
HETATM   34  H   UNK     0      16.549   1.981  94.048  0.00  0.00     0.197 HD
BRANCH  33  35
HETATM   35  O   UNK     0      17.871   3.574  94.124  0.00  0.00    -0.287 OA
HETATM   36  H   UNK     0      17.993   3.580  95.089  0.00  0.00     0.244 HD
ENDBRANCH  33  35
ENDBRANCH  26  31
ENDBRANCH  24  26
ENDBRANCH  19  22
ENDBRANCH  15  16
ENDBRANCH  11  14
ENDBRANCH   7   8
ENDBRANCH   2   7
TORSDOF 10
ENDMDL
MODEL 7
REMARK VINA RESULT:      -4.4      2.004     12.372
REMARK  10 active torsions:
REMARK  status: ('A' for Active; 'I' for Inactive)
REMARK    1  A    between atoms: O_2  and  C_18 
REMARK    2  A    between atoms: O_5  and  N_8 
REMARK    3  A    between atoms: N_6  and  C_11 
REMARK    4  A    between atoms: N_7  and  C_15 
REMARK       I    between atoms: N_7  and  C_24 
REMARK       I    between atoms: N_8  and  C_23 
REMARK    5  A    between atoms: C_11  and  C_14 
REMARK    6  A    between atoms: C_15  and  C_18 
REMARK    7  A    between atoms: C_15  and  C_23 
REMARK    8  A    between atoms: C_21  and  C_26 
REMARK    9  A    between atoms: C_24  and  C_25 
REMARK   10  A    between atoms: C_29  and  C_32 
ROOT
HETATM    1  O   UNK     0       5.229  14.407  88.540  0.00  0.00    -0.388 OA
HETATM    2  N   UNK     0       3.490  13.186  90.434  0.00  0.00     0.096 N 
HETATM    3  C   UNK     0       4.365  14.307  90.806  0.00  0.00     0.299 C 
HETATM    4  C   UNK     0       4.096  12.416  89.340  0.00  0.00     0.299 C 
HETATM    5  C   UNK     0       4.633  15.181  89.583  0.00  0.00     0.198 C 
HETATM    6  C   UNK     0       4.372  13.333  88.152  0.00  0.00     0.198 C 
ENDROOT
BRANCH   2   7
HETATM    7  C   UNK     0       3.228  12.329  91.589  0.00  0.00     0.311 C 
BRANCH   7   8
HETATM    8  C   UNK     0       4.277  11.287  91.773  0.00  0.00    -0.030 A 
HETATM    9  C   UNK     0       3.991   9.951  91.485  0.00  0.00     0.010 A 
HETATM   10  C   UNK     0       4.971   8.975  91.658  0.00  0.00     0.021 A 
HETATM   11  C   UNK     0       6.238   9.334  92.117  0.00  0.00     0.018 A 
HETATM   12  C   UNK     0       6.526  10.667  92.404  0.00  0.00     0.021 A 
HETATM   13  C   UNK     0       5.545  11.644  92.232  0.00  0.00     0.010 A 
BRANCH  11  14
HETATM   14  C   UNK     0       7.245   8.332  92.293  0.00  0.00    -0.061 C 
HETATM   15  C   UNK     0       8.090   7.490  92.441  0.00  0.00    -0.061 C 
BRANCH  15  16
HETATM   16  C   UNK     0       9.096   6.491  92.617  0.00  0.00     0.018 A 
HETATM   17  C   UNK     0       9.259   5.879  93.861  0.00  0.00     0.022 A 
HETATM   18  C   UNK     0      10.240   4.902  94.033  0.00  0.00     0.018 A 
HETATM   19  C   UNK     0      11.034   4.558  92.959  0.00  0.00     0.032 A 
HETATM   20  C   UNK     0      10.893   5.147  91.720  0.00  0.00     0.018 A 
HETATM   21  C   UNK     0       9.913   6.125  91.548  0.00  0.00     0.022 A 
BRANCH  19  22
HETATM   22  C   UNK     0      12.079   3.518  93.144  0.00  0.00     0.252 C 
HETATM   23  O   UNK     0      11.739   2.351  93.321  0.00  0.00    -0.268 OA
HETATM   24  N   UNK     0      13.394   3.958  93.075  0.00  0.00    -0.341 N 
HETATM   25  H   UNK     0      13.599   4.935  92.900  0.00  0.00     0.163 HD
BRANCH  24  26
HETATM   26  C   UNK     0      14.518   3.068  93.209  0.00  0.00     0.207 C 
BRANCH  26  27
HETATM   27  C   UNK     0      14.844   2.322  91.909  0.00  0.00     0.146 C 
HETATM   28  C   UNK     0      14.581   3.170  90.669  0.00  0.00     0.042 C 
BRANCH  27  29
HETATM   29  O   UNK     0      16.215   1.926  91.917  0.00  0.00    -0.393 OA
HETATM   30  H   UNK     0      16.608   2.203  92.762  0.00  0.00     0.210 HD
ENDBRANCH  27  29
ENDBRANCH  26  27
BRANCH  26  31
HETATM   31  C   UNK     0      15.709   3.890  93.691  0.00  0.00     0.266 C 
HETATM   32  O   UNK     0      16.742   3.383  94.124  0.00  0.00    -0.269 OA
HETATM   33  N   UNK     0      15.470   5.241  93.617  0.00  0.00    -0.236 N 
HETATM   34  H   UNK     0      14.601   5.690  93.351  0.00  0.00     0.197 HD
BRANCH  33  35
HETATM   35  O   UNK     0      16.503   6.069  94.078  0.00  0.00    -0.287 OA
HETATM   36  H   UNK     0      16.940   6.288  93.237  0.00  0.00     0.244 HD
ENDBRANCH  33  35
ENDBRANCH  26  31
ENDBRANCH  24  26
ENDBRANCH  19  22
ENDBRANCH  15  16
ENDBRANCH  11  14
ENDBRANCH   7   8
ENDBRANCH   2   7
TORSDOF 10
ENDMDL
