MODEL 1
REMARK VINA RESULT:      -6.8      0.000      0.000
REMARK  10 active torsions:
REMARK  status: ('A' for Active; 'I' for Inactive)
REMARK    1  A    between atoms: O_2  and  C_16 
REMARK    2  A    between atoms: N_5  and  C_9 
REMARK    3  A    between atoms: N_6  and  C_13 
REMARK       I    between atoms: N_6  and  C_22 
REMARK    4  A    between atoms: C_9  and  C_12 
REMARK    5  A    between atoms: C_13  and  C_16 
REMARK    6  A    between atoms: C_13  and  C_21 
REMARK    7  A    between atoms: C_19  and  C_24 
REMARK    8  A    between atoms: C_22  and  C_23 
REMARK    9  A    between atoms: C_27  and  C_30 
REMARK   10  A    between atoms: N_33  and  S_34 
ROOT
HETATM    1  C   UNL     1       5.817  11.234  89.943  1.00  0.00     0.056 A 
HETATM    2  C   UNL     1       7.052  11.189  89.331  1.00  0.00     0.005 A 
HETATM    3  C   UNL     1       5.383  10.242  90.799  1.00  0.00     0.005 A 
HETATM    4  C   UNL     1       7.475   9.088  90.446  1.00  0.00     0.042 A 
HETATM    5  C   UNL     1       7.891  10.104  89.585  1.00  0.00     0.008 A 
HETATM    6  C   UNL     1       6.222   9.157  91.053  1.00  0.00     0.008 A 
ENDROOT
BRANCH   1   7
HETATM    7  C   UNL     1       4.924  12.391  89.675  1.00  0.00     0.254 C 
HETATM    8  O   UNL     1       4.847  12.836  88.533  1.00  0.00    -0.268 OA
HETATM    9  N   UNL     1       4.210  12.873  90.763  1.00  0.00    -0.337 N 
HETATM   10  HN  UNL     1       4.307  12.438  91.673  1.00  0.00     0.164 HD
BRANCH   9  11
HETATM   11  C   UNL     1       3.286  13.974  90.658  1.00  0.00     0.172 C 
BRANCH  11  12
HETATM   12  C   UNL     1       1.931  13.675  91.312  1.00  0.00     0.136 C 
HETATM   13  C   UNL     1       1.982  12.461  92.232  1.00  0.00     0.034 C 
BRANCH  12  14
HETATM   14  O   UNL     1       1.505  14.810  92.066  1.00  0.00    -0.383 OA
HETATM   15  H   UNL     1       0.534  14.796  92.115  1.00  0.00     0.210 HD
ENDBRANCH  12  14
ENDBRANCH  11  12
BRANCH  11  16
HETATM   16  C   UNL     1       3.946  15.198  91.284  1.00  0.00     0.398 A 
HETATM   17  O   UNL     1       5.048  15.617  90.934  1.00  0.00    -0.136 OA
HETATM   18  N   UNL     1       4.944  15.610  92.450  1.00  0.00     0.142 N 
HETATM   19  HN  UNL     1       5.845  15.988  92.370  1.00  0.00     0.338 HD
BRANCH  18  20
HETATM   20  S   UNL     1       4.260  15.037  93.517  1.00  0.00     0.076 SA
HETATM   21  H   UNL     1       4.122  15.714  94.484  1.00  0.00     0.136 HD
ENDBRANCH  18  20
ENDBRANCH  11  16
ENDBRANCH   9  11
ENDBRANCH   1   7
BRANCH   4  22
HETATM   22  C   UNL     1       8.334   7.975  90.703  1.00  0.00    -0.059 C 
HETATM   23  C   UNL     1       9.057   7.039  90.919  1.00  0.00    -0.059 C 
BRANCH  23  24
HETATM   24  C   UNL     1       9.918   5.925  91.176  1.00  0.00     0.042 A 
HETATM   25  C   UNL     1      10.048   5.432  92.474  1.00  0.00     0.008 A 
HETATM   26  C   UNL     1      10.889   4.347  92.726  1.00  0.00    -0.002 A 
HETATM   27  C   UNL     1      11.596   3.755  91.679  1.00  0.00     0.011 A 
HETATM   28  C   UNL     1      11.464   4.250  90.381  1.00  0.00    -0.002 A 
HETATM   29  C   UNL     1      10.624   5.335  90.130  1.00  0.00     0.008 A 
BRANCH  27  30
HETATM   30  C   UNL     1      12.492   2.595  91.949  1.00  0.00     0.277 C 
BRANCH  30  31
HETATM   31  N   UNL     1      13.544   2.916  92.912  1.00  0.00     0.147 N 
HETATM   32  C   UNL     1      14.425   1.759  93.124  1.00  0.00     0.283 C 
HETATM   33  C   UNL     1      15.521   2.121  94.124  1.00  0.00     0.178 C 
HETATM   34  O   UNL     1      16.273   3.241  93.654  1.00  0.00    -0.350 OA
HETATM   35  C   UNL     1      15.428   4.379  93.475  1.00  0.00     0.178 C 
HETATM   36  C   UNL     1      14.331   4.072  92.461  1.00  0.00     0.283 C 
ENDBRANCH  30  31
ENDBRANCH  27  30
ENDBRANCH  23  24
ENDBRANCH   4  22
TORSDOF 10
ENDMDL
MODEL 2
REMARK VINA RESULT:      -6.6      0.705      1.194
REMARK  10 active torsions:
REMARK  status: ('A' for Active; 'I' for Inactive)
REMARK    1  A    between atoms: O_2  and  C_16 
REMARK    2  A    between atoms: N_5  and  C_9 
REMARK    3  A    between atoms: N_6  and  C_13 
REMARK       I    between atoms: N_6  and  C_22 
REMARK    4  A    between atoms: C_9  and  C_12 
REMARK    5  A    between atoms: C_13  and  C_16 
REMARK    6  A    between atoms: C_13  and  C_21 
REMARK    7  A    between atoms: C_19  and  C_24 
REMARK    8  A    between atoms: C_22  and  C_23 
REMARK    9  A    between atoms: C_27  and  C_30 
REMARK   10  A    between atoms: N_33  and  S_34 
ROOT
HETATM    1  C   UNL     1       5.256  11.004  90.201  1.00  0.00     0.056 A 
HETATM    2  C   UNL     1       6.003  10.967  91.360  1.00  0.00     0.005 A 
HETATM    3  C   UNL     1       5.373  10.044  89.218  1.00  0.00     0.005 A 
HETATM    4  C   UNL     1       7.047   8.939  90.564  1.00  0.00     0.042 A 
HETATM    5  C   UNL     1       6.910   9.923  91.544  1.00  0.00     0.008 A 
HETATM    6  C   UNL     1       6.279   9.000  89.402  1.00  0.00     0.008 A 
ENDROOT
BRANCH   1   7
HETATM    7  C   UNL     1       4.289  12.116  90.006  1.00  0.00     0.254 C 
HETATM    8  O   UNL     1       3.998  12.464  88.865  1.00  0.00    -0.268 OA
HETATM    9  N   UNL     1       3.759  12.670  91.163  1.00  0.00    -0.337 N 
HETATM   10  HN  UNL     1       4.027  12.313  92.073  1.00  0.00     0.164 HD
BRANCH   9  11
HETATM   11  C   UNL     1       2.791  13.738  91.139  1.00  0.00     0.172 C 
BRANCH  11  12
HETATM   12  C   UNL     1       1.535  13.419  91.958  1.00  0.00     0.136 C 
HETATM   13  C   UNL     1       1.700  12.172  92.819  1.00  0.00     0.034 C 
BRANCH  12  14
HETATM   14  O   UNL     1       1.221  14.526  92.802  1.00  0.00    -0.383 OA
HETATM   15  H   UNL     1       2.051  14.868  93.177  1.00  0.00     0.210 HD
ENDBRANCH  12  14
ENDBRANCH  11  12
BRANCH  11  16
HETATM   16  C   UNL     1       3.479  15.001  91.646  1.00  0.00     0.398 A 
HETATM   17  O   UNL     1       4.475  15.482  91.111  1.00  0.00    -0.136 OA
HETATM   18  N   UNL     1       4.639  15.475  92.622  1.00  0.00     0.142 N 
HETATM   19  HN  UNL     1       5.489  15.905  92.387  1.00  0.00     0.338 HD
BRANCH  18  20
HETATM   20  S   UNL     1       4.188  14.868  93.788  1.00  0.00     0.076 SA
HETATM   21  H   UNL     1       4.333  15.481  94.796  1.00  0.00     0.136 HD
ENDBRANCH  18  20
ENDBRANCH  11  16
ENDBRANCH   9  11
ENDBRANCH   1   7
BRANCH   4  22
HETATM   22  C   UNL     1       7.979   7.871  90.752  1.00  0.00    -0.059 C 
HETATM   23  C   UNL     1       8.762   6.972  90.909  1.00  0.00    -0.059 C 
BRANCH  23  24
HETATM   24  C   UNL     1       9.695   5.903  91.096  1.00  0.00     0.042 A 
HETATM   25  C   UNL     1      10.403   5.398  90.006  1.00  0.00     0.008 A 
HETATM   26  C   UNL     1      11.310   4.355  90.188  1.00  0.00    -0.002 A 
HETATM   27  C   UNL     1      11.511   3.819  91.461  1.00  0.00     0.011 A 
HETATM   28  C   UNL     1      10.802   4.326  92.550  1.00  0.00    -0.002 A 
HETATM   29  C   UNL     1       9.894   5.369  92.367  1.00  0.00     0.008 A 
BRANCH  27  30
HETATM   30  C   UNL     1      12.483   2.706  91.654  1.00  0.00     0.277 C 
BRANCH  30  31
HETATM   31  N   UNL     1      13.471   3.003  92.689  1.00  0.00     0.147 N 
HETATM   32  C   UNL     1      14.226   1.795  93.051  1.00  0.00     0.283 C 
HETATM   33  C   UNL     1      15.258   2.132  94.124  1.00  0.00     0.178 C 
HETATM   34  O   UNL     1      16.143   3.152  93.659  1.00  0.00    -0.350 OA
HETATM   35  C   UNL     1      15.421   4.341  93.335  1.00  0.00     0.178 C 
HETATM   36  C   UNL     1      14.393   4.057  92.245  1.00  0.00     0.283 C 
ENDBRANCH  30  31
ENDBRANCH  27  30
ENDBRANCH  23  24
ENDBRANCH   4  22
TORSDOF 10
ENDMDL
MODEL 3
REMARK VINA RESULT:      -6.5      1.424      2.009
REMARK  10 active torsions:
REMARK  status: ('A' for Active; 'I' for Inactive)
REMARK    1  A    between atoms: O_2  and  C_16 
REMARK    2  A    between atoms: N_5  and  C_9 
REMARK    3  A    between atoms: N_6  and  C_13 
REMARK       I    between atoms: N_6  and  C_22 
REMARK    4  A    between atoms: C_9  and  C_12 
REMARK    5  A    between atoms: C_13  and  C_16 
REMARK    6  A    between atoms: C_13  and  C_21 
REMARK    7  A    between atoms: C_19  and  C_24 
REMARK    8  A    between atoms: C_22  and  C_23 
REMARK    9  A    between atoms: C_27  and  C_30 
REMARK   10  A    between atoms: N_33  and  S_34 
ROOT
HETATM    1  C   UNL     1       5.272  10.536  91.136  1.00  0.00     0.056 A 
HETATM    2  C   UNL     1       6.195  10.619  92.157  1.00  0.00     0.005 A 
HETATM    3  C   UNL     1       5.249   9.481  90.248  1.00  0.00     0.005 A 
HETATM    4  C   UNL     1       7.136   8.523  91.412  1.00  0.00     0.042 A 
HETATM    5  C   UNL     1       7.138   9.601  92.297  1.00  0.00     0.008 A 
HETATM    6  C   UNL     1       6.192   8.462  90.388  1.00  0.00     0.008 A 
ENDROOT
BRANCH   1   7
HETATM    7  C   UNL     1       4.266  11.619  90.988  1.00  0.00     0.254 C 
HETATM    8  O   UNL     1       3.187  11.368  90.456  1.00  0.00    -0.268 OA
HETATM    9  N   UNL     1       4.626  12.858  91.500  1.00  0.00    -0.337 N 
HETATM   10  HN  UNL     1       5.526  12.985  91.949  1.00  0.00     0.164 HD
BRANCH   9  11
HETATM   11  C   UNL     1       3.750  14.001  91.455  1.00  0.00     0.172 C 
BRANCH  11  12
HETATM   12  C   UNL     1       3.671  14.634  90.060  1.00  0.00     0.136 C 
HETATM   13  C   UNL     1       5.047  14.923  89.471  1.00  0.00     0.034 C 
BRANCH  12  14
HETATM   14  O   UNL     1       2.965  13.760  89.179  1.00  0.00    -0.383 OA
HETATM   15  H   UNL     1       3.047  12.853  89.519  1.00  0.00     0.210 HD
ENDBRANCH  12  14
ENDBRANCH  11  12
BRANCH  11  16
HETATM   16  C   UNL     1       2.375  13.553  91.940  1.00  0.00     0.398 A 
HETATM   17  O   UNL     1       1.377  14.269  91.877  1.00  0.00    -0.136 OA
HETATM   18  N   UNL     1       1.446  13.575  93.228  1.00  0.00     0.142 N 
HETATM   19  HN  UNL     1       0.601  14.056  93.357  1.00  0.00     0.338 HD
BRANCH  18  20
HETATM   20  S   UNL     1       2.315  12.953  94.118  1.00  0.00     0.076 SA
HETATM   21  H   UNL     1       3.441  12.826  93.759  1.00  0.00     0.136 HD
ENDBRANCH  18  20
ENDBRANCH  11  16
ENDBRANCH   9  11
ENDBRANCH   1   7
BRANCH   4  22
HETATM   22  C   UNL     1       8.105   7.481  91.554  1.00  0.00    -0.059 C 
HETATM   23  C   UNL     1       8.919   6.604  91.673  1.00  0.00    -0.059 C 
BRANCH  23  24
HETATM   24  C   UNL     1       9.888   5.561  91.815  1.00  0.00     0.042 A 
HETATM   25  C   UNL     1      10.475   5.320  93.056  1.00  0.00     0.008 A 
HETATM   26  C   UNL     1      11.422   4.305  93.194  1.00  0.00    -0.002 A 
HETATM   27  C   UNL     1      11.778   3.530  92.090  1.00  0.00     0.011 A 
HETATM   28  C   UNL     1      11.189   3.772  90.849  1.00  0.00    -0.002 A 
HETATM   29  C   UNL     1      10.244   4.788  90.712  1.00  0.00     0.008 A 
BRANCH  27  30
HETATM   30  C   UNL     1      12.788   2.443  92.238  1.00  0.00     0.277 C 
BRANCH  30  31
HETATM   31  N   UNL     1      13.867   2.807  93.156  1.00  0.00     0.147 N 
HETATM   32  C   UNL     1      14.910   1.772  93.168  1.00  0.00     0.283 C 
HETATM   33  C   UNL     1      16.029   2.178  94.124  1.00  0.00     0.178 C 
HETATM   34  O   UNL     1      16.581   3.438  93.736  1.00  0.00    -0.350 OA
HETATM   35  C   UNL     1      15.579   4.456  93.751  1.00  0.00     0.178 C 
HETATM   36  C   UNL     1      14.449   4.105  92.789  1.00  0.00     0.283 C 
ENDBRANCH  30  31
ENDBRANCH  27  30
ENDBRANCH  23  24
ENDBRANCH   4  22
TORSDOF 10
ENDMDL
MODEL 4
REMARK VINA RESULT:      -6.5      1.320      1.416
REMARK  10 active torsions:
REMARK  status: ('A' for Active; 'I' for Inactive)
REMARK    1  A    between atoms: O_2  and  C_16 
REMARK    2  A    between atoms: N_5  and  C_9 
REMARK    3  A    between atoms: N_6  and  C_13 
REMARK       I    between atoms: N_6  and  C_22 
REMARK    4  A    between atoms: C_9  and  C_12 
REMARK    5  A    between atoms: C_13  and  C_16 
REMARK    6  A    between atoms: C_13  and  C_21 
REMARK    7  A    between atoms: C_19  and  C_24 
REMARK    8  A    between atoms: C_22  and  C_23 
REMARK    9  A    between atoms: C_27  and  C_30 
REMARK   10  A    between atoms: N_33  and  S_34 
ROOT
HETATM    1  C   UNL     1       5.077   9.958  89.747  1.00  0.00     0.056 A 
HETATM    2  C   UNL     1       5.934   9.597  88.728  1.00  0.00     0.005 A 
HETATM    3  C   UNL     1       5.168   9.415  91.012  1.00  0.00     0.005 A 
HETATM    4  C   UNL     1       7.036   8.085  90.255  1.00  0.00     0.042 A 
HETATM    5  C   UNL     1       6.924   8.649  88.984  1.00  0.00     0.008 A 
HETATM    6  C   UNL     1       6.158   8.467  91.269  1.00  0.00     0.008 A 
ENDROOT
BRANCH   1   7
HETATM    7  C   UNL     1       4.023  10.969  89.475  1.00  0.00     0.254 C 
HETATM    8  O   UNL     1       3.288  10.821  88.501  1.00  0.00    -0.268 OA
HETATM    9  N   UNL     1       3.936  12.016  90.381  1.00  0.00    -0.337 N 
HETATM   10  HN  UNL     1       4.562  12.059  91.177  1.00  0.00     0.164 HD
BRANCH   9  11
HETATM   11  C   UNL     1       2.950  13.061  90.267  1.00  0.00     0.172 C 
BRANCH  11  12
HETATM   12  C   UNL     1       2.282  13.395  91.606  1.00  0.00     0.136 C 
HETATM   13  C   UNL     1       1.291  14.549  91.492  1.00  0.00     0.034 C 
BRANCH  12  14
HETATM   14  O   UNL     1       1.597  12.244  92.099  1.00  0.00    -0.383 OA
HETATM   15  H   UNL     1       0.790  12.540  92.553  1.00  0.00     0.210 HD
ENDBRANCH  12  14
ENDBRANCH  11  12
BRANCH  11  16
HETATM   16  C   UNL     1       3.636  14.285  89.669  1.00  0.00     0.398 A 
HETATM   17  O   UNL     1       4.451  14.214  88.751  1.00  0.00    -0.136 OA
HETATM   18  N   UNL     1       4.945  15.172  89.822  1.00  0.00     0.142 N 
HETATM   19  HN  UNL     1       5.688  15.270  89.189  1.00  0.00     0.338 HD
BRANCH  18  20
HETATM   20  S   UNL     1       4.809  15.508  91.164  1.00  0.00     0.076 SA
HETATM   21  H   UNL     1       3.789  15.197  91.689  1.00  0.00     0.136 HD
ENDBRANCH  18  20
ENDBRANCH  11  16
ENDBRANCH   9  11
ENDBRANCH   1   7
BRANCH   4  22
HETATM   22  C   UNL     1       8.050   7.111  90.517  1.00  0.00    -0.059 C 
HETATM   23  C   UNL     1       8.903   6.293  90.737  1.00  0.00    -0.059 C 
BRANCH  23  24
HETATM   24  C   UNL     1       9.918   5.319  91.000  1.00  0.00     0.042 A 
HETATM   25  C   UNL     1      10.182   4.925  92.311  1.00  0.00     0.008 A 
HETATM   26  C   UNL     1      11.172   3.977  92.568  1.00  0.00    -0.002 A 
HETATM   27  C   UNL     1      11.897   3.423  91.512  1.00  0.00     0.011 A 
HETATM   28  C   UNL     1      11.632   3.818  90.201  1.00  0.00    -0.002 A 
HETATM   29  C   UNL     1      10.642   4.766  89.945  1.00  0.00     0.008 A 
BRANCH  27  30
HETATM   30  C   UNL     1      12.954   2.408  91.787  1.00  0.00     0.277 C 
BRANCH  30  31
HETATM   31  N   UNL     1      13.874   2.833  92.841  1.00  0.00     0.147 N 
HETATM   32  C   UNL     1      14.954   1.853  93.017  1.00  0.00     0.283 C 
HETATM   33  C   UNL     1      15.906   2.323  94.113  1.00  0.00     0.178 C 
HETATM   34  O   UNL     1      16.445   3.605  93.787  1.00  0.00    -0.350 OA
HETATM   35  C   UNL     1      15.403   4.572  93.645  1.00  0.00     0.178 C 
HETATM   36  C   UNL     1      14.439   4.156  92.539  1.00  0.00     0.283 C 
ENDBRANCH  30  31
ENDBRANCH  27  30
ENDBRANCH  23  24
ENDBRANCH   4  22
TORSDOF 10
ENDMDL
MODEL 5
REMARK VINA RESULT:      -6.5      1.570      1.968
REMARK  10 active torsions:
REMARK  status: ('A' for Active; 'I' for Inactive)
REMARK    1  A    between atoms: O_2  and  C_16 
REMARK    2  A    between atoms: N_5  and  C_9 
REMARK    3  A    between atoms: N_6  and  C_13 
REMARK       I    between atoms: N_6  and  C_22 
REMARK    4  A    between atoms: C_9  and  C_12 
REMARK    5  A    between atoms: C_13  and  C_16 
REMARK    6  A    between atoms: C_13  and  C_21 
REMARK    7  A    between atoms: C_19  and  C_24 
REMARK    8  A    between atoms: C_22  and  C_23 
REMARK    9  A    between atoms: C_27  and  C_30 
REMARK   10  A    between atoms: N_33  and  S_34 
ROOT
HETATM    1  C   UNL     1       4.819   9.859  90.989  1.00  0.00     0.056 A 
HETATM    2  C   UNL     1       6.123  10.298  91.084  1.00  0.00     0.005 A 
HETATM    3  C   UNL     1       4.487   8.521  91.045  1.00  0.00     0.005 A 
HETATM    4  C   UNL     1       6.832   7.999  91.302  1.00  0.00     0.042 A 
HETATM    5  C   UNL     1       7.142   9.358  91.243  1.00  0.00     0.008 A 
HETATM    6  C   UNL     1       5.505   7.580  91.204  1.00  0.00     0.008 A 
ENDROOT
BRANCH   1   7
HETATM    7  C   UNL     1       3.735  10.860  90.822  1.00  0.00     0.254 C 
HETATM    8  O   UNL     1       2.659  10.506  90.346  1.00  0.00    -0.268 OA
HETATM    9  N   UNL     1       4.025  12.148  91.251  1.00  0.00    -0.337 N 
HETATM   10  HN  UNL     1       4.928  12.362  91.658  1.00  0.00     0.164 HD
BRANCH   9  11
HETATM   11  C   UNL     1       3.069  13.224  91.179  1.00  0.00     0.172 C 
BRANCH  11  12
HETATM   12  C   UNL     1       3.038  14.077  92.453  1.00  0.00     0.136 C 
HETATM   13  C   UNL     1       1.632  14.220  93.025  1.00  0.00     0.034 C 
BRANCH  12  14
HETATM   14  O   UNL     1       3.883  13.490  93.441  1.00  0.00    -0.383 OA
HETATM   15  H   UNL     1       3.582  13.788  94.316  1.00  0.00     0.210 HD
ENDBRANCH  12  14
ENDBRANCH  11  12
BRANCH  11  16
HETATM   16  C   UNL     1       3.409  14.067  89.954  1.00  0.00     0.398 A 
HETATM   17  O   UNL     1       3.806  13.582  88.896  1.00  0.00    -0.136 OA
HETATM   18  N   UNL     1       4.630  14.807  89.258  1.00  0.00     0.142 N 
HETATM   19  HN  UNL     1       5.063  14.590  88.405  1.00  0.00     0.338 HD
BRANCH  18  20
HETATM   20  S   UNL     1       5.009  15.621  90.320  1.00  0.00     0.076 SA
HETATM   21  H   UNL     1       5.991  15.303  90.909  1.00  0.00     0.136 HD
ENDBRANCH  18  20
ENDBRANCH  11  16
ENDBRANCH   9  11
ENDBRANCH   1   7
BRANCH   4  22
HETATM   22  C   UNL     1       7.876   7.036  91.462  1.00  0.00    -0.059 C 
HETATM   23  C   UNL     1       8.754   6.225  91.597  1.00  0.00    -0.059 C 
BRANCH  23  24
HETATM   24  C   UNL     1       9.798   5.261  91.757  1.00  0.00     0.042 A 
HETATM   25  C   UNL     1      10.270   4.556  90.651  1.00  0.00     0.008 A 
HETATM   26  C   UNL     1      11.287   3.614  90.807  1.00  0.00    -0.002 A 
HETATM   27  C   UNL     1      11.832   3.379  92.070  1.00  0.00     0.011 A 
HETATM   28  C   UNL     1      11.358   4.085  93.176  1.00  0.00    -0.002 A 
HETATM   29  C   UNL     1      10.341   5.027  93.019  1.00  0.00     0.008 A 
BRANCH  27  30
HETATM   30  C   UNL     1      12.920   2.373  92.236  1.00  0.00     0.277 C 
BRANCH  30  31
HETATM   31  N   UNL     1      13.973   2.836  93.138  1.00  0.00     0.147 N 
HETATM   32  C   UNL     1      15.079   1.869  93.186  1.00  0.00     0.283 C 
HETATM   33  C   UNL     1      16.170   2.378  94.124  1.00  0.00     0.178 C 
HETATM   34  O   UNL     1      16.643   3.654  93.690  1.00  0.00    -0.350 OA
HETATM   35  C   UNL     1      15.580   4.608  93.670  1.00  0.00     0.178 C 
HETATM   36  C   UNL     1      14.475   4.153  92.723  1.00  0.00     0.283 C 
ENDBRANCH  30  31
ENDBRANCH  27  30
ENDBRANCH  23  24
ENDBRANCH   4  22
TORSDOF 10
ENDMDL
MODEL 6
REMARK VINA RESULT:      -5.8      1.806      2.160
REMARK  10 active torsions:
REMARK  status: ('A' for Active; 'I' for Inactive)
REMARK    1  A    between atoms: O_2  and  C_16 
REMARK    2  A    between atoms: N_5  and  C_9 
REMARK    3  A    between atoms: N_6  and  C_13 
REMARK       I    between atoms: N_6  and  C_22 
REMARK    4  A    between atoms: C_9  and  C_12 
REMARK    5  A    between atoms: C_13  and  C_16 
REMARK    6  A    between atoms: C_13  and  C_21 
REMARK    7  A    between atoms: C_19  and  C_24 
REMARK    8  A    between atoms: C_22  and  C_23 
REMARK    9  A    between atoms: C_27  and  C_30 
REMARK   10  A    between atoms: N_33  and  S_34 
ROOT
HETATM    1  C   UNL     1       5.331   9.073  90.463  1.00  0.00     0.056 A 
HETATM    2  C   UNL     1       6.390   9.539  91.214  1.00  0.00     0.005 A 
HETATM    3  C   UNL     1       5.279   7.780  89.987  1.00  0.00     0.005 A 
HETATM    4  C   UNL     1       7.417   7.360  91.031  1.00  0.00     0.042 A 
HETATM    5  C   UNL     1       7.445   8.673  91.502  1.00  0.00     0.008 A 
HETATM    6  C   UNL     1       6.334   6.914  90.273  1.00  0.00     0.008 A 
ENDROOT
BRANCH   1   7
HETATM    7  C   UNL     1       4.207   9.996  90.159  1.00  0.00     0.254 C 
HETATM    8  O   UNL     1       3.240   9.575  89.527  1.00  0.00    -0.268 OA
HETATM    9  N   UNL     1       4.331  11.289  90.648  1.00  0.00    -0.337 N 
HETATM   10  HN  UNL     1       5.148  11.558  91.183  1.00  0.00     0.164 HD
BRANCH   9  11
HETATM   11  C   UNL     1       3.314  12.291  90.456  1.00  0.00     0.172 C 
BRANCH  11  12
HETATM   12  C   UNL     1       2.379  12.427  91.665  1.00  0.00     0.136 C 
HETATM   13  C   UNL     1       2.817  11.562  92.842  1.00  0.00     0.034 C 
BRANCH  12  14
HETATM   14  O   UNL     1       2.334  13.790  92.083  1.00  0.00    -0.383 OA
HETATM   15  H   UNL     1       2.462  14.353  91.301  1.00  0.00     0.210 HD
ENDBRANCH  12  14
ENDBRANCH  11  12
BRANCH  11  16
HETATM   16  C   UNL     1       4.014  13.611  90.146  1.00  0.00     0.398 A 
HETATM   17  O   UNL     1       3.407  14.666  89.971  1.00  0.00    -0.136 OA
HETATM   18  N   UNL     1       4.495  14.502  88.922  1.00  0.00     0.142 N 
HETATM   19  HN  UNL     1       4.157  15.380  88.643  1.00  0.00     0.338 HD
BRANCH  18  20
HETATM   20  S   UNL     1       5.294  13.561  88.285  1.00  0.00     0.076 SA
HETATM   21  H   UNL     1       5.077  13.373  87.131  1.00  0.00     0.136 HD
ENDBRANCH  18  20
ENDBRANCH  11  16
ENDBRANCH   9  11
ENDBRANCH   1   7
BRANCH   4  22
HETATM   22  C   UNL     1       8.499   6.474  91.323  1.00  0.00    -0.059 C 
HETATM   23  C   UNL     1       9.411   5.729  91.568  1.00  0.00    -0.059 C 
BRANCH  23  24
HETATM   24  C   UNL     1      10.495   4.842  91.861  1.00  0.00     0.042 A 
HETATM   25  C   UNL     1      10.942   4.699  93.174  1.00  0.00     0.008 A 
HETATM   26  C   UNL     1      12.000   3.836  93.460  1.00  0.00    -0.002 A 
HETATM   27  C   UNL     1      12.609   3.115  92.432  1.00  0.00     0.011 A 
HETATM   28  C   UNL     1      12.160   3.259  91.119  1.00  0.00    -0.002 A 
HETATM   29  C   UNL     1      11.102   4.123  90.834  1.00  0.00     0.008 A 
BRANCH  27  30
HETATM   30  C   UNL     1      13.738   2.192  92.738  1.00  0.00     0.277 C 
BRANCH  30  31
HETATM   31  N   UNL     1      14.782   2.834  93.535  1.00  0.00     0.147 N 
HETATM   32  C   UNL     1      16.086   2.202  93.291  1.00  0.00     0.283 C 
HETATM   33  C   UNL     1      17.161   2.895  94.124  1.00  0.00     0.178 C 
HETATM   34  O   UNL     1      17.214   4.288  93.808  1.00  0.00    -0.350 OA
HETATM   35  C   UNL     1      15.959   4.916  94.072  1.00  0.00     0.178 C 
HETATM   36  C   UNL     1      14.856   4.271  93.239  1.00  0.00     0.283 C 
ENDBRANCH  30  31
ENDBRANCH  27  30
ENDBRANCH  23  24
ENDBRANCH   4  22
TORSDOF 10
ENDMDL
MODEL 7
REMARK VINA RESULT:      -5.5      1.894      2.734
REMARK  10 active torsions:
REMARK  status: ('A' for Active; 'I' for Inactive)
REMARK    1  A    between atoms: O_2  and  C_16 
REMARK    2  A    between atoms: N_5  and  C_9 
REMARK    3  A    between atoms: N_6  and  C_13 
REMARK       I    between atoms: N_6  and  C_22 
REMARK    4  A    between atoms: C_9  and  C_12 
REMARK    5  A    between atoms: C_13  and  C_16 
REMARK    6  A    between atoms: C_13  and  C_21 
REMARK    7  A    between atoms: C_19  and  C_24 
REMARK    8  A    between atoms: C_22  and  C_23 
REMARK    9  A    between atoms: C_27  and  C_30 
REMARK   10  A    between atoms: N_33  and  S_34 
ROOT
HETATM    1  C   UNL     1       5.260   9.150  90.666  1.00  0.00     0.056 A 
HETATM    2  C   UNL     1       5.380   8.557  91.905  1.00  0.00     0.005 A 
HETATM    3  C   UNL     1       6.161   8.917  89.648  1.00  0.00     0.005 A 
HETATM    4  C   UNL     1       7.376   7.441  91.125  1.00  0.00     0.042 A 
HETATM    5  C   UNL     1       6.450   7.693  92.138  1.00  0.00     0.008 A 
HETATM    6  C   UNL     1       7.231   8.053  89.880  1.00  0.00     0.008 A 
ENDROOT
BRANCH   1   7
HETATM    7  C   UNL     1       4.119  10.068  90.418  1.00  0.00     0.254 C 
HETATM    8  O   UNL     1       3.045   9.603  90.043  1.00  0.00    -0.268 OA
HETATM    9  N   UNL     1       4.358  11.414  90.659  1.00  0.00    -0.337 N 
HETATM   10  HN  UNL     1       5.264  11.722  90.992  1.00  0.00     0.164 HD
BRANCH   9  11
HETATM   11  C   UNL     1       3.345  12.424  90.488  1.00  0.00     0.172 C 
BRANCH  11  12
HETATM   12  C   UNL     1       3.526  13.613  91.441  1.00  0.00     0.136 C 
HETATM   13  C   UNL     1       4.533  13.326  92.548  1.00  0.00     0.034 C 
BRANCH  12  14
HETATM   14  O   UNL     1       3.962  14.754  90.703  1.00  0.00    -0.383 OA
HETATM   15  H   UNL     1       3.821  14.578  89.757  1.00  0.00     0.210 HD
ENDBRANCH  12  14
ENDBRANCH  11  12
BRANCH  11  16
HETATM   16  C   UNL     1       3.375  12.872  89.031  1.00  0.00     0.398 A 
HETATM   17  O   UNL     1       3.032  12.146  88.100  1.00  0.00    -0.136 OA
HETATM   18  N   UNL     1       4.319  12.877  87.753  1.00  0.00     0.142 N 
HETATM   19  HN  UNL     1       4.199  12.391  86.910  1.00  0.00     0.338 HD
BRANCH  18  20
HETATM   20  S   UNL     1       5.413  13.530  88.309  1.00  0.00     0.076 SA
HETATM   21  H   UNL     1       6.487  13.167  87.953  1.00  0.00     0.136 HD
ENDBRANCH  18  20
ENDBRANCH  11  16
ENDBRANCH   9  11
ENDBRANCH   1   7
BRANCH   4  22
HETATM   22  C   UNL     1       8.474   6.558  91.364  1.00  0.00    -0.059 C 
HETATM   23  C   UNL     1       9.398   5.815  91.565  1.00  0.00    -0.059 C 
BRANCH  23  24
HETATM   24  C   UNL     1      10.498   4.932  91.804  1.00  0.00     0.042 A 
HETATM   25  C   UNL     1      11.368   4.607  90.764  1.00  0.00     0.008 A 
HETATM   26  C   UNL     1      12.439   3.744  90.996  1.00  0.00    -0.002 A 
HETATM   27  C   UNL     1      12.640   3.208  92.269  1.00  0.00     0.011 A 
HETATM   28  C   UNL     1      11.768   3.535  93.308  1.00  0.00    -0.002 A 
HETATM   29  C   UNL     1      10.697   4.397  93.075  1.00  0.00     0.008 A 
BRANCH  27  30
HETATM   30  C   UNL     1      13.787   2.288  92.517  1.00  0.00     0.277 C 
BRANCH  30  31
HETATM   31  N   UNL     1      14.803   2.885  93.381  1.00  0.00     0.147 N 
HETATM   32  C   UNL     1      16.125   2.302  93.109  1.00  0.00     0.283 C 
HETATM   33  C   UNL     1      17.171   2.948  94.014  1.00  0.00     0.178 C 
HETATM   34  O   UNL     1      17.198   4.362  93.812  1.00  0.00    -0.350 OA
HETATM   35  C   UNL     1      15.926   4.941  94.104  1.00  0.00     0.178 C 
HETATM   36  C   UNL     1      14.850   4.343  93.202  1.00  0.00     0.283 C 
ENDBRANCH  30  31
ENDBRANCH  27  30
ENDBRANCH  23  24
ENDBRANCH   4  22
TORSDOF 10
ENDMDL
MODEL 8
REMARK VINA RESULT:      -5.3      3.607     12.393
REMARK  10 active torsions:
REMARK  status: ('A' for Active; 'I' for Inactive)
REMARK    1  A    between atoms: O_2  and  C_16 
REMARK    2  A    between atoms: N_5  and  C_9 
REMARK    3  A    between atoms: N_6  and  C_13 
REMARK       I    between atoms: N_6  and  C_22 
REMARK    4  A    between atoms: C_9  and  C_12 
REMARK    5  A    between atoms: C_13  and  C_16 
REMARK    6  A    between atoms: C_13  and  C_21 
REMARK    7  A    between atoms: C_19  and  C_24 
REMARK    8  A    between atoms: C_22  and  C_23 
REMARK    9  A    between atoms: C_27  and  C_30 
REMARK   10  A    between atoms: N_33  and  S_34 
ROOT
HETATM    1  C   UNL     1      10.000   5.505  90.100  1.00  0.00     0.056 A 
HETATM    2  C   UNL     1      10.131   6.489  89.143  1.00  0.00     0.005 A 
HETATM    3  C   UNL     1       8.996   5.526  91.045  1.00  0.00     0.005 A 
HETATM    4  C   UNL     1       8.192   7.587  90.076  1.00  0.00     0.042 A 
HETATM    5  C   UNL     1       9.217   7.543  89.130  1.00  0.00     0.008 A 
HETATM    6  C   UNL     1       8.082   6.579  91.033  1.00  0.00     0.008 A 
ENDROOT
BRANCH   1   7
HETATM    7  C   UNL     1      10.973   4.382  90.112  1.00  0.00     0.254 C 
HETATM    8  O   UNL     1      10.939   3.549  89.209  1.00  0.00    -0.268 OA
HETATM    9  N   UNL     1      11.884   4.377  91.160  1.00  0.00    -0.337 N 
HETATM   10  HN  UNL     1      11.868   5.113  91.856  1.00  0.00     0.164 HD
BRANCH   9  11
HETATM   11  C   UNL     1      12.904   3.369  91.296  1.00  0.00     0.172 C 
BRANCH  11  12
HETATM   12  C   UNL     1      14.320   3.929  91.115  1.00  0.00     0.136 C 
HETATM   13  C   UNL     1      15.213   3.005  90.294  1.00  0.00     0.034 C 
BRANCH  12  14
HETATM   14  O   UNL     1      14.252   5.200  90.470  1.00  0.00    -0.383 OA
HETATM   15  H   UNL     1      13.389   5.272  90.029  1.00  0.00     0.210 HD
ENDBRANCH  12  14
ENDBRANCH  11  12
BRANCH  11  16
HETATM   16  C   UNL     1      12.736   2.718  92.665  1.00  0.00     0.398 A 
HETATM   17  O   UNL     1      12.041   3.204  93.556  1.00  0.00    -0.136 OA
HETATM   18  N   UNL     1      13.365   2.717  94.124  1.00  0.00     0.142 N 
HETATM   19  HN  UNL     1      12.957   3.031  94.959  1.00  0.00     0.338 HD
BRANCH  18  20
HETATM   20  S   UNL     1      14.675   2.403  93.782  1.00  0.00     0.076 SA
HETATM   21  H   UNL     1      15.335   1.886  94.624  1.00  0.00     0.136 HD
ENDBRANCH  18  20
ENDBRANCH  11  16
ENDBRANCH   9  11
ENDBRANCH   1   7
BRANCH   4  22
HETATM   22  C   UNL     1       7.257   8.669  90.064  1.00  0.00    -0.059 C 
HETATM   23  C   UNL     1       6.470   9.578  90.055  1.00  0.00    -0.059 C 
BRANCH  23  24
HETATM   24  C   UNL     1       5.534  10.659  90.044  1.00  0.00     0.042 A 
HETATM   25  C   UNL     1       4.283  10.503  90.641  1.00  0.00     0.008 A 
HETATM   26  C   UNL     1       3.369  11.557  90.629  1.00  0.00    -0.002 A 
HETATM   27  C   UNL     1       3.708  12.767  90.022  1.00  0.00     0.011 A 
HETATM   28  C   UNL     1       4.960  12.921  89.426  1.00  0.00    -0.002 A 
HETATM   29  C   UNL     1       5.873  11.867  89.437  1.00  0.00     0.008 A 
BRANCH  27  30
HETATM   30  C   UNL     1       2.731  13.893  90.011  1.00  0.00     0.277 C 
BRANCH  30  31
HETATM   31  N   UNL     1       2.744  14.653  91.261  1.00  0.00     0.147 N 
HETATM   32  C   UNL     1       1.805  14.073  92.231  1.00  0.00     0.283 C 
HETATM   33  C   UNL     1       1.843  14.874  93.530  1.00  0.00     0.178 C 
HETATM   34  O   UNL     1       3.168  14.891  94.065  1.00  0.00    -0.350 OA
HETATM   35  C   UNL     1       4.081  15.481  93.140  1.00  0.00     0.178 C 
HETATM   36  C   UNL     1       4.097  14.695  91.833  1.00  0.00     0.283 C 
ENDBRANCH  30  31
ENDBRANCH  27  30
ENDBRANCH  23  24
ENDBRANCH   4  22
TORSDOF 10
ENDMDL
MODEL 9
REMARK VINA RESULT:      -5.3      3.648     12.571
REMARK  10 active torsions:
REMARK  status: ('A' for Active; 'I' for Inactive)
REMARK    1  A    between atoms: O_2  and  C_16 
REMARK    2  A    between atoms: N_5  and  C_9 
REMARK    3  A    between atoms: N_6  and  C_13 
REMARK       I    between atoms: N_6  and  C_22 
REMARK    4  A    between atoms: C_9  and  C_12 
REMARK    5  A    between atoms: C_13  and  C_16 
REMARK    6  A    between atoms: C_13  and  C_21 
REMARK    7  A    between atoms: C_19  and  C_24 
REMARK    8  A    between atoms: C_22  and  C_23 
REMARK    9  A    between atoms: C_27  and  C_30 
REMARK   10  A    between atoms: N_33  and  S_34 
ROOT
HETATM    1  C   UNL     1      10.449   4.708  92.612  1.00  0.00     0.056 A 
HETATM    2  C   UNL     1      10.231   5.576  93.660  1.00  0.00     0.005 A 
HETATM    3  C   UNL     1       9.722   4.770  91.441  1.00  0.00     0.005 A 
HETATM    4  C   UNL     1       8.493   6.635  92.360  1.00  0.00     0.042 A 
HETATM    5  C   UNL     1       9.242   6.552  93.534  1.00  0.00     0.008 A 
HETATM    6  C   UNL     1       8.733   5.745  91.313  1.00  0.00     0.008 A 
ENDROOT
BRANCH   1   7
HETATM    7  C   UNL     1      11.504   3.670  92.746  1.00  0.00     0.254 C 
HETATM    8  O   UNL     1      11.209   2.489  92.577  1.00  0.00    -0.268 OA
HETATM    9  N   UNL     1      12.779   4.134  93.036  1.00  0.00    -0.337 N 
HETATM   10  HN  UNL     1      12.953   5.127  93.138  1.00  0.00     0.164 HD
BRANCH   9  11
HETATM   11  C   UNL     1      13.912   3.255  93.173  1.00  0.00     0.172 C 
BRANCH  11  12
HETATM   12  C   UNL     1      14.368   2.660  91.835  1.00  0.00     0.136 C 
HETATM   13  C   UNL     1      14.202   3.637  90.676  1.00  0.00     0.034 C 
BRANCH  12  14
HETATM   14  O   UNL     1      15.740   2.277  91.925  1.00  0.00    -0.383 OA
HETATM   15  H   UNL     1      16.239   3.019  92.306  1.00  0.00     0.210 HD
ENDBRANCH  12  14
ENDBRANCH  11  12
BRANCH  11  16
HETATM   16  C   UNL     1      15.035   4.041  93.842  1.00  0.00     0.398 A 
HETATM   17  O   UNL     1      15.484   5.090  93.381  1.00  0.00    -0.136 OA
HETATM   18  N   UNL     1      16.617   4.187  93.843  1.00  0.00     0.142 N 
HETATM   19  HN  UNL     1      17.154   4.953  93.548  1.00  0.00     0.338 HD
BRANCH  18  20
HETATM   20  S   UNL     1      16.944   2.866  94.124  1.00  0.00     0.076 SA
HETATM   21  H   UNL     1      17.197   2.172  93.193  1.00  0.00     0.136 HD
ENDBRANCH  18  20
ENDBRANCH  11  16
ENDBRANCH   9  11
ENDBRANCH   1   7
BRANCH   4  22
HETATM   22  C   UNL     1       7.477   7.633  92.231  1.00  0.00    -0.059 C 
HETATM   23  C   UNL     1       6.622   8.472  92.123  1.00  0.00    -0.059 C 
BRANCH  23  24
HETATM   24  C   UNL     1       5.605   9.470  91.995  1.00  0.00     0.042 A 
HETATM   25  C   UNL     1       4.505   9.241  91.170  1.00  0.00     0.008 A 
HETATM   26  C   UNL     1       3.515  10.215  91.043  1.00  0.00    -0.002 A 
HETATM   27  C   UNL     1       3.625  11.417  91.745  1.00  0.00     0.011 A 
HETATM   28  C   UNL     1       4.726  11.644  92.570  1.00  0.00    -0.002 A 
HETATM   29  C   UNL     1       5.716  10.670  92.696  1.00  0.00     0.008 A 
BRANCH  27  30
HETATM   30  C   UNL     1       2.564  12.456  91.610  1.00  0.00     0.277 C 
BRANCH  30  31
HETATM   31  N   UNL     1       3.091  13.730  91.123  1.00  0.00     0.147 N 
HETATM   32  C   UNL     1       4.041  14.303  92.087  1.00  0.00     0.283 C 
HETATM   33  C   UNL     1       4.585  15.625  91.553  1.00  0.00     0.178 C 
HETATM   34  O   UNL     1       5.218  15.427  90.287  1.00  0.00    -0.350 OA
HETATM   35  C   UNL     1       4.293  14.898  89.335  1.00  0.00     0.178 C 
HETATM   36  C   UNL     1       3.741  13.560  89.816  1.00  0.00     0.283 C 
ENDBRANCH  30  31
ENDBRANCH  27  30
ENDBRANCH  23  24
ENDBRANCH   4  22
TORSDOF 10
ENDMDL
