MODEL 1
REMARK VINA RESULT:      -6.2      0.000      0.000
REMARK  12 active torsions:
REMARK  status: ('A' for Active; 'I' for Inactive)
REMARK    1  A    between atoms: O_2  and  C_16 
REMARK    2  A    between atoms: N_5  and  C_9 
REMARK    3  A    between atoms: N_6  and  C_13 
REMARK       I    between atoms: N_6  and  C_22 
REMARK    4  A    between atoms: C_9  and  C_12 
REMARK    5  A    between atoms: C_13  and  C_16 
REMARK    6  A    between atoms: C_13  and  C_21 
REMARK    7  A    between atoms: C_19  and  C_24 
REMARK    8  A    between atoms: C_21  and  C_33 
REMARK    9  A    between atoms: C_22  and  C_23 
REMARK   10  A    between atoms: C_27  and  C_30 
REMARK   11  A    between atoms: C_33  and  C_34 
REMARK   12  A    between atoms: C_34  and  C_35 
ROOT
HETATM    1  O   UNL     1      16.917   3.651  93.929  1.00  0.00    -0.350 OA
HETATM    2  N   UNL     1      14.388   3.114  92.739  1.00  0.00     0.147 N 
HETATM    3  C   UNL     1      15.388   2.054  92.928  1.00  0.00     0.283 C 
HETATM    4  C   UNL     1      15.056   4.412  92.573  1.00  0.00     0.283 C 
HETATM    5  C   UNL     1      16.276   2.389  94.124  1.00  0.00     0.178 C 
HETATM    6  C   UNL     1      15.952   4.691  93.775  1.00  0.00     0.178 C 
ENDROOT
BRANCH   2   7
HETATM    7  C   UNL     1      13.532   2.819  91.591  1.00  0.00     0.277 C 
BRANCH   7   8
HETATM    8  C   UNL     1      12.322   3.688  91.547  1.00  0.00     0.011 A 
HETATM    9  C   UNL     1      11.921   4.263  90.340  1.00  0.00    -0.002 A 
HETATM   10  C   UNL     1      10.790   5.078  90.298  1.00  0.00     0.008 A 
HETATM   11  C   UNL     1      10.060   5.317  91.462  1.00  0.00     0.042 A 
HETATM   12  C   UNL     1      10.459   4.743  92.667  1.00  0.00     0.008 A 
HETATM   13  C   UNL     1      11.590   3.928  92.710  1.00  0.00    -0.002 A 
BRANCH  11  14
HETATM   14  C   UNL     1       8.899   6.152  91.418  1.00  0.00    -0.059 C 
HETATM   15  C   UNL     1       7.923   6.853  91.380  1.00  0.00    -0.059 C 
BRANCH  15  16
HETATM   16  C   UNL     1       6.762   7.687  91.336  1.00  0.00     0.042 A 
HETATM   17  C   UNL     1       5.676   7.326  90.539  1.00  0.00     0.008 A 
HETATM   18  C   UNL     1       4.542   8.138  90.498  1.00  0.00     0.005 A 
HETATM   19  C   UNL     1       4.520   9.290  91.255  1.00  0.00     0.056 A 
HETATM   20  C   UNL     1       5.581   9.669  92.051  1.00  0.00     0.005 A 
HETATM   21  C   UNL     1       6.715   8.858  92.092  1.00  0.00     0.008 A 
BRANCH  19  22
HETATM   22  C   UNL     1       3.313  10.156  91.210  1.00  0.00     0.254 C 
HETATM   23  O   UNL     1       2.215   9.644  91.008  1.00  0.00    -0.268 OA
HETATM   24  N   UNL     1       3.527  11.509  91.430  1.00  0.00    -0.335 N 
HETATM   25  HN  UNL     1       4.461  11.858  91.616  1.00  0.00     0.164 HD
BRANCH  24  26
HETATM   26  C   UNL     1       2.455  12.472  91.442  1.00  0.00     0.166 C 
BRANCH  26  27
HETATM   27  C   UNL     1       2.112  12.961  92.855  1.00  0.00     0.138 C 
HETATM   28  C   UNL     1       3.321  12.958  93.784  1.00  0.00     0.034 C 
BRANCH  27  29
HETATM   29  O   UNL     1       1.583  14.285  92.787  1.00  0.00    -0.383 OA
HETATM   30  H   UNL     1       0.615  14.224  92.719  1.00  0.00     0.210 HD
ENDBRANCH  27  29
ENDBRANCH  26  27
BRANCH  26  31
HETATM   31  C   UNL     1       2.860  13.631  90.537  1.00  0.00     0.181 C 
HETATM   32  O   UNL     1       2.136  14.603  90.328  1.00  0.00    -0.294 OA
BRANCH  31  33
HETATM   33  C   UNL     1       4.313  14.229  90.938  1.00  0.00     0.138 C 
BRANCH  33  34
HETATM   34  C   UNL     1       4.889  14.424  89.663  1.00  0.00     0.208 C 
HETATM   35  O   UNL     1       5.287  15.542  89.425  1.00  0.00    -0.289 OA
BRANCH  34  36
HETATM   36  C   UNL     1       5.343  13.517  88.746  1.00  0.00     0.194 C 
HETATM   37  O   UNL     1       4.934  13.280  87.429  1.00  0.00    -0.185 OA
ENDBRANCH  34  36
ENDBRANCH  33  34
ENDBRANCH  31  33
ENDBRANCH  26  31
ENDBRANCH  24  26
ENDBRANCH  19  22
ENDBRANCH  15  16
ENDBRANCH  11  14
ENDBRANCH   7   8
ENDBRANCH   2   7
TORSDOF 12
ENDMDL
