MODEL 1
REMARK VINA RESULT:      -6.5      0.000      0.000
REMARK  14 active torsions:
REMARK  status: ('A' for Active; 'I' for Inactive)
REMARK    1  A    between atoms: O_2  and  C_18 
REMARK    2  A    between atoms: C_5  and  C_8 
REMARK    3  A    between atoms: C_5  and  O_35 
REMARK    4  A    between atoms: C_5  and  C_36 
REMARK    5  A    between atoms: N_6  and  C_11 
REMARK    6  A    between atoms: N_7  and  C_15 
REMARK       I    between atoms: N_7  and  C_24 
REMARK    7  A    between atoms: C_8  and  C_23 
REMARK    8  A    between atoms: C_11  and  C_14 
REMARK    9  A    between atoms: C_15  and  C_18 
REMARK   10  A    between atoms: C_15  and  C_23 
REMARK   11  A    between atoms: C_21  and  C_26 
REMARK   12  A    between atoms: C_24  and  C_25 
REMARK   13  A    between atoms: C_29  and  C_32 
REMARK   14  A    between atoms: C_36  and  O_39 
ROOT
HETATM    1  O   UNL     1      16.409   3.073  93.769  1.00  0.00    -0.350 OA
HETATM    2  N   UNL     1      13.762   2.729  92.781  1.00  0.00     0.147 N 
HETATM    3  C   UNL     1      14.649   1.581  93.018  1.00  0.00     0.283 C 
HETATM    4  C   UNL     1      14.558   3.920  92.450  1.00  0.00     0.283 C 
HETATM    5  C   UNL     1      15.647   1.918  94.123  1.00  0.00     0.178 C 
HETATM    6  C   UNL     1      15.557   4.201  93.567  1.00  0.00     0.178 C 
ENDROOT
BRANCH   2   7
HETATM    7  C   UNL     1      12.804   2.432  91.717  1.00  0.00     0.277 C 
BRANCH   7   8
HETATM    8  C   UNL     1      11.668   3.397  91.691  1.00  0.00     0.011 A 
HETATM    9  C   UNL     1      11.388   4.174  92.815  1.00  0.00    -0.002 A 
HETATM   10  C   UNL     1      10.324   5.075  92.792  1.00  0.00     0.008 A 
HETATM   11  C   UNL     1       9.542   5.201  91.644  1.00  0.00     0.042 A 
HETATM   12  C   UNL     1       9.822   4.426  90.521  1.00  0.00     0.008 A 
HETATM   13  C   UNL     1      10.885   3.524  90.543  1.00  0.00    -0.002 A 
BRANCH  11  14
HETATM   14  C   UNL     1       8.452   6.127  91.620  1.00  0.00    -0.059 C 
HETATM   15  C   UNL     1       7.536   6.905  91.600  1.00  0.00    -0.059 C 
BRANCH  15  16
HETATM   16  C   UNL     1       6.446   7.830  91.576  1.00  0.00     0.042 A 
HETATM   17  C   UNL     1       6.106   8.536  92.731  1.00  0.00     0.008 A 
HETATM   18  C   UNL     1       5.045   9.441  92.707  1.00  0.00     0.005 A 
HETATM   19  C   UNL     1       4.348   9.620  91.531  1.00  0.00     0.056 A 
HETATM   20  C   UNL     1       4.664   8.935  90.376  1.00  0.00     0.005 A 
HETATM   21  C   UNL     1       5.725   8.030  90.399  1.00  0.00     0.008 A 
BRANCH  19  22
HETATM   22  C   UNL     1       3.216  10.582  91.506  1.00  0.00     0.254 C 
HETATM   23  O   UNL     1       2.084  10.170  91.269  1.00  0.00    -0.268 OA
HETATM   24  N   UNL     1       3.536  11.904  91.785  1.00  0.00    -0.335 N 
HETATM   25  HN  UNL     1       4.491  12.167  91.997  1.00  0.00     0.164 HD
BRANCH  24  26
HETATM   26  C   UNL     1       2.546  12.950  91.823  1.00  0.00     0.169 C 
BRANCH  26  27
HETATM   27  C   UNL     1       2.526  13.700  93.161  1.00  0.00     0.138 C 
HETATM   28  C   UNL     1       3.773  13.434  93.998  1.00  0.00     0.034 C 
BRANCH  27  29
HETATM   29  O   UNL     1       2.421  15.103  92.920  1.00  0.00    -0.383 OA
HETATM   30  H   UNL     1       1.478  15.330  92.849  1.00  0.00     0.210 HD
ENDBRANCH  27  29
ENDBRANCH  26  27
BRANCH  26  31
HETATM   31  C   UNL     1       2.823  13.897  90.661  1.00  0.00     0.194 C 
HETATM   32  O   UNL     1       1.942  14.550  90.104  1.00  0.00    -0.289 OA
BRANCH  31  33
HETATM   33  C   UNL     1       4.148  13.898  90.296  1.00  0.00     0.053 C 
BRANCH  33  34
HETATM   34  C   UNL     1       4.401  13.879  88.918  1.00  0.00     0.220 C 
BRANCH  34  35
HETATM   35  O   UNL     1       5.422  14.562  88.710  1.00  0.00    -0.371 OA
HETATM   36  H   UNL     1       6.015  13.856  88.504  1.00  0.00     0.211 HD
ENDBRANCH  34  35
BRANCH  34  37
HETATM   37  C   UNL     1       4.509  12.583  88.385  1.00  0.00     0.185 C 
HETATM   38  O   UNL     1       5.567  12.518  89.178  1.00  0.00    -0.647 OA
BRANCH  37  39
HETATM   39  O   UNL     1       3.933  11.920  87.575  1.00  0.00    -0.774 OA
HETATM   40  H   UNL     1       3.385  11.052  88.058  1.00  0.00     0.167 HD
ENDBRANCH  37  39
ENDBRANCH  34  37
ENDBRANCH  33  34
ENDBRANCH  31  33
ENDBRANCH  26  31
ENDBRANCH  24  26
ENDBRANCH  19  22
ENDBRANCH  15  16
ENDBRANCH  11  14
ENDBRANCH   7   8
ENDBRANCH   2   7
TORSDOF 14
ENDMDL
