MODEL 1
REMARK VINA RESULT:      -6.6      0.000      0.000
REMARK  11 active torsions:
REMARK  status: ('A' for Active; 'I' for Inactive)
REMARK    1  A    between atoms: O_2  and  C_18 
REMARK    2  A    between atoms: O_5  and  P_8 
REMARK    3  A    between atoms: N_6  and  C_11 
REMARK    4  A    between atoms: N_7  and  C_15 
REMARK       I    between atoms: N_7  and  C_24 
REMARK    5  A    between atoms: P_8  and  C_23 
REMARK    6  A    between atoms: C_11  and  C_14 
REMARK    7  A    between atoms: C_15  and  C_18 
REMARK    8  A    between atoms: C_15  and  C_23 
REMARK    9  A    between atoms: C_21  and  C_26 
REMARK   10  A    between atoms: C_24  and  C_25 
REMARK   11  A    between atoms: C_29  and  C_32 
ROOT
HETATM    1  O   UNL     1      15.966   3.650  94.104  1.00  0.00     0.000 OA
HETATM    2  N   UNL     1      13.933   2.355  92.590  1.00  0.00     0.000 N 
HETATM    3  C   UNL     1      14.071   3.818  92.597  1.00  0.00     0.000 C 
HETATM    4  C   UNL     1      14.419   1.798  93.860  1.00  0.00     0.000 C 
HETATM    5  C   UNL     1      15.526   4.199  92.860  1.00  0.00     0.000 C 
HETATM    6  C   UNL     1      15.864   2.226  94.094  1.00  0.00     0.000 C 
ENDROOT
BRANCH   2   7
HETATM    7  C   UNL     1      12.544   1.968  92.350  1.00  0.00     0.000 C 
BRANCH   7   8
HETATM    8  C   UNL     1      11.680   3.134  92.011  1.00  0.00     0.000 A 
HETATM    9  C   UNL     1      11.504   3.506  90.678  1.00  0.00     0.000 A 
HETATM   10  C   UNL     1      10.697   4.598  90.360  1.00  0.00     0.000 A 
HETATM   11  C   UNL     1      10.064   5.316  91.374  1.00  0.00     0.000 A 
HETATM   12  C   UNL     1      10.239   4.945  92.706  1.00  0.00     0.000 A 
HETATM   13  C   UNL     1      11.046   3.853  93.025  1.00  0.00     0.000 A 
BRANCH  11  14
HETATM   14  C   UNL     1       9.235   6.435  91.048  1.00  0.00     0.000 C 
HETATM   15  C   UNL     1       8.537   7.375  90.773  1.00  0.00     0.000 C 
BRANCH  15  16
HETATM   16  C   UNL     1       7.708   8.493  90.447  1.00  0.00     0.000 A 
HETATM   17  C   UNL     1       6.324   8.400  90.595  1.00  0.00     0.000 A 
HETATM   18  C   UNL     1       5.515   9.492  90.280  1.00  0.00     0.000 A 
HETATM   19  C   UNL     1       6.108  10.651  89.825  1.00  0.00     0.000 A 
HETATM   20  C   UNL     1       7.473  10.768  89.670  1.00  0.00     0.000 A 
HETATM   21  C   UNL     1       8.283   9.677  89.985  1.00  0.00     0.000 A 
BRANCH  19  22
HETATM   22  C   UNL     1       5.246  11.813  89.488  1.00  0.00     0.000 C 
HETATM   23  O   UNL     1       5.106  12.134  88.310  1.00  0.00     0.000 OA
HETATM   24  N   UNL     1       4.631  12.446  90.559  1.00  0.00     0.000 N 
HETATM   25  HN  UNL     1       4.774  12.109  91.504  1.00  0.00     0.000 HD
BRANCH  24  26
HETATM   26  C   UNL     1       3.747  13.572  90.392  1.00  0.00     0.000 C 
BRANCH  26  27
HETATM   27  C   UNL     1       2.347  13.317  90.965  1.00  0.00     0.000 C 
HETATM   28  C   UNL     1       2.353  12.276  92.079  1.00  0.00     0.000 C 
BRANCH  27  29
HETATM   29  O   UNL     1       1.811  14.538  91.474  1.00  0.00     0.000 OA
HETATM   30  H   UNL     1       1.967  15.237  90.817  1.00  0.00     0.000 HD
ENDBRANCH  27  29
ENDBRANCH  26  27
BRANCH  26  31
HETATM   31  C   UNL     1       4.404  14.781  91.049  1.00  0.00     0.000 C 
HETATM   32  O   UNL     1       4.382  14.978  92.263  1.00  0.00     0.000 OA
BRANCH  31  33
HETATM   33  P   UNL     1       4.977  15.625  90.128  1.00  0.00     0.000 P 
HETATM   34  H   UNL     1       4.150  16.721  89.987  1.00  0.00     0.000 HD
BRANCH  33  35
HETATM   35  O   UNL     1       5.192  15.082  88.854  1.00  0.00     0.000 OA
HETATM   36  H   UNL     1       5.614  14.239  89.092  1.00  0.00     0.000 HD
ENDBRANCH  33  35
ENDBRANCH  31  33
ENDBRANCH  26  31
ENDBRANCH  24  26
ENDBRANCH  19  22
ENDBRANCH  15  16
ENDBRANCH  11  14
ENDBRANCH   7   8
ENDBRANCH   2   7
TORSDOF 11
ENDMDL
