MODEL 1
REMARK VINA RESULT:      -7.2      0.000      0.000
REMARK  9 active torsions:
REMARK  status: ('A' for Active; 'I' for Inactive)
REMARK    1  A    between atoms: O_2  and  C_17 
REMARK    2  A    between atoms: N_5  and  C_10 
REMARK    3  A    between atoms: N_6  and  C_14 
REMARK       I    between atoms: N_6  and  C_23 
REMARK       I    between atoms: N_7  and  C_22 
REMARK    4  A    between atoms: C_10  and  C_13 
REMARK    5  A    between atoms: C_14  and  C_17 
REMARK    6  A    between atoms: C_14  and  C_22 
REMARK    7  A    between atoms: C_20  and  C_25 
REMARK    8  A    between atoms: C_23  and  C_24 
REMARK    9  A    between atoms: C_28  and  C_31 
ROOT
HETATM    1  O   UNL     1      16.789   3.777  93.686  1.00  0.00    -0.388 OA
HETATM    2  N   UNL     1      14.100   2.947  93.256  1.00  0.00     0.096 N 
HETATM    3  C   UNL     1      15.214   1.989  93.223  1.00  0.00     0.299 C 
HETATM    4  C   UNL     1      14.569   4.278  92.847  1.00  0.00     0.299 C 
HETATM    5  C   UNL     1      16.350   2.486  94.114  1.00  0.00     0.198 C 
HETATM    6  C   UNL     1      15.720   4.721  93.745  1.00  0.00     0.198 C 
ENDROOT
BRANCH   2   7
HETATM    7  C   UNL     1      13.004   2.496  92.400  1.00  0.00     0.311 C 
BRANCH   7   8
HETATM    8  C   UNL     1      12.072   3.603  92.042  1.00  0.00    -0.030 A 
HETATM    9  C   UNL     1      11.421   4.318  93.047  1.00  0.00     0.010 A 
HETATM   10  C   UNL     1      10.546   5.352  92.713  1.00  0.00     0.021 A 
HETATM   11  C   UNL     1      10.325   5.671  91.373  1.00  0.00     0.018 A 
HETATM   12  C   UNL     1      10.975   4.957  90.369  1.00  0.00     0.021 A 
HETATM   13  C   UNL     1      11.849   3.923  90.702  1.00  0.00     0.010 A 
BRANCH  11  14
HETATM   14  C   UNL     1       9.430   6.733  91.030  1.00  0.00    -0.061 C 
HETATM   15  C   UNL     1       8.677   7.626  90.743  1.00  0.00    -0.061 C 
BRANCH  15  16
HETATM   16  C   UNL     1       7.783   8.688  90.401  1.00  0.00     0.018 A 
HETATM   17  C   UNL     1       8.290   9.909  89.955  1.00  0.00     0.022 A 
HETATM   18  C   UNL     1       7.418  10.944  89.619  1.00  0.00     0.018 A 
HETATM   19  C   UNL     1       6.059  10.734  89.734  1.00  0.00     0.032 A 
HETATM   20  C   UNL     1       5.534   9.537  90.172  1.00  0.00     0.018 A 
HETATM   21  C   UNL     1       6.405   8.501  90.509  1.00  0.00     0.022 A 
BRANCH  19  22
HETATM   22  C   UNL     1       5.130  11.838  89.377  1.00  0.00     0.252 C 
HETATM   23  O   UNL     1       4.713  11.922  88.224  1.00  0.00    -0.268 OA
HETATM   24  N   UNL     1       4.780  12.696  90.410  1.00  0.00    -0.342 N 
HETATM   25  H   UNL     1       5.145  12.550  91.344  1.00  0.00     0.163 HD
BRANCH  24  26
HETATM   26  C   UNL     1       3.870  13.798  90.228  1.00  0.00     0.199 C 
BRANCH  26  27
HETATM   27  C   UNL     1       2.717  13.790  91.240  1.00  0.00     0.145 C 
HETATM   28  C   UNL     1       2.222  12.382  91.549  1.00  0.00     0.042 C 
BRANCH  27  29
HETATM   29  O   UNL     1       3.143  14.408  92.454  1.00  0.00    -0.393 OA
HETATM   30  H   UNL     1       4.095  14.594  92.384  1.00  0.00     0.210 HD
ENDBRANCH  27  29
ENDBRANCH  26  27
BRANCH  26  31
HETATM   31  C   UNL     1       4.678  15.088  90.319  1.00  0.00     0.220 C 
HETATM   32  O   UNL     1       4.966  15.625  91.387  1.00  0.00    -0.278 OA
HETATM   33  N   UNL     1       5.003  15.586  89.080  1.00  0.00    -0.271 NA
HETATM   34  H   UNL     1       4.707  15.219  88.182  1.00  0.00     0.127 HD
HETATM   35  H   UNL     1       4.485  16.718  88.432  1.00  0.00     0.127 HD
ENDBRANCH  26  31
ENDBRANCH  24  26
ENDBRANCH  19  22
ENDBRANCH  15  16
ENDBRANCH  11  14
ENDBRANCH   7   8
ENDBRANCH   2   7
TORSDOF 9
ENDMDL
MODEL 2
REMARK VINA RESULT:      -6.8      1.279      1.624
REMARK  9 active torsions:
REMARK  status: ('A' for Active; 'I' for Inactive)
REMARK    1  A    between atoms: O_2  and  C_17 
REMARK    2  A    between atoms: N_5  and  C_10 
REMARK    3  A    between atoms: N_6  and  C_14 
REMARK       I    between atoms: N_6  and  C_23 
REMARK       I    between atoms: N_7  and  C_22 
REMARK    4  A    between atoms: C_10  and  C_13 
REMARK    5  A    between atoms: C_14  and  C_17 
REMARK    6  A    between atoms: C_14  and  C_22 
REMARK    7  A    between atoms: C_20  and  C_25 
REMARK    8  A    between atoms: C_23  and  C_24 
REMARK    9  A    between atoms: C_28  and  C_31 
ROOT
HETATM    1  O   UNL     1      16.554   4.128  93.679  1.00  0.00    -0.388 OA
HETATM    2  N   UNL     1      14.269   2.535  93.087  1.00  0.00     0.096 N 
HETATM    3  C   UNL     1      15.618   2.129  92.668  1.00  0.00     0.299 C 
HETATM    4  C   UNL     1      14.186   4.001  93.165  1.00  0.00     0.299 C 
HETATM    5  C   UNL     1      16.654   2.703  93.632  1.00  0.00     0.198 C 
HETATM    6  C   UNL     1      15.255   4.530  94.115  1.00  0.00     0.198 C 
ENDROOT
BRANCH   2   7
HETATM    7  C   UNL     1      13.261   2.005  92.171  1.00  0.00     0.311 C 
BRANCH   7   8
HETATM    8  C   UNL     1      12.243   3.027  91.794  1.00  0.00    -0.030 A 
HETATM    9  C   UNL     1      12.479   3.880  90.715  1.00  0.00     0.010 A 
HETATM   10  C   UNL     1      11.529   4.837  90.362  1.00  0.00     0.021 A 
HETATM   11  C   UNL     1      10.342   4.940  91.087  1.00  0.00     0.018 A 
HETATM   12  C   UNL     1      10.105   4.089  92.164  1.00  0.00     0.021 A 
HETATM   13  C   UNL     1      11.056   3.132  92.518  1.00  0.00     0.010 A 
BRANCH  11  14
HETATM   14  C   UNL     1       9.366   5.921  90.724  1.00  0.00    -0.061 C 
HETATM   15  C   UNL     1       8.546   6.746  90.419  1.00  0.00    -0.061 C 
BRANCH  15  16
HETATM   16  C   UNL     1       7.571   7.727  90.056  1.00  0.00     0.018 A 
HETATM   17  C   UNL     1       6.893   7.620  88.842  1.00  0.00     0.022 A 
HETATM   18  C   UNL     1       5.940   8.575  88.489  1.00  0.00     0.018 A 
HETATM   19  C   UNL     1       5.686   9.615  89.359  1.00  0.00     0.032 A 
HETATM   20  C   UNL     1       6.342   9.744  90.565  1.00  0.00     0.018 A 
HETATM   21  C   UNL     1       7.296   8.789  90.918  1.00  0.00     0.022 A 
BRANCH  19  22
HETATM   22  C   UNL     1       4.672  10.634  88.982  1.00  0.00     0.252 C 
HETATM   23  O   UNL     1       3.746  10.313  88.241  1.00  0.00    -0.268 OA
HETATM   24  N   UNL     1       4.844  11.896  89.534  1.00  0.00    -0.342 N 
HETATM   25  H   UNL     1       5.620  12.081  90.159  1.00  0.00     0.163 HD
BRANCH  24  26
HETATM   26  C   UNL     1       3.932  12.983  89.283  1.00  0.00     0.199 C 
BRANCH  26  27
HETATM   27  C   UNL     1       3.392  13.614  90.573  1.00  0.00     0.145 C 
HETATM   28  C   UNL     1       2.416  12.699  91.306  1.00  0.00     0.042 C 
BRANCH  27  29
HETATM   29  O   UNL     1       4.479  13.925  91.444  1.00  0.00    -0.393 OA
HETATM   30  H   UNL     1       5.270  13.460  91.122  1.00  0.00     0.210 HD
ENDBRANCH  27  29
ENDBRANCH  26  27
BRANCH  26  31
HETATM   31  C   UNL     1       4.659  14.013  88.425  1.00  0.00     0.220 C 
HETATM   32  O   UNL     1       4.924  15.147  88.819  1.00  0.00    -0.278 OA
HETATM   33  N   UNL     1       4.939  13.535  87.167  1.00  0.00    -0.271 NA
HETATM   34  H   UNL     1       4.658  12.642  86.781  1.00  0.00     0.127 HD
HETATM   35  H   UNL     1       4.346  13.894  85.947  1.00  0.00     0.127 HD
ENDBRANCH  26  31
ENDBRANCH  24  26
ENDBRANCH  19  22
ENDBRANCH  15  16
ENDBRANCH  11  14
ENDBRANCH   7   8
ENDBRANCH   2   7
TORSDOF 9
ENDMDL
MODEL 3
REMARK VINA RESULT:      -6.8      1.975      2.664
REMARK  9 active torsions:
REMARK  status: ('A' for Active; 'I' for Inactive)
REMARK    1  A    between atoms: O_2  and  C_17 
REMARK    2  A    between atoms: N_5  and  C_10 
REMARK    3  A    between atoms: N_6  and  C_14 
REMARK       I    between atoms: N_6  and  C_23 
REMARK       I    between atoms: N_7  and  C_22 
REMARK    4  A    between atoms: C_10  and  C_13 
REMARK    5  A    between atoms: C_14  and  C_17 
REMARK    6  A    between atoms: C_14  and  C_22 
REMARK    7  A    between atoms: C_20  and  C_25 
REMARK    8  A    between atoms: C_23  and  C_24 
REMARK    9  A    between atoms: C_28  and  C_31 
ROOT
HETATM    1  O   UNL     1      16.607   2.972  93.706  1.00  0.00    -0.388 OA
HETATM    2  N   UNL     1      13.813   2.884  93.174  1.00  0.00     0.096 N 
HETATM    3  C   UNL     1      14.630   1.663  93.191  1.00  0.00     0.299 C 
HETATM    4  C   UNL     1      14.635   4.035  92.776  1.00  0.00     0.299 C 
HETATM    5  C   UNL     1      15.824   1.853  94.123  1.00  0.00     0.198 C 
HETATM    6  C   UNL     1      15.828   4.169  93.717  1.00  0.00     0.198 C 
ENDROOT
BRANCH   2   7
HETATM    7  C   UNL     1      12.668   2.728  92.278  1.00  0.00     0.311 C 
BRANCH   7   8
HETATM    8  C   UNL     1      11.724   3.879  92.356  1.00  0.00    -0.030 A 
HETATM    9  C   UNL     1      11.350   4.389  93.600  1.00  0.00     0.010 A 
HETATM   10  C   UNL     1      10.465   5.465  93.675  1.00  0.00     0.021 A 
HETATM   11  C   UNL     1       9.958   6.031  92.506  1.00  0.00     0.018 A 
HETATM   12  C   UNL     1      10.331   5.523  91.264  1.00  0.00     0.021 A 
HETATM   13  C   UNL     1      11.215   4.447  91.188  1.00  0.00     0.010 A 
BRANCH  11  14
HETATM   14  C   UNL     1       9.052   7.136  92.583  1.00  0.00    -0.061 C 
HETATM   15  C   UNL     1       8.291   8.065  92.647  1.00  0.00    -0.061 C 
BRANCH  15  16
HETATM   16  C   UNL     1       7.386   9.170  92.723  1.00  0.00     0.018 A 
HETATM   17  C   UNL     1       7.103   9.754  93.957  1.00  0.00     0.022 A 
HETATM   18  C   UNL     1       6.222  10.833  94.031  1.00  0.00     0.018 A 
HETATM   19  C   UNL     1       5.645  11.303  92.869  1.00  0.00     0.032 A 
HETATM   20  C   UNL     1       5.909  10.742  91.637  1.00  0.00     0.018 A 
HETATM   21  C   UNL     1       6.789   9.663  91.563  1.00  0.00     0.022 A 
BRANCH  19  22
HETATM   22  C   UNL     1       4.706  12.451  92.948  1.00  0.00     0.252 C 
HETATM   23  O   UNL     1       4.321  12.837  94.050  1.00  0.00    -0.268 OA
HETATM   24  N   UNL     1       4.346  13.027  91.738  1.00  0.00    -0.342 N 
HETATM   25  H   UNL     1       4.724  12.670  90.868  1.00  0.00     0.163 HD
BRANCH  24  26
HETATM   26  C   UNL     1       3.463  14.163  91.651  1.00  0.00     0.199 C 
BRANCH  26  27
HETATM   27  C   UNL     1       3.347  14.717  90.225  1.00  0.00     0.145 C 
HETATM   28  C   UNL     1       4.682  15.214  89.682  1.00  0.00     0.042 C 
BRANCH  27  29
HETATM   29  O   UNL     1       2.843  13.701  89.358  1.00  0.00    -0.393 OA
HETATM   30  H   UNL     1       1.970  13.427  89.686  1.00  0.00     0.210 HD
ENDBRANCH  27  29
ENDBRANCH  26  27
BRANCH  26  31
HETATM   31  C   UNL     1       2.102  13.737  92.193  1.00  0.00     0.220 C 
HETATM   32  O   UNL     1       1.434  12.835  91.690  1.00  0.00    -0.278 OA
HETATM   33  N   UNL     1       1.709  14.498  93.266  1.00  0.00    -0.271 NA
HETATM   34  H   UNL     1       2.192  15.303  93.648  1.00  0.00     0.127 HD
HETATM   35  H   UNL     1       0.701  15.474  93.320  1.00  0.00     0.127 HD
ENDBRANCH  26  31
ENDBRANCH  24  26
ENDBRANCH  19  22
ENDBRANCH  15  16
ENDBRANCH  11  14
ENDBRANCH   7   8
ENDBRANCH   2   7
TORSDOF 9
ENDMDL
MODEL 4
REMARK VINA RESULT:      -6.5      1.283      1.700
REMARK  9 active torsions:
REMARK  status: ('A' for Active; 'I' for Inactive)
REMARK    1  A    between atoms: O_2  and  C_17 
REMARK    2  A    between atoms: N_5  and  C_10 
REMARK    3  A    between atoms: N_6  and  C_14 
REMARK       I    between atoms: N_6  and  C_23 
REMARK       I    between atoms: N_7  and  C_22 
REMARK    4  A    between atoms: C_10  and  C_13 
REMARK    5  A    between atoms: C_14  and  C_17 
REMARK    6  A    between atoms: C_14  and  C_22 
REMARK    7  A    between atoms: C_20  and  C_25 
REMARK    8  A    between atoms: C_23  and  C_24 
REMARK    9  A    between atoms: C_28  and  C_31 
ROOT
HETATM    1  O   UNL     1      16.495   3.344  93.632  1.00  0.00    -0.388 OA
HETATM    2  N   UNL     1      13.793   2.792  92.928  1.00  0.00     0.096 N 
HETATM    3  C   UNL     1      14.767   1.712  93.139  1.00  0.00     0.299 C 
HETATM    4  C   UNL     1      14.479   4.003  92.456  1.00  0.00     0.299 C 
HETATM    5  C   UNL     1      15.842   2.171  94.122  1.00  0.00     0.198 C 
HETATM    6  C   UNL     1      15.560   4.407  93.453  1.00  0.00     0.198 C 
ENDROOT
BRANCH   2   7
HETATM    7  C   UNL     1      12.759   2.378  91.981  1.00  0.00     0.311 C 
BRANCH   7   8
HETATM    8  C   UNL     1      11.690   3.404  91.823  1.00  0.00    -0.030 A 
HETATM    9  C   UNL     1      11.230   3.741  90.549  1.00  0.00     0.010 A 
HETATM   10  C   UNL     1      10.231   4.703  90.400  1.00  0.00     0.021 A 
HETATM   11  C   UNL     1       9.691   5.325  91.525  1.00  0.00     0.018 A 
HETATM   12  C   UNL     1      10.149   4.990  92.797  1.00  0.00     0.021 A 
HETATM   13  C   UNL     1      11.148   4.028  92.947  1.00  0.00     0.010 A 
BRANCH  11  14
HETATM   14  C   UNL     1       8.664   6.310  91.372  1.00  0.00    -0.061 C 
HETATM   15  C   UNL     1       7.802   7.139  91.243  1.00  0.00    -0.061 C 
BRANCH  15  16
HETATM   16  C   UNL     1       6.777   8.123  91.089  1.00  0.00     0.018 A 
HETATM   17  C   UNL     1       6.317   8.456  89.815  1.00  0.00     0.022 A 
HETATM   18  C   UNL     1       5.314   9.414  89.665  1.00  0.00     0.018 A 
HETATM   19  C   UNL     1       4.794  10.016  90.792  1.00  0.00     0.032 A 
HETATM   20  C   UNL     1       5.232   9.705  92.062  1.00  0.00     0.018 A 
HETATM   21  C   UNL     1       6.235   8.747  92.213  1.00  0.00     0.022 A 
BRANCH  19  22
HETATM   22  C   UNL     1       3.728  11.039  90.632  1.00  0.00     0.252 C 
HETATM   23  O   UNL     1       2.850  10.863  89.790  1.00  0.00    -0.268 OA
HETATM   24  N   UNL     1       3.797  12.129  91.487  1.00  0.00    -0.342 N 
HETATM   25  H   UNL     1       4.538  12.194  92.176  1.00  0.00     0.163 HD
BRANCH  24  26
HETATM   26  C   UNL     1       2.823  13.191  91.471  1.00  0.00     0.199 C 
BRANCH  26  27
HETATM   27  C   UNL     1       2.493  13.715  92.875  1.00  0.00     0.145 C 
HETATM   28  C   UNL     1       1.789  12.673  93.736  1.00  0.00     0.042 C 
BRANCH  27  29
HETATM   29  O   UNL     1       3.696  14.120  93.528  1.00  0.00    -0.393 OA
HETATM   30  H   UNL     1       4.133  14.789  92.974  1.00  0.00     0.210 HD
ENDBRANCH  27  29
ENDBRANCH  26  27
BRANCH  26  31
HETATM   31  C   UNL     1       3.361  14.303  90.576  1.00  0.00     0.220 C 
HETATM   32  O   UNL     1       3.969  15.278  91.013  1.00  0.00    -0.278 OA
HETATM   33  N   UNL     1       3.052  14.099  89.253  1.00  0.00    -0.271 NA
HETATM   34  H   UNL     1       2.478  13.356  88.871  1.00  0.00     0.127 HD
HETATM   35  H   UNL     1       2.126  14.793  88.458  1.00  0.00     0.127 HD
ENDBRANCH  26  31
ENDBRANCH  24  26
ENDBRANCH  19  22
ENDBRANCH  15  16
ENDBRANCH  11  14
ENDBRANCH   7   8
ENDBRANCH   2   7
TORSDOF 9
ENDMDL
MODEL 5
REMARK VINA RESULT:      -6.0      2.414     12.308
REMARK  9 active torsions:
REMARK  status: ('A' for Active; 'I' for Inactive)
REMARK    1  A    between atoms: O_2  and  C_17 
REMARK    2  A    between atoms: N_5  and  C_10 
REMARK    3  A    between atoms: N_6  and  C_14 
REMARK       I    between atoms: N_6  and  C_23 
REMARK       I    between atoms: N_7  and  C_22 
REMARK    4  A    between atoms: C_10  and  C_13 
REMARK    5  A    between atoms: C_14  and  C_17 
REMARK    6  A    between atoms: C_14  and  C_22 
REMARK    7  A    between atoms: C_20  and  C_25 
REMARK    8  A    between atoms: C_23  and  C_24 
REMARK    9  A    between atoms: C_28  and  C_31 
ROOT
HETATM    1  O   UNL     1       3.106  14.932  94.050  1.00  0.00    -0.388 OA
HETATM    2  N   UNL     1       2.724  14.788  91.233  1.00  0.00     0.096 N 
HETATM    3  C   UNL     1       1.806  14.123  92.167  1.00  0.00     0.299 C 
HETATM    4  C   UNL     1       4.067  14.876  91.823  1.00  0.00     0.299 C 
HETATM    5  C   UNL     1       1.790  14.871  93.498  1.00  0.00     0.198 C 
HETATM    6  C   UNL     1       3.998  15.605  93.161  1.00  0.00     0.198 C 
ENDROOT
BRANCH   2   7
HETATM    7  C   UNL     1       2.764  14.081  89.954  1.00  0.00     0.311 C 
BRANCH   7   8
HETATM    8  C   UNL     1       3.758  12.971  89.949  1.00  0.00    -0.030 A 
HETATM    9  C   UNL     1       4.996  13.147  89.330  1.00  0.00     0.010 A 
HETATM   10  C   UNL     1       5.926  12.108  89.323  1.00  0.00     0.021 A 
HETATM   11  C   UNL     1       5.619  10.894  89.938  1.00  0.00     0.018 A 
HETATM   12  C   UNL     1       4.384  10.717  90.557  1.00  0.00     0.021 A 
HETATM   13  C   UNL     1       3.453  11.756  90.563  1.00  0.00     0.010 A 
BRANCH  11  14
HETATM   14  C   UNL     1       6.575   9.829  89.932  1.00  0.00    -0.061 C 
HETATM   15  C   UNL     1       7.378   8.934  89.928  1.00  0.00    -0.061 C 
BRANCH  15  16
HETATM   16  C   UNL     1       8.333   7.870  89.924  1.00  0.00     0.018 A 
HETATM   17  C   UNL     1       8.588   7.159  91.097  1.00  0.00     0.022 A 
HETATM   18  C   UNL     1       9.518   6.119  91.092  1.00  0.00     0.018 A 
HETATM   19  C   UNL     1      10.169   5.813  89.916  1.00  0.00     0.032 A 
HETATM   20  C   UNL     1       9.935   6.501  88.744  1.00  0.00     0.018 A 
HETATM   21  C   UNL     1       9.005   7.541  88.747  1.00  0.00     0.022 A 
BRANCH  19  22
HETATM   22  C   UNL     1      11.161   4.706  89.911  1.00  0.00     0.252 C 
HETATM   23  O   UNL     1      11.318   4.046  88.887  1.00  0.00    -0.268 OA
HETATM   24  N   UNL     1      11.867   4.518  91.091  1.00  0.00    -0.342 N 
HETATM   25  H   UNL     1      11.701   5.119  91.890  1.00  0.00     0.163 HD
BRANCH  24  26
HETATM   26  C   UNL     1      12.879   3.502  91.236  1.00  0.00     0.199 C 
BRANCH  26  27
HETATM   27  C   UNL     1      14.238   4.074  91.657  1.00  0.00     0.145 C 
HETATM   28  C   UNL     1      15.359   3.045  91.564  1.00  0.00     0.042 C 
BRANCH  27  29
HETATM   29  O   UNL     1      14.564   5.190  90.828  1.00  0.00    -0.393 OA
HETATM   30  H   UNL     1      13.755   5.476  90.371  1.00  0.00     0.210 HD
ENDBRANCH  27  29
ENDBRANCH  26  27
BRANCH  26  31
HETATM   31  C   UNL     1      12.371   2.479  92.247  1.00  0.00     0.220 C 
HETATM   32  O   UNL     1      11.850   1.415  91.918  1.00  0.00    -0.278 OA
HETATM   33  N   UNL     1      12.529   2.907  93.542  1.00  0.00    -0.271 NA
HETATM   34  H   UNL     1      12.870   3.812  93.845  1.00  0.00     0.127 HD
HETATM   35  H   UNL     1      11.543   3.329  94.448  1.00  0.00     0.127 HD
ENDBRANCH  26  31
ENDBRANCH  24  26
ENDBRANCH  19  22
ENDBRANCH  15  16
ENDBRANCH  11  14
ENDBRANCH   7   8
ENDBRANCH   2   7
TORSDOF 9
ENDMDL
MODEL 6
REMARK VINA RESULT:      -6.0      1.511      2.235
REMARK  9 active torsions:
REMARK  status: ('A' for Active; 'I' for Inactive)
REMARK    1  A    between atoms: O_2  and  C_17 
REMARK    2  A    between atoms: N_5  and  C_10 
REMARK    3  A    between atoms: N_6  and  C_14 
REMARK       I    between atoms: N_6  and  C_23 
REMARK       I    between atoms: N_7  and  C_22 
REMARK    4  A    between atoms: C_10  and  C_13 
REMARK    5  A    between atoms: C_14  and  C_17 
REMARK    6  A    between atoms: C_14  and  C_22 
REMARK    7  A    between atoms: C_20  and  C_25 
REMARK    8  A    between atoms: C_23  and  C_24 
REMARK    9  A    between atoms: C_28  and  C_31 
ROOT
HETATM    1  O   UNL     1      16.380   2.589  93.519  1.00  0.00    -0.388 OA
HETATM    2  N   UNL     1      13.662   2.724  92.683  1.00  0.00     0.096 N 
HETATM    3  C   UNL     1      14.265   1.462  93.136  1.00  0.00     0.299 C 
HETATM    4  C   UNL     1      14.692   3.590  92.094  1.00  0.00     0.299 C 
HETATM    5  C   UNL     1      15.392   1.752  94.124  1.00  0.00     0.198 C 
HETATM    6  C   UNL     1      15.809   3.830  93.105  1.00  0.00     0.198 C 
ENDROOT
BRANCH   2   7
HETATM    7  C   UNL     1      12.586   2.470  91.727  1.00  0.00     0.311 C 
BRANCH   7   8
HETATM    8  C   UNL     1      11.602   3.588  91.669  1.00  0.00    -0.030 A 
HETATM    9  C   UNL     1      11.410   4.286  90.477  1.00  0.00     0.010 A 
HETATM   10  C   UNL     1      10.491   5.334  90.423  1.00  0.00     0.021 A 
HETATM   11  C   UNL     1       9.763   5.681  91.560  1.00  0.00     0.018 A 
HETATM   12  C   UNL     1       9.953   4.984  92.751  1.00  0.00     0.021 A 
HETATM   13  C   UNL     1      10.873   3.937  92.806  1.00  0.00     0.010 A 
BRANCH  11  14
HETATM   14  C   UNL     1       8.818   6.754  91.504  1.00  0.00    -0.061 C 
HETATM   15  C   UNL     1       8.024   7.656  91.456  1.00  0.00    -0.061 C 
BRANCH  15  16
HETATM   16  C   UNL     1       7.080   8.728  91.399  1.00  0.00     0.018 A 
HETATM   17  C   UNL     1       6.473   9.058  90.186  1.00  0.00     0.022 A 
HETATM   18  C   UNL     1       5.550  10.102  90.132  1.00  0.00     0.018 A 
HETATM   19  C   UNL     1       5.254  10.791  91.289  1.00  0.00     0.032 A 
HETATM   20  C   UNL     1       5.840  10.485  92.499  1.00  0.00     0.018 A 
HETATM   21  C   UNL     1       6.764   9.441  92.555  1.00  0.00     0.022 A 
BRANCH  19  22
HETATM   22  C   UNL     1       4.272  11.905  91.230  1.00  0.00     0.252 C 
HETATM   23  O   UNL     1       3.111  11.664  90.906  1.00  0.00    -0.268 OA
HETATM   24  N   UNL     1       4.753  13.159  91.578  1.00  0.00    -0.342 N 
HETATM   25  H   UNL     1       5.719  13.278  91.859  1.00  0.00     0.163 HD
BRANCH  24  26
HETATM   26  C   UNL     1       3.918  14.333  91.593  1.00  0.00     0.199 C 
BRANCH  26  27
HETATM   27  C   UNL     1       3.673  14.906  90.192  1.00  0.00     0.145 C 
HETATM   28  C   UNL     1       4.897  15.621  89.631  1.00  0.00     0.042 C 
BRANCH  27  29
HETATM   29  O   UNL     1       3.304  13.852  89.303  1.00  0.00    -0.393 OA
HETATM   30  H   UNL     1       4.117  13.462  88.939  1.00  0.00     0.210 HD
ENDBRANCH  27  29
ENDBRANCH  26  27
BRANCH  26  31
HETATM   31  C   UNL     1       2.606  13.963  92.278  1.00  0.00     0.220 C 
HETATM   32  O   UNL     1       2.549  13.536  93.429  1.00  0.00    -0.278 OA
HETATM   33  N   UNL     1       1.523  14.127  91.448  1.00  0.00    -0.271 NA
HETATM   34  H   UNL     1       1.543  14.391  90.470  1.00  0.00     0.127 HD
HETATM   35  H   UNL     1       0.734  13.139  90.840  1.00  0.00     0.127 HD
ENDBRANCH  26  31
ENDBRANCH  24  26
ENDBRANCH  19  22
ENDBRANCH  15  16
ENDBRANCH  11  14
ENDBRANCH   7   8
ENDBRANCH   2   7
TORSDOF 9
ENDMDL
MODEL 7
REMARK VINA RESULT:      -5.7      1.645     12.303
REMARK  9 active torsions:
REMARK  status: ('A' for Active; 'I' for Inactive)
REMARK    1  A    between atoms: O_2  and  C_17 
REMARK    2  A    between atoms: N_5  and  C_10 
REMARK    3  A    between atoms: N_6  and  C_14 
REMARK       I    between atoms: N_6  and  C_23 
REMARK       I    between atoms: N_7  and  C_22 
REMARK    4  A    between atoms: C_10  and  C_13 
REMARK    5  A    between atoms: C_14  and  C_17 
REMARK    6  A    between atoms: C_14  and  C_22 
REMARK    7  A    between atoms: C_20  and  C_25 
REMARK    8  A    between atoms: C_23  and  C_24 
REMARK    9  A    between atoms: C_28  and  C_31 
ROOT
HETATM    1  O   UNL     1       4.874  15.226  91.253  1.00  0.00    -0.388 OA
HETATM    2  N   UNL     1       4.030  13.448  89.197  1.00  0.00     0.096 N 
HETATM    3  C   UNL     1       3.922  13.086  90.617  1.00  0.00     0.299 C 
HETATM    4  C   UNL     1       5.151  14.377  88.998  1.00  0.00     0.299 C 
HETATM    5  C   UNL     1       3.767  14.348  91.462  1.00  0.00     0.198 C 
HETATM    6  C   UNL     1       4.967  15.607  89.880  1.00  0.00     0.198 C 
ENDROOT
BRANCH   2   7
HETATM    7  C   UNL     1       4.190  12.254  88.369  1.00  0.00     0.311 C 
BRANCH   7   8
HETATM    8  C   UNL     1       5.139  11.271  88.967  1.00  0.00    -0.030 A 
HETATM    9  C   UNL     1       4.670  10.039  89.424  1.00  0.00     0.010 A 
HETATM   10  C   UNL     1       5.556   9.120  89.986  1.00  0.00     0.021 A 
HETATM   11  C   UNL     1       6.911   9.433  90.088  1.00  0.00     0.018 A 
HETATM   12  C   UNL     1       7.381  10.663  89.632  1.00  0.00     0.021 A 
HETATM   13  C   UNL     1       6.495  11.583  89.071  1.00  0.00     0.010 A 
BRANCH  11  14
HETATM   14  C   UNL     1       7.821   8.490  90.663  1.00  0.00    -0.061 C 
HETATM   15  C   UNL     1       8.584   7.697  91.146  1.00  0.00    -0.061 C 
BRANCH  15  16
HETATM   16  C   UNL     1       9.492   6.753  91.720  1.00  0.00     0.018 A 
HETATM   17  C   UNL     1      10.011   6.974  92.996  1.00  0.00     0.022 A 
HETATM   18  C   UNL     1      10.895   6.052  93.557  1.00  0.00     0.018 A 
HETATM   19  C   UNL     1      11.239   4.931  92.831  1.00  0.00     0.032 A 
HETATM   20  C   UNL     1      10.740   4.691  91.568  1.00  0.00     0.018 A 
HETATM   21  C   UNL     1       9.857   5.612  91.005  1.00  0.00     0.022 A 
BRANCH  19  22
HETATM   22  C   UNL     1      12.182   3.950  93.428  1.00  0.00     0.252 C 
HETATM   23  O   UNL     1      11.736   2.935  93.958  1.00  0.00    -0.268 OA
HETATM   24  N   UNL     1      13.531   4.257  93.315  1.00  0.00    -0.342 N 
HETATM   25  H   UNL     1      13.826   5.103  92.841  1.00  0.00     0.163 HD
BRANCH  24  26
HETATM   26  C   UNL     1      14.567   3.394  93.822  1.00  0.00     0.199 C 
BRANCH  26  27
HETATM   27  C   UNL     1      14.712   2.100  93.011  1.00  0.00     0.145 C 
HETATM   28  C   UNL     1      14.790   0.862  93.897  1.00  0.00     0.042 C 
BRANCH  27  29
HETATM   29  O   UNL     1      13.602   1.966  92.124  1.00  0.00    -0.393 OA
HETATM   30  H   UNL     1      13.921   2.096  91.215  1.00  0.00     0.210 HD
ENDBRANCH  27  29
ENDBRANCH  26  27
BRANCH  26  31
HETATM   31  C   UNL     1      15.869   4.189  93.835  1.00  0.00     0.220 C 
HETATM   32  O   UNL     1      15.923   5.390  93.581  1.00  0.00    -0.278 OA
HETATM   33  N   UNL     1      16.956   3.399  94.124  1.00  0.00    -0.271 NA
HETATM   34  H   UNL     1      16.959   2.394  94.250  1.00  0.00     0.127 HD
HETATM   35  H   UNL     1      17.980   2.976  93.261  1.00  0.00     0.127 HD
ENDBRANCH  26  31
ENDBRANCH  24  26
ENDBRANCH  19  22
ENDBRANCH  15  16
ENDBRANCH  11  14
ENDBRANCH   7   8
ENDBRANCH   2   7
TORSDOF 9
ENDMDL
MODEL 8
REMARK VINA RESULT:      -5.4      2.357     12.397
REMARK  9 active torsions:
REMARK  status: ('A' for Active; 'I' for Inactive)
REMARK    1  A    between atoms: O_2  and  C_17 
REMARK    2  A    between atoms: N_5  and  C_10 
REMARK    3  A    between atoms: N_6  and  C_14 
REMARK       I    between atoms: N_6  and  C_23 
REMARK       I    between atoms: N_7  and  C_22 
REMARK    4  A    between atoms: C_10  and  C_13 
REMARK    5  A    between atoms: C_14  and  C_17 
REMARK    6  A    between atoms: C_14  and  C_22 
REMARK    7  A    between atoms: C_20  and  C_25 
REMARK    8  A    between atoms: C_23  and  C_24 
REMARK    9  A    between atoms: C_28  and  C_31 
ROOT
HETATM    1  O   UNL     1       4.088  14.492  89.617  1.00  0.00    -0.388 OA
HETATM    2  N   UNL     1       3.210  13.793  92.233  1.00  0.00     0.096 N 
HETATM    3  C   UNL     1       4.599  14.196  91.971  1.00  0.00     0.299 C 
HETATM    4  C   UNL     1       2.633  13.167  91.036  1.00  0.00     0.299 C 
HETATM    5  C   UNL     1       4.647  15.131  90.766  1.00  0.00     0.198 C 
HETATM    6  C   UNL     1       2.728  14.125  89.853  1.00  0.00     0.198 C 
ENDROOT
BRANCH   2   7
HETATM    7  C   UNL     1       3.141  12.887  93.378  1.00  0.00     0.311 C 
BRANCH   7   8
HETATM    8  C   UNL     1       4.161  11.803  93.307  1.00  0.00    -0.030 A 
HETATM    9  C   UNL     1       5.291  11.855  94.124  1.00  0.00     0.010 A 
HETATM   10  C   UNL     1       6.248  10.842  94.056  1.00  0.00     0.021 A 
HETATM   11  C   UNL     1       6.072   9.777  93.174  1.00  0.00     0.018 A 
HETATM   12  C   UNL     1       4.944   9.723  92.359  1.00  0.00     0.021 A 
HETATM   13  C   UNL     1       3.988  10.736  92.425  1.00  0.00     0.010 A 
BRANCH  11  14
HETATM   14  C   UNL     1       7.052   8.736  93.107  1.00  0.00    -0.061 C 
HETATM   15  C   UNL     1       7.877   7.863  93.050  1.00  0.00    -0.061 C 
BRANCH  15  16
HETATM   16  C   UNL     1       8.856   6.824  92.984  1.00  0.00     0.018 A 
HETATM   17  C   UNL     1       9.755   6.646  94.036  1.00  0.00     0.022 A 
HETATM   18  C   UNL     1      10.709   5.630  93.972  1.00  0.00     0.018 A 
HETATM   19  C   UNL     1      10.743   4.816  92.860  1.00  0.00     0.032 A 
HETATM   20  C   UNL     1       9.865   4.972  91.807  1.00  0.00     0.018 A 
HETATM   21  C   UNL     1       8.911   5.987  91.869  1.00  0.00     0.022 A 
BRANCH  19  22
HETATM   22  C   UNL     1      11.760   3.736  92.791  1.00  0.00     0.252 C 
HETATM   23  O   UNL     1      11.407   2.596  92.499  1.00  0.00    -0.268 OA
HETATM   24  N   UNL     1      13.070   4.117  93.046  1.00  0.00    -0.342 N 
HETATM   25  H   UNL     1      13.291   5.083  93.256  1.00  0.00     0.163 HD
BRANCH  24  26
HETATM   26  C   UNL     1      14.172   3.190  92.995  1.00  0.00     0.199 C 
BRANCH  26  27
HETATM   27  C   UNL     1      14.453   2.680  91.575  1.00  0.00     0.145 C 
HETATM   28  C   UNL     1      14.224   3.751  90.514  1.00  0.00     0.042 C 
BRANCH  27  29
HETATM   29  O   UNL     1      15.802   2.223  91.490  1.00  0.00    -0.393 OA
HETATM   30  H   UNL     1      15.949   1.572  92.197  1.00  0.00     0.210 HD
ENDBRANCH  27  29
ENDBRANCH  26  27
BRANCH  26  31
HETATM   31  C   UNL     1      15.394   3.886  93.585  1.00  0.00     0.220 C 
HETATM   32  O   UNL     1      15.557   5.104  93.543  1.00  0.00    -0.278 OA
HETATM   33  N   UNL     1      16.289   2.994  94.124  1.00  0.00    -0.271 NA
HETATM   34  H   UNL     1      16.230   1.982  94.096  1.00  0.00     0.127 HD
HETATM   35  H   UNL     1      17.549   2.617  93.631  1.00  0.00     0.127 HD
ENDBRANCH  26  31
ENDBRANCH  24  26
ENDBRANCH  19  22
ENDBRANCH  15  16
ENDBRANCH  11  14
ENDBRANCH   7   8
ENDBRANCH   2   7
TORSDOF 9
ENDMDL
MODEL 9
REMARK VINA RESULT:      -4.8      2.113     12.326
REMARK  9 active torsions:
REMARK  status: ('A' for Active; 'I' for Inactive)
REMARK    1  A    between atoms: O_2  and  C_17 
REMARK    2  A    between atoms: N_5  and  C_10 
REMARK    3  A    between atoms: N_6  and  C_14 
REMARK       I    between atoms: N_6  and  C_23 
REMARK       I    between atoms: N_7  and  C_22 
REMARK    4  A    between atoms: C_10  and  C_13 
REMARK    5  A    between atoms: C_14  and  C_17 
REMARK    6  A    between atoms: C_14  and  C_22 
REMARK    7  A    between atoms: C_20  and  C_25 
REMARK    8  A    between atoms: C_23  and  C_24 
REMARK    9  A    between atoms: C_28  and  C_31 
ROOT
HETATM    1  O   UNL     1       3.910  14.200  92.989  1.00  0.00    -0.388 OA
HETATM    2  N   UNL     1       2.289  12.006  92.178  1.00  0.00     0.096 N 
HETATM    3  C   UNL     1       2.755  12.146  93.565  1.00  0.00     0.299 C 
HETATM    4  C   UNL     1       3.249  12.633  91.259  1.00  0.00     0.299 C 
HETATM    5  C   UNL     1       2.967  13.622  93.892  1.00  0.00     0.198 C 
HETATM    6  C   UNL     1       3.451  14.096  91.641  1.00  0.00     0.198 C 
ENDROOT
BRANCH   2   7
HETATM    7  C   UNL     1       2.089  10.598  91.839  1.00  0.00     0.311 C 
BRANCH   7   8
HETATM    8  C   UNL     1       3.369   9.835  91.802  1.00  0.00    -0.030 A 
HETATM    9  C   UNL     1       3.868   9.254  92.969  1.00  0.00     0.010 A 
HETATM   10  C   UNL     1       5.066   8.542  92.936  1.00  0.00     0.021 A 
HETATM   11  C   UNL     1       5.765   8.409  91.736  1.00  0.00     0.018 A 
HETATM   12  C   UNL     1       5.268   8.989  90.571  1.00  0.00     0.021 A 
HETATM   13  C   UNL     1       4.070   9.702  90.603  1.00  0.00     0.010 A 
BRANCH  11  14
HETATM   14  C   UNL     1       6.993   7.677  91.702  1.00  0.00    -0.061 C 
HETATM   15  C   UNL     1       8.026   7.061  91.675  1.00  0.00    -0.061 C 
BRANCH  15  16
HETATM   16  C   UNL     1       9.253   6.328  91.641  1.00  0.00     0.018 A 
HETATM   17  C   UNL     1       9.874   5.954  92.833  1.00  0.00     0.022 A 
HETATM   18  C   UNL     1      11.070   5.237  92.800  1.00  0.00     0.018 A 
HETATM   19  C   UNL     1      11.617   4.910  91.578  1.00  0.00     0.032 A 
HETATM   20  C   UNL     1      11.024   5.268  90.386  1.00  0.00     0.018 A 
HETATM   21  C   UNL     1       9.828   5.985  90.417  1.00  0.00     0.022 A 
BRANCH  19  22
HETATM   22  C   UNL     1      12.892   4.148  91.543  1.00  0.00     0.252 C 
HETATM   23  O   UNL     1      13.281   3.677  90.477  1.00  0.00    -0.268 OA
HETATM   24  N   UNL     1      13.573   4.047  92.749  1.00  0.00    -0.342 N 
HETATM   25  H   UNL     1      13.203   4.483  93.585  1.00  0.00     0.163 HD
BRANCH  24  26
HETATM   26  C   UNL     1      14.834   3.361  92.872  1.00  0.00     0.199 C 
BRANCH  26  27
HETATM   27  C   UNL     1      15.761   4.005  93.910  1.00  0.00     0.145 C 
HETATM   28  C   UNL     1      17.082   3.258  94.057  1.00  0.00     0.042 C 
BRANCH  27  29
HETATM   29  O   UNL     1      16.032   5.355  93.535  1.00  0.00    -0.393 OA
HETATM   30  H   UNL     1      16.475   5.349  92.670  1.00  0.00     0.210 HD
ENDBRANCH  27  29
ENDBRANCH  26  27
BRANCH  26  31
HETATM   31  C   UNL     1      14.540   1.905  93.218  1.00  0.00     0.220 C 
HETATM   32  O   UNL     1      15.129   1.297  94.111  1.00  0.00    -0.278 OA
HETATM   33  N   UNL     1      13.583   1.359  92.398  1.00  0.00    -0.271 NA
HETATM   34  H   UNL     1      13.144   1.802  91.599  1.00  0.00     0.127 HD
HETATM   35  H   UNL     1      13.748   0.406  91.380  1.00  0.00     0.127 HD
ENDBRANCH  26  31
ENDBRANCH  24  26
ENDBRANCH  19  22
ENDBRANCH  15  16
ENDBRANCH  11  14
ENDBRANCH   7   8
ENDBRANCH   2   7
TORSDOF 9
ENDMDL
