MODEL 1
REMARK VINA RESULT:      -7.2      0.000      0.000
REMARK  9 active torsions:
REMARK  status: ('A' for Active; 'I' for Inactive)
REMARK    1  A    between atoms: O_2  and  C_17 
REMARK    2  A    between atoms: N_5  and  C_10 
REMARK    3  A    between atoms: N_6  and  C_14 
REMARK       I    between atoms: N_6  and  C_23 
REMARK       I    between atoms: N_7  and  C_22 
REMARK    4  A    between atoms: C_10  and  C_13 
REMARK    5  A    between atoms: C_14  and  C_17 
REMARK    6  A    between atoms: C_14  and  C_22 
REMARK    7  A    between atoms: C_20  and  C_25 
REMARK    8  A    between atoms: C_23  and  C_24 
REMARK    9  A    between atoms: C_28  and  C_31 
ROOT
HETATM    1  O   UNL     1      16.136   3.946  94.121  1.00  0.00    -0.388 OA
HETATM    2  N   UNL     1      14.248   2.581  92.486  1.00  0.00     0.096 N 
HETATM    3  C   UNL     1      14.340   4.047  92.492  1.00  0.00     0.299 C 
HETATM    4  C   UNL     1      14.666   2.045  93.789  1.00  0.00     0.299 C 
HETATM    5  C   UNL     1      15.762   4.475  92.848  1.00  0.00     0.198 C 
HETATM    6  C   UNL     1      16.079   2.519  94.115  1.00  0.00     0.198 C 
ENDROOT
BRANCH   2   7
HETATM    7  C   UNL     1      12.891   2.149  92.158  1.00  0.00     0.311 C 
BRANCH   7   8
HETATM    8  C   UNL     1      11.989   3.295  91.849  1.00  0.00    -0.030 A 
HETATM    9  C   UNL     1      11.892   3.772  90.541  1.00  0.00     0.010 A 
HETATM   10  C   UNL     1      11.050   4.846  90.251  1.00  0.00     0.021 A 
HETATM   11  C   UNL     1      10.305   5.441  91.268  1.00  0.00     0.018 A 
HETATM   12  C   UNL     1      10.401   4.965  92.574  1.00  0.00     0.021 A 
HETATM   13  C   UNL     1      11.243   3.892  92.865  1.00  0.00     0.010 A 
BRANCH  11  14
HETATM   14  C   UNL     1       9.440   6.541  90.970  1.00  0.00    -0.061 C 
HETATM   15  C   UNL     1       8.713   7.465  90.719  1.00  0.00    -0.061 C 
BRANCH  15  16
HETATM   16  C   UNL     1       7.848   8.564  90.422  1.00  0.00     0.018 A 
HETATM   17  C   UNL     1       6.472   8.439  90.612  1.00  0.00     0.022 A 
HETATM   18  C   UNL     1       5.629   9.512  90.324  1.00  0.00     0.018 A 
HETATM   19  C   UNL     1       6.181  10.686  89.856  1.00  0.00     0.032 A 
HETATM   20  C   UNL     1       7.538  10.835  89.660  1.00  0.00     0.018 A 
HETATM   21  C   UNL     1       8.382   9.762  89.947  1.00  0.00     0.022 A 
BRANCH  19  22
HETATM   22  C   UNL     1       5.282  11.829  89.548  1.00  0.00     0.252 C 
HETATM   23  O   UNL     1       4.977  12.054  88.379  1.00  0.00    -0.268 OA
HETATM   24  N   UNL     1       4.828  12.556  90.639  1.00  0.00    -0.342 N 
HETATM   25  H   UNL     1       5.103  12.296  91.579  1.00  0.00     0.163 HD
BRANCH  24  26
HETATM   26  C   UNL     1       3.932  13.677  90.506  1.00  0.00     0.199 C 
BRANCH  26  27
HETATM   27  C   UNL     1       2.992  13.831  91.708  1.00  0.00     0.145 C 
HETATM   28  C   UNL     1       1.897  12.770  91.733  1.00  0.00     0.042 C 
BRANCH  27  29
HETATM   29  O   UNL     1       3.746  13.749  92.917  1.00  0.00    -0.393 OA
HETATM   30  H   UNL     1       4.007  12.822  93.050  1.00  0.00     0.210 HD
ENDBRANCH  27  29
ENDBRANCH  26  27
BRANCH  26  31
HETATM   31  C   UNL     1       4.779  14.928  90.299  1.00  0.00     0.220 C 
HETATM   32  O   UNL     1       5.182  15.625  91.229  1.00  0.00    -0.278 OA
HETATM   33  N   UNL     1       4.996  15.194  88.969  1.00  0.00    -0.271 NA
HETATM   34  H   UNL     1       4.606  14.695  88.179  1.00  0.00     0.127 HD
HETATM   35  H   UNL     1       4.449  16.222  88.185  1.00  0.00     0.127 HD
ENDBRANCH  26  31
ENDBRANCH  24  26
ENDBRANCH  19  22
ENDBRANCH  15  16
ENDBRANCH  11  14
ENDBRANCH   7   8
ENDBRANCH   2   7
TORSDOF 9
ENDMDL
MODEL 2
REMARK VINA RESULT:      -6.2      1.710      2.291
REMARK  9 active torsions:
REMARK  status: ('A' for Active; 'I' for Inactive)
REMARK    1  A    between atoms: O_2  and  C_17 
REMARK    2  A    between atoms: N_5  and  C_10 
REMARK    3  A    between atoms: N_6  and  C_14 
REMARK       I    between atoms: N_6  and  C_23 
REMARK       I    between atoms: N_7  and  C_22 
REMARK    4  A    between atoms: C_10  and  C_13 
REMARK    5  A    between atoms: C_14  and  C_17 
REMARK    6  A    between atoms: C_14  and  C_22 
REMARK    7  A    between atoms: C_20  and  C_25 
REMARK    8  A    between atoms: C_23  and  C_24 
REMARK    9  A    between atoms: C_28  and  C_31 
ROOT
HETATM    1  O   UNL     1      16.250   2.877  93.834  1.00  0.00    -0.388 OA
HETATM    2  N   UNL     1      13.727   3.021  92.524  1.00  0.00     0.096 N 
HETATM    3  C   UNL     1      14.331   1.732  92.888  1.00  0.00     0.299 C 
HETATM    4  C   UNL     1      14.778   4.018  92.280  1.00  0.00     0.299 C 
HETATM    5  C   UNL     1      15.234   1.909  94.105  1.00  0.00     0.198 C 
HETATM    6  C   UNL     1      15.671   4.141  93.510  1.00  0.00     0.198 C 
ENDROOT
BRANCH   2   7
HETATM    7  C   UNL     1      12.864   2.877  91.353  1.00  0.00     0.311 C 
BRANCH   7   8
HETATM    8  C   UNL     1      11.720   3.832  91.368  1.00  0.00    -0.030 A 
HETATM    9  C   UNL     1      11.086   4.139  92.573  1.00  0.00     0.010 A 
HETATM   10  C   UNL     1      10.014   5.031  92.588  1.00  0.00     0.021 A 
HETATM   11  C   UNL     1       9.579   5.618  91.400  1.00  0.00     0.018 A 
HETATM   12  C   UNL     1      10.212   5.313  90.197  1.00  0.00     0.021 A 
HETATM   13  C   UNL     1      11.283   4.420  90.181  1.00  0.00     0.010 A 
BRANCH  11  14
HETATM   14  C   UNL     1       8.480   6.535  91.417  1.00  0.00    -0.061 C 
HETATM   15  C   UNL     1       7.558   7.306  91.430  1.00  0.00    -0.061 C 
BRANCH  15  16
HETATM   16  C   UNL     1       6.460   8.222  91.446  1.00  0.00     0.018 A 
HETATM   17  C   UNL     1       5.199   7.805  91.019  1.00  0.00     0.022 A 
HETATM   18  C   UNL     1       4.128   8.698  91.037  1.00  0.00     0.018 A 
HETATM   19  C   UNL     1       4.341   9.986  91.482  1.00  0.00     0.032 A 
HETATM   20  C   UNL     1       5.578  10.422  91.908  1.00  0.00     0.018 A 
HETATM   21  C   UNL     1       6.650   9.530  91.891  1.00  0.00     0.022 A 
BRANCH  19  22
HETATM   22  C   UNL     1       3.200  10.938  91.499  1.00  0.00     0.252 C 
HETATM   23  O   UNL     1       2.071  10.525  91.244  1.00  0.00    -0.268 OA
HETATM   24  N   UNL     1       3.507  12.249  91.835  1.00  0.00    -0.342 N 
HETATM   25  H   UNL     1       4.459  12.511  92.058  1.00  0.00     0.163 HD
BRANCH  24  26
HETATM   26  C   UNL     1       2.506  13.282  91.918  1.00  0.00     0.199 C 
BRANCH  26  27
HETATM   27  C   UNL     1       2.651  14.149  93.176  1.00  0.00     0.145 C 
HETATM   28  C   UNL     1       3.878  13.779  94.001  1.00  0.00     0.042 C 
BRANCH  27  29
HETATM   29  O   UNL     1       2.741  15.523  92.801  1.00  0.00    -0.393 OA
HETATM   30  H   UNL     1       3.166  16.010  93.527  1.00  0.00     0.210 HD
ENDBRANCH  27  29
ENDBRANCH  26  27
BRANCH  26  31
HETATM   31  C   UNL     1       2.600  14.125  90.651  1.00  0.00     0.220 C 
HETATM   32  O   UNL     1       1.613  14.552  90.056  1.00  0.00    -0.278 OA
HETATM   33  N   UNL     1       3.900  14.309  90.245  1.00  0.00    -0.271 NA
HETATM   34  H   UNL     1       4.729  13.898  90.659  1.00  0.00     0.127 HD
HETATM   35  H   UNL     1       4.556  13.743  89.141  1.00  0.00     0.127 HD
ENDBRANCH  26  31
ENDBRANCH  24  26
ENDBRANCH  19  22
ENDBRANCH  15  16
ENDBRANCH  11  14
ENDBRANCH   7   8
ENDBRANCH   2   7
TORSDOF 9
ENDMDL
MODEL 3
REMARK VINA RESULT:      -5.2      1.793     12.301
REMARK  9 active torsions:
REMARK  status: ('A' for Active; 'I' for Inactive)
REMARK    1  A    between atoms: O_2  and  C_17 
REMARK    2  A    between atoms: N_5  and  C_10 
REMARK    3  A    between atoms: N_6  and  C_14 
REMARK       I    between atoms: N_6  and  C_23 
REMARK       I    between atoms: N_7  and  C_22 
REMARK    4  A    between atoms: C_10  and  C_13 
REMARK    5  A    between atoms: C_14  and  C_17 
REMARK    6  A    between atoms: C_14  and  C_22 
REMARK    7  A    between atoms: C_20  and  C_25 
REMARK    8  A    between atoms: C_23  and  C_24 
REMARK    9  A    between atoms: C_28  and  C_31 
ROOT
HETATM    1  O   UNL     1       5.434  14.926  89.032  1.00  0.00    -0.388 OA
HETATM    2  N   UNL     1       3.393  13.165  89.944  1.00  0.00     0.096 N 
HETATM    3  C   UNL     1       4.111  14.053  90.869  1.00  0.00     0.299 C 
HETATM    4  C   UNL     1       4.256  12.817  88.807  1.00  0.00     0.299 C 
HETATM    5  C   UNL     1       4.591  15.296  90.125  1.00  0.00     0.198 C 
HETATM    6  C   UNL     1       4.733  14.088  88.112  1.00  0.00     0.198 C 
ENDROOT
BRANCH   2   7
HETATM    7  C   UNL     1       2.932  11.962  90.635  1.00  0.00     0.311 C 
BRANCH   7   8
HETATM    8  C   UNL     1       4.048  11.023  90.946  1.00  0.00    -0.030 A 
HETATM    9  C   UNL     1       4.802  11.198  92.107  1.00  0.00     0.010 A 
HETATM   10  C   UNL     1       5.847  10.322  92.398  1.00  0.00     0.021 A 
HETATM   11  C   UNL     1       6.137   9.271  91.529  1.00  0.00     0.018 A 
HETATM   12  C   UNL     1       5.385   9.095  90.369  1.00  0.00     0.021 A 
HETATM   13  C   UNL     1       4.340   9.971  90.078  1.00  0.00     0.010 A 
BRANCH  11  14
HETATM   14  C   UNL     1       7.209   8.371  91.829  1.00  0.00    -0.061 C 
HETATM   15  C   UNL     1       8.109   7.615  92.080  1.00  0.00    -0.061 C 
BRANCH  15  16
HETATM   16  C   UNL     1       9.180   6.716  92.379  1.00  0.00     0.018 A 
HETATM   17  C   UNL     1       9.600   6.548  93.699  1.00  0.00     0.022 A 
HETATM   18  C   UNL     1      10.643   5.669  93.991  1.00  0.00     0.018 A 
HETATM   19  C   UNL     1      11.242   4.978  92.958  1.00  0.00     0.032 A 
HETATM   20  C   UNL     1      10.845   5.128  91.645  1.00  0.00     0.018 A 
HETATM   21  C   UNL     1       9.802   6.006  91.352  1.00  0.00     0.022 A 
BRANCH  19  22
HETATM   22  C   UNL     1      12.354   4.044  93.269  1.00  0.00     0.252 C 
HETATM   23  O   UNL     1      12.188   3.177  94.124  1.00  0.00    -0.268 OA
HETATM   24  N   UNL     1      13.516   4.215  92.530  1.00  0.00    -0.342 N 
HETATM   25  H   UNL     1      13.572   4.937  91.822  1.00  0.00     0.163 HD
BRANCH  24  26
HETATM   26  C   UNL     1      14.673   3.372  92.698  1.00  0.00     0.199 C 
BRANCH  26  27
HETATM   27  C   UNL     1      15.504   3.745  93.933  1.00  0.00     0.145 C 
HETATM   28  C   UNL     1      16.860   3.048  93.956  1.00  0.00     0.042 C 
BRANCH  27  29
HETATM   29  O   UNL     1      15.708   5.157  93.963  1.00  0.00    -0.393 OA
HETATM   30  H   UNL     1      14.848   5.592  93.837  1.00  0.00     0.210 HD
ENDBRANCH  27  29
ENDBRANCH  26  27
BRANCH  26  31
HETATM   31  C   UNL     1      14.191   1.927  92.770  1.00  0.00     0.220 C 
HETATM   32  O   UNL     1      14.690   1.091  93.521  1.00  0.00    -0.278 OA
HETATM   33  N   UNL     1      13.176   1.674  91.879  1.00  0.00    -0.271 NA
HETATM   34  H   UNL     1      12.803   2.313  91.186  1.00  0.00     0.127 HD
HETATM   35  H   UNL     1      13.222   0.919  90.697  1.00  0.00     0.127 HD
ENDBRANCH  26  31
ENDBRANCH  24  26
ENDBRANCH  19  22
ENDBRANCH  15  16
ENDBRANCH  11  14
ENDBRANCH   7   8
ENDBRANCH   2   7
TORSDOF 9
ENDMDL
MODEL 4
REMARK VINA RESULT:      -5.2      1.615     12.336
REMARK  9 active torsions:
REMARK  status: ('A' for Active; 'I' for Inactive)
REMARK    1  A    between atoms: O_2  and  C_17 
REMARK    2  A    between atoms: N_5  and  C_10 
REMARK    3  A    between atoms: N_6  and  C_14 
REMARK       I    between atoms: N_6  and  C_23 
REMARK       I    between atoms: N_7  and  C_22 
REMARK    4  A    between atoms: C_10  and  C_13 
REMARK    5  A    between atoms: C_14  and  C_17 
REMARK    6  A    between atoms: C_14  and  C_22 
REMARK    7  A    between atoms: C_20  and  C_25 
REMARK    8  A    between atoms: C_23  and  C_24 
REMARK    9  A    between atoms: C_28  and  C_31 
ROOT
HETATM    1  O   UNL     1       3.354  14.019  92.245  1.00  0.00    -0.388 OA
HETATM    2  N   UNL     1       3.668  13.103  89.569  1.00  0.00     0.096 N 
HETATM    3  C   UNL     1       2.925  12.320  90.566  1.00  0.00     0.299 C 
HETATM    4  C   UNL     1       4.702  13.910  90.231  1.00  0.00     0.299 C 
HETATM    5  C   UNL     1       2.325  13.255  91.614  1.00  0.00     0.198 C 
HETATM    6  C   UNL     1       4.062  14.806  91.286  1.00  0.00     0.198 C 
ENDROOT
BRANCH   2   7
HETATM    7  C   UNL     1       4.260  12.226  88.560  1.00  0.00     0.311 C 
BRANCH   7   8
HETATM    8  C   UNL     1       5.193  11.226  89.154  1.00  0.00    -0.030 A 
HETATM    9  C   UNL     1       4.726   9.957  89.498  1.00  0.00     0.010 A 
HETATM   10  C   UNL     1       5.598   9.021  90.056  1.00  0.00     0.021 A 
HETATM   11  C   UNL     1       6.935   9.355  90.266  1.00  0.00     0.018 A 
HETATM   12  C   UNL     1       7.403  10.621  89.922  1.00  0.00     0.021 A 
HETATM   13  C   UNL     1       6.531  11.558  89.365  1.00  0.00     0.010 A 
BRANCH  11  14
HETATM   14  C   UNL     1       7.830   8.394  90.836  1.00  0.00    -0.061 C 
HETATM   15  C   UNL     1       8.582   7.587  91.315  1.00  0.00    -0.061 C 
BRANCH  15  16
HETATM   16  C   UNL     1       9.475   6.628  91.885  1.00  0.00     0.018 A 
HETATM   17  C   UNL     1      10.100   5.686  91.067  1.00  0.00     0.022 A 
HETATM   18  C   UNL     1      10.974   4.752  91.624  1.00  0.00     0.018 A 
HETATM   19  C   UNL     1      11.203   4.780  92.984  1.00  0.00     0.032 A 
HETATM   20  C   UNL     1      10.597   5.700  93.813  1.00  0.00     0.018 A 
HETATM   21  C   UNL     1       9.723   6.635  93.258  1.00  0.00     0.022 A 
BRANCH  19  22
HETATM   22  C   UNL     1      12.132   3.783  93.576  1.00  0.00     0.252 C 
HETATM   23  O   UNL     1      11.676   2.746  94.051  1.00  0.00    -0.268 OA
HETATM   24  N   UNL     1      13.482   4.103  93.521  1.00  0.00    -0.342 N 
HETATM   25  H   UNL     1      13.787   4.967  93.090  1.00  0.00     0.163 HD
BRANCH  24  26
HETATM   26  C   UNL     1      14.507   3.228  94.031  1.00  0.00     0.199 C 
BRANCH  26  27
HETATM   27  C   UNL     1      14.585   1.898  93.270  1.00  0.00     0.145 C 
HETATM   28  C   UNL     1      15.400   2.007  91.986  1.00  0.00     0.042 C 
BRANCH  27  29
HETATM   29  O   UNL     1      15.170   0.902  94.108  1.00  0.00    -0.393 OA
HETATM   30  H   UNL     1      15.573   0.224  93.540  1.00  0.00     0.210 HD
ENDBRANCH  27  29
ENDBRANCH  26  27
BRANCH  26  31
HETATM   31  C   UNL     1      15.833   3.979  93.971  1.00  0.00     0.220 C 
HETATM   32  O   UNL     1      15.908   5.191  93.773  1.00  0.00    -0.278 OA
HETATM   33  N   UNL     1      16.911   3.142  94.123  1.00  0.00    -0.271 NA
HETATM   34  H   UNL     1      16.889   2.132  94.198  1.00  0.00     0.127 HD
HETATM   35  H   UNL     1      17.842   2.734  93.154  1.00  0.00     0.127 HD
ENDBRANCH  26  31
ENDBRANCH  24  26
ENDBRANCH  19  22
ENDBRANCH  15  16
ENDBRANCH  11  14
ENDBRANCH   7   8
ENDBRANCH   2   7
TORSDOF 9
ENDMDL
MODEL 5
REMARK VINA RESULT:      -5.2      1.959     12.243
REMARK  9 active torsions:
REMARK  status: ('A' for Active; 'I' for Inactive)
REMARK    1  A    between atoms: O_2  and  C_17 
REMARK    2  A    between atoms: N_5  and  C_10 
REMARK    3  A    between atoms: N_6  and  C_14 
REMARK       I    between atoms: N_6  and  C_23 
REMARK       I    between atoms: N_7  and  C_22 
REMARK    4  A    between atoms: C_10  and  C_13 
REMARK    5  A    between atoms: C_14  and  C_17 
REMARK    6  A    between atoms: C_14  and  C_22 
REMARK    7  A    between atoms: C_20  and  C_25 
REMARK    8  A    between atoms: C_23  and  C_24 
REMARK    9  A    between atoms: C_28  and  C_31 
ROOT
HETATM    1  O   UNL     1       5.592  15.012  89.220  1.00  0.00    -0.388 OA
HETATM    2  N   UNL     1       3.576  13.363  90.367  1.00  0.00     0.096 N 
HETATM    3  C   UNL     1       4.198  14.456  91.127  1.00  0.00     0.299 C 
HETATM    4  C   UNL     1       4.521  12.841  89.371  1.00  0.00     0.299 C 
HETATM    5  C   UNL     1       4.669  15.548  90.170  1.00  0.00     0.198 C 
HETATM    6  C   UNL     1       4.985  13.970  88.456  1.00  0.00     0.198 C 
ENDROOT
BRANCH   2   7
HETATM    7  C   UNL     1       3.126  12.300  91.264  1.00  0.00     0.311 C 
BRANCH   7   8
HETATM    8  C   UNL     1       4.187  11.283  91.516  1.00  0.00    -0.030 A 
HETATM    9  C   UNL     1       4.351  10.214  90.633  1.00  0.00     0.010 A 
HETATM   10  C   UNL     1       5.341   9.261  90.870  1.00  0.00     0.021 A 
HETATM   11  C   UNL     1       6.168   9.378  91.987  1.00  0.00     0.018 A 
HETATM   12  C   UNL     1       6.005  10.444  92.868  1.00  0.00     0.021 A 
HETATM   13  C   UNL     1       5.014  11.397  92.633  1.00  0.00     0.010 A 
BRANCH  11  14
HETATM   14  C   UNL     1       7.185   8.401  92.227  1.00  0.00    -0.061 C 
HETATM   15  C   UNL     1       8.041   7.581  92.429  1.00  0.00    -0.061 C 
BRANCH  15  16
HETATM   16  C   UNL     1       9.058   6.605  92.670  1.00  0.00     0.018 A 
HETATM   17  C   UNL     1       9.872   6.712  93.798  1.00  0.00     0.022 A 
HETATM   18  C   UNL     1      10.863   5.759  94.034  1.00  0.00     0.018 A 
HETATM   19  C   UNL     1      11.017   4.721  93.139  1.00  0.00     0.032 A 
HETATM   20  C   UNL     1      10.225   4.594  92.017  1.00  0.00     0.018 A 
HETATM   21  C   UNL     1       9.234   5.547  91.780  1.00  0.00     0.022 A 
BRANCH  19  22
HETATM   22  C   UNL     1      12.073   3.707  93.390  1.00  0.00     0.252 C 
HETATM   23  O   UNL     1      11.747   2.545  93.619  1.00  0.00    -0.268 OA
HETATM   24  N   UNL     1      13.382   4.163  93.321  1.00  0.00    -0.342 N 
HETATM   25  H   UNL     1      13.576   5.134  93.102  1.00  0.00     0.163 HD
BRANCH  24  26
HETATM   26  C   UNL     1      14.517   3.297  93.517  1.00  0.00     0.199 C 
BRANCH  26  27
HETATM   27  C   UNL     1      14.700   2.292  92.372  1.00  0.00     0.145 C 
HETATM   28  C   UNL     1      14.425   2.907  91.005  1.00  0.00     0.042 C 
BRANCH  27  29
HETATM   29  O   UNL     1      16.034   1.784  92.393  1.00  0.00    -0.393 OA
HETATM   30  H   UNL     1      16.176   1.267  91.581  1.00  0.00     0.210 HD
ENDBRANCH  27  29
ENDBRANCH  26  27
BRANCH  26  31
HETATM   31  C   UNL     1      15.751   4.176  93.685  1.00  0.00     0.220 C 
HETATM   32  O   UNL     1      15.759   5.378  93.422  1.00  0.00    -0.278 OA
HETATM   33  N   UNL     1      16.841   3.463  94.121  1.00  0.00    -0.271 NA
HETATM   34  H   UNL     1      16.894   2.461  94.262  1.00  0.00     0.127 HD
HETATM   35  H   UNL     1      17.993   3.105  93.403  1.00  0.00     0.127 HD
ENDBRANCH  26  31
ENDBRANCH  24  26
ENDBRANCH  19  22
ENDBRANCH  15  16
ENDBRANCH  11  14
ENDBRANCH   7   8
ENDBRANCH   2   7
TORSDOF 9
ENDMDL
MODEL 6
REMARK VINA RESULT:      -4.9      2.299     12.303
REMARK  9 active torsions:
REMARK  status: ('A' for Active; 'I' for Inactive)
REMARK    1  A    between atoms: O_2  and  C_17 
REMARK    2  A    between atoms: N_5  and  C_10 
REMARK    3  A    between atoms: N_6  and  C_14 
REMARK       I    between atoms: N_6  and  C_23 
REMARK       I    between atoms: N_7  and  C_22 
REMARK    4  A    between atoms: C_10  and  C_13 
REMARK    5  A    between atoms: C_14  and  C_17 
REMARK    6  A    between atoms: C_14  and  C_22 
REMARK    7  A    between atoms: C_20  and  C_25 
REMARK    8  A    between atoms: C_23  and  C_24 
REMARK    9  A    between atoms: C_28  and  C_31 
ROOT
HETATM    1  O   UNL     1       4.456  14.701  89.743  1.00  0.00    -0.388 OA
HETATM    2  N   UNL     1       3.255  13.806  92.164  1.00  0.00     0.096 N 
HETATM    3  C   UNL     1       4.592  14.416  92.149  1.00  0.00     0.299 C 
HETATM    4  C   UNL     1       2.994  13.136  90.882  1.00  0.00     0.299 C 
HETATM    5  C   UNL     1       4.706  15.383  90.973  1.00  0.00     0.198 C 
HETATM    6  C   UNL     1       3.146  14.131  89.737  1.00  0.00     0.198 C 
ENDROOT
BRANCH   2   7
HETATM    7  C   UNL     1       3.126  12.868  93.277  1.00  0.00     0.311 C 
BRANCH   7   8
HETATM    8  C   UNL     1       4.154  11.789  93.233  1.00  0.00    -0.030 A 
HETATM    9  C   UNL     1       3.943  10.658  92.443  1.00  0.00     0.010 A 
HETATM   10  C   UNL     1       4.904   9.647  92.403  1.00  0.00     0.021 A 
HETATM   11  C   UNL     1       6.075   9.769  93.150  1.00  0.00     0.018 A 
HETATM   12  C   UNL     1       6.287  10.899  93.938  1.00  0.00     0.021 A 
HETATM   13  C   UNL     1       5.326  11.909  93.979  1.00  0.00     0.010 A 
BRANCH  11  14
HETATM   14  C   UNL     1       7.061   8.733  93.106  1.00  0.00    -0.061 C 
HETATM   15  C   UNL     1       7.890   7.863  93.070  1.00  0.00    -0.061 C 
BRANCH  15  16
HETATM   16  C   UNL     1       8.875   6.828  93.028  1.00  0.00     0.018 A 
HETATM   17  C   UNL     1       9.032   5.971  94.117  1.00  0.00     0.022 A 
HETATM   18  C   UNL     1       9.991   4.959  94.074  1.00  0.00     0.018 A 
HETATM   19  C   UNL     1      10.772   4.828  92.944  1.00  0.00     0.032 A 
HETATM   20  C   UNL     1      10.637   5.663  91.855  1.00  0.00     0.018 A 
HETATM   21  C   UNL     1       9.678   6.675  91.897  1.00  0.00     0.022 A 
BRANCH  19  22
HETATM   22  C   UNL     1      11.795   3.752  92.900  1.00  0.00     0.252 C 
HETATM   23  O   UNL     1      11.443   2.599  92.661  1.00  0.00    -0.268 OA
HETATM   24  N   UNL     1      13.107   4.151  93.115  1.00  0.00    -0.342 N 
HETATM   25  H   UNL     1      13.326   5.126  93.281  1.00  0.00     0.163 HD
BRANCH  24  26
HETATM   26  C   UNL     1      14.214   3.229  93.079  1.00  0.00     0.199 C 
BRANCH  26  27
HETATM   27  C   UNL     1      14.500   2.699  91.668  1.00  0.00     0.145 C 
HETATM   28  C   UNL     1      14.423   3.791  90.608  1.00  0.00     0.042 C 
BRANCH  27  29
HETATM   29  O   UNL     1      15.800   2.111  91.634  1.00  0.00    -0.393 OA
HETATM   30  H   UNL     1      16.458   2.826  91.619  1.00  0.00     0.210 HD
ENDBRANCH  27  29
ENDBRANCH  26  27
BRANCH  26  31
HETATM   31  C   UNL     1      15.431   3.940  93.662  1.00  0.00     0.220 C 
HETATM   32  O   UNL     1      15.546   5.164  93.681  1.00  0.00    -0.278 OA
HETATM   33  N   UNL     1      16.380   3.056  94.117  1.00  0.00    -0.271 NA
HETATM   34  H   UNL     1      16.357   2.047  94.035  1.00  0.00     0.127 HD
HETATM   35  H   UNL     1      17.632   2.757  93.557  1.00  0.00     0.127 HD
ENDBRANCH  26  31
ENDBRANCH  24  26
ENDBRANCH  19  22
ENDBRANCH  15  16
ENDBRANCH  11  14
ENDBRANCH   7   8
ENDBRANCH   2   7
TORSDOF 9
ENDMDL
MODEL 7
REMARK VINA RESULT:      -4.7      1.863     12.187
REMARK  9 active torsions:
REMARK  status: ('A' for Active; 'I' for Inactive)
REMARK    1  A    between atoms: O_2  and  C_17 
REMARK    2  A    between atoms: N_5  and  C_10 
REMARK    3  A    between atoms: N_6  and  C_14 
REMARK       I    between atoms: N_6  and  C_23 
REMARK       I    between atoms: N_7  and  C_22 
REMARK    4  A    between atoms: C_10  and  C_13 
REMARK    5  A    between atoms: C_14  and  C_17 
REMARK    6  A    between atoms: C_14  and  C_22 
REMARK    7  A    between atoms: C_20  and  C_25 
REMARK    8  A    between atoms: C_23  and  C_24 
REMARK    9  A    between atoms: C_28  and  C_31 
ROOT
HETATM    1  O   UNL     1       4.009  15.040  92.436  1.00  0.00    -0.388 OA
HETATM    2  N   UNL     1       3.096  13.972  89.960  1.00  0.00     0.096 N 
HETATM    3  C   UNL     1       2.667  13.404  91.246  1.00  0.00     0.299 C 
HETATM    4  C   UNL     1       4.432  14.570  90.094  1.00  0.00     0.299 C 
HETATM    5  C   UNL     1       2.697  14.485  92.324  1.00  0.00     0.198 C 
HETATM    6  C   UNL     1       4.420  15.622  91.198  1.00  0.00     0.198 C 
ENDROOT
BRANCH   2   7
HETATM    7  C   UNL     1       3.086  12.951  88.914  1.00  0.00     0.311 C 
BRANCH   7   8
HETATM    8  C   UNL     1       4.046  11.845  89.190  1.00  0.00    -0.030 A 
HETATM    9  C   UNL     1       3.684  10.525  88.921  1.00  0.00     0.010 A 
HETATM   10  C   UNL     1       4.581   9.489  89.181  1.00  0.00     0.021 A 
HETATM   11  C   UNL     1       5.840   9.774  89.709  1.00  0.00     0.018 A 
HETATM   12  C   UNL     1       6.203  11.092  89.978  1.00  0.00     0.021 A 
HETATM   13  C   UNL     1       5.306  12.128  89.718  1.00  0.00     0.010 A 
BRANCH  11  14
HETATM   14  C   UNL     1       6.761   8.712  89.974  1.00  0.00    -0.061 C 
HETATM   15  C   UNL     1       7.535   7.819  90.196  1.00  0.00    -0.061 C 
BRANCH  15  16
HETATM   16  C   UNL     1       8.456   6.758  90.461  1.00  0.00     0.018 A 
HETATM   17  C   UNL     1       9.455   6.456  89.535  1.00  0.00     0.022 A 
HETATM   18  C   UNL     1      10.355   5.422  89.795  1.00  0.00     0.018 A 
HETATM   19  C   UNL     1      10.236   4.715  90.973  1.00  0.00     0.032 A 
HETATM   20  C   UNL     1       9.257   4.994  91.903  1.00  0.00     0.018 A 
HETATM   21  C   UNL     1       8.357   6.027  91.645  1.00  0.00     0.022 A 
BRANCH  19  22
HETATM   22  C   UNL     1      11.194   3.613  91.248  1.00  0.00     0.252 C 
HETATM   23  O   UNL     1      10.834   2.450  91.082  1.00  0.00    -0.268 OA
HETATM   24  N   UNL     1      12.462   3.998  91.661  1.00  0.00    -0.342 N 
HETATM   25  H   UNL     1      12.695   4.980  91.752  1.00  0.00     0.163 HD
BRANCH  24  26
HETATM   26  C   UNL     1      13.508   3.048  91.943  1.00  0.00     0.199 C 
BRANCH  26  27
HETATM   27  C   UNL     1      14.911   3.621  91.705  1.00  0.00     0.145 C 
HETATM   28  C   UNL     1      14.955   4.588  90.527  1.00  0.00     0.042 C 
BRANCH  27  29
HETATM   29  O   UNL     1      15.353   4.301  92.880  1.00  0.00    -0.393 OA
HETATM   30  H   UNL     1      14.895   5.157  92.927  1.00  0.00     0.210 HD
ENDBRANCH  27  29
ENDBRANCH  26  27
BRANCH  26  31
HETATM   31  C   UNL     1      13.336   2.580  93.384  1.00  0.00     0.220 C 
HETATM   32  O   UNL     1      12.437   2.987  94.118  1.00  0.00    -0.278 OA
HETATM   33  N   UNL     1      14.317   1.696  93.763  1.00  0.00    -0.271 NA
HETATM   34  H   UNL     1      15.121   1.410  93.216  1.00  0.00     0.127 HD
HETATM   35  H   UNL     1      15.390   1.909  94.643  1.00  0.00     0.127 HD
ENDBRANCH  26  31
ENDBRANCH  24  26
ENDBRANCH  19  22
ENDBRANCH  15  16
ENDBRANCH  11  14
ENDBRANCH   7   8
ENDBRANCH   2   7
TORSDOF 9
ENDMDL
MODEL 8
REMARK VINA RESULT:      -4.6      2.200      3.104
REMARK  9 active torsions:
REMARK  status: ('A' for Active; 'I' for Inactive)
REMARK    1  A    between atoms: O_2  and  C_17 
REMARK    2  A    between atoms: N_5  and  C_10 
REMARK    3  A    between atoms: N_6  and  C_14 
REMARK       I    between atoms: N_6  and  C_23 
REMARK       I    between atoms: N_7  and  C_22 
REMARK    4  A    between atoms: C_10  and  C_13 
REMARK    5  A    between atoms: C_14  and  C_17 
REMARK    6  A    between atoms: C_14  and  C_22 
REMARK    7  A    between atoms: C_20  and  C_25 
REMARK    8  A    between atoms: C_23  and  C_24 
REMARK    9  A    between atoms: C_28  and  C_31 
ROOT
HETATM    1  O   UNL     1      16.142   2.545  91.754  1.00  0.00    -0.388 OA
HETATM    2  N   UNL     1      13.568   2.977  92.889  1.00  0.00     0.096 N 
HETATM    3  C   UNL     1      14.533   2.055  93.503  1.00  0.00     0.299 C 
HETATM    4  C   UNL     1      13.790   3.043  91.437  1.00  0.00     0.299 C 
HETATM    5  C   UNL     1      15.956   2.498  93.170  1.00  0.00     0.198 C 
HETATM    6  C   UNL     1      15.228   3.462  91.152  1.00  0.00     0.198 C 
ENDROOT
BRANCH   2   7
HETATM    7  C   UNL     1      12.197   2.565  93.187  1.00  0.00     0.311 C 
BRANCH   7   8
HETATM    8  C   UNL     1      11.243   3.710  93.165  1.00  0.00    -0.030 A 
HETATM    9  C   UNL     1      10.253   3.773  92.183  1.00  0.00     0.010 A 
HETATM   10  C   UNL     1       9.361   4.845  92.160  1.00  0.00     0.021 A 
HETATM   11  C   UNL     1       9.458   5.852  93.120  1.00  0.00     0.018 A 
HETATM   12  C   UNL     1      10.446   5.790  94.101  1.00  0.00     0.021 A 
HETATM   13  C   UNL     1      11.339   4.719  94.123  1.00  0.00     0.010 A 
BRANCH  11  14
HETATM   14  C   UNL     1       8.542   6.951  93.098  1.00  0.00    -0.061 C 
HETATM   15  C   UNL     1       7.772   7.874  93.080  1.00  0.00    -0.061 C 
BRANCH  15  16
HETATM   16  C   UNL     1       6.857   8.973  93.057  1.00  0.00     0.018 A 
HETATM   17  C   UNL     1       7.184  10.165  93.703  1.00  0.00     0.022 A 
HETATM   18  C   UNL     1       6.292  11.237  93.679  1.00  0.00     0.018 A 
HETATM   19  C   UNL     1       5.095  11.094  93.009  1.00  0.00     0.032 A 
HETATM   20  C   UNL     1       4.749   9.926  92.363  1.00  0.00     0.018 A 
HETATM   21  C   UNL     1       5.640   8.853  92.387  1.00  0.00     0.022 A 
BRANCH  19  22
HETATM   22  C   UNL     1       4.145  12.236  92.985  1.00  0.00     0.252 C 
HETATM   23  O   UNL     1       3.351  12.375  93.912  1.00  0.00    -0.268 OA
HETATM   24  N   UNL     1       4.250  13.091  91.897  1.00  0.00    -0.342 N 
HETATM   25  H   UNL     1       4.948  12.927  91.181  1.00  0.00     0.163 HD
BRANCH  24  26
HETATM   26  C   UNL     1       3.416  14.256  91.743  1.00  0.00     0.199 C 
BRANCH  26  27
HETATM   27  C   UNL     1       3.676  15.003  90.429  1.00  0.00     0.145 C 
HETATM   28  C   UNL     1       5.163  15.187  90.147  1.00  0.00     0.042 C 
BRANCH  27  29
HETATM   29  O   UNL     1       3.085  14.286  89.347  1.00  0.00    -0.393 OA
HETATM   30  H   UNL     1       2.707  13.462  89.697  1.00  0.00     0.210 HD
ENDBRANCH  27  29
ENDBRANCH  26  27
BRANCH  26  31
HETATM   31  C   UNL     1       1.962  13.805  91.846  1.00  0.00     0.220 C 
HETATM   32  O   UNL     1       1.488  12.912  91.147  1.00  0.00    -0.278 OA
HETATM   33  N   UNL     1       1.257  14.535  92.771  1.00  0.00    -0.271 NA
HETATM   34  H   UNL     1       1.592  15.333  93.298  1.00  0.00     0.127 HD
HETATM   35  H   UNL     1       0.263  15.501  92.545  1.00  0.00     0.127 HD
ENDBRANCH  26  31
ENDBRANCH  24  26
ENDBRANCH  19  22
ENDBRANCH  15  16
ENDBRANCH  11  14
ENDBRANCH   7   8
ENDBRANCH   2   7
TORSDOF 9
ENDMDL
MODEL 9
REMARK VINA RESULT:      -4.5      2.019      2.794
REMARK  9 active torsions:
REMARK  status: ('A' for Active; 'I' for Inactive)
REMARK    1  A    between atoms: O_2  and  C_17 
REMARK    2  A    between atoms: N_5  and  C_10 
REMARK    3  A    between atoms: N_6  and  C_14 
REMARK       I    between atoms: N_6  and  C_23 
REMARK       I    between atoms: N_7  and  C_22 
REMARK    4  A    between atoms: C_10  and  C_13 
REMARK    5  A    between atoms: C_14  and  C_17 
REMARK    6  A    between atoms: C_14  and  C_22 
REMARK    7  A    between atoms: C_20  and  C_25 
REMARK    8  A    between atoms: C_23  and  C_24 
REMARK    9  A    between atoms: C_28  and  C_31 
ROOT
HETATM    1  O   UNL     1      17.493   4.642  93.246  1.00  0.00    -0.388 OA
HETATM    2  N   UNL     1      15.334   2.916  93.925  1.00  0.00     0.096 N 
HETATM    3  C   UNL     1      16.424   2.472  93.046  1.00  0.00     0.299 C 
HETATM    4  C   UNL     1      15.148   4.369  93.803  1.00  0.00     0.299 C 
HETATM    5  C   UNL     1      17.703   3.235  93.382  1.00  0.00     0.198 C 
HETATM    6  C   UNL     1      16.456   5.086  94.121  1.00  0.00     0.198 C 
ENDROOT
BRANCH   2   7
HETATM    7  C   UNL     1      14.095   2.206  93.613  1.00  0.00     0.311 C 
BRANCH   7   8
HETATM    8  C   UNL     1      13.045   3.110  93.063  1.00  0.00    -0.030 A 
HETATM    9  C   UNL     1      13.030   3.413  91.701  1.00  0.00     0.010 A 
HETATM   10  C   UNL     1      12.050   4.260  91.186  1.00  0.00     0.021 A 
HETATM   11  C   UNL     1      11.083   4.802  92.032  1.00  0.00     0.018 A 
HETATM   12  C   UNL     1      11.096   4.500  93.392  1.00  0.00     0.021 A 
HETATM   13  C   UNL     1      12.077   3.653  93.908  1.00  0.00     0.010 A 
BRANCH  11  14
HETATM   14  C   UNL     1      10.076   5.670  91.503  1.00  0.00    -0.061 C 
HETATM   15  C   UNL     1       9.229   6.399  91.059  1.00  0.00    -0.061 C 
BRANCH  15  16
HETATM   16  C   UNL     1       8.223   7.267  90.530  1.00  0.00     0.018 A 
HETATM   17  C   UNL     1       7.874   7.188  89.182  1.00  0.00     0.022 A 
HETATM   18  C   UNL     1       6.891   8.033  88.667  1.00  0.00     0.018 A 
HETATM   19  C   UNL     1       6.279   8.936  89.511  1.00  0.00     0.032 A 
HETATM   20  C   UNL     1       6.606   9.033  90.847  1.00  0.00     0.018 A 
HETATM   21  C   UNL     1       7.590   8.189  91.363  1.00  0.00     0.022 A 
BRANCH  19  22
HETATM   22  C   UNL     1       5.232   9.837  88.962  1.00  0.00     0.252 C 
HETATM   23  O   UNL     1       4.973   9.793  87.762  1.00  0.00    -0.268 OA
HETATM   24  N   UNL     1       4.598  10.662  89.880  1.00  0.00    -0.342 N 
HETATM   25  H   UNL     1       4.847  10.625  90.861  1.00  0.00     0.163 HD
BRANCH  24  26
HETATM   26  C   UNL     1       3.546  11.573  89.506  1.00  0.00     0.199 C 
BRANCH  26  27
HETATM   27  C   UNL     1       4.079  12.887  88.921  1.00  0.00     0.145 C 
HETATM   28  C   UNL     1       4.531  13.865  89.999  1.00  0.00     0.042 C 
BRANCH  27  29
HETATM   29  O   UNL     1       5.179  12.611  88.054  1.00  0.00    -0.393 OA
HETATM   30  H   UNL     1       4.858  12.633  87.137  1.00  0.00     0.210 HD
ENDBRANCH  27  29
ENDBRANCH  26  27
BRANCH  26  31
HETATM   31  C   UNL     1       2.636  10.853  88.516  1.00  0.00     0.220 C 
HETATM   32  O   UNL     1       1.932   9.895  88.828  1.00  0.00    -0.278 OA
HETATM   33  N   UNL     1       2.732  11.376  87.249  1.00  0.00    -0.271 NA
HETATM   34  H   UNL     1       3.366  12.103  86.939  1.00  0.00     0.127 HD
HETATM   35  H   UNL     1       3.334  10.807  86.115  1.00  0.00     0.127 HD
ENDBRANCH  26  31
ENDBRANCH  24  26
ENDBRANCH  19  22
ENDBRANCH  15  16
ENDBRANCH  11  14
ENDBRANCH   7   8
ENDBRANCH   2   7
TORSDOF 9
ENDMDL
