MODEL 1
REMARK VINA RESULT:      -7.5      0.000      0.000
REMARK  9 active torsions:
REMARK  status: ('A' for Active; 'I' for Inactive)
REMARK    1  A    between atoms: N_3  and  C_6 
REMARK    2  A    between atoms: C_6  and  C_9 
REMARK    3  A    between atoms: C_14  and  C_17 
REMARK       I    between atoms: N_26  and  C_15 
REMARK    4  A    between atoms: C_15  and  C_16 
REMARK    5  A    between atoms: C_20  and  C_23 
REMARK    6  A    between atoms: OG1_24  and  CB_28 
REMARK    7  A    between atoms: N_26  and  CA_27 
REMARK    8  A    between atoms: CA_27  and  CB_28 
REMARK    9  A    between atoms: CA_27  and  C_30 
ROOT
HETATM    1  O   UNK A   0       1.933   8.081  87.863  1.00  0.00    -0.388 OA
HETATM    2  N   UNK A   0       4.730   7.575  87.710  1.00  0.00     0.096 N 
HETATM    3  C   UNK A   0       4.200   8.944  87.789  1.00  0.00     0.299 C 
HETATM    4  C   UNK A   0       3.752   6.694  87.057  1.00  0.00     0.299 C 
HETATM    5  C   UNK A   0       2.863   8.939  88.527  1.00  0.00     0.198 C 
HETATM    6  C   UNK A   0       2.427   6.742  87.810  1.00  0.00     0.198 C 
ENDROOT
BRANCH   2   7
HETATM    7  C   UNK A   0       6.006   7.555  86.998  1.00  0.00     0.311 C 
BRANCH   7   8
HETATM    8  C   UNK A   0       7.101   6.954  87.811  1.00  0.00    -0.030 A 
HETATM    9  C   UNK A   0       6.908   6.719  89.173  1.00  0.00     0.010 A 
HETATM   10  C   UNK A   0       7.933   6.159  89.936  1.00  0.00     0.021 A 
HETATM   11  C   UNK A   0       9.149   5.833  89.336  1.00  0.00     0.018 A 
HETATM   12  C   UNK A   0       9.343   6.068  87.977  1.00  0.00     0.021 A 
HETATM   13  C   UNK A   0       8.318   6.628  87.213  1.00  0.00     0.010 A 
BRANCH  11  14
HETATM   14  C   UNK A   0      10.199   5.257  90.119  1.00  0.00    -0.061 C 
HETATM   15  C   UNK A   0      11.082   4.772  90.776  1.00  0.00    -0.061 C 
BRANCH  15  16
HETATM   16  C   UNK A   0      12.132   4.196  91.557  1.00  0.00     0.018 A 
HETATM   17  C   UNK A   0      13.385   3.975  90.984  1.00  0.00     0.022 A 
HETATM   18  C   UNK A   0      14.410   3.416  91.747  1.00  0.00     0.018 A 
HETATM   19  C   UNK A   0      14.160   3.091  93.064  1.00  0.00     0.032 A 
HETATM   20  C   UNK A   0      12.930   3.299  93.652  1.00  0.00     0.018 A 
HETATM   21  C   UNK A   0      11.904   3.858  92.891  1.00  0.00     0.022 A 
BRANCH  19  22
HETATM   22  C   UNK A   0      15.251   2.493  93.875  1.00  0.00     0.252 C 
HETATM   23  O   UNK A   0      16.398   2.911  93.738  1.00  0.00    -0.268 OA
ENDBRANCH  19  22
ENDBRANCH  15  16
ENDBRANCH  11  14
ENDBRANCH   7   8
ENDBRANCH   2   7
TORSDOF 9
ENDMDL
MODEL 2
REMARK VINA RESULT:      -7.5      0.153      1.019
REMARK  9 active torsions:
REMARK  status: ('A' for Active; 'I' for Inactive)
REMARK    1  A    between atoms: N_3  and  C_6 
REMARK    2  A    between atoms: C_6  and  C_9 
REMARK    3  A    between atoms: C_14  and  C_17 
REMARK       I    between atoms: N_26  and  C_15 
REMARK    4  A    between atoms: C_15  and  C_16 
REMARK    5  A    between atoms: C_20  and  C_23 
REMARK    6  A    between atoms: OG1_24  and  CB_28 
REMARK    7  A    between atoms: N_26  and  CA_27 
REMARK    8  A    between atoms: CA_27  and  CB_28 
REMARK    9  A    between atoms: CA_27  and  C_30 
ROOT
HETATM    1  O   UNK A   0       1.790   8.091  87.867  1.00  0.00    -0.388 OA
HETATM    2  N   UNK A   0       4.585   7.580  87.691  1.00  0.00     0.096 N 
HETATM    3  C   UNK A   0       4.059   8.949  87.791  1.00  0.00     0.299 C 
HETATM    4  C   UNK A   0       3.601   6.710  87.031  1.00  0.00     0.299 C 
HETATM    5  C   UNK A   0       2.726   8.937  88.536  1.00  0.00     0.198 C 
HETATM    6  C   UNK A   0       2.280   6.752  87.793  1.00  0.00     0.198 C 
ENDROOT
BRANCH   2   7
HETATM    7  C   UNK A   0       5.857   7.566  86.971  1.00  0.00     0.311 C 
BRANCH   7   8
HETATM    8  C   UNK A   0       6.959   6.967  87.777  1.00  0.00    -0.030 A 
HETATM    9  C   UNK A   0       6.740   6.629  89.113  1.00  0.00     0.010 A 
HETATM   10  C   UNK A   0       7.771   6.070  89.868  1.00  0.00     0.021 A 
HETATM   11  C   UNK A   0       9.019   5.849  89.287  1.00  0.00     0.018 A 
HETATM   12  C   UNK A   0       9.239   6.187  87.953  1.00  0.00     0.021 A 
HETATM   13  C   UNK A   0       8.208   6.746  87.197  1.00  0.00     0.010 A 
BRANCH  11  14
HETATM   14  C   UNK A   0      10.076   5.274  90.061  1.00  0.00    -0.061 C 
HETATM   15  C   UNK A   0      10.965   4.792  90.712  1.00  0.00    -0.061 C 
BRANCH  15  16
HETATM   16  C   UNK A   0      12.021   4.218  91.486  1.00  0.00     0.018 A 
HETATM   17  C   UNK A   0      11.795   3.863  92.816  1.00  0.00     0.022 A 
HETATM   18  C   UNK A   0      12.825   3.301  93.571  1.00  0.00     0.018 A 
HETATM   19  C   UNK A   0      14.055   3.106  92.979  1.00  0.00     0.032 A 
HETATM   20  C   UNK A   0      14.303   3.449  91.667  1.00  0.00     0.018 A 
HETATM   21  C   UNK A   0      13.274   4.011  90.911  1.00  0.00     0.022 A 
BRANCH  19  22
HETATM   22  C   UNK A   0      15.152   2.509  93.784  1.00  0.00     0.252 C 
HETATM   23  O   UNK A   0      16.247   3.065  93.812  1.00  0.00    -0.268 OA
ENDBRANCH  19  22
ENDBRANCH  15  16
ENDBRANCH  11  14
ENDBRANCH   7   8
ENDBRANCH   2   7
TORSDOF 9
ENDMDL
MODEL 3
REMARK VINA RESULT:      -6.9      1.475      2.095
REMARK  9 active torsions:
REMARK  status: ('A' for Active; 'I' for Inactive)
REMARK    1  A    between atoms: N_3  and  C_6 
REMARK    2  A    between atoms: C_6  and  C_9 
REMARK    3  A    between atoms: C_14  and  C_17 
REMARK       I    between atoms: N_26  and  C_15 
REMARK    4  A    between atoms: C_15  and  C_16 
REMARK    5  A    between atoms: C_20  and  C_23 
REMARK    6  A    between atoms: OG1_24  and  CB_28 
REMARK    7  A    between atoms: N_26  and  CA_27 
REMARK    8  A    between atoms: CA_27  and  CB_28 
REMARK    9  A    between atoms: CA_27  and  C_30 
ROOT
HETATM    1  O   UNK A   0       2.723  11.071  89.764  1.00  0.00    -0.388 OA
HETATM    2  N   UNK A   0       4.621   9.192  88.780  1.00  0.00     0.096 N 
HETATM    3  C   UNK A   0       3.837  10.040  87.871  1.00  0.00     0.299 C 
HETATM    4  C   UNK A   0       3.864   8.946  90.015  1.00  0.00     0.299 C 
HETATM    5  C   UNK A   0       3.463  11.343  88.573  1.00  0.00     0.198 C 
HETATM    6  C   UNK A   0       3.489  10.273  90.666  1.00  0.00     0.198 C 
ENDROOT
BRANCH   2   7
HETATM    7  C   UNK A   0       4.981   7.933  88.131  1.00  0.00     0.311 C 
BRANCH   7   8
HETATM    8  C   UNK A   0       6.192   7.308  88.737  1.00  0.00    -0.030 A 
HETATM    9  C   UNK A   0       6.072   6.131  89.477  1.00  0.00     0.010 A 
HETATM   10  C   UNK A   0       7.203   5.547  90.046  1.00  0.00     0.021 A 
HETATM   11  C   UNK A   0       8.454   6.139  89.872  1.00  0.00     0.018 A 
HETATM   12  C   UNK A   0       8.575   7.313  89.133  1.00  0.00     0.021 A 
HETATM   13  C   UNK A   0       7.444   7.899  88.565  1.00  0.00     0.010 A 
BRANCH  11  14
HETATM   14  C   UNK A   0       9.615   5.538  90.454  1.00  0.00    -0.061 C 
HETATM   15  C   UNK A   0      10.590   5.034  90.944  1.00  0.00    -0.061 C 
BRANCH  15  16
HETATM   16  C   UNK A   0      11.750   4.433  91.526  1.00  0.00     0.018 A 
HETATM   17  C   UNK A   0      11.719   4.001  92.852  1.00  0.00     0.022 A 
HETATM   18  C   UNK A   0      12.850   3.413  93.419  1.00  0.00     0.018 A 
HETATM   19  C   UNK A   0      13.984   3.269  92.648  1.00  0.00     0.032 A 
HETATM   20  C   UNK A   0      14.040   3.688  91.335  1.00  0.00     0.018 A 
HETATM   21  C   UNK A   0      12.910   4.277  90.767  1.00  0.00     0.022 A 
BRANCH  19  22
HETATM   22  C   UNK A   0      15.189   2.644  93.253  1.00  0.00     0.252 C 
HETATM   23  O   UNK A   0      15.974   3.345  93.887  1.00  0.00    -0.268 OA
ENDBRANCH  19  22
ENDBRANCH  15  16
ENDBRANCH  11  14
ENDBRANCH   7   8
ENDBRANCH   2   7
TORSDOF 9
ENDMDL
MODEL 4
REMARK VINA RESULT:      -6.8      1.442      1.977
REMARK  9 active torsions:
REMARK  status: ('A' for Active; 'I' for Inactive)
REMARK    1  A    between atoms: N_3  and  C_6 
REMARK    2  A    between atoms: C_6  and  C_9 
REMARK    3  A    between atoms: C_14  and  C_17 
REMARK       I    between atoms: N_26  and  C_15 
REMARK    4  A    between atoms: C_15  and  C_16 
REMARK    5  A    between atoms: C_20  and  C_23 
REMARK    6  A    between atoms: OG1_24  and  CB_28 
REMARK    7  A    between atoms: N_26  and  CA_27 
REMARK    8  A    between atoms: CA_27  and  CB_28 
REMARK    9  A    between atoms: CA_27  and  C_30 
ROOT
HETATM    1  O   UNK A   0       2.961  11.047  89.692  1.00  0.00    -0.388 OA
HETATM    2  N   UNK A   0       4.802   9.176  88.592  1.00  0.00     0.096 N 
HETATM    3  C   UNK A   0       3.820   9.873  87.750  1.00  0.00     0.299 C 
HETATM    4  C   UNK A   0       4.280   9.029  89.958  1.00  0.00     0.299 C 
HETATM    5  C   UNK A   0       3.473  11.224  88.369  1.00  0.00     0.198 C 
HETATM    6  C   UNK A   0       3.922  10.399  90.525  1.00  0.00     0.198 C 
ENDROOT
BRANCH   2   7
HETATM    7  C   UNK A   0       5.142   7.874  88.022  1.00  0.00     0.311 C 
BRANCH   7   8
HETATM    8  C   UNK A   0       6.318   7.249  88.693  1.00  0.00    -0.030 A 
HETATM    9  C   UNK A   0       7.577   7.842  88.585  1.00  0.00     0.010 A 
HETATM   10  C   UNK A   0       8.678   7.258  89.210  1.00  0.00     0.021 A 
HETATM   11  C   UNK A   0       8.520   6.083  89.944  1.00  0.00     0.018 A 
HETATM   12  C   UNK A   0       7.264   5.490  90.052  1.00  0.00     0.021 A 
HETATM   13  C   UNK A   0       6.162   6.073  89.427  1.00  0.00     0.010 A 
BRANCH  11  14
HETATM   14  C   UNK A   0       9.650   5.485  90.587  1.00  0.00    -0.061 C 
HETATM   15  C   UNK A   0      10.599   4.982  91.127  1.00  0.00    -0.061 C 
BRANCH  15  16
HETATM   16  C   UNK A   0      11.728   4.384  91.769  1.00  0.00     0.018 A 
HETATM   17  C   UNK A   0      12.893   4.138  91.042  1.00  0.00     0.022 A 
HETATM   18  C   UNK A   0      13.995   3.557  91.669  1.00  0.00     0.018 A 
HETATM   19  C   UNK A   0      13.908   3.236  93.007  1.00  0.00     0.032 A 
HETATM   20  C   UNK A   0      12.768   3.469  93.748  1.00  0.00     0.018 A 
HETATM   21  C   UNK A   0      11.665   4.049  93.122  1.00  0.00     0.022 A 
BRANCH  19  22
HETATM   22  C   UNK A   0      15.082   2.615  93.674  1.00  0.00     0.252 C 
HETATM   23  O   UNK A   0      16.212   2.996  93.376  1.00  0.00    -0.268 OA
ENDBRANCH  19  22
ENDBRANCH  15  16
ENDBRANCH  11  14
ENDBRANCH   7   8
ENDBRANCH   2   7
TORSDOF 9
ENDMDL
MODEL 5
REMARK VINA RESULT:      -6.6      3.558     10.377
REMARK  9 active torsions:
REMARK  status: ('A' for Active; 'I' for Inactive)
REMARK    1  A    between atoms: N_3  and  C_6 
REMARK    2  A    between atoms: C_6  and  C_9 
REMARK    3  A    between atoms: C_14  and  C_17 
REMARK       I    between atoms: N_26  and  C_15 
REMARK    4  A    between atoms: C_15  and  C_16 
REMARK    5  A    between atoms: C_20  and  C_23 
REMARK    6  A    between atoms: OG1_24  and  CB_28 
REMARK    7  A    between atoms: N_26  and  CA_27 
REMARK    8  A    between atoms: CA_27  and  CB_28 
REMARK    9  A    between atoms: CA_27  and  C_30 
ROOT
HETATM    1  O   UNK A   0      16.210   3.121  93.611  1.00  0.00    -0.388 OA
HETATM    2  N   UNK A   0      13.484   2.884  92.826  1.00  0.00     0.096 N 
HETATM    3  C   UNK A   0      14.304   1.700  93.120  1.00  0.00     0.299 C 
HETATM    4  C   UNK A   0      14.335   3.975  92.331  1.00  0.00     0.299 C 
HETATM    5  C   UNK A   0      15.395   2.064  94.124  1.00  0.00     0.198 C 
HETATM    6  C   UNK A   0      15.425   4.285  93.352  1.00  0.00     0.198 C 
ENDROOT
BRANCH   2   7
HETATM    7  C   UNK A   0      12.438   2.560  91.857  1.00  0.00     0.311 C 
BRANCH   7   8
HETATM    8  C   UNK A   0      11.582   3.737  91.532  1.00  0.00    -0.030 A 
HETATM    9  C   UNK A   0      11.405   4.123  90.203  1.00  0.00     0.010 A 
HETATM   10  C   UNK A   0      10.606   5.225  89.898  1.00  0.00     0.021 A 
HETATM   11  C   UNK A   0       9.983   5.938  90.921  1.00  0.00     0.018 A 
HETATM   12  C   UNK A   0      10.159   5.553  92.249  1.00  0.00     0.021 A 
HETATM   13  C   UNK A   0      10.958   4.452  92.555  1.00  0.00     0.010 A 
BRANCH  11  14
HETATM   14  C   UNK A   0       9.162   7.067  90.608  1.00  0.00    -0.061 C 
HETATM   15  C   UNK A   0       8.472   8.016  90.344  1.00  0.00    -0.061 C 
BRANCH  15  16
HETATM   16  C   UNK A   0       7.652   9.144  90.030  1.00  0.00     0.018 A 
HETATM   17  C   UNK A   0       6.283   9.106  90.296  1.00  0.00     0.022 A 
HETATM   18  C   UNK A   0       5.483  10.207  89.992  1.00  0.00     0.018 A 
HETATM   19  C   UNK A   0       6.070  11.322  89.430  1.00  0.00     0.032 A 
HETATM   20  C   UNK A   0       7.420  11.385  89.157  1.00  0.00     0.018 A 
HETATM   21  C   UNK A   0       8.221  10.283  89.461  1.00  0.00     0.022 A 
BRANCH  19  22
HETATM   22  C   UNK A   0       5.217  12.495  89.105  1.00  0.00     0.252 C 
HETATM   23  O   UNK A   0       5.269  12.979  87.977  1.00  0.00    -0.268 OA
ENDBRANCH  19  22
ENDBRANCH  15  16
ENDBRANCH  11  14
ENDBRANCH   7   8
ENDBRANCH   2   7
TORSDOF 9
ENDMDL
MODEL 6
REMARK VINA RESULT:      -6.6      3.931     10.440
REMARK  9 active torsions:
REMARK  status: ('A' for Active; 'I' for Inactive)
REMARK    1  A    between atoms: N_3  and  C_6 
REMARK    2  A    between atoms: C_6  and  C_9 
REMARK    3  A    between atoms: C_14  and  C_17 
REMARK       I    between atoms: N_26  and  C_15 
REMARK    4  A    between atoms: C_15  and  C_16 
REMARK    5  A    between atoms: C_20  and  C_23 
REMARK    6  A    between atoms: OG1_24  and  CB_28 
REMARK    7  A    between atoms: N_26  and  CA_27 
REMARK    8  A    between atoms: CA_27  and  CB_28 
REMARK    9  A    between atoms: CA_27  and  C_30 
ROOT
HETATM    1  O   UNK A   0      14.519   3.311  92.115  1.00  0.00    -0.388 OA
HETATM    2  N   UNK A   0      11.808   4.163  92.270  1.00  0.00     0.096 N 
HETATM    3  C   UNK A   0      12.402   3.301  93.301  1.00  0.00     0.299 C 
HETATM    4  C   UNK A   0      12.468   3.931  90.978  1.00  0.00     0.299 C 
HETATM    5  C   UNK A   0      13.905   3.553  93.382  1.00  0.00     0.198 C 
HETATM    6  C   UNK A   0      13.969   4.167  91.113  1.00  0.00     0.198 C 
ENDROOT
BRANCH   2   7
HETATM    7  C   UNK A   0      10.368   3.931  92.167  1.00  0.00     0.311 C 
BRANCH   7   8
HETATM    8  C   UNK A   0       9.610   5.182  91.877  1.00  0.00    -0.030 A 
HETATM    9  C   UNK A   0       9.914   6.356  92.566  1.00  0.00     0.010 A 
HETATM   10  C   UNK A   0       9.204   7.526  92.297  1.00  0.00     0.021 A 
HETATM   11  C   UNK A   0       8.193   7.522  91.336  1.00  0.00     0.018 A 
HETATM   12  C   UNK A   0       7.890   6.350  90.647  1.00  0.00     0.021 A 
HETATM   13  C   UNK A   0       8.599   5.179  90.917  1.00  0.00     0.010 A 
BRANCH  11  14
HETATM   14  C   UNK A   0       7.467   8.723  91.059  1.00  0.00    -0.061 C 
HETATM   15  C   UNK A   0       6.856   9.732  90.826  1.00  0.00    -0.061 C 
BRANCH  15  16
HETATM   16  C   UNK A   0       6.131  10.933  90.549  1.00  0.00     0.018 A 
HETATM   17  C   UNK A   0       5.269  11.463  91.509  1.00  0.00     0.022 A 
HETATM   18  C   UNK A   0       4.564  12.636  91.240  1.00  0.00     0.018 A 
HETATM   19  C   UNK A   0       4.736  13.251  90.018  1.00  0.00     0.032 A 
HETATM   20  C   UNK A   0       5.581  12.747  89.052  1.00  0.00     0.018 A 
HETATM   21  C   UNK A   0       6.287  11.574  89.320  1.00  0.00     0.022 A 
BRANCH  19  22
HETATM   22  C   UNK A   0       3.983  14.500  89.731  1.00  0.00     0.252 C 
HETATM   23  O   UNK A   0       4.580  15.573  89.725  1.00  0.00    -0.268 OA
ENDBRANCH  19  22
ENDBRANCH  15  16
ENDBRANCH  11  14
ENDBRANCH   7   8
ENDBRANCH   2   7
TORSDOF 9
ENDMDL
MODEL 7
REMARK VINA RESULT:      -6.6      3.883     10.406
REMARK  9 active torsions:
REMARK  status: ('A' for Active; 'I' for Inactive)
REMARK    1  A    between atoms: N_3  and  C_6 
REMARK    2  A    between atoms: C_6  and  C_9 
REMARK    3  A    between atoms: C_14  and  C_17 
REMARK       I    between atoms: N_26  and  C_15 
REMARK    4  A    between atoms: C_15  and  C_16 
REMARK    5  A    between atoms: C_20  and  C_23 
REMARK    6  A    between atoms: OG1_24  and  CB_28 
REMARK    7  A    between atoms: N_26  and  CA_27 
REMARK    8  A    between atoms: CA_27  and  CB_28 
REMARK    9  A    between atoms: CA_27  and  C_30 
ROOT
HETATM    1  O   UNK A   0      14.672   3.281  92.475  1.00  0.00    -0.388 OA
HETATM    2  N   UNK A   0      11.949   4.094  92.323  1.00  0.00     0.096 N 
HETATM    3  C   UNK A   0      12.457   3.322  93.465  1.00  0.00     0.299 C 
HETATM    4  C   UNK A   0      12.725   3.778  91.116  1.00  0.00     0.299 C 
HETATM    5  C   UNK A   0      13.944   3.606  93.661  1.00  0.00     0.198 C 
HETATM    6  C   UNK A   0      14.205   4.050  91.366  1.00  0.00     0.198 C 
ENDROOT
BRANCH   2   7
HETATM    7  C   UNK A   0      10.527   3.829  92.111  1.00  0.00     0.311 C 
BRANCH   7   8
HETATM    8  C   UNK A   0       9.751   5.074  91.841  1.00  0.00    -0.030 A 
HETATM    9  C   UNK A   0       8.732   5.066  90.888  1.00  0.00     0.010 A 
HETATM   10  C   UNK A   0       8.007   6.230  90.634  1.00  0.00     0.021 A 
HETATM   11  C   UNK A   0       8.300   7.400  91.334  1.00  0.00     0.018 A 
HETATM   12  C   UNK A   0       9.318   7.409  92.285  1.00  0.00     0.021 A 
HETATM   13  C   UNK A   0      10.044   6.245  92.540  1.00  0.00     0.010 A 
BRANCH  11  14
HETATM   14  C   UNK A   0       7.555   8.594  91.074  1.00  0.00    -0.061 C 
HETATM   15  C   UNK A   0       6.930   9.597  90.855  1.00  0.00    -0.061 C 
BRANCH  15  16
HETATM   16  C   UNK A   0       6.185  10.789  90.595  1.00  0.00     0.018 A 
HETATM   17  C   UNK A   0       6.342  11.458  89.381  1.00  0.00     0.022 A 
HETATM   18  C   UNK A   0       5.613  12.619  89.126  1.00  0.00     0.018 A 
HETATM   19  C   UNK A   0       4.744  13.086  90.090  1.00  0.00     0.032 A 
HETATM   20  C   UNK A   0       4.571  12.443  91.298  1.00  0.00     0.018 A 
HETATM   21  C   UNK A   0       5.299  11.282  91.554  1.00  0.00     0.022 A 
BRANCH  19  22
HETATM   22  C   UNK A   0       3.969  14.324  89.819  1.00  0.00     0.252 C 
HETATM   23  O   UNK A   0       4.549  15.407  89.822  1.00  0.00    -0.268 OA
ENDBRANCH  19  22
ENDBRANCH  15  16
ENDBRANCH  11  14
ENDBRANCH   7   8
ENDBRANCH   2   7
TORSDOF 9
ENDMDL
MODEL 8
REMARK VINA RESULT:      -6.5      1.580      2.046
REMARK  9 active torsions:
REMARK  status: ('A' for Active; 'I' for Inactive)
REMARK    1  A    between atoms: N_3  and  C_6 
REMARK    2  A    between atoms: C_6  and  C_9 
REMARK    3  A    between atoms: C_14  and  C_17 
REMARK       I    between atoms: N_26  and  C_15 
REMARK    4  A    between atoms: C_15  and  C_16 
REMARK    5  A    between atoms: C_20  and  C_23 
REMARK    6  A    between atoms: OG1_24  and  CB_28 
REMARK    7  A    between atoms: N_26  and  CA_27 
REMARK    8  A    between atoms: CA_27  and  CB_28 
REMARK    9  A    between atoms: CA_27  and  C_30 
ROOT
HETATM    1  O   UNK A   0       2.061   7.381  87.508  1.00  0.00    -0.388 OA
HETATM    2  N   UNK A   0       4.060   7.488  89.532  1.00  0.00     0.096 N 
HETATM    3  C   UNK A   0       2.630   7.576  89.860  1.00  0.00     0.299 C 
HETATM    4  C   UNK A   0       4.301   8.021  88.184  1.00  0.00     0.299 C 
HETATM    5  C   UNK A   0       1.811   6.835  88.805  1.00  0.00     0.198 C 
HETATM    6  C   UNK A   0       3.444   7.271  87.169  1.00  0.00     0.198 C 
ENDROOT
BRANCH   2   7
HETATM    7  C   UNK A   0       4.863   8.200  90.524  1.00  0.00     0.311 C 
BRANCH   7   8
HETATM    8  C   UNK A   0       6.148   7.505  90.819  1.00  0.00    -0.030 A 
HETATM    9  C   UNK A   0       7.095   8.113  91.645  1.00  0.00     0.010 A 
HETATM   10  C   UNK A   0       8.299   7.465  91.921  1.00  0.00     0.021 A 
HETATM   11  C   UNK A   0       8.554   6.208  91.371  1.00  0.00     0.018 A 
HETATM   12  C   UNK A   0       7.610   5.601  90.547  1.00  0.00     0.021 A 
HETATM   13  C   UNK A   0       6.406   6.249  90.271  1.00  0.00     0.010 A 
BRANCH  11  14
HETATM   14  C   UNK A   0       9.788   5.543  91.656  1.00  0.00    -0.061 C 
HETATM   15  C   UNK A   0      10.826   4.983  91.894  1.00  0.00    -0.061 C 
BRANCH  15  16
HETATM   16  C   UNK A   0      12.059   4.319  92.178  1.00  0.00     0.018 A 
HETATM   17  C   UNK A   0      13.041   4.220  91.192  1.00  0.00     0.022 A 
HETATM   18  C   UNK A   0      14.245   3.574  91.470  1.00  0.00     0.018 A 
HETATM   19  C   UNK A   0      14.442   3.043  92.728  1.00  0.00     0.032 A 
HETATM   20  C   UNK A   0      13.487   3.126  93.719  1.00  0.00     0.018 A 
HETATM   21  C   UNK A   0      12.282   3.772  93.442  1.00  0.00     0.022 A 
BRANCH  19  22
HETATM   22  C   UNK A   0      15.724   2.353  93.023  1.00  0.00     0.252 C 
HETATM   23  O   UNK A   0      16.560   2.916  93.725  1.00  0.00    -0.268 OA
ENDBRANCH  19  22
ENDBRANCH  15  16
ENDBRANCH  11  14
ENDBRANCH   7   8
ENDBRANCH   2   7
TORSDOF 9
ENDMDL
MODEL 9
REMARK VINA RESULT:      -6.3      2.474      3.229
REMARK  9 active torsions:
REMARK  status: ('A' for Active; 'I' for Inactive)
REMARK    1  A    between atoms: N_3  and  C_6 
REMARK    2  A    between atoms: C_6  and  C_9 
REMARK    3  A    between atoms: C_14  and  C_17 
REMARK       I    between atoms: N_26  and  C_15 
REMARK    4  A    between atoms: C_15  and  C_16 
REMARK    5  A    between atoms: C_20  and  C_23 
REMARK    6  A    between atoms: OG1_24  and  CB_28 
REMARK    7  A    between atoms: N_26  and  CA_27 
REMARK    8  A    between atoms: CA_27  and  CB_28 
REMARK    9  A    between atoms: CA_27  and  C_30 
ROOT
HETATM    1  O   UNK A   0       2.585  10.722  87.932  1.00  0.00    -0.388 OA
HETATM    2  N   UNK A   0       4.412   9.936  89.968  1.00  0.00     0.096 N 
HETATM    3  C   UNK A   0       3.164   9.199  89.731  1.00  0.00     0.299 C 
HETATM    4  C   UNK A   0       4.245  11.346  89.587  1.00  0.00     0.299 C 
HETATM    5  C   UNK A   0       2.748   9.343  88.269  1.00  0.00     0.198 C 
HETATM    6  C   UNK A   0       3.804  11.439  88.130  1.00  0.00     0.198 C 
ENDROOT
BRANCH   2   7
HETATM    7  C   UNK A   0       4.824   9.821  91.366  1.00  0.00     0.311 C 
BRANCH   7   8
HETATM    8  C   UNK A   0       5.993   8.913  91.541  1.00  0.00    -0.030 A 
HETATM    9  C   UNK A   0       7.289   9.414  91.418  1.00  0.00     0.010 A 
HETATM   10  C   UNK A   0       8.384   8.565  91.579  1.00  0.00     0.021 A 
HETATM   11  C   UNK A   0       8.181   7.215  91.865  1.00  0.00     0.018 A 
HETATM   12  C   UNK A   0       6.887   6.713  91.988  1.00  0.00     0.021 A 
HETATM   13  C   UNK A   0       5.792   7.562  91.826  1.00  0.00     0.010 A 
BRANCH  11  14
HETATM   14  C   UNK A   0       9.304   6.345  92.033  1.00  0.00    -0.061 C 
HETATM   15  C   UNK A   0      10.248   5.613  92.174  1.00  0.00    -0.061 C 
BRANCH  15  16
HETATM   16  C   UNK A   0      11.370   4.743  92.342  1.00  0.00     0.018 A 
HETATM   17  C   UNK A   0      11.683   4.247  93.608  1.00  0.00     0.022 A 
HETATM   18  C   UNK A   0      12.776   3.396  93.772  1.00  0.00     0.018 A 
HETATM   19  C   UNK A   0      13.530   3.060  92.667  1.00  0.00     0.032 A 
HETATM   20  C   UNK A   0      13.242   3.537  91.406  1.00  0.00     0.018 A 
HETATM   21  C   UNK A   0      12.149   4.388  91.241  1.00  0.00     0.022 A 
BRANCH  19  22
HETATM   22  C   UNK A   0      14.695   2.155  92.842  1.00  0.00     0.252 C 
HETATM   23  O   UNK A   0      15.733   2.600  93.326  1.00  0.00    -0.268 OA
ENDBRANCH  19  22
ENDBRANCH  15  16
ENDBRANCH  11  14
ENDBRANCH   7   8
ENDBRANCH   2   7
TORSDOF 9
ENDMDL
