MODEL 1
REMARK VINA RESULT:      -6.9      0.000      0.000
REMARK  11 active torsions:
REMARK  status: ('A' for Active; 'I' for Inactive)
REMARK    1  A    between atoms: O_2  and  C_18 
REMARK    2  A    between atoms: O_5  and  P_8 
REMARK    3  A    between atoms: N_6  and  C_11 
REMARK    4  A    between atoms: N_7  and  C_15 
REMARK       I    between atoms: N_7  and  C_24 
REMARK    5  A    between atoms: P_8  and  C_23 
REMARK    6  A    between atoms: C_11  and  C_14 
REMARK    7  A    between atoms: C_15  and  C_18 
REMARK    8  A    between atoms: C_15  and  C_23 
REMARK    9  A    between atoms: C_21  and  C_26 
REMARK   10  A    between atoms: C_24  and  C_25 
REMARK   11  A    between atoms: C_29  and  C_32 
ROOT
HETATM    1  O   UNL     1      16.222   4.274  94.122  1.00  0.00     0.000 OA
HETATM    2  N   UNL     1      14.486   2.722  92.484  1.00  0.00     0.000 N 
HETATM    3  C   UNL     1      14.404   4.189  92.516  1.00  0.00     0.000 C 
HETATM    4  C   UNL     1      14.983   2.218  93.772  1.00  0.00     0.000 C 
HETATM    5  C   UNL     1      15.770   4.776  92.863  1.00  0.00     0.000 C 
HETATM    6  C   UNL     1      16.333   2.851  94.090  1.00  0.00     0.000 C 
ENDROOT
BRANCH   2   7
HETATM    7  C   UNL     1      13.185   2.138  92.164  1.00  0.00     0.000 C 
BRANCH   7   8
HETATM    8  C   UNL     1      12.152   3.174  91.880  1.00  0.00     0.000 A 
HETATM    9  C   UNL     1      11.361   3.672  92.916  1.00  0.00     0.000 A 
HETATM   10  C   UNL     1      10.393   4.640  92.651  1.00  0.00     0.000 A 
HETATM   11  C   UNL     1      10.216   5.111  91.351  1.00  0.00     0.000 A 
HETATM   12  C   UNL     1      11.005   4.615  90.315  1.00  0.00     0.000 A 
HETATM   13  C   UNL     1      11.974   3.646  90.579  1.00  0.00     0.000 A 
BRANCH  11  14
HETATM   14  C   UNL     1       9.224   6.105  91.079  1.00  0.00     0.000 C 
HETATM   15  C   UNL     1       8.391   6.941  90.851  1.00  0.00     0.000 C 
BRANCH  15  16
HETATM   16  C   UNL     1       7.399   7.935  90.579  1.00  0.00     0.000 A 
HETATM   17  C   UNL     1       6.124   7.816  91.131  1.00  0.00     0.000 A 
HETATM   18  C   UNL     1       5.158   8.787  90.868  1.00  0.00     0.000 A 
HETATM   19  C   UNL     1       5.488   9.854  90.060  1.00  0.00     0.000 A 
HETATM   20  C   UNL     1       6.742   9.995  89.502  1.00  0.00     0.000 A 
HETATM   21  C   UNL     1       7.709   9.024  89.765  1.00  0.00     0.000 A 
BRANCH  19  22
HETATM   22  C   UNL     1       4.458  10.887  89.778  1.00  0.00     0.000 C 
HETATM   23  O   UNL     1       3.387  10.546  89.284  1.00  0.00     0.000 OA
HETATM   24  N   UNL     1       4.790  12.189  90.129  1.00  0.00     0.000 N 
HETATM   25  HN  UNL     1       5.686  12.392  90.557  1.00  0.00     0.000 HD
BRANCH  24  26
HETATM   26  C   UNL     1       3.888  13.296  89.941  1.00  0.00     0.000 C 
BRANCH  26  27
HETATM   27  C   UNL     1       3.292  13.807  91.260  1.00  0.00     0.000 C 
HETATM   28  C   UNL     1       2.184  12.903  91.788  1.00  0.00     0.000 C 
BRANCH  27  29
HETATM   29  O   UNL     1       4.322  13.901  92.244  1.00  0.00     0.000 OA
HETATM   30  H   UNL     1       4.907  14.639  92.003  1.00  0.00     0.000 HD
ENDBRANCH  27  29
ENDBRANCH  26  27
BRANCH  26  31
HETATM   31  C   UNL     1       4.650  14.399  89.214  1.00  0.00     0.000 C 
HETATM   32  O   UNL     1       4.615  15.578  89.560  1.00  0.00     0.000 OA
BRANCH  31  33
HETATM   33  P   UNL     1       5.334  13.924  88.121  1.00  0.00     0.000 P 
HETATM   34  H   UNL     1       5.783  15.010  87.397  1.00  0.00     0.000 HD
BRANCH  33  35
HETATM   35  O   UNL     1       4.601  13.102  87.253  1.00  0.00     0.000 OA
HETATM   36  H   UNL     1       5.163  12.309  87.246  1.00  0.00     0.000 HD
ENDBRANCH  33  35
ENDBRANCH  31  33
ENDBRANCH  26  31
ENDBRANCH  24  26
ENDBRANCH  19  22
ENDBRANCH  15  16
ENDBRANCH  11  14
ENDBRANCH   7   8
ENDBRANCH   2   7
TORSDOF 11
ENDMDL
MODEL 2
REMARK VINA RESULT:      -6.1      2.281      3.080
REMARK  11 active torsions:
REMARK  status: ('A' for Active; 'I' for Inactive)
REMARK    1  A    between atoms: O_2  and  C_18 
REMARK    2  A    between atoms: O_5  and  P_8 
REMARK    3  A    between atoms: N_6  and  C_11 
REMARK    4  A    between atoms: N_7  and  C_15 
REMARK       I    between atoms: N_7  and  C_24 
REMARK    5  A    between atoms: P_8  and  C_23 
REMARK    6  A    between atoms: C_11  and  C_14 
REMARK    7  A    between atoms: C_15  and  C_18 
REMARK    8  A    between atoms: C_15  and  C_23 
REMARK    9  A    between atoms: C_21  and  C_26 
REMARK   10  A    between atoms: C_24  and  C_25 
REMARK   11  A    between atoms: C_29  and  C_32 
ROOT
HETATM    1  O   UNL     1      16.763   3.295  93.881  1.00  0.00     0.000 OA
HETATM    2  N   UNL     1      14.159   3.179  92.740  1.00  0.00     0.000 N 
HETATM    3  C   UNL     1      14.442   4.002  93.924  1.00  0.00     0.000 C 
HETATM    4  C   UNL     1      15.068   2.025  92.699  1.00  0.00     0.000 C 
HETATM    5  C   UNL     1      15.905   4.437  93.912  1.00  0.00     0.000 C 
HETATM    6  C   UNL     1      16.515   2.506  92.717  1.00  0.00     0.000 C 
ENDROOT
BRANCH   2   7
HETATM    7  C   UNL     1      12.764   2.741  92.736  1.00  0.00     0.000 C 
BRANCH   7   8
HETATM    8  C   UNL     1      11.809   3.886  92.767  1.00  0.00     0.000 A 
HETATM    9  C   UNL     1      11.429   4.442  93.989  1.00  0.00     0.000 A 
HETATM   10  C   UNL     1      10.534   5.512  94.019  1.00  0.00     0.000 A 
HETATM   11  C   UNL     1      10.023   6.026  92.828  1.00  0.00     0.000 A 
HETATM   12  C   UNL     1      10.403   5.472  91.608  1.00  0.00     0.000 A 
HETATM   13  C   UNL     1      11.296   4.402  91.577  1.00  0.00     0.000 A 
BRANCH  11  14
HETATM   14  C   UNL     1       9.107   7.125  92.860  1.00  0.00     0.000 C 
HETATM   15  C   UNL     1       8.338   8.049  92.886  1.00  0.00     0.000 C 
BRANCH  15  16
HETATM   16  C   UNL     1       7.422   9.147  92.917  1.00  0.00     0.000 A 
HETATM   17  C   UNL     1       7.270   9.894  94.085  1.00  0.00     0.000 A 
HETATM   18  C   UNL     1       6.379  10.966  94.114  1.00  0.00     0.000 A 
HETATM   19  C   UNL     1       5.661  11.268  92.975  1.00  0.00     0.000 A 
HETATM   20  C   UNL     1       5.794  10.545  91.808  1.00  0.00     0.000 A 
HETATM   21  C   UNL     1       6.684   9.472  91.778  1.00  0.00     0.000 A 
BRANCH  19  22
HETATM   22  C   UNL     1       4.710  12.409  93.007  1.00  0.00     0.000 C 
HETATM   23  O   UNL     1       4.442  12.936  94.084  1.00  0.00     0.000 OA
HETATM   24  N   UNL     1       4.206  12.815  91.779  1.00  0.00     0.000 N 
HETATM   25  HN  UNL     1       4.493  12.348  90.927  1.00  0.00     0.000 HD
BRANCH  24  26
HETATM   26  C   UNL     1       3.294  13.922  91.643  1.00  0.00     0.000 C 
BRANCH  26  27
HETATM   27  C   UNL     1       3.270  14.501  90.223  1.00  0.00     0.000 C 
HETATM   28  C   UNL     1       4.572  15.207  89.859  1.00  0.00     0.000 C 
BRANCH  27  29
HETATM   29  O   UNL     1       3.034  13.453  89.284  1.00  0.00     0.000 OA
HETATM   30  H   UNL     1       3.481  13.682  88.452  1.00  0.00     0.000 HD
ENDBRANCH  27  29
ENDBRANCH  26  27
BRANCH  26  31
HETATM   31  C   UNL     1       1.911  13.440  92.069  1.00  0.00     0.000 C 
HETATM   32  O   UNL     1       1.437  12.363  91.711  1.00  0.00     0.000 OA
BRANCH  31  33
HETATM   33  P   UNL     1       1.259  14.361  92.853  1.00  0.00     0.000 P 
HETATM   34  H   UNL     1       0.741  15.333  92.022  1.00  0.00     0.000 HD
BRANCH  33  35
HETATM   35  O   UNL     1       2.043  14.999  93.825  1.00  0.00     0.000 OA
HETATM   36  H   UNL     1       2.450  15.700  93.287  1.00  0.00     0.000 HD
ENDBRANCH  33  35
ENDBRANCH  31  33
ENDBRANCH  26  31
ENDBRANCH  24  26
ENDBRANCH  19  22
ENDBRANCH  15  16
ENDBRANCH  11  14
ENDBRANCH   7   8
ENDBRANCH   2   7
TORSDOF 11
ENDMDL
MODEL 3
REMARK VINA RESULT:      -5.9      1.404      1.801
REMARK  11 active torsions:
REMARK  status: ('A' for Active; 'I' for Inactive)
REMARK    1  A    between atoms: O_2  and  C_18 
REMARK    2  A    between atoms: O_5  and  P_8 
REMARK    3  A    between atoms: N_6  and  C_11 
REMARK    4  A    between atoms: N_7  and  C_15 
REMARK       I    between atoms: N_7  and  C_24 
REMARK    5  A    between atoms: P_8  and  C_23 
REMARK    6  A    between atoms: C_11  and  C_14 
REMARK    7  A    between atoms: C_15  and  C_18 
REMARK    8  A    between atoms: C_15  and  C_23 
REMARK    9  A    between atoms: C_21  and  C_26 
REMARK   10  A    between atoms: C_24  and  C_25 
REMARK   11  A    between atoms: C_29  and  C_32 
ROOT
HETATM    1  O   UNL     1      15.847   4.452  93.876  1.00  0.00     0.000 OA
HETATM    2  N   UNL     1      14.139   2.777  92.332  1.00  0.00     0.000 N 
HETATM    3  C   UNL     1      14.226   4.223  92.084  1.00  0.00     0.000 C 
HETATM    4  C   UNL     1      14.424   2.492  93.745  1.00  0.00     0.000 C 
HETATM    5  C   UNL     1      15.603   4.737  92.497  1.00  0.00     0.000 C 
HETATM    6  C   UNL     1      15.795   3.046  94.120  1.00  0.00     0.000 C 
ENDROOT
BRANCH   2   7
HETATM    7  C   UNL     1      12.823   2.265  91.953  1.00  0.00     0.000 C 
BRANCH   7   8
HETATM    8  C   UNL     1      11.788   3.337  91.910  1.00  0.00     0.000 A 
HETATM    9  C   UNL     1      11.178   3.667  90.699  1.00  0.00     0.000 A 
HETATM   10  C   UNL     1      10.210   4.671  90.657  1.00  0.00     0.000 A 
HETATM   11  C   UNL     1       9.852   5.342  91.825  1.00  0.00     0.000 A 
HETATM   12  C   UNL     1      10.459   5.012  93.035  1.00  0.00     0.000 A 
HETATM   13  C   UNL     1      11.428   4.009  93.078  1.00  0.00     0.000 A 
BRANCH  11  14
HETATM   14  C   UNL     1       8.857   6.370  91.782  1.00  0.00     0.000 C 
HETATM   15  C   UNL     1       8.022   7.234  91.745  1.00  0.00     0.000 C 
BRANCH  15  16
HETATM   16  C   UNL     1       7.028   8.260  91.701  1.00  0.00     0.000 A 
HETATM   17  C   UNL     1       5.742   7.966  91.247  1.00  0.00     0.000 A 
HETATM   18  C   UNL     1       4.772   8.967  91.207  1.00  0.00     0.000 A 
HETATM   19  C   UNL     1       5.109  10.239  91.622  1.00  0.00     0.000 A 
HETATM   20  C   UNL     1       6.372  10.555  92.075  1.00  0.00     0.000 A 
HETATM   21  C   UNL     1       7.344   9.555  92.115  1.00  0.00     0.000 A 
BRANCH  19  22
HETATM   22  C   UNL     1       4.075  11.306  91.578  1.00  0.00     0.000 C 
HETATM   23  O   UNL     1       2.915  11.006  91.307  1.00  0.00     0.000 OA
HETATM   24  N   UNL     1       4.512  12.588  91.878  1.00  0.00     0.000 N 
HETATM   25  HN  UNL     1       5.482  12.757  92.117  1.00  0.00     0.000 HD
BRANCH  24  26
HETATM   26  C   UNL     1       3.626  13.724  91.900  1.00  0.00     0.000 C 
BRANCH  26  27
HETATM   27  C   UNL     1       3.951  14.708  93.031  1.00  0.00     0.000 C 
HETATM   28  C   UNL     1       2.707  15.399  93.579  1.00  0.00     0.000 C 
BRANCH  27  29
HETATM   29  O   UNL     1       4.602  14.015  94.094  1.00  0.00     0.000 OA
HETATM   30  H   UNL     1       5.267  14.608  94.483  1.00  0.00     0.000 HD
ENDBRANCH  27  29
ENDBRANCH  26  27
BRANCH  26  31
HETATM   31  C   UNL     1       3.702  14.402  90.536  1.00  0.00     0.000 C 
HETATM   32  O   UNL     1       2.961  14.109  89.600  1.00  0.00     0.000 OA
BRANCH  31  33
HETATM   33  P   UNL     1       4.710  15.334  90.475  1.00  0.00     0.000 P 
HETATM   34  H   UNL     1       4.173  16.560  90.810  1.00  0.00     0.000 HD
BRANCH  33  35
HETATM   35  O   UNL     1       5.343  15.467  89.231  1.00  0.00     0.000 OA
HETATM   36  H   UNL     1       5.227  16.420  89.078  1.00  0.00     0.000 HD
ENDBRANCH  33  35
ENDBRANCH  31  33
ENDBRANCH  26  31
ENDBRANCH  24  26
ENDBRANCH  19  22
ENDBRANCH  15  16
ENDBRANCH  11  14
ENDBRANCH   7   8
ENDBRANCH   2   7
TORSDOF 11
ENDMDL
MODEL 4
REMARK VINA RESULT:      -4.4      3.804     12.742
REMARK  11 active torsions:
REMARK  status: ('A' for Active; 'I' for Inactive)
REMARK    1  A    between atoms: O_2  and  C_18 
REMARK    2  A    between atoms: O_5  and  P_8 
REMARK    3  A    between atoms: N_6  and  C_11 
REMARK    4  A    between atoms: N_7  and  C_15 
REMARK       I    between atoms: N_7  and  C_24 
REMARK    5  A    between atoms: P_8  and  C_23 
REMARK    6  A    between atoms: C_11  and  C_14 
REMARK    7  A    between atoms: C_15  and  C_18 
REMARK    8  A    between atoms: C_15  and  C_23 
REMARK    9  A    between atoms: C_21  and  C_26 
REMARK   10  A    between atoms: C_24  and  C_25 
REMARK   11  A    between atoms: C_29  and  C_32 
ROOT
HETATM    1  O   UNL     1       1.792  15.403  93.247  1.00  0.00     0.000 OA
HETATM    2  N   UNL     1       3.335  13.518  91.774  1.00  0.00     0.000 N 
HETATM    3  C   UNL     1       3.922  14.770  92.271  1.00  0.00     0.000 C 
HETATM    4  C   UNL     1       1.899  13.701  91.521  1.00  0.00     0.000 C 
HETATM    5  C   UNL     1       3.182  15.225  93.526  1.00  0.00     0.000 C 
HETATM    6  C   UNL     1       1.207  14.182  92.792  1.00  0.00     0.000 C 
ENDROOT
BRANCH   2   7
HETATM    7  C   UNL     1       4.022  13.068  90.564  1.00  0.00     0.000 C 
BRANCH   7   8
HETATM    8  C   UNL     1       4.962  11.942  90.831  1.00  0.00     0.000 A 
HETATM    9  C   UNL     1       4.874  11.230  92.028  1.00  0.00     0.000 A 
HETATM   10  C   UNL     1       5.754  10.177  92.279  1.00  0.00     0.000 A 
HETATM   11  C   UNL     1       6.720   9.836  91.332  1.00  0.00     0.000 A 
HETATM   12  C   UNL     1       6.808  10.546  90.137  1.00  0.00     0.000 A 
HETATM   13  C   UNL     1       5.929  11.600  89.885  1.00  0.00     0.000 A 
BRANCH  11  14
HETATM   14  C   UNL     1       7.621   8.755  91.589  1.00  0.00     0.000 C 
HETATM   15  C   UNL     1       8.378   7.846  91.806  1.00  0.00     0.000 C 
BRANCH  15  16
HETATM   16  C   UNL     1       9.278   6.766  92.062  1.00  0.00     0.000 A 
HETATM   17  C   UNL     1       9.431   5.748  91.120  1.00  0.00     0.000 A 
HETATM   18  C   UNL     1      10.311   4.695  91.369  1.00  0.00     0.000 A 
HETATM   19  C   UNL     1      11.019   4.683  92.553  1.00  0.00     0.000 A 
HETATM   20  C   UNL     1      10.885   5.677  93.500  1.00  0.00     0.000 A 
HETATM   21  C   UNL     1      10.005   6.730  93.252  1.00  0.00     0.000 A 
BRANCH  19  22
HETATM   22  C   UNL     1      11.955   3.560  92.819  1.00  0.00     0.000 C 
HETATM   23  O   UNL     1      11.657   2.430  92.441  1.00  0.00     0.000 OA
HETATM   24  N   UNL     1      13.134   3.893  93.470  1.00  0.00     0.000 N 
HETATM   25  HN  UNL     1      13.323   4.854  93.730  1.00  0.00     0.000 HD
BRANCH  24  26
HETATM   26  C   UNL     1      14.152   2.921  93.777  1.00  0.00     0.000 C 
BRANCH  26  27
HETATM   27  C   UNL     1      14.307   1.858  92.682  1.00  0.00     0.000 C 
HETATM   28  C   UNL     1      15.022   2.393  91.446  1.00  0.00     0.000 C 
BRANCH  27  29
HETATM   29  O   UNL     1      15.039   0.746  93.195  1.00  0.00     0.000 OA
HETATM   30  H   UNL     1      15.975   0.861  92.957  1.00  0.00     0.000 HD
ENDBRANCH  27  29
ENDBRANCH  26  27
BRANCH  26  31
HETATM   31  C   UNL     1      15.459   3.671  94.010  1.00  0.00     0.000 C 
HETATM   32  O   UNL     1      15.527   4.898  94.058  1.00  0.00     0.000 OA
BRANCH  31  33
HETATM   33  P   UNL     1      16.533   2.822  94.118  1.00  0.00     0.000 P 
HETATM   34  H   UNL     1      16.708   2.529  95.456  1.00  0.00     0.000 HD
BRANCH  33  35
HETATM   35  O   UNL     1      17.750   3.311  93.623  1.00  0.00     0.000 OA
HETATM   36  H   UNL     1      17.428   4.004  93.021  1.00  0.00     0.000 HD
ENDBRANCH  33  35
ENDBRANCH  31  33
ENDBRANCH  26  31
ENDBRANCH  24  26
ENDBRANCH  19  22
ENDBRANCH  15  16
ENDBRANCH  11  14
ENDBRANCH   7   8
ENDBRANCH   2   7
TORSDOF 11
ENDMDL
MODEL 5
REMARK VINA RESULT:      -4.2      3.285     12.579
REMARK  11 active torsions:
REMARK  status: ('A' for Active; 'I' for Inactive)
REMARK    1  A    between atoms: O_2  and  C_18 
REMARK    2  A    between atoms: O_5  and  P_8 
REMARK    3  A    between atoms: N_6  and  C_11 
REMARK    4  A    between atoms: N_7  and  C_15 
REMARK       I    between atoms: N_7  and  C_24 
REMARK    5  A    between atoms: P_8  and  C_23 
REMARK    6  A    between atoms: C_11  and  C_14 
REMARK    7  A    between atoms: C_15  and  C_18 
REMARK    8  A    between atoms: C_15  and  C_23 
REMARK    9  A    between atoms: C_21  and  C_26 
REMARK   10  A    between atoms: C_24  and  C_25 
REMARK   11  A    between atoms: C_29  and  C_32 
ROOT
HETATM    1  O   UNL     1       1.511  12.878  91.879  1.00  0.00     0.000 OA
HETATM    2  N   UNL     1       3.662  12.076  90.197  1.00  0.00     0.000 N 
HETATM    3  C   UNL     1       2.732  13.142  89.798  1.00  0.00     0.000 C 
HETATM    4  C   UNL     1       2.984  11.122  91.085  1.00  0.00     0.000 C 
HETATM    5  C   UNL     1       2.170  13.829  91.041  1.00  0.00     0.000 C 
HETATM    6  C   UNL     1       2.416  11.855  92.296  1.00  0.00     0.000 C 
ENDROOT
BRANCH   2   7
HETATM    7  C   UNL     1       4.204  11.397  89.021  1.00  0.00     0.000 C 
BRANCH   7   8
HETATM    8  C   UNL     1       5.242  10.387  89.377  1.00  0.00     0.000 A 
HETATM    9  C   UNL     1       6.415  10.790  90.017  1.00  0.00     0.000 A 
HETATM   10  C   UNL     1       7.387   9.847  90.349  1.00  0.00     0.000 A 
HETATM   11  C   UNL     1       7.185   8.501  90.042  1.00  0.00     0.000 A 
HETATM   12  C   UNL     1       6.015   8.098  89.403  1.00  0.00     0.000 A 
HETATM   13  C   UNL     1       5.042   9.041  89.071  1.00  0.00     0.000 A 
BRANCH  11  14
HETATM   14  C   UNL     1       8.182   7.533  90.384  1.00  0.00     0.000 C 
HETATM   15  C   UNL     1       9.020   6.720  90.673  1.00  0.00     0.000 C 
BRANCH  15  16
HETATM   16  C   UNL     1      10.015   5.753  91.015  1.00  0.00     0.000 A 
HETATM   17  C   UNL     1      10.733   5.106  90.009  1.00  0.00     0.000 A 
HETATM   18  C   UNL     1      11.706   4.165  90.343  1.00  0.00     0.000 A 
HETATM   19  C   UNL     1      11.940   3.891  91.675  1.00  0.00     0.000 A 
HETATM   20  C   UNL     1      11.243   4.517  92.688  1.00  0.00     0.000 A 
HETATM   21  C   UNL     1      10.270   5.458  92.355  1.00  0.00     0.000 A 
BRANCH  19  22
HETATM   22  C   UNL     1      12.975   2.887  92.031  1.00  0.00     0.000 C 
HETATM   23  O   UNL     1      12.712   1.691  91.925  1.00  0.00     0.000 OA
HETATM   24  N   UNL     1      14.199   3.395  92.442  1.00  0.00     0.000 N 
HETATM   25  HN  UNL     1      14.352   4.395  92.481  1.00  0.00     0.000 HD
BRANCH  24  26
HETATM   26  C   UNL     1      15.310   2.548  92.797  1.00  0.00     0.000 C 
BRANCH  26  27
HETATM   27  C   UNL     1      16.073   2.026  91.574  1.00  0.00     0.000 C 
HETATM   28  C   UNL     1      15.798   2.848  90.319  1.00  0.00     0.000 C 
BRANCH  27  29
HETATM   29  O   UNL     1      17.475   2.044  91.842  1.00  0.00     0.000 OA
HETATM   30  H   UNL     1      17.674   2.835  92.372  1.00  0.00     0.000 HD
ENDBRANCH  27  29
ENDBRANCH  26  27
BRANCH  26  31
HETATM   31  C   UNL     1      16.225   3.344  93.723  1.00  0.00     0.000 C 
HETATM   32  O   UNL     1      17.306   2.918  94.124  1.00  0.00     0.000 OA
BRANCH  31  33
HETATM   33  P   UNL     1      15.680   4.555  94.076  1.00  0.00     0.000 P 
HETATM   34  H   UNL     1      14.492   4.701  93.388  1.00  0.00     0.000 HD
BRANCH  33  35
HETATM   35  O   UNL     1      16.472   5.681  93.810  1.00  0.00     0.000 OA
HETATM   36  H   UNL     1      16.794   5.883  94.705  1.00  0.00     0.000 HD
ENDBRANCH  33  35
ENDBRANCH  31  33
ENDBRANCH  26  31
ENDBRANCH  24  26
ENDBRANCH  19  22
ENDBRANCH  15  16
ENDBRANCH  11  14
ENDBRANCH   7   8
ENDBRANCH   2   7
TORSDOF 11
ENDMDL
MODEL 6
REMARK VINA RESULT:      -4.1      3.612     12.392
REMARK  11 active torsions:
REMARK  status: ('A' for Active; 'I' for Inactive)
REMARK    1  A    between atoms: O_2  and  C_18 
REMARK    2  A    between atoms: O_5  and  P_8 
REMARK    3  A    between atoms: N_6  and  C_11 
REMARK    4  A    between atoms: N_7  and  C_15 
REMARK       I    between atoms: N_7  and  C_24 
REMARK    5  A    between atoms: P_8  and  C_23 
REMARK    6  A    between atoms: C_11  and  C_14 
REMARK    7  A    between atoms: C_15  and  C_18 
REMARK    8  A    between atoms: C_15  and  C_23 
REMARK    9  A    between atoms: C_21  and  C_26 
REMARK   10  A    between atoms: C_24  and  C_25 
REMARK   11  A    between atoms: C_29  and  C_32 
ROOT
HETATM    1  O   UNL     1       4.019  14.912  90.242  1.00  0.00     0.000 OA
HETATM    2  N   UNL     1       2.902  13.875  92.645  1.00  0.00     0.000 N 
HETATM    3  C   UNL     1       4.164  14.628  92.647  1.00  0.00     0.000 C 
HETATM    4  C   UNL     1       2.728  13.188  91.358  1.00  0.00     0.000 C 
HETATM    5  C   UNL     1       4.182  15.609  91.478  1.00  0.00     0.000 C 
HETATM    6  C   UNL     1       2.781  14.202  90.219  1.00  0.00     0.000 C 
ENDROOT
BRANCH   2   7
HETATM    7  C   UNL     1       2.867  12.920  93.752  1.00  0.00     0.000 C 
BRANCH   7   8
HETATM    8  C   UNL     1       3.894  11.848  93.610  1.00  0.00     0.000 A 
HETATM    9  C   UNL     1       5.192  12.061  94.074  1.00  0.00     0.000 A 
HETATM   10  C   UNL     1       6.154  11.060  93.940  1.00  0.00     0.000 A 
HETATM   11  C   UNL     1       5.816   9.846  93.343  1.00  0.00     0.000 A 
HETATM   12  C   UNL     1       4.519   9.632  92.880  1.00  0.00     0.000 A 
HETATM   13  C   UNL     1       3.558  10.633  93.013  1.00  0.00     0.000 A 
BRANCH  11  14
HETATM   14  C   UNL     1       6.802   8.818  93.208  1.00  0.00     0.000 C 
HETATM   15  C   UNL     1       7.630   7.953  93.094  1.00  0.00     0.000 C 
BRANCH  15  16
HETATM   16  C   UNL     1       8.614   6.925  92.958  1.00  0.00     0.000 A 
HETATM   17  C   UNL     1       9.576   6.747  93.952  1.00  0.00     0.000 A 
HETATM   18  C   UNL     1      10.535   5.742  93.820  1.00  0.00     0.000 A 
HETATM   19  C   UNL     1      10.510   4.939  92.699  1.00  0.00     0.000 A 
HETATM   20  C   UNL     1       9.570   5.096  91.703  1.00  0.00     0.000 A 
HETATM   21  C   UNL     1       8.610   6.100  91.833  1.00  0.00     0.000 A 
BRANCH  19  22
HETATM   22  C   UNL     1      11.533   3.871  92.559  1.00  0.00     0.000 C 
HETATM   23  O   UNL     1      11.191   2.696  92.667  1.00  0.00     0.000 OA
HETATM   24  N   UNL     1      12.824   4.298  92.284  1.00  0.00     0.000 N 
HETATM   25  HN  UNL     1      13.027   5.286  92.183  1.00  0.00     0.000 HD
BRANCH  24  26
HETATM   26  C   UNL     1      13.921   3.382  92.096  1.00  0.00     0.000 C 
BRANCH  26  27
HETATM   27  C   UNL     1      14.967   3.904  91.103  1.00  0.00     0.000 C 
HETATM   28  C   UNL     1      15.206   2.941  89.946  1.00  0.00     0.000 C 
BRANCH  27  29
HETATM   29  O   UNL     1      14.542   5.162  90.579  1.00  0.00     0.000 OA
HETATM   30  H   UNL     1      14.572   5.113  89.609  1.00  0.00     0.000 HD
ENDBRANCH  27  29
ENDBRANCH  26  27
BRANCH  26  31
HETATM   31  C   UNL     1      14.540   3.110  93.463  1.00  0.00     0.000 C 
HETATM   32  O   UNL     1      14.294   2.101  94.121  1.00  0.00     0.000 OA
BRANCH  31  33
HETATM   33  P   UNL     1      15.361   4.133  93.873  1.00  0.00     0.000 P 
HETATM   34  H   UNL     1      15.176   5.195  93.012  1.00  0.00     0.000 HD
BRANCH  33  35
HETATM   35  O   UNL     1      16.731   3.839  93.906  1.00  0.00     0.000 OA
HETATM   36  H   UNL     1      16.861   3.717  94.862  1.00  0.00     0.000 HD
ENDBRANCH  33  35
ENDBRANCH  31  33
ENDBRANCH  26  31
ENDBRANCH  24  26
ENDBRANCH  19  22
ENDBRANCH  15  16
ENDBRANCH  11  14
ENDBRANCH   7   8
ENDBRANCH   2   7
TORSDOF 11
ENDMDL
MODEL 7
REMARK VINA RESULT:      -4.0      3.530     12.330
REMARK  11 active torsions:
REMARK  status: ('A' for Active; 'I' for Inactive)
REMARK    1  A    between atoms: O_2  and  C_18 
REMARK    2  A    between atoms: O_5  and  P_8 
REMARK    3  A    between atoms: N_6  and  C_11 
REMARK    4  A    between atoms: N_7  and  C_15 
REMARK       I    between atoms: N_7  and  C_24 
REMARK    5  A    between atoms: P_8  and  C_23 
REMARK    6  A    between atoms: C_11  and  C_14 
REMARK    7  A    between atoms: C_15  and  C_18 
REMARK    8  A    between atoms: C_15  and  C_23 
REMARK    9  A    between atoms: C_21  and  C_26 
REMARK   10  A    between atoms: C_24  and  C_25 
REMARK   11  A    between atoms: C_29  and  C_32 
ROOT
HETATM    1  O   UNL     1       2.467  14.521  94.124  1.00  0.00     0.000 OA
HETATM    2  N   UNL     1       2.315  13.091  91.668  1.00  0.00     0.000 N 
HETATM    3  C   UNL     1       3.358  12.802  92.661  1.00  0.00     0.000 C 
HETATM    4  C   UNL     1       1.903  14.498  91.765  1.00  0.00     0.000 C 
HETATM    5  C   UNL     1       2.851  13.146  94.059  1.00  0.00     0.000 C 
HETATM    6  C   UNL     1       1.431  14.803  93.182  1.00  0.00     0.000 C 
ENDROOT
BRANCH   2   7
HETATM    7  C   UNL     1       2.784  12.778  90.319  1.00  0.00     0.000 C 
BRANCH   7   8
HETATM    8  C   UNL     1       3.889  11.777  90.320  1.00  0.00     0.000 A 
HETATM    9  C   UNL     1       3.654  10.480  90.775  1.00  0.00     0.000 A 
HETATM   10  C   UNL     1       4.688   9.543  90.778  1.00  0.00     0.000 A 
HETATM   11  C   UNL     1       5.956   9.905  90.324  1.00  0.00     0.000 A 
HETATM   12  C   UNL     1       6.192  11.201  89.869  1.00  0.00     0.000 A 
HETATM   13  C   UNL     1       5.158  12.137  89.867  1.00  0.00     0.000 A 
BRANCH  11  14
HETATM   14  C   UNL     1       7.016   8.944  90.326  1.00  0.00     0.000 C 
HETATM   15  C   UNL     1       7.906   8.136  90.327  1.00  0.00     0.000 C 
BRANCH  15  16
HETATM   16  C   UNL     1       8.965   7.175  90.328  1.00  0.00     0.000 A 
HETATM   17  C   UNL     1       9.579   6.814  89.129  1.00  0.00     0.000 A 
HETATM   18  C   UNL     1      10.613   5.879  89.130  1.00  0.00     0.000 A 
HETATM   19  C   UNL     1      11.011   5.326  90.330  1.00  0.00     0.000 A 
HETATM   20  C   UNL     1      10.420   5.666  91.529  1.00  0.00     0.000 A 
HETATM   21  C   UNL     1       9.385   6.602  91.528  1.00  0.00     0.000 A 
BRANCH  19  22
HETATM   22  C   UNL     1      12.112   4.328  90.331  1.00  0.00     0.000 C 
HETATM   23  O   UNL     1      12.370   3.720  89.295  1.00  0.00     0.000 OA
HETATM   24  N   UNL     1      12.795   4.178  91.529  1.00  0.00     0.000 N 
HETATM   25  HN  UNL     1      12.541   4.734  92.338  1.00  0.00     0.000 HD
BRANCH  24  26
HETATM   26  C   UNL     1      13.902   3.268  91.682  1.00  0.00     0.000 C 
BRANCH  26  27
HETATM   27  C   UNL     1      15.087   3.895  92.426  1.00  0.00     0.000 C 
HETATM   28  C   UNL     1      14.698   4.430  93.799  1.00  0.00     0.000 C 
BRANCH  27  29
HETATM   29  O   UNL     1      16.121   2.923  92.583  1.00  0.00     0.000 OA
HETATM   30  H   UNL     1      15.915   2.164  92.011  1.00  0.00     0.000 HD
ENDBRANCH  27  29
ENDBRANCH  26  27
BRANCH  26  31
HETATM   31  C   UNL     1      13.388   2.027  92.405  1.00  0.00     0.000 C 
HETATM   32  O   UNL     1      14.108   1.071  92.689  1.00  0.00     0.000 OA
BRANCH  31  33
HETATM   33  P   UNL     1      12.039   2.094  92.657  1.00  0.00     0.000 P 
HETATM   34  H   UNL     1      11.416   2.538  91.508  1.00  0.00     0.000 HD
BRANCH  33  35
HETATM   35  O   UNL     1      11.656   2.938  93.708  1.00  0.00     0.000 OA
HETATM   36  H   UNL     1      12.525   3.140  94.096  1.00  0.00     0.000 HD
ENDBRANCH  33  35
ENDBRANCH  31  33
ENDBRANCH  26  31
ENDBRANCH  24  26
ENDBRANCH  19  22
ENDBRANCH  15  16
ENDBRANCH  11  14
ENDBRANCH   7   8
ENDBRANCH   2   7
TORSDOF 11
ENDMDL
