MODEL 1
REMARK VINA RESULT:      -6.2      0.000      0.000
REMARK  12 active torsions:
REMARK  status: ('A' for Active; 'I' for Inactive)
REMARK    1  A    between atoms: O_2  and  C_16 
REMARK    2  A    between atoms: N_5  and  C_9 
REMARK    3  A    between atoms: N_6  and  C_13 
REMARK       I    between atoms: N_6  and  C_22 
REMARK    4  A    between atoms: C_9  and  C_12 
REMARK    5  A    between atoms: C_13  and  C_16 
REMARK    6  A    between atoms: C_13  and  C_21 
REMARK    7  A    between atoms: C_19  and  C_24 
REMARK    8  A    between atoms: C_21  and  C_33 
REMARK    9  A    between atoms: C_22  and  C_23 
REMARK   10  A    between atoms: C_27  and  C_30 
REMARK   11  A    between atoms: C_33  and  C_34 
REMARK   12  A    between atoms: C_34  and  C_35 
ROOT
HETATM    1  O   UNL     1      16.826   3.726  93.827  1.00  0.00    -0.350 OA
HETATM    2  N   UNL     1      14.254   3.113  92.772  1.00  0.00     0.147 N 
HETATM    3  C   UNL     1      15.265   2.069  92.987  1.00  0.00     0.283 C 
HETATM    4  C   UNL     1      14.910   4.400  92.500  1.00  0.00     0.283 C 
HETATM    5  C   UNL     1      16.198   2.478  94.124  1.00  0.00     0.178 C 
HETATM    6  C   UNL     1      15.851   4.754  93.647  1.00  0.00     0.178 C 
ENDROOT
BRANCH   2   7
HETATM    7  C   UNL     1      13.356   2.747  91.678  1.00  0.00     0.277 C 
BRANCH   7   8
HETATM    8  C   UNL     1      12.166   3.642  91.597  1.00  0.00     0.011 A 
HETATM    9  C   UNL     1      11.748   4.134  90.360  1.00  0.00    -0.002 A 
HETATM   10  C   UNL     1      10.637   4.973  90.283  1.00  0.00     0.008 A 
HETATM   11  C   UNL     1       9.942   5.317  91.442  1.00  0.00     0.042 A 
HETATM   12  C   UNL     1      10.358   4.825  92.678  1.00  0.00     0.008 A 
HETATM   13  C   UNL     1      11.470   3.987  92.755  1.00  0.00    -0.002 A 
BRANCH  11  14
HETATM   14  C   UNL     1       8.801   6.176  91.362  1.00  0.00    -0.059 C 
HETATM   15  C   UNL     1       7.842   6.898  91.295  1.00  0.00    -0.059 C 
BRANCH  15  16
HETATM   16  C   UNL     1       6.701   7.756  91.215  1.00  0.00     0.042 A 
HETATM   17  C   UNL     1       6.370   8.577  92.293  1.00  0.00     0.008 A 
HETATM   18  C   UNL     1       5.258   9.416  92.213  1.00  0.00     0.005 A 
HETATM   19  C   UNL     1       4.505   9.417  91.058  1.00  0.00     0.056 A 
HETATM   20  C   UNL     1       4.812   8.615  89.979  1.00  0.00     0.005 A 
HETATM   21  C   UNL     1       5.923   7.775  90.057  1.00  0.00     0.008 A 
BRANCH  19  22
HETATM   22  C   UNL     1       3.320  10.309  90.974  1.00  0.00     0.254 C 
HETATM   23  O   UNL     1       2.254   9.855  90.565  1.00  0.00    -0.268 OA
HETATM   24  N   UNL     1       3.512  11.617  91.400  1.00  0.00    -0.335 N 
HETATM   25  HN  UNL     1       4.416  11.914  91.749  1.00  0.00     0.164 HD
BRANCH  24  26
HETATM   26  C   UNL     1       2.454  12.595  91.402  1.00  0.00     0.166 C 
BRANCH  26  27
HETATM   27  C   UNL     1       2.195  13.185  92.794  1.00  0.00     0.138 C 
HETATM   28  C   UNL     1       3.479  13.383  93.593  1.00  0.00     0.034 C 
BRANCH  27  29
HETATM   29  O   UNL     1       1.532  14.442  92.663  1.00  0.00    -0.383 OA
HETATM   30  H   UNL     1       1.519  14.872  93.535  1.00  0.00     0.210 HD
ENDBRANCH  27  29
ENDBRANCH  26  27
BRANCH  26  31
HETATM   31  C   UNL     1       2.823  13.682  90.399  1.00  0.00     0.181 C 
HETATM   32  O   UNL     1       2.072  14.613  90.114  1.00  0.00    -0.294 OA
BRANCH  31  33
HETATM   33  C   UNL     1       4.262  14.349  90.734  1.00  0.00     0.138 C 
BRANCH  33  34
HETATM   34  C   UNL     1       4.827  14.444  89.443  1.00  0.00     0.208 C 
HETATM   35  O   UNL     1       4.998  15.564  89.018  1.00  0.00    -0.289 OA
BRANCH  34  36
HETATM   36  C   UNL     1       5.484  13.510  88.690  1.00  0.00     0.194 C 
HETATM   37  O   UNL     1       5.544  12.118  88.827  1.00  0.00    -0.185 OA
ENDBRANCH  34  36
ENDBRANCH  33  34
ENDBRANCH  31  33
ENDBRANCH  26  31
ENDBRANCH  24  26
ENDBRANCH  19  22
ENDBRANCH  15  16
ENDBRANCH  11  14
ENDBRANCH   7   8
ENDBRANCH   2   7
TORSDOF 12
ENDMDL
MODEL 2
REMARK VINA RESULT:      -5.5      1.255      1.784
REMARK  12 active torsions:
REMARK  status: ('A' for Active; 'I' for Inactive)
REMARK    1  A    between atoms: O_2  and  C_16 
REMARK    2  A    between atoms: N_5  and  C_9 
REMARK    3  A    between atoms: N_6  and  C_13 
REMARK       I    between atoms: N_6  and  C_22 
REMARK    4  A    between atoms: C_9  and  C_12 
REMARK    5  A    between atoms: C_13  and  C_16 
REMARK    6  A    between atoms: C_13  and  C_21 
REMARK    7  A    between atoms: C_19  and  C_24 
REMARK    8  A    between atoms: C_21  and  C_33 
REMARK    9  A    between atoms: C_22  and  C_23 
REMARK   10  A    between atoms: C_27  and  C_30 
REMARK   11  A    between atoms: C_33  and  C_34 
REMARK   12  A    between atoms: C_34  and  C_35 
ROOT
HETATM    1  O   UNL     1      16.676   3.061  93.487  1.00  0.00    -0.350 OA
HETATM    2  N   UNL     1      13.883   2.791  93.010  1.00  0.00     0.147 N 
HETATM    3  C   UNL     1      14.736   1.621  93.258  1.00  0.00     0.283 C 
HETATM    4  C   UNL     1      14.669   3.864  92.386  1.00  0.00     0.283 C 
HETATM    5  C   UNL     1      15.928   2.024  94.123  1.00  0.00     0.178 C 
HETATM    6  C   UNL     1      15.861   4.214  93.270  1.00  0.00     0.178 C 
ENDROOT
BRANCH   2   7
HETATM    7  C   UNL     1      12.740   2.430  92.174  1.00  0.00     0.277 C 
BRANCH   7   8
HETATM    8  C   UNL     1      11.661   3.458  92.211  1.00  0.00     0.011 A 
HETATM    9  C   UNL     1      11.559   4.321  93.303  1.00  0.00    -0.002 A 
HETATM   10  C   UNL     1      10.548   5.281  93.341  1.00  0.00     0.008 A 
HETATM   11  C   UNL     1       9.642   5.381  92.285  1.00  0.00     0.042 A 
HETATM   12  C   UNL     1       9.744   4.520  91.194  1.00  0.00     0.008 A 
HETATM   13  C   UNL     1      10.753   3.558  91.157  1.00  0.00    -0.002 A 
BRANCH  11  14
HETATM   14  C   UNL     1       8.607   6.368  92.323  1.00  0.00    -0.059 C 
HETATM   15  C   UNL     1       7.738   7.198  92.355  1.00  0.00    -0.059 C 
BRANCH  15  16
HETATM   16  C   UNL     1       6.705   8.185  92.392  1.00  0.00     0.042 A 
HETATM   17  C   UNL     1       6.022   8.523  91.223  1.00  0.00     0.008 A 
HETATM   18  C   UNL     1       5.012   9.484  91.260  1.00  0.00     0.005 A 
HETATM   19  C   UNL     1       4.707  10.084  92.463  1.00  0.00     0.056 A 
HETATM   20  C   UNL     1       5.366   9.768  93.632  1.00  0.00     0.005 A 
HETATM   21  C   UNL     1       6.377   8.807  93.596  1.00  0.00     0.008 A 
BRANCH  19  22
HETATM   22  C   UNL     1       3.632  11.110  92.502  1.00  0.00     0.254 C 
HETATM   23  O   UNL     1       2.690  10.963  93.277  1.00  0.00    -0.268 OA
HETATM   24  N   UNL     1       3.795  12.194  91.651  1.00  0.00    -0.335 N 
HETATM   25  HN  UNL     1       4.613  12.261  91.056  1.00  0.00     0.164 HD
BRANCH  24  26
HETATM   26  C   UNL     1       2.852  13.281  91.590  1.00  0.00     0.166 C 
BRANCH  26  27
HETATM   27  C   UNL     1       3.238  14.454  92.501  1.00  0.00     0.138 C 
HETATM   28  C   UNL     1       2.224  14.685  93.616  1.00  0.00     0.034 C 
BRANCH  27  29
HETATM   29  O   UNL     1       4.517  14.205  93.083  1.00  0.00    -0.383 OA
HETATM   30  H   UNL     1       4.637  13.243  93.156  1.00  0.00     0.210 HD
ENDBRANCH  27  29
ENDBRANCH  26  27
BRANCH  26  31
HETATM   31  C   UNL     1       2.743  13.723  90.135  1.00  0.00     0.181 C 
HETATM   32  O   UNL     1       1.836  14.443  89.719  1.00  0.00    -0.294 OA
BRANCH  31  33
HETATM   33  C   UNL     1       4.124  14.381  89.600  1.00  0.00     0.138 C 
BRANCH  33  34
HETATM   34  C   UNL     1       4.615  13.349  88.770  1.00  0.00     0.208 C 
HETATM   35  O   UNL     1       5.814  13.187  88.775  1.00  0.00    -0.289 OA
BRANCH  34  36
HETATM   36  C   UNL     1       3.964  12.305  88.172  1.00  0.00     0.194 C 
HETATM   37  O   UNL     1       4.385  10.991  87.938  1.00  0.00    -0.185 OA
ENDBRANCH  34  36
ENDBRANCH  33  34
ENDBRANCH  31  33
ENDBRANCH  26  31
ENDBRANCH  24  26
ENDBRANCH  19  22
ENDBRANCH  15  16
ENDBRANCH  11  14
ENDBRANCH   7   8
ENDBRANCH   2   7
TORSDOF 12
ENDMDL
MODEL 3
REMARK VINA RESULT:      -5.3      1.518      2.438
REMARK  12 active torsions:
REMARK  status: ('A' for Active; 'I' for Inactive)
REMARK    1  A    between atoms: O_2  and  C_16 
REMARK    2  A    between atoms: N_5  and  C_9 
REMARK    3  A    between atoms: N_6  and  C_13 
REMARK       I    between atoms: N_6  and  C_22 
REMARK    4  A    between atoms: C_9  and  C_12 
REMARK    5  A    between atoms: C_13  and  C_16 
REMARK    6  A    between atoms: C_13  and  C_21 
REMARK    7  A    between atoms: C_19  and  C_24 
REMARK    8  A    between atoms: C_21  and  C_33 
REMARK    9  A    between atoms: C_22  and  C_23 
REMARK   10  A    between atoms: C_27  and  C_30 
REMARK   11  A    between atoms: C_33  and  C_34 
REMARK   12  A    between atoms: C_34  and  C_35 
ROOT
HETATM    1  O   UNL     1      16.306   4.397  93.905  1.00  0.00    -0.350 OA
HETATM    2  N   UNL     1      14.571   2.678  92.444  1.00  0.00     0.147 N 
HETATM    3  C   UNL     1      14.581   4.130  92.220  1.00  0.00     0.283 C 
HETATM    4  C   UNL     1      14.961   2.379  93.829  1.00  0.00     0.283 C 
HETATM    5  C   UNL     1      15.959   4.695  92.552  1.00  0.00     0.178 C 
HETATM    6  C   UNL     1      16.329   2.986  94.124  1.00  0.00     0.178 C 
ENDROOT
BRANCH   2   7
HETATM    7  C   UNL     1      13.256   2.116  92.142  1.00  0.00     0.277 C 
BRANCH   7   8
HETATM    8  C   UNL     1      12.174   3.141  92.196  1.00  0.00     0.011 A 
HETATM    9  C   UNL     1      12.000   3.909  93.348  1.00  0.00    -0.002 A 
HETATM   10  C   UNL     1      10.987   4.866  93.401  1.00  0.00     0.008 A 
HETATM   11  C   UNL     1      10.151   5.056  92.301  1.00  0.00     0.042 A 
HETATM   12  C   UNL     1      10.324   4.290  91.151  1.00  0.00     0.008 A 
HETATM   13  C   UNL     1      11.337   3.332  91.098  1.00  0.00    -0.002 A 
BRANCH  11  14
HETATM   14  C   UNL     1       9.114   6.040  92.355  1.00  0.00    -0.059 C 
HETATM   15  C   UNL     1       8.242   6.867  92.399  1.00  0.00    -0.059 C 
BRANCH  15  16
HETATM   16  C   UNL     1       7.205   7.850  92.452  1.00  0.00     0.042 A 
HETATM   17  C   UNL     1       5.869   7.459  92.354  1.00  0.00     0.008 A 
HETATM   18  C   UNL     1       4.858   8.418  92.408  1.00  0.00     0.005 A 
HETATM   19  C   UNL     1       5.204   9.745  92.560  1.00  0.00     0.056 A 
HETATM   20  C   UNL     1       6.516  10.156  92.659  1.00  0.00     0.005 A 
HETATM   21  C   UNL     1       7.529   9.198  92.605  1.00  0.00     0.008 A 
BRANCH  19  22
HETATM   22  C   UNL     1       4.126  10.766  92.616  1.00  0.00     0.254 C 
HETATM   23  O   UNL     1       3.236  10.653  93.455  1.00  0.00    -0.268 OA
HETATM   24  N   UNL     1       4.228  11.808  91.705  1.00  0.00    -0.335 N 
HETATM   25  HN  UNL     1       5.006  11.848  91.057  1.00  0.00     0.164 HD
BRANCH  24  26
HETATM   26  C   UNL     1       3.274  12.887  91.650  1.00  0.00     0.166 C 
BRANCH  26  27
HETATM   27  C   UNL     1       3.836  14.203  92.202  1.00  0.00     0.138 C 
HETATM   28  C   UNL     1       4.292  14.081  93.652  1.00  0.00     0.034 C 
BRANCH  27  29
HETATM   29  O   UNL     1       4.940  14.624  91.402  1.00  0.00    -0.383 OA
HETATM   30  H   UNL     1       4.725  15.489  91.016  1.00  0.00     0.210 HD
ENDBRANCH  27  29
ENDBRANCH  26  27
BRANCH  26  31
HETATM   31  C   UNL     1       2.826  13.040  90.201  1.00  0.00     0.181 C 
HETATM   32  O   UNL     1       2.574  14.129  89.689  1.00  0.00    -0.294 OA
BRANCH  31  33
HETATM   33  C   UNL     1       3.827  12.280  89.177  1.00  0.00     0.138 C 
BRANCH  33  34
HETATM   34  C   UNL     1       3.038  11.172  88.795  1.00  0.00     0.208 C 
HETATM   35  O   UNL     1       2.439  11.280  87.750  1.00  0.00    -0.289 OA
BRANCH  34  36
HETATM   36  C   UNL     1       3.045   9.880  89.246  1.00  0.00     0.194 C 
HETATM   37  O   UNL     1       1.981   9.027  89.561  1.00  0.00    -0.185 OA
ENDBRANCH  34  36
ENDBRANCH  33  34
ENDBRANCH  31  33
ENDBRANCH  26  31
ENDBRANCH  24  26
ENDBRANCH  19  22
ENDBRANCH  15  16
ENDBRANCH  11  14
ENDBRANCH   7   8
ENDBRANCH   2   7
TORSDOF 12
ENDMDL
MODEL 4
REMARK VINA RESULT:      -4.8      2.385     12.817
REMARK  12 active torsions:
REMARK  status: ('A' for Active; 'I' for Inactive)
REMARK    1  A    between atoms: O_2  and  C_16 
REMARK    2  A    between atoms: N_5  and  C_9 
REMARK    3  A    between atoms: N_6  and  C_13 
REMARK       I    between atoms: N_6  and  C_22 
REMARK    4  A    between atoms: C_9  and  C_12 
REMARK    5  A    between atoms: C_13  and  C_16 
REMARK    6  A    between atoms: C_13  and  C_21 
REMARK    7  A    between atoms: C_19  and  C_24 
REMARK    8  A    between atoms: C_21  and  C_33 
REMARK    9  A    between atoms: C_22  and  C_23 
REMARK   10  A    between atoms: C_27  and  C_30 
REMARK   11  A    between atoms: C_33  and  C_34 
REMARK   12  A    between atoms: C_34  and  C_35 
ROOT
HETATM    1  O   UNL     1       3.098  14.939  94.060  1.00  0.00    -0.350 OA
HETATM    2  N   UNL     1       2.852  14.646  91.240  1.00  0.00     0.147 N 
HETATM    3  C   UNL     1       1.852  14.087  92.160  1.00  0.00     0.283 C 
HETATM    4  C   UNL     1       4.166  14.697  91.896  1.00  0.00     0.283 C 
HETATM    5  C   UNL     1       1.810  14.915  93.442  1.00  0.00     0.178 C 
HETATM    6  C   UNL     1       4.071  15.509  93.184  1.00  0.00     0.178 C 
ENDROOT
BRANCH   2   7
HETATM    7  C   UNL     1       2.917  13.862  90.008  1.00  0.00     0.277 C 
BRANCH   7   8
HETATM    8  C   UNL     1       3.873  12.723  90.109  1.00  0.00     0.011 A 
HETATM    9  C   UNL     1       5.080  12.762  89.408  1.00  0.00    -0.002 A 
HETATM   10  C   UNL     1       5.974  11.696  89.500  1.00  0.00     0.008 A 
HETATM   11  C   UNL     1       5.663  10.592  90.294  1.00  0.00     0.042 A 
HETATM   12  C   UNL     1       4.459  10.552  90.994  1.00  0.00     0.008 A 
HETATM   13  C   UNL     1       3.564  11.618  90.902  1.00  0.00    -0.002 A 
BRANCH  11  14
HETATM   14  C   UNL     1       6.582   9.500  90.390  1.00  0.00    -0.059 C 
HETATM   15  C   UNL     1       7.354   8.581  90.471  1.00  0.00    -0.059 C 
BRANCH  15  16
HETATM   16  C   UNL     1       8.271   7.489  90.567  1.00  0.00     0.042 A 
HETATM   17  C   UNL     1       9.361   7.417  89.699  1.00  0.00     0.008 A 
HETATM   18  C   UNL     1      10.257   6.352  89.795  1.00  0.00     0.005 A 
HETATM   19  C   UNL     1      10.045   5.386  90.755  1.00  0.00     0.056 A 
HETATM   20  C   UNL     1       8.975   5.434  91.624  1.00  0.00     0.005 A 
HETATM   21  C   UNL     1       8.078   6.498  91.529  1.00  0.00     0.008 A 
BRANCH  19  22
HETATM   22  C   UNL     1      10.999   4.251  90.855  1.00  0.00     0.254 C 
HETATM   23  O   UNL     1      10.780   3.225  90.215  1.00  0.00    -0.268 OA
HETATM   24  N   UNL     1      12.105   4.456  91.668  1.00  0.00    -0.335 N 
HETATM   25  HN  UNL     1      12.233   5.340  92.146  1.00  0.00     0.164 HD
BRANCH  24  26
HETATM   26  C   UNL     1      13.131   3.461  91.847  1.00  0.00     0.166 C 
BRANCH  26  27
HETATM   27  C   UNL     1      14.438   3.819  91.128  1.00  0.00     0.138 C 
HETATM   28  C   UNL     1      14.828   2.785  90.078  1.00  0.00     0.034 C 
BRANCH  27  29
HETATM   29  O   UNL     1      14.302   5.092  90.496  1.00  0.00    -0.383 OA
HETATM   30  H   UNL     1      15.121   5.278  90.007  1.00  0.00     0.210 HD
ENDBRANCH  27  29
ENDBRANCH  26  27
BRANCH  26  31
HETATM   31  C   UNL     1      13.353   3.286  93.346  1.00  0.00     0.181 C 
HETATM   32  O   UNL     1      12.455   2.969  94.124  1.00  0.00    -0.294 OA
BRANCH  31  33
HETATM   33  C   UNL     1      14.594   2.291  93.659  1.00  0.00     0.138 C 
BRANCH  33  34
HETATM   34  C   UNL     1      15.659   3.211  93.780  1.00  0.00     0.208 C 
HETATM   35  O   UNL     1      16.735   2.836  93.375  1.00  0.00    -0.289 OA
BRANCH  34  36
HETATM   36  C   UNL     1      15.644   4.559  94.012  1.00  0.00     0.194 C 
HETATM   37  O   UNL     1      16.702   5.470  94.116  1.00  0.00    -0.185 OA
ENDBRANCH  34  36
ENDBRANCH  33  34
ENDBRANCH  31  33
ENDBRANCH  26  31
ENDBRANCH  24  26
ENDBRANCH  19  22
ENDBRANCH  15  16
ENDBRANCH  11  14
ENDBRANCH   7   8
ENDBRANCH   2   7
TORSDOF 12
ENDMDL
MODEL 5
REMARK VINA RESULT:      -4.6      2.903     12.379
REMARK  12 active torsions:
REMARK  status: ('A' for Active; 'I' for Inactive)
REMARK    1  A    between atoms: O_2  and  C_16 
REMARK    2  A    between atoms: N_5  and  C_9 
REMARK    3  A    between atoms: N_6  and  C_13 
REMARK       I    between atoms: N_6  and  C_22 
REMARK    4  A    between atoms: C_9  and  C_12 
REMARK    5  A    between atoms: C_13  and  C_16 
REMARK    6  A    between atoms: C_13  and  C_21 
REMARK    7  A    between atoms: C_19  and  C_24 
REMARK    8  A    between atoms: C_21  and  C_33 
REMARK    9  A    between atoms: C_22  and  C_23 
REMARK   10  A    between atoms: C_27  and  C_30 
REMARK   11  A    between atoms: C_33  and  C_34 
REMARK   12  A    between atoms: C_34  and  C_35 
ROOT
HETATM    1  O   UNL     1       3.117  14.746  94.124  1.00  0.00    -0.350 OA
HETATM    2  N   UNL     1       2.877  14.800  91.288  1.00  0.00     0.147 N 
HETATM    3  C   UNL     1       1.885  14.117  92.130  1.00  0.00     0.283 C 
HETATM    4  C   UNL     1       4.190  14.791  91.949  1.00  0.00     0.283 C 
HETATM    5  C   UNL     1       1.830  14.779  93.504  1.00  0.00     0.178 C 
HETATM    6  C   UNL     1       4.081  15.435  93.327  1.00  0.00     0.178 C 
ENDROOT
BRANCH   2   7
HETATM    7  C   UNL     1       2.955  14.176  89.969  1.00  0.00     0.277 C 
BRANCH   7   8
HETATM    8  C   UNL     1       3.933  13.052  89.929  1.00  0.00     0.011 A 
HETATM    9  C   UNL     1       5.152  13.212  89.268  1.00  0.00    -0.002 A 
HETATM   10  C   UNL     1       6.067  12.160  89.228  1.00  0.00     0.008 A 
HETATM   11  C   UNL     1       5.764  10.950  89.851  1.00  0.00     0.042 A 
HETATM   12  C   UNL     1       4.548  10.789  90.511  1.00  0.00     0.008 A 
HETATM   13  C   UNL     1       3.632  11.840  90.551  1.00  0.00    -0.002 A 
BRANCH  11  14
HETATM   14  C   UNL     1       6.704   9.872  89.812  1.00  0.00    -0.059 C 
HETATM   15  C   UNL     1       7.493   8.965  89.779  1.00  0.00    -0.059 C 
BRANCH  15  16
HETATM   16  C   UNL     1       8.432   7.888  89.739  1.00  0.00     0.042 A 
HETATM   17  C   UNL     1       9.326   7.782  88.672  1.00  0.00     0.008 A 
HETATM   18  C   UNL     1      10.244   6.733  88.635  1.00  0.00     0.005 A 
HETATM   19  C   UNL     1      10.248   5.814  89.664  1.00  0.00     0.056 A 
HETATM   20  C   UNL     1       9.375   5.896  90.728  1.00  0.00     0.005 A 
HETATM   21  C   UNL     1       8.457   6.946  90.767  1.00  0.00     0.008 A 
BRANCH  19  22
HETATM   22  C   UNL     1      11.225   4.695  89.623  1.00  0.00     0.254 C 
HETATM   23  O   UNL     1      11.352   4.048  88.586  1.00  0.00    -0.268 OA
HETATM   24  N   UNL     1      11.954   4.481  90.784  1.00  0.00    -0.335 N 
HETATM   25  HN  UNL     1      11.813   5.073  91.595  1.00  0.00     0.164 HD
BRANCH  24  26
HETATM   26  C   UNL     1      12.955   3.451  90.893  1.00  0.00     0.166 C 
BRANCH  26  27
HETATM   27  C   UNL     1      14.365   4.014  91.113  1.00  0.00     0.138 C 
HETATM   28  C   UNL     1      15.455   2.989  90.821  1.00  0.00     0.034 C 
BRANCH  27  29
HETATM   29  O   UNL     1      14.561   5.151  90.273  1.00  0.00    -0.383 OA
HETATM   30  H   UNL     1      15.443   5.084  89.870  1.00  0.00     0.210 HD
ENDBRANCH  27  29
ENDBRANCH  26  27
BRANCH  26  31
HETATM   31  C   UNL     1      12.546   2.521  92.030  1.00  0.00     0.181 C 
HETATM   32  O   UNL     1      13.049   1.412  92.203  1.00  0.00    -0.294 OA
BRANCH  31  33
HETATM   33  C   UNL     1      12.596   3.269  93.467  1.00  0.00     0.138 C 
BRANCH  33  34
HETATM   34  C   UNL     1      11.378   3.985  93.446  1.00  0.00     0.208 C 
HETATM   35  O   UNL     1      10.421   3.393  93.004  1.00  0.00    -0.289 OA
BRANCH  34  36
HETATM   36  C   UNL     1      11.011   5.131  94.096  1.00  0.00     0.194 C 
HETATM   37  O   UNL     1       9.782   5.801  94.123  1.00  0.00    -0.185 OA
ENDBRANCH  34  36
ENDBRANCH  33  34
ENDBRANCH  31  33
ENDBRANCH  26  31
ENDBRANCH  24  26
ENDBRANCH  19  22
ENDBRANCH  15  16
ENDBRANCH  11  14
ENDBRANCH   7   8
ENDBRANCH   2   7
TORSDOF 12
ENDMDL
MODEL 6
REMARK VINA RESULT:      -4.1      1.525      2.886
REMARK  12 active torsions:
REMARK  status: ('A' for Active; 'I' for Inactive)
REMARK    1  A    between atoms: O_2  and  C_16 
REMARK    2  A    between atoms: N_5  and  C_9 
REMARK    3  A    between atoms: N_6  and  C_13 
REMARK       I    between atoms: N_6  and  C_22 
REMARK    4  A    between atoms: C_9  and  C_12 
REMARK    5  A    between atoms: C_13  and  C_16 
REMARK    6  A    between atoms: C_13  and  C_21 
REMARK    7  A    between atoms: C_19  and  C_24 
REMARK    8  A    between atoms: C_21  and  C_33 
REMARK    9  A    between atoms: C_22  and  C_23 
REMARK   10  A    between atoms: C_27  and  C_30 
REMARK   11  A    between atoms: C_33  and  C_34 
REMARK   12  A    between atoms: C_34  and  C_35 
ROOT
HETATM    1  O   UNL     1      16.068   3.857  93.822  1.00  0.00    -0.350 OA
HETATM    2  N   UNL     1      13.985   2.449  92.488  1.00  0.00     0.147 N 
HETATM    3  C   UNL     1      14.280   3.856  92.181  1.00  0.00     0.283 C 
HETATM    4  C   UNL     1      14.344   2.152  93.881  1.00  0.00     0.283 C 
HETATM    5  C   UNL     1      15.752   4.148  92.459  1.00  0.00     0.178 C 
HETATM    6  C   UNL     1      15.814   2.484  94.119  1.00  0.00     0.178 C 
ENDROOT
BRANCH   2   7
HETATM    7  C   UNL     1      12.576   2.149  92.239  1.00  0.00     0.277 C 
BRANCH   7   8
HETATM    8  C   UNL     1      11.780   3.373  91.936  1.00  0.00     0.011 A 
HETATM    9  C   UNL     1      11.517   3.723  90.611  1.00  0.00    -0.002 A 
HETATM   10  C   UNL     1      10.774   4.869  90.327  1.00  0.00     0.008 A 
HETATM   11  C   UNL     1      10.293   5.662  91.368  1.00  0.00     0.042 A 
HETATM   12  C   UNL     1      10.555   5.314  92.691  1.00  0.00     0.008 A 
HETATM   13  C   UNL     1      11.298   4.169  92.976  1.00  0.00    -0.002 A 
BRANCH  11  14
HETATM   14  C   UNL     1       9.529   6.836  91.076  1.00  0.00    -0.059 C 
HETATM   15  C   UNL     1       8.887   7.823  90.830  1.00  0.00    -0.059 C 
BRANCH  15  16
HETATM   16  C   UNL     1       8.124   8.996  90.538  1.00  0.00     0.042 A 
HETATM   17  C   UNL     1       8.325   9.677  89.337  1.00  0.00     0.008 A 
HETATM   18  C   UNL     1       7.578  10.819  89.051  1.00  0.00     0.005 A 
HETATM   19  C   UNL     1       6.647  11.255  89.970  1.00  0.00     0.056 A 
HETATM   20  C   UNL     1       6.429  10.599  91.164  1.00  0.00     0.005 A 
HETATM   21  C   UNL     1       7.176   9.457  91.451  1.00  0.00     0.008 A 
BRANCH  19  22
HETATM   22  C   UNL     1       5.853  12.473  89.665  1.00  0.00     0.254 C 
HETATM   23  O   UNL     1       5.969  13.005  88.564  1.00  0.00    -0.268 OA
HETATM   24  N   UNL     1       5.001  12.910  90.670  1.00  0.00    -0.335 N 
HETATM   25  HN  UNL     1       4.938  12.404  91.546  1.00  0.00     0.164 HD
BRANCH  24  26
HETATM   26  C   UNL     1       4.148  14.062  90.517  1.00  0.00     0.166 C 
BRANCH  26  27
HETATM   27  C   UNL     1       2.757  13.703  89.980  1.00  0.00     0.138 C 
HETATM   28  C   UNL     1       2.756  12.403  89.184  1.00  0.00     0.034 C 
BRANCH  27  29
HETATM   29  O   UNL     1       1.841  13.582  91.068  1.00  0.00    -0.383 OA
HETATM   30  H   UNL     1       2.310  13.810  91.888  1.00  0.00     0.210 HD
ENDBRANCH  27  29
ENDBRANCH  26  27
BRANCH  26  31
HETATM   31  C   UNL     1       4.057  14.757  91.872  1.00  0.00     0.181 C 
HETATM   32  O   UNL     1       3.007  15.212  92.322  1.00  0.00    -0.294 OA
BRANCH  31  33
HETATM   33  C   UNL     1       4.703  13.857  93.055  1.00  0.00     0.138 C 
BRANCH  33  34
HETATM   34  C   UNL     1       3.552  13.229  93.581  1.00  0.00     0.208 C 
HETATM   35  O   UNL     1       2.716  13.962  94.057  1.00  0.00    -0.289 OA
BRANCH  34  36
HETATM   36  C   UNL     1       3.072  11.961  93.399  1.00  0.00     0.194 C 
HETATM   37  O   UNL     1       3.188  11.098  92.303  1.00  0.00    -0.185 OA
ENDBRANCH  34  36
ENDBRANCH  33  34
ENDBRANCH  31  33
ENDBRANCH  26  31
ENDBRANCH  24  26
ENDBRANCH  19  22
ENDBRANCH  15  16
ENDBRANCH  11  14
ENDBRANCH   7   8
ENDBRANCH   2   7
TORSDOF 12
ENDMDL
MODEL 7
REMARK VINA RESULT:      -3.4      2.407      3.844
REMARK  12 active torsions:
REMARK  status: ('A' for Active; 'I' for Inactive)
REMARK    1  A    between atoms: O_2  and  C_16 
REMARK    2  A    between atoms: N_5  and  C_9 
REMARK    3  A    between atoms: N_6  and  C_13 
REMARK       I    between atoms: N_6  and  C_22 
REMARK    4  A    between atoms: C_9  and  C_12 
REMARK    5  A    between atoms: C_13  and  C_16 
REMARK    6  A    between atoms: C_13  and  C_21 
REMARK    7  A    between atoms: C_19  and  C_24 
REMARK    8  A    between atoms: C_21  and  C_33 
REMARK    9  A    between atoms: C_22  and  C_23 
REMARK   10  A    between atoms: C_27  and  C_30 
REMARK   11  A    between atoms: C_33  and  C_34 
REMARK   12  A    between atoms: C_34  and  C_35 
ROOT
HETATM    1  O   UNL     1      17.241   3.343  92.061  1.00  0.00    -0.350 OA
HETATM    2  N   UNL     1      15.215   1.976  93.520  1.00  0.00     0.147 N 
HETATM    3  C   UNL     1      15.114   2.175  92.067  1.00  0.00     0.283 C 
HETATM    4  C   UNL     1      15.995   3.065  94.124  1.00  0.00     0.283 C 
HETATM    5  C   UNL     1      16.511   2.272  91.460  1.00  0.00     0.178 C 
HETATM    6  C   UNL     1      17.371   3.141  93.469  1.00  0.00     0.178 C 
ENDROOT
BRANCH   2   7
HETATM    7  C   UNL     1      13.886   1.892  94.124  1.00  0.00     0.277 C 
BRANCH   7   8
HETATM    8  C   UNL     1      12.850   2.600  93.319  1.00  0.00     0.011 A 
HETATM    9  C   UNL     1      12.434   2.069  92.098  1.00  0.00    -0.002 A 
HETATM   10  C   UNL     1      11.466   2.731  91.343  1.00  0.00     0.008 A 
HETATM   11  C   UNL     1      10.914   3.923  91.811  1.00  0.00     0.042 A 
HETATM   12  C   UNL     1      11.328   4.454  93.031  1.00  0.00     0.008 A 
HETATM   13  C   UNL     1      12.296   3.792  93.786  1.00  0.00    -0.002 A 
BRANCH  11  14
HETATM   14  C   UNL     1       9.919   4.601  91.038  1.00  0.00    -0.059 C 
HETATM   15  C   UNL     1       9.084   5.171  90.387  1.00  0.00    -0.059 C 
BRANCH  15  16
HETATM   16  C   UNL     1       8.091   5.849  89.614  1.00  0.00     0.042 A 
HETATM   17  C   UNL     1       8.434   6.427  88.392  1.00  0.00     0.008 A 
HETATM   18  C   UNL     1       7.464   7.086  87.636  1.00  0.00     0.005 A 
HETATM   19  C   UNL     1       6.173   7.150  88.118  1.00  0.00     0.056 A 
HETATM   20  C   UNL     1       5.809   6.586  89.323  1.00  0.00     0.005 A 
HETATM   21  C   UNL     1       6.778   5.928  90.080  1.00  0.00     0.008 A 
BRANCH  19  22
HETATM   22  C   UNL     1       5.141   7.853  87.314  1.00  0.00     0.254 C 
HETATM   23  O   UNL     1       5.290   7.948  86.098  1.00  0.00    -0.268 OA
HETATM   24  N   UNL     1       4.048   8.339  88.018  1.00  0.00    -0.335 N 
HETATM   25  HN  UNL     1       3.981   8.201  89.020  1.00  0.00     0.164 HD
BRANCH  24  26
HETATM   26  C   UNL     1       2.953   9.021  87.377  1.00  0.00     0.166 C 
BRANCH  26  27
HETATM   27  C   UNL     1       1.595   8.373  87.672  1.00  0.00     0.138 C 
HETATM   28  C   UNL     1       1.567   6.890  87.320  1.00  0.00     0.034 C 
BRANCH  27  29
HETATM   29  O   UNL     1       1.283   8.527  89.056  1.00  0.00    -0.383 OA
HETATM   30  H   UNL     1       1.254   9.477  89.258  1.00  0.00     0.210 HD
ENDBRANCH  27  29
ENDBRANCH  26  27
BRANCH  26  31
HETATM   31  C   UNL     1       2.982  10.477  87.830  1.00  0.00     0.181 C 
HETATM   32  O   UNL     1       2.015  11.230  87.729  1.00  0.00    -0.294 OA
BRANCH  31  33
HETATM   33  C   UNL     1       3.511  10.623  89.355  1.00  0.00     0.138 C 
BRANCH  33  34
HETATM   34  C   UNL     1       4.119  11.898  89.313  1.00  0.00     0.208 C 
HETATM   35  O   UNL     1       3.428  12.828  89.661  1.00  0.00    -0.289 OA
BRANCH  34  36
HETATM   36  C   UNL     1       5.437  12.249  89.223  1.00  0.00     0.194 C 
HETATM   37  O   UNL     1       6.564  11.470  88.933  1.00  0.00    -0.185 OA
ENDBRANCH  34  36
ENDBRANCH  33  34
ENDBRANCH  31  33
ENDBRANCH  26  31
ENDBRANCH  24  26
ENDBRANCH  19  22
ENDBRANCH  15  16
ENDBRANCH  11  14
ENDBRANCH   7   8
ENDBRANCH   2   7
TORSDOF 12
ENDMDL
