MODEL 1
REMARK VINA RESULT:      -6.2      0.000      0.000
REMARK  12 active torsions:
REMARK  status: ('A' for Active; 'I' for Inactive)
REMARK    1  A    between atoms: O_2  and  C_16 
REMARK    2  A    between atoms: N_5  and  C_9 
REMARK    3  A    between atoms: N_6  and  C_13 
REMARK       I    between atoms: N_6  and  C_22 
REMARK    4  A    between atoms: C_9  and  C_12 
REMARK    5  A    between atoms: C_13  and  C_16 
REMARK    6  A    between atoms: C_13  and  C_21 
REMARK    7  A    between atoms: C_19  and  C_24 
REMARK    8  A    between atoms: C_21  and  C_33 
REMARK    9  A    between atoms: C_22  and  C_23 
REMARK   10  A    between atoms: C_27  and  C_30 
REMARK   11  A    between atoms: C_33  and  C_34 
REMARK   12  A    between atoms: C_34  and  C_35 
ROOT
HETATM    1  O   UNL     1      16.478   3.149  94.045  1.00  0.00    -0.350 OA
HETATM    2  N   UNL     1      14.084   3.125  92.505  1.00  0.00     0.147 N 
HETATM    3  C   UNL     1      14.814   1.886  92.810  1.00  0.00     0.283 C 
HETATM    4  C   UNL     1      15.017   4.260  92.459  1.00  0.00     0.283 C 
HETATM    5  C   UNL     1      15.575   2.045  94.124  1.00  0.00     0.178 C 
HETATM    6  C   UNL     1      15.773   4.362  93.779  1.00  0.00     0.178 C 
ENDROOT
BRANCH   2   7
HETATM    7  C   UNL     1      13.355   2.999  91.244  1.00  0.00     0.277 C 
BRANCH   7   8
HETATM    8  C   UNL     1      12.176   3.908  91.177  1.00  0.00     0.011 A 
HETATM    9  C   UNL     1      11.744   4.399  89.944  1.00  0.00    -0.002 A 
HETATM   10  C   UNL     1      10.642   5.251  89.879  1.00  0.00     0.008 A 
HETATM   11  C   UNL     1       9.971   5.611  91.048  1.00  0.00     0.042 A 
HETATM   12  C   UNL     1      10.401   5.122  92.280  1.00  0.00     0.008 A 
HETATM   13  C   UNL     1      11.504   4.270  92.344  1.00  0.00    -0.002 A 
BRANCH  11  14
HETATM   14  C   UNL     1       8.839   6.484  90.982  1.00  0.00    -0.059 C 
HETATM   15  C   UNL     1       7.889   7.218  90.927  1.00  0.00    -0.059 C 
BRANCH  15  16
HETATM   16  C   UNL     1       6.758   8.090  90.861  1.00  0.00     0.042 A 
HETATM   17  C   UNL     1       6.646   9.154  91.757  1.00  0.00     0.008 A 
HETATM   18  C   UNL     1       5.544  10.007  91.690  1.00  0.00     0.005 A 
HETATM   19  C   UNL     1       4.581   9.778  90.730  1.00  0.00     0.056 A 
HETATM   20  C   UNL     1       4.669   8.734  89.833  1.00  0.00     0.005 A 
HETATM   21  C   UNL     1       5.770   7.880  89.899  1.00  0.00     0.008 A 
BRANCH  19  22
HETATM   22  C   UNL     1       3.407  10.686  90.661  1.00  0.00     0.254 C 
HETATM   23  O   UNL     1       2.464  10.393  89.930  1.00  0.00    -0.268 OA
HETATM   24  N   UNL     1       3.461  11.813  91.470  1.00  0.00    -0.335 N 
HETATM   25  HN  UNL     1       4.263  11.977  92.067  1.00  0.00     0.164 HD
BRANCH  24  26
HETATM   26  C   UNL     1       2.390  12.775  91.532  1.00  0.00     0.166 C 
BRANCH  26  27
HETATM   27  C   UNL     1       1.757  12.869  92.926  1.00  0.00     0.138 C 
HETATM   28  C   UNL     1       1.536  11.501  93.561  1.00  0.00     0.034 C 
BRANCH  27  29
HETATM   29  O   UNL     1       2.597  13.646  93.780  1.00  0.00    -0.383 OA
HETATM   30  H   UNL     1       2.137  13.772  94.627  1.00  0.00     0.210 HD
ENDBRANCH  27  29
ENDBRANCH  26  27
BRANCH  26  31
HETATM   31  C   UNL     1       2.948  14.122  91.084  1.00  0.00     0.181 C 
HETATM   32  O   UNL     1       2.679  15.180  91.650  1.00  0.00    -0.294 OA
BRANCH  31  33
HETATM   33  C   UNL     1       4.562  14.086  90.935  1.00  0.00     0.138 C 
BRANCH  33  34
HETATM   34  C   UNL     1       4.719  14.435  89.576  1.00  0.00     0.208 C 
HETATM   35  O   UNL     1       4.779  15.619  89.333  1.00  0.00    -0.289 OA
BRANCH  34  36
HETATM   36  C   UNL     1       5.102  13.677  88.503  1.00  0.00     0.194 C 
HETATM   37  O   UNL     1       5.628  12.381  88.454  1.00  0.00    -0.185 OA
ENDBRANCH  34  36
ENDBRANCH  33  34
ENDBRANCH  31  33
ENDBRANCH  26  31
ENDBRANCH  24  26
ENDBRANCH  19  22
ENDBRANCH  15  16
ENDBRANCH  11  14
ENDBRANCH   7   8
ENDBRANCH   2   7
TORSDOF 12
ENDMDL
