MODEL 1
REMARK VINA RESULT:      -6.9      0.000      0.000
REMARK  10 active torsions:
REMARK  status: ('A' for Active; 'I' for Inactive)
REMARK    1  A    between atoms: O_2  and  C_18 
REMARK    2  A    between atoms: O_5  and  N_8 
REMARK    3  A    between atoms: N_6  and  C_11 
REMARK    4  A    between atoms: N_7  and  C_15 
REMARK       I    between atoms: N_7  and  C_24 
REMARK       I    between atoms: N_8  and  C_23 
REMARK    5  A    between atoms: C_11  and  C_14 
REMARK    6  A    between atoms: C_15  and  C_18 
REMARK    7  A    between atoms: C_15  and  C_23 
REMARK    8  A    between atoms: C_21  and  C_26 
REMARK    9  A    between atoms: C_24  and  C_25 
REMARK   10  A    between atoms: C_29  and  C_32 
ROOT
HETATM    1  O   UNK     0      16.451   4.295  94.021  0.00  0.00    -0.388 OA
HETATM    2  N   UNK     0      14.676   2.584  92.598  0.00  0.00     0.096 N 
HETATM    3  C   UNK     0      14.582   4.046  92.493  0.00  0.00     0.299 C 
HETATM    4  C   UNK     0      15.219   2.208  93.911  0.00  0.00     0.299 C 
HETATM    5  C   UNK     0      15.954   4.672  92.735  0.00  0.00     0.198 C 
HETATM    6  C   UNK     0      16.575   2.876  94.121  0.00  0.00     0.198 C 
ENDROOT
BRANCH   2   7
HETATM    7  C   UNK     0      13.370   1.964  92.380  0.00  0.00     0.311 C 
BRANCH   7   8
HETATM    8  C   UNK     0      12.295   2.971  92.150  0.00  0.00    -0.030 A 
HETATM    9  C   UNK     0      11.836   3.217  90.856  0.00  0.00     0.010 A 
HETATM   10  C   UNK     0      10.831   4.160  90.640  0.00  0.00     0.021 A 
HETATM   11  C   UNK     0      10.285   4.855  91.719  0.00  0.00     0.018 A 
HETATM   12  C   UNK     0      10.743   4.610  93.012  0.00  0.00     0.021 A 
HETATM   13  C   UNK     0      11.748   3.667  93.228  0.00  0.00     0.010 A 
BRANCH  11  14
HETATM   14  C   UNK     0       9.253   5.821  91.497  0.00  0.00    -0.061 C 
HETATM   15  C   UNK     0       8.386   6.633  91.311  0.00  0.00    -0.061 C 
BRANCH  15  16
HETATM   16  C   UNK     0       7.355   7.597  91.089  0.00  0.00     0.018 A 
HETATM   17  C   UNK     0       6.331   7.749  92.024  0.00  0.00     0.022 A 
HETATM   18  C   UNK     0       5.325   8.692  91.809  0.00  0.00     0.018 A 
HETATM   19  C   UNK     0       5.366   9.461  90.664  0.00  0.00     0.032 A 
HETATM   20  C   UNK     0       6.367   9.329  89.725  0.00  0.00     0.018 A 
HETATM   21  C   UNK     0       7.372   8.386  89.939  0.00  0.00     0.022 A 
BRANCH  19  22
HETATM   22  C   UNK     0       4.294  10.463  90.434  0.00  0.00     0.252 C 
HETATM   23  O   UNK     0       3.123  10.093  90.408  0.00  0.00    -0.268 OA
HETATM   24  N   UNK     0       4.712  11.778  90.287  0.00  0.00    -0.341 N 
HETATM   25  H   UNK     0       5.696  12.013  90.345  0.00  0.00     0.163 HD
BRANCH  24  26
HETATM   26  C   UNK     0       3.791  12.867  90.082  0.00  0.00     0.207 C 
BRANCH  26  27
HETATM   27  C   UNK     0       3.615  13.739  91.331  0.00  0.00     0.146 C 
HETATM   28  C   UNK     0       2.150  14.012  91.651  0.00  0.00     0.042 C 
BRANCH  27  29
HETATM   29  O   UNK     0       4.222  13.095  92.452  0.00  0.00    -0.393 OA
HETATM   30  H   UNK     0       4.448  12.186  92.195  0.00  0.00     0.210 HD
ENDBRANCH  27  29
ENDBRANCH  26  27
BRANCH  26  31
HETATM   31  C   UNK     0       4.295  13.687  88.899  0.00  0.00     0.266 C 
HETATM   32  O   UNK     0       4.530  14.892  88.972  0.00  0.00    -0.269 OA
HETATM   33  N   UNK     0       4.413  12.933  87.757  0.00  0.00    -0.236 N 
HETATM   34  H   UNK     0       4.144  11.963  87.640  0.00  0.00     0.197 HD
BRANCH  33  35
HETATM   35  O   UNK     0       4.836  13.623  86.612  0.00  0.00    -0.287 OA
HETATM   36  H   UNK     0       3.990  13.716  86.142  0.00  0.00     0.244 HD
ENDBRANCH  33  35
ENDBRANCH  26  31
ENDBRANCH  24  26
ENDBRANCH  19  22
ENDBRANCH  15  16
ENDBRANCH  11  14
ENDBRANCH   7   8
ENDBRANCH   2   7
TORSDOF 10
ENDMDL
