MODEL 1
REMARK VINA RESULT:      -6.7      0.000      0.000
REMARK  10 active torsions:
REMARK  status: ('A' for Active; 'I' for Inactive)
REMARK    1  A    between atoms: O_2  and  C_16 
REMARK    2  A    between atoms: N_5  and  C_9 
REMARK    3  A    between atoms: N_6  and  C_13 
REMARK       I    between atoms: N_6  and  C_22 
REMARK    4  A    between atoms: C_9  and  C_12 
REMARK    5  A    between atoms: C_13  and  C_16 
REMARK    6  A    between atoms: C_13  and  C_21 
REMARK    7  A    between atoms: C_19  and  C_24 
REMARK    8  A    between atoms: C_22  and  C_23 
REMARK    9  A    between atoms: C_27  and  C_30 
REMARK   10  A    between atoms: N_33  and  S_34 
ROOT
HETATM    1  C   UNL     1       5.672  10.921  89.584  1.00  0.00     0.056 A 
HETATM    2  C   UNL     1       7.034  11.138  89.548  1.00  0.00     0.005 A 
HETATM    3  C   UNL     1       5.131   9.694  89.907  1.00  0.00     0.005 A 
HETATM    4  C   UNL     1       7.371   8.831  90.176  1.00  0.00     0.042 A 
HETATM    5  C   UNL     1       7.894  10.082  89.847  1.00  0.00     0.008 A 
HETATM    6  C   UNL     1       5.990   8.637  90.207  1.00  0.00     0.008 A 
ENDROOT
BRANCH   1   7
HETATM    7  C   UNL     1       4.757  12.047  89.267  1.00  0.00     0.254 C 
HETATM    8  O   UNL     1       4.597  12.379  88.095  1.00  0.00    -0.268 OA
HETATM    9  N   UNL     1       4.118  12.635  90.350  1.00  0.00    -0.337 N 
HETATM   10  HN  UNL     1       4.280  12.291  91.289  1.00  0.00     0.164 HD
BRANCH   9  11
HETATM   11  C   UNL     1       3.183  13.721  90.203  1.00  0.00     0.172 C 
BRANCH  11  12
HETATM   12  C   UNL     1       1.921  13.537  91.055  1.00  0.00     0.136 C 
HETATM   13  C   UNL     1       2.084  12.453  92.114  1.00  0.00     0.034 C 
BRANCH  12  14
HETATM   14  O   UNL     1       1.597  14.769  91.700  1.00  0.00    -0.383 OA
HETATM   15  H   UNL     1       2.107  14.824  92.526  1.00  0.00     0.210 HD
ENDBRANCH  12  14
ENDBRANCH  11  12
BRANCH  11  16
HETATM   16  C   UNL     1       3.910  15.013  90.561  1.00  0.00     0.398 A 
HETATM   17  O   UNL     1       5.031  15.290  90.137  1.00  0.00    -0.136 OA
HETATM   18  N   UNL     1       4.933  15.609  91.620  1.00  0.00     0.142 N 
HETATM   19  HN  UNL     1       5.853  15.914  91.469  1.00  0.00     0.338 HD
BRANCH  18  20
HETATM   20  S   UNL     1       4.223  15.313  92.779  1.00  0.00     0.076 SA
HETATM   21  H   UNL     1       4.604  14.381  93.411  1.00  0.00     0.136 HD
ENDBRANCH  18  20
ENDBRANCH  11  16
ENDBRANCH   9  11
ENDBRANCH   1   7
BRANCH   4  22
HETATM   22  C   UNL     1       8.253   7.747  90.480  1.00  0.00    -0.059 C 
HETATM   23  C   UNL     1       8.994   6.836  90.737  1.00  0.00    -0.059 C 
BRANCH  23  24
HETATM   24  C   UNL     1       9.875   5.751  91.042  1.00  0.00     0.042 A 
HETATM   25  C   UNL     1      10.723   5.245  90.057  1.00  0.00     0.008 A 
HETATM   26  C   UNL     1      11.581   4.186  90.354  1.00  0.00    -0.002 A 
HETATM   27  C   UNL     1      11.592   3.635  91.636  1.00  0.00     0.011 A 
HETATM   28  C   UNL     1      10.743   4.142  92.619  1.00  0.00    -0.002 A 
HETATM   29  C   UNL     1       9.885   5.201  92.322  1.00  0.00     0.008 A 
BRANCH  27  30
HETATM   30  C   UNL     1      12.511   2.504  91.952  1.00  0.00     0.277 C 
BRANCH  30  31
HETATM   31  N   UNL     1      13.547   2.881  92.912  1.00  0.00     0.147 N 
HETATM   32  C   UNL     1      14.485   1.771  93.127  1.00  0.00     0.283 C 
HETATM   33  C   UNL     1      15.563   2.190  94.124  1.00  0.00     0.178 C 
HETATM   34  O   UNL     1      16.257   3.345  93.649  1.00  0.00    -0.350 OA
HETATM   35  C   UNL     1      15.356   4.439  93.467  1.00  0.00     0.178 C 
HETATM   36  C   UNL     1      14.274   4.073  92.456  1.00  0.00     0.283 C 
ENDBRANCH  30  31
ENDBRANCH  27  30
ENDBRANCH  23  24
ENDBRANCH   4  22
TORSDOF 10
ENDMDL
MODEL 2
REMARK VINA RESULT:      -6.6      1.299      1.840
REMARK  10 active torsions:
REMARK  status: ('A' for Active; 'I' for Inactive)
REMARK    1  A    between atoms: O_2  and  C_16 
REMARK    2  A    between atoms: N_5  and  C_9 
REMARK    3  A    between atoms: N_6  and  C_13 
REMARK       I    between atoms: N_6  and  C_22 
REMARK    4  A    between atoms: C_9  and  C_12 
REMARK    5  A    between atoms: C_13  and  C_16 
REMARK    6  A    between atoms: C_13  and  C_21 
REMARK    7  A    between atoms: C_19  and  C_24 
REMARK    8  A    between atoms: C_22  and  C_23 
REMARK    9  A    between atoms: C_27  and  C_30 
REMARK   10  A    between atoms: N_33  and  S_34 
ROOT
HETATM    1  C   UNL     1       4.857   9.779  90.567  1.00  0.00     0.056 A 
HETATM    2  C   UNL     1       4.537   8.480  90.902  1.00  0.00     0.005 A 
HETATM    3  C   UNL     1       6.161  10.195  90.396  1.00  0.00     0.005 A 
HETATM    4  C   UNL     1       6.894   7.952  90.909  1.00  0.00     0.042 A 
HETATM    5  C   UNL     1       5.567   7.555  91.076  1.00  0.00     0.008 A 
HETATM    6  C   UNL     1       7.191   9.271  90.570  1.00  0.00     0.008 A 
ENDROOT
BRANCH   1   7
HETATM    7  C   UNL     1       3.760  10.763  90.380  1.00  0.00     0.254 C 
HETATM    8  O   UNL     1       2.752  10.427  89.763  1.00  0.00    -0.268 OA
HETATM    9  N   UNL     1       3.957  12.010  90.955  1.00  0.00    -0.337 N 
HETATM   10  HN  UNL     1       4.806  12.208  91.472  1.00  0.00     0.164 HD
BRANCH   9  11
HETATM   11  C   UNL     1       2.975  13.062  90.882  1.00  0.00     0.172 C 
BRANCH  11  12
HETATM   12  C   UNL     1       2.689  13.703  92.245  1.00  0.00     0.136 C 
HETATM   13  C   UNL     1       1.419  13.160  92.891  1.00  0.00     0.034 C 
BRANCH  12  14
HETATM   14  O   UNL     1       3.791  13.471  93.123  1.00  0.00    -0.383 OA
HETATM   15  H   UNL     1       3.849  14.217  93.743  1.00  0.00     0.210 HD
ENDBRANCH  12  14
ENDBRANCH  11  12
BRANCH  11  16
HETATM   16  C   UNL     1       3.474  14.096  89.877  1.00  0.00     0.398 A 
HETATM   17  O   UNL     1       4.047  13.792  88.832  1.00  0.00    -0.136 OA
HETATM   18  N   UNL     1       4.764  14.949  89.511  1.00  0.00     0.142 N 
HETATM   19  HN  UNL     1       5.331  14.876  88.714  1.00  0.00     0.338 HD
BRANCH  18  20
HETATM   20  S   UNL     1       4.945  15.582  90.735  1.00  0.00     0.076 SA
HETATM   21  H   UNL     1       4.428  16.643  90.866  1.00  0.00     0.136 HD
ENDBRANCH  18  20
ENDBRANCH  11  16
ENDBRANCH   9  11
ENDBRANCH   1   7
BRANCH   4  22
HETATM   22  C   UNL     1       7.950   7.005  91.090  1.00  0.00    -0.059 C 
HETATM   23  C   UNL     1       8.838   6.209  91.242  1.00  0.00    -0.059 C 
BRANCH  23  24
HETATM   24  C   UNL     1       9.895   5.262  91.424  1.00  0.00     0.042 A 
HETATM   25  C   UNL     1      10.287   4.895  92.711  1.00  0.00     0.008 A 
HETATM   26  C   UNL     1      11.318   3.973  92.889  1.00  0.00    -0.002 A 
HETATM   27  C   UNL     1      11.956   3.417  91.779  1.00  0.00     0.011 A 
HETATM   28  C   UNL     1      11.562   3.785  90.492  1.00  0.00    -0.002 A 
HETATM   29  C   UNL     1      10.531   4.707  90.315  1.00  0.00     0.008 A 
BRANCH  27  30
HETATM   30  C   UNL     1      13.057   2.430  91.970  1.00  0.00     0.277 C 
BRANCH  30  31
HETATM   31  N   UNL     1      14.048   2.883  92.944  1.00  0.00     0.147 N 
HETATM   32  C   UNL     1      15.108   1.879  93.112  1.00  0.00     0.283 C 
HETATM   33  C   UNL     1      16.137   2.378  94.124  1.00  0.00     0.178 C 
HETATM   34  O   UNL     1      16.692   3.623  93.696  1.00  0.00    -0.350 OA
HETATM   35  C   UNL     1      15.671   4.613  93.559  1.00  0.00     0.178 C 
HETATM   36  C   UNL     1      14.632   4.168  92.535  1.00  0.00     0.283 C 
ENDBRANCH  30  31
ENDBRANCH  27  30
ENDBRANCH  23  24
ENDBRANCH   4  22
TORSDOF 10
ENDMDL
MODEL 3
REMARK VINA RESULT:      -6.6      1.519      2.179
REMARK  10 active torsions:
REMARK  status: ('A' for Active; 'I' for Inactive)
REMARK    1  A    between atoms: O_2  and  C_16 
REMARK    2  A    between atoms: N_5  and  C_9 
REMARK    3  A    between atoms: N_6  and  C_13 
REMARK       I    between atoms: N_6  and  C_22 
REMARK    4  A    between atoms: C_9  and  C_12 
REMARK    5  A    between atoms: C_13  and  C_16 
REMARK    6  A    between atoms: C_13  and  C_21 
REMARK    7  A    between atoms: C_19  and  C_24 
REMARK    8  A    between atoms: C_22  and  C_23 
REMARK    9  A    between atoms: C_27  and  C_30 
REMARK   10  A    between atoms: N_33  and  S_34 
ROOT
HETATM    1  C   UNL     1       5.446  10.527  90.988  1.00  0.00     0.056 A 
HETATM    2  C   UNL     1       6.015  10.354  92.232  1.00  0.00     0.005 A 
HETATM    3  C   UNL     1       5.784   9.740  89.908  1.00  0.00     0.005 A 
HETATM    4  C   UNL     1       7.327   8.539  91.326  1.00  0.00     0.042 A 
HETATM    5  C   UNL     1       6.967   9.349  92.404  1.00  0.00     0.008 A 
HETATM    6  C   UNL     1       6.735   8.734  90.078  1.00  0.00     0.008 A 
ENDROOT
BRANCH   1   7
HETATM    7  C   UNL     1       4.430  11.597  90.806  1.00  0.00     0.254 C 
HETATM    8  O   UNL     1       3.396  11.344  90.192  1.00  0.00    -0.268 OA
HETATM    9  N   UNL     1       4.729  12.823  91.382  1.00  0.00    -0.337 N 
HETATM   10  HN  UNL     1       5.593  12.951  91.897  1.00  0.00     0.164 HD
BRANCH   9  11
HETATM   11  C   UNL     1       3.835  13.951  91.313  1.00  0.00     0.172 C 
BRANCH  11  12
HETATM   12  C   UNL     1       3.737  14.546  89.903  1.00  0.00     0.136 C 
HETATM   13  C   UNL     1       5.093  14.633  89.211  1.00  0.00     0.034 C 
BRANCH  12  14
HETATM   14  O   UNL     1       2.862  13.747  89.108  1.00  0.00    -0.383 OA
HETATM   15  H   UNL     1       3.189  12.832  89.119  1.00  0.00     0.210 HD
ENDBRANCH  12  14
ENDBRANCH  11  12
BRANCH  11  16
HETATM   16  C   UNL     1       2.470  13.495  91.818  1.00  0.00     0.398 A 
HETATM   17  O   UNL     1       1.427  14.094  91.564  1.00  0.00    -0.136 OA
HETATM   18  N   UNL     1       1.465  13.699  93.031  1.00  0.00     0.142 N 
HETATM   19  HN  UNL     1       0.580  14.122  93.019  1.00  0.00     0.338 HD
BRANCH  18  20
HETATM   20  S   UNL     1       2.321  13.349  94.069  1.00  0.00     0.076 SA
HETATM   21  H   UNL     1       3.302  12.749  93.769  1.00  0.00     0.136 HD
ENDBRANCH  18  20
ENDBRANCH  11  16
ENDBRANCH   9  11
ENDBRANCH   1   7
BRANCH   4  22
HETATM   22  C   UNL     1       8.305   7.511  91.501  1.00  0.00    -0.059 C 
HETATM   23  C   UNL     1       9.127   6.646  91.649  1.00  0.00    -0.059 C 
BRANCH  23  24
HETATM   24  C   UNL     1      10.105   5.617  91.825  1.00  0.00     0.042 A 
HETATM   25  C   UNL     1      10.507   5.251  93.109  1.00  0.00     0.008 A 
HETATM   26  C   UNL     1      11.461   4.248  93.281  1.00  0.00    -0.002 A 
HETATM   27  C   UNL     1      12.012   3.612  92.168  1.00  0.00     0.011 A 
HETATM   28  C   UNL     1      11.608   3.979  90.884  1.00  0.00    -0.002 A 
HETATM   29  C   UNL     1      10.654   4.982  90.713  1.00  0.00     0.008 A 
BRANCH  27  30
HETATM   30  C   UNL     1      13.031   2.539  92.353  1.00  0.00     0.277 C 
BRANCH  30  31
HETATM   31  N   UNL     1      14.120   2.951  93.236  1.00  0.00     0.147 N 
HETATM   32  C   UNL     1      15.219   1.977  93.197  1.00  0.00     0.283 C 
HETATM   33  C   UNL     1      16.348   2.433  94.118  1.00  0.00     0.178 C 
HETATM   34  O   UNL     1      16.814   3.727  93.729  1.00  0.00    -0.350 OA
HETATM   35  C   UNL     1      15.758   4.687  93.794  1.00  0.00     0.178 C 
HETATM   36  C   UNL     1      14.616   4.284  92.867  1.00  0.00     0.283 C 
ENDBRANCH  30  31
ENDBRANCH  27  30
ENDBRANCH  23  24
ENDBRANCH   4  22
TORSDOF 10
ENDMDL
MODEL 4
REMARK VINA RESULT:      -6.4      1.631      1.929
REMARK  10 active torsions:
REMARK  status: ('A' for Active; 'I' for Inactive)
REMARK    1  A    between atoms: O_2  and  C_16 
REMARK    2  A    between atoms: N_5  and  C_9 
REMARK    3  A    between atoms: N_6  and  C_13 
REMARK       I    between atoms: N_6  and  C_22 
REMARK    4  A    between atoms: C_9  and  C_12 
REMARK    5  A    between atoms: C_13  and  C_16 
REMARK    6  A    between atoms: C_13  and  C_21 
REMARK    7  A    between atoms: C_19  and  C_24 
REMARK    8  A    between atoms: C_22  and  C_23 
REMARK    9  A    between atoms: C_27  and  C_30 
REMARK   10  A    between atoms: N_33  and  S_34 
ROOT
HETATM    1  C   UNL     1       4.498   9.956  91.474  1.00  0.00     0.056 A 
HETATM    2  C   UNL     1       4.720   9.159  90.371  1.00  0.00     0.005 A 
HETATM    3  C   UNL     1       5.283   9.883  92.606  1.00  0.00     0.005 A 
HETATM    4  C   UNL     1       6.583   8.153  91.534  1.00  0.00     0.042 A 
HETATM    5  C   UNL     1       5.775   8.246  90.401  1.00  0.00     0.008 A 
HETATM    6  C   UNL     1       6.338   8.971  92.636  1.00  0.00     0.008 A 
ENDROOT
BRANCH   1   7
HETATM    7  C   UNL     1       3.376  10.930  91.442  1.00  0.00     0.254 C 
HETATM    8  O   UNL     1       2.286  10.575  90.999  1.00  0.00    -0.268 OA
HETATM    9  N   UNL     1       3.651  12.192  91.951  1.00  0.00    -0.337 N 
HETATM   10  HN  UNL     1       4.568  12.406  92.324  1.00  0.00     0.164 HD
BRANCH   9  11
HETATM   11  C   UNL     1       2.660  13.236  92.011  1.00  0.00     0.172 C 
BRANCH  11  12
HETATM   12  C   UNL     1       2.766  14.083  93.286  1.00  0.00     0.136 C 
HETATM   13  C   UNL     1       4.184  14.122  93.844  1.00  0.00     0.034 C 
BRANCH  12  14
HETATM   14  O   UNL     1       2.339  15.416  93.010  1.00  0.00    -0.383 OA
HETATM   15  H   UNL     1       1.367  15.425  92.981  1.00  0.00     0.210 HD
ENDBRANCH  12  14
ENDBRANCH  11  12
BRANCH  11  16
HETATM   16  C   UNL     1       2.814  14.096  90.760  1.00  0.00     0.398 A 
HETATM   17  O   UNL     1       2.642  13.661  89.623  1.00  0.00    -0.136 OA
HETATM   18  N   UNL     1       3.891  14.525  89.675  1.00  0.00     0.142 N 
HETATM   19  HN  UNL     1       3.908  14.305  88.719  1.00  0.00     0.338 HD
BRANCH  18  20
HETATM   20  S   UNL     1       4.855  15.040  90.535  1.00  0.00     0.076 SA
HETATM   21  H   UNL     1       4.786  16.201  90.776  1.00  0.00     0.136 HD
ENDBRANCH  18  20
ENDBRANCH  11  16
ENDBRANCH   9  11
ENDBRANCH   1   7
BRANCH   4  22
HETATM   22  C   UNL     1       7.662   7.215  91.565  1.00  0.00    -0.059 C 
HETATM   23  C   UNL     1       8.570   6.427  91.591  1.00  0.00    -0.059 C 
BRANCH  23  24
HETATM   24  C   UNL     1       9.650   5.489  91.622  1.00  0.00     0.042 A 
HETATM   25  C   UNL     1      10.083   4.887  90.441  1.00  0.00     0.008 A 
HETATM   26  C   UNL     1      11.135   3.972  90.471  1.00  0.00    -0.002 A 
HETATM   27  C   UNL     1      11.754   3.660  91.683  1.00  0.00     0.011 A 
HETATM   28  C   UNL     1      11.319   4.264  92.863  1.00  0.00    -0.002 A 
HETATM   29  C   UNL     1      10.267   5.179  92.832  1.00  0.00     0.008 A 
BRANCH  27  30
HETATM   30  C   UNL     1      12.879   2.683  91.713  1.00  0.00     0.277 C 
BRANCH  30  31
HETATM   31  N   UNL     1      13.841   2.975  92.775  1.00  0.00     0.147 N 
HETATM   32  C   UNL     1      14.712   1.816  93.021  1.00  0.00     0.283 C 
HETATM   33  C   UNL     1      15.714   2.148  94.124  1.00  0.00     0.178 C 
HETATM   34  O   UNL     1      16.492   3.290  93.762  1.00  0.00    -0.350 OA
HETATM   35  C   UNL     1      15.656   4.428  93.551  1.00  0.00     0.178 C 
HETATM   36  C   UNL     1      14.653   4.152  92.436  1.00  0.00     0.283 C 
ENDBRANCH  30  31
ENDBRANCH  27  30
ENDBRANCH  23  24
ENDBRANCH   4  22
TORSDOF 10
ENDMDL
MODEL 5
REMARK VINA RESULT:      -5.5      1.930      2.684
REMARK  10 active torsions:
REMARK  status: ('A' for Active; 'I' for Inactive)
REMARK    1  A    between atoms: O_2  and  C_16 
REMARK    2  A    between atoms: N_5  and  C_9 
REMARK    3  A    between atoms: N_6  and  C_13 
REMARK       I    between atoms: N_6  and  C_22 
REMARK    4  A    between atoms: C_9  and  C_12 
REMARK    5  A    between atoms: C_13  and  C_16 
REMARK    6  A    between atoms: C_13  and  C_21 
REMARK    7  A    between atoms: C_19  and  C_24 
REMARK    8  A    between atoms: C_22  and  C_23 
REMARK    9  A    between atoms: C_27  and  C_30 
REMARK   10  A    between atoms: N_33  and  S_34 
ROOT
HETATM    1  C   UNL     1       5.157   8.480  90.607  1.00  0.00     0.056 A 
HETATM    2  C   UNL     1       4.987   7.245  91.196  1.00  0.00     0.005 A 
HETATM    3  C   UNL     1       6.399   8.958  90.244  1.00  0.00     0.005 A 
HETATM    4  C   UNL     1       7.377   6.913  91.077  1.00  0.00     0.042 A 
HETATM    5  C   UNL     1       6.110   6.452  91.435  1.00  0.00     0.008 A 
HETATM    6  C   UNL     1       7.522   8.166  90.482  1.00  0.00     0.008 A 
ENDROOT
BRANCH   1   7
HETATM    7  C   UNL     1       3.961   9.324  90.351  1.00  0.00     0.254 C 
HETATM    8  O   UNL     1       2.934   8.797  89.933  1.00  0.00    -0.268 OA
HETATM    9  N   UNL     1       4.099  10.676  90.637  1.00  0.00    -0.337 N 
HETATM   10  HN  UNL     1       4.971  11.036  91.004  1.00  0.00     0.164 HD
BRANCH   9  11
HETATM   11  C   UNL     1       3.022  11.618  90.465  1.00  0.00     0.172 C 
BRANCH  11  12
HETATM   12  C   UNL     1       3.040  12.738  91.513  1.00  0.00     0.136 C 
HETATM   13  C   UNL     1       4.441  13.289  91.754  1.00  0.00     0.034 C 
BRANCH  12  14
HETATM   14  O   UNL     1       2.190  13.803  91.088  1.00  0.00    -0.383 OA
HETATM   15  H   UNL     1       1.270  13.553  91.279  1.00  0.00     0.210 HD
ENDBRANCH  12  14
ENDBRANCH  11  12
BRANCH  11  16
HETATM   16  C   UNL     1       3.117  12.180  89.050  1.00  0.00     0.398 A 
HETATM   17  O   UNL     1       2.765  11.551  88.054  1.00  0.00    -0.136 OA
HETATM   18  N   UNL     1       4.097  12.238  87.801  1.00  0.00     0.142 N 
HETATM   19  HN  UNL     1       3.976  11.830  86.918  1.00  0.00     0.338 HD
BRANCH  18  20
HETATM   20  S   UNL     1       5.206  12.786  88.436  1.00  0.00     0.076 SA
HETATM   21  H   UNL     1       6.253  12.641  87.894  1.00  0.00     0.136 HD
ENDBRANCH  18  20
ENDBRANCH  11  16
ENDBRANCH   9  11
ENDBRANCH   1   7
BRANCH   4  22
HETATM   22  C   UNL     1       8.528   6.101  91.324  1.00  0.00    -0.059 C 
HETATM   23  C   UNL     1       9.495   5.418  91.533  1.00  0.00    -0.059 C 
BRANCH  23  24
HETATM   24  C   UNL     1      10.646   4.605  91.780  1.00  0.00     0.042 A 
HETATM   25  C   UNL     1      11.567   4.373  90.759  1.00  0.00     0.008 A 
HETATM   26  C   UNL     1      12.688   3.578  90.999  1.00  0.00    -0.002 A 
HETATM   27  C   UNL     1      12.888   3.018  92.261  1.00  0.00     0.011 A 
HETATM   28  C   UNL     1      11.966   3.252  93.281  1.00  0.00    -0.002 A 
HETATM   29  C   UNL     1      10.845   4.046  93.040  1.00  0.00     0.008 A 
BRANCH  27  30
HETATM   30  C   UNL     1      14.088   2.171  92.517  1.00  0.00     0.277 C 
BRANCH  30  31
HETATM   31  N   UNL     1      15.052   2.824  93.402  1.00  0.00     0.147 N 
HETATM   32  C   UNL     1      16.403   2.292  93.180  1.00  0.00     0.283 C 
HETATM   33  C   UNL     1      17.393   2.995  94.106  1.00  0.00     0.178 C 
HETATM   34  O   UNL     1      17.369   4.406  93.880  1.00  0.00    -0.350 OA
HETATM   35  C   UNL     1      16.065   4.935  94.124  1.00  0.00     0.178 C 
HETATM   36  C   UNL     1      15.044   4.279  93.200  1.00  0.00     0.283 C 
ENDBRANCH  30  31
ENDBRANCH  27  30
ENDBRANCH  23  24
ENDBRANCH   4  22
TORSDOF 10
ENDMDL
MODEL 6
REMARK VINA RESULT:      -5.4      3.658     12.381
REMARK  10 active torsions:
REMARK  status: ('A' for Active; 'I' for Inactive)
REMARK    1  A    between atoms: O_2  and  C_16 
REMARK    2  A    between atoms: N_5  and  C_9 
REMARK    3  A    between atoms: N_6  and  C_13 
REMARK       I    between atoms: N_6  and  C_22 
REMARK    4  A    between atoms: C_9  and  C_12 
REMARK    5  A    between atoms: C_13  and  C_16 
REMARK    6  A    between atoms: C_13  and  C_21 
REMARK    7  A    between atoms: C_19  and  C_24 
REMARK    8  A    between atoms: C_22  and  C_23 
REMARK    9  A    between atoms: C_27  and  C_30 
REMARK   10  A    between atoms: N_33  and  S_34 
ROOT
HETATM    1  C   UNL     1      10.144   5.716  89.983  1.00  0.00     0.056 A 
HETATM    2  C   UNL     1       9.338   5.881  91.089  1.00  0.00     0.005 A 
HETATM    3  C   UNL     1      10.068   6.548  88.886  1.00  0.00     0.005 A 
HETATM    4  C   UNL     1       8.314   7.779  90.001  1.00  0.00     0.042 A 
HETATM    5  C   UNL     1       8.412   6.924  91.099  1.00  0.00     0.008 A 
HETATM    6  C   UNL     1       9.142   7.592  88.894  1.00  0.00     0.008 A 
ENDROOT
BRANCH   1   7
HETATM    7  C   UNL     1      11.132   4.607  89.974  1.00  0.00     0.254 C 
HETATM    8  O   UNL     1      11.265   3.930  88.957  1.00  0.00    -0.268 OA
HETATM    9  N   UNL     1      11.863   4.434  91.141  1.00  0.00    -0.337 N 
HETATM   10  HN  UNL     1      11.717   5.048  91.934  1.00  0.00     0.164 HD
BRANCH   9  11
HETATM   11  C   UNL     1      12.875   3.417  91.279  1.00  0.00     0.172 C 
BRANCH  11  12
HETATM   12  C   UNL     1      14.298   3.974  91.147  1.00  0.00     0.136 C 
HETATM   13  C   UNL     1      15.227   3.030  90.391  1.00  0.00     0.034 C 
BRANCH  12  14
HETATM   14  O   UNL     1      14.259   5.228  90.467  1.00  0.00    -0.383 OA
HETATM   15  H   UNL     1      14.468   5.074  89.530  1.00  0.00     0.210 HD
ENDBRANCH  12  14
ENDBRANCH  11  12
BRANCH  11  16
HETATM   16  C   UNL     1      12.669   2.735  92.628  1.00  0.00     0.398 A 
HETATM   17  O   UNL     1      11.884   3.154  93.477  1.00  0.00    -0.136 OA
HETATM   18  N   UNL     1      13.202   2.759  94.124  1.00  0.00     0.142 N 
HETATM   19  HN  UNL     1      12.719   3.028  94.934  1.00  0.00     0.338 HD
BRANCH  18  20
HETATM   20  S   UNL     1      14.552   2.549  93.864  1.00  0.00     0.076 SA
HETATM   21  H   UNL     1      15.194   2.072  94.743  1.00  0.00     0.136 HD
ENDBRANCH  18  20
ENDBRANCH  11  16
ENDBRANCH   9  11
ENDBRANCH   1   7
BRANCH   4  22
HETATM   22  C   UNL     1       7.363   8.847  90.010  1.00  0.00    -0.059 C 
HETATM   23  C   UNL     1       6.563   9.744  90.016  1.00  0.00    -0.059 C 
BRANCH  23  24
HETATM   24  C   UNL     1       5.611  10.812  90.024  1.00  0.00     0.042 A 
HETATM   25  C   UNL     1       5.898  12.006  89.364  1.00  0.00     0.008 A 
HETATM   26  C   UNL     1       4.971  13.048  89.374  1.00  0.00    -0.002 A 
HETATM   27  C   UNL     1       3.755  12.894  90.042  1.00  0.00     0.011 A 
HETATM   28  C   UNL     1       3.469  11.698  90.701  1.00  0.00    -0.002 A 
HETATM   29  C   UNL     1       4.397  10.657  90.692  1.00  0.00     0.008 A 
BRANCH  27  30
HETATM   30  C   UNL     1       2.764  14.007  90.049  1.00  0.00     0.277 C 
BRANCH  30  31
HETATM   31  N   UNL     1       2.770  14.750  91.308  1.00  0.00     0.147 N 
HETATM   32  C   UNL     1       1.851  14.139  92.278  1.00  0.00     0.283 C 
HETATM   33  C   UNL     1       1.883  14.925  93.586  1.00  0.00     0.178 C 
HETATM   34  O   UNL     1       3.211  14.961  94.112  1.00  0.00    -0.350 OA
HETATM   35  C   UNL     1       4.105  15.581  93.188  1.00  0.00     0.178 C 
HETATM   36  C   UNL     1       4.126  14.813  91.871  1.00  0.00     0.283 C 
ENDBRANCH  30  31
ENDBRANCH  27  30
ENDBRANCH  23  24
ENDBRANCH   4  22
TORSDOF 10
ENDMDL
MODEL 7
REMARK VINA RESULT:      -5.4      3.591     12.346
REMARK  10 active torsions:
REMARK  status: ('A' for Active; 'I' for Inactive)
REMARK    1  A    between atoms: O_2  and  C_16 
REMARK    2  A    between atoms: N_5  and  C_9 
REMARK    3  A    between atoms: N_6  and  C_13 
REMARK       I    between atoms: N_6  and  C_22 
REMARK    4  A    between atoms: C_9  and  C_12 
REMARK    5  A    between atoms: C_13  and  C_16 
REMARK    6  A    between atoms: C_13  and  C_21 
REMARK    7  A    between atoms: C_19  and  C_24 
REMARK    8  A    between atoms: C_22  and  C_23 
REMARK    9  A    between atoms: C_27  and  C_30 
REMARK   10  A    between atoms: N_33  and  S_34 
ROOT
HETATM    1  C   UNL     1      10.098   5.756  89.746  1.00  0.00     0.056 A 
HETATM    2  C   UNL     1       9.857   6.473  88.593  1.00  0.00     0.005 A 
HETATM    3  C   UNL     1       9.445   6.026  90.931  1.00  0.00     0.005 A 
HETATM    4  C   UNL     1       8.250   7.802  89.812  1.00  0.00     0.042 A 
HETATM    5  C   UNL     1       8.923   7.509  88.626  1.00  0.00     0.008 A 
HETATM    6  C   UNL     1       8.510   7.061  90.965  1.00  0.00     0.008 A 
ENDROOT
BRANCH   1   7
HETATM    7  C   UNL     1      11.092   4.652  89.710  1.00  0.00     0.254 C 
HETATM    8  O   UNL     1      11.273   4.042  88.660  1.00  0.00    -0.268 OA
HETATM    9  N   UNL     1      11.772   4.408  90.895  1.00  0.00    -0.337 N 
HETATM   10  HN  UNL     1      11.587   4.970  91.718  1.00  0.00     0.164 HD
BRANCH   9  11
HETATM   11  C   UNL     1      12.783   3.388  91.013  1.00  0.00     0.172 C 
BRANCH  11  12
HETATM   12  C   UNL     1      14.199   3.966  91.125  1.00  0.00     0.136 C 
HETATM   13  C   UNL     1      15.261   3.021  90.573  1.00  0.00     0.034 C 
BRANCH  12  14
HETATM   14  O   UNL     1      14.267   5.203  90.417  1.00  0.00    -0.383 OA
HETATM   15  H   UNL     1      13.360   5.517  90.264  1.00  0.00     0.210 HD
ENDBRANCH  12  14
ENDBRANCH  11  12
BRANCH  11  16
HETATM   16  C   UNL     1      12.438   2.528  92.225  1.00  0.00     0.398 A 
HETATM   17  O   UNL     1      11.313   2.489  92.720  1.00  0.00    -0.136 OA
HETATM   18  N   UNL     1      12.367   2.590  93.810  1.00  0.00     0.142 N 
HETATM   19  HN  UNL     1      11.572   2.543  94.383  1.00  0.00     0.338 HD
BRANCH  18  20
HETATM   20  S   UNL     1      13.679   2.978  94.059  1.00  0.00     0.076 SA
HETATM   21  H   UNL     1      13.909   3.409  95.142  1.00  0.00     0.136 HD
ENDBRANCH  18  20
ENDBRANCH  11  16
ENDBRANCH   9  11
ENDBRANCH   1   7
BRANCH   4  22
HETATM   22  C   UNL     1       7.294   8.865  89.846  1.00  0.00    -0.059 C 
HETATM   23  C   UNL     1       6.490   9.758  89.876  1.00  0.00    -0.059 C 
BRANCH  23  24
HETATM   24  C   UNL     1       5.534  10.822  89.911  1.00  0.00     0.042 A 
HETATM   25  C   UNL     1       4.287  10.618  90.503  1.00  0.00     0.008 A 
HETATM   26  C   UNL     1       3.354  11.654  90.535  1.00  0.00    -0.002 A 
HETATM   27  C   UNL     1       3.669  12.894  89.978  1.00  0.00     0.011 A 
HETATM   28  C   UNL     1       4.916  13.096  89.387  1.00  0.00    -0.002 A 
HETATM   29  C   UNL     1       5.849  12.059  89.354  1.00  0.00     0.008 A 
BRANCH  27  30
HETATM   30  C   UNL     1       2.672  14.002  90.015  1.00  0.00     0.277 C 
BRANCH  30  31
HETATM   31  N   UNL     1       2.652  14.690  91.305  1.00  0.00     0.147 N 
HETATM   32  C   UNL     1       1.767  13.997  92.251  1.00  0.00     0.283 C 
HETATM   33  C   UNL     1       1.771  14.727  93.592  1.00  0.00     0.178 C 
HETATM   34  O   UNL     1       3.100  14.801  94.114  1.00  0.00    -0.350 OA
HETATM   35  C   UNL     1       3.959  15.500  93.213  1.00  0.00     0.178 C 
HETATM   36  C   UNL     1       4.007  14.791  91.864  1.00  0.00     0.283 C 
ENDBRANCH  30  31
ENDBRANCH  27  30
ENDBRANCH  23  24
ENDBRANCH   4  22
TORSDOF 10
ENDMDL
MODEL 8
REMARK VINA RESULT:      -4.7      1.835      2.671
REMARK  10 active torsions:
REMARK  status: ('A' for Active; 'I' for Inactive)
REMARK    1  A    between atoms: O_2  and  C_16 
REMARK    2  A    between atoms: N_5  and  C_9 
REMARK    3  A    between atoms: N_6  and  C_13 
REMARK       I    between atoms: N_6  and  C_22 
REMARK    4  A    between atoms: C_9  and  C_12 
REMARK    5  A    between atoms: C_13  and  C_16 
REMARK    6  A    between atoms: C_13  and  C_21 
REMARK    7  A    between atoms: C_19  and  C_24 
REMARK    8  A    between atoms: C_22  and  C_23 
REMARK    9  A    between atoms: C_27  and  C_30 
REMARK   10  A    between atoms: N_33  and  S_34 
ROOT
HETATM    1  C   UNL     1       6.297   8.515  88.852  1.00  0.00     0.056 A 
HETATM    2  C   UNL     1       6.354   7.190  88.474  1.00  0.00     0.005 A 
HETATM    3  C   UNL     1       7.198   9.066  89.740  1.00  0.00     0.005 A 
HETATM    4  C   UNL     1       8.278   6.912  89.908  1.00  0.00     0.042 A 
HETATM    5  C   UNL     1       7.355   6.379  89.008  1.00  0.00     0.008 A 
HETATM    6  C   UNL     1       8.200   8.256  90.274  1.00  0.00     0.008 A 
ENDROOT
BRANCH   1   7
HETATM    7  C   UNL     1       5.232   9.379  88.282  1.00  0.00     0.254 C 
HETATM    8  O   UNL     1       4.430   8.897  87.487  1.00  0.00    -0.268 OA
HETATM    9  N   UNL     1       5.213  10.694  88.726  1.00  0.00    -0.337 N 
HETATM   10  HN  UNL     1       5.893  11.016  89.404  1.00  0.00     0.164 HD
BRANCH   9  11
HETATM   11  C   UNL     1       4.227  11.648  88.284  1.00  0.00     0.172 C 
BRANCH  11  12
HETATM   12  C   UNL     1       2.969  11.649  89.161  1.00  0.00     0.136 C 
HETATM   13  C   UNL     1       3.254  11.209  90.592  1.00  0.00     0.034 C 
BRANCH  12  14
HETATM   14  O   UNL     1       2.403  12.960  89.182  1.00  0.00    -0.383 OA
HETATM   15  H   UNL     1       1.993  13.100  90.052  1.00  0.00     0.210 HD
ENDBRANCH  12  14
ENDBRANCH  11  12
BRANCH  11  16
HETATM   16  C   UNL     1       4.887  13.023  88.260  1.00  0.00     0.398 A 
HETATM   17  O   UNL     1       6.099  13.181  88.126  1.00  0.00    -0.136 OA
HETATM   18  N   UNL     1       5.565  14.091  89.221  1.00  0.00     0.142 N 
HETATM   19  HN  UNL     1       6.504  14.374  89.245  1.00  0.00     0.338 HD
BRANCH  18  20
HETATM   20  S   UNL     1       4.513  14.259  90.114  1.00  0.00     0.076 SA
HETATM   21  H   UNL     1       4.736  13.999  91.252  1.00  0.00     0.136 HD
ENDBRANCH  18  20
ENDBRANCH  11  16
ENDBRANCH   9  11
ENDBRANCH   1   7
BRANCH   4  22
HETATM   22  C   UNL     1       9.303   6.080  90.457  1.00  0.00    -0.059 C 
HETATM   23  C   UNL     1      10.164   5.380  90.918  1.00  0.00    -0.059 C 
BRANCH  23  24
HETATM   24  C   UNL     1      11.190   4.547  91.467  1.00  0.00     0.042 A 
HETATM   25  C   UNL     1      11.295   4.391  92.849  1.00  0.00     0.008 A 
HETATM   26  C   UNL     1      12.297   3.581  93.384  1.00  0.00    -0.002 A 
HETATM   27  C   UNL     1      13.191   2.925  92.537  1.00  0.00     0.011 A 
HETATM   28  C   UNL     1      13.083   3.082  91.155  1.00  0.00    -0.002 A 
HETATM   29  C   UNL     1      12.083   3.893  90.620  1.00  0.00     0.008 A 
BRANCH  27  30
HETATM   30  C   UNL     1      14.259   2.058  93.110  1.00  0.00     0.277 C 
BRANCH  30  31
HETATM   31  N   UNL     1      15.306   2.830  93.777  1.00  0.00     0.147 N 
HETATM   32  C   UNL     1      16.636   2.316  93.424  1.00  0.00     0.283 C 
HETATM   33  C   UNL     1      17.712   3.144  94.123  1.00  0.00     0.178 C 
HETATM   34  O   UNL     1      17.596   4.520  93.756  1.00  0.00    -0.350 OA
HETATM   35  C   UNL     1      16.316   5.036  94.124  1.00  0.00     0.178 C 
HETATM   36  C   UNL     1      15.208   4.254  93.427  1.00  0.00     0.283 C 
ENDBRANCH  30  31
ENDBRANCH  27  30
ENDBRANCH  23  24
ENDBRANCH   4  22
TORSDOF 10
ENDMDL
MODEL 9
REMARK VINA RESULT:      -4.0      0.499      1.265
REMARK  10 active torsions:
REMARK  status: ('A' for Active; 'I' for Inactive)
REMARK    1  A    between atoms: O_2  and  C_16 
REMARK    2  A    between atoms: N_5  and  C_9 
REMARK    3  A    between atoms: N_6  and  C_13 
REMARK       I    between atoms: N_6  and  C_22 
REMARK    4  A    between atoms: C_9  and  C_12 
REMARK    5  A    between atoms: C_13  and  C_16 
REMARK    6  A    between atoms: C_13  and  C_21 
REMARK    7  A    between atoms: C_19  and  C_24 
REMARK    8  A    between atoms: C_22  and  C_23 
REMARK    9  A    between atoms: C_27  and  C_30 
REMARK   10  A    between atoms: N_33  and  S_34 
ROOT
HETATM    1  C   UNL     1       5.787  11.243  89.981  1.00  0.00     0.056 A 
HETATM    2  C   UNL     1       5.355  10.232  90.814  1.00  0.00     0.005 A 
HETATM    3  C   UNL     1       7.027  11.220  89.378  1.00  0.00     0.005 A 
HETATM    4  C   UNL     1       7.461   9.104  90.458  1.00  0.00     0.042 A 
HETATM    5  C   UNL     1       6.202   9.150  91.056  1.00  0.00     0.008 A 
HETATM    6  C   UNL     1       7.874  10.139  89.619  1.00  0.00     0.008 A 
ENDROOT
BRANCH   1   7
HETATM    7  C   UNL     1       4.885  12.395  89.722  1.00  0.00     0.254 C 
HETATM    8  O   UNL     1       4.833  12.874  88.592  1.00  0.00    -0.268 OA
HETATM    9  N   UNL     1       4.134  12.834  90.803  1.00  0.00    -0.337 N 
HETATM   10  HN  UNL     1       4.211  12.373  91.702  1.00  0.00     0.164 HD
BRANCH   9  11
HETATM   11  C   UNL     1       3.196  13.924  90.705  1.00  0.00     0.172 C 
BRANCH  11  12
HETATM   12  C   UNL     1       1.865  13.626  91.406  1.00  0.00     0.136 C 
HETATM   13  C   UNL     1       1.947  12.413  92.325  1.00  0.00     0.034 C 
BRANCH  12  14
HETATM   14  O   UNL     1       1.465  14.762  92.172  1.00  0.00    -0.383 OA
HETATM   15  H   UNL     1       2.141  14.925  92.851  1.00  0.00     0.210 HD
ENDBRANCH  12  14
ENDBRANCH  11  12
BRANCH  11  16
HETATM   16  C   UNL     1       3.863  15.166  91.286  1.00  0.00     0.398 A 
HETATM   17  O   UNL     1       4.951  15.586  90.896  1.00  0.00    -0.136 OA
HETATM   18  N   UNL     1       4.889  15.610  92.415  1.00  0.00     0.142 N 
HETATM   19  HN  UNL     1       5.785  15.994  92.302  1.00  0.00     0.338 HD
BRANCH  18  20
HETATM   20  S   UNL     1       4.239  15.056  93.512  1.00  0.00     0.076 SA
HETATM   21  H   UNL     1       3.435  14.212  93.282  1.00  0.00     0.136 HD
ENDBRANCH  18  20
ENDBRANCH  11  16
ENDBRANCH   9  11
ENDBRANCH   1   7
BRANCH   4  22
HETATM   22  C   UNL     1       8.330   7.996  90.708  1.00  0.00    -0.059 C 
HETATM   23  C   UNL     1       9.060   7.065  90.920  1.00  0.00    -0.059 C 
BRANCH  23  24
HETATM   24  C   UNL     1       9.929   5.956  91.171  1.00  0.00     0.042 A 
HETATM   25  C   UNL     1      10.159   5.534  92.480  1.00  0.00     0.008 A 
HETATM   26  C   UNL     1      11.007   4.455  92.725  1.00  0.00    -0.002 A 
HETATM   27  C   UNL     1      11.623   3.796  91.660  1.00  0.00     0.011 A 
HETATM   28  C   UNL     1      11.391   4.219  90.351  1.00  0.00    -0.002 A 
HETATM   29  C   UNL     1      10.544   5.299  90.107  1.00  0.00     0.008 A 
BRANCH  27  30
HETATM   30  C   UNL     1      12.528   2.641  91.923  1.00  0.00     0.277 C 
BRANCH  30  31
HETATM   31  N   UNL     1      13.594   2.972  92.867  1.00  0.00     0.147 N 
HETATM   32  C   UNL     1      14.427   1.793  93.146  1.00  0.00     0.283 C 
HETATM   33  C   UNL     1      15.538   2.165  94.124  1.00  0.00     0.178 C 
HETATM   34  O   UNL     1      16.335   3.225  93.591  1.00  0.00    -0.350 OA
HETATM   35  C   UNL     1      15.538   4.385  93.347  1.00  0.00     0.178 C 
HETATM   36  C   UNL     1      14.427   4.067  92.352  1.00  0.00     0.283 C 
ENDBRANCH  30  31
ENDBRANCH  27  30
ENDBRANCH  23  24
ENDBRANCH   4  22
TORSDOF 10
ENDMDL
