MODEL 1
REMARK VINA RESULT:      -6.7      0.000      0.000
REMARK  11 active torsions:
REMARK  status: ('A' for Active; 'I' for Inactive)
REMARK    1  A    between atoms: O_2  and  C_18 
REMARK    2  A    between atoms: O_5  and  P_8 
REMARK    3  A    between atoms: N_6  and  C_11 
REMARK    4  A    between atoms: N_7  and  C_15 
REMARK       I    between atoms: N_7  and  C_24 
REMARK    5  A    between atoms: P_8  and  C_23 
REMARK    6  A    between atoms: C_11  and  C_14 
REMARK    7  A    between atoms: C_15  and  C_18 
REMARK    8  A    between atoms: C_15  and  C_23 
REMARK    9  A    between atoms: C_21  and  C_26 
REMARK   10  A    between atoms: C_24  and  C_25 
REMARK   11  A    between atoms: C_29  and  C_32 
ROOT
HETATM    1  O   UNL     1      15.877   3.896  94.124  1.00  0.00     0.000 OA
HETATM    2  N   UNL     1      14.079   2.554  92.372  1.00  0.00     0.000 N 
HETATM    3  C   UNL     1      14.180   4.020  92.394  1.00  0.00     0.000 C 
HETATM    4  C   UNL     1      14.418   2.007  93.693  1.00  0.00     0.000 C 
HETATM    5  C   UNL     1      15.582   4.435  92.835  1.00  0.00     0.000 C 
HETATM    6  C   UNL     1      15.812   2.469  94.104  1.00  0.00     0.000 C 
ENDROOT
BRANCH   2   7
HETATM    7  C   UNL     1      12.741   2.134  91.962  1.00  0.00     0.000 C 
BRANCH   7   8
HETATM    8  C   UNL     1      11.836   3.290  91.703  1.00  0.00     0.000 A 
HETATM    9  C   UNL     1      11.705   3.795  90.408  1.00  0.00     0.000 A 
HETATM   10  C   UNL     1      10.861   4.878  90.165  1.00  0.00     0.000 A 
HETATM   11  C   UNL     1      10.148   5.455  91.215  1.00  0.00     0.000 A 
HETATM   12  C   UNL     1      10.278   4.951  92.508  1.00  0.00     0.000 A 
HETATM   13  C   UNL     1      11.122   3.869  92.752  1.00  0.00     0.000 A 
BRANCH  11  14
HETATM   14  C   UNL     1       9.280   6.565  90.964  1.00  0.00     0.000 C 
HETATM   15  C   UNL     1       8.552   7.497  90.753  1.00  0.00     0.000 C 
BRANCH  15  16
HETATM   16  C   UNL     1       7.684   8.606  90.502  1.00  0.00     0.000 A 
HETATM   17  C   UNL     1       7.564   9.624  91.448  1.00  0.00     0.000 A 
HETATM   18  C   UNL     1       6.720  10.707  91.202  1.00  0.00     0.000 A 
HETATM   19  C   UNL     1       6.017  10.748  90.016  1.00  0.00     0.000 A 
HETATM   20  C   UNL     1       6.119   9.754  89.065  1.00  0.00     0.000 A 
HETATM   21  C   UNL     1       6.962   8.671  89.310  1.00  0.00     0.000 A 
BRANCH  19  22
HETATM   22  C   UNL     1       5.117  11.901  89.755  1.00  0.00     0.000 C 
HETATM   23  O   UNL     1       4.912  12.252  88.595  1.00  0.00     0.000 OA
HETATM   24  N   UNL     1       4.543  12.490  90.873  1.00  0.00     0.000 N 
HETATM   25  HN  UNL     1       4.739  12.130  91.800  1.00  0.00     0.000 HD
BRANCH  24  26
HETATM   26  C   UNL     1       3.630  13.601  90.782  1.00  0.00     0.000 C 
BRANCH  26  27
HETATM   27  C   UNL     1       2.270  13.305  91.426  1.00  0.00     0.000 C 
HETATM   28  C   UNL     1       2.358  12.244  92.517  1.00  0.00     0.000 C 
BRANCH  27  29
HETATM   29  O   UNL     1       1.737  14.504  91.988  1.00  0.00     0.000 OA
HETATM   30  H   UNL     1       2.324  14.791  92.708  1.00  0.00     0.000 HD
ENDBRANCH  27  29
ENDBRANCH  26  27
BRANCH  26  31
HETATM   31  C   UNL     1       4.300  14.809  91.430  1.00  0.00     0.000 C 
HETATM   32  O   UNL     1       4.217  15.055  92.632  1.00  0.00     0.000 OA
BRANCH  31  33
HETATM   33  P   UNL     1       4.960  15.590  90.514  1.00  0.00     0.000 P 
HETATM   34  H   UNL     1       4.692  16.911  90.812  1.00  0.00     0.000 HD
BRANCH  33  35
HETATM   35  O   UNL     1       4.620  15.375  89.171  1.00  0.00     0.000 OA
HETATM   36  H   UNL     1       4.308  14.455  89.215  1.00  0.00     0.000 HD
ENDBRANCH  33  35
ENDBRANCH  31  33
ENDBRANCH  26  31
ENDBRANCH  24  26
ENDBRANCH  19  22
ENDBRANCH  15  16
ENDBRANCH  11  14
ENDBRANCH   7   8
ENDBRANCH   2   7
TORSDOF 11
ENDMDL
