MODEL 1
REMARK VINA RESULT:      -6.8      0.000      0.000
REMARK  11 active torsions:
REMARK  status: ('A' for Active; 'I' for Inactive)
REMARK    1  A    between atoms: O_2  and  C_18 
REMARK    2  A    between atoms: O_5  and  P_8 
REMARK    3  A    between atoms: N_6  and  C_11 
REMARK    4  A    between atoms: N_7  and  C_15 
REMARK       I    between atoms: N_7  and  C_24 
REMARK    5  A    between atoms: P_8  and  C_23 
REMARK    6  A    between atoms: C_11  and  C_14 
REMARK    7  A    between atoms: C_15  and  C_18 
REMARK    8  A    between atoms: C_15  and  C_23 
REMARK    9  A    between atoms: C_21  and  C_26 
REMARK   10  A    between atoms: C_24  and  C_25 
REMARK   11  A    between atoms: C_29  and  C_32 
ROOT
HETATM    1  O   UNL     1      16.059   3.855  94.124  1.00  0.00     0.000 OA
HETATM    2  N   UNL     1      14.242   2.544  92.368  1.00  0.00     0.000 N 
HETATM    3  C   UNL     1      14.322   4.010  92.435  1.00  0.00     0.000 C 
HETATM    4  C   UNL     1      14.617   1.960  93.663  1.00  0.00     0.000 C 
HETATM    5  C   UNL     1      15.727   4.432  92.859  1.00  0.00     0.000 C 
HETATM    6  C   UNL     1      16.013   2.430  94.058  1.00  0.00     0.000 C 
ENDROOT
BRANCH   2   7
HETATM    7  C   UNL     1      12.901   2.117  91.974  1.00  0.00     0.000 C 
BRANCH   7   8
HETATM    8  C   UNL     1      12.001   3.269  91.680  1.00  0.00     0.000 A 
HETATM    9  C   UNL     1      12.227   4.059  90.551  1.00  0.00     0.000 A 
HETATM   10  C   UNL     1      11.387   5.138  90.277  1.00  0.00     0.000 A 
HETATM   11  C   UNL     1      10.321   5.425  91.128  1.00  0.00     0.000 A 
HETATM   12  C   UNL     1      10.095   4.637  92.255  1.00  0.00     0.000 A 
HETATM   13  C   UNL     1      10.935   3.558  92.531  1.00  0.00     0.000 A 
BRANCH  11  14
HETATM   14  C   UNL     1       9.459   6.531  90.845  1.00  0.00     0.000 C 
HETATM   15  C   UNL     1       8.733   7.459  90.606  1.00  0.00     0.000 C 
BRANCH  15  16
HETATM   16  C   UNL     1       7.870   8.564  90.324  1.00  0.00     0.000 A 
HETATM   17  C   UNL     1       6.573   8.583  90.835  1.00  0.00     0.000 A 
HETATM   18  C   UNL     1       5.732   9.662  90.561  1.00  0.00     0.000 A 
HETATM   19  C   UNL     1       6.207  10.697  89.784  1.00  0.00     0.000 A 
HETATM   20  C   UNL     1       7.486  10.701  89.266  1.00  0.00     0.000 A 
HETATM   21  C   UNL     1       8.327   9.623  89.539  1.00  0.00     0.000 A 
BRANCH  19  22
HETATM   22  C   UNL     1       5.311  11.845  89.491  1.00  0.00     0.000 C 
HETATM   23  O   UNL     1       5.156  12.203  88.326  1.00  0.00     0.000 OA
HETATM   24  N   UNL     1       4.683  12.421  90.586  1.00  0.00     0.000 N 
HETATM   25  HN  UNL     1       4.840  12.055  91.518  1.00  0.00     0.000 HD
BRANCH  24  26
HETATM   26  C   UNL     1       3.767  13.526  90.463  1.00  0.00     0.000 C 
BRANCH  26  27
HETATM   27  C   UNL     1       2.372  13.205  91.015  1.00  0.00     0.000 C 
HETATM   28  C   UNL     1       2.411  12.163  92.127  1.00  0.00     0.000 C 
BRANCH  27  29
HETATM   29  O   UNL     1       1.773  14.398  91.519  1.00  0.00     0.000 OA
HETATM   30  H   UNL     1       1.392  14.888  90.771  1.00  0.00     0.000 HD
ENDBRANCH  27  29
ENDBRANCH  26  27
BRANCH  26  31
HETATM   31  C   UNL     1       4.383  14.725  91.176  1.00  0.00     0.000 C 
HETATM   32  O   UNL     1       4.349  14.869  92.396  1.00  0.00     0.000 OA
BRANCH  31  33
HETATM   33  P   UNL     1       4.936  15.624  90.296  1.00  0.00     0.000 P 
HETATM   34  H   UNL     1       4.395  16.865  90.564  1.00  0.00     0.000 HD
BRANCH  33  35
HETATM   35  O   UNL     1       4.733  15.351  88.936  1.00  0.00     0.000 OA
HETATM   36  H   UNL     1       5.469  14.737  88.770  1.00  0.00     0.000 HD
ENDBRANCH  33  35
ENDBRANCH  31  33
ENDBRANCH  26  31
ENDBRANCH  24  26
ENDBRANCH  19  22
ENDBRANCH  15  16
ENDBRANCH  11  14
ENDBRANCH   7   8
ENDBRANCH   2   7
TORSDOF 11
ENDMDL
