MODEL 1
REMARK VINA RESULT:      -6.1      0.000      0.000
REMARK  12 active torsions:
REMARK  status: ('A' for Active; 'I' for Inactive)
REMARK    1  A    between atoms: O_2  and  C_16 
REMARK    2  A    between atoms: N_5  and  C_9 
REMARK    3  A    between atoms: N_6  and  C_13 
REMARK       I    between atoms: N_6  and  C_22 
REMARK    4  A    between atoms: C_9  and  C_12 
REMARK    5  A    between atoms: C_13  and  C_16 
REMARK    6  A    between atoms: C_13  and  C_21 
REMARK    7  A    between atoms: C_19  and  C_24 
REMARK    8  A    between atoms: C_21  and  C_33 
REMARK    9  A    between atoms: C_22  and  C_23 
REMARK   10  A    between atoms: C_27  and  C_30 
REMARK   11  A    between atoms: C_33  and  C_34 
REMARK   12  A    between atoms: C_34  and  C_35 
ROOT
HETATM    1  O   UNL     1      16.495   3.278  93.648  1.00  0.00    -0.350 OA
HETATM    2  N   UNL     1      13.830   2.889  92.726  1.00  0.00     0.147 N 
HETATM    3  C   UNL     1      14.698   1.753  93.068  1.00  0.00     0.283 C 
HETATM    4  C   UNL     1      14.644   4.025  92.271  1.00  0.00     0.283 C 
HETATM    5  C   UNL     1      15.715   2.179  94.124  1.00  0.00     0.178 C 
HETATM    6  C   UNL     1      15.662   4.397  93.344  1.00  0.00     0.178 C 
ENDROOT
BRANCH   2   7
HETATM    7  C   UNL     1      12.854   2.507  91.708  1.00  0.00     0.277 C 
BRANCH   7   8
HETATM    8  C   UNL     1      11.688   3.435  91.662  1.00  0.00     0.011 A 
HETATM    9  C   UNL     1      11.316   4.142  92.805  1.00  0.00    -0.002 A 
HETATM   10  C   UNL     1      10.224   5.009  92.764  1.00  0.00     0.008 A 
HETATM   11  C   UNL     1       9.507   5.170  91.578  1.00  0.00     0.042 A 
HETATM   12  C   UNL     1       9.879   4.465  90.436  1.00  0.00     0.008 A 
HETATM   13  C   UNL     1      10.970   3.597  90.477  1.00  0.00    -0.002 A 
BRANCH  11  14
HETATM   14  C   UNL     1       8.389   6.061  91.535  1.00  0.00    -0.059 C 
HETATM   15  C   UNL     1       7.449   6.810  91.500  1.00  0.00    -0.059 C 
BRANCH  15  16
HETATM   16  C   UNL     1       6.331   7.701  91.457  1.00  0.00     0.042 A 
HETATM   17  C   UNL     1       6.123   8.607  92.498  1.00  0.00     0.008 A 
HETATM   18  C   UNL     1       5.035   9.478  92.455  1.00  0.00     0.005 A 
HETATM   19  C   UNL     1       4.180   9.425  91.373  1.00  0.00     0.056 A 
HETATM   20  C   UNL     1       4.364   8.539  90.333  1.00  0.00     0.005 A 
HETATM   21  C   UNL     1       5.452   7.667  90.375  1.00  0.00     0.008 A 
BRANCH  19  22
HETATM   22  C   UNL     1       3.020  10.352  91.329  1.00  0.00     0.254 C 
HETATM   23  O   UNL     1       1.894   9.895  91.147  1.00  0.00    -0.268 OA
HETATM   24  N   UNL     1       3.307  11.695  91.527  1.00  0.00    -0.335 N 
HETATM   25  HN  UNL     1       4.259  11.997  91.696  1.00  0.00     0.164 HD
BRANCH  24  26
HETATM   26  C   UNL     1       2.287  12.713  91.536  1.00  0.00     0.166 C 
BRANCH  26  27
HETATM   27  C   UNL     1       2.103  13.356  92.917  1.00  0.00     0.138 C 
HETATM   28  C   UNL     1       3.167  12.912  93.914  1.00  0.00     0.034 C 
BRANCH  27  29
HETATM   29  O   UNL     1       2.148  14.777  92.792  1.00  0.00    -0.383 OA
HETATM   30  H   UNL     1       1.661  15.028  91.988  1.00  0.00     0.210 HD
ENDBRANCH  27  29
ENDBRANCH  26  27
BRANCH  26  31
HETATM   31  C   UNL     1       2.658  13.754  90.485  1.00  0.00     0.181 C 
HETATM   32  O   UNL     1       1.922  14.692  90.183  1.00  0.00    -0.294 OA
BRANCH  31  33
HETATM   33  C   UNL     1       4.119  14.397  90.764  1.00  0.00     0.138 C 
BRANCH  33  34
HETATM   34  C   UNL     1       4.665  14.412  89.461  1.00  0.00     0.208 C 
HETATM   35  O   UNL     1       5.278  15.407  89.152  1.00  0.00    -0.289 OA
BRANCH  34  36
HETATM   36  C   UNL     1       4.873  13.391  88.575  1.00  0.00     0.194 C 
HETATM   37  O   UNL     1       5.281  12.070  88.796  1.00  0.00    -0.185 OA
ENDBRANCH  34  36
ENDBRANCH  33  34
ENDBRANCH  31  33
ENDBRANCH  26  31
ENDBRANCH  24  26
ENDBRANCH  19  22
ENDBRANCH  15  16
ENDBRANCH  11  14
ENDBRANCH   7   8
ENDBRANCH   2   7
TORSDOF 12
ENDMDL
MODEL 2
REMARK VINA RESULT:      -6.0      1.510      2.017
REMARK  12 active torsions:
REMARK  status: ('A' for Active; 'I' for Inactive)
REMARK    1  A    between atoms: O_2  and  C_16 
REMARK    2  A    between atoms: N_5  and  C_9 
REMARK    3  A    between atoms: N_6  and  C_13 
REMARK       I    between atoms: N_6  and  C_22 
REMARK    4  A    between atoms: C_9  and  C_12 
REMARK    5  A    between atoms: C_13  and  C_16 
REMARK    6  A    between atoms: C_13  and  C_21 
REMARK    7  A    between atoms: C_19  and  C_24 
REMARK    8  A    between atoms: C_21  and  C_33 
REMARK    9  A    between atoms: C_22  and  C_23 
REMARK   10  A    between atoms: C_27  and  C_30 
REMARK   11  A    between atoms: C_33  and  C_34 
REMARK   12  A    between atoms: C_34  and  C_35 
ROOT
HETATM    1  O   UNL     1      16.111   4.343  93.764  1.00  0.00    -0.350 OA
HETATM    2  N   UNL     1      14.214   2.616  92.530  1.00  0.00     0.147 N 
HETATM    3  C   UNL     1      14.317   4.034  92.159  1.00  0.00     0.283 C 
HETATM    4  C   UNL     1      14.628   2.430  93.928  1.00  0.00     0.283 C 
HETATM    5  C   UNL     1      15.741   4.529  92.396  1.00  0.00     0.178 C 
HETATM    6  C   UNL     1      16.044   2.963  94.124  1.00  0.00     0.178 C 
ENDROOT
BRANCH   2   7
HETATM    7  C   UNL     1      12.854   2.123  92.321  1.00  0.00     0.277 C 
BRANCH   7   8
HETATM    8  C   UNL     1      11.846   3.222  92.317  1.00  0.00     0.011 A 
HETATM    9  C   UNL     1      11.057   3.439  91.187  1.00  0.00    -0.002 A 
HETATM   10  C   UNL     1      10.116   4.468  91.182  1.00  0.00     0.008 A 
HETATM   11  C   UNL     1       9.962   5.277  92.307  1.00  0.00     0.042 A 
HETATM   12  C   UNL     1      10.749   5.060  93.436  1.00  0.00     0.008 A 
HETATM   13  C   UNL     1      11.691   4.032  93.442  1.00  0.00    -0.002 A 
BRANCH  11  14
HETATM   14  C   UNL     1       8.994   6.331  92.302  1.00  0.00    -0.059 C 
HETATM   15  C   UNL     1       8.181   7.216  92.298  1.00  0.00    -0.059 C 
BRANCH  15  16
HETATM   16  C   UNL     1       7.213   8.269  92.294  1.00  0.00     0.042 A 
HETATM   17  C   UNL     1       6.021   8.122  93.003  1.00  0.00     0.008 A 
HETATM   18  C   UNL     1       5.079   9.150  93.001  1.00  0.00     0.005 A 
HETATM   19  C   UNL     1       5.350  10.302  92.292  1.00  0.00     0.056 A 
HETATM   20  C   UNL     1       6.521  10.471  91.583  1.00  0.00     0.005 A 
HETATM   21  C   UNL     1       7.464   9.443  91.584  1.00  0.00     0.008 A 
BRANCH  19  22
HETATM   22  C   UNL     1       4.345  11.396  92.289  1.00  0.00     0.254 C 
HETATM   23  O   UNL     1       3.302  11.255  92.922  1.00  0.00    -0.268 OA
HETATM   24  N   UNL     1       4.686  12.533  91.569  1.00  0.00    -0.335 N 
HETATM   25  HN  UNL     1       5.578  12.589  91.091  1.00  0.00     0.164 HD
BRANCH  24  26
HETATM   26  C   UNL     1       3.828  13.688  91.491  1.00  0.00     0.166 C 
BRANCH  26  27
HETATM   27  C   UNL     1       3.987  14.628  92.692  1.00  0.00     0.138 C 
HETATM   28  C   UNL     1       2.647  15.091  93.253  1.00  0.00     0.034 C 
BRANCH  27  29
HETATM   29  O   UNL     1       4.717  13.965  93.724  1.00  0.00    -0.383 OA
HETATM   30  H   UNL     1       5.169  13.198  93.334  1.00  0.00     0.210 HD
ENDBRANCH  27  29
ENDBRANCH  26  27
BRANCH  26  31
HETATM   31  C   UNL     1       4.133  14.407  90.181  1.00  0.00     0.181 C 
HETATM   32  O   UNL     1       4.300  15.623  90.107  1.00  0.00    -0.294 OA
BRANCH  31  33
HETATM   33  C   UNL     1       5.382  13.730  89.399  1.00  0.00     0.138 C 
BRANCH  33  34
HETATM   34  C   UNL     1       4.737  13.195  88.263  1.00  0.00     0.208 C 
HETATM   35  O   UNL     1       5.033  13.690  87.200  1.00  0.00    -0.289 OA
BRANCH  34  36
HETATM   36  C   UNL     1       4.046  12.025  88.104  1.00  0.00     0.194 C 
HETATM   37  O   UNL     1       4.479  10.698  88.202  1.00  0.00    -0.185 OA
ENDBRANCH  34  36
ENDBRANCH  33  34
ENDBRANCH  31  33
ENDBRANCH  26  31
ENDBRANCH  24  26
ENDBRANCH  19  22
ENDBRANCH  15  16
ENDBRANCH  11  14
ENDBRANCH   7   8
ENDBRANCH   2   7
TORSDOF 12
ENDMDL
MODEL 3
REMARK VINA RESULT:      -4.9      2.915     12.364
REMARK  12 active torsions:
REMARK  status: ('A' for Active; 'I' for Inactive)
REMARK    1  A    between atoms: O_2  and  C_16 
REMARK    2  A    between atoms: N_5  and  C_9 
REMARK    3  A    between atoms: N_6  and  C_13 
REMARK       I    between atoms: N_6  and  C_22 
REMARK    4  A    between atoms: C_9  and  C_12 
REMARK    5  A    between atoms: C_13  and  C_16 
REMARK    6  A    between atoms: C_13  and  C_21 
REMARK    7  A    between atoms: C_19  and  C_24 
REMARK    8  A    between atoms: C_21  and  C_33 
REMARK    9  A    between atoms: C_22  and  C_23 
REMARK   10  A    between atoms: C_27  and  C_30 
REMARK   11  A    between atoms: C_33  and  C_34 
REMARK   12  A    between atoms: C_34  and  C_35 
ROOT
HETATM    1  O   UNL     1       2.977  14.874  94.110  1.00  0.00    -0.350 OA
HETATM    2  N   UNL     1       2.577  14.817  91.292  1.00  0.00     0.147 N 
HETATM    3  C   UNL     1       1.640  14.159  92.214  1.00  0.00     0.283 C 
HETATM    4  C   UNL     1       3.925  14.842  91.877  1.00  0.00     0.283 C 
HETATM    5  C   UNL     1       1.657  14.873  93.563  1.00  0.00     0.178 C 
HETATM    6  C   UNL     1       3.888  15.539  93.233  1.00  0.00     0.178 C 
ENDROOT
BRANCH   2   7
HETATM    7  C   UNL     1       2.585  14.142  89.995  1.00  0.00     0.277 C 
BRANCH   7   8
HETATM    8  C   UNL     1       3.579  13.032  89.939  1.00  0.00     0.011 A 
HETATM    9  C   UNL     1       3.279  11.798  90.517  1.00  0.00    -0.002 A 
HETATM   10  C   UNL     1       4.209  10.760  90.467  1.00  0.00     0.008 A 
HETATM   11  C   UNL     1       5.438  10.956  89.836  1.00  0.00     0.042 A 
HETATM   12  C   UNL     1       5.738  12.187  89.258  1.00  0.00     0.008 A 
HETATM   13  C   UNL     1       4.809  13.226  89.309  1.00  0.00    -0.002 A 
BRANCH  11  14
HETATM   14  C   UNL     1       6.391   9.890  89.783  1.00  0.00    -0.059 C 
HETATM   15  C   UNL     1       7.191   8.994  89.737  1.00  0.00    -0.059 C 
BRANCH  15  16
HETATM   16  C   UNL     1       8.144   7.930  89.683  1.00  0.00     0.042 A 
HETATM   17  C   UNL     1       9.397   8.145  89.107  1.00  0.00     0.008 A 
HETATM   18  C   UNL     1      10.327   7.107  89.057  1.00  0.00     0.005 A 
HETATM   19  C   UNL     1       9.985   5.879  89.584  1.00  0.00     0.056 A 
HETATM   20  C   UNL     1       8.754   5.641  90.159  1.00  0.00     0.005 A 
HETATM   21  C   UNL     1       7.823   6.679  90.209  1.00  0.00     0.008 A 
BRANCH  19  22
HETATM   22  C   UNL     1      10.976   4.773  89.529  1.00  0.00     0.254 C 
HETATM   23  O   UNL     1      11.122   4.150  88.480  1.00  0.00    -0.268 OA
HETATM   24  N   UNL     1      11.696   4.542  90.694  1.00  0.00    -0.335 N 
HETATM   25  HN  UNL     1      11.539   5.115  91.515  1.00  0.00     0.164 HD
BRANCH  24  26
HETATM   26  C   UNL     1      12.708   3.522  90.790  1.00  0.00     0.166 C 
BRANCH  26  27
HETATM   27  C   UNL     1      14.093   4.090  91.129  1.00  0.00     0.138 C 
HETATM   28  C   UNL     1      15.217   3.103  90.833  1.00  0.00     0.034 C 
BRANCH  27  29
HETATM   29  O   UNL     1      14.315   5.284  90.379  1.00  0.00    -0.383 OA
HETATM   30  H   UNL     1      15.274   5.408  90.280  1.00  0.00     0.210 HD
ENDBRANCH  27  29
ENDBRANCH  26  27
BRANCH  26  31
HETATM   31  C   UNL     1      12.253   2.511  91.837  1.00  0.00     0.181 C 
HETATM   32  O   UNL     1      12.794   1.418  91.993  1.00  0.00    -0.294 OA
BRANCH  31  33
HETATM   33  C   UNL     1      12.146   3.177  93.311  1.00  0.00     0.138 C 
BRANCH  33  34
HETATM   34  C   UNL     1      11.001   3.990  93.162  1.00  0.00     0.208 C 
HETATM   35  O   UNL     1      10.028   3.457  92.680  1.00  0.00    -0.289 OA
BRANCH  34  36
HETATM   36  C   UNL     1      10.692   5.200  93.721  1.00  0.00     0.194 C 
HETATM   37  O   UNL     1      10.254   6.387  93.124  1.00  0.00    -0.185 OA
ENDBRANCH  34  36
ENDBRANCH  33  34
ENDBRANCH  31  33
ENDBRANCH  26  31
ENDBRANCH  24  26
ENDBRANCH  19  22
ENDBRANCH  15  16
ENDBRANCH  11  14
ENDBRANCH   7   8
ENDBRANCH   2   7
TORSDOF 12
ENDMDL
MODEL 4
REMARK VINA RESULT:      -3.3      2.326     12.968
REMARK  12 active torsions:
REMARK  status: ('A' for Active; 'I' for Inactive)
REMARK    1  A    between atoms: O_2  and  C_16 
REMARK    2  A    between atoms: N_5  and  C_9 
REMARK    3  A    between atoms: N_6  and  C_13 
REMARK       I    between atoms: N_6  and  C_22 
REMARK    4  A    between atoms: C_9  and  C_12 
REMARK    5  A    between atoms: C_13  and  C_16 
REMARK    6  A    between atoms: C_13  and  C_21 
REMARK    7  A    between atoms: C_19  and  C_24 
REMARK    8  A    between atoms: C_21  and  C_33 
REMARK    9  A    between atoms: C_22  and  C_23 
REMARK   10  A    between atoms: C_27  and  C_30 
REMARK   11  A    between atoms: C_33  and  C_34 
REMARK   12  A    between atoms: C_34  and  C_35 
ROOT
HETATM    1  O   UNL     1       2.488  14.408  93.916  1.00  0.00    -0.350 OA
HETATM    2  N   UNL     1       1.877  13.920  91.179  1.00  0.00     0.147 N 
HETATM    3  C   UNL     1       1.311  13.090  92.252  1.00  0.00     0.283 C 
HETATM    4  C   UNL     1       3.181  14.456  91.592  1.00  0.00     0.283 C 
HETATM    5  C   UNL     1       1.204  13.909  93.536  1.00  0.00     0.178 C 
HETATM    6  C   UNL     1       3.031  15.241  92.891  1.00  0.00     0.178 C 
ENDROOT
BRANCH   2   7
HETATM    7  C   UNL     1       1.999  13.152  89.941  1.00  0.00     0.277 C 
BRANCH   7   8
HETATM    8  C   UNL     1       3.079  12.127  90.012  1.00  0.00     0.011 A 
HETATM    9  C   UNL     1       4.185  12.222  89.167  1.00  0.00    -0.002 A 
HETATM   10  C   UNL     1       5.196  11.262  89.231  1.00  0.00     0.008 A 
HETATM   11  C   UNL     1       5.099  10.210  90.141  1.00  0.00     0.042 A 
HETATM   12  C   UNL     1       3.995  10.114  90.985  1.00  0.00     0.008 A 
HETATM   13  C   UNL     1       2.984  11.073  90.921  1.00  0.00    -0.002 A 
BRANCH  11  14
HETATM   14  C   UNL     1       6.137   9.227  90.208  1.00  0.00    -0.059 C 
HETATM   15  C   UNL     1       7.009   8.401  90.263  1.00  0.00    -0.059 C 
BRANCH  15  16
HETATM   16  C   UNL     1       8.046   7.419  90.331  1.00  0.00     0.042 A 
HETATM   17  C   UNL     1       8.548   7.020  91.570  1.00  0.00     0.008 A 
HETATM   18  C   UNL     1       9.558   6.060  91.635  1.00  0.00     0.005 A 
HETATM   19  C   UNL     1      10.043   5.521  90.462  1.00  0.00     0.056 A 
HETATM   20  C   UNL     1       9.564   5.900  89.225  1.00  0.00     0.005 A 
HETATM   21  C   UNL     1       8.554   6.859  89.158  1.00  0.00     0.008 A 
BRANCH  19  22
HETATM   22  C   UNL     1      11.120   4.500  90.532  1.00  0.00     0.254 C 
HETATM   23  O   UNL     1      11.254   3.705  89.605  1.00  0.00    -0.268 OA
HETATM   24  N   UNL     1      11.926   4.544  91.661  1.00  0.00    -0.335 N 
HETATM   25  HN  UNL     1      11.771   5.246  92.375  1.00  0.00     0.164 HD
BRANCH  24  26
HETATM   26  C   UNL     1      13.027   3.637  91.863  1.00  0.00     0.166 C 
BRANCH  26  27
HETATM   27  C   UNL     1      14.182   3.877  90.882  1.00  0.00     0.138 C 
HETATM   28  C   UNL     1      15.070   5.043  91.301  1.00  0.00     0.034 C 
BRANCH  27  29
HETATM   29  O   UNL     1      14.980   2.698  90.787  1.00  0.00    -0.383 OA
HETATM   30  H   UNL     1      15.504   2.617  91.602  1.00  0.00     0.210 HD
ENDBRANCH  27  29
ENDBRANCH  26  27
BRANCH  26  31
HETATM   31  C   UNL     1      13.489   3.780  93.310  1.00  0.00     0.181 C 
HETATM   32  O   UNL     1      13.069   4.656  94.063  1.00  0.00    -0.294 OA
BRANCH  31  33
HETATM   33  C   UNL     1      13.362   2.384  94.123  1.00  0.00     0.138 C 
BRANCH  33  34
HETATM   34  C   UNL     1      14.702   1.937  94.112  1.00  0.00     0.208 C 
HETATM   35  O   UNL     1      14.873   0.772  93.836  1.00  0.00    -0.289 OA
BRANCH  34  36
HETATM   36  C   UNL     1      15.873   2.644  94.077  1.00  0.00     0.194 C 
HETATM   37  O   UNL     1      16.803   2.802  93.044  1.00  0.00    -0.185 OA
ENDBRANCH  34  36
ENDBRANCH  33  34
ENDBRANCH  31  33
ENDBRANCH  26  31
ENDBRANCH  24  26
ENDBRANCH  19  22
ENDBRANCH  15  16
ENDBRANCH  11  14
ENDBRANCH   7   8
ENDBRANCH   2   7
TORSDOF 12
ENDMDL
