MODEL 1
REMARK VINA RESULT:      -6.6      0.000      0.000
REMARK  10 active torsions:
REMARK  status: ('A' for Active; 'I' for Inactive)
REMARK    1  A    between atoms: O_2  and  C_18 
REMARK    2  A    between atoms: O_5  and  N_8 
REMARK    3  A    between atoms: N_6  and  C_11 
REMARK    4  A    between atoms: N_7  and  C_15 
REMARK       I    between atoms: N_7  and  C_24 
REMARK       I    between atoms: N_8  and  C_23 
REMARK    5  A    between atoms: C_11  and  C_14 
REMARK    6  A    between atoms: C_15  and  C_18 
REMARK    7  A    between atoms: C_15  and  C_23 
REMARK    8  A    between atoms: C_21  and  C_26 
REMARK    9  A    between atoms: C_24  and  C_25 
REMARK   10  A    between atoms: C_29  and  C_32 
ROOT
HETATM    1  O   UNK     0      16.485   3.121  93.715  0.00  0.00    -0.388 OA
HETATM    2  N   UNK     0      13.833   2.790  92.735  0.00  0.00     0.096 N 
HETATM    3  C   UNK     0      14.692   1.635  93.029  0.00  0.00     0.299 C 
HETATM    4  C   UNK     0      14.655   3.945  92.351  0.00  0.00     0.299 C 
HETATM    5  C   UNK     0      15.695   2.001  94.121  0.00  0.00     0.198 C 
HETATM    6  C   UNK     0      15.659   4.257  93.457  0.00  0.00     0.198 C 
ENDROOT
BRANCH   2   7
HETATM    7  C   UNK     0      12.870   2.465  91.684  0.00  0.00     0.311 C 
BRANCH   7   8
HETATM    8  C   UNK     0      11.789   3.485  91.568  0.00  0.00    -0.030 A 
HETATM    9  C   UNK     0      11.206   4.016  92.720  0.00  0.00     0.010 A 
HETATM   10  C   UNK     0      10.193   4.968  92.613  0.00  0.00     0.021 A 
HETATM   11  C   UNK     0       9.765   5.392  91.355  0.00  0.00     0.018 A 
HETATM   12  C   UNK     0      10.347   4.863  90.204  0.00  0.00     0.021 A 
HETATM   13  C   UNK     0      11.360   3.910  90.311  0.00  0.00     0.010 A 
BRANCH  11  14
HETATM   14  C   UNK     0       8.728   6.371  91.245  0.00  0.00    -0.061 C 
HETATM   15  C   UNK     0       7.856   7.194  91.153  0.00  0.00    -0.061 C 
BRANCH  15  16
HETATM   16  C   UNK     0       6.821   8.172  91.044  0.00  0.00     0.018 A 
HETATM   17  C   UNK     0       6.236   8.434  89.804  0.00  0.00     0.022 A 
HETATM   18  C   UNK     0       5.224   9.387  89.698  0.00  0.00     0.018 A 
HETATM   19  C   UNK     0       4.818  10.057  90.833  0.00  0.00     0.032 A 
HETATM   20  C   UNK     0       5.379   9.818  92.070  0.00  0.00     0.018 A 
HETATM   21  C   UNK     0       6.392   8.865  92.176  0.00  0.00     0.022 A 
BRANCH  19  22
HETATM   22  C   UNK     0       3.740  11.074  90.719  0.00  0.00     0.252 C 
HETATM   23  O   UNK     0       2.822  10.889  89.925  0.00  0.00    -0.268 OA
HETATM   24  N   UNK     0       3.849  12.172  91.561  0.00  0.00    -0.341 N 
HETATM   25  H   UNK     0       4.624  12.246  92.211  0.00  0.00     0.163 HD
BRANCH  24  26
HETATM   26  C   UNK     0       2.872  13.231  91.586  0.00  0.00     0.207 C 
BRANCH  26  27
HETATM   27  C   UNK     0       2.740  13.885  92.968  0.00  0.00     0.146 C 
HETATM   28  C   UNK     0       3.941  13.602  93.864  0.00  0.00     0.042 C 
BRANCH  27  29
HETATM   29  O   UNK     0       2.598  15.297  92.815  0.00  0.00    -0.393 OA
HETATM   30  H   UNK     0       3.047  15.562  91.995  0.00  0.00     0.210 HD
ENDBRANCH  27  29
ENDBRANCH  26  27
BRANCH  26  31
HETATM   31  C   UNK     0       3.264  14.252  90.524  0.00  0.00     0.266 C 
HETATM   32  O   UNK     0       2.508  14.603  89.620  0.00  0.00    -0.269 OA
HETATM   33  N   UNK     0       4.557  14.692  90.679  0.00  0.00    -0.236 N 
HETATM   34  H   UNK     0       5.234  14.359  91.355  0.00  0.00     0.197 HD
BRANCH  33  35
HETATM   35  O   UNK     0       5.009  15.607  89.718  0.00  0.00    -0.287 OA
HETATM   36  H   UNK     0       5.016  15.040  88.927  0.00  0.00     0.244 HD
ENDBRANCH  33  35
ENDBRANCH  26  31
ENDBRANCH  24  26
ENDBRANCH  19  22
ENDBRANCH  15  16
ENDBRANCH  11  14
ENDBRANCH   7   8
ENDBRANCH   2   7
TORSDOF 10
ENDMDL
MODEL 2
REMARK VINA RESULT:      -5.4      1.118      2.143
REMARK  10 active torsions:
REMARK  status: ('A' for Active; 'I' for Inactive)
REMARK    1  A    between atoms: O_2  and  C_18 
REMARK    2  A    between atoms: O_5  and  N_8 
REMARK    3  A    between atoms: N_6  and  C_11 
REMARK    4  A    between atoms: N_7  and  C_15 
REMARK       I    between atoms: N_7  and  C_24 
REMARK       I    between atoms: N_8  and  C_23 
REMARK    5  A    between atoms: C_11  and  C_14 
REMARK    6  A    between atoms: C_15  and  C_18 
REMARK    7  A    between atoms: C_15  and  C_23 
REMARK    8  A    between atoms: C_21  and  C_26 
REMARK    9  A    between atoms: C_24  and  C_25 
REMARK   10  A    between atoms: C_29  and  C_32 
ROOT
HETATM    1  O   UNK     0      16.444   3.919  93.608  0.00  0.00    -0.388 OA
HETATM    2  N   UNK     0      13.993   2.648  92.913  0.00  0.00     0.096 N 
HETATM    3  C   UNK     0      15.285   2.144  92.426  0.00  0.00     0.299 C 
HETATM    4  C   UNK     0      14.070   4.098  93.136  0.00  0.00     0.299 C 
HETATM    5  C   UNK     0      16.388   2.504  93.419  0.00  0.00     0.198 C 
HETATM    6  C   UNK     0      15.201   4.413  94.111  0.00  0.00     0.198 C 
ENDROOT
BRANCH   2   7
HETATM    7  C   UNK     0      12.923   2.324  91.972  0.00  0.00     0.311 C 
BRANCH   7   8
HETATM    8  C   UNK     0      11.918   3.418  91.855  0.00  0.00    -0.030 A 
HETATM    9  C   UNK     0      11.766   4.099  90.647  0.00  0.00     0.010 A 
HETATM   10  C   UNK     0      10.827   5.124  90.537  0.00  0.00     0.021 A 
HETATM   11  C   UNK     0      10.039   5.467  91.636  0.00  0.00     0.018 A 
HETATM   12  C   UNK     0      10.190   4.789  92.843  0.00  0.00     0.021 A 
HETATM   13  C   UNK     0      11.129   3.763  92.953  0.00  0.00     0.010 A 
BRANCH  11  14
HETATM   14  C   UNK     0       9.075   6.518  91.523  0.00  0.00    -0.061 C 
HETATM   15  C   UNK     0       8.264   7.401  91.427  0.00  0.00    -0.061 C 
BRANCH  15  16
HETATM   16  C   UNK     0       7.302   8.451  91.314  0.00  0.00     0.018 A 
HETATM   17  C   UNK     0       6.755   8.763  90.068  0.00  0.00     0.022 A 
HETATM   18  C   UNK     0       5.814   9.787  89.958  0.00  0.00     0.018 A 
HETATM   19  C   UNK     0       5.440  10.475  91.093  0.00  0.00     0.032 A 
HETATM   20  C   UNK     0       5.966  10.186  92.335  0.00  0.00     0.018 A 
HETATM   21  C   UNK     0       6.907   9.163  92.446  0.00  0.00     0.022 A 
BRANCH  19  22
HETATM   22  C   UNK     0       4.439  11.567  90.974  0.00  0.00     0.252 C 
HETATM   23  O   UNK     0       3.273  11.285  90.711  0.00  0.00    -0.268 OA
HETATM   24  N   UNK     0       4.912  12.852  91.200  0.00  0.00    -0.341 N 
HETATM   25  H   UNK     0       5.885  13.006  91.438  0.00  0.00     0.163 HD
BRANCH  24  26
HETATM   26  C   UNK     0       4.059  14.012  91.145  0.00  0.00     0.207 C 
BRANCH  26  27
HETATM   27  C   UNK     0       3.741  14.448  89.709  0.00  0.00     0.146 C 
HETATM   28  C   UNK     0       4.998  14.701  88.884  0.00  0.00     0.042 C 
BRANCH  27  29
HETATM   29  O   UNK     0       2.960  13.441  89.067  0.00  0.00    -0.393 OA
HETATM   30  H   UNK     0       2.959  12.650  89.632  0.00  0.00     0.210 HD
ENDBRANCH  27  29
ENDBRANCH  26  27
BRANCH  26  31
HETATM   31  C   UNK     0       2.787  13.693  91.923  0.00  0.00     0.266 C 
HETATM   32  O   UNK     0       1.660  13.885  91.470  0.00  0.00    -0.269 OA
HETATM   33  N   UNK     0       3.054  13.210  93.181  0.00  0.00    -0.236 N 
HETATM   34  H   UNK     0       3.965  13.124  93.616  0.00  0.00     0.197 HD
BRANCH  33  35
HETATM   35  O   UNK     0       1.935  12.926  93.976  0.00  0.00    -0.287 OA
HETATM   36  H   UNK     0       1.221  13.202  93.377  0.00  0.00     0.244 HD
ENDBRANCH  33  35
ENDBRANCH  26  31
ENDBRANCH  24  26
ENDBRANCH  19  22
ENDBRANCH  15  16
ENDBRANCH  11  14
ENDBRANCH   7   8
ENDBRANCH   2   7
TORSDOF 10
ENDMDL
MODEL 3
REMARK VINA RESULT:      -5.3      1.897     12.588
REMARK  10 active torsions:
REMARK  status: ('A' for Active; 'I' for Inactive)
REMARK    1  A    between atoms: O_2  and  C_18 
REMARK    2  A    between atoms: O_5  and  N_8 
REMARK    3  A    between atoms: N_6  and  C_11 
REMARK    4  A    between atoms: N_7  and  C_15 
REMARK       I    between atoms: N_7  and  C_24 
REMARK       I    between atoms: N_8  and  C_23 
REMARK    5  A    between atoms: C_11  and  C_14 
REMARK    6  A    between atoms: C_15  and  C_18 
REMARK    7  A    between atoms: C_15  and  C_23 
REMARK    8  A    between atoms: C_21  and  C_26 
REMARK    9  A    between atoms: C_24  and  C_25 
REMARK   10  A    between atoms: C_29  and  C_32 
ROOT
HETATM    1  O   UNK     0       5.630  14.884  89.066  0.00  0.00    -0.388 OA
HETATM    2  N   UNK     0       3.697  13.342  90.475  0.00  0.00     0.096 N 
HETATM    3  C   UNK     0       4.340  14.513  91.087  0.00  0.00     0.299 C 
HETATM    4  C   UNK     0       4.599  12.730  89.491  0.00  0.00     0.299 C 
HETATM    5  C   UNK     0       4.748  15.506  90.002  0.00  0.00     0.198 C 
HETATM    6  C   UNK     0       5.001  13.764  88.443  0.00  0.00     0.198 C 
ENDROOT
BRANCH   2   7
HETATM    7  C   UNK     0       3.307  12.372  91.496  0.00  0.00     0.311 C 
BRANCH   7   8
HETATM    8  C   UNK     0       4.329  11.304  91.684  0.00  0.00    -0.030 A 
HETATM    9  C   UNK     0       5.371  11.488  92.594  0.00  0.00     0.010 A 
HETATM   10  C   UNK     0       6.329  10.490  92.769  0.00  0.00     0.021 A 
HETATM   11  C   UNK     0       6.244   9.307  92.036  0.00  0.00     0.018 A 
HETATM   12  C   UNK     0       5.204   9.121  91.127  0.00  0.00     0.021 A 
HETATM   13  C   UNK     0       4.246  10.120  90.951  0.00  0.00     0.010 A 
BRANCH  11  14
HETATM   14  C   UNK     0       7.225   8.282  92.217  0.00  0.00    -0.061 C 
HETATM   15  C   UNK     0       8.050   7.420  92.369  0.00  0.00    -0.061 C 
BRANCH  15  16
HETATM   16  C   UNK     0       9.030   6.396  92.551  0.00  0.00     0.018 A 
HETATM   17  C   UNK     0       9.740   6.316  93.749  0.00  0.00     0.022 A 
HETATM   18  C   UNK     0      10.695   5.315  93.928  0.00  0.00     0.018 A 
HETATM   19  C   UNK     0      10.918   4.416  92.906  0.00  0.00     0.032 A 
HETATM   20  C   UNK     0      10.230   4.474  91.712  0.00  0.00     0.018 A 
HETATM   21  C   UNK     0       9.275   5.475  91.533  0.00  0.00     0.022 A 
BRANCH  19  22
HETATM   22  C   UNK     0      11.936   3.351  93.096  0.00  0.00     0.252 C 
HETATM   23  O   UNK     0      11.682   2.206  92.731  0.00  0.00    -0.268 OA
HETATM   24  N   UNK     0      13.137   3.753  93.665  0.00  0.00    -0.341 N 
HETATM   25  H   UNK     0      13.285   4.723  93.918  0.00  0.00     0.163 HD
BRANCH  24  26
HETATM   26  C   UNK     0      14.231   2.843  93.891  0.00  0.00     0.207 C 
BRANCH  26  27
HETATM   27  C   UNK     0      14.349   1.774  92.797  0.00  0.00     0.146 C 
HETATM   28  C   UNK     0      15.157   2.253  91.597  0.00  0.00     0.042 C 
BRANCH  27  29
HETATM   29  O   UNK     0      14.968   0.606  93.336  0.00  0.00    -0.393 OA
HETATM   30  H   UNK     0      14.645  -0.166  92.842  0.00  0.00     0.210 HD
ENDBRANCH  27  29
ENDBRANCH  26  27
BRANCH  26  31
HETATM   31  C   UNK     0      15.509   3.668  93.999  0.00  0.00     0.266 C 
HETATM   32  O   UNK     0      16.623   3.164  94.123  0.00  0.00    -0.269 OA
HETATM   33  N   UNK     0      15.258   5.019  93.982  0.00  0.00    -0.236 N 
HETATM   34  H   UNK     0      14.349   5.467  93.971  0.00  0.00     0.197 HD
BRANCH  33  35
HETATM   35  O   UNK     0      16.379   5.850  94.116  0.00  0.00    -0.287 OA
HETATM   36  H   UNK     0      16.006   6.559  94.667  0.00  0.00     0.244 HD
ENDBRANCH  33  35
ENDBRANCH  26  31
ENDBRANCH  24  26
ENDBRANCH  19  22
ENDBRANCH  15  16
ENDBRANCH  11  14
ENDBRANCH   7   8
ENDBRANCH   2   7
TORSDOF 10
ENDMDL
MODEL 4
REMARK VINA RESULT:      -4.9      1.879     12.716
REMARK  10 active torsions:
REMARK  status: ('A' for Active; 'I' for Inactive)
REMARK    1  A    between atoms: O_2  and  C_18 
REMARK    2  A    between atoms: O_5  and  N_8 
REMARK    3  A    between atoms: N_6  and  C_11 
REMARK    4  A    between atoms: N_7  and  C_15 
REMARK       I    between atoms: N_7  and  C_24 
REMARK       I    between atoms: N_8  and  C_23 
REMARK    5  A    between atoms: C_11  and  C_14 
REMARK    6  A    between atoms: C_15  and  C_18 
REMARK    7  A    between atoms: C_15  and  C_23 
REMARK    8  A    between atoms: C_21  and  C_26 
REMARK    9  A    between atoms: C_24  and  C_25 
REMARK   10  A    between atoms: C_29  and  C_32 
ROOT
HETATM    1  O   UNK     0       5.253  14.478  88.947  0.00  0.00    -0.388 OA
HETATM    2  N   UNK     0       3.462  13.065  90.651  0.00  0.00     0.096 N 
HETATM    3  C   UNK     0       4.257  14.199  91.143  0.00  0.00     0.299 C 
HETATM    4  C   UNK     0       4.171  12.392  89.554  0.00  0.00     0.299 C 
HETATM    5  C   UNK     0       4.557  15.158  89.994  0.00  0.00     0.198 C 
HETATM    6  C   UNK     0       4.473  13.393  88.442  0.00  0.00     0.198 C 
ENDROOT
BRANCH   2   7
HETATM    7  C   UNK     0       3.172  12.127  91.734  0.00  0.00     0.311 C 
BRANCH   7   8
HETATM    8  C   UNK     0       4.230  11.087  91.883  0.00  0.00    -0.030 A 
HETATM    9  C   UNK     0       4.032   9.811  91.354  0.00  0.00     0.010 A 
HETATM   10  C   UNK     0       5.020   8.837  91.495  0.00  0.00     0.021 A 
HETATM   11  C   UNK     0       6.206   9.140  92.163  0.00  0.00     0.018 A 
HETATM   12  C   UNK     0       6.405  10.413  92.692  0.00  0.00     0.021 A 
HETATM   13  C   UNK     0       5.417  11.388  92.552  0.00  0.00     0.010 A 
BRANCH  11  14
HETATM   14  C   UNK     0       7.220   8.141  92.306  0.00  0.00    -0.061 C 
HETATM   15  C   UNK     0       8.073   7.301  92.427  0.00  0.00    -0.061 C 
BRANCH  15  16
HETATM   16  C   UNK     0       9.086   6.304  92.569  0.00  0.00     0.018 A 
HETATM   17  C   UNK     0       9.389   5.461  91.499  0.00  0.00     0.022 A 
HETATM   18  C   UNK     0      10.380   4.489  91.637  0.00  0.00     0.018 A 
HETATM   19  C   UNK     0      11.047   4.382  92.840  0.00  0.00     0.032 A 
HETATM   20  C   UNK     0      10.767   5.203  93.912  0.00  0.00     0.018 A 
HETATM   21  C   UNK     0       9.775   6.175  93.775  0.00  0.00     0.022 A 
BRANCH  19  22
HETATM   22  C   UNK     0      12.101   3.346  92.987  0.00  0.00     0.252 C 
HETATM   23  O   UNK     0      11.954   2.259  92.434  0.00  0.00    -0.268 OA
HETATM   24  N   UNK     0      13.210   3.709  93.739  0.00  0.00    -0.341 N 
HETATM   25  H   UNK     0      13.273   4.635  94.145  0.00  0.00     0.163 HD
BRANCH  24  26
HETATM   26  C   UNK     0      14.326   2.823  93.952  0.00  0.00     0.207 C 
BRANCH  26  27
HETATM   27  C   UNK     0      14.408   1.708  92.901  0.00  0.00     0.146 C 
HETATM   28  C   UNK     0      15.282   2.091  91.712  0.00  0.00     0.042 C 
BRANCH  27  29
HETATM   29  O   UNK     0      14.935   0.525  93.501  0.00  0.00    -0.393 OA
HETATM   30  H   UNK     0      14.302   0.216  94.171  0.00  0.00     0.210 HD
ENDBRANCH  27  29
ENDBRANCH  26  27
BRANCH  26  31
HETATM   31  C   UNK     0      15.596   3.668  93.965  0.00  0.00     0.266 C 
HETATM   32  O   UNK     0      15.589   4.888  93.815  0.00  0.00    -0.269 OA
HETATM   33  N   UNK     0      16.726   2.903  94.124  0.00  0.00    -0.236 N 
HETATM   34  H   UNK     0      16.774   1.892  94.161  0.00  0.00     0.197 HD
BRANCH  33  35
HETATM   35  O   UNK     0      17.942   3.602  94.109  0.00  0.00    -0.287 OA
HETATM   36  H   UNK     0      18.176   3.565  95.052  0.00  0.00     0.244 HD
ENDBRANCH  33  35
ENDBRANCH  26  31
ENDBRANCH  24  26
ENDBRANCH  19  22
ENDBRANCH  15  16
ENDBRANCH  11  14
ENDBRANCH   7   8
ENDBRANCH   2   7
TORSDOF 10
ENDMDL
MODEL 5
REMARK VINA RESULT:      -4.6      1.955     12.780
REMARK  10 active torsions:
REMARK  status: ('A' for Active; 'I' for Inactive)
REMARK    1  A    between atoms: O_2  and  C_18 
REMARK    2  A    between atoms: O_5  and  N_8 
REMARK    3  A    between atoms: N_6  and  C_11 
REMARK    4  A    between atoms: N_7  and  C_15 
REMARK       I    between atoms: N_7  and  C_24 
REMARK       I    between atoms: N_8  and  C_23 
REMARK    5  A    between atoms: C_11  and  C_14 
REMARK    6  A    between atoms: C_15  and  C_18 
REMARK    7  A    between atoms: C_15  and  C_23 
REMARK    8  A    between atoms: C_21  and  C_26 
REMARK    9  A    between atoms: C_24  and  C_25 
REMARK   10  A    between atoms: C_29  and  C_32 
ROOT
HETATM    1  O   UNK     0       1.679  13.171  92.956  0.00  0.00    -0.388 OA
HETATM    2  N   UNK     0       2.730  12.623  90.368  0.00  0.00     0.096 N 
HETATM    3  C   UNK     0       2.822  11.642  91.457  0.00  0.00     0.299 C 
HETATM    4  C   UNK     0       2.712  13.985  90.917  0.00  0.00     0.299 C 
HETATM    5  C   UNK     0       1.665  11.841  92.432  0.00  0.00     0.198 C 
HETATM    6  C   UNK     0       1.558  14.130  91.905  0.00  0.00     0.198 C 
ENDROOT
BRANCH   2   7
HETATM    7  C   UNK     0       3.836  12.457  89.426  0.00  0.00     0.311 C 
BRANCH   7   8
HETATM    8  C   UNK     0       4.797  11.403  89.859  0.00  0.00    -0.030 A 
HETATM    9  C   UNK     0       5.636  11.631  90.950  0.00  0.00     0.010 A 
HETATM   10  C   UNK     0       6.537  10.645  91.354  0.00  0.00     0.021 A 
HETATM   11  C   UNK     0       6.596   9.432  90.669  0.00  0.00     0.018 A 
HETATM   12  C   UNK     0       5.758   9.204  89.580  0.00  0.00     0.021 A 
HETATM   13  C   UNK     0       4.857  10.189  89.175  0.00  0.00     0.010 A 
BRANCH  11  14
HETATM   14  C   UNK     0       7.518   8.421  91.086  0.00  0.00    -0.061 C 
HETATM   15  C   UNK     0       8.294   7.572  91.436  0.00  0.00    -0.061 C 
BRANCH  15  16
HETATM   16  C   UNK     0       9.216   6.562  91.850  0.00  0.00     0.018 A 
HETATM   17  C   UNK     0       9.516   6.406  93.204  0.00  0.00     0.022 A 
HETATM   18  C   UNK     0      10.414   5.419  93.609  0.00  0.00     0.018 A 
HETATM   19  C   UNK     0      10.992   4.610  92.653  0.00  0.00     0.032 A 
HETATM   20  C   UNK     0      10.712   4.743  91.310  0.00  0.00     0.018 A 
HETATM   21  C   UNK     0       9.815   5.731  90.904  0.00  0.00     0.022 A 
BRANCH  19  22
HETATM   22  C   UNK     0      11.950   3.560  93.086  0.00  0.00     0.252 C 
HETATM   23  O   UNK     0      11.608   2.380  93.043  0.00  0.00    -0.268 OA
HETATM   24  N   UNK     0      13.200   4.007  93.492  0.00  0.00    -0.341 N 
HETATM   25  H   UNK     0      13.420   4.996  93.477  0.00  0.00     0.163 HD
BRANCH  24  26
HETATM   26  C   UNK     0      14.244   3.110  93.916  0.00  0.00     0.207 C 
BRANCH  26  27
HETATM   27  C   UNK     0      14.324   1.843  93.055  0.00  0.00     0.146 C 
HETATM   28  C   UNK     0      15.070   2.073  91.746  0.00  0.00     0.042 C 
BRANCH  27  29
HETATM   29  O   UNK     0      14.982   0.809  93.788  0.00  0.00    -0.393 OA
HETATM   30  H   UNK     0      14.584  -0.042  93.537  0.00  0.00     0.210 HD
ENDBRANCH  27  29
ENDBRANCH  26  27
BRANCH  26  31
HETATM   31  C   UNK     0      15.560   3.881  93.890  0.00  0.00     0.266 C 
HETATM   32  O   UNK     0      15.616   5.105  93.783  0.00  0.00    -0.269 OA
HETATM   33  N   UNK     0      16.651   3.050  93.962  0.00  0.00    -0.236 N 
HETATM   34  H   UNK     0      16.642   2.036  93.962  0.00  0.00     0.197 HD
BRANCH  33  35
HETATM   35  O   UNK     0      17.902   3.679  93.906  0.00  0.00    -0.287 OA
HETATM   36  H   UNK     0      18.027   3.734  92.943  0.00  0.00     0.244 HD
ENDBRANCH  33  35
ENDBRANCH  26  31
ENDBRANCH  24  26
ENDBRANCH  19  22
ENDBRANCH  15  16
ENDBRANCH  11  14
ENDBRANCH   7   8
ENDBRANCH   2   7
TORSDOF 10
ENDMDL
MODEL 6
REMARK VINA RESULT:      -4.3      1.902     12.547
REMARK  10 active torsions:
REMARK  status: ('A' for Active; 'I' for Inactive)
REMARK    1  A    between atoms: O_2  and  C_18 
REMARK    2  A    between atoms: O_5  and  N_8 
REMARK    3  A    between atoms: N_6  and  C_11 
REMARK    4  A    between atoms: N_7  and  C_15 
REMARK       I    between atoms: N_7  and  C_24 
REMARK       I    between atoms: N_8  and  C_23 
REMARK    5  A    between atoms: C_11  and  C_14 
REMARK    6  A    between atoms: C_15  and  C_18 
REMARK    7  A    between atoms: C_15  and  C_23 
REMARK    8  A    between atoms: C_21  and  C_26 
REMARK    9  A    between atoms: C_24  and  C_25 
REMARK   10  A    between atoms: C_29  and  C_32 
ROOT
HETATM    1  O   UNK     0       4.524  15.587  92.131  0.00  0.00    -0.388 OA
HETATM    2  N   UNK     0       3.278  13.740  90.360  0.00  0.00     0.096 N 
HETATM    3  C   UNK     0       2.855  13.865  91.761  0.00  0.00     0.299 C 
HETATM    4  C   UNK     0       4.699  14.089  90.230  0.00  0.00     0.299 C 
HETATM    5  C   UNK     0       3.135  15.279  92.262  0.00  0.00     0.198 C 
HETATM    6  C   UNK     0       4.936  15.498  90.766  0.00  0.00     0.198 C 
ENDROOT
BRANCH   2   7
HETATM    7  C   UNK     0       3.029  12.388  89.862  0.00  0.00     0.311 C 
BRANCH   7   8
HETATM    8  C   UNK     0       4.108  11.434  90.244  0.00  0.00    -0.030 A 
HETATM    9  C   UNK     0       3.978  10.661  91.399  0.00  0.00     0.010 A 
HETATM   10  C   UNK     0       4.989   9.770  91.759  0.00  0.00     0.021 A 
HETATM   11  C   UNK     0       6.128   9.650  90.963  0.00  0.00     0.018 A 
HETATM   12  C   UNK     0       6.258  10.421  89.810  0.00  0.00     0.021 A 
HETATM   13  C   UNK     0       5.249  11.313  89.450  0.00  0.00     0.010 A 
BRANCH  11  14
HETATM   14  C   UNK     0       7.163   8.734  91.331  0.00  0.00    -0.061 C 
HETATM   15  C   UNK     0       8.034   7.964  91.640  0.00  0.00    -0.061 C 
BRANCH  15  16
HETATM   16  C   UNK     0       9.068   7.049  92.007  0.00  0.00     0.018 A 
HETATM   17  C   UNK     0       9.845   6.444  91.018  0.00  0.00     0.022 A 
HETATM   18  C   UNK     0      10.857   5.552  91.376  0.00  0.00     0.018 A 
HETATM   19  C   UNK     0      11.069   5.285  92.712  0.00  0.00     0.032 A 
HETATM   20  C   UNK     0      10.314   5.869  93.708  0.00  0.00     0.018 A 
HETATM   21  C   UNK     0       9.302   6.761  93.351  0.00  0.00     0.022 A 
BRANCH  19  22
HETATM   22  C   UNK     0      12.144   4.334  93.092  0.00  0.00     0.252 C 
HETATM   23  O   UNK     0      11.995   3.623  94.083  0.00  0.00    -0.268 OA
HETATM   24  N   UNK     0      13.254   4.306  92.258  0.00  0.00    -0.341 N 
HETATM   25  H   UNK     0      13.297   4.904  91.442  0.00  0.00     0.163 HD
BRANCH  24  26
HETATM   26  C   UNK     0      14.368   3.420  92.480  0.00  0.00     0.207 C 
BRANCH  26  27
HETATM   27  C   UNK     0      15.155   3.762  93.752  0.00  0.00     0.146 C 
HETATM   28  C   UNK     0      16.469   2.995  93.849  0.00  0.00     0.042 C 
BRANCH  27  29
HETATM   29  O   UNK     0      15.432   5.162  93.780  0.00  0.00    -0.393 OA
HETATM   30  H   UNK     0      15.042   5.566  92.986  0.00  0.00     0.210 HD
ENDBRANCH  27  29
ENDBRANCH  26  27
BRANCH  26  31
HETATM   31  C   UNK     0      13.828   1.994  92.528  0.00  0.00     0.266 C 
HETATM   32  O   UNK     0      14.418   1.073  93.091  0.00  0.00    -0.269 OA
HETATM   33  N   UNK     0      12.643   1.865  91.845  0.00  0.00    -0.236 N 
HETATM   34  H   UNK     0      12.177   2.579  91.297  0.00  0.00     0.197 HD
BRANCH  33  35
HETATM   35  O   UNK     0      12.097   0.574  91.809  0.00  0.00    -0.287 OA
HETATM   36  H   UNK     0      12.223   0.358  90.869  0.00  0.00     0.244 HD
ENDBRANCH  33  35
ENDBRANCH  26  31
ENDBRANCH  24  26
ENDBRANCH  19  22
ENDBRANCH  15  16
ENDBRANCH  11  14
ENDBRANCH   7   8
ENDBRANCH   2   7
TORSDOF 10
ENDMDL
MODEL 7
REMARK VINA RESULT:      -3.9      1.842     12.576
REMARK  10 active torsions:
REMARK  status: ('A' for Active; 'I' for Inactive)
REMARK    1  A    between atoms: O_2  and  C_18 
REMARK    2  A    between atoms: O_5  and  N_8 
REMARK    3  A    between atoms: N_6  and  C_11 
REMARK    4  A    between atoms: N_7  and  C_15 
REMARK       I    between atoms: N_7  and  C_24 
REMARK       I    between atoms: N_8  and  C_23 
REMARK    5  A    between atoms: C_11  and  C_14 
REMARK    6  A    between atoms: C_15  and  C_18 
REMARK    7  A    between atoms: C_15  and  C_23 
REMARK    8  A    between atoms: C_21  and  C_26 
REMARK    9  A    between atoms: C_24  and  C_25 
REMARK   10  A    between atoms: C_29  and  C_32 
ROOT
HETATM    1  O   UNK     0       4.552  15.399  92.035  0.00  0.00    -0.388 OA
HETATM    2  N   UNK     0       3.188  13.726  90.180  0.00  0.00     0.096 N 
HETATM    3  C   UNK     0       3.054  13.533  91.631  0.00  0.00     0.299 C 
HETATM    4  C   UNK     0       4.500  14.308  89.869  0.00  0.00     0.299 C 
HETATM    5  C   UNK     0       3.266  14.863  92.350  0.00  0.00     0.198 C 
HETATM    6  C   UNK     0       4.679  15.619  90.630  0.00  0.00     0.198 C 
ENDROOT
BRANCH   2   7
HETATM    7  C   UNK     0       2.999  12.462  89.470  0.00  0.00     0.311 C 
BRANCH   7   8
HETATM    8  C   UNK     0       4.099  11.492  89.736  0.00  0.00    -0.030 A 
HETATM    9  C   UNK     0       3.878  10.401  90.578  0.00  0.00     0.010 A 
HETATM   10  C   UNK     0       4.907   9.494  90.829  0.00  0.00     0.021 A 
HETATM   11  C   UNK     0       6.156   9.676  90.236  0.00  0.00     0.018 A 
HETATM   12  C   UNK     0       6.378  10.764  89.394  0.00  0.00     0.021 A 
HETATM   13  C   UNK     0       5.349  11.672  89.144  0.00  0.00     0.010 A 
BRANCH  11  14
HETATM   14  C   UNK     0       7.211   8.744  90.491  0.00  0.00    -0.061 C 
HETATM   15  C   UNK     0       8.098   7.961  90.706  0.00  0.00    -0.061 C 
BRANCH  15  16
HETATM   16  C   UNK     0       9.151   7.030  90.963  0.00  0.00     0.018 A 
HETATM   17  C   UNK     0       9.499   6.717  92.278  0.00  0.00     0.022 A 
HETATM   18  C   UNK     0      10.526   5.807  92.529  0.00  0.00     0.018 A 
HETATM   19  C   UNK     0      11.181   5.230  91.461  0.00  0.00     0.032 A 
HETATM   20  C   UNK     0      10.856   5.522  90.153  0.00  0.00     0.018 A 
HETATM   21  C   UNK     0       9.830   6.433  89.901  0.00  0.00     0.022 A 
BRANCH  19  22
HETATM   22  C   UNK     0      12.276   4.262  91.729  0.00  0.00     0.252 C 
HETATM   23  O   UNK     0      12.969   3.867  90.795  0.00  0.00    -0.268 OA
HETATM   24  N   UNK     0      12.448   3.890  93.055  0.00  0.00    -0.341 N 
HETATM   25  H   UNK     0      11.852   4.277  93.777  0.00  0.00     0.163 HD
BRANCH  24  26
HETATM   26  C   UNK     0      13.481   2.979  93.477  0.00  0.00     0.207 C 
BRANCH  26  27
HETATM   27  C   UNK     0      13.705   1.833  92.483  0.00  0.00     0.146 C 
HETATM   28  C   UNK     0      14.459   0.662  93.102  0.00  0.00     0.042 C 
BRANCH  27  29
HETATM   29  O   UNK     0      12.446   1.369  91.998  0.00  0.00    -0.393 OA
HETATM   30  H   UNK     0      11.896   2.143  91.787  0.00  0.00     0.210 HD
ENDBRANCH  27  29
ENDBRANCH  26  27
BRANCH  26  31
HETATM   31  C   UNK     0      14.757   3.788  93.688  0.00  0.00     0.266 C 
HETATM   32  O   UNK     0      14.754   4.994  93.927  0.00  0.00    -0.269 OA
HETATM   33  N   UNK     0      15.887   3.021  93.542  0.00  0.00    -0.236 N 
HETATM   34  H   UNK     0      15.929   2.049  93.258  0.00  0.00     0.197 HD
BRANCH  33  35
HETATM   35  O   UNK     0      17.107   3.699  93.682  0.00  0.00    -0.287 OA
HETATM   36  H   UNK     0      17.481   3.227  94.446  0.00  0.00     0.244 HD
ENDBRANCH  33  35
ENDBRANCH  26  31
ENDBRANCH  24  26
ENDBRANCH  19  22
ENDBRANCH  15  16
ENDBRANCH  11  14
ENDBRANCH   7   8
ENDBRANCH   2   7
TORSDOF 10
ENDMDL
