MODEL 1
REMARK VINA RESULT:      -7.5      0.000      0.000
REMARK  9 active torsions:
REMARK  status: ('A' for Active; 'I' for Inactive)
REMARK    1  A    between atoms: N_3  and  C_6 
REMARK    2  A    between atoms: C_6  and  C_9 
REMARK    3  A    between atoms: C_14  and  C_17 
REMARK       I    between atoms: N_26  and  C_15 
REMARK    4  A    between atoms: C_15  and  C_16 
REMARK    5  A    between atoms: C_20  and  C_23 
REMARK    6  A    between atoms: OG1_24  and  CB_28 
REMARK    7  A    between atoms: N_26  and  CA_27 
REMARK    8  A    between atoms: CA_27  and  CB_28 
REMARK    9  A    between atoms: CA_27  and  C_30 
ROOT
HETATM    1  O   UNK A   0       1.919   8.136  87.830  1.00  0.00    -0.388 OA
HETATM    2  N   UNK A   0       4.699   7.547  87.658  1.00  0.00     0.096 N 
HETATM    3  C   UNK A   0       4.212   8.930  87.759  1.00  0.00     0.299 C 
HETATM    4  C   UNK A   0       3.692   6.706  86.996  1.00  0.00     0.299 C 
HETATM    5  C   UNK A   0       2.879   8.955  88.502  1.00  0.00     0.198 C 
HETATM    6  C   UNK A   0       2.372   6.784  87.755  1.00  0.00     0.198 C 
ENDROOT
BRANCH   2   7
HETATM    7  C   UNK A   0       5.971   7.498  86.940  1.00  0.00     0.311 C 
BRANCH   7   8
HETATM    8  C   UNK A   0       7.064   6.903  87.760  1.00  0.00    -0.030 A 
HETATM    9  C   UNK A   0       8.323   6.692  87.197  1.00  0.00     0.010 A 
HETATM   10  C   UNK A   0       9.346   6.133  87.963  1.00  0.00     0.021 A 
HETATM   11  C   UNK A   0       9.109   5.788  89.293  1.00  0.00     0.018 A 
HETATM   12  C   UNK A   0       7.853   5.998  89.858  1.00  0.00     0.021 A 
HETATM   13  C   UNK A   0       6.830   6.556  89.091  1.00  0.00     0.010 A 
BRANCH  11  14
HETATM   14  C   UNK A   0      10.159   5.217  90.080  1.00  0.00    -0.061 C 
HETATM   15  C   UNK A   0      11.041   4.737  90.742  1.00  0.00    -0.061 C 
BRANCH  15  16
HETATM   16  C   UNK A   0      12.090   4.165  91.528  1.00  0.00     0.018 A 
HETATM   17  C   UNK A   0      11.842   3.780  92.845  1.00  0.00     0.022 A 
HETATM   18  C   UNK A   0      12.864   3.220  93.611  1.00  0.00     0.018 A 
HETATM   19  C   UNK A   0      14.110   3.058  93.043  1.00  0.00     0.032 A 
HETATM   20  C   UNK A   0      14.381   3.430  91.743  1.00  0.00     0.018 A 
HETATM   21  C   UNK A   0      13.359   3.991  90.976  1.00  0.00     0.022 A 
BRANCH  19  22
HETATM   22  C   UNK A   0      15.200   2.463  93.859  1.00  0.00     0.252 C 
HETATM   23  O   UNK A   0      16.367   2.749  93.602  1.00  0.00    -0.268 OA
ENDBRANCH  19  22
ENDBRANCH  15  16
ENDBRANCH  11  14
ENDBRANCH   7   8
ENDBRANCH   2   7
TORSDOF 9
ENDMDL
MODEL 2
REMARK VINA RESULT:      -7.5      0.087      1.011
REMARK  9 active torsions:
REMARK  status: ('A' for Active; 'I' for Inactive)
REMARK    1  A    between atoms: N_3  and  C_6 
REMARK    2  A    between atoms: C_6  and  C_9 
REMARK    3  A    between atoms: C_14  and  C_17 
REMARK       I    between atoms: N_26  and  C_15 
REMARK    4  A    between atoms: C_15  and  C_16 
REMARK    5  A    between atoms: C_20  and  C_23 
REMARK    6  A    between atoms: OG1_24  and  CB_28 
REMARK    7  A    between atoms: N_26  and  CA_27 
REMARK    8  A    between atoms: CA_27  and  CB_28 
REMARK    9  A    between atoms: CA_27  and  C_30 
ROOT
HETATM    1  O   UNK A   0       1.829   8.011  87.845  1.00  0.00    -0.388 OA
HETATM    2  N   UNK A   0       4.628   7.523  87.683  1.00  0.00     0.096 N 
HETATM    3  C   UNK A   0       4.092   8.885  87.812  1.00  0.00     0.299 C 
HETATM    4  C   UNK A   0       3.657   6.663  86.993  1.00  0.00     0.299 C 
HETATM    5  C   UNK A   0       2.753   8.846  88.544  1.00  0.00     0.198 C 
HETATM    6  C   UNK A   0       2.328   6.677  87.743  1.00  0.00     0.198 C 
ENDROOT
BRANCH   2   7
HETATM    7  C   UNK A   0       5.907   7.534  86.975  1.00  0.00     0.311 C 
BRANCH   7   8
HETATM    8  C   UNK A   0       7.008   6.935  87.782  1.00  0.00    -0.030 A 
HETATM    9  C   UNK A   0       6.798   6.626  89.126  1.00  0.00     0.010 A 
HETATM   10  C   UNK A   0       7.828   6.067  89.883  1.00  0.00     0.021 A 
HETATM   11  C   UNK A   0       9.067   5.816  89.293  1.00  0.00     0.018 A 
HETATM   12  C   UNK A   0       9.278   6.124  87.951  1.00  0.00     0.021 A 
HETATM   13  C   UNK A   0       8.248   6.684  87.195  1.00  0.00     0.010 A 
BRANCH  11  14
HETATM   14  C   UNK A   0      10.123   5.241  90.069  1.00  0.00    -0.061 C 
HETATM   15  C   UNK A   0      11.011   4.758  90.721  1.00  0.00    -0.061 C 
BRANCH  15  16
HETATM   16  C   UNK A   0      12.065   4.183  91.496  1.00  0.00     0.018 A 
HETATM   17  C   UNK A   0      11.832   3.810  92.820  1.00  0.00     0.022 A 
HETATM   18  C   UNK A   0      12.861   3.247  93.576  1.00  0.00     0.018 A 
HETATM   19  C   UNK A   0      14.097   3.069  92.991  1.00  0.00     0.032 A 
HETATM   20  C   UNK A   0      14.352   3.430  91.685  1.00  0.00     0.018 A 
HETATM   21  C   UNK A   0      13.325   3.993  90.928  1.00  0.00     0.022 A 
BRANCH  19  22
HETATM   22  C   UNK A   0      15.193   2.471  93.797  1.00  0.00     0.252 C 
HETATM   23  O   UNK A   0      16.343   2.872  93.638  1.00  0.00    -0.268 OA
ENDBRANCH  19  22
ENDBRANCH  15  16
ENDBRANCH  11  14
ENDBRANCH   7   8
ENDBRANCH   2   7
TORSDOF 9
ENDMDL
MODEL 3
REMARK VINA RESULT:      -7.5      0.144      1.431
REMARK  9 active torsions:
REMARK  status: ('A' for Active; 'I' for Inactive)
REMARK    1  A    between atoms: N_3  and  C_6 
REMARK    2  A    between atoms: C_6  and  C_9 
REMARK    3  A    between atoms: C_14  and  C_17 
REMARK       I    between atoms: N_26  and  C_15 
REMARK    4  A    between atoms: C_15  and  C_16 
REMARK    5  A    between atoms: C_20  and  C_23 
REMARK    6  A    between atoms: OG1_24  and  CB_28 
REMARK    7  A    between atoms: N_26  and  CA_27 
REMARK    8  A    between atoms: CA_27  and  CB_28 
REMARK    9  A    between atoms: CA_27  and  C_30 
ROOT
HETATM    1  O   UNK A   0       1.773   8.044  87.968  1.00  0.00    -0.388 OA
HETATM    2  N   UNK A   0       4.563   7.520  87.764  1.00  0.00     0.096 N 
HETATM    3  C   UNK A   0       4.048   8.886  87.930  1.00  0.00     0.299 C 
HETATM    4  C   UNK A   0       3.572   6.690  87.065  1.00  0.00     0.299 C 
HETATM    5  C   UNK A   0       2.717   8.850  88.675  1.00  0.00     0.198 C 
HETATM    6  C   UNK A   0       2.252   6.706  87.829  1.00  0.00     0.198 C 
ENDROOT
BRANCH   2   7
HETATM    7  C   UNK A   0       5.834   7.530  87.042  1.00  0.00     0.311 C 
BRANCH   7   8
HETATM    8  C   UNK A   0       6.945   6.938  87.840  1.00  0.00    -0.030 A 
HETATM    9  C   UNK A   0       6.720   6.537  89.157  1.00  0.00     0.010 A 
HETATM   10  C   UNK A   0       7.759   5.984  89.906  1.00  0.00     0.021 A 
HETATM   11  C   UNK A   0       9.022   5.831  89.335  1.00  0.00     0.018 A 
HETATM   12  C   UNK A   0       9.249   6.230  88.020  1.00  0.00     0.021 A 
HETATM   13  C   UNK A   0       8.210   6.784  87.272  1.00  0.00     0.010 A 
BRANCH  11  14
HETATM   14  C   UNK A   0      10.088   5.262  90.103  1.00  0.00    -0.061 C 
HETATM   15  C   UNK A   0      10.983   4.784  90.747  1.00  0.00    -0.061 C 
BRANCH  15  16
HETATM   16  C   UNK A   0      12.049   4.216  91.513  1.00  0.00     0.018 A 
HETATM   17  C   UNK A   0      13.295   4.005  90.923  1.00  0.00     0.022 A 
HETATM   18  C   UNK A   0      14.335   3.454  91.672  1.00  0.00     0.018 A 
HETATM   19  C   UNK A   0      14.105   3.127  92.992  1.00  0.00     0.032 A 
HETATM   20  C   UNK A   0      12.882   3.326  93.598  1.00  0.00     0.018 A 
HETATM   21  C   UNK A   0      11.842   3.877  92.850  1.00  0.00     0.022 A 
BRANCH  19  22
HETATM   22  C   UNK A   0      15.213   2.538  93.789  1.00  0.00     0.252 C 
HETATM   23  O   UNK A   0      16.375   2.796  93.484  1.00  0.00    -0.268 OA
ENDBRANCH  19  22
ENDBRANCH  15  16
ENDBRANCH  11  14
ENDBRANCH   7   8
ENDBRANCH   2   7
TORSDOF 9
ENDMDL
MODEL 4
REMARK VINA RESULT:      -6.9      1.554      2.321
REMARK  9 active torsions:
REMARK  status: ('A' for Active; 'I' for Inactive)
REMARK    1  A    between atoms: N_3  and  C_6 
REMARK    2  A    between atoms: C_6  and  C_9 
REMARK    3  A    between atoms: C_14  and  C_17 
REMARK       I    between atoms: N_26  and  C_15 
REMARK    4  A    between atoms: C_15  and  C_16 
REMARK    5  A    between atoms: C_20  and  C_23 
REMARK    6  A    between atoms: OG1_24  and  CB_28 
REMARK    7  A    between atoms: N_26  and  CA_27 
REMARK    8  A    between atoms: CA_27  and  CB_28 
REMARK    9  A    between atoms: CA_27  and  C_30 
ROOT
HETATM    1  O   UNK A   0       2.705  11.208  89.702  1.00  0.00    -0.388 OA
HETATM    2  N   UNK A   0       4.587   9.315  88.714  1.00  0.00     0.096 N 
HETATM    3  C   UNK A   0       3.814  10.174  87.807  1.00  0.00     0.299 C 
HETATM    4  C   UNK A   0       3.826   9.070  89.947  1.00  0.00     0.299 C 
HETATM    5  C   UNK A   0       3.451  11.478  88.514  1.00  0.00     0.198 C 
HETATM    6  C   UNK A   0       3.462  10.398  90.603  1.00  0.00     0.198 C 
ENDROOT
BRANCH   2   7
HETATM    7  C   UNK A   0       4.937   8.055  88.060  1.00  0.00     0.311 C 
BRANCH   7   8
HETATM    8  C   UNK A   0       6.134   7.410  88.672  1.00  0.00    -0.030 A 
HETATM    9  C   UNK A   0       5.988   6.247  89.428  1.00  0.00     0.010 A 
HETATM   10  C   UNK A   0       7.107   5.644  90.003  1.00  0.00     0.021 A 
HETATM   11  C   UNK A   0       8.371   6.205  89.820  1.00  0.00     0.018 A 
HETATM   12  C   UNK A   0       8.517   7.366  89.064  1.00  0.00     0.021 A 
HETATM   13  C   UNK A   0       7.399   7.969  88.490  1.00  0.00     0.010 A 
BRANCH  11  14
HETATM   14  C   UNK A   0       9.519   5.585  90.408  1.00  0.00    -0.061 C 
HETATM   15  C   UNK A   0      10.483   5.064  90.902  1.00  0.00    -0.061 C 
BRANCH  15  16
HETATM   16  C   UNK A   0      11.630   4.445  91.489  1.00  0.00     0.018 A 
HETATM   17  C   UNK A   0      12.816   4.344  90.760  1.00  0.00     0.022 A 
HETATM   18  C   UNK A   0      13.936   3.742  91.334  1.00  0.00     0.018 A 
HETATM   19  C   UNK A   0      13.846   3.256  92.621  1.00  0.00     0.032 A 
HETATM   20  C   UNK A   0      12.685   3.343  93.362  1.00  0.00     0.018 A 
HETATM   21  C   UNK A   0      11.565   3.945  92.789  1.00  0.00     0.022 A 
BRANCH  19  22
HETATM   22  C   UNK A   0      15.039   2.613  93.231  1.00  0.00     0.252 C 
HETATM   23  O   UNK A   0      14.882   1.783  94.123  1.00  0.00    -0.268 OA
ENDBRANCH  19  22
ENDBRANCH  15  16
ENDBRANCH  11  14
ENDBRANCH   7   8
ENDBRANCH   2   7
TORSDOF 9
ENDMDL
MODEL 5
REMARK VINA RESULT:      -6.9      1.462      2.068
REMARK  9 active torsions:
REMARK  status: ('A' for Active; 'I' for Inactive)
REMARK    1  A    between atoms: N_3  and  C_6 
REMARK    2  A    between atoms: C_6  and  C_9 
REMARK    3  A    between atoms: C_14  and  C_17 
REMARK       I    between atoms: N_26  and  C_15 
REMARK    4  A    between atoms: C_15  and  C_16 
REMARK    5  A    between atoms: C_20  and  C_23 
REMARK    6  A    between atoms: OG1_24  and  CB_28 
REMARK    7  A    between atoms: N_26  and  CA_27 
REMARK    8  A    between atoms: CA_27  and  CB_28 
REMARK    9  A    between atoms: CA_27  and  C_30 
ROOT
HETATM    1  O   UNK A   0       2.693  11.072  89.707  1.00  0.00    -0.388 OA
HETATM    2  N   UNK A   0       4.608   9.207  88.728  1.00  0.00     0.096 N 
HETATM    3  C   UNK A   0       3.866  10.094  87.821  1.00  0.00     0.299 C 
HETATM    4  C   UNK A   0       3.804   8.927  89.926  1.00  0.00     0.299 C 
HETATM    5  C   UNK A   0       3.479  11.376  88.553  1.00  0.00     0.198 C 
HETATM    6  C   UNK A   0       3.419  10.235  90.608  1.00  0.00     0.198 C 
ENDROOT
BRANCH   2   7
HETATM    7  C   UNK A   0       4.979   7.966  88.050  1.00  0.00     0.311 C 
BRANCH   7   8
HETATM    8  C   UNK A   0       6.182   7.326  88.655  1.00  0.00    -0.030 A 
HETATM    9  C   UNK A   0       7.452   7.844  88.395  1.00  0.00     0.010 A 
HETATM   10  C   UNK A   0       8.578   7.245  88.959  1.00  0.00     0.021 A 
HETATM   11  C   UNK A   0       8.433   6.130  89.785  1.00  0.00     0.018 A 
HETATM   12  C   UNK A   0       7.166   5.613  90.045  1.00  0.00     0.021 A 
HETATM   13  C   UNK A   0       6.040   6.211  89.481  1.00  0.00     0.010 A 
BRANCH  11  14
HETATM   14  C   UNK A   0       9.589   5.517  90.365  1.00  0.00    -0.061 C 
HETATM   15  C   UNK A   0      10.559   5.002  90.854  1.00  0.00    -0.061 C 
BRANCH  15  16
HETATM   16  C   UNK A   0      11.713   4.388  91.434  1.00  0.00     0.018 A 
HETATM   17  C   UNK A   0      12.873   4.231  90.675  1.00  0.00     0.022 A 
HETATM   18  C   UNK A   0      14.000   3.635  91.242  1.00  0.00     0.018 A 
HETATM   19  C   UNK A   0      13.941   3.210  92.553  1.00  0.00     0.032 A 
HETATM   20  C   UNK A   0      12.806   3.354  93.323  1.00  0.00     0.018 A 
HETATM   21  C   UNK A   0      11.679   3.950  92.757  1.00  0.00     0.022 A 
BRANCH  19  22
HETATM   22  C   UNK A   0      15.140   2.574  93.156  1.00  0.00     0.252 C 
HETATM   23  O   UNK A   0      15.830   3.218  93.943  1.00  0.00    -0.268 OA
ENDBRANCH  19  22
ENDBRANCH  15  16
ENDBRANCH  11  14
ENDBRANCH   7   8
ENDBRANCH   2   7
TORSDOF 9
ENDMDL
MODEL 6
REMARK VINA RESULT:      -6.6      3.943     10.463
REMARK  9 active torsions:
REMARK  status: ('A' for Active; 'I' for Inactive)
REMARK    1  A    between atoms: N_3  and  C_6 
REMARK    2  A    between atoms: C_6  and  C_9 
REMARK    3  A    between atoms: C_14  and  C_17 
REMARK       I    between atoms: N_26  and  C_15 
REMARK    4  A    between atoms: C_15  and  C_16 
REMARK    5  A    between atoms: C_20  and  C_23 
REMARK    6  A    between atoms: OG1_24  and  CB_28 
REMARK    7  A    between atoms: N_26  and  CA_27 
REMARK    8  A    between atoms: CA_27  and  CB_28 
REMARK    9  A    between atoms: CA_27  and  C_30 
ROOT
HETATM    1  O   UNK A   0      14.559   3.282  92.093  1.00  0.00    -0.388 OA
HETATM    2  N   UNK A   0      11.857   4.155  92.288  1.00  0.00     0.096 N 
HETATM    3  C   UNK A   0      12.480   3.343  93.343  1.00  0.00     0.299 C 
HETATM    4  C   UNK A   0      12.476   3.854  90.990  1.00  0.00     0.299 C 
HETATM    5  C   UNK A   0      13.986   3.591  93.365  1.00  0.00     0.198 C 
HETATM    6  C   UNK A   0      13.981   4.090  91.067  1.00  0.00     0.198 C 
ENDROOT
BRANCH   2   7
HETATM    7  C   UNK A   0      10.414   3.925  92.242  1.00  0.00     0.311 C 
BRANCH   7   8
HETATM    8  C   UNK A   0       9.650   5.170  91.947  1.00  0.00    -0.030 A 
HETATM    9  C   UNK A   0       8.642   5.157  90.982  1.00  0.00     0.010 A 
HETATM   10  C   UNK A   0       7.927   6.322  90.703  1.00  0.00     0.021 A 
HETATM   11  C   UNK A   0       8.220   7.499  91.391  1.00  0.00     0.018 A 
HETATM   12  C   UNK A   0       9.226   7.513  92.355  1.00  0.00     0.021 A 
HETATM   13  C   UNK A   0       9.941   6.349  92.633  1.00  0.00     0.010 A 
BRANCH  11  14
HETATM   14  C   UNK A   0       7.485   8.693  91.107  1.00  0.00    -0.061 C 
HETATM   15  C   UNK A   0       6.868   9.697  90.868  1.00  0.00    -0.061 C 
BRANCH  15  16
HETATM   16  C   UNK A   0       6.134  10.891  90.583  1.00  0.00     0.018 A 
HETATM   17  C   UNK A   0       6.294  11.529  89.353  1.00  0.00     0.022 A 
HETATM   18  C   UNK A   0       5.575  12.692  89.074  1.00  0.00     0.018 A 
HETATM   19  C   UNK A   0       4.715  13.189  90.030  1.00  0.00     0.032 A 
HETATM   20  C   UNK A   0       4.540  12.577  91.254  1.00  0.00     0.018 A 
HETATM   21  C   UNK A   0       5.258  11.414  91.534  1.00  0.00     0.022 A 
BRANCH  19  22
HETATM   22  C   UNK A   0       3.951  14.429  89.734  1.00  0.00     0.252 C 
HETATM   23  O   UNK A   0       4.544  15.504  89.697  1.00  0.00    -0.268 OA
ENDBRANCH  19  22
ENDBRANCH  15  16
ENDBRANCH  11  14
ENDBRANCH   7   8
ENDBRANCH   2   7
TORSDOF 9
ENDMDL
MODEL 7
REMARK VINA RESULT:      -6.4      3.751     10.289
REMARK  9 active torsions:
REMARK  status: ('A' for Active; 'I' for Inactive)
REMARK    1  A    between atoms: N_3  and  C_6 
REMARK    2  A    between atoms: C_6  and  C_9 
REMARK    3  A    between atoms: C_14  and  C_17 
REMARK       I    between atoms: N_26  and  C_15 
REMARK    4  A    between atoms: C_15  and  C_16 
REMARK    5  A    between atoms: C_20  and  C_23 
REMARK    6  A    between atoms: OG1_24  and  CB_28 
REMARK    7  A    between atoms: N_26  and  CA_27 
REMARK    8  A    between atoms: CA_27  and  CB_28 
REMARK    9  A    between atoms: CA_27  and  C_30 
ROOT
HETATM    1  O   UNK A   0      14.350   2.915  93.099  1.00  0.00    -0.388 OA
HETATM    2  N   UNK A   0      12.264   4.054  91.534  1.00  0.00     0.096 N 
HETATM    3  C   UNK A   0      12.017   2.916  92.430  1.00  0.00     0.299 C 
HETATM    4  C   UNK A   0      13.655   4.031  91.061  1.00  0.00     0.299 C 
HETATM    5  C   UNK A   0      13.009   2.947  93.590  1.00  0.00     0.198 C 
HETATM    6  C   UNK A   0      14.607   4.036  92.252  1.00  0.00     0.198 C 
ENDROOT
BRANCH   2   7
HETATM    7  C   UNK A   0      11.331   4.038  90.408  1.00  0.00     0.311 C 
BRANCH   7   8
HETATM    8  C   UNK A   0      10.444   5.236  90.389  1.00  0.00    -0.030 A 
HETATM    9  C   UNK A   0      10.068   5.805  89.171  1.00  0.00     0.010 A 
HETATM   10  C   UNK A   0       9.240   6.927  89.151  1.00  0.00     0.021 A 
HETATM   11  C   UNK A   0       8.785   7.477  90.349  1.00  0.00     0.018 A 
HETATM   12  C   UNK A   0       9.159   6.910  91.566  1.00  0.00     0.021 A 
HETATM   13  C   UNK A   0       9.988   5.789  91.586  1.00  0.00     0.010 A 
BRANCH  11  14
HETATM   14  C   UNK A   0       7.933   8.627  90.329  1.00  0.00    -0.061 C 
HETATM   15  C   UNK A   0       7.217   9.593  90.311  1.00  0.00    -0.061 C 
BRANCH  15  16
HETATM   16  C   UNK A   0       6.366  10.741  90.291  1.00  0.00     0.018 A 
HETATM   17  C   UNK A   0       5.619  11.074  91.421  1.00  0.00     0.022 A 
HETATM   18  C   UNK A   0       4.790  12.196  91.401  1.00  0.00     0.018 A 
HETATM   19  C   UNK A   0       4.727  12.958  90.254  1.00  0.00     0.032 A 
HETATM   20  C   UNK A   0       5.455  12.649  89.124  1.00  0.00     0.018 A 
HETATM   21  C   UNK A   0       6.284  11.528  89.142  1.00  0.00     0.022 A 
BRANCH  19  22
HETATM   22  C   UNK A   0       3.842  14.152  90.233  1.00  0.00     0.252 C 
HETATM   23  O   UNK A   0       4.297  15.229  89.855  1.00  0.00    -0.268 OA
ENDBRANCH  19  22
ENDBRANCH  15  16
ENDBRANCH  11  14
ENDBRANCH   7   8
ENDBRANCH   2   7
TORSDOF 9
ENDMDL
MODEL 8
REMARK VINA RESULT:      -6.3      3.620      4.680
REMARK  9 active torsions:
REMARK  status: ('A' for Active; 'I' for Inactive)
REMARK    1  A    between atoms: N_3  and  C_6 
REMARK    2  A    between atoms: C_6  and  C_9 
REMARK    3  A    between atoms: C_14  and  C_17 
REMARK       I    between atoms: N_26  and  C_15 
REMARK    4  A    between atoms: C_15  and  C_16 
REMARK    5  A    between atoms: C_20  and  C_23 
REMARK    6  A    between atoms: OG1_24  and  CB_28 
REMARK    7  A    between atoms: N_26  and  CA_27 
REMARK    8  A    between atoms: CA_27  and  CB_28 
REMARK    9  A    between atoms: CA_27  and  C_30 
ROOT
HETATM    1  O   UNK A   0       4.255  15.423  90.380  1.00  0.00    -0.388 OA
HETATM    2  N   UNK A   0       4.926  12.768  89.604  1.00  0.00     0.096 N 
HETATM    3  C   UNK A   0       4.835  13.856  88.620  1.00  0.00     0.299 C 
HETATM    4  C   UNK A   0       4.025  13.035  90.734  1.00  0.00     0.299 C 
HETATM    5  C   UNK A   0       5.152  15.189  89.293  1.00  0.00     0.198 C 
HETATM    6  C   UNK A   0       4.359  14.386  91.356  1.00  0.00     0.198 C 
ENDROOT
BRANCH   2   7
HETATM    7  C   UNK A   0       4.615  11.482  88.984  1.00  0.00     0.311 C 
BRANCH   7   8
HETATM    8  C   UNK A   0       5.601  10.424  89.346  1.00  0.00    -0.030 A 
HETATM    9  C   UNK A   0       5.198   9.090  89.413  1.00  0.00     0.010 A 
HETATM   10  C   UNK A   0       6.119   8.099  89.754  1.00  0.00     0.021 A 
HETATM   11  C   UNK A   0       7.443   8.443  90.025  1.00  0.00     0.018 A 
HETATM   12  C   UNK A   0       7.847   9.775  89.957  1.00  0.00     0.021 A 
HETATM   13  C   UNK A   0       6.926  10.766  89.617  1.00  0.00     0.010 A 
BRANCH  11  14
HETATM   14  C   UNK A   0       8.388   7.427  90.372  1.00  0.00    -0.061 C 
HETATM   15  C   UNK A   0       9.182   6.572  90.664  1.00  0.00    -0.061 C 
BRANCH  15  16
HETATM   16  C   UNK A   0      10.127   5.556  91.010  1.00  0.00     0.018 A 
HETATM   17  C   UNK A   0      10.780   4.842  90.005  1.00  0.00     0.022 A 
HETATM   18  C   UNK A   0      11.704   3.853  90.344  1.00  0.00     0.018 A 
HETATM   19  C   UNK A   0      11.953   3.601  91.676  1.00  0.00     0.032 A 
HETATM   20  C   UNK A   0      11.320   4.293  92.687  1.00  0.00     0.018 A 
HETATM   21  C   UNK A   0      10.396   5.282  92.351  1.00  0.00     0.022 A 
BRANCH  19  22
HETATM   22  C   UNK A   0      12.936   2.546  92.036  1.00  0.00     0.252 C 
HETATM   23  O   UNK A   0      13.937   2.852  92.679  1.00  0.00    -0.268 OA
ENDBRANCH  19  22
ENDBRANCH  15  16
ENDBRANCH  11  14
ENDBRANCH   7   8
ENDBRANCH   2   7
TORSDOF 9
ENDMDL
MODEL 9
REMARK VINA RESULT:      -6.3      1.979      2.926
REMARK  9 active torsions:
REMARK  status: ('A' for Active; 'I' for Inactive)
REMARK    1  A    between atoms: N_3  and  C_6 
REMARK    2  A    between atoms: C_6  and  C_9 
REMARK    3  A    between atoms: C_14  and  C_17 
REMARK       I    between atoms: N_26  and  C_15 
REMARK    4  A    between atoms: C_15  and  C_16 
REMARK    5  A    between atoms: C_20  and  C_23 
REMARK    6  A    between atoms: OG1_24  and  CB_28 
REMARK    7  A    between atoms: N_26  and  CA_27 
REMARK    8  A    between atoms: CA_27  and  CB_28 
REMARK    9  A    between atoms: CA_27  and  C_30 
ROOT
HETATM    1  O   UNK A   0       2.334   9.719  88.006  1.00  0.00    -0.388 OA
HETATM    2  N   UNK A   0       3.917   8.463  90.011  1.00  0.00     0.096 N 
HETATM    3  C   UNK A   0       2.628   7.900  89.586  1.00  0.00     0.299 C 
HETATM    4  C   UNK A   0       3.911   9.922  89.839  1.00  0.00     0.299 C 
HETATM    5  C   UNK A   0       2.342   8.297  88.139  1.00  0.00     0.198 C 
HETATM    6  C   UNK A   0       3.595  10.271  88.388  1.00  0.00     0.198 C 
ENDROOT
BRANCH   2   7
HETATM    7  C   UNK A   0       4.206   8.104  91.398  1.00  0.00     0.311 C 
BRANCH   7   8
HETATM    8  C   UNK A   0       5.531   7.437  91.548  1.00  0.00    -0.030 A 
HETATM    9  C   UNK A   0       6.311   7.682  92.679  1.00  0.00     0.010 A 
HETATM   10  C   UNK A   0       7.551   7.060  92.819  1.00  0.00     0.021 A 
HETATM   11  C   UNK A   0       8.010   6.191  91.829  1.00  0.00     0.018 A 
HETATM   12  C   UNK A   0       7.232   5.945  90.699  1.00  0.00     0.021 A 
HETATM   13  C   UNK A   0       5.992   6.568  90.558  1.00  0.00     0.010 A 
BRANCH  11  14
HETATM   14  C   UNK A   0       9.281   5.551  91.974  1.00  0.00    -0.061 C 
HETATM   15  C   UNK A   0      10.350   5.014  92.095  1.00  0.00    -0.061 C 
BRANCH  15  16
HETATM   16  C   UNK A   0      11.621   4.375  92.240  1.00  0.00     0.018 A 
HETATM   17  C   UNK A   0      12.456   4.227  91.133  1.00  0.00     0.022 A 
HETATM   18  C   UNK A   0      13.697   3.606  91.275  1.00  0.00     0.018 A 
HETATM   19  C   UNK A   0      14.075   3.149  92.520  1.00  0.00     0.032 A 
HETATM   20  C   UNK A   0      13.267   3.283  93.630  1.00  0.00     0.018 A 
HETATM   21  C   UNK A   0      12.026   3.903  93.489  1.00  0.00     0.022 A 
BRANCH  19  22
HETATM   22  C   UNK A   0      15.396   2.486  92.671  1.00  0.00     0.252 C 
HETATM   23  O   UNK A   0      16.184   2.903  93.517  1.00  0.00    -0.268 OA
ENDBRANCH  19  22
ENDBRANCH  15  16
ENDBRANCH  11  14
ENDBRANCH   7   8
ENDBRANCH   2   7
TORSDOF 9
ENDMDL
