MODEL 1
REMARK VINA RESULT:      -7.1      0.000      0.000
REMARK  10 active torsions:
REMARK  status: ('A' for Active; 'I' for Inactive)
REMARK    1  A    between atoms: O_2  and  C_16 
REMARK    2  A    between atoms: N_5  and  C_9 
REMARK    3  A    between atoms: N_6  and  C_13 
REMARK       I    between atoms: N_6  and  C_22 
REMARK    4  A    between atoms: C_9  and  C_12 
REMARK    5  A    between atoms: C_13  and  C_16 
REMARK    6  A    between atoms: C_13  and  C_21 
REMARK    7  A    between atoms: C_19  and  C_24 
REMARK    8  A    between atoms: C_22  and  C_23 
REMARK    9  A    between atoms: C_27  and  C_30 
REMARK   10  A    between atoms: N_33  and  S_34 
ROOT
HETATM    1  C   UNL     1       5.791  10.894  89.593  1.00  0.00     0.056 A 
HETATM    2  C   UNL     1       7.133  11.036  89.307  1.00  0.00     0.005 A 
HETATM    3  C   UNL     1       5.276   9.745  90.156  1.00  0.00     0.005 A 
HETATM    4  C   UNL     1       7.502   8.809  90.165  1.00  0.00     0.042 A 
HETATM    5  C   UNL     1       7.999   9.981  89.595  1.00  0.00     0.008 A 
HETATM    6  C   UNL     1       6.141   8.690  90.445  1.00  0.00     0.008 A 
ENDROOT
BRANCH   1   7
HETATM    7  C   UNL     1       4.869  12.019  89.287  1.00  0.00     0.254 C 
HETATM    8  O   UNL     1       4.759  12.405  88.126  1.00  0.00    -0.268 OA
HETATM    9  N   UNL     1       4.168  12.541  90.365  1.00  0.00    -0.337 N 
HETATM   10  HN  UNL     1       4.292  12.153  91.293  1.00  0.00     0.164 HD
BRANCH   9  11
HETATM   11  C   UNL     1       3.220  13.616  90.226  1.00  0.00     0.172 C 
BRANCH  11  12
HETATM   12  C   UNL     1       1.972  13.424  91.098  1.00  0.00     0.136 C 
HETATM   13  C   UNL     1       2.156  12.333  92.147  1.00  0.00     0.034 C 
BRANCH  12  14
HETATM   14  O   UNL     1       1.655  14.651  91.755  1.00  0.00    -0.383 OA
HETATM   15  H   UNL     1       1.279  15.260  91.098  1.00  0.00     0.210 HD
ENDBRANCH  12  14
ENDBRANCH  11  12
BRANCH  11  16
HETATM   16  C   UNL     1       3.938  14.918  90.566  1.00  0.00     0.398 A 
HETATM   17  O   UNL     1       5.056  15.197  90.138  1.00  0.00    -0.136 OA
HETATM   18  N   UNL     1       4.958  15.535  91.616  1.00  0.00     0.142 N 
HETATM   19  HN  UNL     1       5.876  15.844  91.460  1.00  0.00     0.338 HD
BRANCH  18  20
HETATM   20  S   UNL     1       4.253  15.248  92.780  1.00  0.00     0.076 SA
HETATM   21  H   UNL     1       3.335  15.959  93.034  1.00  0.00     0.136 HD
ENDBRANCH  18  20
ENDBRANCH  11  16
ENDBRANCH   9  11
ENDBRANCH   1   7
BRANCH   4  22
HETATM   22  C   UNL     1       8.390   7.726  90.458  1.00  0.00    -0.059 C 
HETATM   23  C   UNL     1       9.135   6.816  90.705  1.00  0.00    -0.059 C 
BRANCH  23  24
HETATM   24  C   UNL     1      10.022   5.732  90.999  1.00  0.00     0.042 A 
HETATM   25  C   UNL     1      10.199   5.315  92.317  1.00  0.00     0.008 A 
HETATM   26  C   UNL     1      11.065   4.260  92.603  1.00  0.00    -0.002 A 
HETATM   27  C   UNL     1      11.753   3.622  91.570  1.00  0.00     0.011 A 
HETATM   28  C   UNL     1      11.575   4.041  90.252  1.00  0.00    -0.002 A 
HETATM   29  C   UNL     1      10.709   5.097  89.966  1.00  0.00     0.008 A 
BRANCH  27  30
HETATM   30  C   UNL     1      12.677   2.493  91.877  1.00  0.00     0.277 C 
BRANCH  30  31
HETATM   31  N   UNL     1      13.708   2.864  92.845  1.00  0.00     0.147 N 
HETATM   32  C   UNL     1      14.597   1.727  93.120  1.00  0.00     0.283 C 
HETATM   33  C   UNL     1      15.670   2.141  94.124  1.00  0.00     0.178 C 
HETATM   34  O   UNL     1      16.419   3.250  93.622  1.00  0.00    -0.350 OA
HETATM   35  C   UNL     1      15.566   4.370  93.381  1.00  0.00     0.178 C 
HETATM   36  C   UNL     1      14.491   4.010  92.361  1.00  0.00     0.283 C 
ENDBRANCH  30  31
ENDBRANCH  27  30
ENDBRANCH  23  24
ENDBRANCH   4  22
TORSDOF 10
ENDMDL
