MODEL 1
REMARK VINA RESULT:      -6.8      0.000      0.000
REMARK  14 active torsions:
REMARK  status: ('A' for Active; 'I' for Inactive)
REMARK    1  A    between atoms: O_2  and  C_18 
REMARK    2  A    between atoms: C_5  and  C_8 
REMARK    3  A    between atoms: C_5  and  O_35 
REMARK    4  A    between atoms: C_5  and  C_36 
REMARK    5  A    between atoms: N_6  and  C_11 
REMARK    6  A    between atoms: N_7  and  C_15 
REMARK       I    between atoms: N_7  and  C_24 
REMARK    7  A    between atoms: C_8  and  C_23 
REMARK    8  A    between atoms: C_11  and  C_14 
REMARK    9  A    between atoms: C_15  and  C_18 
REMARK   10  A    between atoms: C_15  and  C_23 
REMARK   11  A    between atoms: C_21  and  C_26 
REMARK   12  A    between atoms: C_24  and  C_25 
REMARK   13  A    between atoms: C_29  and  C_32 
REMARK   14  A    between atoms: C_36  and  O_39 
ROOT
HETATM    1  O   UNL     1      16.775   3.461  93.835  1.00  0.00    -0.350 OA
HETATM    2  N   UNL     1      14.107   2.803  93.094  1.00  0.00     0.147 N 
HETATM    3  C   UNL     1      15.174   1.793  93.096  1.00  0.00     0.283 C 
HETATM    4  C   UNL     1      14.673   4.133  92.830  1.00  0.00     0.283 C 
HETATM    5  C   UNL     1      16.239   2.168  94.124  1.00  0.00     0.178 C 
HETATM    6  C   UNL     1      15.749   4.453  93.863  1.00  0.00     0.178 C 
ENDROOT
BRANCH   2   7
HETATM    7  C   UNL     1      13.080   2.470  92.108  1.00  0.00     0.277 C 
BRANCH   7   8
HETATM    8  C   UNL     1      12.014   3.508  92.026  1.00  0.00     0.011 A 
HETATM    9  C   UNL     1      11.688   4.075  90.793  1.00  0.00    -0.002 A 
HETATM   10  C   UNL     1      10.692   5.048  90.715  1.00  0.00     0.008 A 
HETATM   11  C   UNL     1      10.020   5.452  91.869  1.00  0.00     0.042 A 
HETATM   12  C   UNL     1      10.344   4.885  93.100  1.00  0.00     0.008 A 
HETATM   13  C   UNL     1      11.341   3.913  93.179  1.00  0.00    -0.002 A 
BRANCH  11  14
HETATM   14  C   UNL     1       8.997   6.448  91.788  1.00  0.00    -0.059 C 
HETATM   15  C   UNL     1       8.137   7.285  91.719  1.00  0.00    -0.059 C 
BRANCH  15  16
HETATM   16  C   UNL     1       7.113   8.280  91.639  1.00  0.00     0.042 A 
HETATM   17  C   UNL     1       6.335   8.387  90.486  1.00  0.00     0.008 A 
HETATM   18  C   UNL     1       5.335   9.356  90.409  1.00  0.00     0.005 A 
HETATM   19  C   UNL     1       5.135  10.196  91.485  1.00  0.00     0.056 A 
HETATM   20  C   UNL     1       5.891  10.111  92.635  1.00  0.00     0.005 A 
HETATM   21  C   UNL     1       6.892   9.142  92.713  1.00  0.00     0.008 A 
BRANCH  19  22
HETATM   22  C   UNL     1       4.071  11.229  91.401  1.00  0.00     0.254 C 
HETATM   23  O   UNL     1       2.921  10.886  91.135  1.00  0.00    -0.268 OA
HETATM   24  N   UNL     1       4.468  12.533  91.662  1.00  0.00    -0.335 N 
HETATM   25  HN  UNL     1       5.431  12.738  91.900  1.00  0.00     0.164 HD
BRANCH  24  26
HETATM   26  C   UNL     1       3.548  13.642  91.644  1.00  0.00     0.169 C 
BRANCH  26  27
HETATM   27  C   UNL     1       3.252  14.191  93.045  1.00  0.00     0.138 C 
HETATM   28  C   UNL     1       4.450  14.076  93.982  1.00  0.00     0.034 C 
BRANCH  27  29
HETATM   29  O   UNL     1       2.869  15.563  92.950  1.00  0.00    -0.383 OA
HETATM   30  H   UNL     1       3.502  16.093  93.463  1.00  0.00     0.210 HD
ENDBRANCH  27  29
ENDBRANCH  26  27
BRANCH  26  31
HETATM   31  C   UNL     1       4.136  14.720  90.739  1.00  0.00     0.194 C 
HETATM   32  O   UNL     1       4.860  15.623  91.155  1.00  0.00    -0.289 OA
BRANCH  31  33
HETATM   33  C   UNL     1       3.730  14.580  89.434  1.00  0.00     0.053 C 
BRANCH  33  34
HETATM   34  C   UNL     1       4.742  14.286  88.509  1.00  0.00     0.220 C 
BRANCH  34  35
HETATM   35  O   UNL     1       5.834  14.574  89.035  1.00  0.00    -0.371 OA
HETATM   36  H   UNL     1       6.354  13.887  88.645  1.00  0.00     0.211 HD
ENDBRANCH  34  35
BRANCH  34  37
HETATM   37  C   UNL     1       4.706  12.961  88.042  1.00  0.00     0.185 C 
HETATM   38  O   UNL     1       5.968  12.955  88.443  1.00  0.00    -0.647 OA
BRANCH  37  39
HETATM   39  O   UNL     1       3.916  12.244  87.507  1.00  0.00    -0.774 OA
HETATM   40  H   UNL     1       3.740  11.295  88.104  1.00  0.00     0.167 HD
ENDBRANCH  37  39
ENDBRANCH  34  37
ENDBRANCH  33  34
ENDBRANCH  31  33
ENDBRANCH  26  31
ENDBRANCH  24  26
ENDBRANCH  19  22
ENDBRANCH  15  16
ENDBRANCH  11  14
ENDBRANCH   7   8
ENDBRANCH   2   7
TORSDOF 14
ENDMDL
