MODEL 1
REMARK VINA RESULT:      -6.6      0.000      0.000
REMARK  10 active torsions:
REMARK  status: ('A' for Active; 'I' for Inactive)
REMARK    1  A    between atoms: O_2  and  C_16 
REMARK    2  A    between atoms: N_5  and  C_9 
REMARK    3  A    between atoms: N_6  and  C_13 
REMARK       I    between atoms: N_6  and  C_22 
REMARK    4  A    between atoms: C_9  and  C_12 
REMARK    5  A    between atoms: C_13  and  C_16 
REMARK    6  A    between atoms: C_13  and  C_21 
REMARK    7  A    between atoms: C_19  and  C_24 
REMARK    8  A    between atoms: C_22  and  C_23 
REMARK    9  A    between atoms: C_27  and  C_30 
REMARK   10  A    between atoms: N_33  and  S_34 
ROOT
HETATM    1  C   UNL     1       5.773  11.336  90.190  1.00  0.00     0.056 A 
HETATM    2  C   UNL     1       5.521  10.518  91.272  1.00  0.00     0.005 A 
HETATM    3  C   UNL     1       6.813  11.101  89.316  1.00  0.00     0.005 A 
HETATM    4  C   UNL     1       7.407   9.157  90.621  1.00  0.00     0.042 A 
HETATM    5  C   UNL     1       6.348   9.416  91.491  1.00  0.00     0.008 A 
HETATM    6  C   UNL     1       7.640   9.999  89.533  1.00  0.00     0.008 A 
ENDROOT
BRANCH   1   7
HETATM    7  C   UNL     1       4.890  12.509  89.957  1.00  0.00     0.254 C 
HETATM    8  O   UNL     1       4.890  13.048  88.853  1.00  0.00    -0.268 OA
HETATM    9  N   UNL     1       4.098  12.896  91.028  1.00  0.00    -0.337 N 
HETATM   10  HN  UNL     1       4.133  12.387  91.903  1.00  0.00     0.164 HD
BRANCH   9  11
HETATM   11  C   UNL     1       3.173  13.999  90.950  1.00  0.00     0.172 C 
BRANCH  11  12
HETATM   12  C   UNL     1       1.822  13.688  91.606  1.00  0.00     0.136 C 
HETATM   13  C   UNL     1       1.903  12.524  92.588  1.00  0.00     0.034 C 
BRANCH  12  14
HETATM   14  O   UNL     1       1.349  14.844  92.296  1.00  0.00    -0.383 OA
HETATM   15  H   UNL     1       0.479  14.637  92.677  1.00  0.00     0.210 HD
ENDBRANCH  12  14
ENDBRANCH  11  12
BRANCH  11  16
HETATM   16  C   UNL     1       3.838  15.210  91.596  1.00  0.00     0.398 A 
HETATM   17  O   UNL     1       4.946  15.624  91.261  1.00  0.00    -0.136 OA
HETATM   18  N   UNL     1       4.827  15.600  92.776  1.00  0.00     0.142 N 
HETATM   19  HN  UNL     1       5.733  15.972  92.709  1.00  0.00     0.338 HD
BRANCH  18  20
HETATM   20  S   UNL     1       4.129  15.021  93.830  1.00  0.00     0.076 SA
HETATM   21  H   UNL     1       2.964  15.250  93.884  1.00  0.00     0.136 HD
ENDBRANCH  18  20
ENDBRANCH  11  16
ENDBRANCH   9  11
ENDBRANCH   1   7
BRANCH   4  22
HETATM   22  C   UNL     1       8.256   8.029  90.846  1.00  0.00    -0.059 C 
HETATM   23  C   UNL     1       8.970   7.080  91.035  1.00  0.00    -0.059 C 
BRANCH  23  24
HETATM   24  C   UNL     1       9.821   5.952  91.260  1.00  0.00     0.042 A 
HETATM   25  C   UNL     1       9.911   5.391  92.533  1.00  0.00     0.008 A 
HETATM   26  C   UNL     1      10.741   4.292  92.753  1.00  0.00    -0.002 A 
HETATM   27  C   UNL     1      11.479   3.754  91.699  1.00  0.00     0.011 A 
HETATM   28  C   UNL     1      11.388   4.316  90.425  1.00  0.00    -0.002 A 
HETATM   29  C   UNL     1      10.558   5.415  90.206  1.00  0.00     0.008 A 
BRANCH  27  30
HETATM   30  C   UNL     1      12.365   2.578  91.934  1.00  0.00     0.277 C 
BRANCH  30  31
HETATM   31  N   UNL     1      13.447   2.875  92.871  1.00  0.00     0.147 N 
HETATM   32  C   UNL     1      14.240   1.669  93.150  1.00  0.00     0.283 C 
HETATM   33  C   UNL     1      15.369   2.005  94.120  1.00  0.00     0.178 C 
HETATM   34  O   UNL     1      16.200   3.034  93.578  1.00  0.00    -0.350 OA
HETATM   35  C   UNL     1      15.444   4.220  93.333  1.00  0.00     0.178 C 
HETATM   36  C   UNL     1      14.316   3.937  92.346  1.00  0.00     0.283 C 
ENDBRANCH  30  31
ENDBRANCH  27  30
ENDBRANCH  23  24
ENDBRANCH   4  22
TORSDOF 10
ENDMDL
MODEL 2
REMARK VINA RESULT:      -6.3      1.504      2.230
REMARK  10 active torsions:
REMARK  status: ('A' for Active; 'I' for Inactive)
REMARK    1  A    between atoms: O_2  and  C_16 
REMARK    2  A    between atoms: N_5  and  C_9 
REMARK    3  A    between atoms: N_6  and  C_13 
REMARK       I    between atoms: N_6  and  C_22 
REMARK    4  A    between atoms: C_9  and  C_12 
REMARK    5  A    between atoms: C_13  and  C_16 
REMARK    6  A    between atoms: C_13  and  C_21 
REMARK    7  A    between atoms: C_19  and  C_24 
REMARK    8  A    between atoms: C_22  and  C_23 
REMARK    9  A    between atoms: C_27  and  C_30 
REMARK   10  A    between atoms: N_33  and  S_34 
ROOT
HETATM    1  C   UNL     1       5.492  10.330  91.153  1.00  0.00     0.056 A 
HETATM    2  C   UNL     1       6.476  10.499  92.105  1.00  0.00     0.005 A 
HETATM    3  C   UNL     1       5.436   9.216  90.342  1.00  0.00     0.005 A 
HETATM    4  C   UNL     1       7.415   8.374  91.443  1.00  0.00     0.042 A 
HETATM    5  C   UNL     1       7.449   9.511  92.252  1.00  0.00     0.008 A 
HETATM    6  C   UNL     1       6.408   8.227  90.488  1.00  0.00     0.008 A 
ENDROOT
BRANCH   1   7
HETATM    7  C   UNL     1       4.455  11.383  90.998  1.00  0.00     0.254 C 
HETATM    8  O   UNL     1       3.294  11.052  90.769  1.00  0.00    -0.268 OA
HETATM    9  N   UNL     1       4.889  12.692  91.153  1.00  0.00    -0.337 N 
HETATM   10  HN  UNL     1       5.860  12.888  91.367  1.00  0.00     0.164 HD
BRANCH   9  11
HETATM   11  C   UNL     1       3.999  13.821  91.057  1.00  0.00     0.172 C 
BRANCH  11  12
HETATM   12  C   UNL     1       3.806  14.303  89.613  1.00  0.00     0.136 C 
HETATM   13  C   UNL     1       5.129  14.560  88.902  1.00  0.00     0.034 C 
BRANCH  12  14
HETATM   14  O   UNL     1       3.067  13.327  88.879  1.00  0.00    -0.383 OA
HETATM   15  H   UNL     1       3.146  13.533  87.933  1.00  0.00     0.210 HD
ENDBRANCH  12  14
ENDBRANCH  11  12
BRANCH  11  16
HETATM   16  C   UNL     1       2.670  13.422  91.691  1.00  0.00     0.398 A 
HETATM   17  O   UNL     1       1.602  13.958  91.401  1.00  0.00    -0.136 OA
HETATM   18  N   UNL     1       1.716  13.789  92.907  1.00  0.00     0.142 N 
HETATM   19  HN  UNL     1       0.822  14.190  92.875  1.00  0.00     0.338 HD
BRANCH  18  20
HETATM   20  S   UNL     1       2.628  13.614  93.942  1.00  0.00     0.076 SA
HETATM   21  H   UNL     1       2.393  14.185  94.958  1.00  0.00     0.136 HD
ENDBRANCH  18  20
ENDBRANCH  11  16
ENDBRANCH   9  11
ENDBRANCH   1   7
BRANCH   4  22
HETATM   22  C   UNL     1       8.413   7.362  91.591  1.00  0.00    -0.059 C 
HETATM   23  C   UNL     1       9.253   6.510  91.716  1.00  0.00    -0.059 C 
BRANCH  23  24
HETATM   24  C   UNL     1      10.252   5.497  91.864  1.00  0.00     0.042 A 
HETATM   25  C   UNL     1      10.834   4.923  90.734  1.00  0.00     0.008 A 
HETATM   26  C   UNL     1      11.806   3.934  90.878  1.00  0.00    -0.002 A 
HETATM   27  C   UNL     1      12.198   3.521  92.152  1.00  0.00     0.011 A 
HETATM   28  C   UNL     1      11.615   4.097  93.281  1.00  0.00    -0.002 A 
HETATM   29  C   UNL     1      10.642   5.085  93.137  1.00  0.00     0.008 A 
BRANCH  27  30
HETATM   30  C   UNL     1      13.239   2.465  92.305  1.00  0.00     0.277 C 
BRANCH  30  31
HETATM   31  N   UNL     1      14.276   2.840  93.264  1.00  0.00     0.147 N 
HETATM   32  C   UNL     1      15.456   1.975  93.121  1.00  0.00     0.283 C 
HETATM   33  C   UNL     1      16.528   2.392  94.124  1.00  0.00     0.178 C 
HETATM   34  O   UNL     1      16.887   3.761  93.928  1.00  0.00    -0.350 OA
HETATM   35  C   UNL     1      15.752   4.611  94.096  1.00  0.00     0.178 C 
HETATM   36  C   UNL     1      14.661   4.248  93.094  1.00  0.00     0.283 C 
ENDBRANCH  30  31
ENDBRANCH  27  30
ENDBRANCH  23  24
ENDBRANCH   4  22
TORSDOF 10
ENDMDL
MODEL 3
REMARK VINA RESULT:      -5.7      1.813      2.059
REMARK  10 active torsions:
REMARK  status: ('A' for Active; 'I' for Inactive)
REMARK    1  A    between atoms: O_2  and  C_16 
REMARK    2  A    between atoms: N_5  and  C_9 
REMARK    3  A    between atoms: N_6  and  C_13 
REMARK       I    between atoms: N_6  and  C_22 
REMARK    4  A    between atoms: C_9  and  C_12 
REMARK    5  A    between atoms: C_13  and  C_16 
REMARK    6  A    between atoms: C_13  and  C_21 
REMARK    7  A    between atoms: C_19  and  C_24 
REMARK    8  A    between atoms: C_22  and  C_23 
REMARK    9  A    between atoms: C_27  and  C_30 
REMARK   10  A    between atoms: N_33  and  S_34 
ROOT
HETATM    1  C   UNL     1       5.582   9.505  90.307  1.00  0.00     0.056 A 
HETATM    2  C   UNL     1       6.392   9.752  91.395  1.00  0.00     0.005 A 
HETATM    3  C   UNL     1       5.721   8.376  89.527  1.00  0.00     0.005 A 
HETATM    4  C   UNL     1       7.550   7.680  90.943  1.00  0.00     0.042 A 
HETATM    5  C   UNL     1       7.388   8.830  91.717  1.00  0.00     0.008 A 
HETATM    6  C   UNL     1       6.716   7.454  89.848  1.00  0.00     0.008 A 
ENDROOT
BRANCH   1   7
HETATM    7  C   UNL     1       4.520  10.486  89.966  1.00  0.00     0.254 C 
HETATM    8  O   UNL     1       3.844  10.311  88.955  1.00  0.00    -0.268 OA
HETATM    9  N   UNL     1       4.356  11.539  90.856  1.00  0.00    -0.337 N 
HETATM   10  HN  UNL     1       4.935  11.605  91.685  1.00  0.00     0.164 HD
BRANCH   9  11
HETATM   11  C   UNL     1       3.353  12.558  90.676  1.00  0.00     0.172 C 
BRANCH  11  12
HETATM   12  C   UNL     1       2.486  12.764  91.924  1.00  0.00     0.136 C 
HETATM   13  C   UNL     1       2.107  11.448  92.595  1.00  0.00     0.034 C 
BRANCH  12  14
HETATM   14  O   UNL     1       3.187  13.578  92.864  1.00  0.00    -0.383 OA
HETATM   15  H   UNL     1       3.524  13.004  93.572  1.00  0.00     0.210 HD
ENDBRANCH  12  14
ENDBRANCH  11  12
BRANCH  11  16
HETATM   16  C   UNL     1       4.064  13.846  90.276  1.00  0.00     0.398 A 
HETATM   17  O   UNL     1       3.464  14.878  89.979  1.00  0.00    -0.136 OA
HETATM   18  N   UNL     1       4.597  14.624  88.998  1.00  0.00     0.142 N 
HETATM   19  HN  UNL     1       4.271  15.471  88.625  1.00  0.00     0.338 HD
BRANCH  18  20
HETATM   20  S   UNL     1       5.425  13.632  88.484  1.00  0.00     0.076 SA
HETATM   21  H   UNL     1       6.143  13.948  87.592  1.00  0.00     0.136 HD
ENDBRANCH  18  20
ENDBRANCH  11  16
ENDBRANCH   9  11
ENDBRANCH   1   7
BRANCH   4  22
HETATM   22  C   UNL     1       8.572   6.737  91.271  1.00  0.00    -0.059 C 
HETATM   23  C   UNL     1       9.432   5.942  91.546  1.00  0.00    -0.059 C 
BRANCH  23  24
HETATM   24  C   UNL     1      10.455   4.998  91.874  1.00  0.00     0.042 A 
HETATM   25  C   UNL     1      10.985   4.964  93.163  1.00  0.00     0.008 A 
HETATM   26  C   UNL     1      11.984   4.044  93.482  1.00  0.00    -0.002 A 
HETATM   27  C   UNL     1      12.451   3.158  92.511  1.00  0.00     0.011 A 
HETATM   28  C   UNL     1      11.920   3.193  91.222  1.00  0.00    -0.002 A 
HETATM   29  C   UNL     1      10.922   4.113  90.903  1.00  0.00     0.008 A 
BRANCH  27  30
HETATM   30  C   UNL     1      13.518   2.174  92.854  1.00  0.00     0.277 C 
BRANCH  30  31
HETATM   31  N   UNL     1      14.608   2.778  93.617  1.00  0.00     0.147 N 
HETATM   32  C   UNL     1      15.882   2.106  93.325  1.00  0.00     0.283 C 
HETATM   33  C   UNL     1      17.007   2.760  94.124  1.00  0.00     0.178 C 
HETATM   34  O   UNL     1      17.094   4.151  93.812  1.00  0.00    -0.350 OA
HETATM   35  C   UNL     1      15.869   4.818  94.122  1.00  0.00     0.178 C 
HETATM   36  C   UNL     1      14.718   4.214  93.325  1.00  0.00     0.283 C 
ENDBRANCH  30  31
ENDBRANCH  27  30
ENDBRANCH  23  24
ENDBRANCH   4  22
TORSDOF 10
ENDMDL
MODEL 4
REMARK VINA RESULT:      -5.6      3.285      4.360
REMARK  10 active torsions:
REMARK  status: ('A' for Active; 'I' for Inactive)
REMARK    1  A    between atoms: O_2  and  C_16 
REMARK    2  A    between atoms: N_5  and  C_9 
REMARK    3  A    between atoms: N_6  and  C_13 
REMARK       I    between atoms: N_6  and  C_22 
REMARK    4  A    between atoms: C_9  and  C_12 
REMARK    5  A    between atoms: C_13  and  C_16 
REMARK    6  A    between atoms: C_13  and  C_21 
REMARK    7  A    between atoms: C_19  and  C_24 
REMARK    8  A    between atoms: C_22  and  C_23 
REMARK    9  A    between atoms: C_27  and  C_30 
REMARK   10  A    between atoms: N_33  and  S_34 
ROOT
HETATM    1  C   UNL     1       6.103   7.329  88.085  1.00  0.00     0.056 A 
HETATM    2  C   UNL     1       7.383   7.457  87.590  1.00  0.00     0.005 A 
HETATM    3  C   UNL     1       5.812   6.542  89.180  1.00  0.00     0.005 A 
HETATM    4  C   UNL     1       8.153   5.965  89.327  1.00  0.00     0.042 A 
HETATM    5  C   UNL     1       8.421   6.767  88.217  1.00  0.00     0.008 A 
HETATM    6  C   UNL     1       6.849   5.852  89.808  1.00  0.00     0.008 A 
ENDROOT
BRANCH   1   7
HETATM    7  C   UNL     1       4.998   8.065  87.418  1.00  0.00     0.254 C 
HETATM    8  O   UNL     1       4.995   8.162  86.193  1.00  0.00    -0.268 OA
HETATM    9  N   UNL     1       4.017   8.579  88.255  1.00  0.00    -0.337 N 
HETATM   10  HN  UNL     1       4.073   8.438  89.257  1.00  0.00     0.164 HD
BRANCH   9  11
HETATM   11  C   UNL     1       2.871   9.296  87.757  1.00  0.00     0.172 C 
BRANCH  11  12
HETATM   12  C   UNL     1       1.564   8.508  87.913  1.00  0.00     0.136 C 
HETATM   13  C   UNL     1       1.611   7.155  87.212  1.00  0.00     0.034 C 
BRANCH  12  14
HETATM   14  O   UNL     1       1.293   8.303  89.299  1.00  0.00    -0.383 OA
HETATM   15  H   UNL     1       1.659   7.440  89.557  1.00  0.00     0.210 HD
ENDBRANCH  12  14
ENDBRANCH  11  12
BRANCH  11  16
HETATM   16  C   UNL     1       2.803  10.632  88.489  1.00  0.00     0.398 A 
HETATM   17  O   UNL     1       3.130  11.698  87.970  1.00  0.00    -0.136 OA
HETATM   18  N   UNL     1       3.689  11.605  89.381  1.00  0.00     0.142 N 
HETATM   19  HN  UNL     1       4.019  12.500  89.155  1.00  0.00     0.338 HD
BRANCH  18  20
HETATM   20  S   UNL     1       4.028  10.707  90.387  1.00  0.00     0.076 SA
HETATM   21  H   UNL     1       4.051   9.558  90.088  1.00  0.00     0.136 HD
ENDBRANCH  18  20
ENDBRANCH  11  16
ENDBRANCH   9  11
ENDBRANCH   1   7
BRANCH   4  22
HETATM   22  C   UNL     1       9.216   5.255  89.968  1.00  0.00    -0.059 C 
HETATM   23  C   UNL     1      10.110   4.659  90.507  1.00  0.00    -0.059 C 
BRANCH  23  24
HETATM   24  C   UNL     1      11.174   3.950  91.149  1.00  0.00     0.042 A 
HETATM   25  C   UNL     1      12.472   4.038  90.647  1.00  0.00     0.008 A 
HETATM   26  C   UNL     1      13.509   3.345  91.272  1.00  0.00    -0.002 A 
HETATM   27  C   UNL     1      13.247   2.566  92.400  1.00  0.00     0.011 A 
HETATM   28  C   UNL     1      11.948   2.480  92.901  1.00  0.00    -0.002 A 
HETATM   29  C   UNL     1      10.911   3.173  92.275  1.00  0.00     0.008 A 
BRANCH  27  30
HETATM   30  C   UNL     1      14.356   1.828  93.068  1.00  0.00     0.277 C 
BRANCH  30  31
HETATM   31  N   UNL     1      15.297   2.724  93.738  1.00  0.00     0.147 N 
HETATM   32  C   UNL     1      16.680   2.408  93.353  1.00  0.00     0.283 C 
HETATM   33  C   UNL     1      17.643   3.362  94.055  1.00  0.00     0.178 C 
HETATM   34  O   UNL     1      17.330   4.717  93.724  1.00  0.00    -0.350 OA
HETATM   35  C   UNL     1      15.998   5.041  94.124  1.00  0.00     0.178 C 
HETATM   36  C   UNL     1      14.996   4.128  93.425  1.00  0.00     0.283 C 
ENDBRANCH  30  31
ENDBRANCH  27  30
ENDBRANCH  23  24
ENDBRANCH   4  22
TORSDOF 10
ENDMDL
MODEL 5
REMARK VINA RESULT:      -5.3      3.507     12.378
REMARK  10 active torsions:
REMARK  status: ('A' for Active; 'I' for Inactive)
REMARK    1  A    between atoms: O_2  and  C_16 
REMARK    2  A    between atoms: N_5  and  C_9 
REMARK    3  A    between atoms: N_6  and  C_13 
REMARK       I    between atoms: N_6  and  C_22 
REMARK    4  A    between atoms: C_9  and  C_12 
REMARK    5  A    between atoms: C_13  and  C_16 
REMARK    6  A    between atoms: C_13  and  C_21 
REMARK    7  A    between atoms: C_19  and  C_24 
REMARK    8  A    between atoms: C_22  and  C_23 
REMARK    9  A    between atoms: C_27  and  C_30 
REMARK   10  A    between atoms: N_33  and  S_34 
ROOT
HETATM    1  C   UNL     1      10.103   5.800  89.781  1.00  0.00     0.056 A 
HETATM    2  C   UNL     1       9.224   5.873  90.842  1.00  0.00     0.005 A 
HETATM    3  C   UNL     1      10.094   6.720  88.754  1.00  0.00     0.005 A 
HETATM    4  C   UNL     1       8.264   7.854  89.849  1.00  0.00     0.042 A 
HETATM    5  C   UNL     1       8.294   6.911  90.877  1.00  0.00     0.008 A 
HETATM    6  C   UNL     1       9.164   7.759  88.788  1.00  0.00     0.008 A 
ENDROOT
BRANCH   1   7
HETATM    7  C   UNL     1      11.096   4.695  89.746  1.00  0.00     0.254 C 
HETATM    8  O   UNL     1      11.271   4.080  88.697  1.00  0.00    -0.268 OA
HETATM    9  N   UNL     1      11.782   4.456  90.928  1.00  0.00    -0.337 N 
HETATM   10  HN  UNL     1      11.602   5.022  91.749  1.00  0.00     0.164 HD
BRANCH   9  11
HETATM   11  C   UNL     1      12.792   3.436  91.045  1.00  0.00     0.172 C 
BRANCH  11  12
HETATM   12  C   UNL     1      14.211   4.012  91.137  1.00  0.00     0.136 C 
HETATM   13  C   UNL     1      15.266   3.056  90.591  1.00  0.00     0.034 C 
BRANCH  12  14
HETATM   14  O   UNL     1      14.276   5.238  90.409  1.00  0.00    -0.383 OA
HETATM   15  H   UNL     1      13.401   5.408  90.020  1.00  0.00     0.210 HD
ENDBRANCH  12  14
ENDBRANCH  11  12
BRANCH  11  16
HETATM   16  C   UNL     1      12.458   2.588  92.269  1.00  0.00     0.398 A 
HETATM   17  O   UNL     1      11.341   2.563  92.781  1.00  0.00    -0.136 OA
HETATM   18  N   UNL     1      12.413   2.663  93.855  1.00  0.00     0.142 N 
HETATM   19  HN  UNL     1      11.626   2.628  94.440  1.00  0.00     0.338 HD
BRANCH  18  20
HETATM   20  S   UNL     1      13.732   3.041  94.080  1.00  0.00     0.076 SA
HETATM   21  H   UNL     1      14.302   2.481  94.960  1.00  0.00     0.136 HD
ENDBRANCH  18  20
ENDBRANCH  11  16
ENDBRANCH   9  11
ENDBRANCH   1   7
BRANCH   4  22
HETATM   22  C   UNL     1       7.308   8.917  89.883  1.00  0.00    -0.059 C 
HETATM   23  C   UNL     1       6.504   9.811  89.913  1.00  0.00    -0.059 C 
BRANCH  23  24
HETATM   24  C   UNL     1       5.548  10.874  89.948  1.00  0.00     0.042 A 
HETATM   25  C   UNL     1       4.359  10.718  90.659  1.00  0.00     0.008 A 
HETATM   26  C   UNL     1       3.426  11.754  90.692  1.00  0.00    -0.002 A 
HETATM   27  C   UNL     1       3.683  12.947  90.014  1.00  0.00     0.011 A 
HETATM   28  C   UNL     1       4.874  13.101  89.303  1.00  0.00    -0.002 A 
HETATM   29  C   UNL     1       5.806  12.064  89.270  1.00  0.00     0.008 A 
BRANCH  27  30
HETATM   30  C   UNL     1       2.686  14.054  90.052  1.00  0.00     0.277 C 
BRANCH  30  31
HETATM   31  N   UNL     1       2.708  14.781  91.320  1.00  0.00     0.147 N 
HETATM   32  C   UNL     1       1.795  14.161  92.291  1.00  0.00     0.283 C 
HETATM   33  C   UNL     1       1.844  14.929  93.609  1.00  0.00     0.178 C 
HETATM   34  O   UNL     1       3.177  14.953  94.122  1.00  0.00    -0.350 OA
HETATM   35  C   UNL     1       4.065  15.582  93.198  1.00  0.00     0.178 C 
HETATM   36  C   UNL     1       4.070  14.830  91.870  1.00  0.00     0.283 C 
ENDBRANCH  30  31
ENDBRANCH  27  30
ENDBRANCH  23  24
ENDBRANCH   4  22
TORSDOF 10
ENDMDL
MODEL 6
REMARK VINA RESULT:      -5.2      3.534     12.430
REMARK  10 active torsions:
REMARK  status: ('A' for Active; 'I' for Inactive)
REMARK    1  A    between atoms: O_2  and  C_16 
REMARK    2  A    between atoms: N_5  and  C_9 
REMARK    3  A    between atoms: N_6  and  C_13 
REMARK       I    between atoms: N_6  and  C_22 
REMARK    4  A    between atoms: C_9  and  C_12 
REMARK    5  A    between atoms: C_13  and  C_16 
REMARK    6  A    between atoms: C_13  and  C_21 
REMARK    7  A    between atoms: C_19  and  C_24 
REMARK    8  A    between atoms: C_22  and  C_23 
REMARK    9  A    between atoms: C_27  and  C_30 
REMARK   10  A    between atoms: N_33  and  S_34 
ROOT
HETATM    1  C   UNL     1      10.131   5.753  89.854  1.00  0.00     0.056 A 
HETATM    2  C   UNL     1      10.016   6.568  88.747  1.00  0.00     0.005 A 
HETATM    3  C   UNL     1       9.350   5.923  90.977  1.00  0.00     0.005 A 
HETATM    4  C   UNL     1       8.277   7.794  89.890  1.00  0.00     0.042 A 
HETATM    5  C   UNL     1       9.079   7.601  88.765  1.00  0.00     0.008 A 
HETATM    6  C   UNL     1       8.412   6.955  90.996  1.00  0.00     0.008 A 
ENDROOT
BRANCH   1   7
HETATM    7  C   UNL     1      11.129   4.652  89.833  1.00  0.00     0.254 C 
HETATM    8  O   UNL     1      11.332   4.047  88.784  1.00  0.00    -0.268 OA
HETATM    9  N   UNL     1      11.786   4.405  91.030  1.00  0.00    -0.337 N 
HETATM   10  HN  UNL     1      11.584   4.964  91.851  1.00  0.00     0.164 HD
BRANCH   9  11
HETATM   11  C   UNL     1      12.797   3.387  91.164  1.00  0.00     0.172 C 
BRANCH  11  12
HETATM   12  C   UNL     1      14.221   3.954  91.108  1.00  0.00     0.136 C 
HETATM   13  C   UNL     1      15.208   2.989  90.460  1.00  0.00     0.034 C 
BRANCH  12  14
HETATM   14  O   UNL     1      14.219   5.178  90.373  1.00  0.00    -0.383 OA
HETATM   15  H   UNL     1      14.167   5.914  91.005  1.00  0.00     0.210 HD
ENDBRANCH  12  14
ENDBRANCH  11  12
BRANCH  11  16
HETATM   16  C   UNL     1      12.545   2.651  92.476  1.00  0.00     0.398 A 
HETATM   17  O   UNL     1      11.564   2.863  93.186  1.00  0.00    -0.136 OA
HETATM   18  N   UNL     1      12.820   2.766  94.036  1.00  0.00     0.142 N 
HETATM   19  HN  UNL     1      12.168   2.903  94.757  1.00  0.00     0.338 HD
BRANCH  18  20
HETATM   20  S   UNL     1      14.205   2.875  93.994  1.00  0.00     0.076 SA
HETATM   21  H   UNL     1      14.770   2.169  93.222  1.00  0.00     0.136 HD
ENDBRANCH  18  20
ENDBRANCH  11  16
ENDBRANCH   9  11
ENDBRANCH   1   7
BRANCH   4  22
HETATM   22  C   UNL     1       7.318   8.854  89.909  1.00  0.00    -0.059 C 
HETATM   23  C   UNL     1       6.511   9.746  89.925  1.00  0.00    -0.059 C 
BRANCH  23  24
HETATM   24  C   UNL     1       5.550  10.806  89.945  1.00  0.00     0.042 A 
HETATM   25  C   UNL     1       5.841  12.020  89.324  1.00  0.00     0.008 A 
HETATM   26  C   UNL     1       4.906  13.055  89.345  1.00  0.00    -0.002 A 
HETATM   27  C   UNL     1       3.679  12.873  89.985  1.00  0.00     0.011 A 
HETATM   28  C   UNL     1       3.390  11.657  90.605  1.00  0.00    -0.002 A 
HETATM   29  C   UNL     1       4.326  10.624  90.584  1.00  0.00     0.008 A 
BRANCH  27  30
HETATM   30  C   UNL     1       2.680  13.979  90.004  1.00  0.00     0.277 C 
BRANCH  30  31
HETATM   31  N   UNL     1       2.587  14.623  91.314  1.00  0.00     0.147 N 
HETATM   32  C   UNL     1       1.828  13.786  92.253  1.00  0.00     0.283 C 
HETATM   33  C   UNL     1       1.754  14.472  93.614  1.00  0.00     0.178 C 
HETATM   34  O   UNL     1       3.068  14.721  94.117  1.00  0.00    -0.350 OA
HETATM   35  C   UNL     1       3.802  15.560  93.225  1.00  0.00     0.178 C 
HETATM   36  C   UNL     1       3.924  14.901  91.855  1.00  0.00     0.283 C 
ENDBRANCH  30  31
ENDBRANCH  27  30
ENDBRANCH  23  24
ENDBRANCH   4  22
TORSDOF 10
ENDMDL
MODEL 7
REMARK VINA RESULT:      -5.1      3.009      3.904
REMARK  10 active torsions:
REMARK  status: ('A' for Active; 'I' for Inactive)
REMARK    1  A    between atoms: O_2  and  C_16 
REMARK    2  A    between atoms: N_5  and  C_9 
REMARK    3  A    between atoms: N_6  and  C_13 
REMARK       I    between atoms: N_6  and  C_22 
REMARK    4  A    between atoms: C_9  and  C_12 
REMARK    5  A    between atoms: C_13  and  C_16 
REMARK    6  A    between atoms: C_13  and  C_21 
REMARK    7  A    between atoms: C_19  and  C_24 
REMARK    8  A    between atoms: C_22  and  C_23 
REMARK    9  A    between atoms: C_27  and  C_30 
REMARK   10  A    between atoms: N_33  and  S_34 
ROOT
HETATM    1  C   UNL     1       5.987   8.289  89.303  1.00  0.00     0.056 A 
HETATM    2  C   UNL     1       5.684   7.300  90.216  1.00  0.00     0.005 A 
HETATM    3  C   UNL     1       7.279   8.538  88.890  1.00  0.00     0.005 A 
HETATM    4  C   UNL     1       8.034   6.759  90.339  1.00  0.00     0.042 A 
HETATM    5  C   UNL     1       6.719   6.526  90.740  1.00  0.00     0.008 A 
HETATM    6  C   UNL     1       8.315   7.765  89.414  1.00  0.00     0.008 A 
ENDROOT
BRANCH   1   7
HETATM    7  C   UNL     1       4.884   9.111  88.743  1.00  0.00     0.254 C 
HETATM    8  O   UNL     1       4.638   9.047  87.541  1.00  0.00    -0.268 OA
HETATM    9  N   UNL     1       4.184   9.891  89.654  1.00  0.00    -0.337 N 
HETATM   10  HN  UNL     1       4.427   9.874  90.637  1.00  0.00     0.164 HD
BRANCH   9  11
HETATM   11  C   UNL     1       3.073  10.723  89.269  1.00  0.00     0.172 C 
BRANCH  11  12
HETATM   12  C   UNL     1       3.454  12.204  89.150  1.00  0.00     0.136 C 
HETATM   13  C   UNL     1       4.640  12.575  90.034  1.00  0.00     0.034 C 
BRANCH  12  14
HETATM   14  O   UNL     1       3.776  12.507  87.793  1.00  0.00    -0.383 OA
HETATM   15  H   UNL     1       4.744  12.515  87.704  1.00  0.00     0.210 HD
ENDBRANCH  12  14
ENDBRANCH  11  12
BRANCH  11  16
HETATM   16  C   UNL     1       2.521  10.185  87.953  1.00  0.00     0.398 A 
HETATM   17  O   UNL     1       1.685  10.787  87.281  1.00  0.00    -0.136 OA
HETATM   18  N   UNL     1       1.327   9.313  87.372  1.00  0.00     0.142 N 
HETATM   19  HN  UNL     1       0.589   9.605  86.796  1.00  0.00     0.338 HD
BRANCH  18  20
HETATM   20  S   UNL     1       1.528   8.162  88.126  1.00  0.00     0.076 SA
HETATM   21  H   UNL     1       0.560   7.660  88.597  1.00  0.00     0.136 HD
ENDBRANCH  18  20
ENDBRANCH  11  16
ENDBRANCH   9  11
ENDBRANCH   1   7
BRANCH   4  22
HETATM   22  C   UNL     1       9.096   5.968  90.879  1.00  0.00    -0.059 C 
HETATM   23  C   UNL     1       9.988   5.303  91.333  1.00  0.00    -0.059 C 
BRANCH  23  24
HETATM   24  C   UNL     1      11.050   4.510  91.874  1.00  0.00     0.042 A 
HETATM   25  C   UNL     1      11.151   4.330  93.253  1.00  0.00     0.008 A 
HETATM   26  C   UNL     1      12.187   3.559  93.781  1.00  0.00    -0.002 A 
HETATM   27  C   UNL     1      13.120   2.968  92.928  1.00  0.00     0.011 A 
HETATM   28  C   UNL     1      13.017   3.150  91.549  1.00  0.00    -0.002 A 
HETATM   29  C   UNL     1      11.982   3.921  91.022  1.00  0.00     0.008 A 
BRANCH  27  30
HETATM   30  C   UNL     1      14.226   2.143  93.493  1.00  0.00     0.277 C 
BRANCH  30  31
HETATM   31  N   UNL     1      15.326   2.959  94.004  1.00  0.00     0.147 N 
HETATM   32  C   UNL     1      16.619   2.437  93.543  1.00  0.00     0.283 C 
HETATM   33  C   UNL     1      17.751   3.311  94.078  1.00  0.00     0.178 C 
HETATM   34  O   UNL     1      17.578   4.664  93.652  1.00  0.00    -0.350 OA
HETATM   35  C   UNL     1      16.336   5.189  94.123  1.00  0.00     0.178 C 
HETATM   36  C   UNL     1      15.172   4.361  93.589  1.00  0.00     0.283 C 
ENDBRANCH  30  31
ENDBRANCH  27  30
ENDBRANCH  23  24
ENDBRANCH   4  22
TORSDOF 10
ENDMDL
MODEL 8
REMARK VINA RESULT:      -4.0      3.497     12.511
REMARK  10 active torsions:
REMARK  status: ('A' for Active; 'I' for Inactive)
REMARK    1  A    between atoms: O_2  and  C_16 
REMARK    2  A    between atoms: N_5  and  C_9 
REMARK    3  A    between atoms: N_6  and  C_13 
REMARK       I    between atoms: N_6  and  C_22 
REMARK    4  A    between atoms: C_9  and  C_12 
REMARK    5  A    between atoms: C_13  and  C_16 
REMARK    6  A    between atoms: C_13  and  C_21 
REMARK    7  A    between atoms: C_19  and  C_24 
REMARK    8  A    between atoms: C_22  and  C_23 
REMARK    9  A    between atoms: C_27  and  C_30 
REMARK   10  A    between atoms: N_33  and  S_34 
ROOT
HETATM    1  C   UNL     1      10.065   5.732  91.208  1.00  0.00     0.056 A 
HETATM    2  C   UNL     1       9.148   5.930  92.220  1.00  0.00     0.005 A 
HETATM    3  C   UNL     1      10.078   6.505  90.066  1.00  0.00     0.005 A 
HETATM    4  C   UNL     1       8.194   7.740  90.936  1.00  0.00     0.042 A 
HETATM    5  C   UNL     1       8.201   6.945  92.083  1.00  0.00     0.008 A 
HETATM    6  C   UNL     1       9.132   7.520  89.928  1.00  0.00     0.008 A 
ENDROOT
BRANCH   1   7
HETATM    7  C   UNL     1      11.074   4.652  91.356  1.00  0.00     0.254 C 
HETATM    8  O   UNL     1      11.342   3.945  90.388  1.00  0.00    -0.268 OA
HETATM    9  N   UNL     1      11.669   4.542  92.605  1.00  0.00    -0.337 N 
HETATM   10  HN  UNL     1      11.415   5.179  93.352  1.00  0.00     0.164 HD
BRANCH   9  11
HETATM   11  C   UNL     1      12.682   3.561  92.898  1.00  0.00     0.172 C 
BRANCH  11  12
HETATM   12  C   UNL     1      12.502   2.264  92.098  1.00  0.00     0.136 C 
HETATM   13  C   UNL     1      13.506   1.188  92.497  1.00  0.00     0.034 C 
BRANCH  12  14
HETATM   14  O   UNL     1      11.181   1.762  92.295  1.00  0.00    -0.383 OA
HETATM   15  H   UNL     1      11.043   1.019  91.683  1.00  0.00     0.210 HD
ENDBRANCH  12  14
ENDBRANCH  11  12
BRANCH  11  16
HETATM   16  C   UNL     1      14.040   4.198  92.623  1.00  0.00     0.398 A 
HETATM   17  O   UNL     1      14.610   4.117  91.536  1.00  0.00    -0.136 OA
HETATM   18  N   UNL     1      15.595   3.874  92.668  1.00  0.00     0.142 N 
HETATM   19  HN  UNL     1      16.220   3.799  91.916  1.00  0.00     0.338 HD
BRANCH  18  20
HETATM   20  S   UNL     1      15.686   3.495  94.003  1.00  0.00     0.076 SA
HETATM   21  H   UNL     1      16.142   4.296  94.753  1.00  0.00     0.136 HD
ENDBRANCH  18  20
ENDBRANCH  11  16
ENDBRANCH   9  11
ENDBRANCH   1   7
BRANCH   4  22
HETATM   22  C   UNL     1       7.221   8.778  90.794  1.00  0.00    -0.059 C 
HETATM   23  C   UNL     1       6.404   9.652  90.674  1.00  0.00    -0.059 C 
BRANCH  23  24
HETATM   24  C   UNL     1       5.430  10.690  90.532  1.00  0.00     0.042 A 
HETATM   25  C   UNL     1       4.207  10.594  91.195  1.00  0.00     0.008 A 
HETATM   26  C   UNL     1       3.257  11.605  91.055  1.00  0.00    -0.002 A 
HETATM   27  C   UNL     1       3.532  12.714  90.253  1.00  0.00     0.011 A 
HETATM   28  C   UNL     1       4.755  12.808  89.590  1.00  0.00    -0.002 A 
HETATM   29  C   UNL     1       5.705  11.796  89.730  1.00  0.00     0.008 A 
BRANCH  27  30
HETATM   30  C   UNL     1       2.516  13.795  90.105  1.00  0.00     0.277 C 
BRANCH  30  31
HETATM   31  N   UNL     1       2.402  14.620  91.307  1.00  0.00     0.147 N 
HETATM   32  C   UNL     1       1.413  14.054  92.235  1.00  0.00     0.283 C 
HETATM   33  C   UNL     1       1.320  14.925  93.485  1.00  0.00     0.178 C 
HETATM   34  O   UNL     1       2.597  15.025  94.118  1.00  0.00    -0.350 OA
HETATM   35  C   UNL     1       3.557  15.603  93.233  1.00  0.00     0.178 C 
HETATM   36  C   UNL     1       3.704  14.750  91.977  1.00  0.00     0.283 C 
ENDBRANCH  30  31
ENDBRANCH  27  30
ENDBRANCH  23  24
ENDBRANCH   4  22
TORSDOF 10
ENDMDL
