MODEL 1
REMARK VINA RESULT:      -7.6      0.000      0.000
REMARK  9 active torsions:
REMARK  status: ('A' for Active; 'I' for Inactive)
REMARK    1  A    between atoms: N_3  and  C_6 
REMARK    2  A    between atoms: C_6  and  C_9 
REMARK    3  A    between atoms: C_14  and  C_17 
REMARK       I    between atoms: N_26  and  C_15 
REMARK    4  A    between atoms: C_15  and  C_16 
REMARK    5  A    between atoms: C_20  and  C_23 
REMARK    6  A    between atoms: OG1_24  and  CB_28 
REMARK    7  A    between atoms: N_26  and  CA_27 
REMARK    8  A    between atoms: CA_27  and  CB_28 
REMARK    9  A    between atoms: CA_27  and  C_30 
ROOT
HETATM    1  O   UNK A   0       1.914   8.112  87.832  1.00  0.00    -0.388 OA
HETATM    2  N   UNK A   0       4.704   7.567  87.677  1.00  0.00     0.096 N 
HETATM    3  C   UNK A   0       4.195   8.941  87.797  1.00  0.00     0.299 C 
HETATM    4  C   UNK A   0       3.716   6.723  86.991  1.00  0.00     0.299 C 
HETATM    5  C   UNK A   0       2.855   8.934  88.527  1.00  0.00     0.198 C 
HETATM    6  C   UNK A   0       2.388   6.768  87.739  1.00  0.00     0.198 C 
ENDROOT
BRANCH   2   7
HETATM    7  C   UNK A   0       5.984   7.549  86.971  1.00  0.00     0.311 C 
BRANCH   7   8
HETATM    8  C   UNK A   0       7.073   6.940  87.785  1.00  0.00    -0.030 A 
HETATM    9  C   UNK A   0       8.305   6.652  87.196  1.00  0.00     0.010 A 
HETATM   10  C   UNK A   0       9.325   6.079  87.957  1.00  0.00     0.021 A 
HETATM   11  C   UNK A   0       9.113   5.798  89.306  1.00  0.00     0.018 A 
HETATM   12  C   UNK A   0       7.883   6.085  89.895  1.00  0.00     0.021 A 
HETATM   13  C   UNK A   0       6.863   6.657  89.135  1.00  0.00     0.010 A 
BRANCH  11  14
HETATM   14  C   UNK A   0      10.159   5.213  90.087  1.00  0.00    -0.061 C 
HETATM   15  C   UNK A   0      11.040   4.721  90.742  1.00  0.00    -0.061 C 
BRANCH  15  16
HETATM   16  C   UNK A   0      12.086   4.138  91.522  1.00  0.00     0.018 A 
HETATM   17  C   UNK A   0      13.345   3.932  90.957  1.00  0.00     0.022 A 
HETATM   18  C   UNK A   0      14.366   3.365  91.719  1.00  0.00     0.018 A 
HETATM   19  C   UNK A   0      14.106   3.017  93.028  1.00  0.00     0.032 A 
HETATM   20  C   UNK A   0      12.871   3.210  93.610  1.00  0.00     0.018 A 
HETATM   21  C   UNK A   0      11.849   3.777  92.849  1.00  0.00     0.022 A 
BRANCH  19  22
HETATM   22  C   UNK A   0      15.194   2.412  93.839  1.00  0.00     0.252 C 
HETATM   23  O   UNK A   0      16.342   2.830  93.711  1.00  0.00    -0.268 OA
ENDBRANCH  19  22
ENDBRANCH  15  16
ENDBRANCH  11  14
ENDBRANCH   7   8
ENDBRANCH   2   7
TORSDOF 9
ENDMDL
MODEL 2
REMARK VINA RESULT:      -7.5      0.123      1.014
REMARK  9 active torsions:
REMARK  status: ('A' for Active; 'I' for Inactive)
REMARK    1  A    between atoms: N_3  and  C_6 
REMARK    2  A    between atoms: C_6  and  C_9 
REMARK    3  A    between atoms: C_14  and  C_17 
REMARK       I    between atoms: N_26  and  C_15 
REMARK    4  A    between atoms: C_15  and  C_16 
REMARK    5  A    between atoms: C_20  and  C_23 
REMARK    6  A    between atoms: OG1_24  and  CB_28 
REMARK    7  A    between atoms: N_26  and  CA_27 
REMARK    8  A    between atoms: CA_27  and  CB_28 
REMARK    9  A    between atoms: CA_27  and  C_30 
ROOT
HETATM    1  O   UNK A   0       1.787   8.037  87.843  1.00  0.00    -0.388 OA
HETATM    2  N   UNK A   0       4.590   7.569  87.683  1.00  0.00     0.096 N 
HETATM    3  C   UNK A   0       4.042   8.930  87.755  1.00  0.00     0.299 C 
HETATM    4  C   UNK A   0       3.623   6.670  87.039  1.00  0.00     0.299 C 
HETATM    5  C   UNK A   0       2.708   8.912  88.497  1.00  0.00     0.198 C 
HETATM    6  C   UNK A   0       2.299   6.705  87.797  1.00  0.00     0.198 C 
ENDROOT
BRANCH   2   7
HETATM    7  C   UNK A   0       5.864   7.561  86.966  1.00  0.00     0.311 C 
BRANCH   7   8
HETATM    8  C   UNK A   0       6.966   6.963  87.773  1.00  0.00    -0.030 A 
HETATM    9  C   UNK A   0       6.744   6.618  89.107  1.00  0.00     0.010 A 
HETATM   10  C   UNK A   0       7.775   6.060  89.863  1.00  0.00     0.021 A 
HETATM   11  C   UNK A   0       9.026   5.847  89.285  1.00  0.00     0.018 A 
HETATM   12  C   UNK A   0       9.249   6.192  87.953  1.00  0.00     0.021 A 
HETATM   13  C   UNK A   0       8.218   6.750  87.197  1.00  0.00     0.010 A 
BRANCH  11  14
HETATM   14  C   UNK A   0      10.083   5.273  90.060  1.00  0.00    -0.061 C 
HETATM   15  C   UNK A   0      10.971   4.790  90.711  1.00  0.00    -0.061 C 
BRANCH  15  16
HETATM   16  C   UNK A   0      12.028   4.217  91.485  1.00  0.00     0.018 A 
HETATM   17  C   UNK A   0      13.280   4.009  90.908  1.00  0.00     0.022 A 
HETATM   18  C   UNK A   0      14.312   3.453  91.664  1.00  0.00     0.018 A 
HETATM   19  C   UNK A   0      14.068   3.117  92.979  1.00  0.00     0.032 A 
HETATM   20  C   UNK A   0      12.839   3.312  93.573  1.00  0.00     0.018 A 
HETATM   21  C   UNK A   0      11.806   3.869  92.818  1.00  0.00     0.022 A 
BRANCH  19  22
HETATM   22  C   UNK A   0      15.167   2.522  93.784  1.00  0.00     0.252 C 
HETATM   23  O   UNK A   0      16.321   2.898  93.593  1.00  0.00    -0.268 OA
ENDBRANCH  19  22
ENDBRANCH  15  16
ENDBRANCH  11  14
ENDBRANCH   7   8
ENDBRANCH   2   7
TORSDOF 9
ENDMDL
MODEL 3
REMARK VINA RESULT:      -7.5      0.108      1.428
REMARK  9 active torsions:
REMARK  status: ('A' for Active; 'I' for Inactive)
REMARK    1  A    between atoms: N_3  and  C_6 
REMARK    2  A    between atoms: C_6  and  C_9 
REMARK    3  A    between atoms: C_14  and  C_17 
REMARK       I    between atoms: N_26  and  C_15 
REMARK    4  A    between atoms: C_15  and  C_16 
REMARK    5  A    between atoms: C_20  and  C_23 
REMARK    6  A    between atoms: OG1_24  and  CB_28 
REMARK    7  A    between atoms: N_26  and  CA_27 
REMARK    8  A    between atoms: CA_27  and  CB_28 
REMARK    9  A    between atoms: CA_27  and  C_30 
ROOT
HETATM    1  O   UNK A   0       1.811   7.989  87.888  1.00  0.00    -0.388 OA
HETATM    2  N   UNK A   0       4.614   7.520  87.724  1.00  0.00     0.096 N 
HETATM    3  C   UNK A   0       4.070   8.877  87.874  1.00  0.00     0.299 C 
HETATM    4  C   UNK A   0       3.649   6.665  87.018  1.00  0.00     0.299 C 
HETATM    5  C   UNK A   0       2.729   8.819  88.602  1.00  0.00     0.198 C 
HETATM    6  C   UNK A   0       2.319   6.660  87.765  1.00  0.00     0.198 C 
ENDROOT
BRANCH   2   7
HETATM    7  C   UNK A   0       5.894   7.550  87.019  1.00  0.00     0.311 C 
BRANCH   7   8
HETATM    8  C   UNK A   0       6.999   6.952  87.822  1.00  0.00    -0.030 A 
HETATM    9  C   UNK A   0       6.774   6.579  89.148  1.00  0.00     0.010 A 
HETATM   10  C   UNK A   0       7.807   6.022  89.900  1.00  0.00     0.021 A 
HETATM   11  C   UNK A   0       9.064   5.835  89.326  1.00  0.00     0.018 A 
HETATM   12  C   UNK A   0       9.290   6.206  88.002  1.00  0.00     0.021 A 
HETATM   13  C   UNK A   0       8.257   6.765  87.250  1.00  0.00     0.010 A 
BRANCH  11  14
HETATM   14  C   UNK A   0      10.123   5.260  90.098  1.00  0.00    -0.061 C 
HETATM   15  C   UNK A   0      11.013   4.778  90.746  1.00  0.00    -0.061 C 
BRANCH  15  16
HETATM   16  C   UNK A   0      12.071   4.203  91.517  1.00  0.00     0.018 A 
HETATM   17  C   UNK A   0      11.849   3.845  92.847  1.00  0.00     0.022 A 
HETATM   18  C   UNK A   0      12.880   3.282  93.598  1.00  0.00     0.018 A 
HETATM   19  C   UNK A   0      14.109   3.089  93.003  1.00  0.00     0.032 A 
HETATM   20  C   UNK A   0      14.354   3.434  91.691  1.00  0.00     0.018 A 
HETATM   21  C   UNK A   0      13.323   3.997  90.939  1.00  0.00     0.022 A 
BRANCH  19  22
HETATM   22  C   UNK A   0      15.209   2.490  93.804  1.00  0.00     0.252 C 
HETATM   23  O   UNK A   0      16.353   2.914  93.663  1.00  0.00    -0.268 OA
ENDBRANCH  19  22
ENDBRANCH  15  16
ENDBRANCH  11  14
ENDBRANCH   7   8
ENDBRANCH   2   7
TORSDOF 9
ENDMDL
MODEL 4
REMARK VINA RESULT:      -7.5      0.180      1.023
REMARK  9 active torsions:
REMARK  status: ('A' for Active; 'I' for Inactive)
REMARK    1  A    between atoms: N_3  and  C_6 
REMARK    2  A    between atoms: C_6  and  C_9 
REMARK    3  A    between atoms: C_14  and  C_17 
REMARK       I    between atoms: N_26  and  C_15 
REMARK    4  A    between atoms: C_15  and  C_16 
REMARK    5  A    between atoms: C_20  and  C_23 
REMARK    6  A    between atoms: OG1_24  and  CB_28 
REMARK    7  A    between atoms: N_26  and  CA_27 
REMARK    8  A    between atoms: CA_27  and  CB_28 
REMARK    9  A    between atoms: CA_27  and  C_30 
ROOT
HETATM    1  O   UNK A   0       1.734   7.956  87.837  1.00  0.00    -0.388 OA
HETATM    2  N   UNK A   0       4.550   7.564  87.707  1.00  0.00     0.096 N 
HETATM    3  C   UNK A   0       3.966   8.909  87.804  1.00  0.00     0.299 C 
HETATM    4  C   UNK A   0       3.615   6.657  87.027  1.00  0.00     0.299 C 
HETATM    5  C   UNK A   0       2.623   8.838  88.526  1.00  0.00     0.198 C 
HETATM    6  C   UNK A   0       2.281   6.639  87.765  1.00  0.00     0.198 C 
ENDROOT
BRANCH   2   7
HETATM    7  C   UNK A   0       5.834   7.606  87.009  1.00  0.00     0.311 C 
BRANCH   7   8
HETATM    8  C   UNK A   0       6.936   7.001  87.810  1.00  0.00    -0.030 A 
HETATM    9  C   UNK A   0       8.142   6.665  87.194  1.00  0.00     0.010 A 
HETATM   10  C   UNK A   0       9.173   6.097  87.942  1.00  0.00     0.021 A 
HETATM   11  C   UNK A   0       8.998   5.867  89.306  1.00  0.00     0.018 A 
HETATM   12  C   UNK A   0       7.795   6.202  89.923  1.00  0.00     0.021 A 
HETATM   13  C   UNK A   0       6.763   6.770  89.175  1.00  0.00     0.010 A 
BRANCH  11  14
HETATM   14  C   UNK A   0      10.057   5.286  90.074  1.00  0.00    -0.061 C 
HETATM   15  C   UNK A   0      10.946   4.797  90.719  1.00  0.00    -0.061 C 
BRANCH  15  16
HETATM   16  C   UNK A   0      12.004   4.216  91.485  1.00  0.00     0.018 A 
HETATM   17  C   UNK A   0      11.780   3.844  92.811  1.00  0.00     0.022 A 
HETATM   18  C   UNK A   0      12.812   3.274  93.557  1.00  0.00     0.018 A 
HETATM   19  C   UNK A   0      14.042   3.090  92.962  1.00  0.00     0.032 A 
HETATM   20  C   UNK A   0      14.289   3.450  91.654  1.00  0.00     0.018 A 
HETATM   21  C   UNK A   0      13.258   4.019  90.906  1.00  0.00     0.022 A 
BRANCH  19  22
HETATM   22  C   UNK A   0      15.141   2.485  93.758  1.00  0.00     0.252 C 
HETATM   23  O   UNK A   0      16.155   3.143  93.979  1.00  0.00    -0.268 OA
ENDBRANCH  19  22
ENDBRANCH  15  16
ENDBRANCH  11  14
ENDBRANCH   7   8
ENDBRANCH   2   7
TORSDOF 9
ENDMDL
MODEL 5
REMARK VINA RESULT:      -6.9      1.546      2.174
REMARK  9 active torsions:
REMARK  status: ('A' for Active; 'I' for Inactive)
REMARK    1  A    between atoms: N_3  and  C_6 
REMARK    2  A    between atoms: C_6  and  C_9 
REMARK    3  A    between atoms: C_14  and  C_17 
REMARK       I    between atoms: N_26  and  C_15 
REMARK    4  A    between atoms: C_15  and  C_16 
REMARK    5  A    between atoms: C_20  and  C_23 
REMARK    6  A    between atoms: OG1_24  and  CB_28 
REMARK    7  A    between atoms: N_26  and  CA_27 
REMARK    8  A    between atoms: CA_27  and  CB_28 
REMARK    9  A    between atoms: CA_27  and  C_30 
ROOT
HETATM    1  O   UNK A   0       2.841  11.230  89.851  1.00  0.00    -0.388 OA
HETATM    2  N   UNK A   0       4.680   9.343  88.773  1.00  0.00     0.096 N 
HETATM    3  C   UNK A   0       3.816  10.155  87.905  1.00  0.00     0.299 C 
HETATM    4  C   UNK A   0       4.027   9.125  90.071  1.00  0.00     0.299 C 
HETATM    5  C   UNK A   0       3.482  11.474  88.598  1.00  0.00     0.198 C 
HETATM    6  C   UNK A   0       3.687  10.467  90.712  1.00  0.00     0.198 C 
ENDROOT
BRANCH   2   7
HETATM    7  C   UNK A   0       5.005   8.069  88.134  1.00  0.00     0.311 C 
BRANCH   7   8
HETATM    8  C   UNK A   0       6.197   7.415  88.745  1.00  0.00    -0.030 A 
HETATM    9  C   UNK A   0       7.453   8.011  88.630  1.00  0.00     0.010 A 
HETATM   10  C   UNK A   0       8.570   7.398  89.199  1.00  0.00     0.021 A 
HETATM   11  C   UNK A   0       8.429   6.192  89.884  1.00  0.00     0.018 A 
HETATM   12  C   UNK A   0       7.175   5.596  89.999  1.00  0.00     0.021 A 
HETATM   13  C   UNK A   0       6.058   6.208  89.429  1.00  0.00     0.010 A 
BRANCH  11  14
HETATM   14  C   UNK A   0       9.574   5.565  90.470  1.00  0.00    -0.061 C 
HETATM   15  C   UNK A   0      10.536   5.038  90.962  1.00  0.00    -0.061 C 
BRANCH  15  16
HETATM   16  C   UNK A   0      11.680   4.411  91.548  1.00  0.00     0.018 A 
HETATM   17  C   UNK A   0      11.631   3.970  92.871  1.00  0.00     0.022 A 
HETATM   18  C   UNK A   0      12.746   3.356  93.441  1.00  0.00     0.018 A 
HETATM   19  C   UNK A   0      13.883   3.196  92.677  1.00  0.00     0.032 A 
HETATM   20  C   UNK A   0      13.956   3.624  91.368  1.00  0.00     0.018 A 
HETATM   21  C   UNK A   0      12.842   4.239  90.796  1.00  0.00     0.022 A 
BRANCH  19  22
HETATM   22  C   UNK A   0      15.071   2.544  93.285  1.00  0.00     0.252 C 
HETATM   23  O   UNK A   0      16.003   3.241  93.679  1.00  0.00    -0.268 OA
ENDBRANCH  19  22
ENDBRANCH  15  16
ENDBRANCH  11  14
ENDBRANCH   7   8
ENDBRANCH   2   7
TORSDOF 9
ENDMDL
MODEL 6
REMARK VINA RESULT:      -6.8      1.591      2.120
REMARK  9 active torsions:
REMARK  status: ('A' for Active; 'I' for Inactive)
REMARK    1  A    between atoms: N_3  and  C_6 
REMARK    2  A    between atoms: C_6  and  C_9 
REMARK    3  A    between atoms: C_14  and  C_17 
REMARK       I    between atoms: N_26  and  C_15 
REMARK    4  A    between atoms: C_15  and  C_16 
REMARK    5  A    between atoms: C_20  and  C_23 
REMARK    6  A    between atoms: OG1_24  and  CB_28 
REMARK    7  A    between atoms: N_26  and  CA_27 
REMARK    8  A    between atoms: CA_27  and  CB_28 
REMARK    9  A    between atoms: CA_27  and  C_30 
ROOT
HETATM    1  O   UNK A   0       2.756  11.280  89.618  1.00  0.00    -0.388 OA
HETATM    2  N   UNK A   0       4.590   9.295  88.724  1.00  0.00     0.096 N 
HETATM    3  C   UNK A   0       3.803  10.095  87.776  1.00  0.00     0.299 C 
HETATM    4  C   UNK A   0       3.859   9.152  89.991  1.00  0.00     0.299 C 
HETATM    5  C   UNK A   0       3.473  11.452  88.394  1.00  0.00     0.198 C 
HETATM    6  C   UNK A   0       3.528  10.529  90.556  1.00  0.00     0.198 C 
ENDROOT
BRANCH   2   7
HETATM    7  C   UNK A   0       4.908   7.986  88.157  1.00  0.00     0.311 C 
BRANCH   7   8
HETATM    8  C   UNK A   0       6.106   7.367  88.793  1.00  0.00    -0.030 A 
HETATM    9  C   UNK A   0       5.976   6.179  89.515  1.00  0.00     0.010 A 
HETATM   10  C   UNK A   0       7.095   5.600  90.113  1.00  0.00     0.021 A 
HETATM   11  C   UNK A   0       8.344   6.208  89.987  1.00  0.00     0.018 A 
HETATM   12  C   UNK A   0       8.475   7.393  89.266  1.00  0.00     0.021 A 
HETATM   13  C   UNK A   0       7.356   7.973  88.669  1.00  0.00     0.010 A 
BRANCH  11  14
HETATM   14  C   UNK A   0       9.492   5.613  90.598  1.00  0.00    -0.061 C 
HETATM   15  C   UNK A   0      10.458   5.113  91.112  1.00  0.00    -0.061 C 
BRANCH  15  16
HETATM   16  C   UNK A   0      11.606   4.519  91.723  1.00  0.00     0.018 A 
HETATM   17  C   UNK A   0      12.737   4.240  90.956  1.00  0.00     0.022 A 
HETATM   18  C   UNK A   0      13.858   3.663  91.554  1.00  0.00     0.018 A 
HETATM   19  C   UNK A   0      13.822   3.379  92.903  1.00  0.00     0.032 A 
HETATM   20  C   UNK A   0      12.716   3.645  93.682  1.00  0.00     0.018 A 
HETATM   21  C   UNK A   0      11.595   4.222  93.086  1.00  0.00     0.022 A 
BRANCH  19  22
HETATM   22  C   UNK A   0      15.016   2.763  93.538  1.00  0.00     0.252 C 
HETATM   23  O   UNK A   0      14.975   1.581  93.871  1.00  0.00    -0.268 OA
ENDBRANCH  19  22
ENDBRANCH  15  16
ENDBRANCH  11  14
ENDBRANCH   7   8
ENDBRANCH   2   7
TORSDOF 9
ENDMDL
MODEL 7
REMARK VINA RESULT:      -6.6      3.935     10.472
REMARK  9 active torsions:
REMARK  status: ('A' for Active; 'I' for Inactive)
REMARK    1  A    between atoms: N_3  and  C_6 
REMARK    2  A    between atoms: C_6  and  C_9 
REMARK    3  A    between atoms: C_14  and  C_17 
REMARK       I    between atoms: N_26  and  C_15 
REMARK    4  A    between atoms: C_15  and  C_16 
REMARK    5  A    between atoms: C_20  and  C_23 
REMARK    6  A    between atoms: OG1_24  and  CB_28 
REMARK    7  A    between atoms: N_26  and  CA_27 
REMARK    8  A    between atoms: CA_27  and  CB_28 
REMARK    9  A    between atoms: CA_27  and  C_30 
ROOT
HETATM    1  O   UNK A   0      14.648   3.395  92.127  1.00  0.00    -0.388 OA
HETATM    2  N   UNK A   0      11.923   4.199  92.303  1.00  0.00     0.096 N 
HETATM    3  C   UNK A   0      12.537   3.338  93.323  1.00  0.00     0.299 C 
HETATM    4  C   UNK A   0      12.581   3.990  91.006  1.00  0.00     0.299 C 
HETATM    5  C   UNK A   0      14.036   3.615  93.400  1.00  0.00     0.198 C 
HETATM    6  C   UNK A   0      14.078   4.251  91.136  1.00  0.00     0.198 C 
ENDROOT
BRANCH   2   7
HETATM    7  C   UNK A   0      10.487   3.943  92.205  1.00  0.00     0.311 C 
BRANCH   7   8
HETATM    8  C   UNK A   0       9.707   5.182  91.923  1.00  0.00    -0.030 A 
HETATM    9  C   UNK A   0       8.818   5.216  90.848  1.00  0.00     0.010 A 
HETATM   10  C   UNK A   0       8.090   6.376  90.583  1.00  0.00     0.021 A 
HETATM   11  C   UNK A   0       8.249   7.499  91.393  1.00  0.00     0.018 A 
HETATM   12  C   UNK A   0       9.136   7.466  92.467  1.00  0.00     0.021 A 
HETATM   13  C   UNK A   0       9.866   6.307  92.733  1.00  0.00     0.010 A 
BRANCH  11  14
HETATM   14  C   UNK A   0       7.500   8.688  91.122  1.00  0.00    -0.061 C 
HETATM   15  C   UNK A   0       6.870   9.686  90.895  1.00  0.00    -0.061 C 
BRANCH  15  16
HETATM   16  C   UNK A   0       6.122  10.874  90.624  1.00  0.00     0.018 A 
HETATM   17  C   UNK A   0       5.279  11.404  91.602  1.00  0.00     0.022 A 
HETATM   18  C   UNK A   0       4.551  12.564  91.339  1.00  0.00     0.018 A 
HETATM   19  C   UNK A   0       4.683  13.169  90.106  1.00  0.00     0.032 A 
HETATM   20  C   UNK A   0       5.509  12.665  89.124  1.00  0.00     0.018 A 
HETATM   21  C   UNK A   0       6.237  11.504  89.386  1.00  0.00     0.022 A 
BRANCH  19  22
HETATM   22  C   UNK A   0       3.906  14.404  89.826  1.00  0.00     0.252 C 
HETATM   23  O   UNK A   0       4.502  15.471  89.696  1.00  0.00    -0.268 OA
ENDBRANCH  19  22
ENDBRANCH  15  16
ENDBRANCH  11  14
ENDBRANCH   7   8
ENDBRANCH   2   7
TORSDOF 9
ENDMDL
MODEL 8
REMARK VINA RESULT:      -6.5      3.246     10.311
REMARK  9 active torsions:
REMARK  status: ('A' for Active; 'I' for Inactive)
REMARK    1  A    between atoms: N_3  and  C_6 
REMARK    2  A    between atoms: C_6  and  C_9 
REMARK    3  A    between atoms: C_14  and  C_17 
REMARK       I    between atoms: N_26  and  C_15 
REMARK    4  A    between atoms: C_15  and  C_16 
REMARK    5  A    between atoms: C_20  and  C_23 
REMARK    6  A    between atoms: OG1_24  and  CB_28 
REMARK    7  A    between atoms: N_26  and  CA_27 
REMARK    8  A    between atoms: CA_27  and  CB_28 
REMARK    9  A    between atoms: CA_27  and  C_30 
ROOT
HETATM    1  O   UNK A   0      16.085   3.255  93.690  1.00  0.00    -0.388 OA
HETATM    2  N   UNK A   0      13.455   2.944  92.648  1.00  0.00     0.096 N 
HETATM    3  C   UNK A   0      14.275   1.783  93.021  1.00  0.00     0.299 C 
HETATM    4  C   UNK A   0      14.319   4.059  92.235  1.00  0.00     0.299 C 
HETATM    5  C   UNK A   0      15.255   2.176  94.124  1.00  0.00     0.198 C 
HETATM    6  C   UNK A   0      15.297   4.398  93.355  1.00  0.00     0.198 C 
ENDROOT
BRANCH   2   7
HETATM    7  C   UNK A   0      12.515   2.593  91.584  1.00  0.00     0.311 C 
BRANCH   7   8
HETATM    8  C   UNK A   0      11.565   3.700  91.278  1.00  0.00    -0.030 A 
HETATM    9  C   UNK A   0      11.514   4.238  89.991  1.00  0.00     0.010 A 
HETATM   10  C   UNK A   0      10.627   5.275  89.704  1.00  0.00     0.021 A 
HETATM   11  C   UNK A   0       9.790   5.773  90.703  1.00  0.00     0.018 A 
HETATM   12  C   UNK A   0       9.840   5.236  91.987  1.00  0.00     0.021 A 
HETATM   13  C   UNK A   0      10.728   4.199  92.276  1.00  0.00     0.010 A 
BRANCH  11  14
HETATM   14  C   UNK A   0       8.879   6.835  90.407  1.00  0.00    -0.061 C 
HETATM   15  C   UNK A   0       8.114   7.729  90.159  1.00  0.00    -0.061 C 
BRANCH  15  16
HETATM   16  C   UNK A   0       7.203   8.791  89.863  1.00  0.00     0.018 A 
HETATM   17  C   UNK A   0       7.671  10.101  89.764  1.00  0.00     0.022 A 
HETATM   18  C   UNK A   0       6.783  11.137  89.472  1.00  0.00     0.018 A 
HETATM   19  C   UNK A   0       5.449  10.839  89.286  1.00  0.00     0.032 A 
HETATM   20  C   UNK A   0       4.963   9.552  89.379  1.00  0.00     0.018 A 
HETATM   21  C   UNK A   0       5.849   8.516  89.670  1.00  0.00     0.022 A 
BRANCH  19  22
HETATM   22  C   UNK A   0       4.504  11.943  88.977  1.00  0.00     0.252 C 
HETATM   23  O   UNK A   0       4.579  12.511  87.890  1.00  0.00    -0.268 OA
ENDBRANCH  19  22
ENDBRANCH  15  16
ENDBRANCH  11  14
ENDBRANCH   7   8
ENDBRANCH   2   7
TORSDOF 9
ENDMDL
MODEL 9
REMARK VINA RESULT:      -6.5      3.771     10.259
REMARK  9 active torsions:
REMARK  status: ('A' for Active; 'I' for Inactive)
REMARK    1  A    between atoms: N_3  and  C_6 
REMARK    2  A    between atoms: C_6  and  C_9 
REMARK    3  A    between atoms: C_14  and  C_17 
REMARK       I    between atoms: N_26  and  C_15 
REMARK    4  A    between atoms: C_15  and  C_16 
REMARK    5  A    between atoms: C_20  and  C_23 
REMARK    6  A    between atoms: OG1_24  and  CB_28 
REMARK    7  A    between atoms: N_26  and  CA_27 
REMARK    8  A    between atoms: CA_27  and  CB_28 
REMARK    9  A    between atoms: CA_27  and  C_30 
ROOT
HETATM    1  O   UNK A   0      14.042   2.910  92.813  1.00  0.00    -0.388 OA
HETATM    2  N   UNK A   0      11.936   4.074  91.292  1.00  0.00     0.096 N 
HETATM    3  C   UNK A   0      11.684   2.983  92.244  1.00  0.00     0.299 C 
HETATM    4  C   UNK A   0      13.303   3.973  90.761  1.00  0.00     0.299 C 
HETATM    5  C   UNK A   0      12.726   3.019  93.359  1.00  0.00     0.198 C 
HETATM    6  C   UNK A   0      14.306   3.984  91.910  1.00  0.00     0.198 C 
ENDROOT
BRANCH   2   7
HETATM    7  C   UNK A   0      10.955   4.053  90.209  1.00  0.00     0.311 C 
BRANCH   7   8
HETATM    8  C   UNK A   0      10.130   5.294  90.165  1.00  0.00    -0.030 A 
HETATM    9  C   UNK A   0      10.192   6.133  89.052  1.00  0.00     0.010 A 
HETATM   10  C   UNK A   0       9.422   7.295  89.011  1.00  0.00     0.021 A 
HETATM   11  C   UNK A   0       8.590   7.617  90.082  1.00  0.00     0.018 A 
HETATM   12  C   UNK A   0       8.527   6.780  91.195  1.00  0.00     0.021 A 
HETATM   13  C   UNK A   0       9.297   5.618  91.236  1.00  0.00     0.010 A 
BRANCH  11  14
HETATM   14  C   UNK A   0       7.798   8.808  90.039  1.00  0.00    -0.061 C 
HETATM   15  C   UNK A   0       7.133   9.809  90.003  1.00  0.00    -0.061 C 
BRANCH  15  16
HETATM   16  C   UNK A   0       6.342  10.999  89.961  1.00  0.00     0.018 A 
HETATM   17  C   UNK A   0       6.508  11.909  88.917  1.00  0.00     0.022 A 
HETATM   18  C   UNK A   0       5.735  13.069  88.875  1.00  0.00     0.018 A 
HETATM   19  C   UNK A   0       4.813  13.292  89.876  1.00  0.00     0.032 A 
HETATM   20  C   UNK A   0       4.630  12.409  90.919  1.00  0.00     0.018 A 
HETATM   21  C   UNK A   0       5.403  11.248  90.962  1.00  0.00     0.022 A 
BRANCH  19  22
HETATM   22  C   UNK A   0       3.990  14.529  89.831  1.00  0.00     0.252 C 
HETATM   23  O   UNK A   0       4.551  15.622  89.824  1.00  0.00    -0.268 OA
ENDBRANCH  19  22
ENDBRANCH  15  16
ENDBRANCH  11  14
ENDBRANCH   7   8
ENDBRANCH   2   7
TORSDOF 9
ENDMDL
