MODEL 1
REMARK VINA RESULT:      -6.2      0.000      0.000
REMARK  12 active torsions:
REMARK  status: ('A' for Active; 'I' for Inactive)
REMARK    1  A    between atoms: O_2  and  C_16 
REMARK    2  A    between atoms: N_5  and  C_9 
REMARK    3  A    between atoms: N_6  and  C_13 
REMARK       I    between atoms: N_6  and  C_22 
REMARK    4  A    between atoms: C_9  and  C_12 
REMARK    5  A    between atoms: C_13  and  C_16 
REMARK    6  A    between atoms: C_13  and  C_21 
REMARK    7  A    between atoms: C_19  and  C_24 
REMARK    8  A    between atoms: C_21  and  C_33 
REMARK    9  A    between atoms: C_22  and  C_23 
REMARK   10  A    between atoms: C_27  and  C_30 
REMARK   11  A    between atoms: C_33  and  C_34 
REMARK   12  A    between atoms: C_34  and  C_35 
ROOT
HETATM    1  O   UNL     1      16.595   3.186  93.952  1.00  0.00    -0.350 OA
HETATM    2  N   UNL     1      14.096   3.126  92.590  1.00  0.00     0.147 N 
HETATM    3  C   UNL     1      14.846   1.895  92.873  1.00  0.00     0.283 C 
HETATM    4  C   UNL     1      15.022   4.258  92.449  1.00  0.00     0.283 C 
HETATM    5  C   UNL     1      15.700   2.085  94.124  1.00  0.00     0.178 C 
HETATM    6  C   UNL     1      15.872   4.393  93.708  1.00  0.00     0.178 C 
ENDROOT
BRANCH   2   7
HETATM    7  C   UNL     1      13.278   2.970  91.389  1.00  0.00     0.277 C 
BRANCH   7   8
HETATM    8  C   UNL     1      12.086   3.865  91.393  1.00  0.00     0.011 A 
HETATM    9  C   UNL     1      11.474   4.204  92.600  1.00  0.00    -0.002 A 
HETATM   10  C   UNL     1      10.357   5.040  92.605  1.00  0.00     0.008 A 
HETATM   11  C   UNL     1       9.855   5.538  91.403  1.00  0.00     0.042 A 
HETATM   12  C   UNL     1      10.465   5.200  90.197  1.00  0.00     0.008 A 
HETATM   13  C   UNL     1      11.582   4.364  90.192  1.00  0.00    -0.002 A 
BRANCH  11  14
HETATM   14  C   UNL     1       8.711   6.397  91.409  1.00  0.00    -0.059 C 
HETATM   15  C   UNL     1       7.749   7.118  91.412  1.00  0.00    -0.059 C 
BRANCH  15  16
HETATM   16  C   UNL     1       6.605   7.976  91.418  1.00  0.00     0.042 A 
HETATM   17  C   UNL     1       6.727   9.297  91.849  1.00  0.00     0.008 A 
HETATM   18  C   UNL     1       5.611  10.134  91.851  1.00  0.00     0.005 A 
HETATM   19  C   UNL     1       4.400   9.632  91.423  1.00  0.00     0.056 A 
HETATM   20  C   UNL     1       4.253   8.330  90.993  1.00  0.00     0.005 A 
HETATM   21  C   UNL     1       5.368   7.492  90.990  1.00  0.00     0.008 A 
BRANCH  19  22
HETATM   22  C   UNL     1       3.212  10.524  91.428  1.00  0.00     0.254 C 
HETATM   23  O   UNL     1       2.096  10.037  91.263  1.00  0.00    -0.268 OA
HETATM   24  N   UNL     1       3.463  11.871  91.649  1.00  0.00    -0.335 N 
HETATM   25  HN  UNL     1       4.410  12.198  91.802  1.00  0.00     0.164 HD
BRANCH  24  26
HETATM   26  C   UNL     1       2.414  12.857  91.707  1.00  0.00     0.166 C 
BRANCH  26  27
HETATM   27  C   UNL     1       2.373  13.603  93.046  1.00  0.00     0.138 C 
HETATM   28  C   UNL     1       3.756  14.049  93.508  1.00  0.00     0.034 C 
BRANCH  27  29
HETATM   29  O   UNL     1       1.531  14.749  92.928  1.00  0.00    -0.383 OA
HETATM   30  H   UNL     1       2.047  15.467  92.524  1.00  0.00     0.210 HD
ENDBRANCH  27  29
ENDBRANCH  26  27
BRANCH  26  31
HETATM   31  C   UNL     1       2.615  13.820  90.541  1.00  0.00     0.181 C 
HETATM   32  O   UNL     1       1.757  14.624  90.182  1.00  0.00    -0.294 OA
BRANCH  31  33
HETATM   33  C   UNL     1       3.992  14.662  90.687  1.00  0.00     0.138 C 
BRANCH  33  34
HETATM   34  C   UNL     1       4.637  14.344  89.471  1.00  0.00     0.208 C 
HETATM   35  O   UNL     1       5.041  15.281  88.822  1.00  0.00    -0.289 OA
BRANCH  34  36
HETATM   36  C   UNL     1       5.147  13.157  89.022  1.00  0.00     0.194 C 
HETATM   37  O   UNL     1       4.634  12.248  88.089  1.00  0.00    -0.185 OA
ENDBRANCH  34  36
ENDBRANCH  33  34
ENDBRANCH  31  33
ENDBRANCH  26  31
ENDBRANCH  24  26
ENDBRANCH  19  22
ENDBRANCH  15  16
ENDBRANCH  11  14
ENDBRANCH   7   8
ENDBRANCH   2   7
TORSDOF 12
ENDMDL
MODEL 2
REMARK VINA RESULT:      -6.1      1.113      1.652
REMARK  12 active torsions:
REMARK  status: ('A' for Active; 'I' for Inactive)
REMARK    1  A    between atoms: O_2  and  C_16 
REMARK    2  A    between atoms: N_5  and  C_9 
REMARK    3  A    between atoms: N_6  and  C_13 
REMARK       I    between atoms: N_6  and  C_22 
REMARK    4  A    between atoms: C_9  and  C_12 
REMARK    5  A    between atoms: C_13  and  C_16 
REMARK    6  A    between atoms: C_13  and  C_21 
REMARK    7  A    between atoms: C_19  and  C_24 
REMARK    8  A    between atoms: C_21  and  C_33 
REMARK    9  A    between atoms: C_22  and  C_23 
REMARK   10  A    between atoms: C_27  and  C_30 
REMARK   11  A    between atoms: C_33  and  C_34 
REMARK   12  A    between atoms: C_34  and  C_35 
ROOT
HETATM    1  O   UNL     1      16.259   4.384  94.059  1.00  0.00    -0.350 OA
HETATM    2  N   UNL     1      14.596   2.647  92.537  1.00  0.00     0.147 N 
HETATM    3  C   UNL     1      14.443   4.107  92.473  1.00  0.00     0.283 C 
HETATM    4  C   UNL     1      15.121   2.252  93.851  1.00  0.00     0.283 C 
HETATM    5  C   UNL     1      15.780   4.780  92.773  1.00  0.00     0.178 C 
HETATM    6  C   UNL     1      16.440   2.968  94.119  1.00  0.00     0.178 C 
ENDROOT
BRANCH   2   7
HETATM    7  C   UNL     1      13.324   1.981  92.263  1.00  0.00     0.277 C 
BRANCH   7   8
HETATM    8  C   UNL     1      12.184   2.940  92.195  1.00  0.00     0.011 A 
HETATM    9  C   UNL     1      11.899   3.762  93.286  1.00  0.00    -0.002 A 
HETATM   10  C   UNL     1      10.832   4.658  93.224  1.00  0.00     0.008 A 
HETATM   11  C   UNL     1      10.052   4.732  92.070  1.00  0.00     0.042 A 
HETATM   12  C   UNL     1      10.335   3.912  90.981  1.00  0.00     0.008 A 
HETATM   13  C   UNL     1      11.402   3.015  91.042  1.00  0.00    -0.002 A 
BRANCH  11  14
HETATM   14  C   UNL     1       8.958   5.653  92.006  1.00  0.00    -0.059 C 
HETATM   15  C   UNL     1       8.040   6.427  91.953  1.00  0.00    -0.059 C 
BRANCH  15  16
HETATM   16  C   UNL     1       6.947   7.347  91.888  1.00  0.00     0.042 A 
HETATM   17  C   UNL     1       5.814   7.032  91.138  1.00  0.00     0.008 A 
HETATM   18  C   UNL     1       4.748   7.929  91.077  1.00  0.00     0.005 A 
HETATM   19  C   UNL     1       4.838   9.119  91.768  1.00  0.00     0.056 A 
HETATM   20  C   UNL     1       5.947   9.454  92.516  1.00  0.00     0.005 A 
HETATM   21  C   UNL     1       7.014   8.558  92.577  1.00  0.00     0.008 A 
BRANCH  19  22
HETATM   22  C   UNL     1       3.702  10.075  91.701  1.00  0.00     0.254 C 
HETATM   23  O   UNL     1       2.556   9.640  91.623  1.00  0.00    -0.268 OA
HETATM   24  N   UNL     1       4.036  11.421  91.758  1.00  0.00    -0.335 N 
HETATM   25  HN  UNL     1       5.004  11.706  91.848  1.00  0.00     0.164 HD
BRANCH  24  26
HETATM   26  C   UNL     1       3.046  12.468  91.729  1.00  0.00     0.166 C 
BRANCH  26  27
HETATM   27  C   UNL     1       3.263  13.520  92.824  1.00  0.00     0.138 C 
HETATM   28  C   UNL     1       4.386  13.142  93.783  1.00  0.00     0.034 C 
BRANCH  27  29
HETATM   29  O   UNL     1       3.571  14.777  92.223  1.00  0.00    -0.383 OA
HETATM   30  H   UNL     1       4.485  14.743  91.894  1.00  0.00     0.210 HD
ENDBRANCH  27  29
ENDBRANCH  26  27
BRANCH  26  31
HETATM   31  C   UNL     1       3.075  13.098  90.340  1.00  0.00     0.181 C 
HETATM   32  O   UNL     1       2.478  14.137  90.064  1.00  0.00    -0.294 OA
BRANCH  31  33
HETATM   33  C   UNL     1       4.591  13.289  89.798  1.00  0.00     0.138 C 
BRANCH  33  34
HETATM   34  C   UNL     1       4.482  12.762  88.492  1.00  0.00     0.208 C 
HETATM   35  O   UNL     1       5.201  13.259  87.655  1.00  0.00    -0.289 OA
BRANCH  34  36
HETATM   36  C   UNL     1       3.918  11.597  88.050  1.00  0.00     0.194 C 
HETATM   37  O   UNL     1       4.459  10.310  87.952  1.00  0.00    -0.185 OA
ENDBRANCH  34  36
ENDBRANCH  33  34
ENDBRANCH  31  33
ENDBRANCH  26  31
ENDBRANCH  24  26
ENDBRANCH  19  22
ENDBRANCH  15  16
ENDBRANCH  11  14
ENDBRANCH   7   8
ENDBRANCH   2   7
TORSDOF 12
ENDMDL
MODEL 3
REMARK VINA RESULT:      -4.6      2.310     13.066
REMARK  12 active torsions:
REMARK  status: ('A' for Active; 'I' for Inactive)
REMARK    1  A    between atoms: O_2  and  C_16 
REMARK    2  A    between atoms: N_5  and  C_9 
REMARK    3  A    between atoms: N_6  and  C_13 
REMARK       I    between atoms: N_6  and  C_22 
REMARK    4  A    between atoms: C_9  and  C_12 
REMARK    5  A    between atoms: C_13  and  C_16 
REMARK    6  A    between atoms: C_13  and  C_21 
REMARK    7  A    between atoms: C_19  and  C_24 
REMARK    8  A    between atoms: C_21  and  C_33 
REMARK    9  A    between atoms: C_22  and  C_23 
REMARK   10  A    between atoms: C_27  and  C_30 
REMARK   11  A    between atoms: C_33  and  C_34 
REMARK   12  A    between atoms: C_34  and  C_35 
ROOT
HETATM    1  O   UNL     1       2.723  14.652  93.956  1.00  0.00    -0.350 OA
HETATM    2  N   UNL     1       2.514  14.387  91.130  1.00  0.00     0.147 N 
HETATM    3  C   UNL     1       1.529  13.776  92.034  1.00  0.00     0.283 C 
HETATM    4  C   UNL     1       3.819  14.484  91.798  1.00  0.00     0.283 C 
HETATM    5  C   UNL     1       1.443  14.583  93.326  1.00  0.00     0.178 C 
HETATM    6  C   UNL     1       3.679  15.273  93.096  1.00  0.00     0.178 C 
ENDROOT
BRANCH   2   7
HETATM    7  C   UNL     1       2.621  13.622  89.888  1.00  0.00     0.277 C 
BRANCH   7   8
HETATM    8  C   UNL     1       3.592  12.496  89.997  1.00  0.00     0.011 A 
HETATM    9  C   UNL     1       4.795  12.543  89.291  1.00  0.00    -0.002 A 
HETATM   10  C   UNL     1       5.703  11.489  89.390  1.00  0.00     0.008 A 
HETATM   11  C   UNL     1       5.408  10.390  90.197  1.00  0.00     0.042 A 
HETATM   12  C   UNL     1       4.207  10.342  90.902  1.00  0.00     0.008 A 
HETATM   13  C   UNL     1       3.299  11.396  90.802  1.00  0.00    -0.002 A 
BRANCH  11  14
HETATM   14  C   UNL     1       6.340   9.309  90.300  1.00  0.00    -0.059 C 
HETATM   15  C   UNL     1       7.125   8.402  90.387  1.00  0.00    -0.059 C 
BRANCH  15  16
HETATM   16  C   UNL     1       8.056   7.323  90.491  1.00  0.00     0.042 A 
HETATM   17  C   UNL     1       8.002   6.266  89.582  1.00  0.00     0.008 A 
HETATM   18  C   UNL     1       8.913   5.214  89.682  1.00  0.00     0.005 A 
HETATM   19  C   UNL     1       9.857   5.243  90.687  1.00  0.00     0.056 A 
HETATM   20  C   UNL     1       9.931   6.276  91.598  1.00  0.00     0.005 A 
HETATM   21  C   UNL     1       9.021   7.328  91.499  1.00  0.00     0.008 A 
BRANCH  19  22
HETATM   22  C   UNL     1      10.826   4.122  90.794  1.00  0.00     0.254 C 
HETATM   23  O   UNL     1      10.663   3.120  90.101  1.00  0.00    -0.268 OA
HETATM   24  N   UNL     1      11.881   4.312  91.676  1.00  0.00    -0.335 N 
HETATM   25  HN  UNL     1      11.964   5.177  92.197  1.00  0.00     0.164 HD
BRANCH  24  26
HETATM   26  C   UNL     1      12.914   3.327  91.873  1.00  0.00     0.166 C 
BRANCH  26  27
HETATM   27  C   UNL     1      14.011   3.396  90.802  1.00  0.00     0.138 C 
HETATM   28  C   UNL     1      14.350   4.828  90.405  1.00  0.00     0.034 C 
BRANCH  27  29
HETATM   29  O   UNL     1      15.192   2.758  91.287  1.00  0.00    -0.383 OA
HETATM   30  H   UNL     1      15.175   2.784  92.259  1.00  0.00     0.210 HD
ENDBRANCH  27  29
ENDBRANCH  26  27
BRANCH  26  31
HETATM   31  C   UNL     1      13.490   3.529  93.270  1.00  0.00     0.181 C 
HETATM   32  O   UNL     1      13.079   4.390  94.046  1.00  0.00    -0.294 OA
BRANCH  31  33
HETATM   33  C   UNL     1      13.529   2.144  94.112  1.00  0.00     0.138 C 
BRANCH  33  34
HETATM   34  C   UNL     1      14.907   1.836  94.067  1.00  0.00     0.208 C 
HETATM   35  O   UNL     1      15.191   0.724  93.685  1.00  0.00    -0.289 OA
BRANCH  34  36
HETATM   36  C   UNL     1      16.001   2.655  94.105  1.00  0.00     0.194 C 
HETATM   37  O   UNL     1      17.173   2.636  93.339  1.00  0.00    -0.185 OA
ENDBRANCH  34  36
ENDBRANCH  33  34
ENDBRANCH  31  33
ENDBRANCH  26  31
ENDBRANCH  24  26
ENDBRANCH  19  22
ENDBRANCH  15  16
ENDBRANCH  11  14
ENDBRANCH   7   8
ENDBRANCH   2   7
TORSDOF 12
ENDMDL
MODEL 4
REMARK VINA RESULT:      -4.4      1.457      3.058
REMARK  12 active torsions:
REMARK  status: ('A' for Active; 'I' for Inactive)
REMARK    1  A    between atoms: O_2  and  C_16 
REMARK    2  A    between atoms: N_5  and  C_9 
REMARK    3  A    between atoms: N_6  and  C_13 
REMARK       I    between atoms: N_6  and  C_22 
REMARK    4  A    between atoms: C_9  and  C_12 
REMARK    5  A    between atoms: C_13  and  C_16 
REMARK    6  A    between atoms: C_13  and  C_21 
REMARK    7  A    between atoms: C_19  and  C_24 
REMARK    8  A    between atoms: C_21  and  C_33 
REMARK    9  A    between atoms: C_22  and  C_23 
REMARK   10  A    between atoms: C_27  and  C_30 
REMARK   11  A    between atoms: C_33  and  C_34 
REMARK   12  A    between atoms: C_34  and  C_35 
ROOT
HETATM    1  O   UNL     1      16.042   3.659  94.124  1.00  0.00    -0.350 OA
HETATM    2  N   UNL     1      14.042   2.453  92.497  1.00  0.00     0.147 N 
HETATM    3  C   UNL     1      14.248   3.908  92.508  1.00  0.00     0.283 C 
HETATM    4  C   UNL     1      14.426   1.880  93.794  1.00  0.00     0.283 C 
HETATM    5  C   UNL     1      15.701   4.222  92.855  1.00  0.00     0.178 C 
HETATM    6  C   UNL     1      15.874   2.241  94.111  1.00  0.00     0.178 C 
ENDROOT
BRANCH   2   7
HETATM    7  C   UNL     1      12.653   2.129  92.177  1.00  0.00     0.277 C 
BRANCH   7   8
HETATM    8  C   UNL     1      11.843   3.343  91.871  1.00  0.00     0.011 A 
HETATM    9  C   UNL     1      11.704   3.774  90.551  1.00  0.00    -0.002 A 
HETATM   10  C   UNL     1      10.948   4.910  90.265  1.00  0.00     0.008 A 
HETATM   11  C   UNL     1      10.330   5.614  91.298  1.00  0.00     0.042 A 
HETATM   12  C   UNL     1      10.467   5.185  92.616  1.00  0.00     0.008 A 
HETATM   13  C   UNL     1      11.224   4.049  92.903  1.00  0.00    -0.002 A 
BRANCH  11  14
HETATM   14  C   UNL     1       9.553   6.779  91.003  1.00  0.00    -0.059 C 
HETATM   15  C   UNL     1       8.899   7.757  90.756  1.00  0.00    -0.059 C 
BRANCH  15  16
HETATM   16  C   UNL     1       8.122   8.921  90.462  1.00  0.00     0.042 A 
HETATM   17  C   UNL     1       6.912   9.135  91.123  1.00  0.00     0.008 A 
HETATM   18  C   UNL     1       6.155  10.271  90.838  1.00  0.00     0.005 A 
HETATM   19  C   UNL     1       6.625  11.167  89.900  1.00  0.00     0.056 A 
HETATM   20  C   UNL     1       7.817  10.978  89.233  1.00  0.00     0.005 A 
HETATM   21  C   UNL     1       8.575   9.842  89.517  1.00  0.00     0.008 A 
BRANCH  19  22
HETATM   22  C   UNL     1       5.817  12.377  89.596  1.00  0.00     0.254 C 
HETATM   23  O   UNL     1       5.920  12.904  88.491  1.00  0.00    -0.268 OA
HETATM   24  N   UNL     1       4.969  12.812  90.605  1.00  0.00    -0.335 N 
HETATM   25  HN  UNL     1       4.919  12.310  91.484  1.00  0.00     0.164 HD
BRANCH  24  26
HETATM   26  C   UNL     1       4.105  13.955  90.453  1.00  0.00     0.166 C 
BRANCH  26  27
HETATM   27  C   UNL     1       2.710  13.580  89.938  1.00  0.00     0.138 C 
HETATM   28  C   UNL     1       2.758  12.536  88.828  1.00  0.00     0.034 C 
BRANCH  27  29
HETATM   29  O   UNL     1       1.924  13.074  91.017  1.00  0.00    -0.383 OA
HETATM   30  H   UNL     1       1.204  12.537  90.643  1.00  0.00     0.210 HD
ENDBRANCH  27  29
ENDBRANCH  26  27
BRANCH  26  31
HETATM   31  C   UNL     1       4.027  14.662  91.802  1.00  0.00     0.181 C 
HETATM   32  O   UNL     1       2.991  15.160  92.238  1.00  0.00    -0.294 OA
BRANCH  31  33
HETATM   33  C   UNL     1       4.627  13.747  92.998  1.00  0.00     0.138 C 
BRANCH  33  34
HETATM   34  C   UNL     1       3.441  13.244  93.579  1.00  0.00     0.208 C 
HETATM   35  O   UNL     1       2.676  14.068  94.024  1.00  0.00    -0.289 OA
BRANCH  34  36
HETATM   36  C   UNL     1       2.858  12.011  93.480  1.00  0.00     0.194 C 
HETATM   37  O   UNL     1       3.160  10.933  92.640  1.00  0.00    -0.185 OA
ENDBRANCH  34  36
ENDBRANCH  33  34
ENDBRANCH  31  33
ENDBRANCH  26  31
ENDBRANCH  24  26
ENDBRANCH  19  22
ENDBRANCH  15  16
ENDBRANCH  11  14
ENDBRANCH   7   8
ENDBRANCH   2   7
TORSDOF 12
ENDMDL
MODEL 5
REMARK VINA RESULT:      -4.0      2.818     12.477
REMARK  12 active torsions:
REMARK  status: ('A' for Active; 'I' for Inactive)
REMARK    1  A    between atoms: O_2  and  C_16 
REMARK    2  A    between atoms: N_5  and  C_9 
REMARK    3  A    between atoms: N_6  and  C_13 
REMARK       I    between atoms: N_6  and  C_22 
REMARK    4  A    between atoms: C_9  and  C_12 
REMARK    5  A    between atoms: C_13  and  C_16 
REMARK    6  A    between atoms: C_13  and  C_21 
REMARK    7  A    between atoms: C_19  and  C_24 
REMARK    8  A    between atoms: C_21  and  C_33 
REMARK    9  A    between atoms: C_22  and  C_23 
REMARK   10  A    between atoms: C_27  and  C_30 
REMARK   11  A    between atoms: C_33  and  C_34 
REMARK   12  A    between atoms: C_34  and  C_35 
ROOT
HETATM    1  O   UNL     1       3.269  14.780  93.834  1.00  0.00    -0.350 OA
HETATM    2  N   UNL     1       2.889  14.778  91.013  1.00  0.00     0.147 N 
HETATM    3  C   UNL     1       2.006  14.016  91.907  1.00  0.00     0.283 C 
HETATM    4  C   UNL     1       4.227  14.897  91.609  1.00  0.00     0.283 C 
HETATM    5  C   UNL     1       1.956  14.686  93.278  1.00  0.00     0.178 C 
HETATM    6  C   UNL     1       4.125  15.545  92.986  1.00  0.00     0.178 C 
ENDROOT
BRANCH   2   7
HETATM    7  C   UNL     1       2.960  14.147  89.696  1.00  0.00     0.277 C 
BRANCH   7   8
HETATM    8  C   UNL     1       3.936  13.021  89.658  1.00  0.00     0.011 A 
HETATM    9  C   UNL     1       5.222  13.230  89.157  1.00  0.00    -0.002 A 
HETATM   10  C   UNL     1       6.135  12.177  89.119  1.00  0.00     0.008 A 
HETATM   11  C   UNL     1       5.763  10.916  89.583  1.00  0.00     0.042 A 
HETATM   12  C   UNL     1       4.480  10.705  90.083  1.00  0.00     0.008 A 
HETATM   13  C   UNL     1       3.566  11.758  90.121  1.00  0.00    -0.002 A 
BRANCH  11  14
HETATM   14  C   UNL     1       6.701   9.836  89.546  1.00  0.00    -0.059 C 
HETATM   15  C   UNL     1       7.489   8.928  89.515  1.00  0.00    -0.059 C 
BRANCH  15  16
HETATM   16  C   UNL     1       8.426   7.849  89.478  1.00  0.00     0.042 A 
HETATM   17  C   UNL     1       8.867   7.350  88.252  1.00  0.00     0.008 A 
HETATM   18  C   UNL     1       9.783   6.299  88.217  1.00  0.00     0.005 A 
HETATM   19  C   UNL     1      10.238   5.771  89.407  1.00  0.00     0.056 A 
HETATM   20  C   UNL     1       9.818   6.246  90.631  1.00  0.00     0.005 A 
HETATM   21  C   UNL     1       8.901   7.297  90.668  1.00  0.00     0.008 A 
BRANCH  19  22
HETATM   22  C   UNL     1      11.212   4.650  89.368  1.00  0.00     0.254 C 
HETATM   23  O   UNL     1      11.294   3.961  88.354  1.00  0.00    -0.268 OA
HETATM   24  N   UNL     1      11.991   4.482  90.505  1.00  0.00    -0.335 N 
HETATM   25  HN  UNL     1      11.885   5.106  91.296  1.00  0.00     0.164 HD
BRANCH  24  26
HETATM   26  C   UNL     1      12.996   3.455  90.612  1.00  0.00     0.166 C 
BRANCH  26  27
HETATM   27  C   UNL     1      14.418   4.024  90.695  1.00  0.00     0.138 C 
HETATM   28  C   UNL     1      14.704   4.689  92.037  1.00  0.00     0.034 C 
BRANCH  27  29
HETATM   29  O   UNL     1      15.364   2.975  90.487  1.00  0.00    -0.383 OA
HETATM   30  H   UNL     1      14.887   2.129  90.489  1.00  0.00     0.210 HD
ENDBRANCH  27  29
ENDBRANCH  26  27
BRANCH  26  31
HETATM   31  C   UNL     1      12.666   2.605  91.835  1.00  0.00     0.181 C 
HETATM   32  O   UNL     1      13.287   1.586  92.128  1.00  0.00    -0.294 OA
BRANCH  31  33
HETATM   33  C   UNL     1      12.596   3.497  93.186  1.00  0.00     0.138 C 
BRANCH  33  34
HETATM   34  C   UNL     1      11.213   3.776  93.258  1.00  0.00     0.208 C 
HETATM   35  O   UNL     1      10.913   4.919  93.513  1.00  0.00    -0.289 OA
BRANCH  34  36
HETATM   36  C   UNL     1      10.138   3.055  92.814  1.00  0.00     0.194 C 
HETATM   37  O   UNL     1       9.361   3.209  91.660  1.00  0.00    -0.185 OA
ENDBRANCH  34  36
ENDBRANCH  33  34
ENDBRANCH  31  33
ENDBRANCH  26  31
ENDBRANCH  24  26
ENDBRANCH  19  22
ENDBRANCH  15  16
ENDBRANCH  11  14
ENDBRANCH   7   8
ENDBRANCH   2   7
TORSDOF 12
ENDMDL
MODEL 6
REMARK VINA RESULT:      -3.3      2.432     12.603
REMARK  12 active torsions:
REMARK  status: ('A' for Active; 'I' for Inactive)
REMARK    1  A    between atoms: O_2  and  C_16 
REMARK    2  A    between atoms: N_5  and  C_9 
REMARK    3  A    between atoms: N_6  and  C_13 
REMARK       I    between atoms: N_6  and  C_22 
REMARK    4  A    between atoms: C_9  and  C_12 
REMARK    5  A    between atoms: C_13  and  C_16 
REMARK    6  A    between atoms: C_13  and  C_21 
REMARK    7  A    between atoms: C_19  and  C_24 
REMARK    8  A    between atoms: C_21  and  C_33 
REMARK    9  A    between atoms: C_22  and  C_23 
REMARK   10  A    between atoms: C_27  and  C_30 
REMARK   11  A    between atoms: C_33  and  C_34 
REMARK   12  A    between atoms: C_34  and  C_35 
ROOT
HETATM    1  O   UNL     1       3.391  13.961  93.095  1.00  0.00    -0.350 OA
HETATM    2  N   UNL     1       2.803  13.088  90.450  1.00  0.00     0.147 N 
HETATM    3  C   UNL     1       2.704  12.178  91.599  1.00  0.00     0.283 C 
HETATM    4  C   UNL     1       3.816  14.121  90.712  1.00  0.00     0.283 C 
HETATM    5  C   UNL     1       2.385  12.973  92.862  1.00  0.00     0.178 C 
HETATM    6  C   UNL     1       3.472  14.869  91.996  1.00  0.00     0.178 C 
ENDROOT
BRANCH   2   7
HETATM    7  C   UNL     1       3.119  12.349  89.229  1.00  0.00     0.277 C 
BRANCH   7   8
HETATM    8  C   UNL     1       4.259  11.406  89.414  1.00  0.00     0.011 A 
HETATM    9  C   UNL     1       5.565  11.895  89.466  1.00  0.00    -0.002 A 
HETATM   10  C   UNL     1       6.632  11.014  89.638  1.00  0.00     0.008 A 
HETATM   11  C   UNL     1       6.393   9.645  89.759  1.00  0.00     0.042 A 
HETATM   12  C   UNL     1       5.089   9.156  89.708  1.00  0.00     0.008 A 
HETATM   13  C   UNL     1       4.022  10.037  89.536  1.00  0.00    -0.002 A 
BRANCH  11  14
HETATM   14  C   UNL     1       7.488   8.742  89.937  1.00  0.00    -0.059 C 
HETATM   15  C   UNL     1       8.409   7.983  90.087  1.00  0.00    -0.059 C 
BRANCH  15  16
HETATM   16  C   UNL     1       9.503   7.080  90.266  1.00  0.00     0.042 A 
HETATM   17  C   UNL     1      10.187   6.586  89.154  1.00  0.00     0.008 A 
HETATM   18  C   UNL     1      11.256   5.707  89.329  1.00  0.00     0.005 A 
HETATM   19  C   UNL     1      11.617   5.343  90.609  1.00  0.00     0.056 A 
HETATM   20  C   UNL     1      10.958   5.818  91.724  1.00  0.00     0.005 A 
HETATM   21  C   UNL     1       9.888   6.697  91.550  1.00  0.00     0.008 A 
BRANCH  19  22
HETATM   22  C   UNL     1      12.755   4.406  90.795  1.00  0.00     0.254 C 
HETATM   23  O   UNL     1      13.110   3.700  89.854  1.00  0.00    -0.268 OA
HETATM   24  N   UNL     1      13.358   4.421  92.045  1.00  0.00    -0.335 N 
HETATM   25  HN  UNL     1      13.026   5.050  92.767  1.00  0.00     0.164 HD
BRANCH  24  26
HETATM   26  C   UNL     1      14.487   3.588  92.371  1.00  0.00     0.166 C 
BRANCH  26  27
HETATM   27  C   UNL     1      15.396   4.212  93.438  1.00  0.00     0.138 C 
HETATM   28  C   UNL     1      16.501   3.263  93.891  1.00  0.00     0.034 C 
BRANCH  27  29
HETATM   29  O   UNL     1      15.990   5.403  92.922  1.00  0.00    -0.383 OA
HETATM   30  H   UNL     1      15.846   6.118  93.564  1.00  0.00     0.210 HD
ENDBRANCH  27  29
ENDBRANCH  26  27
BRANCH  26  31
HETATM   31  C   UNL     1      13.952   2.233  92.823  1.00  0.00     0.181 C 
HETATM   32  O   UNL     1      14.640   1.405  93.417  1.00  0.00    -0.294 OA
BRANCH  31  33
HETATM   33  C   UNL     1      12.583   2.382  93.679  1.00  0.00     0.138 C 
BRANCH  33  34
HETATM   34  C   UNL     1      11.610   2.182  92.675  1.00  0.00     0.208 C 
HETATM   35  O   UNL     1      11.879   1.363  91.827  1.00  0.00    -0.289 OA
BRANCH  34  36
HETATM   36  C   UNL     1      10.289   2.538  92.637  1.00  0.00     0.194 C 
HETATM   37  O   UNL     1       9.495   2.953  91.562  1.00  0.00    -0.185 OA
ENDBRANCH  34  36
ENDBRANCH  33  34
ENDBRANCH  31  33
ENDBRANCH  26  31
ENDBRANCH  24  26
ENDBRANCH  19  22
ENDBRANCH  15  16
ENDBRANCH  11  14
ENDBRANCH   7   8
ENDBRANCH   2   7
TORSDOF 12
ENDMDL
MODEL 7
REMARK VINA RESULT:      -3.3      1.556      2.050
REMARK  12 active torsions:
REMARK  status: ('A' for Active; 'I' for Inactive)
REMARK    1  A    between atoms: O_2  and  C_16 
REMARK    2  A    between atoms: N_5  and  C_9 
REMARK    3  A    between atoms: N_6  and  C_13 
REMARK       I    between atoms: N_6  and  C_22 
REMARK    4  A    between atoms: C_9  and  C_12 
REMARK    5  A    between atoms: C_13  and  C_16 
REMARK    6  A    between atoms: C_13  and  C_21 
REMARK    7  A    between atoms: C_19  and  C_24 
REMARK    8  A    between atoms: C_21  and  C_33 
REMARK    9  A    between atoms: C_22  and  C_23 
REMARK   10  A    between atoms: C_27  and  C_30 
REMARK   11  A    between atoms: C_33  and  C_34 
REMARK   12  A    between atoms: C_34  and  C_35 
ROOT
HETATM    1  O   UNL     1      15.547   3.496  90.804  1.00  0.00    -0.350 OA
HETATM    2  N   UNL     1      13.303   2.659  92.341  1.00  0.00     0.147 N 
HETATM    3  C   UNL     1      13.296   3.928  91.601  1.00  0.00     0.283 C 
HETATM    4  C   UNL     1      14.676   2.311  92.733  1.00  0.00     0.283 C 
HETATM    5  C   UNL     1      14.220   3.826  90.390  1.00  0.00     0.178 C 
HETATM    6  C   UNL     1      15.567   2.248  91.497  1.00  0.00     0.178 C 
ENDROOT
BRANCH   2   7
HETATM    7  C   UNL     1      12.432   2.738  93.512  1.00  0.00     0.277 C 
BRANCH   7   8
HETATM    8  C   UNL     1      11.325   3.719  93.331  1.00  0.00     0.011 A 
HETATM    9  C   UNL     1      11.275   4.867  94.124  1.00  0.00    -0.002 A 
HETATM   10  C   UNL     1      10.238   5.785  93.957  1.00  0.00     0.008 A 
HETATM   11  C   UNL     1       9.253   5.556  92.997  1.00  0.00     0.042 A 
HETATM   12  C   UNL     1       9.302   4.411  92.205  1.00  0.00     0.008 A 
HETATM   13  C   UNL     1      10.338   3.492  92.371  1.00  0.00    -0.002 A 
BRANCH  11  14
HETATM   14  C   UNL     1       8.191   6.499  92.824  1.00  0.00    -0.059 C 
HETATM   15  C   UNL     1       7.298   7.291  92.680  1.00  0.00    -0.059 C 
BRANCH  15  16
HETATM   16  C   UNL     1       6.237   8.233  92.509  1.00  0.00     0.042 A 
HETATM   17  C   UNL     1       6.191   9.030  91.364  1.00  0.00     0.008 A 
HETATM   18  C   UNL     1       5.154   9.947  91.196  1.00  0.00     0.005 A 
HETATM   19  C   UNL     1       4.187  10.047  92.174  1.00  0.00     0.056 A 
HETATM   20  C   UNL     1       4.210   9.272  93.315  1.00  0.00     0.005 A 
HETATM   21  C   UNL     1       5.247   8.354  93.484  1.00  0.00     0.008 A 
BRANCH  19  22
HETATM   22  C   UNL     1       3.083  11.026  91.996  1.00  0.00     0.254 C 
HETATM   23  O   UNL     1       1.932  10.616  91.865  1.00  0.00    -0.268 OA
HETATM   24  N   UNL     1       3.449  12.365  92.015  1.00  0.00    -0.335 N 
HETATM   25  HN  UNL     1       4.417  12.630  92.152  1.00  0.00     0.164 HD
BRANCH  24  26
HETATM   26  C   UNL     1       2.491  13.433  91.879  1.00  0.00     0.166 C 
BRANCH  26  27
HETATM   27  C   UNL     1       2.139  14.089  93.220  1.00  0.00     0.138 C 
HETATM   28  C   UNL     1       1.279  13.190  94.102  1.00  0.00     0.034 C 
BRANCH  27  29
HETATM   29  O   UNL     1       3.338  14.415  93.922  1.00  0.00    -0.383 OA
HETATM   30  H   UNL     1       3.523  13.703  94.558  1.00  0.00     0.210 HD
ENDBRANCH  27  29
ENDBRANCH  26  27
BRANCH  26  31
HETATM   31  C   UNL     1       3.064  14.450  90.898  1.00  0.00     0.181 C 
HETATM   32  O   UNL     1       4.192  14.925  91.008  1.00  0.00    -0.294 OA
BRANCH  31  33
HETATM   33  C   UNL     1       2.934  13.945  89.363  1.00  0.00     0.138 C 
BRANCH  33  34
HETATM   34  C   UNL     1       4.141  13.227  89.208  1.00  0.00     0.208 C 
HETATM   35  O   UNL     1       4.037  12.025  89.121  1.00  0.00    -0.289 OA
BRANCH  34  36
HETATM   36  C   UNL     1       5.390  13.657  88.853  1.00  0.00     0.194 C 
HETATM   37  O   UNL     1       6.524  12.928  88.475  1.00  0.00    -0.185 OA
ENDBRANCH  34  36
ENDBRANCH  33  34
ENDBRANCH  31  33
ENDBRANCH  26  31
ENDBRANCH  24  26
ENDBRANCH  19  22
ENDBRANCH  15  16
ENDBRANCH  11  14
ENDBRANCH   7   8
ENDBRANCH   2   7
TORSDOF 12
ENDMDL
