MODEL 1
REMARK VINA RESULT:      -7.0      0.000      0.000
REMARK  11 active torsions:
REMARK  status: ('A' for Active; 'I' for Inactive)
REMARK    1  A    between atoms: O_2  and  C_18 
REMARK    2  A    between atoms: O_5  and  P_8 
REMARK    3  A    between atoms: N_6  and  C_11 
REMARK    4  A    between atoms: N_7  and  C_15 
REMARK       I    between atoms: N_7  and  C_24 
REMARK    5  A    between atoms: P_8  and  C_23 
REMARK    6  A    between atoms: C_11  and  C_14 
REMARK    7  A    between atoms: C_15  and  C_18 
REMARK    8  A    between atoms: C_15  and  C_23 
REMARK    9  A    between atoms: C_21  and  C_26 
REMARK   10  A    between atoms: C_24  and  C_25 
REMARK   11  A    between atoms: C_29  and  C_32 
ROOT
HETATM    1  O   UNL     1      16.186   4.212  94.080  1.00  0.00     0.000 OA
HETATM    2  N   UNL     1      14.422   2.628  92.506  1.00  0.00     0.000 N 
HETATM    3  C   UNL     1      14.376   4.096  92.469  1.00  0.00     0.000 C 
HETATM    4  C   UNL     1      14.900   2.173  93.819  1.00  0.00     0.000 C 
HETATM    5  C   UNL     1      15.754   4.665  92.796  1.00  0.00     0.000 C 
HETATM    6  C   UNL     1      16.264   2.787  94.116  1.00  0.00     0.000 C 
ENDROOT
BRANCH   2   7
HETATM    7  C   UNL     1      13.109   2.061  92.205  1.00  0.00     0.000 C 
BRANCH   7   8
HETATM    8  C   UNL     1      12.097   3.109  91.886  1.00  0.00     0.000 A 
HETATM    9  C   UNL     1      11.336   3.677  92.908  1.00  0.00     0.000 A 
HETATM   10  C   UNL     1      10.388   4.655  92.609  1.00  0.00     0.000 A 
HETATM   11  C   UNL     1      10.204   5.067  91.289  1.00  0.00     0.000 A 
HETATM   12  C   UNL     1      10.964   4.500  90.268  1.00  0.00     0.000 A 
HETATM   13  C   UNL     1      11.911   3.521  90.566  1.00  0.00     0.000 A 
BRANCH  11  14
HETATM   14  C   UNL     1       9.233   6.072  90.984  1.00  0.00     0.000 C 
HETATM   15  C   UNL     1       8.417   6.918  90.727  1.00  0.00     0.000 C 
BRANCH  15  16
HETATM   16  C   UNL     1       7.448   7.923  90.421  1.00  0.00     0.000 A 
HETATM   17  C   UNL     1       7.143   8.906  91.363  1.00  0.00     0.000 A 
HETATM   18  C   UNL     1       6.199   9.888  91.064  1.00  0.00     0.000 A 
HETATM   19  C   UNL     1       5.582   9.866  89.830  1.00  0.00     0.000 A 
HETATM   20  C   UNL     1       5.866   8.905  88.882  1.00  0.00     0.000 A 
HETATM   21  C   UNL     1       6.810   7.922  89.181  1.00  0.00     0.000 A 
BRANCH  19  22
HETATM   22  C   UNL     1       4.575  10.911  89.512  1.00  0.00     0.000 C 
HETATM   23  O   UNL     1       3.609  10.620  88.812  1.00  0.00     0.000 OA
HETATM   24  N   UNL     1       4.802  12.163  90.068  1.00  0.00     0.000 N 
HETATM   25  HN  UNL     1       5.610  12.323  90.658  1.00  0.00     0.000 HD
BRANCH  24  26
HETATM   26  C   UNL     1       3.904  13.272  89.872  1.00  0.00     0.000 C 
BRANCH  26  27
HETATM   27  C   UNL     1       3.259  13.752  91.179  1.00  0.00     0.000 C 
HETATM   28  C   UNL     1       2.528  12.633  91.914  1.00  0.00     0.000 C 
BRANCH  27  29
HETATM   29  O   UNL     1       4.263  14.292  92.037  1.00  0.00     0.000 OA
HETATM   30  H   UNL     1       4.041  14.054  92.953  1.00  0.00     0.000 HD
ENDBRANCH  27  29
ENDBRANCH  26  27
BRANCH  26  31
HETATM   31  C   UNL     1       4.688  14.393  89.198  1.00  0.00     0.000 C 
HETATM   32  O   UNL     1       4.743  15.537  89.646  1.00  0.00     0.000 OA
BRANCH  31  33
HETATM   33  P   UNL     1       5.282  13.981  88.029  1.00  0.00     0.000 P 
HETATM   34  H   UNL     1       5.492  15.097  87.245  1.00  0.00     0.000 HD
BRANCH  33  35
HETATM   35  O   UNL     1       4.555  13.052  87.270  1.00  0.00     0.000 OA
HETATM   36  H   UNL     1       4.273  12.438  87.970  1.00  0.00     0.000 HD
ENDBRANCH  33  35
ENDBRANCH  31  33
ENDBRANCH  26  31
ENDBRANCH  24  26
ENDBRANCH  19  22
ENDBRANCH  15  16
ENDBRANCH  11  14
ENDBRANCH   7   8
ENDBRANCH   2   7
TORSDOF 11
ENDMDL
