MODEL 1
REMARK VINA RESULT:      -6.7      0.000      0.000
REMARK  11 active torsions:
REMARK  status: ('A' for Active; 'I' for Inactive)
REMARK    1  A    between atoms: O_2  and  C_18 
REMARK    2  A    between atoms: O_5  and  P_8 
REMARK    3  A    between atoms: N_6  and  C_11 
REMARK    4  A    between atoms: N_7  and  C_15 
REMARK       I    between atoms: N_7  and  C_24 
REMARK    5  A    between atoms: P_8  and  C_23 
REMARK    6  A    between atoms: C_11  and  C_14 
REMARK    7  A    between atoms: C_15  and  C_18 
REMARK    8  A    between atoms: C_15  and  C_23 
REMARK    9  A    between atoms: C_21  and  C_26 
REMARK   10  A    between atoms: C_24  and  C_25 
REMARK   11  A    between atoms: C_29  and  C_32 
ROOT
HETATM    1  O   UNL     1      16.902   3.732  93.725  1.00  0.00     0.000 OA
HETATM    2  N   UNL     1      14.243   2.889  93.159  1.00  0.00     0.000 N 
HETATM    3  C   UNL     1      15.363   1.938  93.174  1.00  0.00     0.000 C 
HETATM    4  C   UNL     1      14.722   4.226  92.782  1.00  0.00     0.000 C 
HETATM    5  C   UNL     1      16.451   2.436  94.123  1.00  0.00     0.000 C 
HETATM    6  C   UNL     1      15.825   4.669  93.738  1.00  0.00     0.000 C 
ENDROOT
BRANCH   2   7
HETATM    7  C   UNL     1      13.193   2.437  92.248  1.00  0.00     0.000 C 
BRANCH   7   8
HETATM    8  C   UNL     1      12.223   3.520  91.917  1.00  0.00     0.000 A 
HETATM    9  C   UNL     1      12.068   3.935  90.594  1.00  0.00     0.000 A 
HETATM   10  C   UNL     1      11.163   4.949  90.283  1.00  0.00     0.000 A 
HETATM   11  C   UNL     1      10.412   5.547  91.295  1.00  0.00     0.000 A 
HETATM   12  C   UNL     1      10.566   5.133  92.616  1.00  0.00     0.000 A 
HETATM   13  C   UNL     1      11.472   4.119  92.928  1.00  0.00     0.000 A 
BRANCH  11  14
HETATM   14  C   UNL     1       9.482   6.586  90.976  1.00  0.00     0.000 C 
HETATM   15  C   UNL     1       8.702   7.460  90.707  1.00  0.00     0.000 C 
BRANCH  15  16
HETATM   16  C   UNL     1       7.773   8.499  90.387  1.00  0.00     0.000 A 
HETATM   17  C   UNL     1       6.416   8.328  90.662  1.00  0.00     0.000 A 
HETATM   18  C   UNL     1       5.510   9.343  90.352  1.00  0.00     0.000 A 
HETATM   19  C   UNL     1       5.981  10.505  89.777  1.00  0.00     0.000 A 
HETATM   20  C   UNL     1       7.318  10.697  89.495  1.00  0.00     0.000 A 
HETATM   21  C   UNL     1       8.224   9.683  89.804  1.00  0.00     0.000 A 
BRANCH  19  22
HETATM   22  C   UNL     1       5.016  11.585  89.445  1.00  0.00     0.000 C 
HETATM   23  O   UNL     1       4.664  11.737  88.278  1.00  0.00     0.000 OA
HETATM   24  N   UNL     1       4.558  12.340  90.516  1.00  0.00     0.000 N 
HETATM   25  HN  UNL     1       4.874  12.140  91.457  1.00  0.00     0.000 HD
BRANCH  24  26
HETATM   26  C   UNL     1       3.601  13.406  90.359  1.00  0.00     0.000 C 
BRANCH  26  27
HETATM   27  C   UNL     1       2.291  13.144  91.112  1.00  0.00     0.000 C 
HETATM   28  C   UNL     1       2.503  12.338  92.389  1.00  0.00     0.000 C 
BRANCH  27  29
HETATM   29  O   UNL     1       1.675  14.387  91.445  1.00  0.00     0.000 OA
HETATM   30  H   UNL     1       2.342  14.956  91.863  1.00  0.00     0.000 HD
ENDBRANCH  27  29
ENDBRANCH  26  27
BRANCH  26  31
HETATM   31  C   UNL     1       4.262  14.698  90.830  1.00  0.00     0.000 C 
HETATM   32  O   UNL     1       4.286  15.046  92.009  1.00  0.00     0.000 OA
BRANCH  31  33
HETATM   33  P   UNL     1       4.782  15.425  89.787  1.00  0.00     0.000 P 
HETATM   34  H   UNL     1       3.752  16.148  89.220  1.00  0.00     0.000 HD
BRANCH  33  35
HETATM   35  O   UNL     1       5.395  14.680  88.769  1.00  0.00     0.000 OA
HETATM   36  H   UNL     1       5.139  15.204  87.991  1.00  0.00     0.000 HD
ENDBRANCH  33  35
ENDBRANCH  31  33
ENDBRANCH  26  31
ENDBRANCH  24  26
ENDBRANCH  19  22
ENDBRANCH  15  16
ENDBRANCH  11  14
ENDBRANCH   7   8
ENDBRANCH   2   7
TORSDOF 11
ENDMDL
