MODEL 1
REMARK VINA RESULT:      -6.6      0.000      0.000
REMARK  14 active torsions:
REMARK  status: ('A' for Active; 'I' for Inactive)
REMARK    1  A    between atoms: O_2  and  C_18 
REMARK    2  A    between atoms: C_5  and  C_8 
REMARK    3  A    between atoms: C_5  and  O_35 
REMARK    4  A    between atoms: C_5  and  C_36 
REMARK    5  A    between atoms: N_6  and  C_11 
REMARK    6  A    between atoms: N_7  and  C_15 
REMARK       I    between atoms: N_7  and  C_24 
REMARK    7  A    between atoms: C_8  and  C_23 
REMARK    8  A    between atoms: C_11  and  C_14 
REMARK    9  A    between atoms: C_15  and  C_18 
REMARK   10  A    between atoms: C_15  and  C_23 
REMARK   11  A    between atoms: C_21  and  C_26 
REMARK   12  A    between atoms: C_24  and  C_25 
REMARK   13  A    between atoms: C_29  and  C_32 
REMARK   14  A    between atoms: C_36  and  O_39 
ROOT
HETATM    1  O   UNL     1      16.539   3.277  93.925  1.00  0.00    -0.350 OA
HETATM    2  N   UNL     1      14.018   3.099  92.616  1.00  0.00     0.147 N 
HETATM    3  C   UNL     1      14.826   1.903  92.893  1.00  0.00     0.283 C 
HETATM    4  C   UNL     1      14.891   4.268  92.446  1.00  0.00     0.283 C 
HETATM    5  C   UNL     1      15.696   2.140  94.124  1.00  0.00     0.178 C 
HETATM    6  C   UNL     1      15.760   4.450  93.686  1.00  0.00     0.178 C 
ENDROOT
BRANCH   2   7
HETATM    7  C   UNL     1      13.183   2.897  91.434  1.00  0.00     0.277 C 
BRANCH   7   8
HETATM    8  C   UNL     1      12.003   3.808  91.410  1.00  0.00     0.011 A 
HETATM    9  C   UNL     1      11.447   4.195  90.190  1.00  0.00    -0.002 A 
HETATM   10  C   UNL     1      10.344   5.049  90.166  1.00  0.00     0.008 A 
HETATM   11  C   UNL     1       9.797   5.514  91.361  1.00  0.00     0.042 A 
HETATM   12  C   UNL     1      10.352   5.128  92.580  1.00  0.00     0.008 A 
HETATM   13  C   UNL     1      11.455   4.274  92.604  1.00  0.00    -0.002 A 
BRANCH  11  14
HETATM   14  C   UNL     1       8.665   6.388  91.337  1.00  0.00    -0.059 C 
HETATM   15  C   UNL     1       7.714   7.124  91.317  1.00  0.00    -0.059 C 
BRANCH  15  16
HETATM   16  C   UNL     1       6.583   7.998  91.292  1.00  0.00     0.042 A 
HETATM   17  C   UNL     1       5.317   7.491  91.000  1.00  0.00     0.008 A 
HETATM   18  C   UNL     1       4.213   8.344  90.978  1.00  0.00     0.005 A 
HETATM   19  C   UNL     1       4.400   9.683  91.249  1.00  0.00     0.056 A 
HETATM   20  C   UNL     1       5.642  10.209  91.540  1.00  0.00     0.005 A 
HETATM   21  C   UNL     1       6.746   9.357  91.562  1.00  0.00     0.008 A 
BRANCH  19  22
HETATM   22  C   UNL     1       3.225  10.591  91.224  1.00  0.00     0.254 C 
HETATM   23  O   UNL     1       2.114  10.128  90.976  1.00  0.00    -0.268 OA
HETATM   24  N   UNL     1       3.480  11.924  91.516  1.00  0.00    -0.335 N 
HETATM   25  HN  UNL     1       4.420  12.230  91.736  1.00  0.00     0.164 HD
BRANCH  24  26
HETATM   26  C   UNL     1       2.441  12.922  91.555  1.00  0.00     0.169 C 
BRANCH  26  27
HETATM   27  C   UNL     1       2.323  13.602  92.925  1.00  0.00     0.138 C 
HETATM   28  C   UNL     1       3.661  13.691  93.650  1.00  0.00     0.034 C 
BRANCH  27  29
HETATM   29  O   UNL     1       1.796  14.918  92.760  1.00  0.00    -0.383 OA
HETATM   30  H   UNL     1       2.423  15.549  93.153  1.00  0.00     0.210 HD
ENDBRANCH  27  29
ENDBRANCH  26  27
BRANCH  26  31
HETATM   31  C   UNL     1       2.730  13.938  90.455  1.00  0.00     0.194 C 
HETATM   32  O   UNL     1       1.845  14.558  89.867  1.00  0.00    -0.289 OA
BRANCH  31  33
HETATM   33  C   UNL     1       4.072  14.042  90.183  1.00  0.00     0.053 C 
BRANCH  33  34
HETATM   34  C   UNL     1       4.414  14.155  88.828  1.00  0.00     0.220 C 
BRANCH  34  35
HETATM   35  O   UNL     1       5.409  14.899  88.747  1.00  0.00    -0.371 OA
HETATM   36  H   UNL     1       5.489  14.913  87.806  1.00  0.00     0.211 HD
ENDBRANCH  34  35
BRANCH  34  37
HETATM   37  C   UNL     1       4.620  12.917  88.196  1.00  0.00     0.185 C 
HETATM   38  O   UNL     1       5.884  13.143  88.519  1.00  0.00    -0.647 OA
BRANCH  37  39
HETATM   39  O   UNL     1       3.956  12.109  87.618  1.00  0.00    -0.774 OA
HETATM   40  H   UNL     1       3.808  12.391  86.529  1.00  0.00     0.167 HD
ENDBRANCH  37  39
ENDBRANCH  34  37
ENDBRANCH  33  34
ENDBRANCH  31  33
ENDBRANCH  26  31
ENDBRANCH  24  26
ENDBRANCH  19  22
ENDBRANCH  15  16
ENDBRANCH  11  14
ENDBRANCH   7   8
ENDBRANCH   2   7
TORSDOF 14
ENDMDL
