MODEL 1
REMARK VINA RESULT:      -7.0      0.000      0.000
REMARK  10 active torsions:
REMARK  status: ('A' for Active; 'I' for Inactive)
REMARK    1  A    between atoms: O_2  and  C_16 
REMARK    2  A    between atoms: N_5  and  C_9 
REMARK    3  A    between atoms: N_6  and  C_13 
REMARK       I    between atoms: N_6  and  C_22 
REMARK    4  A    between atoms: C_9  and  C_12 
REMARK    5  A    between atoms: C_13  and  C_16 
REMARK    6  A    between atoms: C_13  and  C_21 
REMARK    7  A    between atoms: C_19  and  C_24 
REMARK    8  A    between atoms: C_22  and  C_23 
REMARK    9  A    between atoms: C_27  and  C_30 
REMARK   10  A    between atoms: N_33  and  S_34 
ROOT
HETATM    1  C   UNL     1       5.655  10.782  89.511  1.00  0.00     0.056 A 
HETATM    2  C   UNL     1       5.169   9.492  89.561  1.00  0.00     0.005 A 
HETATM    3  C   UNL     1       6.982  11.078  89.739  1.00  0.00     0.005 A 
HETATM    4  C   UNL     1       7.397   8.724  90.089  1.00  0.00     0.042 A 
HETATM    5  C   UNL     1       6.049   8.451  89.854  1.00  0.00     0.008 A 
HETATM    6  C   UNL     1       7.864  10.037  90.032  1.00  0.00     0.008 A 
ENDROOT
BRANCH   1   7
HETATM    7  C   UNL     1       4.717  11.890  89.196  1.00  0.00     0.254 C 
HETATM    8  O   UNL     1       4.500  12.178  88.022  1.00  0.00    -0.268 OA
HETATM    9  N   UNL     1       4.125  12.513  90.286  1.00  0.00    -0.337 N 
HETATM   10  HN  UNL     1       4.333  12.205  91.229  1.00  0.00     0.164 HD
BRANCH   9  11
HETATM   11  C   UNL     1       3.176  13.588  90.144  1.00  0.00     0.172 C 
BRANCH  11  12
HETATM   12  C   UNL     1       1.988  13.462  91.107  1.00  0.00     0.136 C 
HETATM   13  C   UNL     1       2.284  12.535  92.281  1.00  0.00     0.034 C 
BRANCH  12  14
HETATM   14  O   UNL     1       1.642  14.752  91.610  1.00  0.00    -0.383 OA
HETATM   15  H   UNL     1       1.037  14.634  92.362  1.00  0.00     0.210 HD
ENDBRANCH  12  14
ENDBRANCH  11  12
BRANCH  11  16
HETATM   16  C   UNL     1       3.923  14.901  90.355  1.00  0.00     0.398 A 
HETATM   17  O   UNL     1       5.005  15.148  89.825  1.00  0.00    -0.136 OA
HETATM   18  N   UNL     1       5.024  15.566  91.287  1.00  0.00     0.142 N 
HETATM   19  HN  UNL     1       5.928  15.859  91.042  1.00  0.00     0.338 HD
BRANCH  18  20
HETATM   20  S   UNL     1       4.411  15.348  92.516  1.00  0.00     0.076 SA
HETATM   21  H   UNL     1       5.062  15.581  93.482  1.00  0.00     0.136 HD
ENDBRANCH  18  20
ENDBRANCH  11  16
ENDBRANCH   9  11
ENDBRANCH   1   7
BRANCH   4  22
HETATM   22  C   UNL     1       8.299   7.657  90.393  1.00  0.00    -0.059 C 
HETATM   23  C   UNL     1       9.059   6.760  90.647  1.00  0.00    -0.059 C 
BRANCH  23  24
HETATM   24  C   UNL     1       9.962   5.693  90.951  1.00  0.00     0.042 A 
HETATM   25  C   UNL     1      10.044   5.200  92.253  1.00  0.00     0.008 A 
HETATM   26  C   UNL     1      10.926   4.161  92.549  1.00  0.00    -0.002 A 
HETATM   27  C   UNL     1      11.725   3.615  91.544  1.00  0.00     0.011 A 
HETATM   28  C   UNL     1      11.641   4.110  90.242  1.00  0.00    -0.002 A 
HETATM   29  C   UNL     1      10.759   5.149  89.946  1.00  0.00     0.008 A 
BRANCH  27  30
HETATM   30  C   UNL     1      12.666   2.503  91.861  1.00  0.00     0.277 C 
BRANCH  30  31
HETATM   31  N   UNL     1      13.685   2.897  92.832  1.00  0.00     0.147 N 
HETATM   32  C   UNL     1      14.593   1.777  93.117  1.00  0.00     0.283 C 
HETATM   33  C   UNL     1      15.654   2.214  94.123  1.00  0.00     0.178 C 
HETATM   34  O   UNL     1      16.385   3.334  93.620  1.00  0.00    -0.350 OA
HETATM   35  C   UNL     1      15.514   4.437  93.370  1.00  0.00     0.178 C 
HETATM   36  C   UNL     1      14.450   4.054  92.347  1.00  0.00     0.283 C 
ENDBRANCH  30  31
ENDBRANCH  27  30
ENDBRANCH  23  24
ENDBRANCH   4  22
TORSDOF 10
ENDMDL
MODEL 2
REMARK VINA RESULT:      -6.7      1.185      1.543
REMARK  10 active torsions:
REMARK  status: ('A' for Active; 'I' for Inactive)
REMARK    1  A    between atoms: O_2  and  C_16 
REMARK    2  A    between atoms: N_5  and  C_9 
REMARK    3  A    between atoms: N_6  and  C_13 
REMARK       I    between atoms: N_6  and  C_22 
REMARK    4  A    between atoms: C_9  and  C_12 
REMARK    5  A    between atoms: C_13  and  C_16 
REMARK    6  A    between atoms: C_13  and  C_21 
REMARK    7  A    between atoms: C_19  and  C_24 
REMARK    8  A    between atoms: C_22  and  C_23 
REMARK    9  A    between atoms: C_27  and  C_30 
REMARK   10  A    between atoms: N_33  and  S_34 
ROOT
HETATM    1  C   UNL     1       4.606   9.941  90.403  1.00  0.00     0.056 A 
HETATM    2  C   UNL     1       4.301   8.596  90.433  1.00  0.00     0.005 A 
HETATM    3  C   UNL     1       5.900  10.405  90.505  1.00  0.00     0.005 A 
HETATM    4  C   UNL     1       6.655   8.117  90.679  1.00  0.00     0.042 A 
HETATM    5  C   UNL     1       5.337   7.673  90.573  1.00  0.00     0.008 A 
HETATM    6  C   UNL     1       6.937   9.482  90.645  1.00  0.00     0.008 A 
ENDROOT
BRANCH   1   7
HETATM    7  C   UNL     1       3.502  10.924  90.252  1.00  0.00     0.254 C 
HETATM    8  O   UNL     1       2.691  10.780  89.341  1.00  0.00    -0.268 OA
HETATM    9  N   UNL     1       3.461  11.942  91.195  1.00  0.00    -0.337 N 
HETATM   10  HN  UNL     1       4.151  11.983  91.936  1.00  0.00     0.164 HD
BRANCH   9  11
HETATM   11  C   UNL     1       2.438  12.957  91.197  1.00  0.00     0.172 C 
BRANCH  11  12
HETATM   12  C   UNL     1       2.013  13.368  92.612  1.00  0.00     0.136 C 
HETATM   13  C   UNL     1       1.243  14.684  92.631  1.00  0.00     0.034 C 
BRANCH  12  14
HETATM   14  O   UNL     1       1.196  12.346  93.182  1.00  0.00    -0.383 OA
HETATM   15  H   UNL     1       1.371  12.313  94.137  1.00  0.00     0.210 HD
ENDBRANCH  12  14
ENDBRANCH  11  12
BRANCH  11  16
HETATM   16  C   UNL     1       2.964  14.150  90.407  1.00  0.00     0.398 A 
HETATM   17  O   UNL     1       3.433  14.049  89.274  1.00  0.00    -0.136 OA
HETATM   18  N   UNL     1       4.302  14.960  90.127  1.00  0.00     0.142 N 
HETATM   19  HN  UNL     1       4.804  15.028  89.287  1.00  0.00     0.338 HD
BRANCH  18  20
HETATM   20  S   UNL     1       4.626  15.280  91.440  1.00  0.00     0.076 SA
HETATM   21  H   UNL     1       5.684  15.794  91.616  1.00  0.00     0.136 HD
ENDBRANCH  18  20
ENDBRANCH  11  16
ENDBRANCH   9  11
ENDBRANCH   1   7
BRANCH   4  22
HETATM   22  C   UNL     1       7.717   7.171  90.825  1.00  0.00    -0.059 C 
HETATM   23  C   UNL     1       8.610   6.375  90.947  1.00  0.00    -0.059 C 
BRANCH  23  24
HETATM   24  C   UNL     1       9.673   5.429  91.092  1.00  0.00     0.042 A 
HETATM   25  C   UNL     1      10.552   5.200  90.034  1.00  0.00     0.008 A 
HETATM   26  C   UNL     1      11.587   4.276  90.175  1.00  0.00    -0.002 A 
HETATM   27  C   UNL     1      11.744   3.583  91.375  1.00  0.00     0.011 A 
HETATM   28  C   UNL     1      10.865   3.813  92.433  1.00  0.00    -0.002 A 
HETATM   29  C   UNL     1       9.829   4.737  92.292  1.00  0.00     0.008 A 
BRANCH  27  30
HETATM   30  C   UNL     1      12.853   2.597  91.526  1.00  0.00     0.277 C 
BRANCH  30  31
HETATM   31  N   UNL     1      13.755   2.937  92.624  1.00  0.00     0.147 N 
HETATM   32  C   UNL     1      14.594   1.785  92.983  1.00  0.00     0.283 C 
HETATM   33  C   UNL     1      15.535   2.167  94.124  1.00  0.00     0.178 C 
HETATM   34  O   UNL     1      16.348   3.279  93.747  1.00  0.00    -0.350 OA
HETATM   35  C   UNL     1      15.541   4.412  93.426  1.00  0.00     0.178 C 
HETATM   36  C   UNL     1      14.601   4.085  92.270  1.00  0.00     0.283 C 
ENDBRANCH  30  31
ENDBRANCH  27  30
ENDBRANCH  23  24
ENDBRANCH   4  22
TORSDOF 10
ENDMDL
MODEL 3
REMARK VINA RESULT:      -6.7      1.653      2.125
REMARK  10 active torsions:
REMARK  status: ('A' for Active; 'I' for Inactive)
REMARK    1  A    between atoms: O_2  and  C_16 
REMARK    2  A    between atoms: N_5  and  C_9 
REMARK    3  A    between atoms: N_6  and  C_13 
REMARK       I    between atoms: N_6  and  C_22 
REMARK    4  A    between atoms: C_9  and  C_12 
REMARK    5  A    between atoms: C_13  and  C_16 
REMARK    6  A    between atoms: C_13  and  C_21 
REMARK    7  A    between atoms: C_19  and  C_24 
REMARK    8  A    between atoms: C_22  and  C_23 
REMARK    9  A    between atoms: C_27  and  C_30 
REMARK   10  A    between atoms: N_33  and  S_34 
ROOT
HETATM    1  C   UNL     1       5.174  10.485  91.199  1.00  0.00     0.056 A 
HETATM    2  C   UNL     1       5.500  10.000  92.448  1.00  0.00     0.005 A 
HETATM    3  C   UNL     1       5.766  10.009  90.048  1.00  0.00     0.005 A 
HETATM    4  C   UNL     1       7.074   8.496  91.402  1.00  0.00     0.042 A 
HETATM    5  C   UNL     1       6.461   8.994  92.552  1.00  0.00     0.008 A 
HETATM    6  C   UNL     1       6.727   9.003  90.150  1.00  0.00     0.008 A 
ENDROOT
BRANCH   1   7
HETATM    7  C   UNL     1       4.149  11.555  91.089  1.00  0.00     0.254 C 
HETATM    8  O   UNL     1       3.027  11.270  90.677  1.00  0.00    -0.268 OA
HETATM    9  N   UNL     1       4.546  12.821  91.495  1.00  0.00    -0.337 N 
HETATM   10  HN  UNL     1       5.483  12.977  91.848  1.00  0.00     0.164 HD
BRANCH   9  11
HETATM   11  C   UNL     1       3.660  13.957  91.471  1.00  0.00     0.172 C 
BRANCH  11  12
HETATM   12  C   UNL     1       3.553  14.598  90.081  1.00  0.00     0.136 C 
HETATM   13  C   UNL     1       4.913  14.772  89.413  1.00  0.00     0.034 C 
BRANCH  12  14
HETATM   14  O   UNL     1       2.726  13.790  89.245  1.00  0.00    -0.383 OA
HETATM   15  H   UNL     1       2.092  13.316  89.809  1.00  0.00     0.210 HD
ENDBRANCH  12  14
ENDBRANCH  11  12
BRANCH  11  16
HETATM   16  C   UNL     1       2.296  13.494  91.973  1.00  0.00     0.398 A 
HETATM   17  O   UNL     1       1.305  14.222  91.989  1.00  0.00    -0.136 OA
HETATM   18  N   UNL     1       1.411  13.445  93.291  1.00  0.00     0.142 N 
HETATM   19  HN  UNL     1       0.576  13.926  93.478  1.00  0.00     0.338 HD
BRANCH  18  20
HETATM   20  S   UNL     1       2.301  12.761  94.111  1.00  0.00     0.076 SA
HETATM   21  H   UNL     1       2.121  11.593  94.232  1.00  0.00     0.136 HD
ENDBRANCH  18  20
ENDBRANCH  11  16
ENDBRANCH   9  11
ENDBRANCH   1   7
BRANCH   4  22
HETATM   22  C   UNL     1       8.061   7.467  91.509  1.00  0.00    -0.059 C 
HETATM   23  C   UNL     1       8.892   6.603  91.598  1.00  0.00    -0.059 C 
BRANCH  23  24
HETATM   24  C   UNL     1       9.880   5.573  91.705  1.00  0.00     0.042 A 
HETATM   25  C   UNL     1      10.422   5.256  92.950  1.00  0.00     0.008 A 
HETATM   26  C   UNL     1      11.387   4.254  93.054  1.00  0.00    -0.002 A 
HETATM   27  C   UNL     1      11.807   3.569  91.914  1.00  0.00     0.011 A 
HETATM   28  C   UNL     1      11.263   3.888  90.669  1.00  0.00    -0.002 A 
HETATM   29  C   UNL     1      10.299   4.890  90.565  1.00  0.00     0.008 A 
BRANCH  27  30
HETATM   30  C   UNL     1      12.837   2.497  92.027  1.00  0.00     0.277 C 
BRANCH  30  31
HETATM   31  N   UNL     1      13.889   2.834  92.984  1.00  0.00     0.147 N 
HETATM   32  C   UNL     1      14.837   1.720  93.129  1.00  0.00     0.283 C 
HETATM   33  C   UNL     1      15.931   2.099  94.124  1.00  0.00     0.178 C 
HETATM   34  O   UNL     1      16.610   3.279  93.691  1.00  0.00    -0.350 OA
HETATM   35  C   UNL     1      15.701   4.374  93.577  1.00  0.00     0.178 C 
HETATM   36  C   UNL     1      14.602   4.051  92.571  1.00  0.00     0.283 C 
ENDBRANCH  30  31
ENDBRANCH  27  30
ENDBRANCH  23  24
ENDBRANCH   4  22
TORSDOF 10
ENDMDL
MODEL 4
REMARK VINA RESULT:      -6.3      1.312      1.783
REMARK  10 active torsions:
REMARK  status: ('A' for Active; 'I' for Inactive)
REMARK    1  A    between atoms: O_2  and  C_16 
REMARK    2  A    between atoms: N_5  and  C_9 
REMARK    3  A    between atoms: N_6  and  C_13 
REMARK       I    between atoms: N_6  and  C_22 
REMARK    4  A    between atoms: C_9  and  C_12 
REMARK    5  A    between atoms: C_13  and  C_16 
REMARK    6  A    between atoms: C_13  and  C_21 
REMARK    7  A    between atoms: C_19  and  C_24 
REMARK    8  A    between atoms: C_22  and  C_23 
REMARK    9  A    between atoms: C_27  and  C_30 
REMARK   10  A    between atoms: N_33  and  S_34 
ROOT
HETATM    1  C   UNL     1       5.502   9.754  90.215  1.00  0.00     0.056 A 
HETATM    2  C   UNL     1       6.526  10.099  91.072  1.00  0.00     0.005 A 
HETATM    3  C   UNL     1       5.438   8.519  89.604  1.00  0.00     0.005 A 
HETATM    4  C   UNL     1       7.491   7.913  90.723  1.00  0.00     0.042 A 
HETATM    5  C   UNL     1       7.533   9.168  91.330  1.00  0.00     0.008 A 
HETATM    6  C   UNL     1       6.444   7.588  89.861  1.00  0.00     0.008 A 
ENDROOT
BRANCH   1   7
HETATM    7  C   UNL     1       4.429  10.745  89.943  1.00  0.00     0.254 C 
HETATM    8  O   UNL     1       3.802  10.676  88.889  1.00  0.00    -0.268 OA
HETATM    9  N   UNL     1       4.199  11.681  90.942  1.00  0.00    -0.337 N 
HETATM   10  HN  UNL     1       4.740  11.662  91.798  1.00  0.00     0.164 HD
BRANCH   9  11
HETATM   11  C   UNL     1       3.177  12.692  90.837  1.00  0.00     0.172 C 
BRANCH  11  12
HETATM   12  C   UNL     1       2.242  12.719  92.053  1.00  0.00     0.136 C 
HETATM   13  C   UNL     1       3.003  12.811  93.371  1.00  0.00     0.034 C 
BRANCH  12  14
HETATM   14  O   UNL     1       1.357  13.834  91.949  1.00  0.00    -0.383 OA
HETATM   15  H   UNL     1       0.445  13.506  92.018  1.00  0.00     0.210 HD
ENDBRANCH  12  14
ENDBRANCH  11  12
BRANCH  11  16
HETATM   16  C   UNL     1       3.869  14.036  90.639  1.00  0.00     0.398 A 
HETATM   17  O   UNL     1       3.255  15.096  90.527  1.00  0.00    -0.136 OA
HETATM   18  N   UNL     1       4.368  15.018  89.494  1.00  0.00     0.142 N 
HETATM   19  HN  UNL     1       4.027  15.911  89.272  1.00  0.00     0.338 HD
BRANCH  18  20
HETATM   20  S   UNL     1       5.191  14.133  88.808  1.00  0.00     0.076 SA
HETATM   21  H   UNL     1       5.296  14.303  87.637  1.00  0.00     0.136 HD
ENDBRANCH  18  20
ENDBRANCH  11  16
ENDBRANCH   9  11
ENDBRANCH   1   7
BRANCH   4  22
HETATM   22  C   UNL     1       8.525   6.960  90.985  1.00  0.00    -0.059 C 
HETATM   23  C   UNL     1       9.394   6.159  91.204  1.00  0.00    -0.059 C 
BRANCH  23  24
HETATM   24  C   UNL     1      10.428   5.205  91.466  1.00  0.00     0.042 A 
HETATM   25  C   UNL     1      11.270   4.791  90.435  1.00  0.00     0.008 A 
HETATM   26  C   UNL     1      12.277   3.860  90.690  1.00  0.00    -0.002 A 
HETATM   27  C   UNL     1      12.442   3.346  91.977  1.00  0.00     0.011 A 
HETATM   28  C   UNL     1      11.599   3.762  93.007  1.00  0.00    -0.002 A 
HETATM   29  C   UNL     1      10.592   4.692  92.751  1.00  0.00     0.008 A 
BRANCH  27  30
HETATM   30  C   UNL     1      13.521   2.353  92.249  1.00  0.00     0.277 C 
BRANCH  30  31
HETATM   31  N   UNL     1      14.488   2.836  93.232  1.00  0.00     0.147 N 
HETATM   32  C   UNL     1      15.767   2.126  93.096  1.00  0.00     0.283 C 
HETATM   33  C   UNL     1      16.764   2.654  94.124  1.00  0.00     0.178 C 
HETATM   34  O   UNL     1      16.954   4.060  93.955  1.00  0.00    -0.350 OA
HETATM   35  C   UNL     1      15.720   4.761  94.117  1.00  0.00     0.178 C 
HETATM   36  C   UNL     1      14.699   4.283  93.090  1.00  0.00     0.283 C 
ENDBRANCH  30  31
ENDBRANCH  27  30
ENDBRANCH  23  24
ENDBRANCH   4  22
TORSDOF 10
ENDMDL
MODEL 5
REMARK VINA RESULT:      -6.1      1.803      2.254
REMARK  10 active torsions:
REMARK  status: ('A' for Active; 'I' for Inactive)
REMARK    1  A    between atoms: O_2  and  C_16 
REMARK    2  A    between atoms: N_5  and  C_9 
REMARK    3  A    between atoms: N_6  and  C_13 
REMARK       I    between atoms: N_6  and  C_22 
REMARK    4  A    between atoms: C_9  and  C_12 
REMARK    5  A    between atoms: C_13  and  C_16 
REMARK    6  A    between atoms: C_13  and  C_21 
REMARK    7  A    between atoms: C_19  and  C_24 
REMARK    8  A    between atoms: C_22  and  C_23 
REMARK    9  A    between atoms: C_27  and  C_30 
REMARK   10  A    between atoms: N_33  and  S_34 
ROOT
HETATM    1  C   UNL     1       4.926  10.031  91.413  1.00  0.00     0.056 A 
HETATM    2  C   UNL     1       4.581   8.738  91.080  1.00  0.00     0.005 A 
HETATM    3  C   UNL     1       6.201  10.373  91.813  1.00  0.00     0.005 A 
HETATM    4  C   UNL     1       6.851   8.061  91.556  1.00  0.00     0.042 A 
HETATM    5  C   UNL     1       5.554   7.741  91.153  1.00  0.00     0.008 A 
HETATM    6  C   UNL     1       7.174   9.377  91.886  1.00  0.00     0.008 A 
ENDROOT
BRANCH   1   7
HETATM    7  C   UNL     1       3.890  11.094  91.333  1.00  0.00     0.254 C 
HETATM    8  O   UNL     1       2.743  10.790  91.016  1.00  0.00    -0.268 OA
HETATM    9  N   UNL     1       4.309  12.377  91.657  1.00  0.00    -0.337 N 
HETATM   10  HN  UNL     1       5.268  12.548  91.935  1.00  0.00     0.164 HD
BRANCH   9  11
HETATM   11  C   UNL     1       3.417  13.508  91.651  1.00  0.00     0.172 C 
BRANCH  11  12
HETATM   12  C   UNL     1       3.823  14.589  92.661  1.00  0.00     0.136 C 
HETATM   13  C   UNL     1       4.519  14.010  93.888  1.00  0.00     0.034 C 
BRANCH  12  14
HETATM   14  O   UNL     1       4.696  15.527  92.033  1.00  0.00    -0.383 OA
HETATM   15  H   UNL     1       4.992  16.165  92.703  1.00  0.00     0.210 HD
ENDBRANCH  12  14
ENDBRANCH  11  12
BRANCH  11  16
HETATM   16  C   UNL     1       3.378  14.063  90.231  1.00  0.00     0.398 A 
HETATM   17  O   UNL     1       2.609  13.643  89.369  1.00  0.00    -0.136 OA
HETATM   18  N   UNL     1       4.003  13.827  88.790  1.00  0.00     0.142 N 
HETATM   19  HN  UNL     1       3.547  13.527  87.974  1.00  0.00     0.338 HD
BRANCH  18  20
HETATM   20  S   UNL     1       5.347  13.920  89.131  1.00  0.00     0.076 SA
HETATM   21  H   UNL     1       6.061  14.446  88.339  1.00  0.00     0.136 HD
ENDBRANCH  18  20
ENDBRANCH  11  16
ENDBRANCH   9  11
ENDBRANCH   1   7
BRANCH   4  22
HETATM   22  C   UNL     1       7.847   7.039  91.633  1.00  0.00    -0.059 C 
HETATM   23  C   UNL     1       8.685   6.178  91.697  1.00  0.00    -0.059 C 
BRANCH  23  24
HETATM   24  C   UNL     1       9.682   5.155  91.774  1.00  0.00     0.042 A 
HETATM   25  C   UNL     1       9.994   4.401  90.643  1.00  0.00     0.008 A 
HETATM   26  C   UNL     1      10.964   3.403  90.717  1.00  0.00    -0.002 A 
HETATM   27  C   UNL     1      11.624   3.160  91.923  1.00  0.00     0.011 A 
HETATM   28  C   UNL     1      11.311   3.915  93.053  1.00  0.00    -0.002 A 
HETATM   29  C   UNL     1      10.340   4.914  92.978  1.00  0.00     0.008 A 
BRANCH  27  30
HETATM   30  C   UNL     1      12.663   2.094  92.001  1.00  0.00     0.277 C 
BRANCH  30  31
HETATM   31  N   UNL     1      13.977   2.622  92.362  1.00  0.00     0.147 N 
HETATM   32  C   UNL     1      14.034   4.073  92.138  1.00  0.00     0.283 C 
HETATM   33  C   UNL     1      15.410   4.604  92.533  1.00  0.00     0.178 C 
HETATM   34  O   UNL     1      15.687   4.299  93.901  1.00  0.00    -0.350 OA
HETATM   35  C   UNL     1      15.664   2.888  94.120  1.00  0.00     0.178 C 
HETATM   36  C   UNL     1      14.296   2.316  93.764  1.00  0.00     0.283 C 
ENDBRANCH  30  31
ENDBRANCH  27  30
ENDBRANCH  23  24
ENDBRANCH   4  22
TORSDOF 10
ENDMDL
MODEL 6
REMARK VINA RESULT:      -5.7      3.712     12.427
REMARK  10 active torsions:
REMARK  status: ('A' for Active; 'I' for Inactive)
REMARK    1  A    between atoms: O_2  and  C_16 
REMARK    2  A    between atoms: N_5  and  C_9 
REMARK    3  A    between atoms: N_6  and  C_13 
REMARK       I    between atoms: N_6  and  C_22 
REMARK    4  A    between atoms: C_9  and  C_12 
REMARK    5  A    between atoms: C_13  and  C_16 
REMARK    6  A    between atoms: C_13  and  C_21 
REMARK    7  A    between atoms: C_19  and  C_24 
REMARK    8  A    between atoms: C_22  and  C_23 
REMARK    9  A    between atoms: C_27  and  C_30 
REMARK   10  A    between atoms: N_33  and  S_34 
ROOT
HETATM    1  C   UNL     1      10.211   5.749  89.979  1.00  0.00     0.056 A 
HETATM    2  C   UNL     1      10.004   6.476  88.826  1.00  0.00     0.005 A 
HETATM    3  C   UNL     1       9.512   5.996  91.141  1.00  0.00     0.005 A 
HETATM    4  C   UNL     1       8.334   7.769  89.999  1.00  0.00     0.042 A 
HETATM    5  C   UNL     1       9.054   7.498  88.835  1.00  0.00     0.008 A 
HETATM    6  C   UNL     1       8.562   7.018  91.152  1.00  0.00     0.008 A 
ENDROOT
BRANCH   1   7
HETATM    7  C   UNL     1      11.221   4.659  89.968  1.00  0.00     0.254 C 
HETATM    8  O   UNL     1      11.454   4.068  88.916  1.00  0.00    -0.268 OA
HETATM    9  N   UNL     1      11.855   4.406  91.176  1.00  0.00    -0.337 N 
HETATM   10  HN  UNL     1      11.629   4.952  91.999  1.00  0.00     0.164 HD
BRANCH   9  11
HETATM   11  C   UNL     1      12.874   3.397  91.321  1.00  0.00     0.172 C 
BRANCH  11  12
HETATM   12  C   UNL     1      14.290   3.949  91.106  1.00  0.00     0.136 C 
HETATM   13  C   UNL     1      15.190   2.970  90.359  1.00  0.00     0.034 C 
BRANCH  12  14
HETATM   14  O   UNL     1      14.220   5.169  90.369  1.00  0.00    -0.383 OA
HETATM   15  H   UNL     1      14.706   5.851  90.861  1.00  0.00     0.210 HD
ENDBRANCH  12  14
ENDBRANCH  11  12
BRANCH  11  16
HETATM   16  C   UNL     1      12.725   2.779  92.707  1.00  0.00     0.398 A 
HETATM   17  O   UNL     1      12.146   3.344  93.633  1.00  0.00    -0.136 OA
HETATM   18  N   UNL     1      13.442   2.720  94.123  1.00  0.00     0.142 N 
HETATM   19  HN  UNL     1      13.125   3.082  94.978  1.00  0.00     0.338 HD
BRANCH  18  20
HETATM   20  S   UNL     1      14.687   2.263  93.704  1.00  0.00     0.076 SA
HETATM   21  H   UNL     1      14.760   1.878  92.582  1.00  0.00     0.136 HD
ENDBRANCH  18  20
ENDBRANCH  11  16
ENDBRANCH   9  11
ENDBRANCH   1   7
BRANCH   4  22
HETATM   22  C   UNL     1       7.363   8.818  90.009  1.00  0.00    -0.059 C 
HETATM   23  C   UNL     1       6.546   9.700  90.017  1.00  0.00    -0.059 C 
BRANCH  23  24
HETATM   24  C   UNL     1       5.573  10.750  90.028  1.00  0.00     0.042 A 
HETATM   25  C   UNL     1       5.851  11.962  89.398  1.00  0.00     0.008 A 
HETATM   26  C   UNL     1       4.904  12.986  89.410  1.00  0.00    -0.002 A 
HETATM   27  C   UNL     1       3.679  12.796  90.051  1.00  0.00     0.011 A 
HETATM   28  C   UNL     1       3.403  11.582  90.680  1.00  0.00    -0.002 A 
HETATM   29  C   UNL     1       4.351  10.559  90.669  1.00  0.00     0.008 A 
BRANCH  27  30
HETATM   30  C   UNL     1       2.667  13.890  90.061  1.00  0.00     0.277 C 
BRANCH  30  31
HETATM   31  N   UNL     1       2.688  14.657  91.306  1.00  0.00     0.147 N 
HETATM   32  C   UNL     1       1.731  14.104  92.274  1.00  0.00     0.283 C 
HETATM   33  C   UNL     1       1.780  14.914  93.568  1.00  0.00     0.178 C 
HETATM   34  O   UNL     1       3.101  14.904  94.111  1.00  0.00    -0.350 OA
HETATM   35  C   UNL     1       4.033  15.468  93.188  1.00  0.00     0.178 C 
HETATM   36  C   UNL     1       4.038  14.674  91.886  1.00  0.00     0.283 C 
ENDBRANCH  30  31
ENDBRANCH  27  30
ENDBRANCH  23  24
ENDBRANCH   4  22
TORSDOF 10
ENDMDL
MODEL 7
REMARK VINA RESULT:      -5.5      1.673      2.149
REMARK  10 active torsions:
REMARK  status: ('A' for Active; 'I' for Inactive)
REMARK    1  A    between atoms: O_2  and  C_16 
REMARK    2  A    between atoms: N_5  and  C_9 
REMARK    3  A    between atoms: N_6  and  C_13 
REMARK       I    between atoms: N_6  and  C_22 
REMARK    4  A    between atoms: C_9  and  C_12 
REMARK    5  A    between atoms: C_13  and  C_16 
REMARK    6  A    between atoms: C_13  and  C_21 
REMARK    7  A    between atoms: C_19  and  C_24 
REMARK    8  A    between atoms: C_22  and  C_23 
REMARK    9  A    between atoms: C_27  and  C_30 
REMARK   10  A    between atoms: N_33  and  S_34 
ROOT
HETATM    1  C   UNL     1       5.995  10.555  91.434  1.00  0.00     0.056 A 
HETATM    2  C   UNL     1       7.064  10.448  90.570  1.00  0.00     0.005 A 
HETATM    3  C   UNL     1       5.809   9.683  92.486  1.00  0.00     0.005 A 
HETATM    4  C   UNL     1       7.824   8.528  91.823  1.00  0.00     0.042 A 
HETATM    5  C   UNL     1       7.990   9.423  90.765  1.00  0.00     0.008 A 
HETATM    6  C   UNL     1       6.734   8.658  92.683  1.00  0.00     0.008 A 
ENDROOT
BRANCH   1   7
HETATM    7  C   UNL     1       5.010  11.648  91.226  1.00  0.00     0.254 C 
HETATM    8  O   UNL     1       4.863  12.497  92.102  1.00  0.00    -0.268 OA
HETATM    9  N   UNL     1       4.334  11.635  90.014  1.00  0.00    -0.337 N 
HETATM   10  HN  UNL     1       4.526  10.915  89.327  1.00  0.00     0.164 HD
BRANCH   9  11
HETATM   11  C   UNL     1       3.367  12.641  89.655  1.00  0.00     0.172 C 
BRANCH  11  12
HETATM   12  C   UNL     1       2.620  13.207  90.869  1.00  0.00     0.136 C 
HETATM   13  C   UNL     1       1.611  14.284  90.484  1.00  0.00     0.034 C 
BRANCH  12  14
HETATM   14  O   UNL     1       1.936  12.151  91.543  1.00  0.00    -0.383 OA
HETATM   15  H   UNL     1       2.123  11.319  91.076  1.00  0.00     0.210 HD
ENDBRANCH  12  14
ENDBRANCH  11  12
BRANCH  11  16
HETATM   16  C   UNL     1       4.099  13.740  88.893  1.00  0.00     0.398 A 
HETATM   17  O   UNL     1       5.066  13.521  88.164  1.00  0.00    -0.136 OA
HETATM   18  N   UNL     1       5.324  14.742  89.032  1.00  0.00     0.142 N 
HETATM   19  HN  UNL     1       6.163  14.748  88.523  1.00  0.00     0.338 HD
BRANCH  18  20
HETATM   20  S   UNL     1       4.940  15.373  90.210  1.00  0.00     0.076 SA
HETATM   21  H   UNL     1       3.805  15.242  90.537  1.00  0.00     0.136 HD
ENDBRANCH  18  20
ENDBRANCH  11  16
ENDBRANCH   9  11
ENDBRANCH   1   7
BRANCH   4  22
HETATM   22  C   UNL     1       8.771   7.476  92.022  1.00  0.00    -0.059 C 
HETATM   23  C   UNL     1       9.567   6.590  92.189  1.00  0.00    -0.059 C 
BRANCH  23  24
HETATM   24  C   UNL     1      10.515   5.537  92.388  1.00  0.00     0.042 A 
HETATM   25  C   UNL     1      11.022   4.841  91.291  1.00  0.00     0.008 A 
HETATM   26  C   UNL     1      11.944   3.813  91.485  1.00  0.00    -0.002 A 
HETATM   27  C   UNL     1      12.362   3.484  92.775  1.00  0.00     0.011 A 
HETATM   28  C   UNL     1      11.854   4.183  93.871  1.00  0.00    -0.002 A 
HETATM   29  C   UNL     1      10.931   5.210  93.676  1.00  0.00     0.008 A 
BRANCH  27  30
HETATM   30  C   UNL     1      13.350   2.387  92.980  1.00  0.00     0.277 C 
BRANCH  30  31
HETATM   31  N   UNL     1      14.546   2.840  93.689  1.00  0.00     0.147 N 
HETATM   32  C   UNL     1      15.703   2.003  93.343  1.00  0.00     0.283 C 
HETATM   33  C   UNL     1      16.941   2.501  94.085  1.00  0.00     0.178 C 
HETATM   34  O   UNL     1      17.199   3.869  93.760  1.00  0.00    -0.350 OA
HETATM   35  C   UNL     1      16.090   4.693  94.121  1.00  0.00     0.178 C 
HETATM   36  C   UNL     1      14.833   4.248  93.382  1.00  0.00     0.283 C 
ENDBRANCH  30  31
ENDBRANCH  27  30
ENDBRANCH  23  24
ENDBRANCH   4  22
TORSDOF 10
ENDMDL
MODEL 8
REMARK VINA RESULT:      -5.4      3.643     12.481
REMARK  10 active torsions:
REMARK  status: ('A' for Active; 'I' for Inactive)
REMARK    1  A    between atoms: O_2  and  C_16 
REMARK    2  A    between atoms: N_5  and  C_9 
REMARK    3  A    between atoms: N_6  and  C_13 
REMARK       I    between atoms: N_6  and  C_22 
REMARK    4  A    between atoms: C_9  and  C_12 
REMARK    5  A    between atoms: C_13  and  C_16 
REMARK    6  A    between atoms: C_13  and  C_21 
REMARK    7  A    between atoms: C_19  and  C_24 
REMARK    8  A    between atoms: C_22  and  C_23 
REMARK    9  A    between atoms: C_27  and  C_30 
REMARK   10  A    between atoms: N_33  and  S_34 
ROOT
HETATM    1  C   UNL     1      10.020   5.302  90.611  1.00  0.00     0.056 A 
HETATM    2  C   UNL     1       8.946   5.356  91.475  1.00  0.00     0.005 A 
HETATM    3  C   UNL     1      10.242   6.268  89.651  1.00  0.00     0.005 A 
HETATM    4  C   UNL     1       8.255   7.412  90.413  1.00  0.00     0.042 A 
HETATM    5  C   UNL     1       8.053   6.423  91.375  1.00  0.00     0.008 A 
HETATM    6  C   UNL     1       9.349   7.335  89.551  1.00  0.00     0.008 A 
ENDROOT
BRANCH   1   7
HETATM    7  C   UNL     1      10.972   4.167  90.719  1.00  0.00     0.254 C 
HETATM    8  O   UNL     1      10.818   3.185  89.997  1.00  0.00    -0.268 OA
HETATM    9  N   UNL     1      12.002   4.322  91.636  1.00  0.00    -0.337 N 
HETATM   10  HN  UNL     1      12.080   5.173  92.180  1.00  0.00     0.164 HD
BRANCH   9  11
HETATM   11  C   UNL     1      13.018   3.321  91.838  1.00  0.00     0.172 C 
BRANCH  11  12
HETATM   12  C   UNL     1      14.107   3.352  90.759  1.00  0.00     0.136 C 
HETATM   13  C   UNL     1      14.487   4.773  90.355  1.00  0.00     0.034 C 
BRANCH  12  14
HETATM   14  O   UNL     1      15.271   2.678  91.235  1.00  0.00    -0.383 OA
HETATM   15  H   UNL     1      15.080   2.331  92.122  1.00  0.00     0.210 HD
ENDBRANCH  12  14
ENDBRANCH  11  12
BRANCH  11  16
HETATM   16  C   UNL     1      13.609   3.531  93.228  1.00  0.00     0.398 A 
HETATM   17  O   UNL     1      14.416   4.423  93.485  1.00  0.00    -0.136 OA
HETATM   18  N   UNL     1      14.854   3.115  94.123  1.00  0.00     0.142 N 
HETATM   19  HN  UNL     1      15.580   3.685  94.453  1.00  0.00     0.338 HD
BRANCH  18  20
HETATM   20  S   UNL     1      14.709   1.734  94.045  1.00  0.00     0.076 SA
HETATM   21  H   UNL     1      15.619   1.131  93.576  1.00  0.00     0.136 HD
ENDBRANCH  18  20
ENDBRANCH  11  16
ENDBRANCH   9  11
ENDBRANCH   1   7
BRANCH   4  22
HETATM   22  C   UNL     1       7.338   8.505  90.308  1.00  0.00    -0.059 C 
HETATM   23  C   UNL     1       6.567   9.422  90.221  1.00  0.00    -0.059 C 
BRANCH  23  24
HETATM   24  C   UNL     1       5.649  10.515  90.117  1.00  0.00     0.042 A 
HETATM   25  C   UNL     1       4.396  10.432  90.724  1.00  0.00     0.008 A 
HETATM   26  C   UNL     1       3.501  11.496  90.621  1.00  0.00    -0.002 A 
HETATM   27  C   UNL     1       3.859  12.644  89.913  1.00  0.00     0.011 A 
HETATM   28  C   UNL     1       5.113  12.725  89.307  1.00  0.00    -0.002 A 
HETATM   29  C   UNL     1       6.008  11.660  89.410  1.00  0.00     0.008 A 
BRANCH  27  30
HETATM   30  C   UNL     1       2.902  13.781  89.806  1.00  0.00     0.277 C 
BRANCH  30  31
HETATM   31  N   UNL     1       2.838  14.573  91.034  1.00  0.00     0.147 N 
HETATM   32  C   UNL     1       1.933  13.949  92.009  1.00  0.00     0.283 C 
HETATM   33  C   UNL     1       1.891  14.786  93.285  1.00  0.00     0.178 C 
HETATM   34  O   UNL     1       3.203  14.920  93.835  1.00  0.00    -0.350 OA
HETATM   35  C   UNL     1       4.081  15.554  92.905  1.00  0.00     0.178 C 
HETATM   36  C   UNL     1       4.175  14.736  91.620  1.00  0.00     0.283 C 
ENDBRANCH  30  31
ENDBRANCH  27  30
ENDBRANCH  23  24
ENDBRANCH   4  22
TORSDOF 10
ENDMDL
MODEL 9
REMARK VINA RESULT:      -5.2      3.627     12.564
REMARK  10 active torsions:
REMARK  status: ('A' for Active; 'I' for Inactive)
REMARK    1  A    between atoms: O_2  and  C_16 
REMARK    2  A    between atoms: N_5  and  C_9 
REMARK    3  A    between atoms: N_6  and  C_13 
REMARK       I    between atoms: N_6  and  C_22 
REMARK    4  A    between atoms: C_9  and  C_12 
REMARK    5  A    between atoms: C_13  and  C_16 
REMARK    6  A    between atoms: C_13  and  C_21 
REMARK    7  A    between atoms: C_19  and  C_24 
REMARK    8  A    between atoms: C_22  and  C_23 
REMARK    9  A    between atoms: C_27  and  C_30 
REMARK   10  A    between atoms: N_33  and  S_34 
ROOT
HETATM    1  C   UNL     1      10.539   5.078  92.132  1.00  0.00     0.056 A 
HETATM    2  C   UNL     1       9.938   5.073  90.891  1.00  0.00     0.005 A 
HETATM    3  C   UNL     1      10.294   6.064  93.065  1.00  0.00     0.005 A 
HETATM    4  C   UNL     1       8.786   7.109  91.494  1.00  0.00     0.042 A 
HETATM    5  C   UNL     1       9.051   6.100  90.567  1.00  0.00     0.008 A 
HETATM    6  C   UNL     1       9.407   7.091  92.743  1.00  0.00     0.008 A 
ENDROOT
BRANCH   1   7
HETATM    7  C   UNL     1      11.482   3.983  92.477  1.00  0.00     0.254 C 
HETATM    8  O   UNL     1      11.070   2.826  92.512  1.00  0.00    -0.268 OA
HETATM    9  N   UNL     1      12.795   4.364  92.715  1.00  0.00    -0.337 N 
HETATM   10  HN  UNL     1      13.068   5.337  92.644  1.00  0.00     0.164 HD
BRANCH   9  11
HETATM   11  C   UNL     1      13.831   3.415  93.037  1.00  0.00     0.172 C 
BRANCH  11  12
HETATM   12  C   UNL     1      14.343   2.655  91.807  1.00  0.00     0.136 C 
HETATM   13  C   UNL     1      14.002   3.362  90.500  1.00  0.00     0.034 C 
BRANCH  12  14
HETATM   14  O   UNL     1      15.760   2.504  91.895  1.00  0.00    -0.383 OA
HETATM   15  H   UNL     1      16.174   3.336  91.611  1.00  0.00     0.210 HD
ENDBRANCH  12  14
ENDBRANCH  11  12
BRANCH  11  16
HETATM   16  C   UNL     1      14.959   4.174  93.729  1.00  0.00     0.398 A 
HETATM   17  O   UNL     1      15.471   5.189  93.258  1.00  0.00    -0.136 OA
HETATM   18  N   UNL     1      16.544   4.254  93.793  1.00  0.00     0.142 N 
HETATM   19  HN  UNL     1      17.126   4.988  93.498  1.00  0.00     0.338 HD
BRANCH  18  20
HETATM   20  S   UNL     1      16.803   2.929  94.123  1.00  0.00     0.076 SA
HETATM   21  H   UNL     1      17.127   2.213  93.232  1.00  0.00     0.136 HD
ENDBRANCH  18  20
ENDBRANCH  11  16
ENDBRANCH   9  11
ENDBRANCH   1   7
BRANCH   4  22
HETATM   22  C   UNL     1       7.880   8.164  91.162  1.00  0.00    -0.059 C 
HETATM   23  C   UNL     1       7.118   9.051  90.882  1.00  0.00    -0.059 C 
BRANCH  23  24
HETATM   24  C   UNL     1       6.211  10.106  90.548  1.00  0.00     0.042 A 
HETATM   25  C   UNL     1       6.612  11.120  89.680  1.00  0.00     0.008 A 
HETATM   26  C   UNL     1       5.729  12.150  89.356  1.00  0.00    -0.002 A 
HETATM   27  C   UNL     1       4.444  12.163  89.899  1.00  0.00     0.011 A 
HETATM   28  C   UNL     1       4.044  11.147  90.767  1.00  0.00    -0.002 A 
HETATM   29  C   UNL     1       4.928  10.118  91.091  1.00  0.00     0.008 A 
BRANCH  27  30
HETATM   30  C   UNL     1       3.500  13.263  89.551  1.00  0.00     0.277 C 
BRANCH  30  31
HETATM   31  N   UNL     1       3.220  14.138  90.688  1.00  0.00     0.147 N 
HETATM   32  C   UNL     1       2.442  13.429  91.712  1.00  0.00     0.283 C 
HETATM   33  C   UNL     1       2.172  14.358  92.893  1.00  0.00     0.178 C 
HETATM   34  O   UNL     1       3.402  14.834  93.442  1.00  0.00    -0.350 OA
HETATM   35  C   UNL     1       4.151  15.552  92.460  1.00  0.00     0.178 C 
HETATM   36  C   UNL     1       4.468  14.653  91.270  1.00  0.00     0.283 C 
ENDBRANCH  30  31
ENDBRANCH  27  30
ENDBRANCH  23  24
ENDBRANCH   4  22
TORSDOF 10
ENDMDL
