MODEL 1
REMARK VINA RESULT:      -7.3      0.000      0.000
REMARK  9 active torsions:
REMARK  status: ('A' for Active; 'I' for Inactive)
REMARK    1  A    between atoms: O_2  and  C_17 
REMARK    2  A    between atoms: N_5  and  C_10 
REMARK    3  A    between atoms: N_6  and  C_14 
REMARK       I    between atoms: N_6  and  C_23 
REMARK       I    between atoms: N_7  and  C_22 
REMARK    4  A    between atoms: C_10  and  C_13 
REMARK    5  A    between atoms: C_14  and  C_17 
REMARK    6  A    between atoms: C_14  and  C_22 
REMARK    7  A    between atoms: C_20  and  C_25 
REMARK    8  A    between atoms: C_23  and  C_24 
REMARK    9  A    between atoms: C_28  and  C_31 
ROOT
HETATM    1  O   UNL     1      16.189   2.993  93.864  1.00  0.00    -0.388 OA
HETATM    2  N   UNL     1      13.577   2.493  92.850  1.00  0.00     0.096 N 
HETATM    3  C   UNL     1      14.564   1.414  92.994  1.00  0.00     0.299 C 
HETATM    4  C   UNL     1      14.260   3.773  92.616  1.00  0.00     0.299 C 
HETATM    5  C   UNL     1      15.535   1.750  94.124  1.00  0.00     0.198 C 
HETATM    6  C   UNL     1      15.238   4.053  93.753  1.00  0.00     0.198 C 
ENDROOT
BRANCH   2   7
HETATM    7  C   UNL     1      12.642   2.197  91.765  1.00  0.00     0.311 C 
BRANCH   7   8
HETATM    8  C   UNL     1      11.735   3.343  91.469  1.00  0.00    -0.030 A 
HETATM    9  C   UNL     1      10.863   3.813  92.452  1.00  0.00     0.010 A 
HETATM   10  C   UNL     1      10.012   4.883  92.176  1.00  0.00     0.021 A 
HETATM   11  C   UNL     1      10.036   5.484  90.917  1.00  0.00     0.018 A 
HETATM   12  C   UNL     1      10.906   5.015  89.935  1.00  0.00     0.021 A 
HETATM   13  C   UNL     1      11.756   3.945  90.211  1.00  0.00     0.010 A 
BRANCH  11  14
HETATM   14  C   UNL     1       9.164   6.583  90.635  1.00  0.00    -0.061 C 
HETATM   15  C   UNL     1       8.433   7.507  90.397  1.00  0.00    -0.061 C 
BRANCH  15  16
HETATM   16  C   UNL     1       7.563   8.606  90.114  1.00  0.00     0.018 A 
HETATM   17  C   UNL     1       6.201   8.382  89.912  1.00  0.00     0.022 A 
HETATM   18  C   UNL     1       5.352   9.454  89.638  1.00  0.00     0.018 A 
HETATM   19  C   UNL     1       5.883  10.725  89.574  1.00  0.00     0.032 A 
HETATM   20  C   UNL     1       7.226  10.973  89.770  1.00  0.00     0.018 A 
HETATM   21  C   UNL     1       8.076   9.901  90.043  1.00  0.00     0.022 A 
BRANCH  19  22
HETATM   22  C   UNL     1       4.979  11.867  89.281  1.00  0.00     0.252 C 
HETATM   23  O   UNL     1       4.529  12.000  88.145  1.00  0.00    -0.268 OA
HETATM   24  N   UNL     1       4.688  12.702  90.350  1.00  0.00    -0.342 N 
HETATM   25  H   UNL     1       5.077  12.516  91.267  1.00  0.00     0.163 HD
BRANCH  24  26
HETATM   26  C   UNL     1       3.808  13.837  90.231  1.00  0.00     0.199 C 
BRANCH  26  27
HETATM   27  C   UNL     1       2.682  13.828  91.273  1.00  0.00     0.145 C 
HETATM   28  C   UNL     1       2.444  12.443  91.863  1.00  0.00     0.042 C 
BRANCH  27  29
HETATM   29  O   UNL     1       3.003  14.733  92.329  1.00  0.00    -0.393 OA
HETATM   30  H   UNL     1       3.712  14.338  92.864  1.00  0.00     0.210 HD
ENDBRANCH  27  29
ENDBRANCH  26  27
BRANCH  26  31
HETATM   31  C   UNL     1       4.657  15.099  90.343  1.00  0.00     0.220 C 
HETATM   32  O   UNL     1       4.976  15.598  91.421  1.00  0.00    -0.278 OA
HETATM   33  N   UNL     1       4.981  15.618  89.113  1.00  0.00    -0.271 NA
HETATM   34  H   UNL     1       4.662  15.285  88.211  1.00  0.00     0.127 HD
HETATM   35  H   UNL     1       4.491  16.783  88.502  1.00  0.00     0.127 HD
ENDBRANCH  26  31
ENDBRANCH  24  26
ENDBRANCH  19  22
ENDBRANCH  15  16
ENDBRANCH  11  14
ENDBRANCH   7   8
ENDBRANCH   2   7
TORSDOF 9
ENDMDL
MODEL 2
REMARK VINA RESULT:      -6.1      1.572      2.090
REMARK  9 active torsions:
REMARK  status: ('A' for Active; 'I' for Inactive)
REMARK    1  A    between atoms: O_2  and  C_17 
REMARK    2  A    between atoms: N_5  and  C_10 
REMARK    3  A    between atoms: N_6  and  C_14 
REMARK       I    between atoms: N_6  and  C_23 
REMARK       I    between atoms: N_7  and  C_22 
REMARK    4  A    between atoms: C_10  and  C_13 
REMARK    5  A    between atoms: C_14  and  C_17 
REMARK    6  A    between atoms: C_14  and  C_22 
REMARK    7  A    between atoms: C_20  and  C_25 
REMARK    8  A    between atoms: C_23  and  C_24 
REMARK    9  A    between atoms: C_28  and  C_31 
ROOT
HETATM    1  O   UNL     1      16.188   2.564  94.114  1.00  0.00    -0.388 OA
HETATM    2  N   UNL     1      13.913   3.098  92.490  1.00  0.00     0.096 N 
HETATM    3  C   UNL     1      14.344   1.724  92.779  1.00  0.00     0.299 C 
HETATM    4  C   UNL     1      15.070   4.004  92.515  1.00  0.00     0.299 C 
HETATM    5  C   UNL     1      15.065   1.681  94.124  1.00  0.00     0.198 C 
HETATM    6  C   UNL     1      15.774   3.908  93.864  1.00  0.00     0.198 C 
ENDROOT
BRANCH   2   7
HETATM    7  C   UNL     1      13.228   3.165  91.200  1.00  0.00     0.311 C 
BRANCH   7   8
HETATM    8  C   UNL     1      12.063   4.095  91.223  1.00  0.00    -0.030 A 
HETATM    9  C   UNL     1      11.559   4.610  90.028  1.00  0.00     0.010 A 
HETATM   10  C   UNL     1      10.471   5.482  90.048  1.00  0.00     0.021 A 
HETATM   11  C   UNL     1       9.886   5.837  91.263  1.00  0.00     0.018 A 
HETATM   12  C   UNL     1      10.389   5.324  92.457  1.00  0.00     0.021 A 
HETATM   13  C   UNL     1      11.478   4.453  92.437  1.00  0.00     0.010 A 
BRANCH  11  14
HETATM   14  C   UNL     1       8.769   6.730  91.283  1.00  0.00    -0.061 C 
HETATM   15  C   UNL     1       7.829   7.480  91.301  1.00  0.00    -0.061 C 
BRANCH  15  16
HETATM   16  C   UNL     1       6.712   8.372  91.322  1.00  0.00     0.018 A 
HETATM   17  C   UNL     1       6.899   9.714  91.656  1.00  0.00     0.022 A 
HETATM   18  C   UNL     1       5.809  10.585  91.675  1.00  0.00     0.018 A 
HETATM   19  C   UNL     1       4.559  10.096  91.358  1.00  0.00     0.032 A 
HETATM   20  C   UNL     1       4.349   8.774  91.025  1.00  0.00     0.018 A 
HETATM   21  C   UNL     1       5.437   7.902  91.007  1.00  0.00     0.022 A 
BRANCH  19  22
HETATM   22  C   UNL     1       3.399  11.023  91.380  1.00  0.00     0.252 C 
HETATM   23  O   UNL     1       2.277  10.586  91.136  1.00  0.00    -0.268 OA
HETATM   24  N   UNL     1       3.681  12.342  91.707  1.00  0.00    -0.342 N 
HETATM   25  H   UNL     1       4.630  12.626  91.921  1.00  0.00     0.163 HD
BRANCH  24  26
HETATM   26  C   UNL     1       2.660  13.355  91.793  1.00  0.00     0.199 C 
BRANCH  26  27
HETATM   27  C   UNL     1       2.516  13.935  93.206  1.00  0.00     0.145 C 
HETATM   28  C   UNL     1       3.861  14.125  93.898  1.00  0.00     0.042 C 
BRANCH  27  29
HETATM   29  O   UNL     1       1.847  15.193  93.140  1.00  0.00    -0.393 OA
HETATM   30  H   UNL     1       0.916  15.057  93.383  1.00  0.00     0.210 HD
ENDBRANCH  27  29
ENDBRANCH  26  27
BRANCH  26  31
HETATM   31  C   UNL     1       2.997  14.444  90.779  1.00  0.00     0.220 C 
HETATM   32  O   UNL     1       3.690  15.422  91.052  1.00  0.00    -0.278 OA
HETATM   33  N   UNL     1       2.407  14.217  89.559  1.00  0.00    -0.271 NA
HETATM   34  H   UNL     1       1.760  13.473  89.327  1.00  0.00     0.127 HD
HETATM   35  H   UNL     1       1.335  14.904  88.968  1.00  0.00     0.127 HD
ENDBRANCH  26  31
ENDBRANCH  24  26
ENDBRANCH  19  22
ENDBRANCH  15  16
ENDBRANCH  11  14
ENDBRANCH   7   8
ENDBRANCH   2   7
TORSDOF 9
ENDMDL
MODEL 3
REMARK VINA RESULT:      -5.5      1.961     12.431
REMARK  9 active torsions:
REMARK  status: ('A' for Active; 'I' for Inactive)
REMARK    1  A    between atoms: O_2  and  C_17 
REMARK    2  A    between atoms: N_5  and  C_10 
REMARK    3  A    between atoms: N_6  and  C_14 
REMARK       I    between atoms: N_6  and  C_23 
REMARK       I    between atoms: N_7  and  C_22 
REMARK    4  A    between atoms: C_10  and  C_13 
REMARK    5  A    between atoms: C_14  and  C_17 
REMARK    6  A    between atoms: C_14  and  C_22 
REMARK    7  A    between atoms: C_20  and  C_25 
REMARK    8  A    between atoms: C_23  and  C_24 
REMARK    9  A    between atoms: C_28  and  C_31 
ROOT
HETATM    1  O   UNL     1       5.588  14.762  88.896  1.00  0.00    -0.388 OA
HETATM    2  N   UNL     1       3.594  13.111  90.078  1.00  0.00     0.096 N 
HETATM    3  C   UNL     1       4.183  14.243  90.806  1.00  0.00     0.299 C 
HETATM    4  C   UNL     1       4.562  12.574  89.112  1.00  0.00     0.299 C 
HETATM    5  C   UNL     1       4.642  15.311  89.816  1.00  0.00     0.198 C 
HETATM    6  C   UNL     1       5.013  13.680  88.163  1.00  0.00     0.198 C 
ENDROOT
BRANCH   2   7
HETATM    7  C   UNL     1       3.156  12.070  91.007  1.00  0.00     0.311 C 
BRANCH   7   8
HETATM    8  C   UNL     1       4.216  11.054  91.262  1.00  0.00    -0.030 A 
HETATM    9  C   UNL     1       5.216  11.310  92.201  1.00  0.00     0.010 A 
HETATM   10  C   UNL     1       6.210  10.361  92.439  1.00  0.00     0.021 A 
HETATM   11  C   UNL     1       6.201   9.155  91.739  1.00  0.00     0.018 A 
HETATM   12  C   UNL     1       5.203   8.897  90.802  1.00  0.00     0.021 A 
HETATM   13  C   UNL     1       4.210   9.846  90.563  1.00  0.00     0.010 A 
BRANCH  11  14
HETATM   14  C   UNL     1       7.220   8.180  91.985  1.00  0.00    -0.061 C 
HETATM   15  C   UNL     1       8.075   7.361  92.192  1.00  0.00    -0.061 C 
BRANCH  15  16
HETATM   16  C   UNL     1       9.092   6.386  92.438  1.00  0.00     0.018 A 
HETATM   17  C   UNL     1       9.570   5.599  91.390  1.00  0.00     0.022 A 
HETATM   18  C   UNL     1      10.564   4.650  91.629  1.00  0.00     0.018 A 
HETATM   19  C   UNL     1      11.057   4.510  92.910  1.00  0.00     0.032 A 
HETATM   20  C   UNL     1      10.601   5.276  93.962  1.00  0.00     0.018 A 
HETATM   21  C   UNL     1       9.607   6.225  93.724  1.00  0.00     0.022 A 
BRANCH  19  22
HETATM   22  C   UNL     1      12.115   3.498  93.165  1.00  0.00     0.252 C 
HETATM   23  O   UNL     1      11.905   2.324  92.869  1.00  0.00    -0.268 OA
HETATM   24  N   UNL     1      13.297   3.978  93.710  1.00  0.00    -0.342 N 
HETATM   25  H   UNL     1      13.408   4.966  93.905  1.00  0.00     0.163 HD
BRANCH  24  26
HETATM   26  C   UNL     1      14.424   3.125  93.992  1.00  0.00     0.199 C 
BRANCH  26  27
HETATM   27  C   UNL     1      14.475   1.890  93.083  1.00  0.00     0.145 C 
HETATM   28  C   UNL     1      15.271   2.137  91.807  1.00  0.00     0.042 C 
BRANCH  27  29
HETATM   29  O   UNL     1      15.063   0.800  93.792  1.00  0.00    -0.393 OA
HETATM   30  H   UNL     1      14.433   0.500  94.469  1.00  0.00     0.210 HD
ENDBRANCH  27  29
ENDBRANCH  26  27
BRANCH  26  31
HETATM   31  C   UNL     1      15.689   3.965  93.858  1.00  0.00     0.220 C 
HETATM   32  O   UNL     1      15.676   5.146  93.515  1.00  0.00    -0.278 OA
HETATM   33  N   UNL     1      16.825   3.239  94.124  1.00  0.00    -0.271 NA
HETATM   34  H   UNL     1      16.878   2.246  94.321  1.00  0.00     0.127 HD
HETATM   35  H   UNL     1      17.805   2.792  93.223  1.00  0.00     0.127 HD
ENDBRANCH  26  31
ENDBRANCH  24  26
ENDBRANCH  19  22
ENDBRANCH  15  16
ENDBRANCH  11  14
ENDBRANCH   7   8
ENDBRANCH   2   7
TORSDOF 9
ENDMDL
MODEL 4
REMARK VINA RESULT:      -5.0      2.012     12.417
REMARK  9 active torsions:
REMARK  status: ('A' for Active; 'I' for Inactive)
REMARK    1  A    between atoms: O_2  and  C_17 
REMARK    2  A    between atoms: N_5  and  C_10 
REMARK    3  A    between atoms: N_6  and  C_14 
REMARK       I    between atoms: N_6  and  C_23 
REMARK       I    between atoms: N_7  and  C_22 
REMARK    4  A    between atoms: C_10  and  C_13 
REMARK    5  A    between atoms: C_14  and  C_17 
REMARK    6  A    between atoms: C_14  and  C_22 
REMARK    7  A    between atoms: C_20  and  C_25 
REMARK    8  A    between atoms: C_23  and  C_24 
REMARK    9  A    between atoms: C_28  and  C_31 
ROOT
HETATM    1  O   UNL     1       4.133  14.950  91.582  1.00  0.00    -0.388 OA
HETATM    2  N   UNL     1       2.447  12.669  91.822  1.00  0.00     0.096 N 
HETATM    3  C   UNL     1       2.909  13.410  93.004  1.00  0.00     0.299 C 
HETATM    4  C   UNL     1       3.432  12.787  90.738  1.00  0.00     0.299 C 
HETATM    5  C   UNL     1       3.167  14.868  92.632  1.00  0.00     0.198 C 
HETATM    6  C   UNL     1       3.678  14.258  90.419  1.00  0.00     0.198 C 
ENDROOT
BRANCH   2   7
HETATM    7  C   UNL     1       2.204  11.266  92.153  1.00  0.00     0.311 C 
BRANCH   7   8
HETATM    8  C   UNL     1       3.445  10.442  92.080  1.00  0.00    -0.030 A 
HETATM    9  C   UNL     1       3.669   9.618  90.977  1.00  0.00     0.010 A 
HETATM   10  C   UNL     1       4.828   8.845  90.908  1.00  0.00     0.021 A 
HETATM   11  C   UNL     1       5.763   8.898  91.942  1.00  0.00     0.018 A 
HETATM   12  C   UNL     1       5.539   9.721  93.044  1.00  0.00     0.021 A 
HETATM   13  C   UNL     1       4.380  10.494  93.113  1.00  0.00     0.010 A 
BRANCH  11  14
HETATM   14  C   UNL     1       6.952   8.107  91.871  1.00  0.00    -0.061 C 
HETATM   15  C   UNL     1       7.952   7.441  91.811  1.00  0.00    -0.061 C 
BRANCH  15  16
HETATM   16  C   UNL     1       9.141   6.650  91.740  1.00  0.00     0.018 A 
HETATM   17  C   UNL     1       9.638   6.251  90.499  1.00  0.00     0.022 A 
HETATM   18  C   UNL     1      10.799   5.481  90.430  1.00  0.00     0.018 A 
HETATM   19  C   UNL     1      11.436   5.128  91.601  1.00  0.00     0.032 A 
HETATM   20  C   UNL     1      10.964   5.510  92.839  1.00  0.00     0.018 A 
HETATM   21  C   UNL     1       9.803   6.280  92.910  1.00  0.00     0.022 A 
BRANCH  19  22
HETATM   22  C   UNL     1      12.672   4.306  91.527  1.00  0.00     0.252 C 
HETATM   23  O   UNL     1      13.019   3.842  90.443  1.00  0.00    -0.268 OA
HETATM   24  N   UNL     1      13.367   4.144  92.717  1.00  0.00    -0.342 N 
HETATM   25  H   UNL     1      13.033   4.579  93.569  1.00  0.00     0.163 HD
BRANCH  24  26
HETATM   26  C   UNL     1      14.595   3.396  92.802  1.00  0.00     0.199 C 
BRANCH  26  27
HETATM   27  C   UNL     1      15.601   4.014  93.782  1.00  0.00     0.145 C 
HETATM   28  C   UNL     1      16.912   3.239  93.839  1.00  0.00     0.042 C 
BRANCH  27  29
HETATM   29  O   UNL     1      15.874   5.361  93.398  1.00  0.00    -0.393 OA
HETATM   30  H   UNL     1      16.242   5.353  92.498  1.00  0.00     0.210 HD
ENDBRANCH  27  29
ENDBRANCH  26  27
BRANCH  26  31
HETATM   31  C   UNL     1      14.243   1.966  93.198  1.00  0.00     0.220 C 
HETATM   32  O   UNL     1      14.795   1.371  94.122  1.00  0.00    -0.278 OA
HETATM   33  N   UNL     1      13.277   1.425  92.384  1.00  0.00    -0.271 NA
HETATM   34  H   UNL     1      12.867   1.853  91.562  1.00  0.00     0.127 HD
HETATM   35  H   UNL     1      13.421   0.429  91.404  1.00  0.00     0.127 HD
ENDBRANCH  26  31
ENDBRANCH  24  26
ENDBRANCH  19  22
ENDBRANCH  15  16
ENDBRANCH  11  14
ENDBRANCH   7   8
ENDBRANCH   2   7
TORSDOF 9
ENDMDL
MODEL 5
REMARK VINA RESULT:      -4.6      2.217     12.682
REMARK  9 active torsions:
REMARK  status: ('A' for Active; 'I' for Inactive)
REMARK    1  A    between atoms: O_2  and  C_17 
REMARK    2  A    between atoms: N_5  and  C_10 
REMARK    3  A    between atoms: N_6  and  C_14 
REMARK       I    between atoms: N_6  and  C_23 
REMARK       I    between atoms: N_7  and  C_22 
REMARK    4  A    between atoms: C_10  and  C_13 
REMARK    5  A    between atoms: C_14  and  C_17 
REMARK    6  A    between atoms: C_14  and  C_22 
REMARK    7  A    between atoms: C_20  and  C_25 
REMARK    8  A    between atoms: C_23  and  C_24 
REMARK    9  A    between atoms: C_28  and  C_31 
ROOT
HETATM    1  O   UNL     1       1.896  15.355  92.941  1.00  0.00    -0.388 OA
HETATM    2  N   UNL     1       2.746  12.795  92.032  1.00  0.00     0.096 N 
HETATM    3  C   UNL     1       3.388  14.029  91.559  1.00  0.00     0.299 C 
HETATM    4  C   UNL     1       1.344  13.059  92.384  1.00  0.00     0.299 C 
HETATM    5  C   UNL     1       3.269  15.115  92.626  1.00  0.00     0.198 C 
HETATM    6  C   UNL     1       1.273  14.167  93.430  1.00  0.00     0.198 C 
ENDROOT
BRANCH   2   7
HETATM    7  C   UNL     1       2.838  11.743  91.020  1.00  0.00     0.311 C 
BRANCH   7   8
HETATM    8  C   UNL     1       3.945  10.784  91.298  1.00  0.00    -0.030 A 
HETATM    9  C   UNL     1       4.116  10.271  92.584  1.00  0.00     0.010 A 
HETATM   10  C   UNL     1       5.152   9.375  92.845  1.00  0.00     0.021 A 
HETATM   11  C   UNL     1       6.015   8.990  91.820  1.00  0.00     0.018 A 
HETATM   12  C   UNL     1       5.845   9.501  90.535  1.00  0.00     0.021 A 
HETATM   13  C   UNL     1       4.809  10.398  90.273  1.00  0.00     0.010 A 
BRANCH  11  14
HETATM   14  C   UNL     1       7.077   8.069  92.087  1.00  0.00    -0.061 C 
HETATM   15  C   UNL     1       7.969   7.296  92.313  1.00  0.00    -0.061 C 
BRANCH  15  16
HETATM   16  C   UNL     1       9.030   6.376  92.581  1.00  0.00     0.018 A 
HETATM   17  C   UNL     1       9.910   6.010  91.562  1.00  0.00     0.022 A 
HETATM   18  C   UNL     1      10.946   5.115  91.824  1.00  0.00     0.018 A 
HETATM   19  C   UNL     1      11.080   4.605  93.099  1.00  0.00     0.032 A 
HETATM   20  C   UNL     1      10.224   4.950  94.123  1.00  0.00     0.018 A 
HETATM   21  C   UNL     1       9.187   5.846  93.862  1.00  0.00     0.022 A 
BRANCH  19  22
HETATM   22  C   UNL     1      12.183   3.650  93.378  1.00  0.00     0.252 C 
HETATM   23  O   UNL     1      11.914   2.534  93.816  1.00  0.00    -0.268 OA
HETATM   24  N   UNL     1      13.465   4.099  93.090  1.00  0.00    -0.342 N 
HETATM   25  H   UNL     1      13.609   5.026  92.706  1.00  0.00     0.163 HD
BRANCH  24  26
HETATM   26  C   UNL     1      14.635   3.281  93.283  1.00  0.00     0.199 C 
BRANCH  26  27
HETATM   27  C   UNL     1      15.014   2.482  92.030  1.00  0.00     0.145 C 
HETATM   28  C   UNL     1      14.800   3.274  90.745  1.00  0.00     0.042 C 
BRANCH  27  29
HETATM   29  O   UNL     1      16.384   2.089  92.110  1.00  0.00    -0.393 OA
HETATM   30  H   UNL     1      16.432   1.126  91.992  1.00  0.00     0.210 HD
ENDBRANCH  27  29
ENDBRANCH  26  27
BRANCH  26  31
HETATM   31  C   UNL     1      15.774   4.195  93.723  1.00  0.00     0.220 C 
HETATM   32  O   UNL     1      15.702   5.422  93.683  1.00  0.00    -0.278 OA
HETATM   33  N   UNL     1      16.882   3.487  94.124  1.00  0.00    -0.271 NA
HETATM   34  H   UNL     1      17.007   2.482  94.085  1.00  0.00     0.127 HD
HETATM   35  H   UNL     1      18.113   3.348  93.464  1.00  0.00     0.127 HD
ENDBRANCH  26  31
ENDBRANCH  24  26
ENDBRANCH  19  22
ENDBRANCH  15  16
ENDBRANCH  11  14
ENDBRANCH   7   8
ENDBRANCH   2   7
TORSDOF 9
ENDMDL
MODEL 6
REMARK VINA RESULT:      -4.5      2.143      2.806
REMARK  9 active torsions:
REMARK  status: ('A' for Active; 'I' for Inactive)
REMARK    1  A    between atoms: O_2  and  C_17 
REMARK    2  A    between atoms: N_5  and  C_10 
REMARK    3  A    between atoms: N_6  and  C_14 
REMARK       I    between atoms: N_6  and  C_23 
REMARK       I    between atoms: N_7  and  C_22 
REMARK    4  A    between atoms: C_10  and  C_13 
REMARK    5  A    between atoms: C_14  and  C_17 
REMARK    6  A    between atoms: C_14  and  C_22 
REMARK    7  A    between atoms: C_20  and  C_25 
REMARK    8  A    between atoms: C_23  and  C_24 
REMARK    9  A    between atoms: C_28  and  C_31 
ROOT
HETATM    1  O   UNL     1      16.420   2.720  92.875  1.00  0.00    -0.388 OA
HETATM    2  N   UNL     1      13.616   3.194  92.985  1.00  0.00     0.096 N 
HETATM    3  C   UNL     1      14.333   2.568  94.105  1.00  0.00     0.299 C 
HETATM    4  C   UNL     1      14.295   2.888  91.718  1.00  0.00     0.299 C 
HETATM    5  C   UNL     1      15.786   3.039  94.115  1.00  0.00     0.198 C 
HETATM    6  C   UNL     1      15.747   3.350  91.784  1.00  0.00     0.198 C 
ENDROOT
BRANCH   2   7
HETATM    7  C   UNL     1      12.224   2.748  92.949  1.00  0.00     0.311 C 
BRANCH   7   8
HETATM    8  C   UNL     1      11.264   3.888  92.910  1.00  0.00    -0.030 A 
HETATM    9  C   UNL     1      10.446   4.071  91.794  1.00  0.00     0.010 A 
HETATM   10  C   UNL     1       9.548   5.138  91.755  1.00  0.00     0.021 A 
HETATM   11  C   UNL     1       9.468   6.020  92.832  1.00  0.00     0.018 A 
HETATM   12  C   UNL     1      10.285   5.838  93.946  1.00  0.00     0.021 A 
HETATM   13  C   UNL     1      11.182   4.772  93.986  1.00  0.00     0.010 A 
BRANCH  11  14
HETATM   14  C   UNL     1       8.547   7.114  92.792  1.00  0.00    -0.061 C 
HETATM   15  C   UNL     1       7.772   8.032  92.758  1.00  0.00    -0.061 C 
BRANCH  15  16
HETATM   16  C   UNL     1       6.850   9.125  92.719  1.00  0.00     0.018 A 
HETATM   17  C   UNL     1       6.913  10.125  93.690  1.00  0.00     0.022 A 
HETATM   18  C   UNL     1       6.015  11.191  93.649  1.00  0.00     0.018 A 
HETATM   19  C   UNL     1       5.076  11.235  92.640  1.00  0.00     0.032 A 
HETATM   20  C   UNL     1       4.993  10.259  91.669  1.00  0.00     0.018 A 
HETATM   21  C   UNL     1       5.890   9.191  91.709  1.00  0.00     0.022 A 
BRANCH  19  22
HETATM   22  C   UNL     1       4.118  12.370  92.599  1.00  0.00     0.252 C 
HETATM   23  O   UNL     1       3.016  12.245  93.126  1.00  0.00    -0.268 OA
HETATM   24  N   UNL     1       4.569  13.523  91.971  1.00  0.00    -0.342 N 
HETATM   25  H   UNL     1       5.503  13.562  91.580  1.00  0.00     0.163 HD
BRANCH  24  26
HETATM   26  C   UNL     1       3.768  14.716  91.871  1.00  0.00     0.199 C 
BRANCH  26  27
HETATM   27  C   UNL     1       2.569  14.549  90.928  1.00  0.00     0.145 C 
HETATM   28  C   UNL     1       2.924  13.773  89.665  1.00  0.00     0.042 C 
BRANCH  27  29
HETATM   29  O   UNL     1       1.517  13.867  91.610  1.00  0.00    -0.393 OA
HETATM   30  H   UNL     1       0.915  14.532  91.985  1.00  0.00     0.210 HD
ENDBRANCH  27  29
ENDBRANCH  26  27
BRANCH  26  31
HETATM   31  C   UNL     1       3.317  15.094  93.279  1.00  0.00     0.220 C 
HETATM   32  O   UNL     1       2.136  15.123  93.619  1.00  0.00    -0.278 OA
HETATM   33  N   UNL     1       4.375  15.428  94.089  1.00  0.00    -0.271 NA
HETATM   34  H   UNL     1       5.348  15.501  93.818  1.00  0.00     0.127 HD
HETATM   35  H   UNL     1       4.741  16.697  94.566  1.00  0.00     0.127 HD
ENDBRANCH  26  31
ENDBRANCH  24  26
ENDBRANCH  19  22
ENDBRANCH  15  16
ENDBRANCH  11  14
ENDBRANCH   7   8
ENDBRANCH   2   7
TORSDOF 9
ENDMDL
MODEL 7
REMARK VINA RESULT:      -4.3      2.246     12.445
REMARK  9 active torsions:
REMARK  status: ('A' for Active; 'I' for Inactive)
REMARK    1  A    between atoms: O_2  and  C_17 
REMARK    2  A    between atoms: N_5  and  C_10 
REMARK    3  A    between atoms: N_6  and  C_14 
REMARK       I    between atoms: N_6  and  C_23 
REMARK       I    between atoms: N_7  and  C_22 
REMARK    4  A    between atoms: C_10  and  C_13 
REMARK    5  A    between atoms: C_14  and  C_17 
REMARK    6  A    between atoms: C_14  and  C_22 
REMARK    7  A    between atoms: C_20  and  C_25 
REMARK    8  A    between atoms: C_23  and  C_24 
REMARK    9  A    between atoms: C_28  and  C_31 
ROOT
HETATM    1  O   UNL     1       4.818  14.143  88.899  1.00  0.00    -0.388 OA
HETATM    2  N   UNL     1       3.119  13.027  90.891  1.00  0.00     0.096 N 
HETATM    3  C   UNL     1       4.241  13.908  91.245  1.00  0.00     0.299 C 
HETATM    4  C   UNL     1       3.416  12.309  89.644  1.00  0.00     0.299 C 
HETATM    5  C   UNL     1       4.525  14.870  90.094  1.00  0.00     0.198 C 
HETATM    6  C   UNL     1       3.720  13.307  88.532  1.00  0.00     0.198 C 
ENDROOT
BRANCH   2   7
HETATM    7  C   UNL     1       2.836  12.090  91.976  1.00  0.00     0.311 C 
BRANCH   7   8
HETATM    8  C   UNL     1       3.929  11.094  92.167  1.00  0.00    -0.030 A 
HETATM    9  C   UNL     1       3.944   9.923  91.408  1.00  0.00     0.010 A 
HETATM   10  C   UNL     1       4.965   8.990  91.586  1.00  0.00     0.021 A 
HETATM   11  C   UNL     1       5.971   9.229  92.522  1.00  0.00     0.018 A 
HETATM   12  C   UNL     1       5.957  10.398  93.280  1.00  0.00     0.021 A 
HETATM   13  C   UNL     1       4.936  11.331  93.102  1.00  0.00     0.010 A 
BRANCH  11  14
HETATM   14  C   UNL     1       7.020   8.273  92.704  1.00  0.00    -0.061 C 
HETATM   15  C   UNL     1       7.901   7.469  92.857  1.00  0.00    -0.061 C 
BRANCH  15  16
HETATM   16  C   UNL     1       8.948   6.512  93.037  1.00  0.00     0.018 A 
HETATM   17  C   UNL     1      10.041   6.822  93.847  1.00  0.00     0.022 A 
HETATM   18  C   UNL     1      11.062   5.888  94.025  1.00  0.00     0.018 A 
HETATM   19  C   UNL     1      10.966   4.666  93.392  1.00  0.00     0.032 A 
HETATM   20  C   UNL     1       9.896   4.337  92.587  1.00  0.00     0.018 A 
HETATM   21  C   UNL     1       8.875   5.270  92.407  1.00  0.00     0.022 A 
BRANCH  19  22
HETATM   22  C   UNL     1      12.054   3.672  93.581  1.00  0.00     0.252 C 
HETATM   23  O   UNL     1      11.796   2.594  94.111  1.00  0.00    -0.268 OA
HETATM   24  N   UNL     1      13.305   4.043  93.108  1.00  0.00    -0.342 N 
HETATM   25  H   UNL     1      13.438   4.942  92.658  1.00  0.00     0.163 HD
BRANCH  24  26
HETATM   26  C   UNL     1      14.455   3.179  93.196  1.00  0.00     0.199 C 
BRANCH  26  27
HETATM   27  C   UNL     1      14.850   2.578  91.841  1.00  0.00     0.145 C 
HETATM   28  C   UNL     1      14.446   3.464  90.669  1.00  0.00     0.042 C 
BRANCH  27  29
HETATM   29  O   UNL     1      16.262   2.373  91.803  1.00  0.00    -0.393 OA
HETATM   30  H   UNL     1      16.687   3.223  91.597  1.00  0.00     0.210 HD
ENDBRANCH  27  29
ENDBRANCH  26  27
BRANCH  26  31
HETATM   31  C   UNL     1      15.599   3.987  93.799  1.00  0.00     0.220 C 
HETATM   32  O   UNL     1      15.557   5.208  93.938  1.00  0.00    -0.278 OA
HETATM   33  N   UNL     1      16.676   3.198  94.124  1.00  0.00    -0.271 NA
HETATM   34  H   UNL     1      16.779   2.207  93.941  1.00  0.00     0.127 HD
HETATM   35  H   UNL     1      17.925   3.123  93.487  1.00  0.00     0.127 HD
ENDBRANCH  26  31
ENDBRANCH  24  26
ENDBRANCH  19  22
ENDBRANCH  15  16
ENDBRANCH  11  14
ENDBRANCH   7   8
ENDBRANCH   2   7
TORSDOF 9
ENDMDL
