MODEL 1
REMARK VINA RESULT:      -7.0      0.000      0.000
REMARK  10 active torsions:
REMARK  status: ('A' for Active; 'I' for Inactive)
REMARK    1  A    between atoms: O_2  and  C_18 
REMARK    2  A    between atoms: O_5  and  N_8 
REMARK    3  A    between atoms: N_6  and  C_11 
REMARK    4  A    between atoms: N_7  and  C_15 
REMARK       I    between atoms: N_7  and  C_24 
REMARK       I    between atoms: N_8  and  C_23 
REMARK    5  A    between atoms: C_11  and  C_14 
REMARK    6  A    between atoms: C_15  and  C_18 
REMARK    7  A    between atoms: C_15  and  C_23 
REMARK    8  A    between atoms: C_21  and  C_26 
REMARK    9  A    between atoms: C_24  and  C_25 
REMARK   10  A    between atoms: C_29  and  C_32 
ROOT
HETATM    1  O   UNK     0      16.465   4.290  94.084  0.00  0.00    -0.388 OA
HETATM    2  N   UNK     0      14.678   2.584  92.670  0.00  0.00     0.096 N 
HETATM    3  C   UNK     0      14.538   4.047  92.629  0.00  0.00     0.299 C 
HETATM    4  C   UNK     0      15.289   2.173  93.940  0.00  0.00     0.299 C 
HETATM    5  C   UNK     0      15.900   4.703  92.838  0.00  0.00     0.198 C 
HETATM    6  C   UNK     0      16.634   2.873  94.120  0.00  0.00     0.198 C 
ENDROOT
BRANCH   2   7
HETATM    7  C   UNK     0      13.383   1.934  92.482  0.00  0.00     0.311 C 
BRANCH   7   8
HETATM    8  C   UNK     0      12.306   2.905  92.134  0.00  0.00    -0.030 A 
HETATM    9  C   UNK     0      11.654   3.614  93.143  0.00  0.00     0.010 A 
HETATM   10  C   UNK     0      10.645   4.520  92.819  0.00  0.00     0.021 A 
HETATM   11  C   UNK     0      10.290   4.719  91.485  0.00  0.00     0.018 A 
HETATM   12  C   UNK     0      10.940   4.011  90.476  0.00  0.00     0.021 A 
HETATM   13  C   UNK     0      11.949   3.104  90.800  0.00  0.00     0.010 A 
BRANCH  11  14
HETATM   14  C   UNK     0       9.256   5.650  91.152  0.00  0.00    -0.061 C 
HETATM   15  C   UNK     0       8.388   6.433  90.872  0.00  0.00    -0.061 C 
BRANCH  15  16
HETATM   16  C   UNK     0       7.355   7.363  90.541  0.00  0.00     0.018 A 
HETATM   17  C   UNK     0       6.129   7.309  91.206  0.00  0.00     0.022 A 
HETATM   18  C   UNK     0       5.121   8.218  90.884  0.00  0.00     0.018 A 
HETATM   19  C   UNK     0       5.361   9.161  89.906  0.00  0.00     0.032 A 
HETATM   20  C   UNK     0       6.562   9.235  89.234  0.00  0.00     0.018 A 
HETATM   21  C   UNK     0       7.570   8.326  89.555  0.00  0.00     0.022 A 
BRANCH  19  22
HETATM   22  C   UNK     0       4.286  10.128  89.563  0.00  0.00     0.252 C 
HETATM   23  O   UNK     0       3.359   9.764  88.843  0.00  0.00    -0.268 OA
HETATM   24  N   UNK     0       4.406  11.394  90.119  0.00  0.00    -0.341 N 
HETATM   25  H   UNK     0       5.187  11.615  90.725  0.00  0.00     0.163 HD
BRANCH  24  26
HETATM   26  C   UNK     0       3.433  12.433  89.899  0.00  0.00     0.207 C 
BRANCH  26  27
HETATM   27  C   UNK     0       3.030  13.152  91.193  0.00  0.00     0.146 C 
HETATM   28  C   UNK     0       2.620  12.182  92.296  0.00  0.00     0.042 C 
BRANCH  27  29
HETATM   29  O   UNK     0       4.120  13.947  91.657  0.00  0.00    -0.393 OA
HETATM   30  H   UNK     0       4.797  13.972  90.959  0.00  0.00     0.210 HD
ENDBRANCH  27  29
ENDBRANCH  26  27
BRANCH  26  31
HETATM   31  C   UNK     0       4.014  13.408  88.881  0.00  0.00     0.266 C 
HETATM   32  O   UNK     0       4.168  14.606  89.113  0.00  0.00    -0.269 OA
HETATM   33  N   UNK     0       4.301  12.799  87.684  0.00  0.00    -0.236 N 
HETATM   34  H   UNK     0       4.104  11.838  87.429  0.00  0.00     0.197 HD
BRANCH  33  35
HETATM   35  O   UNK     0       4.805  13.636  86.678  0.00  0.00    -0.287 OA
HETATM   36  H   UNK     0       5.512  14.090  87.168  0.00  0.00     0.244 HD
ENDBRANCH  33  35
ENDBRANCH  26  31
ENDBRANCH  24  26
ENDBRANCH  19  22
ENDBRANCH  15  16
ENDBRANCH  11  14
ENDBRANCH   7   8
ENDBRANCH   2   7
TORSDOF 10
ENDMDL
MODEL 2
REMARK VINA RESULT:      -6.5      1.759      2.129
REMARK  10 active torsions:
REMARK  status: ('A' for Active; 'I' for Inactive)
REMARK    1  A    between atoms: O_2  and  C_18 
REMARK    2  A    between atoms: O_5  and  N_8 
REMARK    3  A    between atoms: N_6  and  C_11 
REMARK    4  A    between atoms: N_7  and  C_15 
REMARK       I    between atoms: N_7  and  C_24 
REMARK       I    between atoms: N_8  and  C_23 
REMARK    5  A    between atoms: C_11  and  C_14 
REMARK    6  A    between atoms: C_15  and  C_18 
REMARK    7  A    between atoms: C_15  and  C_23 
REMARK    8  A    between atoms: C_21  and  C_26 
REMARK    9  A    between atoms: C_24  and  C_25 
REMARK   10  A    between atoms: C_29  and  C_32 
ROOT
HETATM    1  O   UNK     0      16.710   4.320  94.001  0.00  0.00    -0.388 OA
HETATM    2  N   UNK     0      14.673   2.766  92.761  0.00  0.00     0.096 N 
HETATM    3  C   UNK     0      14.710   4.229  92.630  0.00  0.00     0.299 C 
HETATM    4  C   UNK     0      15.281   2.359  94.035  0.00  0.00     0.299 C 
HETATM    5  C   UNK     0      16.150   4.723  92.751  0.00  0.00     0.198 C 
HETATM    6  C   UNK     0      16.707   2.897  94.124  0.00  0.00     0.198 C 
ENDROOT
BRANCH   2   7
HETATM    7  C   UNK     0      13.301   2.271  92.660  0.00  0.00     0.311 C 
BRANCH   7   8
HETATM    8  C   UNK     0      12.299   3.375  92.649  0.00  0.00    -0.030 A 
HETATM    9  C   UNK     0      11.946   4.006  93.843  0.00  0.00     0.010 A 
HETATM   10  C   UNK     0      11.007   5.037  93.835  0.00  0.00     0.021 A 
HETATM   11  C   UNK     0      10.423   5.438  92.633  0.00  0.00     0.018 A 
HETATM   12  C   UNK     0      10.775   4.809  91.441  0.00  0.00     0.021 A 
HETATM   13  C   UNK     0      11.714   3.777  91.449  0.00  0.00     0.010 A 
BRANCH  11  14
HETATM   14  C   UNK     0       9.461   6.497  92.625  0.00  0.00    -0.061 C 
HETATM   15  C   UNK     0       8.654   7.388  92.618  0.00  0.00    -0.061 C 
BRANCH  15  16
HETATM   16  C   UNK     0       7.693   8.446  92.610  0.00  0.00     0.018 A 
HETATM   17  C   UNK     0       6.425   8.232  92.069  0.00  0.00     0.022 A 
HETATM   18  C   UNK     0       5.487   9.264  92.064  0.00  0.00     0.018 A 
HETATM   19  C   UNK     0       5.836  10.486  92.600  0.00  0.00     0.032 A 
HETATM   20  C   UNK     0       7.083  10.723  93.140  0.00  0.00     0.018 A 
HETATM   21  C   UNK     0       8.022   9.691  93.145  0.00  0.00     0.022 A 
BRANCH  19  22
HETATM   22  C   UNK     0       4.837  11.585  92.592  0.00  0.00     0.252 C 
HETATM   23  O   UNK     0       4.249  11.869  93.633  0.00  0.00    -0.268 OA
HETATM   24  N   UNK     0       4.660  12.238  91.380  0.00  0.00    -0.341 N 
HETATM   25  H   UNK     0       5.200  11.964  90.567  0.00  0.00     0.163 HD
BRANCH  24  26
HETATM   26  C   UNK     0       3.746  13.339  91.219  0.00  0.00     0.207 C 
BRANCH  26  27
HETATM   27  C   UNK     0       4.279  14.647  91.817  0.00  0.00     0.146 C 
HETATM   28  C   UNK     0       4.789  15.612  90.752  0.00  0.00     0.042 C 
BRANCH  27  29
HETATM   29  O   UNK     0       3.246  15.286  92.565  0.00  0.00    -0.393 OA
HETATM   30  H   UNK     0       2.402  14.853  92.352  0.00  0.00     0.210 HD
ENDBRANCH  27  29
ENDBRANCH  26  27
BRANCH  26  31
HETATM   31  C   UNK     0       3.456  13.490  89.729  0.00  0.00     0.266 C 
HETATM   32  O   UNK     0       2.468  14.080  89.295  0.00  0.00    -0.269 OA
HETATM   33  N   UNK     0       4.398  12.861  88.951  0.00  0.00    -0.236 N 
HETATM   34  H   UNK     0       5.171  12.292  89.275  0.00  0.00     0.197 HD
BRANCH  33  35
HETATM   35  O   UNK     0       4.183  12.919  87.566  0.00  0.00    -0.287 OA
HETATM   36  H   UNK     0       4.700  12.148  87.277  0.00  0.00     0.244 HD
ENDBRANCH  33  35
ENDBRANCH  26  31
ENDBRANCH  24  26
ENDBRANCH  19  22
ENDBRANCH  15  16
ENDBRANCH  11  14
ENDBRANCH   7   8
ENDBRANCH   2   7
TORSDOF 10
ENDMDL
MODEL 3
REMARK VINA RESULT:      -6.0      1.604      1.853
REMARK  10 active torsions:
REMARK  status: ('A' for Active; 'I' for Inactive)
REMARK    1  A    between atoms: O_2  and  C_18 
REMARK    2  A    between atoms: O_5  and  N_8 
REMARK    3  A    between atoms: N_6  and  C_11 
REMARK    4  A    between atoms: N_7  and  C_15 
REMARK       I    between atoms: N_7  and  C_24 
REMARK       I    between atoms: N_8  and  C_23 
REMARK    5  A    between atoms: C_11  and  C_14 
REMARK    6  A    between atoms: C_15  and  C_18 
REMARK    7  A    between atoms: C_15  and  C_23 
REMARK    8  A    between atoms: C_21  and  C_26 
REMARK    9  A    between atoms: C_24  and  C_25 
REMARK   10  A    between atoms: C_29  and  C_32 
ROOT
HETATM    1  O   UNK     0      15.801   4.493  93.511  0.00  0.00    -0.388 OA
HETATM    2  N   UNK     0      13.970   2.638  92.368  0.00  0.00     0.096 N 
HETATM    3  C   UNK     0      14.040   4.031  91.906  0.00  0.00     0.299 C 
HETATM    4  C   UNK     0      14.366   2.555  93.780  0.00  0.00     0.299 C 
HETATM    5  C   UNK     0      15.448   4.579  92.129  0.00  0.00     0.198 C 
HETATM    6  C   UNK     0      15.765   3.138  93.960  0.00  0.00     0.198 C 
ENDROOT
BRANCH   2   7
HETATM    7  C   UNK     0      12.626   2.096  92.173  0.00  0.00     0.311 C 
BRANCH   7   8
HETATM    8  C   UNK     0      11.591   3.164  92.074  0.00  0.00    -0.030 A 
HETATM    9  C   UNK     0      11.379   4.030  93.148  0.00  0.00     0.010 A 
HETATM   10  C   UNK     0      10.409   5.028  93.057  0.00  0.00     0.021 A 
HETATM   11  C   UNK     0       9.655   5.162  91.892  0.00  0.00     0.018 A 
HETATM   12  C   UNK     0       9.866   4.299  90.819  0.00  0.00     0.021 A 
HETATM   13  C   UNK     0      10.835   3.299  90.910  0.00  0.00     0.010 A 
BRANCH  11  14
HETATM   14  C   UNK     0       8.662   6.188  91.798  0.00  0.00    -0.061 C 
HETATM   15  C   UNK     0       7.827   7.050  91.719  0.00  0.00    -0.061 C 
BRANCH  15  16
HETATM   16  C   UNK     0       6.837   8.075  91.626  0.00  0.00     0.018 A 
HETATM   17  C   UNK     0       5.778   7.942  90.726  0.00  0.00     0.022 A 
HETATM   18  C   UNK     0       4.810   8.942  90.636  0.00  0.00     0.018 A 
HETATM   19  C   UNK     0       4.920  10.052  91.447  0.00  0.00     0.032 A 
HETATM   20  C   UNK     0       5.956  10.208  92.344  0.00  0.00     0.018 A 
HETATM   21  C   UNK     0       6.925   9.209  92.434  0.00  0.00     0.022 A 
BRANCH  19  22
HETATM   22  C   UNK     0       3.889  11.117  91.349  0.00  0.00     0.252 C 
HETATM   23  O   UNK     0       2.821  10.869  90.795  0.00  0.00    -0.268 OA
HETATM   24  N   UNK     0       4.216  12.335  91.929  0.00  0.00    -0.341 N 
HETATM   25  H   UNK     0       5.109  12.459  92.392  0.00  0.00     0.163 HD
BRANCH  24  26
HETATM   26  C   UNK     0       3.313  13.457  91.938  0.00  0.00     0.207 C 
BRANCH  26  27
HETATM   27  C   UNK     0       3.524  14.380  93.146  0.00  0.00     0.146 C 
HETATM   28  C   UNK     0       2.253  14.565  93.967  0.00  0.00     0.042 C 
BRANCH  27  29
HETATM   29  O   UNK     0       4.545  13.840  93.985  0.00  0.00    -0.393 OA
HETATM   30  H   UNK     0       5.239  13.464  93.419  0.00  0.00     0.210 HD
ENDBRANCH  27  29
ENDBRANCH  26  27
BRANCH  26  31
HETATM   31  C   UNK     0       3.496  14.212  90.625  0.00  0.00     0.266 C 
HETATM   32  O   UNK     0       2.691  14.146  89.698  0.00  0.00    -0.269 OA
HETATM   33  N   UNK     0       4.667  14.929  90.597  0.00  0.00    -0.236 N 
HETATM   34  H   UNK     0       5.392  14.935  91.305  0.00  0.00     0.197 HD
BRANCH  33  35
HETATM   35  O   UNK     0       4.929  15.623  89.408  0.00  0.00    -0.287 OA
HETATM   36  H   UNK     0       5.039  14.879  88.792  0.00  0.00     0.244 HD
ENDBRANCH  33  35
ENDBRANCH  26  31
ENDBRANCH  24  26
ENDBRANCH  19  22
ENDBRANCH  15  16
ENDBRANCH  11  14
ENDBRANCH   7   8
ENDBRANCH   2   7
TORSDOF 10
ENDMDL
MODEL 4
REMARK VINA RESULT:      -5.9      1.872      2.925
REMARK  10 active torsions:
REMARK  status: ('A' for Active; 'I' for Inactive)
REMARK    1  A    between atoms: O_2  and  C_18 
REMARK    2  A    between atoms: O_5  and  N_8 
REMARK    3  A    between atoms: N_6  and  C_11 
REMARK    4  A    between atoms: N_7  and  C_15 
REMARK       I    between atoms: N_7  and  C_24 
REMARK       I    between atoms: N_8  and  C_23 
REMARK    5  A    between atoms: C_11  and  C_14 
REMARK    6  A    between atoms: C_15  and  C_18 
REMARK    7  A    between atoms: C_15  and  C_23 
REMARK    8  A    between atoms: C_21  and  C_26 
REMARK    9  A    between atoms: C_24  and  C_25 
REMARK   10  A    between atoms: C_29  and  C_32 
ROOT
HETATM    1  O   UNK     0      16.534   4.004  93.900  0.00  0.00    -0.388 OA
HETATM    2  N   UNK     0      14.466   2.486  92.666  0.00  0.00     0.096 N 
HETATM    3  C   UNK     0      14.603   3.930  92.432  0.00  0.00     0.299 C 
HETATM    4  C   UNK     0      14.983   2.140  93.997  0.00  0.00     0.299 C 
HETATM    5  C   UNK     0      16.063   4.344  92.595  0.00  0.00     0.198 C 
HETATM    6  C   UNK     0      16.433   2.597  94.124  0.00  0.00     0.198 C 
ENDROOT
BRANCH   2   7
HETATM    7  C   UNK     0      13.073   2.068  92.525  0.00  0.00     0.311 C 
BRANCH   7   8
HETATM    8  C   UNK     0      12.131   3.224  92.519  0.00  0.00    -0.030 A 
HETATM    9  C   UNK     0      11.427   3.543  91.358  0.00  0.00     0.010 A 
HETATM   10  C   UNK     0      10.547   4.625  91.350  0.00  0.00     0.021 A 
HETATM   11  C   UNK     0      10.371   5.387  92.505  0.00  0.00     0.018 A 
HETATM   12  C   UNK     0      11.074   5.069  93.666  0.00  0.00     0.021 A 
HETATM   13  C   UNK     0      11.954   3.987  93.673  0.00  0.00     0.010 A 
BRANCH  11  14
HETATM   14  C   UNK     0       9.467   6.496  92.499  0.00  0.00    -0.061 C 
HETATM   15  C   UNK     0       8.707   7.428  92.493  0.00  0.00    -0.061 C 
BRANCH  15  16
HETATM   16  C   UNK     0       7.804   8.534  92.486  0.00  0.00     0.018 A 
HETATM   17  C   UNK     0       8.084   9.657  91.706  0.00  0.00     0.022 A 
HETATM   18  C   UNK     0       7.201  10.737  91.697  0.00  0.00     0.018 A 
HETATM   19  C   UNK     0       6.058  10.671  92.466  0.00  0.00     0.032 A 
HETATM   20  C   UNK     0       5.759   9.573  93.246  0.00  0.00     0.018 A 
HETATM   21  C   UNK     0       6.642   8.493  93.256  0.00  0.00     0.022 A 
BRANCH  19  22
HETATM   22  C   UNK     0       5.119  11.822  92.458  0.00  0.00     0.252 C 
HETATM   23  O   UNK     0       4.680  12.246  93.524  0.00  0.00    -0.268 OA
HETATM   24  N   UNK     0       4.824  12.357  91.211  0.00  0.00    -0.341 N 
HETATM   25  H   UNK     0       5.245  11.970  90.375  0.00  0.00     0.163 HD
BRANCH  24  26
HETATM   26  C   UNK     0       3.950  13.489  91.041  0.00  0.00     0.207 C 
BRANCH  26  27
HETATM   27  C   UNK     0       4.013  14.080  89.626  0.00  0.00     0.146 C 
HETATM   28  C   UNK     0       5.253  14.941  89.408  0.00  0.00     0.042 C 
BRANCH  27  29
HETATM   29  O   UNK     0       4.008  13.024  88.667  0.00  0.00    -0.393 OA
HETATM   30  H   UNK     0       4.219  12.193  89.126  0.00  0.00     0.210 HD
ENDBRANCH  27  29
ENDBRANCH  26  27
BRANCH  26  31
HETATM   31  C   UNK     0       2.535  13.043  91.392  0.00  0.00     0.266 C 
HETATM   32  O   UNK     0       1.595  13.826  91.509  0.00  0.00    -0.269 OA
HETATM   33  N   UNK     0       2.454  11.686  91.595  0.00  0.00    -0.236 N 
HETATM   34  H   UNK     0       3.223  11.026  91.595  0.00  0.00     0.197 HD
BRANCH  33  35
HETATM   35  O   UNK     0       1.191  11.198  91.961  0.00  0.00    -0.287 OA
HETATM   36  H   UNK     0       1.450  10.476  92.558  0.00  0.00     0.244 HD
ENDBRANCH  33  35
ENDBRANCH  26  31
ENDBRANCH  24  26
ENDBRANCH  19  22
ENDBRANCH  15  16
ENDBRANCH  11  14
ENDBRANCH   7   8
ENDBRANCH   2   7
TORSDOF 10
ENDMDL
MODEL 5
REMARK VINA RESULT:      -5.4      1.573      2.414
REMARK  10 active torsions:
REMARK  status: ('A' for Active; 'I' for Inactive)
REMARK    1  A    between atoms: O_2  and  C_18 
REMARK    2  A    between atoms: O_5  and  N_8 
REMARK    3  A    between atoms: N_6  and  C_11 
REMARK    4  A    between atoms: N_7  and  C_15 
REMARK       I    between atoms: N_7  and  C_24 
REMARK       I    between atoms: N_8  and  C_23 
REMARK    5  A    between atoms: C_11  and  C_14 
REMARK    6  A    between atoms: C_15  and  C_18 
REMARK    7  A    between atoms: C_15  and  C_23 
REMARK    8  A    between atoms: C_21  and  C_26 
REMARK    9  A    between atoms: C_24  and  C_25 
REMARK   10  A    between atoms: C_29  and  C_32 
ROOT
HETATM    1  O   UNK     0      16.056   3.893  93.249  0.00  0.00    -0.388 OA
HETATM    2  N   UNK     0      13.950   2.123  92.518  0.00  0.00     0.096 N 
HETATM    3  C   UNK     0      14.378   3.214  91.632  0.00  0.00     0.299 C 
HETATM    4  C   UNK     0      14.196   2.486  93.919  0.00  0.00     0.299 C 
HETATM    5  C   UNK     0      15.849   3.535  91.881  0.00  0.00     0.198 C 
HETATM    6  C   UNK     0      15.671   2.825  94.115  0.00  0.00     0.198 C 
ENDROOT
BRANCH   2   7
HETATM    7  C   UNK     0      12.539   1.806  92.304  0.00  0.00     0.311 C 
BRANCH   7   8
HETATM    8  C   UNK     0      11.728   3.014  91.979  0.00  0.00    -0.030 A 
HETATM    9  C   UNK     0      11.270   3.216  90.677  0.00  0.00     0.010 A 
HETATM   10  C   UNK     0      10.513   4.347  90.371  0.00  0.00     0.021 A 
HETATM   11  C   UNK     0      10.213   5.274  91.369  0.00  0.00     0.018 A 
HETATM   12  C   UNK     0      10.669   5.073  92.670  0.00  0.00     0.021 A 
HETATM   13  C   UNK     0      11.427   3.942  92.976  0.00  0.00     0.010 A 
BRANCH  11  14
HETATM   14  C   UNK     0       9.434   6.433  91.056  0.00  0.00    -0.061 C 
HETATM   15  C   UNK     0       8.781   7.407  90.793  0.00  0.00    -0.061 C 
BRANCH  15  16
HETATM   16  C   UNK     0       8.004   8.565  90.482  0.00  0.00     0.018 A 
HETATM   17  C   UNK     0       6.729   8.717  91.029  0.00  0.00     0.022 A 
HETATM   18  C   UNK     0       5.971   9.848  90.727  0.00  0.00     0.018 A 
HETATM   19  C   UNK     0       6.504  10.803  89.887  0.00  0.00     0.032 A 
HETATM   20  C   UNK     0       7.761  10.677  89.333  0.00  0.00     0.018 A 
HETATM   21  C   UNK     0       8.519   9.545  89.634  0.00  0.00     0.022 A 
BRANCH  19  22
HETATM   22  C   UNK     0       5.696  12.007  89.564  0.00  0.00     0.252 C 
HETATM   23  O   UNK     0       5.653  12.407  88.403  0.00  0.00    -0.268 OA
HETATM   24  N   UNK     0       5.015  12.585  90.626  0.00  0.00    -0.341 N 
HETATM   25  H   UNK     0       5.078  12.184  91.555  0.00  0.00     0.163 HD
BRANCH  24  26
HETATM   26  C   UNK     0       4.171  13.742  90.469  0.00  0.00     0.207 C 
BRANCH  26  27
HETATM   27  C   UNK     0       2.692  13.377  90.284  0.00  0.00     0.146 C 
HETATM   28  C   UNK     0       2.349  12.013  90.871  0.00  0.00     0.042 C 
BRANCH  27  29
HETATM   29  O   UNK     0       1.875  14.368  90.906  0.00  0.00    -0.393 OA
HETATM   30  H   UNK     0       0.982  14.000  91.018  0.00  0.00     0.210 HD
ENDBRANCH  27  29
ENDBRANCH  26  27
BRANCH  26  31
HETATM   31  C   UNK     0       4.373  14.635  91.689  0.00  0.00     0.266 C 
HETATM   32  O   UNK     0       5.105  15.623  91.682  0.00  0.00    -0.269 OA
HETATM   33  N   UNK     0       3.677  14.183  92.784  0.00  0.00    -0.236 N 
HETATM   34  H   UNK     0       3.138  13.328  92.850  0.00  0.00     0.197 HD
BRANCH  33  35
HETATM   35  O   UNK     0       3.840  14.929  93.960  0.00  0.00    -0.287 OA
HETATM   36  H   UNK     0       2.952  14.840  94.347  0.00  0.00     0.244 HD
ENDBRANCH  33  35
ENDBRANCH  26  31
ENDBRANCH  24  26
ENDBRANCH  19  22
ENDBRANCH  15  16
ENDBRANCH  11  14
ENDBRANCH   7   8
ENDBRANCH   2   7
TORSDOF 10
ENDMDL
MODEL 6
REMARK VINA RESULT:      -5.3      2.788     12.271
REMARK  10 active torsions:
REMARK  status: ('A' for Active; 'I' for Inactive)
REMARK    1  A    between atoms: O_2  and  C_18 
REMARK    2  A    between atoms: O_5  and  N_8 
REMARK    3  A    between atoms: N_6  and  C_11 
REMARK    4  A    between atoms: N_7  and  C_15 
REMARK       I    between atoms: N_7  and  C_24 
REMARK       I    between atoms: N_8  and  C_23 
REMARK    5  A    between atoms: C_11  and  C_14 
REMARK    6  A    between atoms: C_15  and  C_18 
REMARK    7  A    between atoms: C_15  and  C_23 
REMARK    8  A    between atoms: C_21  and  C_26 
REMARK    9  A    between atoms: C_24  and  C_25 
REMARK   10  A    between atoms: C_29  and  C_32 
ROOT
HETATM    1  O   UNK     0       3.287  14.870  93.668  0.00  0.00    -0.388 OA
HETATM    2  N   UNK     0       2.871  14.711  90.856  0.00  0.00     0.096 N 
HETATM    3  C   UNK     0       2.004  13.996  91.803  0.00  0.00     0.299 C 
HETATM    4  C   UNK     0       4.216  14.868  91.426  0.00  0.00     0.299 C 
HETATM    5  C   UNK     0       1.968  14.741  93.135  0.00  0.00     0.198 C 
HETATM    6  C   UNK     0       4.129  15.591  92.767  0.00  0.00     0.198 C 
ENDROOT
BRANCH   2   7
HETATM    7  C   UNK     0       2.929  14.009  89.575  0.00  0.00     0.311 C 
BRANCH   7   8
HETATM    8  C   UNK     0       3.915  12.891  89.584  0.00  0.00    -0.030 A 
HETATM    9  C   UNK     0       3.500  11.599  89.908  0.00  0.00     0.010 A 
HETATM   10  C   UNK     0       4.423  10.553  89.919  0.00  0.00     0.021 A 
HETATM   11  C   UNK     0       5.759  10.799  89.603  0.00  0.00     0.018 A 
HETATM   12  C   UNK     0       6.174  12.089  89.279  0.00  0.00     0.021 A 
HETATM   13  C   UNK     0       5.252  13.136  89.269  0.00  0.00     0.010 A 
BRANCH  11  14
HETATM   14  C   UNK     0       6.704   9.725  89.612  0.00  0.00    -0.061 C 
HETATM   15  C   UNK     0       7.499   8.823  89.619  0.00  0.00    -0.061 C 
BRANCH  15  16
HETATM   16  C   UNK     0       8.442   7.750  89.627  0.00  0.00     0.018 A 
HETATM   17  C   UNK     0       8.847   7.169  88.424  0.00  0.00     0.022 A 
HETATM   18  C   UNK     0       9.769   6.123  88.432  0.00  0.00     0.018 A 
HETATM   19  C   UNK     0      10.267   5.681  89.640  0.00  0.00     0.032 A 
HETATM   20  C   UNK     0       9.883   6.238  90.842  0.00  0.00     0.018 A 
HETATM   21  C   UNK     0       8.960   7.284  90.835  0.00  0.00     0.022 A 
BRANCH  19  22
HETATM   22  C   UNK     0      11.248   4.565  89.648  0.00  0.00     0.252 C 
HETATM   23  O   UNK     0      11.413   3.905  88.625  0.00  0.00    -0.268 OA
HETATM   24  N   UNK     0      11.936   4.369  90.837  0.00  0.00    -0.341 N 
HETATM   25  H   UNK     0      11.765   4.971  91.634  0.00  0.00     0.163 HD
BRANCH  24  26
HETATM   26  C   UNK     0      12.937   3.344  90.994  0.00  0.00     0.207 C 
BRANCH  26  27
HETATM   27  C   UNK     0      14.212   3.858  91.673  0.00  0.00     0.146 C 
HETATM   28  C   UNK     0      14.030   4.073  93.171  0.00  0.00     0.042 C 
BRANCH  27  29
HETATM   29  O   UNK     0      15.273   2.926  91.464  0.00  0.00    -0.393 OA
HETATM   30  H   UNK     0      14.910   2.028  91.545  0.00  0.00     0.210 HD
ENDBRANCH  27  29
ENDBRANCH  26  27
BRANCH  26  31
HETATM   31  C   UNK     0      12.311   2.199  91.784  0.00  0.00     0.266 C 
HETATM   32  O   UNK     0      12.882   1.128  91.979  0.00  0.00    -0.269 OA
HETATM   33  N   UNK     0      11.038   2.497  92.209  0.00  0.00    -0.236 N 
HETATM   34  H   UNK     0      10.505   3.331  91.992  0.00  0.00     0.197 HD
BRANCH  33  35
HETATM   35  O   UNK     0      10.377   1.480  92.913  0.00  0.00    -0.287 OA
HETATM   36  H   UNK     0       9.808   1.123  92.209  0.00  0.00     0.244 HD
ENDBRANCH  33  35
ENDBRANCH  26  31
ENDBRANCH  24  26
ENDBRANCH  19  22
ENDBRANCH  15  16
ENDBRANCH  11  14
ENDBRANCH   7   8
ENDBRANCH   2   7
TORSDOF 10
ENDMDL
MODEL 7
REMARK VINA RESULT:      -5.1      2.614     12.382
REMARK  10 active torsions:
REMARK  status: ('A' for Active; 'I' for Inactive)
REMARK    1  A    between atoms: O_2  and  C_18 
REMARK    2  A    between atoms: O_5  and  N_8 
REMARK    3  A    between atoms: N_6  and  C_11 
REMARK    4  A    between atoms: N_7  and  C_15 
REMARK       I    between atoms: N_7  and  C_24 
REMARK       I    between atoms: N_8  and  C_23 
REMARK    5  A    between atoms: C_11  and  C_14 
REMARK    6  A    between atoms: C_15  and  C_18 
REMARK    7  A    between atoms: C_15  and  C_23 
REMARK    8  A    between atoms: C_21  and  C_26 
REMARK    9  A    between atoms: C_24  and  C_25 
REMARK   10  A    between atoms: C_29  and  C_32 
ROOT
HETATM    1  O   UNK     0       3.025  14.912  93.732  0.00  0.00    -0.388 OA
HETATM    2  N   UNK     0       2.653  14.245  90.990  0.00  0.00     0.096 N 
HETATM    3  C   UNK     0       1.770  13.712  92.037  0.00  0.00     0.299 C 
HETATM    4  C   UNK     0       3.988  14.506  91.543  0.00  0.00     0.299 C 
HETATM    5  C   UNK     0       1.714  14.685  93.212  0.00  0.00     0.198 C 
HETATM    6  C   UNK     0       3.881  15.460  92.729  0.00  0.00     0.198 C 
ENDROOT
BRANCH   2   7
HETATM    7  C   UNK     0       2.730  13.323  89.859  0.00  0.00     0.311 C 
BRANCH   7   8
HETATM    8  C   UNK     0       3.779  12.280  90.047  0.00  0.00    -0.030 A 
HETATM    9  C   UNK     0       3.513  11.159  90.834  0.00  0.00     0.010 A 
HETATM   10  C   UNK     0       4.494  10.184  91.012  0.00  0.00     0.021 A 
HETATM   11  C   UNK     0       5.739  10.329  90.402  0.00  0.00     0.018 A 
HETATM   12  C   UNK     0       6.006  11.448  89.616  0.00  0.00     0.021 A 
HETATM   13  C   UNK     0       5.025  12.424  89.438  0.00  0.00     0.010 A 
BRANCH  11  14
HETATM   14  C   UNK     0       6.744   9.327  90.583  0.00  0.00    -0.061 C 
HETATM   15  C   UNK     0       7.589   8.486  90.735  0.00  0.00    -0.061 C 
BRANCH  15  16
HETATM   16  C   UNK     0       8.592   7.484  90.916  0.00  0.00     0.018 A 
HETATM   17  C   UNK     0       9.126   6.824  89.808  0.00  0.00     0.022 A 
HETATM   18  C   UNK     0      10.106   5.848  89.984  0.00  0.00     0.018 A 
HETATM   19  C   UNK     0      10.533   5.554  91.262  0.00  0.00     0.032 A 
HETATM   20  C   UNK     0      10.022   6.191  92.373  0.00  0.00     0.018 A 
HETATM   21  C   UNK     0       9.040   7.167  92.198  0.00  0.00     0.022 A 
BRANCH  19  22
HETATM   22  C   UNK     0      11.576   4.513  91.449  0.00  0.00     0.252 C 
HETATM   23  O   UNK     0      11.901   3.811  90.494  0.00  0.00    -0.268 OA
HETATM   24  N   UNK     0      12.132   4.430  92.718  0.00  0.00    -0.341 N 
HETATM   25  H   UNK     0      11.831   5.060  93.452  0.00  0.00     0.163 HD
BRANCH  24  26
HETATM   26  C   UNK     0      13.171   3.488  93.050  0.00  0.00     0.207 C 
BRANCH  26  27
HETATM   27  C   UNK     0      13.107   2.211  92.203  0.00  0.00     0.146 C 
HETATM   28  C   UNK     0      14.147   1.179  92.624  0.00  0.00     0.042 C 
BRANCH  27  29
HETATM   29  O   UNK     0      11.808   1.631  92.311  0.00  0.00    -0.393 OA
HETATM   30  H   UNK     0      11.693   1.310  93.221  0.00  0.00     0.210 HD
ENDBRANCH  27  29
ENDBRANCH  26  27
BRANCH  26  31
HETATM   31  C   UNK     0      14.512   4.197  92.885  0.00  0.00     0.266 C 
HETATM   32  O   UNK     0      14.859   4.738  91.836  0.00  0.00    -0.269 OA
HETATM   33  N   UNK     0      15.282   4.121  94.020  0.00  0.00    -0.236 N 
HETATM   34  H   UNK     0      15.066   3.609  94.867  0.00  0.00     0.197 HD
BRANCH  33  35
HETATM   35  O   UNK     0      16.549   4.716  93.938  0.00  0.00    -0.287 OA
HETATM   36  H   UNK     0      16.430   5.464  94.547  0.00  0.00     0.244 HD
ENDBRANCH  33  35
ENDBRANCH  26  31
ENDBRANCH  24  26
ENDBRANCH  19  22
ENDBRANCH  15  16
ENDBRANCH  11  14
ENDBRANCH   7   8
ENDBRANCH   2   7
TORSDOF 10
ENDMDL
MODEL 8
REMARK VINA RESULT:      -4.9      2.738     12.667
REMARK  10 active torsions:
REMARK  status: ('A' for Active; 'I' for Inactive)
REMARK    1  A    between atoms: O_2  and  C_18 
REMARK    2  A    between atoms: O_5  and  N_8 
REMARK    3  A    between atoms: N_6  and  C_11 
REMARK    4  A    between atoms: N_7  and  C_15 
REMARK       I    between atoms: N_7  and  C_24 
REMARK       I    between atoms: N_8  and  C_23 
REMARK    5  A    between atoms: C_11  and  C_14 
REMARK    6  A    between atoms: C_15  and  C_18 
REMARK    7  A    between atoms: C_15  and  C_23 
REMARK    8  A    between atoms: C_21  and  C_26 
REMARK    9  A    between atoms: C_24  and  C_25 
REMARK   10  A    between atoms: C_29  and  C_32 
ROOT
HETATM    1  O   UNK     0       1.222  12.048  93.691  0.00  0.00    -0.388 OA
HETATM    2  N   UNK     0       2.833  12.924  91.513  0.00  0.00     0.096 N 
HETATM    3  C   UNK     0       2.560  11.498  91.742  0.00  0.00     0.299 C 
HETATM    4  C   UNK     0       2.803  13.653  92.788  0.00  0.00     0.299 C 
HETATM    5  C   UNK     0       1.218  11.336  92.452  0.00  0.00     0.198 C 
HETATM    6  C   UNK     0       1.456  13.440  93.474  0.00  0.00     0.198 C 
ENDROOT
BRANCH   2   7
HETATM    7  C   UNK     0       4.120  13.104  90.843  0.00  0.00     0.311 C 
BRANCH   7   8
HETATM    8  C   UNK     0       5.062  11.980  91.111  0.00  0.00    -0.030 A 
HETATM    9  C   UNK     0       5.313  11.579  92.424  0.00  0.00     0.010 A 
HETATM   10  C   UNK     0       6.196  10.529  92.676  0.00  0.00     0.021 A 
HETATM   11  C   UNK     0       6.825   9.879  91.615  0.00  0.00     0.018 A 
HETATM   12  C   UNK     0       6.574  10.277  90.303  0.00  0.00     0.021 A 
HETATM   13  C   UNK     0       5.692  11.328  90.051  0.00  0.00     0.010 A 
BRANCH  11  14
HETATM   14  C   UNK     0       7.729   8.800  91.873  0.00  0.00    -0.061 C 
HETATM   15  C   UNK     0       8.488   7.894  92.091  0.00  0.00    -0.061 C 
BRANCH  15  16
HETATM   16  C   UNK     0       9.392   6.817  92.348  0.00  0.00     0.018 A 
HETATM   17  C   UNK     0       9.874   6.045  91.290  0.00  0.00     0.022 A 
HETATM   18  C   UNK     0      10.758   4.995  91.541  0.00  0.00     0.018 A 
HETATM   19  C   UNK     0      11.140   4.741  92.841  0.00  0.00     0.032 A 
HETATM   20  C   UNK     0      10.677   5.489  93.904  0.00  0.00     0.018 A 
HETATM   21  C   UNK     0       9.793   6.538  93.654  0.00  0.00     0.022 A 
BRANCH  19  22
HETATM   22  C   UNK     0      12.080   3.621  93.108  0.00  0.00     0.252 C 
HETATM   23  O   UNK     0      11.761   2.480  92.783  0.00  0.00    -0.268 OA
HETATM   24  N   UNK     0      13.287   3.968  93.697  0.00  0.00    -0.341 N 
HETATM   25  H   UNK     0      13.492   4.937  93.915  0.00  0.00     0.163 HD
BRANCH  24  26
HETATM   26  C   UNK     0      14.311   3.000  93.995  0.00  0.00     0.207 C 
BRANCH  26  27
HETATM   27  C   UNK     0      14.296   1.804  93.034  0.00  0.00     0.146 C 
HETATM   28  C   UNK     0      14.957   2.122  91.697  0.00  0.00     0.042 C 
BRANCH  27  29
HETATM   29  O   UNK     0      14.972   0.700  93.635  0.00  0.00    -0.393 OA
HETATM   30  H   UNK     0      14.673   0.625  94.557  0.00  0.00     0.210 HD
ENDBRANCH  27  29
ENDBRANCH  26  27
BRANCH  26  31
HETATM   31  C   UNK     0      15.656   3.719  93.964  0.00  0.00     0.266 C 
HETATM   32  O   UNK     0      15.763   4.933  93.799  0.00  0.00    -0.269 OA
HETATM   33  N   UNK     0      16.712   2.851  94.102  0.00  0.00    -0.236 N 
HETATM   34  H   UNK     0      16.664   1.840  94.150  0.00  0.00     0.197 HD
BRANCH  33  35
HETATM   35  O   UNK     0      17.988   3.429  94.046  0.00  0.00    -0.287 OA
HETATM   36  H   UNK     0      18.437   2.803  93.453  0.00  0.00     0.244 HD
ENDBRANCH  33  35
ENDBRANCH  26  31
ENDBRANCH  24  26
ENDBRANCH  19  22
ENDBRANCH  15  16
ENDBRANCH  11  14
ENDBRANCH   7   8
ENDBRANCH   2   7
TORSDOF 10
ENDMDL
MODEL 9
REMARK VINA RESULT:      -4.8      2.374     12.529
REMARK  10 active torsions:
REMARK  status: ('A' for Active; 'I' for Inactive)
REMARK    1  A    between atoms: O_2  and  C_18 
REMARK    2  A    between atoms: O_5  and  N_8 
REMARK    3  A    between atoms: N_6  and  C_11 
REMARK    4  A    between atoms: N_7  and  C_15 
REMARK       I    between atoms: N_7  and  C_24 
REMARK       I    between atoms: N_8  and  C_23 
REMARK    5  A    between atoms: C_11  and  C_14 
REMARK    6  A    between atoms: C_15  and  C_18 
REMARK    7  A    between atoms: C_15  and  C_23 
REMARK    8  A    between atoms: C_21  and  C_26 
REMARK    9  A    between atoms: C_24  and  C_25 
REMARK   10  A    between atoms: C_29  and  C_32 
ROOT
HETATM    1  O   UNK     0       4.412  14.530  89.507  0.00  0.00    -0.388 OA
HETATM    2  N   UNK     0       3.282  13.853  92.030  0.00  0.00     0.096 N 
HETATM    3  C   UNK     0       4.567  14.560  91.928  0.00  0.00     0.299 C 
HETATM    4  C   UNK     0       3.077  13.009  90.845  0.00  0.00     0.299 C 
HETATM    5  C   UNK     0       4.606  15.378  90.640  0.00  0.00     0.198 C 
HETATM    6  C   UNK     0       3.152  13.863  89.582  0.00  0.00     0.198 C 
ENDROOT
BRANCH   2   7
HETATM    7  C   UNK     0       3.227  13.053  93.253  0.00  0.00     0.311 C 
BRANCH   7   8
HETATM    8  C   UNK     0       4.214  11.936  93.246  0.00  0.00    -0.030 A 
HETATM    9  C   UNK     0       5.348  12.003  94.056  0.00  0.00     0.010 A 
HETATM   10  C   UNK     0       6.273  10.959  94.049  0.00  0.00     0.021 A 
HETATM   11  C   UNK     0       6.062   9.848  93.233  0.00  0.00     0.018 A 
HETATM   12  C   UNK     0       4.930   9.780  92.423  0.00  0.00     0.021 A 
HETATM   13  C   UNK     0       4.005  10.824  92.430  0.00  0.00     0.010 A 
BRANCH  11  14
HETATM   14  C   UNK     0       7.010   8.776  93.227  0.00  0.00    -0.061 C 
HETATM   15  C   UNK     0       7.806   7.875  93.223  0.00  0.00    -0.061 C 
BRANCH  15  16
HETATM   16  C   UNK     0       8.754   6.806  93.217  0.00  0.00     0.018 A 
HETATM   17  C   UNK     0       8.593   5.737  92.334  0.00  0.00     0.022 A 
HETATM   18  C   UNK     0       9.519   4.694  92.327  0.00  0.00     0.018 A 
HETATM   19  C   UNK     0      10.585   4.742  93.201  0.00  0.00     0.032 A 
HETATM   20  C   UNK     0      10.765   5.786  94.084  0.00  0.00     0.018 A 
HETATM   21  C   UNK     0       9.839   6.829  94.093  0.00  0.00     0.022 A 
BRANCH  19  22
HETATM   22  C   UNK     0      11.570   3.630  93.195  0.00  0.00     0.252 C 
HETATM   23  O   UNK     0      11.200   2.503  92.871  0.00  0.00    -0.268 OA
HETATM   24  N   UNK     0      12.870   3.967  93.541  0.00  0.00    -0.341 N 
HETATM   25  H   UNK     0      13.107   4.925  93.773  0.00  0.00     0.163 HD
BRANCH  24  26
HETATM   26  C   UNK     0      13.943   3.005  93.558  0.00  0.00     0.207 C 
BRANCH  26  27
HETATM   27  C   UNK     0      14.047   2.209  92.251  0.00  0.00     0.146 C 
HETATM   28  C   UNK     0      14.495   3.071  91.076  0.00  0.00     0.042 C 
BRANCH  27  29
HETATM   29  O   UNK     0      14.973   1.136  92.418  0.00  0.00    -0.393 OA
HETATM   30  H   UNK     0      14.860   0.772  93.312  0.00  0.00     0.210 HD
ENDBRANCH  27  29
ENDBRANCH  26  27
BRANCH  26  31
HETATM   31  C   UNK     0      15.237   3.756  93.854  0.00  0.00     0.266 C 
HETATM   32  O   UNK     0      15.285   4.975  94.004  0.00  0.00    -0.269 OA
HETATM   33  N   UNK     0      16.326   2.919  93.891  0.00  0.00    -0.236 N 
HETATM   34  H   UNK     0      16.336   1.927  93.684  0.00  0.00     0.197 HD
BRANCH  33  35
HETATM   35  O   UNK     0      17.563   3.537  94.121  0.00  0.00    -0.287 OA
HETATM   36  H   UNK     0      17.958   2.908  94.749  0.00  0.00     0.244 HD
ENDBRANCH  33  35
ENDBRANCH  26  31
ENDBRANCH  24  26
ENDBRANCH  19  22
ENDBRANCH  15  16
ENDBRANCH  11  14
ENDBRANCH   7   8
ENDBRANCH   2   7
TORSDOF 10
ENDMDL
