MODEL 1
REMARK VINA RESULT:      -7.0      0.000      0.000
REMARK  10 active torsions:
REMARK  status: ('A' for Active; 'I' for Inactive)
REMARK    1  A    between atoms: O_2  and  C_16 
REMARK    2  A    between atoms: N_5  and  C_9 
REMARK    3  A    between atoms: N_6  and  C_13 
REMARK       I    between atoms: N_6  and  C_22 
REMARK    4  A    between atoms: C_9  and  C_12 
REMARK    5  A    between atoms: C_13  and  C_16 
REMARK    6  A    between atoms: C_13  and  C_21 
REMARK    7  A    between atoms: C_19  and  C_24 
REMARK    8  A    between atoms: C_22  and  C_23 
REMARK    9  A    between atoms: C_27  and  C_30 
REMARK   10  A    between atoms: N_33  and  S_34 
ROOT
HETATM    1  C   UNL     1       5.646  11.031  89.575  1.00  0.00     0.056 A 
HETATM    2  C   UNL     1       6.998  11.200  89.362  1.00  0.00     0.005 A 
HETATM    3  C   UNL     1       5.117   9.850  90.051  1.00  0.00     0.005 A 
HETATM    4  C   UNL     1       7.351   8.934  90.120  1.00  0.00     0.042 A 
HETATM    5  C   UNL     1       7.861  10.140  89.637  1.00  0.00     0.008 A 
HETATM    6  C   UNL     1       5.980   8.789  90.327  1.00  0.00     0.008 A 
ENDROOT
BRANCH   1   7
HETATM    7  C   UNL     1       4.727  12.162  89.283  1.00  0.00     0.254 C 
HETATM    8  O   UNL     1       4.605  12.553  88.125  1.00  0.00    -0.268 OA
HETATM    9  N   UNL     1       4.041  12.684  90.371  1.00  0.00    -0.337 N 
HETATM   10  HN  UNL     1       4.173  12.293  91.297  1.00  0.00     0.164 HD
BRANCH   9  11
HETATM   11  C   UNL     1       3.097  13.766  90.247  1.00  0.00     0.172 C 
BRANCH  11  12
HETATM   12  C   UNL     1       1.845  13.562  91.109  1.00  0.00     0.136 C 
HETATM   13  C   UNL     1       1.991  12.401  92.087  1.00  0.00     0.034 C 
BRANCH  12  14
HETATM   14  O   UNL     1       1.572  14.755  91.844  1.00  0.00    -0.383 OA
HETATM   15  H   UNL     1       1.246  14.503  92.724  1.00  0.00     0.210 HD
ENDBRANCH  12  14
ENDBRANCH  11  12
BRANCH  11  16
HETATM   16  C   UNL     1       3.818  15.058  90.613  1.00  0.00     0.398 A 
HETATM   17  O   UNL     1       4.884  15.398  90.103  1.00  0.00    -0.136 OA
HETATM   18  N   UNL     1       4.922  15.625  91.605  1.00  0.00     0.142 N 
HETATM   19  HN  UNL     1       5.814  15.970  91.386  1.00  0.00     0.338 HD
BRANCH  18  20
HETATM   20  S   UNL     1       4.338  15.236  92.805  1.00  0.00     0.076 SA
HETATM   21  H   UNL     1       5.053  15.193  93.754  1.00  0.00     0.136 HD
ENDBRANCH  18  20
ENDBRANCH  11  16
ENDBRANCH   9  11
ENDBRANCH   1   7
BRANCH   4  22
HETATM   22  C   UNL     1       8.236   7.846  90.399  1.00  0.00    -0.059 C 
HETATM   23  C   UNL     1       8.979   6.931  90.635  1.00  0.00    -0.059 C 
BRANCH  23  24
HETATM   24  C   UNL     1       9.864   5.842  90.915  1.00  0.00     0.042 A 
HETATM   25  C   UNL     1      10.034   5.403  92.227  1.00  0.00     0.008 A 
HETATM   26  C   UNL     1      10.898   4.343  92.501  1.00  0.00    -0.002 A 
HETATM   27  C   UNL     1      11.589   3.720  91.460  1.00  0.00     0.011 A 
HETATM   28  C   UNL     1      11.416   4.160  90.148  1.00  0.00    -0.002 A 
HETATM   29  C   UNL     1      10.553   5.221  89.875  1.00  0.00     0.008 A 
BRANCH  27  30
HETATM   30  C   UNL     1      12.510   2.585  91.754  1.00  0.00     0.277 C 
BRANCH  30  31
HETATM   31  N   UNL     1      13.512   2.927  92.761  1.00  0.00     0.147 N 
HETATM   32  C   UNL     1      14.349   1.762  93.079  1.00  0.00     0.283 C 
HETATM   33  C   UNL     1      15.394   2.146  94.124  1.00  0.00     0.178 C 
HETATM   34  O   UNL     1      16.201   3.225  93.647  1.00  0.00    -0.350 OA
HETATM   35  C   UNL     1      15.398   4.372  93.366  1.00  0.00     0.178 C 
HETATM   36  C   UNL     1      14.353   4.042  92.304  1.00  0.00     0.283 C 
ENDBRANCH  30  31
ENDBRANCH  27  30
ENDBRANCH  23  24
ENDBRANCH   4  22
TORSDOF 10
ENDMDL
