MODEL 1
REMARK VINA RESULT:      -6.4      0.000      0.000
REMARK  12 active torsions:
REMARK  status: ('A' for Active; 'I' for Inactive)
REMARK    1  A    between atoms: O_2  and  C_16 
REMARK    2  A    between atoms: N_5  and  C_9 
REMARK    3  A    between atoms: N_6  and  C_13 
REMARK       I    between atoms: N_6  and  C_22 
REMARK    4  A    between atoms: C_9  and  C_12 
REMARK    5  A    between atoms: C_13  and  C_16 
REMARK    6  A    between atoms: C_13  and  C_21 
REMARK    7  A    between atoms: C_19  and  C_24 
REMARK    8  A    between atoms: C_21  and  C_33 
REMARK    9  A    between atoms: C_22  and  C_23 
REMARK   10  A    between atoms: C_27  and  C_30 
REMARK   11  A    between atoms: C_33  and  C_34 
REMARK   12  A    between atoms: C_34  and  C_35 
ROOT
HETATM    1  O   UNL     1      16.491   4.418  93.955  1.00  0.00    -0.350 OA
HETATM    2  N   UNL     1      14.664   2.680  92.636  1.00  0.00     0.147 N 
HETATM    3  C   UNL     1      14.601   4.138  92.459  1.00  0.00     0.283 C 
HETATM    4  C   UNL     1      15.213   2.357  93.960  1.00  0.00     0.283 C 
HETATM    5  C   UNL     1      15.989   4.742  92.658  1.00  0.00     0.178 C 
HETATM    6  C   UNL     1      16.585   3.003  94.124  1.00  0.00     0.178 C 
ENDROOT
BRANCH   2   7
HETATM    7  C   UNL     1      13.342   2.080  92.461  1.00  0.00     0.277 C 
BRANCH   7   8
HETATM    8  C   UNL     1      12.263   3.104  92.354  1.00  0.00     0.011 A 
HETATM    9  C   UNL     1      11.909   3.861  93.471  1.00  0.00    -0.002 A 
HETATM   10  C   UNL     1      10.898   4.817  93.373  1.00  0.00     0.008 A 
HETATM   11  C   UNL     1      10.245   5.017  92.158  1.00  0.00     0.042 A 
HETATM   12  C   UNL     1      10.598   4.262  91.042  1.00  0.00     0.008 A 
HETATM   13  C   UNL     1      11.608   3.305  91.139  1.00  0.00    -0.002 A 
BRANCH  11  14
HETATM   14  C   UNL     1       9.210   6.000  92.057  1.00  0.00    -0.059 C 
HETATM   15  C   UNL     1       8.340   6.825  91.971  1.00  0.00    -0.059 C 
BRANCH  15  16
HETATM   16  C   UNL     1       7.305   7.807  91.870  1.00  0.00     0.042 A 
HETATM   17  C   UNL     1       7.613   9.105  91.464  1.00  0.00     0.008 A 
HETATM   18  C   UNL     1       6.603  10.061  91.363  1.00  0.00     0.005 A 
HETATM   19  C   UNL     1       5.308   9.698  91.669  1.00  0.00     0.056 A 
HETATM   20  C   UNL     1       4.978   8.422  92.074  1.00  0.00     0.005 A 
HETATM   21  C   UNL     1       5.987   7.465  92.175  1.00  0.00     0.008 A 
BRANCH  19  22
HETATM   22  C   UNL     1       4.233  10.718  91.563  1.00  0.00     0.254 C 
HETATM   23  O   UNL     1       3.059  10.355  91.572  1.00  0.00    -0.268 OA
HETATM   24  N   UNL     1       4.652  12.039  91.485  1.00  0.00    -0.335 N 
HETATM   25  HN  UNL     1       5.640  12.265  91.509  1.00  0.00     0.164 HD
BRANCH  24  26
HETATM   26  C   UNL     1       3.730  13.142  91.403  1.00  0.00     0.166 C 
BRANCH  26  27
HETATM   27  C   UNL     1       3.532  13.853  92.748  1.00  0.00     0.138 C 
HETATM   28  C   UNL     1       2.175  13.550  93.374  1.00  0.00     0.034 C 
BRANCH  27  29
HETATM   29  O   UNL     1       4.560  13.454  93.654  1.00  0.00    -0.383 OA
HETATM   30  H   UNL     1       4.255  12.664  94.132  1.00  0.00     0.210 HD
ENDBRANCH  27  29
ENDBRANCH  26  27
BRANCH  26  31
HETATM   31  C   UNL     1       4.248  14.104  90.338  1.00  0.00     0.181 C 
HETATM   32  O   UNL     1       4.637  15.242  90.596  1.00  0.00    -0.294 OA
BRANCH  31  33
HETATM   33  C   UNL     1       5.404  13.427  89.426  1.00  0.00     0.138 C 
BRANCH  33  34
HETATM   34  C   UNL     1       4.667  13.063  88.277  1.00  0.00     0.208 C 
HETATM   35  O   UNL     1       4.949  13.649  87.256  1.00  0.00    -0.289 OA
BRANCH  34  36
HETATM   36  C   UNL     1       3.884  11.968  88.035  1.00  0.00     0.194 C 
HETATM   37  O   UNL     1       4.237  10.673  87.638  1.00  0.00    -0.185 OA
ENDBRANCH  34  36
ENDBRANCH  33  34
ENDBRANCH  31  33
ENDBRANCH  26  31
ENDBRANCH  24  26
ENDBRANCH  19  22
ENDBRANCH  15  16
ENDBRANCH  11  14
ENDBRANCH   7   8
ENDBRANCH   2   7
TORSDOF 12
ENDMDL
