MODEL 1
REMARK VINA RESULT:      -7.5      0.000      0.000
REMARK  9 active torsions:
REMARK  status: ('A' for Active; 'I' for Inactive)
REMARK    1  A    between atoms: N_3  and  C_6 
REMARK    2  A    between atoms: C_6  and  C_9 
REMARK    3  A    between atoms: C_14  and  C_17 
REMARK       I    between atoms: N_26  and  C_15 
REMARK    4  A    between atoms: C_15  and  C_16 
REMARK    5  A    between atoms: C_20  and  C_23 
REMARK    6  A    between atoms: OG1_24  and  CB_28 
REMARK    7  A    between atoms: N_26  and  CA_27 
REMARK    8  A    between atoms: CA_27  and  CB_28 
REMARK    9  A    between atoms: CA_27  and  C_30 
ROOT
HETATM    1  O   UNK A   0       1.822   7.962  87.785  1.00  0.00    -0.388 OA
HETATM    2  N   UNK A   0       4.636   7.551  87.670  1.00  0.00     0.096 N 
HETATM    3  C   UNK A   0       4.060   8.900  87.747  1.00  0.00     0.299 C 
HETATM    4  C   UNK A   0       3.698   6.640  86.999  1.00  0.00     0.299 C 
HETATM    5  C   UNK A   0       2.713   8.847  88.465  1.00  0.00     0.198 C 
HETATM    6  C   UNK A   0       2.361   6.640  87.733  1.00  0.00     0.198 C 
ENDROOT
BRANCH   2   7
HETATM    7  C   UNK A   0       5.922   7.576  86.976  1.00  0.00     0.311 C 
BRANCH   7   8
HETATM    8  C   UNK A   0       7.017   6.969  87.787  1.00  0.00    -0.030 A 
HETATM    9  C   UNK A   0       6.780   6.600  89.111  1.00  0.00     0.010 A 
HETATM   10  C   UNK A   0       7.804   6.034  89.871  1.00  0.00     0.021 A 
HETATM   11  C   UNK A   0       9.063   5.836  89.305  1.00  0.00     0.018 A 
HETATM   12  C   UNK A   0       9.300   6.204  87.982  1.00  0.00     0.021 A 
HETATM   13  C   UNK A   0       8.277   6.771  87.222  1.00  0.00     0.010 A 
BRANCH  11  14
HETATM   14  C   UNK A   0      10.112   5.254  90.084  1.00  0.00    -0.061 C 
HETATM   15  C   UNK A   0      10.994   4.764  90.739  1.00  0.00    -0.061 C 
BRANCH  15  16
HETATM   16  C   UNK A   0      12.042   4.181  91.517  1.00  0.00     0.018 A 
HETATM   17  C   UNK A   0      13.299   3.974  90.947  1.00  0.00     0.022 A 
HETATM   18  C   UNK A   0      14.322   3.408  91.707  1.00  0.00     0.018 A 
HETATM   19  C   UNK A   0      14.067   3.063  93.018  1.00  0.00     0.032 A 
HETATM   20  C   UNK A   0      12.834   3.257  93.603  1.00  0.00     0.018 A 
HETATM   21  C   UNK A   0      11.809   3.823  92.844  1.00  0.00     0.022 A 
BRANCH  19  22
HETATM   22  C   UNK A   0      15.157   2.458  93.826  1.00  0.00     0.252 C 
HETATM   23  O   UNK A   0      16.307   2.869  93.686  1.00  0.00    -0.268 OA
ENDBRANCH  19  22
ENDBRANCH  15  16
ENDBRANCH  11  14
ENDBRANCH   7   8
ENDBRANCH   2   7
TORSDOF 9
ENDMDL
