MODEL 1
REMARK VINA RESULT:      -6.1      0.000      0.000
REMARK  12 active torsions:
REMARK  status: ('A' for Active; 'I' for Inactive)
REMARK    1  A    between atoms: O_2  and  C_16 
REMARK    2  A    between atoms: N_5  and  C_9 
REMARK    3  A    between atoms: N_6  and  C_13 
REMARK       I    between atoms: N_6  and  C_22 
REMARK    4  A    between atoms: C_9  and  C_12 
REMARK    5  A    between atoms: C_13  and  C_16 
REMARK    6  A    between atoms: C_13  and  C_21 
REMARK    7  A    between atoms: C_19  and  C_24 
REMARK    8  A    between atoms: C_21  and  C_33 
REMARK    9  A    between atoms: C_22  and  C_23 
REMARK   10  A    between atoms: C_27  and  C_30 
REMARK   11  A    between atoms: C_33  and  C_34 
REMARK   12  A    between atoms: C_34  and  C_35 
ROOT
HETATM    1  O   UNL     1      16.778   3.611  93.891  1.00  0.00    -0.350 OA
HETATM    2  N   UNL     1      14.223   3.083  92.754  1.00  0.00     0.147 N 
HETATM    3  C   UNL     1      15.212   2.014  92.950  1.00  0.00     0.283 C 
HETATM    4  C   UNL     1      14.905   4.369  92.549  1.00  0.00     0.283 C 
HETATM    5  C   UNL     1      16.124   2.363  94.124  1.00  0.00     0.178 C 
HETATM    6  C   UNL     1      15.824   4.662  93.730  1.00  0.00     0.178 C 
ENDROOT
BRANCH   2   7
HETATM    7  C   UNL     1      13.344   2.776  91.628  1.00  0.00     0.277 C 
BRANCH   7   8
HETATM    8  C   UNL     1      12.149   3.666  91.579  1.00  0.00     0.011 A 
HETATM    9  C   UNL     1      11.792   4.288  90.382  1.00  0.00    -0.002 A 
HETATM   10  C   UNL     1      10.676   5.123  90.336  1.00  0.00     0.008 A 
HETATM   11  C   UNL     1       9.916   5.334  91.486  1.00  0.00     0.042 A 
HETATM   12  C   UNL     1      10.272   4.714  92.682  1.00  0.00     0.008 A 
HETATM   13  C   UNL     1      11.388   3.879  92.729  1.00  0.00    -0.002 A 
BRANCH  11  14
HETATM   14  C   UNL     1       8.770   6.189  91.438  1.00  0.00    -0.059 C 
HETATM   15  C   UNL     1       7.806   6.907  91.398  1.00  0.00    -0.059 C 
BRANCH  15  16
HETATM   16  C   UNL     1       6.661   7.761  91.351  1.00  0.00     0.042 A 
HETATM   17  C   UNL     1       5.886   7.824  90.192  1.00  0.00     0.008 A 
HETATM   18  C   UNL     1       4.767   8.655  90.147  1.00  0.00     0.005 A 
HETATM   19  C   UNL     1       4.447   9.403  91.261  1.00  0.00     0.056 A 
HETATM   20  C   UNL     1       5.196   9.358  92.418  1.00  0.00     0.005 A 
HETATM   21  C   UNL     1       6.316   8.528  92.464  1.00  0.00     0.008 A 
BRANCH  19  22
HETATM   22  C   UNL     1       3.256  10.290  91.212  1.00  0.00     0.254 C 
HETATM   23  O   UNL     1       2.169   9.817  90.889  1.00  0.00    -0.268 OA
HETATM   24  N   UNL     1       3.469  11.614  91.569  1.00  0.00    -0.335 N 
HETATM   25  HN  UNL     1       4.390  11.928  91.850  1.00  0.00     0.164 HD
BRANCH  24  26
HETATM   26  C   UNL     1       2.409  12.590  91.595  1.00  0.00     0.166 C 
BRANCH  26  27
HETATM   27  C   UNL     1       2.177  13.177  92.993  1.00  0.00     0.138 C 
HETATM   28  C   UNL     1       3.470  13.327  93.786  1.00  0.00     0.034 C 
BRANCH  27  29
HETATM   29  O   UNL     1       1.554  14.456  92.876  1.00  0.00    -0.383 OA
HETATM   30  H   UNL     1       0.759  14.461  93.436  1.00  0.00     0.210 HD
ENDBRANCH  27  29
ENDBRANCH  26  27
BRANCH  26  31
HETATM   31  C   UNL     1       2.755  13.680  90.586  1.00  0.00     0.181 C 
HETATM   32  O   UNL     1       2.114  14.725  90.482  1.00  0.00    -0.294 OA
BRANCH  31  33
HETATM   33  C   UNL     1       4.314  14.114  90.680  1.00  0.00     0.138 C 
BRANCH  33  34
HETATM   34  C   UNL     1       4.676  14.131  89.315  1.00  0.00     0.208 C 
HETATM   35  O   UNL     1       4.975  15.209  88.856  1.00  0.00    -0.289 OA
BRANCH  34  36
HETATM   36  C   UNL     1       5.028  13.108  88.478  1.00  0.00     0.194 C 
HETATM   37  O   UNL     1       5.947  12.068  88.657  1.00  0.00    -0.185 OA
ENDBRANCH  34  36
ENDBRANCH  33  34
ENDBRANCH  31  33
ENDBRANCH  26  31
ENDBRANCH  24  26
ENDBRANCH  19  22
ENDBRANCH  15  16
ENDBRANCH  11  14
ENDBRANCH   7   8
ENDBRANCH   2   7
TORSDOF 12
ENDMDL
