MODEL 1
REMARK VINA RESULT:      -4.5      0.000      0.000
REMARK  14 active torsions:
REMARK  status: ('A' for Active; 'I' for Inactive)
REMARK    1  A    between atoms: O_2  and  C_18 
REMARK    2  A    between atoms: C_5  and  C_8 
REMARK    3  A    between atoms: C_5  and  O_35 
REMARK    4  A    between atoms: C_5  and  C_36 
REMARK    5  A    between atoms: N_6  and  C_11 
REMARK    6  A    between atoms: N_7  and  C_15 
REMARK       I    between atoms: N_7  and  C_24 
REMARK    7  A    between atoms: C_8  and  C_23 
REMARK    8  A    between atoms: C_11  and  C_14 
REMARK    9  A    between atoms: C_15  and  C_18 
REMARK   10  A    between atoms: C_15  and  C_23 
REMARK   11  A    between atoms: C_21  and  C_26 
REMARK   12  A    between atoms: C_24  and  C_25 
REMARK   13  A    between atoms: C_29  and  C_32 
REMARK   14  A    between atoms: C_36  and  O_39 
ROOT
HETATM    1  O   UNL     1       3.281  14.778  93.887  1.00  0.00    -0.350 OA
HETATM    2  N   UNL     1       2.963  14.679  91.060  1.00  0.00     0.147 N 
HETATM    3  C   UNL     1       2.024  13.998  91.963  1.00  0.00     0.283 C 
HETATM    4  C   UNL     1       4.292  14.757  91.682  1.00  0.00     0.283 C 
HETATM    5  C   UNL     1       1.978  14.726  93.304  1.00  0.00     0.178 C 
HETATM    6  C   UNL     1       4.193  15.465  93.029  1.00  0.00     0.178 C 
ENDROOT
BRANCH   2   7
HETATM    7  C   UNL     1       3.031  13.992  89.771  1.00  0.00     0.277 C 
BRANCH   7   8
HETATM    8  C   UNL     1       3.971  12.835  89.793  1.00  0.00     0.011 A 
HETATM    9  C   UNL     1       3.688  11.723  90.587  1.00  0.00    -0.002 A 
HETATM   10  C   UNL     1       4.567  10.641  90.610  1.00  0.00     0.008 A 
HETATM   11  C   UNL     1       5.728  10.671  89.838  1.00  0.00     0.042 A 
HETATM   12  C   UNL     1       6.012  11.781  89.045  1.00  0.00     0.008 A 
HETATM   13  C   UNL     1       5.133  12.863  89.022  1.00  0.00    -0.002 A 
BRANCH  11  14
HETATM   14  C   UNL     1       6.630   9.559  89.860  1.00  0.00    -0.059 C 
HETATM   15  C   UNL     1       7.387   8.626  89.880  1.00  0.00    -0.059 C 
BRANCH  15  16
HETATM   16  C   UNL     1       8.287   7.516  89.903  1.00  0.00     0.042 A 
HETATM   17  C   UNL     1       8.287   6.597  88.852  1.00  0.00     0.008 A 
HETATM   18  C   UNL     1       9.168   5.515  88.874  1.00  0.00     0.005 A 
HETATM   19  C   UNL     1      10.028   5.377  89.943  1.00  0.00     0.056 A 
HETATM   20  C   UNL     1      10.047   6.271  90.993  1.00  0.00     0.005 A 
HETATM   21  C   UNL     1       9.167   7.353  90.973  1.00  0.00     0.008 A 
BRANCH  19  22
HETATM   22  C   UNL     1      10.964   4.223  89.966  1.00  0.00     0.254 C 
HETATM   23  O   UNL     1      10.838   3.332  89.130  1.00  0.00    -0.268 OA
HETATM   24  N   UNL     1      11.948   4.258  90.944  1.00  0.00    -0.335 N 
HETATM   25  HN  UNL     1      12.006   5.040  91.586  1.00  0.00     0.164 HD
BRANCH  24  26
HETATM   26  C   UNL     1      12.944   3.226  91.080  1.00  0.00     0.169 C 
BRANCH  26  27
HETATM   27  C   UNL     1      14.361   3.724  90.770  1.00  0.00     0.138 C 
HETATM   28  C   UNL     1      14.973   3.028  89.559  1.00  0.00     0.034 C 
BRANCH  27  29
HETATM   29  O   UNL     1      14.331   5.131  90.529  1.00  0.00    -0.383 OA
HETATM   30  H   UNL     1      13.506   5.486  90.901  1.00  0.00     0.210 HD
ENDBRANCH  27  29
ENDBRANCH  26  27
BRANCH  26  31
HETATM   31  C   UNL     1      12.849   2.671  92.497  1.00  0.00     0.194 C 
HETATM   32  O   UNL     1      12.136   1.715  92.796  1.00  0.00    -0.289 OA
BRANCH  31  33
HETATM   33  C   UNL     1      13.616   3.384  93.386  1.00  0.00     0.053 C 
BRANCH  33  34
HETATM   34  C   UNL     1      14.547   2.639  94.124  1.00  0.00     0.220 C 
BRANCH  34  35
HETATM   35  O   UNL     1      14.474   1.455  93.743  1.00  0.00    -0.371 OA
HETATM   36  H   UNL     1      14.531   1.611  92.813  1.00  0.00     0.211 HD
ENDBRANCH  34  35
BRANCH  34  37
HETATM   37  C   UNL     1      15.856   3.145  94.047  1.00  0.00     0.185 C 
HETATM   38  O   UNL     1      15.232   4.311  93.996  1.00  0.00    -0.647 OA
BRANCH  37  39
HETATM   39  O   UNL     1      16.964   2.700  94.001  1.00  0.00    -0.774 OA
HETATM   40  H   UNL     1      17.553   3.132  93.134  1.00  0.00     0.167 HD
ENDBRANCH  37  39
ENDBRANCH  34  37
ENDBRANCH  33  34
ENDBRANCH  31  33
ENDBRANCH  26  31
ENDBRANCH  24  26
ENDBRANCH  19  22
ENDBRANCH  15  16
ENDBRANCH  11  14
ENDBRANCH   7   8
ENDBRANCH   2   7
TORSDOF 14
ENDMDL
