MODEL 1
REMARK VINA RESULT:      -5.9      0.000      0.000
REMARK  12 active torsions:
REMARK  status: ('A' for Active; 'I' for Inactive)
REMARK    1  A    between atoms: O_2  and  C_16 
REMARK    2  A    between atoms: N_5  and  C_9 
REMARK    3  A    between atoms: N_6  and  C_13 
REMARK       I    between atoms: N_6  and  C_22 
REMARK    4  A    between atoms: C_9  and  C_12 
REMARK    5  A    between atoms: C_13  and  C_16 
REMARK    6  A    between atoms: C_13  and  C_21 
REMARK    7  A    between atoms: C_19  and  C_24 
REMARK    8  A    between atoms: C_21  and  C_33 
REMARK    9  A    between atoms: C_22  and  C_23 
REMARK   10  A    between atoms: C_27  and  C_30 
REMARK   11  A    between atoms: C_33  and  C_34 
REMARK   12  A    between atoms: C_34  and  C_35 
ROOT
HETATM    1  O   UNL     1      16.539   3.261  93.758  1.00  0.00    -0.350 OA
HETATM    2  N   UNL     1      13.913   2.894  92.724  1.00  0.00     0.147 N 
HETATM    3  C   UNL     1      14.793   1.752  93.007  1.00  0.00     0.283 C 
HETATM    4  C   UNL     1      14.715   4.076  92.382  1.00  0.00     0.283 C 
HETATM    5  C   UNL     1      15.768   2.115  94.124  1.00  0.00     0.178 C 
HETATM    6  C   UNL     1      15.692   4.384  93.512  1.00  0.00     0.178 C 
ENDROOT
BRANCH   2   7
HETATM    7  C   UNL     1      12.976   2.572  91.649  1.00  0.00     0.277 C 
BRANCH   7   8
HETATM    8  C   UNL     1      11.804   3.492  91.622  1.00  0.00     0.011 A 
HETATM    9  C   UNL     1      11.285   3.994  92.816  1.00  0.00    -0.002 A 
HETATM   10  C   UNL     1      10.186   4.853  92.792  1.00  0.00     0.008 A 
HETATM   11  C   UNL     1       9.609   5.211  91.574  1.00  0.00     0.042 A 
HETATM   12  C   UNL     1      10.127   4.711  90.381  1.00  0.00     0.008 A 
HETATM   13  C   UNL     1      11.225   3.851  90.405  1.00  0.00    -0.002 A 
BRANCH  11  14
HETATM   14  C   UNL     1       8.484   6.095  91.550  1.00  0.00    -0.059 C 
HETATM   15  C   UNL     1       7.538   6.837  91.529  1.00  0.00    -0.059 C 
BRANCH  15  16
HETATM   16  C   UNL     1       6.413   7.719  91.504  1.00  0.00     0.042 A 
HETATM   17  C   UNL     1       6.378   8.827  92.350  1.00  0.00     0.008 A 
HETATM   18  C   UNL     1       5.282   9.689  92.324  1.00  0.00     0.005 A 
HETATM   19  C   UNL     1       4.246   9.424  91.453  1.00  0.00     0.056 A 
HETATM   20  C   UNL     1       4.256   8.334  90.607  1.00  0.00     0.005 A 
HETATM   21  C   UNL     1       5.352   7.472  90.633  1.00  0.00     0.008 A 
BRANCH  19  22
HETATM   22  C   UNL     1       3.077  10.341  91.427  1.00  0.00     0.254 C 
HETATM   23  O   UNL     1       1.949   9.871  91.306  1.00  0.00    -0.268 OA
HETATM   24  N   UNL     1       3.361  11.692  91.571  1.00  0.00    -0.335 N 
HETATM   25  HN  UNL     1       4.317  12.005  91.692  1.00  0.00     0.164 HD
BRANCH  24  26
HETATM   26  C   UNL     1       2.334  12.702  91.590  1.00  0.00     0.166 C 
BRANCH  26  27
HETATM   27  C   UNL     1       2.206  13.392  92.954  1.00  0.00     0.138 C 
HETATM   28  C   UNL     1       1.189  12.708  93.861  1.00  0.00     0.034 C 
BRANCH  27  29
HETATM   29  O   UNL     1       3.476  13.401  93.606  1.00  0.00    -0.383 OA
HETATM   30  H   UNL     1       3.528  12.620  94.181  1.00  0.00     0.210 HD
ENDBRANCH  27  29
ENDBRANCH  26  27
BRANCH  26  31
HETATM   31  C   UNL     1       2.650  13.708  90.487  1.00  0.00     0.181 C 
HETATM   32  O   UNL     1       1.934  14.677  90.240  1.00  0.00    -0.294 OA
BRANCH  31  33
HETATM   33  C   UNL     1       4.161  14.282  90.610  1.00  0.00     0.138 C 
BRANCH  33  34
HETATM   34  C   UNL     1       4.587  14.221  89.265  1.00  0.00     0.208 C 
HETATM   35  O   UNL     1       5.266  15.144  88.879  1.00  0.00    -0.289 OA
BRANCH  34  36
HETATM   36  C   UNL     1       4.614  13.169  88.390  1.00  0.00     0.194 C 
HETATM   37  O   UNL     1       4.915  11.820  88.607  1.00  0.00    -0.185 OA
ENDBRANCH  34  36
ENDBRANCH  33  34
ENDBRANCH  31  33
ENDBRANCH  26  31
ENDBRANCH  24  26
ENDBRANCH  19  22
ENDBRANCH  15  16
ENDBRANCH  11  14
ENDBRANCH   7   8
ENDBRANCH   2   7
TORSDOF 12
ENDMDL
