MODEL 1
REMARK VINA RESULT:      -6.7      0.000      0.000
REMARK  10 active torsions:
REMARK  status: ('A' for Active; 'I' for Inactive)
REMARK    1  A    between atoms: O_2  and  C_16 
REMARK    2  A    between atoms: N_5  and  C_9 
REMARK    3  A    between atoms: N_6  and  C_13 
REMARK       I    between atoms: N_6  and  C_22 
REMARK    4  A    between atoms: C_9  and  C_12 
REMARK    5  A    between atoms: C_13  and  C_16 
REMARK    6  A    between atoms: C_13  and  C_21 
REMARK    7  A    between atoms: C_19  and  C_24 
REMARK    8  A    between atoms: C_22  and  C_23 
REMARK    9  A    between atoms: C_27  and  C_30 
REMARK   10  A    between atoms: N_33  and  S_34 
ROOT
HETATM    1  C   UNL     1       5.663  11.297  90.332  1.00  0.00     0.056 A 
HETATM    2  C   UNL     1       5.371  10.384  91.325  1.00  0.00     0.005 A 
HETATM    3  C   UNL     1       6.773  11.173  89.522  1.00  0.00     0.005 A 
HETATM    4  C   UNL     1       7.357   9.153  90.711  1.00  0.00     0.042 A 
HETATM    5  C   UNL     1       6.227   9.300  91.517  1.00  0.00     0.008 A 
HETATM    6  C   UNL     1       7.630  10.090  89.714  1.00  0.00     0.008 A 
ENDROOT
BRANCH   1   7
HETATM    7  C   UNL     1       4.750  12.450  90.127  1.00  0.00     0.254 C 
HETATM    8  O   UNL     1       4.693  12.980  89.020  1.00  0.00    -0.268 OA
HETATM    9  N   UNL     1       3.995  12.832  91.227  1.00  0.00    -0.337 N 
HETATM   10  HN  UNL     1       4.077  12.331  92.104  1.00  0.00     0.164 HD
BRANCH   9  11
HETATM   11  C   UNL     1       3.047  13.916  91.180  1.00  0.00     0.172 C 
BRANCH  11  12
HETATM   12  C   UNL     1       1.712  13.568  91.850  1.00  0.00     0.136 C 
HETATM   13  C   UNL     1       1.790  12.287  92.674  1.00  0.00     0.034 C 
BRANCH  12  14
HETATM   14  O   UNL     1       1.310  14.642  92.700  1.00  0.00    -0.383 OA
HETATM   15  H   UNL     1       1.205  15.439  92.154  1.00  0.00     0.210 HD
ENDBRANCH  12  14
ENDBRANCH  11  12
BRANCH  11  16
HETATM   16  C   UNL     1       3.696  15.131  91.834  1.00  0.00     0.398 A 
HETATM   17  O   UNL     1       4.752  15.621  91.438  1.00  0.00    -0.136 OA
HETATM   18  N   UNL     1       4.752  15.521  92.955  1.00  0.00     0.142 N 
HETATM   19  HN  UNL     1       5.629  15.945  92.839  1.00  0.00     0.338 HD
BRANCH  18  20
HETATM   20  S   UNL     1       4.167  14.857  94.027  1.00  0.00     0.076 SA
HETATM   21  H   UNL     1       3.979  15.497  95.010  1.00  0.00     0.136 HD
ENDBRANCH  18  20
ENDBRANCH  11  16
ENDBRANCH   9  11
ENDBRANCH   1   7
BRANCH   4  22
HETATM   22  C   UNL     1       8.236   8.043  90.909  1.00  0.00    -0.059 C 
HETATM   23  C   UNL     1       8.975   7.110  91.077  1.00  0.00    -0.059 C 
BRANCH  23  24
HETATM   24  C   UNL     1       9.854   5.999  91.276  1.00  0.00     0.042 A 
HETATM   25  C   UNL     1      10.251   5.648  92.566  1.00  0.00     0.008 A 
HETATM   26  C   UNL     1      11.110   4.566  92.760  1.00  0.00    -0.002 A 
HETATM   27  C   UNL     1      11.569   3.835  91.664  1.00  0.00     0.011 A 
HETATM   28  C   UNL     1      11.171   4.188  90.374  1.00  0.00    -0.002 A 
HETATM   29  C   UNL     1      10.313   5.270  90.181  1.00  0.00     0.008 A 
BRANCH  27  30
HETATM   30  C   UNL     1      12.485   2.677  91.873  1.00  0.00     0.277 C 
BRANCH  30  31
HETATM   31  N   UNL     1      13.533   2.965  92.851  1.00  0.00     0.147 N 
HETATM   32  C   UNL     1      14.347   1.769  93.109  1.00  0.00     0.283 C 
HETATM   33  C   UNL     1      15.439   2.097  94.124  1.00  0.00     0.178 C 
HETATM   34  O   UNL     1      16.259   3.164  93.645  1.00  0.00    -0.350 OA
HETATM   35  C   UNL     1      15.480   4.340  93.421  1.00  0.00     0.178 C 
HETATM   36  C   UNL     1      14.389   4.067  92.390  1.00  0.00     0.283 C 
ENDBRANCH  30  31
ENDBRANCH  27  30
ENDBRANCH  23  24
ENDBRANCH   4  22
TORSDOF 10
ENDMDL
