MODEL 1
REMARK VINA RESULT:      -7.5      0.000      0.000
REMARK  9 active torsions:
REMARK  status: ('A' for Active; 'I' for Inactive)
REMARK    1  A    between atoms: N_3  and  C_6 
REMARK    2  A    between atoms: C_6  and  C_9 
REMARK    3  A    between atoms: C_14  and  C_17 
REMARK       I    between atoms: N_26  and  C_15 
REMARK    4  A    between atoms: C_15  and  C_16 
REMARK    5  A    between atoms: C_20  and  C_23 
REMARK    6  A    between atoms: OG1_24  and  CB_28 
REMARK    7  A    between atoms: N_26  and  CA_27 
REMARK    8  A    between atoms: CA_27  and  CB_28 
REMARK    9  A    between atoms: CA_27  and  C_30 
ROOT
HETATM    1  O   UNK A   0       1.913   8.133  87.800  1.00  0.00    -0.388 OA
HETATM    2  N   UNK A   0       4.707   7.610  87.660  1.00  0.00     0.096 N 
HETATM    3  C   UNK A   0       4.187   8.981  87.751  1.00  0.00     0.299 C 
HETATM    4  C   UNK A   0       3.728   6.743  86.990  1.00  0.00     0.299 C 
HETATM    5  C   UNK A   0       2.845   8.977  88.480  1.00  0.00     0.198 C 
HETATM    6  C   UNK A   0       2.398   6.792  87.734  1.00  0.00     0.198 C 
ENDROOT
BRANCH   2   7
HETATM    7  C   UNK A   0       5.988   7.588  86.956  1.00  0.00     0.311 C 
BRANCH   7   8
HETATM    8  C   UNK A   0       7.075   6.974  87.772  1.00  0.00    -0.030 A 
HETATM    9  C   UNK A   0       6.885   6.763  89.138  1.00  0.00     0.010 A 
HETATM   10  C   UNK A   0       7.901   6.190  89.903  1.00  0.00     0.021 A 
HETATM   11  C   UNK A   0       9.106   5.828  89.300  1.00  0.00     0.018 A 
HETATM   12  C   UNK A   0       9.296   6.038  87.936  1.00  0.00     0.021 A 
HETATM   13  C   UNK A   0       8.280   6.611  87.171  1.00  0.00     0.010 A 
BRANCH  11  14
HETATM   14  C   UNK A   0      10.147   5.239  90.085  1.00  0.00    -0.061 C 
HETATM   15  C   UNK A   0      11.023   4.744  90.743  1.00  0.00    -0.061 C 
BRANCH  15  16
HETATM   16  C   UNK A   0      12.065   4.156  91.526  1.00  0.00     0.018 A 
HETATM   17  C   UNK A   0      11.815   3.779  92.846  1.00  0.00     0.022 A 
HETATM   18  C   UNK A   0      12.831   3.203  93.609  1.00  0.00     0.018 A 
HETATM   19  C   UNK A   0      14.071   3.016  93.036  1.00  0.00     0.032 A 
HETATM   20  C   UNK A   0      14.343   3.381  91.734  1.00  0.00     0.018 A 
HETATM   21  C   UNK A   0      13.328   3.957  90.970  1.00  0.00     0.022 A 
BRANCH  19  22
HETATM   22  C   UNK A   0      15.153   2.404  93.850  1.00  0.00     0.252 C 
HETATM   23  O   UNK A   0      16.305   2.812  93.721  1.00  0.00    -0.268 OA
ENDBRANCH  19  22
ENDBRANCH  15  16
ENDBRANCH  11  14
ENDBRANCH   7   8
ENDBRANCH   2   7
TORSDOF 9
ENDMDL
