MODEL 1
REMARK VINA RESULT:      -6.4      0.000      0.000
REMARK  14 active torsions:
REMARK  status: ('A' for Active; 'I' for Inactive)
REMARK    1  A    between atoms: O_2  and  C_18 
REMARK    2  A    between atoms: C_5  and  C_8 
REMARK    3  A    between atoms: C_5  and  O_35 
REMARK    4  A    between atoms: C_5  and  C_36 
REMARK    5  A    between atoms: N_6  and  C_11 
REMARK    6  A    between atoms: N_7  and  C_15 
REMARK       I    between atoms: N_7  and  C_24 
REMARK    7  A    between atoms: C_8  and  C_23 
REMARK    8  A    between atoms: C_11  and  C_14 
REMARK    9  A    between atoms: C_15  and  C_18 
REMARK   10  A    between atoms: C_15  and  C_23 
REMARK   11  A    between atoms: C_21  and  C_26 
REMARK   12  A    between atoms: C_24  and  C_25 
REMARK   13  A    between atoms: C_29  and  C_32 
REMARK   14  A    between atoms: C_36  and  O_39 
ROOT
HETATM    1  O   UNL     1      16.154   4.516  93.972  1.00  0.00    -0.350 OA
HETATM    2  N   UNL     1      14.564   2.775  92.377  1.00  0.00     0.147 N 
HETATM    3  C   UNL     1      14.494   4.235  92.224  1.00  0.00     0.283 C 
HETATM    4  C   UNL     1      14.933   2.431  93.757  1.00  0.00     0.283 C 
HETATM    5  C   UNL     1      15.827   4.862  92.624  1.00  0.00     0.178 C 
HETATM    6  C   UNL     1      16.254   3.100  94.122  1.00  0.00     0.178 C 
ENDROOT
BRANCH   2   7
HETATM    7  C   UNL     1      13.292   2.155  92.009  1.00  0.00     0.277 C 
BRANCH   7   8
HETATM    8  C   UNL     1      12.180   3.143  91.928  1.00  0.00     0.011 A 
HETATM    9  C   UNL     1      11.685   3.535  90.684  1.00  0.00    -0.002 A 
HETATM   10  C   UNL     1      10.645   4.462  90.607  1.00  0.00     0.008 A 
HETATM   11  C   UNL     1      10.100   4.995  91.775  1.00  0.00     0.042 A 
HETATM   12  C   UNL     1      10.593   4.604  93.018  1.00  0.00     0.008 A 
HETATM   13  C   UNL     1      11.633   3.678  93.095  1.00  0.00    -0.002 A 
BRANCH  11  14
HETATM   14  C   UNL     1       9.032   5.944  91.697  1.00  0.00    -0.059 C 
HETATM   15  C   UNL     1       8.134   6.741  91.630  1.00  0.00    -0.059 C 
BRANCH  15  16
HETATM   16  C   UNL     1       7.067   7.688  91.552  1.00  0.00     0.042 A 
HETATM   17  C   UNL     1       5.799   7.276  91.141  1.00  0.00     0.008 A 
HETATM   18  C   UNL     1       4.757   8.200  91.067  1.00  0.00     0.005 A 
HETATM   19  C   UNL     1       5.005   9.514  91.406  1.00  0.00     0.056 A 
HETATM   20  C   UNL     1       6.249   9.946  91.814  1.00  0.00     0.005 A 
HETATM   21  C   UNL     1       7.292   9.023  91.888  1.00  0.00     0.008 A 
BRANCH  19  22
HETATM   22  C   UNL     1       3.895  10.498  91.325  1.00  0.00     0.254 C 
HETATM   23  O   UNL     1       2.797  10.132  90.912  1.00  0.00    -0.268 OA
HETATM   24  N   UNL     1       4.189  11.784  91.758  1.00  0.00    -0.335 N 
HETATM   25  HN  UNL     1       5.113  12.007  92.110  1.00  0.00     0.164 HD
BRANCH  24  26
HETATM   26  C   UNL     1       3.213  12.843  91.764  1.00  0.00     0.169 C 
BRANCH  26  27
HETATM   27  C   UNL     1       3.265  13.692  93.041  1.00  0.00     0.138 C 
HETATM   28  C   UNL     1       4.408  13.286  93.965  1.00  0.00     0.034 C 
BRANCH  27  29
HETATM   29  O   UNL     1       3.417  15.068  92.693  1.00  0.00    -0.383 OA
HETATM   30  H   UNL     1       3.109  15.187  91.779  1.00  0.00     0.210 HD
ENDBRANCH  27  29
ENDBRANCH  26  27
BRANCH  26  31
HETATM   31  C   UNL     1       3.443  13.696  90.521  1.00  0.00     0.194 C 
HETATM   32  O   UNL     1       2.547  14.335  89.972  1.00  0.00    -0.289 OA
BRANCH  31  33
HETATM   33  C   UNL     1       4.742  13.630  90.079  1.00  0.00     0.053 C 
BRANCH  33  34
HETATM   34  C   UNL     1       4.910  13.546  88.690  1.00  0.00     0.220 C 
BRANCH  34  35
HETATM   35  O   UNL     1       6.089  13.854  88.430  1.00  0.00    -0.371 OA
HETATM   36  H   UNL     1       6.229  13.251  87.716  1.00  0.00     0.211 HD
ENDBRANCH  34  35
BRANCH  34  37
HETATM   37  C   UNL     1       4.556  12.294  88.157  1.00  0.00     0.185 C 
HETATM   38  O   UNL     1       5.652  11.896  88.784  1.00  0.00    -0.647 OA
BRANCH  37  39
HETATM   39  O   UNL     1       3.701  11.857  87.447  1.00  0.00    -0.774 OA
HETATM   40  H   UNL     1       4.105  11.588  86.422  1.00  0.00     0.167 HD
ENDBRANCH  37  39
ENDBRANCH  34  37
ENDBRANCH  33  34
ENDBRANCH  31  33
ENDBRANCH  26  31
ENDBRANCH  24  26
ENDBRANCH  19  22
ENDBRANCH  15  16
ENDBRANCH  11  14
ENDBRANCH   7   8
ENDBRANCH   2   7
TORSDOF 14
ENDMDL
MODEL 2
REMARK VINA RESULT:      -6.3      1.056      1.449
REMARK  14 active torsions:
REMARK  status: ('A' for Active; 'I' for Inactive)
REMARK    1  A    between atoms: O_2  and  C_18 
REMARK    2  A    between atoms: C_5  and  C_8 
REMARK    3  A    between atoms: C_5  and  O_35 
REMARK    4  A    between atoms: C_5  and  C_36 
REMARK    5  A    between atoms: N_6  and  C_11 
REMARK    6  A    between atoms: N_7  and  C_15 
REMARK       I    between atoms: N_7  and  C_24 
REMARK    7  A    between atoms: C_8  and  C_23 
REMARK    8  A    between atoms: C_11  and  C_14 
REMARK    9  A    between atoms: C_15  and  C_18 
REMARK   10  A    between atoms: C_15  and  C_23 
REMARK   11  A    between atoms: C_21  and  C_26 
REMARK   12  A    between atoms: C_24  and  C_25 
REMARK   13  A    between atoms: C_29  and  C_32 
REMARK   14  A    between atoms: C_36  and  O_39 
ROOT
HETATM    1  O   UNL     1      16.318   4.395  94.050  1.00  0.00    -0.350 OA
HETATM    2  N   UNL     1      14.583   2.648  92.622  1.00  0.00     0.147 N 
HETATM    3  C   UNL     1      14.438   4.108  92.542  1.00  0.00     0.283 C 
HETATM    4  C   UNL     1      15.157   2.269  93.920  1.00  0.00     0.283 C 
HETATM    5  C   UNL     1      15.790   4.776  92.778  1.00  0.00     0.178 C 
HETATM    6  C   UNL     1      16.491   2.980  94.124  1.00  0.00     0.178 C 
ENDROOT
BRANCH   2   7
HETATM    7  C   UNL     1      13.297   1.987  92.409  1.00  0.00     0.277 C 
BRANCH   7   8
HETATM    8  C   UNL     1      12.159   2.950  92.398  1.00  0.00     0.011 A 
HETATM    9  C   UNL     1      11.306   3.007  91.295  1.00  0.00    -0.002 A 
HETATM   10  C   UNL     1      10.242   3.909  91.282  1.00  0.00     0.008 A 
HETATM   11  C   UNL     1      10.031   4.751  92.373  1.00  0.00     0.042 A 
HETATM   12  C   UNL     1      10.881   4.695  93.475  1.00  0.00     0.008 A 
HETATM   13  C   UNL     1      11.946   3.793  93.488  1.00  0.00    -0.002 A 
BRANCH  11  14
HETATM   14  C   UNL     1       8.938   5.675  92.361  1.00  0.00    -0.059 C 
HETATM   15  C   UNL     1       8.020   6.452  92.351  1.00  0.00    -0.059 C 
BRANCH  15  16
HETATM   16  C   UNL     1       6.929   7.375  92.338  1.00  0.00     0.042 A 
HETATM   17  C   UNL     1       6.856   8.381  93.303  1.00  0.00     0.008 A 
HETATM   18  C   UNL     1       5.793   9.283  93.288  1.00  0.00     0.005 A 
HETATM   19  C   UNL     1       4.828   9.161  92.310  1.00  0.00     0.056 A 
HETATM   20  C   UNL     1       4.877   8.176  91.346  1.00  0.00     0.005 A 
HETATM   21  C   UNL     1       5.940   7.273  91.360  1.00  0.00     0.008 A 
BRANCH  19  22
HETATM   22  C   UNL     1       3.694  10.122  92.296  1.00  0.00     0.254 C 
HETATM   23  O   UNL     1       2.634   9.805  92.830  1.00  0.00    -0.268 OA
HETATM   24  N   UNL     1       3.940  11.343  91.685  1.00  0.00    -0.335 N 
HETATM   25  HN  UNL     1       4.850  11.544  91.287  1.00  0.00     0.164 HD
BRANCH  24  26
HETATM   26  C   UNL     1       2.949  12.387  91.613  1.00  0.00     0.169 C 
BRANCH  26  27
HETATM   27  C   UNL     1       3.035  13.369  92.788  1.00  0.00     0.138 C 
HETATM   28  C   UNL     1       4.364  14.113  92.831  1.00  0.00     0.034 C 
BRANCH  27  29
HETATM   29  O   UNL     1       1.974  14.320  92.694  1.00  0.00    -0.383 OA
HETATM   30  H   UNL     1       1.341  14.005  92.027  1.00  0.00     0.210 HD
ENDBRANCH  27  29
ENDBRANCH  26  27
BRANCH  26  31
HETATM   31  C   UNL     1       3.124  13.104  90.278  1.00  0.00     0.194 C 
HETATM   32  O   UNL     1       2.486  14.108  89.968  1.00  0.00    -0.289 OA
BRANCH  31  33
HETATM   33  C   UNL     1       4.039  12.475  89.467  1.00  0.00     0.053 C 
BRANCH  33  34
HETATM   34  C   UNL     1       3.521  11.884  88.307  1.00  0.00     0.220 C 
BRANCH  34  35
HETATM   35  O   UNL     1       4.314  12.115  87.375  1.00  0.00    -0.371 OA
HETATM   36  H   UNL     1       3.916  11.562  86.721  1.00  0.00     0.211 HD
ENDBRANCH  34  35
BRANCH  34  37
HETATM   37  C   UNL     1       3.251  10.512  88.450  1.00  0.00     0.185 C 
HETATM   38  O   UNL     1       4.168  10.396  87.503  1.00  0.00    -0.647 OA
BRANCH  37  39
HETATM   39  O   UNL     1       2.510   9.829  89.091  1.00  0.00    -0.774 OA
HETATM   40  H   UNL     1       2.168   8.919  88.507  1.00  0.00     0.167 HD
ENDBRANCH  37  39
ENDBRANCH  34  37
ENDBRANCH  33  34
ENDBRANCH  31  33
ENDBRANCH  26  31
ENDBRANCH  24  26
ENDBRANCH  19  22
ENDBRANCH  15  16
ENDBRANCH  11  14
ENDBRANCH   7   8
ENDBRANCH   2   7
TORSDOF 14
ENDMDL
MODEL 3
REMARK VINA RESULT:      -5.2      2.915     12.198
REMARK  14 active torsions:
REMARK  status: ('A' for Active; 'I' for Inactive)
REMARK    1  A    between atoms: O_2  and  C_18 
REMARK    2  A    between atoms: C_5  and  C_8 
REMARK    3  A    between atoms: C_5  and  O_35 
REMARK    4  A    between atoms: C_5  and  C_36 
REMARK    5  A    between atoms: N_6  and  C_11 
REMARK    6  A    between atoms: N_7  and  C_15 
REMARK       I    between atoms: N_7  and  C_24 
REMARK    7  A    between atoms: C_8  and  C_23 
REMARK    8  A    between atoms: C_11  and  C_14 
REMARK    9  A    between atoms: C_15  and  C_18 
REMARK   10  A    between atoms: C_15  and  C_23 
REMARK   11  A    between atoms: C_21  and  C_26 
REMARK   12  A    between atoms: C_24  and  C_25 
REMARK   13  A    between atoms: C_29  and  C_32 
REMARK   14  A    between atoms: C_36  and  O_39 
ROOT
HETATM    1  O   UNL     1       3.407  14.688  93.952  1.00  0.00    -0.350 OA
HETATM    2  N   UNL     1       2.777  14.599  91.178  1.00  0.00     0.147 N 
HETATM    3  C   UNL     1       2.092  13.734  92.149  1.00  0.00     0.283 C 
HETATM    4  C   UNL     1       4.134  14.907  91.648  1.00  0.00     0.283 C 
HETATM    5  C   UNL     1       2.075  14.408  93.519  1.00  0.00     0.178 C 
HETATM    6  C   UNL     1       4.070  15.553  93.029  1.00  0.00     0.178 C 
ENDROOT
BRANCH   2   7
HETATM    7  C   UNL     1       2.815  13.967  89.860  1.00  0.00     0.277 C 
BRANCH   7   8
HETATM    8  C   UNL     1       3.787  12.839  89.798  1.00  0.00     0.011 A 
HETATM    9  C   UNL     1       3.412  11.571  90.243  1.00  0.00    -0.002 A 
HETATM   10  C   UNL     1       4.322  10.516  90.188  1.00  0.00     0.008 A 
HETATM   11  C   UNL     1       5.606  10.728  89.685  1.00  0.00     0.042 A 
HETATM   12  C   UNL     1       5.981  11.994  89.240  1.00  0.00     0.008 A 
HETATM   13  C   UNL     1       5.072  13.050  89.296  1.00  0.00    -0.002 A 
BRANCH  11  14
HETATM   14  C   UNL     1       6.538   9.645  89.626  1.00  0.00    -0.059 C 
HETATM   15  C   UNL     1       7.321   8.734  89.577  1.00  0.00    -0.059 C 
BRANCH  15  16
HETATM   16  C   UNL     1       8.253   7.651  89.517  1.00  0.00     0.042 A 
HETATM   17  C   UNL     1       9.079   7.504  88.402  1.00  0.00     0.008 A 
HETATM   18  C   UNL     1       9.990   6.449  88.346  1.00  0.00     0.005 A 
HETATM   19  C   UNL     1      10.055   5.566  89.403  1.00  0.00     0.056 A 
HETATM   20  C   UNL     1       9.249   5.690  90.516  1.00  0.00     0.005 A 
HETATM   21  C   UNL     1       8.338   6.745  90.574  1.00  0.00     0.008 A 
BRANCH  19  22
HETATM   22  C   UNL     1      11.024   4.442  89.341  1.00  0.00     0.254 C 
HETATM   23  O   UNL     1      11.270   3.921  88.256  1.00  0.00    -0.268 OA
HETATM   24  N   UNL     1      11.609   4.076  90.546  1.00  0.00    -0.335 N 
HETATM   25  HN  UNL     1      11.375   4.569  91.400  1.00  0.00     0.164 HD
BRANCH  24  26
HETATM   26  C   UNL     1      12.585   3.021  90.645  1.00  0.00     0.169 C 
BRANCH  26  27
HETATM   27  C   UNL     1      14.020   3.549  90.767  1.00  0.00     0.138 C 
HETATM   28  C   UNL     1      14.101   5.062  90.595  1.00  0.00     0.034 C 
BRANCH  27  29
HETATM   29  O   UNL     1      14.550   3.199  92.045  1.00  0.00    -0.383 OA
HETATM   30  H   UNL     1      15.050   2.370  91.951  1.00  0.00     0.210 HD
ENDBRANCH  27  29
ENDBRANCH  26  27
BRANCH  26  31
HETATM   31  C   UNL     1      12.211   2.151  91.841  1.00  0.00     0.194 C 
HETATM   32  O   UNL     1      12.740   1.065  92.071  1.00  0.00    -0.289 OA
BRANCH  31  33
HETATM   33  C   UNL     1      11.201   2.705  92.590  1.00  0.00     0.053 C 
BRANCH  33  34
HETATM   34  C   UNL     1      11.597   3.324  93.785  1.00  0.00     0.220 C 
BRANCH  34  35
HETATM   35  O   UNL     1      12.739   2.913  94.066  1.00  0.00    -0.371 OA
HETATM   36  H   UNL     1      13.205   3.315  93.348  1.00  0.00     0.211 HD
ENDBRANCH  34  35
BRANCH  34  37
HETATM   37  C   UNL     1      11.532   4.727  93.737  1.00  0.00     0.185 C 
HETATM   38  O   UNL     1      12.798   4.640  94.114  1.00  0.00    -0.647 OA
BRANCH  37  39
HETATM   39  O   UNL     1      10.702   5.556  93.510  1.00  0.00    -0.774 OA
HETATM   40  H   UNL     1      10.542   5.693  92.395  1.00  0.00     0.167 HD
ENDBRANCH  37  39
ENDBRANCH  34  37
ENDBRANCH  33  34
ENDBRANCH  31  33
ENDBRANCH  26  31
ENDBRANCH  24  26
ENDBRANCH  19  22
ENDBRANCH  15  16
ENDBRANCH  11  14
ENDBRANCH   7   8
ENDBRANCH   2   7
TORSDOF 14
ENDMDL
