MODEL 1
REMARK VINA RESULT:      -7.1      0.000      0.000
REMARK  10 active torsions:
REMARK  status: ('A' for Active; 'I' for Inactive)
REMARK    1  A    between atoms: O_2  and  C_18 
REMARK    2  A    between atoms: O_5  and  N_8 
REMARK    3  A    between atoms: N_6  and  C_11 
REMARK    4  A    between atoms: N_7  and  C_15 
REMARK       I    between atoms: N_7  and  C_24 
REMARK       I    between atoms: N_8  and  C_23 
REMARK    5  A    between atoms: C_11  and  C_14 
REMARK    6  A    between atoms: C_15  and  C_18 
REMARK    7  A    between atoms: C_15  and  C_23 
REMARK    8  A    between atoms: C_21  and  C_26 
REMARK    9  A    between atoms: C_24  and  C_25 
REMARK   10  A    between atoms: C_29  and  C_32 
ROOT
HETATM    1  O   UNK     0      17.219   4.245  93.877  0.00  0.00    -0.388 OA
HETATM    2  N   UNK     0      14.826   2.765  93.443  0.00  0.00     0.096 N 
HETATM    3  C   UNK     0      16.150   2.168  93.218  0.00  0.00     0.299 C 
HETATM    4  C   UNK     0      14.884   4.216  93.219  0.00  0.00     0.299 C 
HETATM    5  C   UNK     0      17.180   2.838  94.124  0.00  0.00     0.198 C 
HETATM    6  C   UNK     0      15.944   4.838  94.124  0.00  0.00     0.198 C 
ENDROOT
BRANCH   2   7
HETATM    7  C   UNK     0      13.825   2.146  92.577  0.00  0.00     0.311 C 
BRANCH   7   8
HETATM    8  C   UNK     0      12.761   3.104  92.162  0.00  0.00    -0.030 A 
HETATM    9  C   UNK     0      11.860   3.597  93.107  0.00  0.00     0.010 A 
HETATM   10  C   UNK     0      10.863   4.492  92.720  0.00  0.00     0.021 A 
HETATM   11  C   UNK     0      10.770   4.896  91.388  0.00  0.00     0.018 A 
HETATM   12  C   UNK     0      11.669   4.405  90.444  0.00  0.00     0.021 A 
HETATM   13  C   UNK     0      12.666   3.509  90.831  0.00  0.00     0.010 A 
BRANCH  11  14
HETATM   14  C   UNK     0       9.748   5.816  90.991  0.00  0.00    -0.061 C 
HETATM   15  C   UNK     0       8.891   6.590  90.658  0.00  0.00    -0.061 C 
BRANCH  15  16
HETATM   16  C   UNK     0       7.870   7.509  90.263  0.00  0.00     0.018 A 
HETATM   17  C   UNK     0       7.447   7.551  88.933  0.00  0.00     0.022 A 
HETATM   18  C   UNK     0       6.450   8.446  88.548  0.00  0.00     0.018 A 
HETATM   19  C   UNK     0       5.897   9.279  89.498  0.00  0.00     0.032 A 
HETATM   20  C   UNK     0       6.298   9.257  90.818  0.00  0.00     0.018 A 
HETATM   21  C   UNK     0       7.296   8.362  91.204  0.00  0.00     0.022 A 
BRANCH  19  22
HETATM   22  C   UNK     0       4.836  10.234  89.087  0.00  0.00     0.252 C 
HETATM   23  O   UNK     0       4.188  10.008  88.067  0.00  0.00    -0.268 OA
HETATM   24  N   UNK     0       4.640  11.323  89.924  0.00  0.00    -0.341 N 
HETATM   25  H   UNK     0       5.197  11.431  90.763  0.00  0.00     0.163 HD
BRANCH  24  26
HETATM   26  C   UNK     0       3.634  12.323  89.673  0.00  0.00     0.207 C 
BRANCH  26  27
HETATM   27  C   UNK     0       3.069  12.933  90.962  0.00  0.00     0.146 C 
HETATM   28  C   UNK     0       4.163  13.379  91.926  0.00  0.00     0.042 C 
BRANCH  27  29
HETATM   29  O   UNK     0       2.249  14.057  90.639  0.00  0.00    -0.393 OA
HETATM   30  H   UNK     0       1.928  14.448  91.469  0.00  0.00     0.210 HD
ENDBRANCH  27  29
ENDBRANCH  26  27
BRANCH  26  31
HETATM   31  C   UNK     0       4.252  13.392  88.778  0.00  0.00     0.266 C 
HETATM   32  O   UNK     0       4.536  14.519  89.180  0.00  0.00    -0.269 OA
HETATM   33  N   UNK     0       4.411  12.958  87.485  0.00  0.00    -0.236 N 
HETATM   34  H   UNK     0       4.106  12.071  87.100  0.00  0.00     0.197 HD
BRANCH  33  35
HETATM   35  O   UNK     0       4.939  13.897  86.587  0.00  0.00    -0.287 OA
HETATM   36  H   UNK     0       5.730  13.420  86.282  0.00  0.00     0.244 HD
ENDBRANCH  33  35
ENDBRANCH  26  31
ENDBRANCH  24  26
ENDBRANCH  19  22
ENDBRANCH  15  16
ENDBRANCH  11  14
ENDBRANCH   7   8
ENDBRANCH   2   7
TORSDOF 10
ENDMDL
MODEL 2
REMARK VINA RESULT:      -6.6      1.835      2.336
REMARK  10 active torsions:
REMARK  status: ('A' for Active; 'I' for Inactive)
REMARK    1  A    between atoms: O_2  and  C_18 
REMARK    2  A    between atoms: O_5  and  N_8 
REMARK    3  A    between atoms: N_6  and  C_11 
REMARK    4  A    between atoms: N_7  and  C_15 
REMARK       I    between atoms: N_7  and  C_24 
REMARK       I    between atoms: N_8  and  C_23 
REMARK    5  A    between atoms: C_11  and  C_14 
REMARK    6  A    between atoms: C_15  and  C_18 
REMARK    7  A    between atoms: C_15  and  C_23 
REMARK    8  A    between atoms: C_21  and  C_26 
REMARK    9  A    between atoms: C_24  and  C_25 
REMARK   10  A    between atoms: C_29  and  C_32 
ROOT
HETATM    1  O   UNK     0      16.465   3.140  93.655  0.00  0.00    -0.388 OA
HETATM    2  N   UNK     0      13.771   2.787  92.806  0.00  0.00     0.096 N 
HETATM    3  C   UNK     0      14.644   1.639  93.088  0.00  0.00     0.299 C 
HETATM    4  C   UNK     0      14.575   3.932  92.356  0.00  0.00     0.299 C 
HETATM    5  C   UNK     0      15.695   2.031  94.123  0.00  0.00     0.198 C 
HETATM    6  C   UNK     0      15.628   4.270  93.408  0.00  0.00     0.198 C 
ENDROOT
BRANCH   2   7
HETATM    7  C   UNK     0      12.762   2.437  91.807  0.00  0.00     0.311 C 
BRANCH   7   8
HETATM    8  C   UNK     0      11.645   3.423  91.759  0.00  0.00    -0.030 A 
HETATM    9  C   UNK     0      10.696   3.351  90.739  0.00  0.00     0.010 A 
HETATM   10  C   UNK     0       9.652   4.274  90.691  0.00  0.00     0.021 A 
HETATM   11  C   UNK     0       9.555   5.267  91.666  0.00  0.00     0.018 A 
HETATM   12  C   UNK     0      10.502   5.340  92.685  0.00  0.00     0.021 A 
HETATM   13  C   UNK     0      11.547   4.418  92.733  0.00  0.00     0.010 A 
BRANCH  11  14
HETATM   14  C   UNK     0       8.483   6.213  91.618  0.00  0.00    -0.061 C 
HETATM   15  C   UNK     0       7.581   7.007  91.579  0.00  0.00    -0.061 C 
BRANCH  15  16
HETATM   16  C   UNK     0       6.509   7.951  91.530  0.00  0.00     0.018 A 
HETATM   17  C   UNK     0       6.757   9.301  91.783  0.00  0.00     0.022 A 
HETATM   18  C   UNK     0       5.712  10.222  91.733  0.00  0.00     0.018 A 
HETATM   19  C   UNK     0       4.442   9.775  91.432  0.00  0.00     0.032 A 
HETATM   20  C   UNK     0       4.171   8.447  91.179  0.00  0.00     0.018 A 
HETATM   21  C   UNK     0       5.216   7.525  91.229  0.00  0.00     0.022 A 
BRANCH  19  22
HETATM   22  C   UNK     0       3.329  10.758  91.382  0.00  0.00     0.252 C 
HETATM   23  O   UNK     0       2.210  10.379  91.042  0.00  0.00    -0.268 OA
HETATM   24  N   UNK     0       3.646  12.056  91.757  0.00  0.00    -0.341 N 
HETATM   25  H   UNK     0       4.587  12.290  92.050  0.00  0.00     0.163 HD
BRANCH  24  26
HETATM   26  C   UNK     0       2.670  13.116  91.783  0.00  0.00     0.207 C 
BRANCH  26  27
HETATM   27  C   UNK     0       2.632  13.854  93.127  0.00  0.00     0.146 C 
HETATM   28  C   UNK     0       3.904  13.650  93.941  0.00  0.00     0.042 C 
BRANCH  27  29
HETATM   29  O   UNK     0       2.445  15.251  92.899  0.00  0.00    -0.393 OA
HETATM   30  H   UNK     0       2.657  15.439  91.970  0.00  0.00     0.210 HD
ENDBRANCH  27  29
ENDBRANCH  26  27
BRANCH  26  31
HETATM   31  C   UNK     0       2.986  14.069  90.636  0.00  0.00     0.266 C 
HETATM   32  O   UNK     0       2.151  14.412  89.800  0.00  0.00    -0.269 OA
HETATM   33  N   UNK     0       4.304  14.457  90.631  0.00  0.00    -0.236 N 
HETATM   34  H   UNK     0       5.036  14.125  91.248  0.00  0.00     0.197 HD
BRANCH  33  35
HETATM   35  O   UNK     0       4.686  15.306  89.583  0.00  0.00    -0.287 OA
HETATM   36  H   UNK     0       4.335  16.153  89.907  0.00  0.00     0.244 HD
ENDBRANCH  33  35
ENDBRANCH  26  31
ENDBRANCH  24  26
ENDBRANCH  19  22
ENDBRANCH  15  16
ENDBRANCH  11  14
ENDBRANCH   7   8
ENDBRANCH   2   7
TORSDOF 10
ENDMDL
MODEL 3
REMARK VINA RESULT:      -6.3      0.956      1.297
REMARK  10 active torsions:
REMARK  status: ('A' for Active; 'I' for Inactive)
REMARK    1  A    between atoms: O_2  and  C_18 
REMARK    2  A    between atoms: O_5  and  N_8 
REMARK    3  A    between atoms: N_6  and  C_11 
REMARK    4  A    between atoms: N_7  and  C_15 
REMARK       I    between atoms: N_7  and  C_24 
REMARK       I    between atoms: N_8  and  C_23 
REMARK    5  A    between atoms: C_11  and  C_14 
REMARK    6  A    between atoms: C_15  and  C_18 
REMARK    7  A    between atoms: C_15  and  C_23 
REMARK    8  A    between atoms: C_21  and  C_26 
REMARK    9  A    between atoms: C_24  and  C_25 
REMARK   10  A    between atoms: C_29  and  C_32 
ROOT
HETATM    1  O   UNK     0      17.191   3.615  94.124  0.00  0.00    -0.388 OA
HETATM    2  N   UNK     0      14.839   3.028  92.632  0.00  0.00     0.096 N 
HETATM    3  C   UNK     0      14.805   3.921  93.798  0.00  0.00     0.299 C 
HETATM    4  C   UNK     0      15.918   2.043  92.783  0.00  0.00     0.299 C 
HETATM    5  C   UNK     0      16.164   4.596  93.971  0.00  0.00     0.198 C 
HETATM    6  C   UNK     0      17.250   2.761  92.980  0.00  0.00     0.198 C 
ENDROOT
BRANCH   2   7
HETATM    7  C   UNK     0      13.550   2.362  92.453  0.00  0.00     0.311 C 
BRANCH   7   8
HETATM    8  C   UNK     0      12.445   3.326  92.182  0.00  0.00    -0.030 A 
HETATM    9  C   UNK     0      11.602   3.728  93.219  0.00  0.00     0.010 A 
HETATM   10  C   UNK     0      10.567   4.628  92.967  0.00  0.00     0.021 A 
HETATM   11  C   UNK     0      10.377   5.127  91.679  0.00  0.00     0.018 A 
HETATM   12  C   UNK     0      11.218   4.726  90.643  0.00  0.00     0.021 A 
HETATM   13  C   UNK     0      12.253   3.826  90.894  0.00  0.00     0.010 A 
BRANCH  11  14
HETATM   14  C   UNK     0       9.316   6.052  91.421  0.00  0.00    -0.061 C 
HETATM   15  C   UNK     0       8.425   6.829  91.204  0.00  0.00    -0.061 C 
BRANCH  15  16
HETATM   16  C   UNK     0       7.367   7.754  90.946  0.00  0.00     0.018 A 
HETATM   17  C   UNK     0       6.566   7.598  89.813  0.00  0.00     0.022 A 
HETATM   18  C   UNK     0       5.531   8.500  89.563  0.00  0.00     0.018 A 
HETATM   19  C   UNK     0       5.320   9.535  90.449  0.00  0.00     0.032 A 
HETATM   20  C   UNK     0       6.097   9.711  91.574  0.00  0.00     0.018 A 
HETATM   21  C   UNK     0       7.132   8.810  91.825  0.00  0.00     0.022 A 
BRANCH  19  22
HETATM   22  C   UNK     0       4.219  10.496  90.180  0.00  0.00     0.252 C 
HETATM   23  O   UNK     0       3.086  10.068  89.974  0.00  0.00    -0.268 OA
HETATM   24  N   UNK     0       4.564  11.840  90.207  0.00  0.00    -0.341 N 
HETATM   25  H   UNK     0       5.517  12.120  90.409  0.00  0.00     0.163 HD
BRANCH  24  26
HETATM   26  C   UNK     0       3.604  12.892  89.990  0.00  0.00     0.207 C 
BRANCH  26  27
HETATM   27  C   UNK     0       3.327  13.713  91.256  0.00  0.00     0.146 C 
HETATM   28  C   UNK     0       2.003  13.343  91.914  0.00  0.00     0.042 C 
BRANCH  27  29
HETATM   29  O   UNK     0       4.383  13.514  92.195  0.00  0.00    -0.393 OA
HETATM   30  H   UNK     0       3.999  13.499  93.088  0.00  0.00     0.210 HD
ENDBRANCH  27  29
ENDBRANCH  26  27
BRANCH  26  31
HETATM   31  C   UNK     0       4.127  13.774  88.861  0.00  0.00     0.266 C 
HETATM   32  O   UNK     0       4.254  14.992  88.966  0.00  0.00    -0.269 OA
HETATM   33  N   UNK     0       4.394  13.054  87.722  0.00  0.00    -0.236 N 
HETATM   34  H   UNK     0       4.217  12.067  87.572  0.00  0.00     0.197 HD
BRANCH  33  35
HETATM   35  O   UNK     0       4.844  13.797  86.621  0.00  0.00    -0.287 OA
HETATM   36  H   UNK     0       5.804  13.776  86.777  0.00  0.00     0.244 HD
ENDBRANCH  33  35
ENDBRANCH  26  31
ENDBRANCH  24  26
ENDBRANCH  19  22
ENDBRANCH  15  16
ENDBRANCH  11  14
ENDBRANCH   7   8
ENDBRANCH   2   7
TORSDOF 10
ENDMDL
MODEL 4
REMARK VINA RESULT:      -5.0      2.393     12.656
REMARK  10 active torsions:
REMARK  status: ('A' for Active; 'I' for Inactive)
REMARK    1  A    between atoms: O_2  and  C_18 
REMARK    2  A    between atoms: O_5  and  N_8 
REMARK    3  A    between atoms: N_6  and  C_11 
REMARK    4  A    between atoms: N_7  and  C_15 
REMARK       I    between atoms: N_7  and  C_24 
REMARK       I    between atoms: N_8  and  C_23 
REMARK    5  A    between atoms: C_11  and  C_14 
REMARK    6  A    between atoms: C_15  and  C_18 
REMARK    7  A    between atoms: C_15  and  C_23 
REMARK    8  A    between atoms: C_21  and  C_26 
REMARK    9  A    between atoms: C_24  and  C_25 
REMARK   10  A    between atoms: C_29  and  C_32 
ROOT
HETATM    1  O   UNK     0       2.937  14.441  92.987  0.00  0.00    -0.388 OA
HETATM    2  N   UNK     0       3.473  14.000  90.226  0.00  0.00     0.096 N 
HETATM    3  C   UNK     0       2.416  13.261  90.930  0.00  0.00     0.299 C 
HETATM    4  C   UNK     0       4.539  14.372  91.166  0.00  0.00     0.299 C 
HETATM    5  C   UNK     0       1.880  14.102  92.087  0.00  0.00     0.198 C 
HETATM    6  C   UNK     0       3.954  15.186  92.317  0.00  0.00     0.198 C 
ENDROOT
BRANCH   2   7
HETATM    7  C   UNK     0       4.009  13.208  89.120  0.00  0.00     0.311 C 
BRANCH   7   8
HETATM    8  C   UNK     0       4.911  12.117  89.587  0.00  0.00    -0.030 A 
HETATM    9  C   UNK     0       6.251  12.106  89.198  0.00  0.00     0.010 A 
HETATM   10  C   UNK     0       7.095  11.084  89.633  0.00  0.00     0.021 A 
HETATM   11  C   UNK     0       6.599  10.076  90.458  0.00  0.00     0.018 A 
HETATM   12  C   UNK     0       5.261  10.086  90.848  0.00  0.00     0.021 A 
HETATM   13  C   UNK     0       4.417  11.107  90.413  0.00  0.00     0.010 A 
BRANCH  11  14
HETATM   14  C   UNK     0       7.465   9.029  90.906  0.00  0.00    -0.061 C 
HETATM   15  C   UNK     0       8.194   8.149  91.283  0.00  0.00    -0.061 C 
BRANCH  15  16
HETATM   16  C   UNK     0       9.060   7.104  91.729  0.00  0.00     0.018 A 
HETATM   17  C   UNK     0       9.214   6.863  93.094  0.00  0.00     0.022 A 
HETATM   18  C   UNK     0      10.058   5.841  93.530  0.00  0.00     0.018 A 
HETATM   19  C   UNK     0      10.728   5.084  92.592  0.00  0.00     0.032 A 
HETATM   20  C   UNK     0      10.593   5.302  91.237  0.00  0.00     0.018 A 
HETATM   21  C   UNK     0       9.750   6.324  90.801  0.00  0.00     0.022 A 
BRANCH  19  22
HETATM   22  C   UNK     0      11.628   3.997  93.057  0.00  0.00     0.252 C 
HETATM   23  O   UNK     0      11.177   2.862  93.194  0.00  0.00    -0.268 OA
HETATM   24  N   UNK     0      12.949   4.357  93.283  0.00  0.00    -0.341 N 
HETATM   25  H   UNK     0      13.256   5.309  93.125  0.00  0.00     0.163 HD
BRANCH  24  26
HETATM   26  C   UNK     0      13.948   3.411  93.713  0.00  0.00     0.207 C 
BRANCH  26  27
HETATM   27  C   UNK     0      13.914   2.105  92.909  0.00  0.00     0.146 C 
HETATM   28  C   UNK     0      14.449   2.277  91.492  0.00  0.00     0.042 C 
BRANCH  27  29
HETATM   29  O   UNK     0      14.689   1.111  93.579  0.00  0.00    -0.393 OA
HETATM   30  H   UNK     0      14.084   0.429  93.916  0.00  0.00     0.210 HD
ENDBRANCH  27  29
ENDBRANCH  26  27
BRANCH  26  31
HETATM   31  C   UNK     0      15.309   4.091  93.607  0.00  0.00     0.266 C 
HETATM   32  O   UNK     0      15.469   5.193  93.085  0.00  0.00    -0.269 OA
HETATM   33  N   UNK     0      16.318   3.315  94.124  0.00  0.00    -0.236 N 
HETATM   34  H   UNK     0      16.236   2.370  94.479  0.00  0.00     0.197 HD
BRANCH  33  35
HETATM   35  O   UNK     0      17.610   3.853  94.031  0.00  0.00    -0.287 OA
HETATM   36  H   UNK     0      17.433   4.776  94.281  0.00  0.00     0.244 HD
ENDBRANCH  33  35
ENDBRANCH  26  31
ENDBRANCH  24  26
ENDBRANCH  19  22
ENDBRANCH  15  16
ENDBRANCH  11  14
ENDBRANCH   7   8
ENDBRANCH   2   7
TORSDOF 10
ENDMDL
MODEL 5
REMARK VINA RESULT:      -4.7      1.978     12.606
REMARK  10 active torsions:
REMARK  status: ('A' for Active; 'I' for Inactive)
REMARK    1  A    between atoms: O_2  and  C_18 
REMARK    2  A    between atoms: O_5  and  N_8 
REMARK    3  A    between atoms: N_6  and  C_11 
REMARK    4  A    between atoms: N_7  and  C_15 
REMARK       I    between atoms: N_7  and  C_24 
REMARK       I    between atoms: N_8  and  C_23 
REMARK    5  A    between atoms: C_11  and  C_14 
REMARK    6  A    between atoms: C_15  and  C_18 
REMARK    7  A    between atoms: C_15  and  C_23 
REMARK    8  A    between atoms: C_21  and  C_26 
REMARK    9  A    between atoms: C_24  and  C_25 
REMARK   10  A    between atoms: C_29  and  C_32 
ROOT
HETATM    1  O   UNK     0       5.379  14.382  88.554  0.00  0.00    -0.388 OA
HETATM    2  N   UNK     0       3.426  13.050  90.141  0.00  0.00     0.096 N 
HETATM    3  C   UNK     0       4.375  14.004  90.732  0.00  0.00     0.299 C 
HETATM    4  C   UNK     0       4.025  12.410  88.962  0.00  0.00     0.299 C 
HETATM    5  C   UNK     0       4.793  15.033  89.684  0.00  0.00     0.198 C 
HETATM    6  C   UNK     0       4.452  13.475  87.956  0.00  0.00     0.198 C 
ENDROOT
BRANCH   2   7
HETATM    7  C   UNK     0       3.020  12.048  91.125  0.00  0.00     0.311 C 
BRANCH   7   8
HETATM    8  C   UNK     0       4.074  11.020  91.358  0.00  0.00    -0.030 A 
HETATM    9  C   UNK     0       5.305  11.395  91.896  0.00  0.00     0.010 A 
HETATM   10  C   UNK     0       6.293  10.434  92.112  0.00  0.00     0.021 A 
HETATM   11  C   UNK     0       6.047   9.099  91.792  0.00  0.00     0.018 A 
HETATM   12  C   UNK     0       4.817   8.723  91.256  0.00  0.00     0.021 A 
HETATM   13  C   UNK     0       3.830   9.684  91.038  0.00  0.00     0.010 A 
BRANCH  11  14
HETATM   14  C   UNK     0       7.060   8.113  92.016  0.00  0.00    -0.061 C 
HETATM   15  C   UNK     0       7.910   7.284  92.204  0.00  0.00    -0.061 C 
BRANCH  15  16
HETATM   16  C   UNK     0       8.921   6.299  92.428  0.00  0.00     0.018 A 
HETATM   17  C   UNK     0       9.647   6.305  93.620  0.00  0.00     0.022 A 
HETATM   18  C   UNK     0      10.632   5.342  93.840  0.00  0.00     0.018 A 
HETATM   19  C   UNK     0      10.868   4.395  92.866  0.00  0.00     0.032 A 
HETATM   20  C   UNK     0      10.165   4.367  91.680  0.00  0.00     0.018 A 
HETATM   21  C   UNK     0       9.180   5.330  91.459  0.00  0.00     0.022 A 
BRANCH  19  22
HETATM   22  C   UNK     0      11.919   3.371  93.101  0.00  0.00     0.252 C 
HETATM   23  O   UNK     0      11.669   2.191  92.865  0.00  0.00    -0.268 OA
HETATM   24  N   UNK     0      13.140   3.846  93.557  0.00  0.00    -0.341 N 
HETATM   25  H   UNK     0      13.281   4.838  93.705  0.00  0.00     0.163 HD
BRANCH  24  26
HETATM   26  C   UNK     0      14.265   2.981  93.808  0.00  0.00     0.207 C 
BRANCH  26  27
HETATM   27  C   UNK     0      14.353   1.818  92.811  0.00  0.00     0.146 C 
HETATM   28  C   UNK     0      15.383   2.066  91.715  0.00  0.00     0.042 C 
BRANCH  27  29
HETATM   29  O   UNK     0      14.694   0.619  93.505  0.00  0.00    -0.393 OA
HETATM   30  H   UNK     0      15.449   0.208  93.051  0.00  0.00     0.210 HD
ENDBRANCH  27  29
ENDBRANCH  26  27
BRANCH  26  31
HETATM   31  C   UNK     0      15.527   3.836  93.776  0.00  0.00     0.266 C 
HETATM   32  O   UNK     0      15.526   5.019  93.441  0.00  0.00    -0.269 OA
HETATM   33  N   UNK     0      16.648   3.120  94.123  0.00  0.00    -0.236 N 
HETATM   34  H   UNK     0      16.697   2.127  94.316  0.00  0.00     0.197 HD
BRANCH  33  35
HETATM   35  O   UNK     0      17.859   3.826  94.081  0.00  0.00    -0.287 OA
HETATM   36  H   UNK     0      17.555   4.673  93.714  0.00  0.00     0.244 HD
ENDBRANCH  33  35
ENDBRANCH  26  31
ENDBRANCH  24  26
ENDBRANCH  19  22
ENDBRANCH  15  16
ENDBRANCH  11  14
ENDBRANCH   7   8
ENDBRANCH   2   7
TORSDOF 10
ENDMDL
