MODEL 1
REMARK VINA RESULT:      -6.9      0.000      0.000
REMARK  10 active torsions:
REMARK  status: ('A' for Active; 'I' for Inactive)
REMARK    1  A    between atoms: O_2  and  C_16 
REMARK    2  A    between atoms: N_5  and  C_9 
REMARK    3  A    between atoms: N_6  and  C_13 
REMARK       I    between atoms: N_6  and  C_22 
REMARK    4  A    between atoms: C_9  and  C_12 
REMARK    5  A    between atoms: C_13  and  C_16 
REMARK    6  A    between atoms: C_13  and  C_21 
REMARK    7  A    between atoms: C_19  and  C_24 
REMARK    8  A    between atoms: C_22  and  C_23 
REMARK    9  A    between atoms: C_27  and  C_30 
REMARK   10  A    between atoms: N_33  and  S_34 
ROOT
HETATM    1  C   UNL     1       5.772  11.024  89.605  1.00  0.00     0.056 A 
HETATM    2  C   UNL     1       7.133  11.211  89.494  1.00  0.00     0.005 A 
HETATM    3  C   UNL     1       5.224   9.821  89.998  1.00  0.00     0.005 A 
HETATM    4  C   UNL     1       7.457   8.920  90.189  1.00  0.00     0.042 A 
HETATM    5  C   UNL     1       7.987  10.147  89.788  1.00  0.00     0.008 A 
HETATM    6  C   UNL     1       6.075   8.757  90.294  1.00  0.00     0.008 A 
ENDROOT
BRANCH   1   7
HETATM    7  C   UNL     1       4.864  12.158  89.292  1.00  0.00     0.254 C 
HETATM    8  O   UNL     1       4.665  12.461  88.119  1.00  0.00    -0.268 OA
HETATM    9  N   UNL     1       4.277  12.785  90.383  1.00  0.00    -0.337 N 
HETATM   10  HN  UNL     1       4.468  12.462  91.324  1.00  0.00     0.164 HD
BRANCH   9  11
HETATM   11  C   UNL     1       3.355  13.883  90.242  1.00  0.00     0.172 C 
BRANCH  11  12
HETATM   12  C   UNL     1       2.013  13.625  90.938  1.00  0.00     0.136 C 
HETATM   13  C   UNL     1       2.094  12.499  91.963  1.00  0.00     0.034 C 
BRANCH  12  14
HETATM   14  O   UNL     1       1.577  14.816  91.592  1.00  0.00    -0.383 OA
HETATM   15  H   UNL     1       2.108  15.559  91.258  1.00  0.00     0.210 HD
ENDBRANCH  12  14
ENDBRANCH  11  12
BRANCH  11  16
HETATM   16  C   UNL     1       4.033  15.134  90.792  1.00  0.00     0.398 A 
HETATM   17  O   UNL     1       5.153  15.499  90.439  1.00  0.00    -0.136 OA
HETATM   18  N   UNL     1       5.014  15.606  91.949  1.00  0.00     0.142 N 
HETATM   19  HN  UNL     1       5.927  15.955  91.863  1.00  0.00     0.338 HD
BRANCH  18  20
HETATM   20  S   UNL     1       4.292  15.131  93.037  1.00  0.00     0.076 SA
HETATM   21  H   UNL     1       3.390  15.808  93.412  1.00  0.00     0.136 HD
ENDBRANCH  18  20
ENDBRANCH  11  16
ENDBRANCH   9  11
ENDBRANCH   1   7
BRANCH   4  22
HETATM   22  C   UNL     1       8.331   7.829  90.488  1.00  0.00    -0.059 C 
HETATM   23  C   UNL     1       9.066   6.912  90.739  1.00  0.00    -0.059 C 
BRANCH  23  24
HETATM   24  C   UNL     1       9.942   5.820  91.039  1.00  0.00     0.042 A 
HETATM   25  C   UNL     1      10.712   5.247  90.028  1.00  0.00     0.008 A 
HETATM   26  C   UNL     1      11.563   4.182  90.320  1.00  0.00    -0.002 A 
HETATM   27  C   UNL     1      11.646   3.692  91.624  1.00  0.00     0.011 A 
HETATM   28  C   UNL     1      10.875   4.267  92.634  1.00  0.00    -0.002 A 
HETATM   29  C   UNL     1      10.023   5.332  92.342  1.00  0.00     0.008 A 
BRANCH  27  30
HETATM   30  C   UNL     1      12.558   2.555  91.935  1.00  0.00     0.277 C 
BRANCH  30  31
HETATM   31  N   UNL     1      13.612   2.928  92.877  1.00  0.00     0.147 N 
HETATM   32  C   UNL     1      14.498   1.787  93.146  1.00  0.00     0.283 C 
HETATM   33  C   UNL     1      15.595   2.202  94.123  1.00  0.00     0.178 C 
HETATM   34  O   UNL     1      16.341   3.300  93.594  1.00  0.00    -0.350 OA
HETATM   35  C   UNL     1      15.492   4.424  93.360  1.00  0.00     0.178 C 
HETATM   36  C   UNL     1      14.393   4.063  92.366  1.00  0.00     0.283 C 
ENDBRANCH  30  31
ENDBRANCH  27  30
ENDBRANCH  23  24
ENDBRANCH   4  22
TORSDOF 10
ENDMDL
