MODEL 1
REMARK VINA RESULT:      -6.1      0.000      0.000
REMARK  12 active torsions:
REMARK  status: ('A' for Active; 'I' for Inactive)
REMARK    1  A    between atoms: O_2  and  C_16 
REMARK    2  A    between atoms: N_5  and  C_9 
REMARK    3  A    between atoms: N_6  and  C_13 
REMARK       I    between atoms: N_6  and  C_22 
REMARK    4  A    between atoms: C_9  and  C_12 
REMARK    5  A    between atoms: C_13  and  C_16 
REMARK    6  A    between atoms: C_13  and  C_21 
REMARK    7  A    between atoms: C_19  and  C_24 
REMARK    8  A    between atoms: C_21  and  C_33 
REMARK    9  A    between atoms: C_22  and  C_23 
REMARK   10  A    between atoms: C_27  and  C_30 
REMARK   11  A    between atoms: C_33  and  C_34 
REMARK   12  A    between atoms: C_34  and  C_35 
ROOT
HETATM    1  O   UNL     1      16.783   3.601  93.811  1.00  0.00    -0.350 OA
HETATM    2  N   UNL     1      14.198   3.093  92.732  1.00  0.00     0.147 N 
HETATM    3  C   UNL     1      15.153   2.004  92.982  1.00  0.00     0.283 C 
HETATM    4  C   UNL     1      14.920   4.340  92.445  1.00  0.00     0.283 C 
HETATM    5  C   UNL     1      16.090   2.391  94.124  1.00  0.00     0.178 C 
HETATM    6  C   UNL     1      15.862   4.671  93.598  1.00  0.00     0.178 C 
ENDROOT
BRANCH   2   7
HETATM    7  C   UNL     1      13.297   2.749  91.634  1.00  0.00     0.277 C 
BRANCH   7   8
HETATM    8  C   UNL     1      12.110   3.648  91.571  1.00  0.00     0.011 A 
HETATM    9  C   UNL     1      11.708   4.186  90.348  1.00  0.00    -0.002 A 
HETATM   10  C   UNL     1      10.598   5.029  90.287  1.00  0.00     0.008 A 
HETATM   11  C   UNL     1       9.890   5.332  91.450  1.00  0.00     0.042 A 
HETATM   12  C   UNL     1      10.291   4.796  92.672  1.00  0.00     0.008 A 
HETATM   13  C   UNL     1      11.400   3.953  92.733  1.00  0.00    -0.002 A 
BRANCH  11  14
HETATM   14  C   UNL     1       8.751   6.195  91.388  1.00  0.00    -0.059 C 
HETATM   15  C   UNL     1       7.793   6.920  91.336  1.00  0.00    -0.059 C 
BRANCH  15  16
HETATM   16  C   UNL     1       6.655   7.783  91.275  1.00  0.00     0.042 A 
HETATM   17  C   UNL     1       5.870   7.982  92.411  1.00  0.00     0.008 A 
HETATM   18  C   UNL     1       4.760   8.825  92.352  1.00  0.00     0.005 A 
HETATM   19  C   UNL     1       4.462   9.451  91.159  1.00  0.00     0.056 A 
HETATM   20  C   UNL     1       5.222   9.271  90.023  1.00  0.00     0.005 A 
HETATM   21  C   UNL     1       6.331   8.427  90.081  1.00  0.00     0.008 A 
BRANCH  19  22
HETATM   22  C   UNL     1       3.279  10.349  91.096  1.00  0.00     0.254 C 
HETATM   23  O   UNL     1       2.227   9.922  90.627  1.00  0.00    -0.268 OA
HETATM   24  N   UNL     1       3.457  11.626  91.609  1.00  0.00    -0.335 N 
HETATM   25  HN  UNL     1       4.349  11.901  92.004  1.00  0.00     0.164 HD
BRANCH  24  26
HETATM   26  C   UNL     1       2.398  12.603  91.642  1.00  0.00     0.166 C 
BRANCH  26  27
HETATM   27  C   UNL     1       2.202  13.220  93.032  1.00  0.00     0.138 C 
HETATM   28  C   UNL     1       3.339  12.877  93.989  1.00  0.00     0.034 C 
BRANCH  27  29
HETATM   29  O   UNL     1       2.107  14.639  92.915  1.00  0.00    -0.383 OA
HETATM   30  H   UNL     1       2.002  14.861  91.975  1.00  0.00     0.210 HD
ENDBRANCH  27  29
ENDBRANCH  26  27
BRANCH  26  31
HETATM   31  C   UNL     1       2.718  13.671  90.601  1.00  0.00     0.181 C 
HETATM   32  O   UNL     1       2.001  14.650  90.404  1.00  0.00    -0.294 OA
BRANCH  31  33
HETATM   33  C   UNL     1       4.226  14.241  90.767  1.00  0.00     0.138 C 
BRANCH  33  34
HETATM   34  C   UNL     1       4.726  14.079  89.456  1.00  0.00     0.208 C 
HETATM   35  O   UNL     1       4.920  15.096  88.830  1.00  0.00    -0.289 OA
BRANCH  34  36
HETATM   36  C   UNL     1       5.302  12.994  88.853  1.00  0.00     0.194 C 
HETATM   37  O   UNL     1       4.815  12.154  87.845  1.00  0.00    -0.185 OA
ENDBRANCH  34  36
ENDBRANCH  33  34
ENDBRANCH  31  33
ENDBRANCH  26  31
ENDBRANCH  24  26
ENDBRANCH  19  22
ENDBRANCH  15  16
ENDBRANCH  11  14
ENDBRANCH   7   8
ENDBRANCH   2   7
TORSDOF 12
ENDMDL
