MODEL 1
REMARK VINA RESULT:      -6.9      0.000      0.000
REMARK  10 active torsions:
REMARK  status: ('A' for Active; 'I' for Inactive)
REMARK    1  A    between atoms: O_2  and  C_18 
REMARK    2  A    between atoms: O_5  and  N_8 
REMARK    3  A    between atoms: N_6  and  C_11 
REMARK    4  A    between atoms: N_7  and  C_15 
REMARK       I    between atoms: N_7  and  C_24 
REMARK       I    between atoms: N_8  and  C_23 
REMARK    5  A    between atoms: C_11  and  C_14 
REMARK    6  A    between atoms: C_15  and  C_18 
REMARK    7  A    between atoms: C_15  and  C_23 
REMARK    8  A    between atoms: C_21  and  C_26 
REMARK    9  A    between atoms: C_24  and  C_25 
REMARK   10  A    between atoms: C_29  and  C_32 
ROOT
HETATM    1  O   UNK     0      17.071   4.134  93.861  0.00  0.00    -0.388 OA
HETATM    2  N   UNK     0      14.648   2.731  93.350  0.00  0.00     0.096 N 
HETATM    3  C   UNK     0      15.958   2.087  93.183  0.00  0.00     0.299 C 
HETATM    4  C   UNK     0      14.764   4.176  93.113  0.00  0.00     0.299 C 
HETATM    5  C   UNK     0      16.975   2.732  94.121  0.00  0.00     0.198 C 
HETATM    6  C   UNK     0      15.809   4.773  94.052  0.00  0.00     0.198 C 
ENDROOT
BRANCH   2   7
HETATM    7  C   UNK     0      13.659   2.135  92.453  0.00  0.00     0.311 C 
BRANCH   7   8
HETATM    8  C   UNK     0      12.563   3.083  92.106  0.00  0.00    -0.030 A 
HETATM    9  C   UNK     0      12.299   3.384  90.769  0.00  0.00     0.010 A 
HETATM   10  C   UNK     0      11.274   4.273  90.443  0.00  0.00     0.021 A 
HETATM   11  C   UNK     0      10.513   4.858  91.455  0.00  0.00     0.018 A 
HETATM   12  C   UNK     0      10.775   4.559  92.790  0.00  0.00     0.021 A 
HETATM   13  C   UNK     0      11.800   3.671  93.116  0.00  0.00     0.010 A 
BRANCH  11  14
HETATM   14  C   UNK     0       9.460   5.768  91.120  0.00  0.00    -0.061 C 
HETATM   15  C   UNK     0       8.576   6.533  90.839  0.00  0.00    -0.061 C 
BRANCH  15  16
HETATM   16  C   UNK     0       7.526   7.442  90.505  0.00  0.00     0.018 A 
HETATM   17  C   UNK     0       6.288   6.954  90.087  0.00  0.00     0.022 A 
HETATM   18  C   UNK     0       5.262   7.841  89.763  0.00  0.00     0.018 A 
HETATM   19  C   UNK     0       5.496   9.197  89.865  0.00  0.00     0.032 A 
HETATM   20  C   UNK     0       6.710   9.705  90.275  0.00  0.00     0.018 A 
HETATM   21  C   UNK     0       7.737   8.818  90.599  0.00  0.00     0.022 A 
BRANCH  19  22
HETATM   22  C   UNK     0       4.403  10.142  89.517  0.00  0.00     0.252 C 
HETATM   23  O   UNK     0       3.513   9.775  88.753  0.00  0.00    -0.268 OA
HETATM   24  N   UNK     0       4.464  11.390  90.121  0.00  0.00    -0.341 N 
HETATM   25  H   UNK     0       5.216  11.613  90.762  0.00  0.00     0.163 HD
BRANCH  24  26
HETATM   26  C   UNK     0       3.466  12.406  89.904  0.00  0.00     0.207 C 
BRANCH  26  27
HETATM   27  C   UNK     0       3.042  13.108  91.200  0.00  0.00     0.146 C 
HETATM   28  C   UNK     0       2.373  12.157  92.187  0.00  0.00     0.042 C 
BRANCH  27  29
HETATM   29  O   UNK     0       4.185  13.694  91.822  0.00  0.00    -0.393 OA
HETATM   30  H   UNK     0       4.370  14.541  91.383  0.00  0.00     0.210 HD
ENDBRANCH  27  29
ENDBRANCH  26  27
BRANCH  26  31
HETATM   31  C   UNK     0       4.026  13.401  88.892  0.00  0.00     0.266 C 
HETATM   32  O   UNK     0       4.114  14.607  89.117  0.00  0.00    -0.269 OA
HETATM   33  N   UNK     0       4.376  12.797  87.709  0.00  0.00    -0.236 N 
HETATM   34  H   UNK     0       4.235  11.825  87.459  0.00  0.00     0.197 HD
BRANCH  33  35
HETATM   35  O   UNK     0       4.866  13.650  86.710  0.00  0.00    -0.287 OA
HETATM   36  H   UNK     0       5.687  13.957  87.130  0.00  0.00     0.244 HD
ENDBRANCH  33  35
ENDBRANCH  26  31
ENDBRANCH  24  26
ENDBRANCH  19  22
ENDBRANCH  15  16
ENDBRANCH  11  14
ENDBRANCH   7   8
ENDBRANCH   2   7
TORSDOF 10
ENDMDL
