MODEL 1
REMARK VINA RESULT:      -6.9      0.000      0.000
REMARK  11 active torsions:
REMARK  status: ('A' for Active; 'I' for Inactive)
REMARK    1  A    between atoms: O_2  and  C_18 
REMARK    2  A    between atoms: O_5  and  P_8 
REMARK    3  A    between atoms: N_6  and  C_11 
REMARK    4  A    between atoms: N_7  and  C_15 
REMARK       I    between atoms: N_7  and  C_24 
REMARK    5  A    between atoms: P_8  and  C_23 
REMARK    6  A    between atoms: C_11  and  C_14 
REMARK    7  A    between atoms: C_15  and  C_18 
REMARK    8  A    between atoms: C_15  and  C_23 
REMARK    9  A    between atoms: C_21  and  C_26 
REMARK   10  A    between atoms: C_24  and  C_25 
REMARK   11  A    between atoms: C_29  and  C_32 
ROOT
HETATM    1  O   UNL     1      15.862   3.942  94.076  1.00  0.00     0.000 OA
HETATM    2  N   UNL     1      14.108   2.531  92.334  1.00  0.00     0.000 N 
HETATM    3  C   UNL     1      14.215   3.996  92.294  1.00  0.00     0.000 C 
HETATM    4  C   UNL     1      14.406   2.041  93.687  1.00  0.00     0.000 C 
HETATM    5  C   UNL     1      15.605   4.425  92.756  1.00  0.00     0.000 C 
HETATM    6  C   UNL     1      15.790   2.516  94.116  1.00  0.00     0.000 C 
ENDROOT
BRANCH   2   7
HETATM    7  C   UNL     1      12.779   2.098  91.905  1.00  0.00     0.000 C 
BRANCH   7   8
HETATM    8  C   UNL     1      11.873   3.246  91.615  1.00  0.00     0.000 A 
HETATM    9  C   UNL     1      11.813   3.777  90.326  1.00  0.00     0.000 A 
HETATM   10  C   UNL     1      10.967   4.852  90.054  1.00  0.00     0.000 A 
HETATM   11  C   UNL     1      10.181   5.394  91.071  1.00  0.00     0.000 A 
HETATM   12  C   UNL     1      10.241   4.865  92.358  1.00  0.00     0.000 A 
HETATM   13  C   UNL     1      11.087   3.790  92.631  1.00  0.00     0.000 A 
BRANCH  11  14
HETATM   14  C   UNL     1       9.312   6.496  90.791  1.00  0.00     0.000 C 
HETATM   15  C   UNL     1       8.583   7.422  90.557  1.00  0.00     0.000 C 
BRANCH  15  16
HETATM   16  C   UNL     1       7.715   8.524  90.277  1.00  0.00     0.000 A 
HETATM   17  C   UNL     1       8.253   9.763  89.929  1.00  0.00     0.000 A 
HETATM   18  C   UNL     1       7.406  10.837  89.653  1.00  0.00     0.000 A 
HETATM   19  C   UNL     1       6.042  10.647  89.732  1.00  0.00     0.000 A 
HETATM   20  C   UNL     1       5.486   9.433  90.075  1.00  0.00     0.000 A 
HETATM   21  C   UNL     1       6.332   8.358  90.351  1.00  0.00     0.000 A 
BRANCH  19  22
HETATM   22  C   UNL     1       5.141  11.792  89.440  1.00  0.00     0.000 C 
HETATM   23  O   UNL     1       4.882  12.069  88.272  1.00  0.00     0.000 OA
HETATM   24  N   UNL     1       4.630  12.460  90.544  1.00  0.00     0.000 N 
HETATM   25  HN  UNL     1       4.868  12.159  91.482  1.00  0.00     0.000 HD
BRANCH  24  26
HETATM   26  C   UNL     1       3.724  13.574  90.426  1.00  0.00     0.000 C 
BRANCH  26  27
HETATM   27  C   UNL     1       2.381  13.324  91.124  1.00  0.00     0.000 C 
HETATM   28  C   UNL     1       2.310  11.949  91.778  1.00  0.00     0.000 C 
BRANCH  27  29
HETATM   29  O   UNL     1       2.169  14.323  92.122  1.00  0.00     0.000 OA
HETATM   30  H   UNL     1       2.178  15.193  91.689  1.00  0.00     0.000 HD
ENDBRANCH  27  29
ENDBRANCH  26  27
BRANCH  26  31
HETATM   31  C   UNL     1       4.423  14.806  90.992  1.00  0.00     0.000 C 
HETATM   32  O   UNL     1       4.497  15.038  92.197  1.00  0.00     0.000 OA
BRANCH  31  33
HETATM   33  P   UNL     1       4.914  15.624  90.004  1.00  0.00     0.000 P 
HETATM   34  H   UNL     1       3.858  16.349  89.492  1.00  0.00     0.000 HD
BRANCH  33  35
HETATM   35  O   UNL     1       5.550  14.977  88.935  1.00  0.00     0.000 OA
HETATM   36  H   UNL     1       5.025  15.314  88.190  1.00  0.00     0.000 HD
ENDBRANCH  33  35
ENDBRANCH  31  33
ENDBRANCH  26  31
ENDBRANCH  24  26
ENDBRANCH  19  22
ENDBRANCH  15  16
ENDBRANCH  11  14
ENDBRANCH   7   8
ENDBRANCH   2   7
TORSDOF 11
ENDMDL
