MODEL 1
REMARK VINA RESULT:      -6.7      0.000      0.000
REMARK  11 active torsions:
REMARK  status: ('A' for Active; 'I' for Inactive)
REMARK    1  A    between atoms: O_2  and  C_18 
REMARK    2  A    between atoms: O_5  and  P_8 
REMARK    3  A    between atoms: N_6  and  C_11 
REMARK    4  A    between atoms: N_7  and  C_15 
REMARK       I    between atoms: N_7  and  C_24 
REMARK    5  A    between atoms: P_8  and  C_23 
REMARK    6  A    between atoms: C_11  and  C_14 
REMARK    7  A    between atoms: C_15  and  C_18 
REMARK    8  A    between atoms: C_15  and  C_23 
REMARK    9  A    between atoms: C_21  and  C_26 
REMARK   10  A    between atoms: C_24  and  C_25 
REMARK   11  A    between atoms: C_29  and  C_32 
ROOT
HETATM    1  O   UNL     1      16.814   4.258  94.124  1.00  0.00     0.000 OA
HETATM    2  N   UNL     1      14.765   2.867  92.721  1.00  0.00     0.000 N 
HETATM    3  C   UNL     1      14.684   4.315  92.963  1.00  0.00     0.000 C 
HETATM    4  C   UNL     1      15.540   2.221  93.789  1.00  0.00     0.000 C 
HETATM    5  C   UNL     1      16.089   4.900  93.073  1.00  0.00     0.000 C 
HETATM    6  C   UNL     1      16.924   2.855  93.880  1.00  0.00     0.000 C 
ENDROOT
BRANCH   2   7
HETATM    7  C   UNL     1      13.428   2.283  92.623  1.00  0.00     0.000 C 
BRANCH   7   8
HETATM    8  C   UNL     1      12.390   3.296  92.278  1.00  0.00     0.000 A 
HETATM    9  C   UNL     1      11.746   4.007  93.291  1.00  0.00     0.000 A 
HETATM   10  C   UNL     1      10.773   4.953  92.970  1.00  0.00     0.000 A 
HETATM   11  C   UNL     1      10.446   5.189  91.635  1.00  0.00     0.000 A 
HETATM   12  C   UNL     1      11.088   4.480  90.622  1.00  0.00     0.000 A 
HETATM   13  C   UNL     1      12.061   3.533  90.943  1.00  0.00     0.000 A 
BRANCH  11  14
HETATM   14  C   UNL     1       9.449   6.161  91.305  1.00  0.00     0.000 C 
HETATM   15  C   UNL     1       8.612   6.977  91.027  1.00  0.00     0.000 C 
BRANCH  15  16
HETATM   16  C   UNL     1       7.615   7.948  90.696  1.00  0.00     0.000 A 
HETATM   17  C   UNL     1       6.340   7.534  90.312  1.00  0.00     0.000 A 
HETATM   18  C   UNL     1       5.367   8.481  89.993  1.00  0.00     0.000 A 
HETATM   19  C   UNL     1       5.691   9.820  90.065  1.00  0.00     0.000 A 
HETATM   20  C   UNL     1       6.944  10.254  90.441  1.00  0.00     0.000 A 
HETATM   21  C   UNL     1       7.918   9.308  90.761  1.00  0.00     0.000 A 
BRANCH  19  22
HETATM   22  C   UNL     1       4.655  10.828  89.722  1.00  0.00     0.000 C 
HETATM   23  O   UNL     1       3.635  10.467  89.141  1.00  0.00     0.000 OA
HETATM   24  N   UNL     1       4.920  12.131  90.120  1.00  0.00     0.000 N 
HETATM   25  HN  UNL     1       5.774  12.351  90.620  1.00  0.00     0.000 HD
BRANCH  24  26
HETATM   26  C   UNL     1       4.002  13.216  89.883  1.00  0.00     0.000 C 
BRANCH  26  27
HETATM   27  C   UNL     1       3.310  13.700  91.163  1.00  0.00     0.000 C 
HETATM   28  C   UNL     1       2.524  12.592  91.856  1.00  0.00     0.000 C 
BRANCH  27  29
HETATM   29  O   UNL     1       4.287  14.211  92.070  1.00  0.00     0.000 OA
HETATM   30  H   UNL     1       5.148  14.217  91.619  1.00  0.00     0.000 HD
ENDBRANCH  27  29
ENDBRANCH  26  27
BRANCH  26  31
HETATM   31  C   UNL     1       4.779  14.345  89.212  1.00  0.00     0.000 C 
HETATM   32  O   UNL     1       4.913  15.458  89.717  1.00  0.00     0.000 OA
BRANCH  31  33
HETATM   33  P   UNL     1       5.267  13.980  87.981  1.00  0.00     0.000 P 
HETATM   34  H   UNL     1       5.246  15.096  87.169  1.00  0.00     0.000 HD
BRANCH  33  35
HETATM   35  O   UNL     1       4.564  12.959  87.325  1.00  0.00     0.000 OA
HETATM   36  H   UNL     1       4.901  12.181  87.802  1.00  0.00     0.000 HD
ENDBRANCH  33  35
ENDBRANCH  31  33
ENDBRANCH  26  31
ENDBRANCH  24  26
ENDBRANCH  19  22
ENDBRANCH  15  16
ENDBRANCH  11  14
ENDBRANCH   7   8
ENDBRANCH   2   7
TORSDOF 11
ENDMDL
MODEL 2
REMARK VINA RESULT:      -6.0      2.022      2.907
REMARK  11 active torsions:
REMARK  status: ('A' for Active; 'I' for Inactive)
REMARK    1  A    between atoms: O_2  and  C_18 
REMARK    2  A    between atoms: O_5  and  P_8 
REMARK    3  A    between atoms: N_6  and  C_11 
REMARK    4  A    between atoms: N_7  and  C_15 
REMARK       I    between atoms: N_7  and  C_24 
REMARK    5  A    between atoms: P_8  and  C_23 
REMARK    6  A    between atoms: C_11  and  C_14 
REMARK    7  A    between atoms: C_15  and  C_18 
REMARK    8  A    between atoms: C_15  and  C_23 
REMARK    9  A    between atoms: C_21  and  C_26 
REMARK   10  A    between atoms: C_24  and  C_25 
REMARK   11  A    between atoms: C_29  and  C_32 
ROOT
HETATM    1  O   UNL     1      16.061   3.710  94.124  1.00  0.00     0.000 OA
HETATM    2  N   UNL     1      14.167   2.620  92.299  1.00  0.00     0.000 N 
HETATM    3  C   UNL     1      14.305   4.071  92.488  1.00  0.00     0.000 C 
HETATM    4  C   UNL     1      14.540   1.914  93.533  1.00  0.00     0.000 C 
HETATM    5  C   UNL     1      15.731   4.403  92.918  1.00  0.00     0.000 C 
HETATM    6  C   UNL     1      15.959   2.297  93.940  1.00  0.00     0.000 C 
ENDROOT
BRANCH   2   7
HETATM    7  C   UNL     1      12.804   2.277  91.896  1.00  0.00     0.000 C 
BRANCH   7   8
HETATM    8  C   UNL     1      11.869   3.432  92.017  1.00  0.00     0.000 A 
HETATM    9  C   UNL     1      11.422   3.839  93.275  1.00  0.00     0.000 A 
HETATM   10  C   UNL     1      10.546   4.917  93.388  1.00  0.00     0.000 A 
HETATM   11  C   UNL     1      10.118   5.591  92.244  1.00  0.00     0.000 A 
HETATM   12  C   UNL     1      10.564   5.186  90.988  1.00  0.00     0.000 A 
HETATM   13  C   UNL     1      11.440   4.107  90.874  1.00  0.00     0.000 A 
BRANCH  11  14
HETATM   14  C   UNL     1       9.221   6.699  92.361  1.00  0.00     0.000 C 
HETATM   15  C   UNL     1       8.466   7.630  92.460  1.00  0.00     0.000 C 
BRANCH  15  16
HETATM   16  C   UNL     1       7.569   8.737  92.577  1.00  0.00     0.000 A 
HETATM   17  C   UNL     1       7.813   9.733  93.523  1.00  0.00     0.000 A 
HETATM   18  C   UNL     1       6.939  10.815  93.635  1.00  0.00     0.000 A 
HETATM   19  C   UNL     1       5.843  10.876  92.801  1.00  0.00     0.000 A 
HETATM   20  C   UNL     1       5.579   9.903  91.859  1.00  0.00     0.000 A 
HETATM   21  C   UNL     1       6.452   8.821  91.746  1.00  0.00     0.000 A 
BRANCH  19  22
HETATM   22  C   UNL     1       4.911  12.027  92.923  1.00  0.00     0.000 C 
HETATM   23  O   UNL     1       4.609  12.438  94.041  1.00  0.00     0.000 OA
HETATM   24  N   UNL     1       4.463  12.576  91.729  1.00  0.00     0.000 N 
HETATM   25  HN  UNL     1       4.776  12.198  90.842  1.00  0.00     0.000 HD
BRANCH  24  26
HETATM   26  C   UNL     1       3.576  13.710  91.682  1.00  0.00     0.000 C 
BRANCH  26  27
HETATM   27  C   UNL     1       3.568  14.401  90.313  1.00  0.00     0.000 C 
HETATM   28  C   UNL     1       4.956  14.469  89.685  1.00  0.00     0.000 C 
BRANCH  27  29
HETATM   29  O   UNL     1       2.694  13.699  89.429  1.00  0.00     0.000 OA
HETATM   30  H   UNL     1       1.966  13.325  89.953  1.00  0.00     0.000 HD
ENDBRANCH  27  29
ENDBRANCH  26  27
BRANCH  26  31
HETATM   31  C   UNL     1       2.181  13.227  92.067  1.00  0.00     0.000 C 
HETATM   32  O   UNL     1       1.622  12.284  91.511  1.00  0.00     0.000 OA
BRANCH  31  33
HETATM   33  P   UNL     1       1.626  13.988  93.067  1.00  0.00     0.000 P 
HETATM   34  H   UNL     1       0.432  14.497  92.597  1.00  0.00     0.000 HD
BRANCH  33  35
HETATM   35  O   UNL     1       2.403  15.064  93.518  1.00  0.00     0.000 OA
HETATM   36  H   UNL     1       3.294  14.735  93.309  1.00  0.00     0.000 HD
ENDBRANCH  33  35
ENDBRANCH  31  33
ENDBRANCH  26  31
ENDBRANCH  24  26
ENDBRANCH  19  22
ENDBRANCH  15  16
ENDBRANCH  11  14
ENDBRANCH   7   8
ENDBRANCH   2   7
TORSDOF 11
ENDMDL
MODEL 3
REMARK VINA RESULT:      -5.7      1.605      2.003
REMARK  11 active torsions:
REMARK  status: ('A' for Active; 'I' for Inactive)
REMARK    1  A    between atoms: O_2  and  C_18 
REMARK    2  A    between atoms: O_5  and  P_8 
REMARK    3  A    between atoms: N_6  and  C_11 
REMARK    4  A    between atoms: N_7  and  C_15 
REMARK       I    between atoms: N_7  and  C_24 
REMARK    5  A    between atoms: P_8  and  C_23 
REMARK    6  A    between atoms: C_11  and  C_14 
REMARK    7  A    between atoms: C_15  and  C_18 
REMARK    8  A    between atoms: C_15  and  C_23 
REMARK    9  A    between atoms: C_21  and  C_26 
REMARK   10  A    between atoms: C_24  and  C_25 
REMARK   11  A    between atoms: C_29  and  C_32 
ROOT
HETATM    1  O   UNL     1      15.586   4.599  93.288  1.00  0.00     0.000 OA
HETATM    2  N   UNL     1      13.742   2.696  92.249  1.00  0.00     0.000 N 
HETATM    3  C   UNL     1      13.911   4.018  91.631  1.00  0.00     0.000 C 
HETATM    4  C   UNL     1      14.044   2.770  93.685  1.00  0.00     0.000 C 
HETATM    5  C   UNL     1      15.326   4.531  91.884  1.00  0.00     0.000 C 
HETATM    6  C   UNL     1      15.454   3.312  93.891  1.00  0.00     0.000 C 
ENDROOT
BRANCH   2   7
HETATM    7  C   UNL     1      12.388   2.190  92.028  1.00  0.00     0.000 C 
BRANCH   7   8
HETATM    8  C   UNL     1      11.378   3.284  91.955  1.00  0.00     0.000 A 
HETATM    9  C   UNL     1      11.171   4.115  93.056  1.00  0.00     0.000 A 
HETATM   10  C   UNL     1      10.224   5.138  92.990  1.00  0.00     0.000 A 
HETATM   11  C   UNL     1       9.487   5.329  91.821  1.00  0.00     0.000 A 
HETATM   12  C   UNL     1       9.693   4.500  90.721  1.00  0.00     0.000 A 
HETATM   13  C   UNL     1      10.639   3.477  90.787  1.00  0.00     0.000 A 
BRANCH  11  14
HETATM   14  C   UNL     1       8.518   6.379  91.753  1.00  0.00     0.000 C 
HETATM   15  C   UNL     1       7.703   7.262  91.696  1.00  0.00     0.000 C 
BRANCH  15  16
HETATM   16  C   UNL     1       6.735   8.311  91.628  1.00  0.00     0.000 A 
HETATM   17  C   UNL     1       7.140   9.641  91.745  1.00  0.00     0.000 A 
HETATM   18  C   UNL     1       6.195  10.665  91.676  1.00  0.00     0.000 A 
HETATM   19  C   UNL     1       4.869  10.337  91.491  1.00  0.00     0.000 A 
HETATM   20  C   UNL     1       4.443   9.031  91.373  1.00  0.00     0.000 A 
HETATM   21  C   UNL     1       5.386   8.006  91.442  1.00  0.00     0.000 A 
BRANCH  19  22
HETATM   22  C   UNL     1       3.862  11.428  91.420  1.00  0.00     0.000 C 
HETATM   23  O   UNL     1       2.753  11.191  90.949  1.00  0.00     0.000 OA
HETATM   24  N   UNL     1       4.261  12.657  91.927  1.00  0.00     0.000 N 
HETATM   25  HN  UNL     1       5.187  12.772  92.324  1.00  0.00     0.000 HD
BRANCH  24  26
HETATM   26  C   UNL     1       3.391  13.805  91.951  1.00  0.00     0.000 C 
BRANCH  26  27
HETATM   27  C   UNL     1       3.699  14.759  93.112  1.00  0.00     0.000 C 
HETATM   28  C   UNL     1       2.437  15.287  93.785  1.00  0.00     0.000 C 
BRANCH  27  29
HETATM   29  O   UNL     1       4.496  14.085  94.086  1.00  0.00     0.000 OA
HETATM   30  H   UNL     1       4.570  13.151  93.825  1.00  0.00     0.000 HD
ENDBRANCH  27  29
ENDBRANCH  26  27
BRANCH  26  31
HETATM   31  C   UNL     1       3.515  14.512  90.605  1.00  0.00     0.000 C 
HETATM   32  O   UNL     1       2.753  14.300  89.665  1.00  0.00     0.000 OA
BRANCH  31  33
HETATM   33  P   UNL     1       4.589  15.368  90.566  1.00  0.00     0.000 P 
HETATM   34  H   UNL     1       4.152  16.613  90.971  1.00  0.00     0.000 HD
BRANCH  33  35
HETATM   35  O   UNL     1       5.206  15.516  89.316  1.00  0.00     0.000 OA
HETATM   36  H   UNL     1       4.833  14.751  88.846  1.00  0.00     0.000 HD
ENDBRANCH  33  35
ENDBRANCH  31  33
ENDBRANCH  26  31
ENDBRANCH  24  26
ENDBRANCH  19  22
ENDBRANCH  15  16
ENDBRANCH  11  14
ENDBRANCH   7   8
ENDBRANCH   2   7
TORSDOF 11
ENDMDL
MODEL 4
REMARK VINA RESULT:      -4.8      3.519     12.719
REMARK  11 active torsions:
REMARK  status: ('A' for Active; 'I' for Inactive)
REMARK    1  A    between atoms: O_2  and  C_18 
REMARK    2  A    between atoms: O_5  and  P_8 
REMARK    3  A    between atoms: N_6  and  C_11 
REMARK    4  A    between atoms: N_7  and  C_15 
REMARK       I    between atoms: N_7  and  C_24 
REMARK    5  A    between atoms: P_8  and  C_23 
REMARK    6  A    between atoms: C_11  and  C_14 
REMARK    7  A    between atoms: C_15  and  C_18 
REMARK    8  A    between atoms: C_15  and  C_23 
REMARK    9  A    between atoms: C_21  and  C_26 
REMARK   10  A    between atoms: C_24  and  C_25 
REMARK   11  A    between atoms: C_29  and  C_32 
ROOT
HETATM    1  O   UNL     1       2.261  15.398  92.972  1.00  0.00     0.000 OA
HETATM    2  N   UNL     1       3.768  13.394  91.624  1.00  0.00     0.000 N 
HETATM    3  C   UNL     1       4.400  14.622  92.126  1.00  0.00     0.000 C 
HETATM    4  C   UNL     1       2.360  13.652  91.291  1.00  0.00     0.000 C 
HETATM    5  C   UNL     1       3.622  15.149  93.330  1.00  0.00     0.000 C 
HETATM    6  C   UNL     1       1.631  14.202  92.513  1.00  0.00     0.000 C 
ENDROOT
BRANCH   2   7
HETATM    7  C   UNL     1       4.490  12.876  90.464  1.00  0.00     0.000 C 
BRANCH   7   8
HETATM    8  C   UNL     1       5.414  11.762  90.820  1.00  0.00     0.000 A 
HETATM    9  C   UNL     1       5.394  11.225  92.108  1.00  0.00     0.000 A 
HETATM   10  C   UNL     1       6.259  10.184  92.443  1.00  0.00     0.000 A 
HETATM   11  C   UNL     1       7.144   9.680  91.490  1.00  0.00     0.000 A 
HETATM   12  C   UNL     1       7.165  10.215  90.204  1.00  0.00     0.000 A 
HETATM   13  C   UNL     1       6.300  11.257  89.868  1.00  0.00     0.000 A 
BRANCH  11  14
HETATM   14  C   UNL     1       8.030   8.610  91.833  1.00  0.00     0.000 C 
HETATM   15  C   UNL     1       8.775   7.712  92.121  1.00  0.00     0.000 C 
BRANCH  15  16
HETATM   16  C   UNL     1       9.662   6.644  92.465  1.00  0.00     0.000 A 
HETATM   17  C   UNL     1      10.065   6.472  93.789  1.00  0.00     0.000 A 
HETATM   18  C   UNL     1      10.928   5.428  94.124  1.00  0.00     0.000 A 
HETATM   19  C   UNL     1      11.367   4.581  93.129  1.00  0.00     0.000 A 
HETATM   20  C   UNL     1      10.984   4.730  91.812  1.00  0.00     0.000 A 
HETATM   21  C   UNL     1      10.121   5.774  91.476  1.00  0.00     0.000 A 
BRANCH  19  22
HETATM   22  C   UNL     1      12.288   3.471  93.486  1.00  0.00     0.000 C 
HETATM   23  O   UNL     1      11.843   2.329  93.577  1.00  0.00     0.000 OA
HETATM   24  N   UNL     1      13.618   3.819  93.669  1.00  0.00     0.000 N 
HETATM   25  HN  UNL     1      13.917   4.780  93.553  1.00  0.00     0.000 HD
BRANCH  24  26
HETATM   26  C   UNL     1      14.636   2.852  93.995  1.00  0.00     0.000 C 
BRANCH  26  27
HETATM   27  C   UNL     1      14.642   1.653  93.039  1.00  0.00     0.000 C 
HETATM   28  C   UNL     1      15.558   1.867  91.839  1.00  0.00     0.000 C 
BRANCH  27  29
HETATM   29  O   UNL     1      15.064   0.485  93.742  1.00  0.00     0.000 OA
HETATM   30  H   UNL     1      15.387  -0.162  93.092  1.00  0.00     0.000 HD
ENDBRANCH  27  29
ENDBRANCH  26  27
BRANCH  26  31
HETATM   31  C   UNL     1      15.981   3.572  93.991  1.00  0.00     0.000 C 
HETATM   32  O   UNL     1      17.057   2.979  94.018  1.00  0.00     0.000 OA
BRANCH  31  33
HETATM   33  P   UNL     1      15.838   4.938  93.992  1.00  0.00     0.000 P 
HETATM   34  H   UNL     1      14.489   5.223  94.035  1.00  0.00     0.000 HD
BRANCH  33  35
HETATM   35  O   UNL     1      16.384   5.609  92.888  1.00  0.00     0.000 OA
HETATM   36  H   UNL     1      16.472   4.871  92.261  1.00  0.00     0.000 HD
ENDBRANCH  33  35
ENDBRANCH  31  33
ENDBRANCH  26  31
ENDBRANCH  24  26
ENDBRANCH  19  22
ENDBRANCH  15  16
ENDBRANCH  11  14
ENDBRANCH   7   8
ENDBRANCH   2   7
TORSDOF 11
ENDMDL
MODEL 5
REMARK VINA RESULT:      -4.8      1.308      2.022
REMARK  11 active torsions:
REMARK  status: ('A' for Active; 'I' for Inactive)
REMARK    1  A    between atoms: O_2  and  C_18 
REMARK    2  A    between atoms: O_5  and  P_8 
REMARK    3  A    between atoms: N_6  and  C_11 
REMARK    4  A    between atoms: N_7  and  C_15 
REMARK       I    between atoms: N_7  and  C_24 
REMARK    5  A    between atoms: P_8  and  C_23 
REMARK    6  A    between atoms: C_11  and  C_14 
REMARK    7  A    between atoms: C_15  and  C_18 
REMARK    8  A    between atoms: C_15  and  C_23 
REMARK    9  A    between atoms: C_21  and  C_26 
REMARK   10  A    between atoms: C_24  and  C_25 
REMARK   11  A    between atoms: C_29  and  C_32 
ROOT
HETATM    1  O   UNL     1      16.568   4.153  93.346  1.00  0.00     0.000 OA
HETATM    2  N   UNL     1      14.042   2.911  93.769  1.00  0.00     0.000 N 
HETATM    3  C   UNL     1      15.106   2.246  93.004  1.00  0.00     0.000 C 
HETATM    4  C   UNL     1      14.170   4.370  93.647  1.00  0.00     0.000 C 
HETATM    5  C   UNL     1      16.470   2.734  93.485  1.00  0.00     0.000 C 
HETATM    6  C   UNL     1      15.556   4.808  94.112  1.00  0.00     0.000 C 
ENDROOT
BRANCH   2   7
HETATM    7  C   UNL     1      12.724   2.466  93.318  1.00  0.00     0.000 C 
BRANCH   7   8
HETATM    8  C   UNL     1      11.867   3.598  92.865  1.00  0.00     0.000 A 
HETATM    9  C   UNL     1      11.296   4.459  93.803  1.00  0.00     0.000 A 
HETATM   10  C   UNL     1      10.492   5.517  93.381  1.00  0.00     0.000 A 
HETATM   11  C   UNL     1      10.260   5.715  92.020  1.00  0.00     0.000 A 
HETATM   12  C   UNL     1      10.830   4.857  91.082  1.00  0.00     0.000 A 
HETATM   13  C   UNL     1      11.634   3.798  91.504  1.00  0.00     0.000 A 
BRANCH  11  14
HETATM   14  C   UNL     1       9.437   6.802  91.586  1.00  0.00     0.000 C 
HETATM   15  C   UNL     1       8.746   7.716  91.222  1.00  0.00     0.000 C 
BRANCH  15  16
HETATM   16  C   UNL     1       7.923   8.801  90.788  1.00  0.00     0.000 A 
HETATM   17  C   UNL     1       8.463   9.808  89.986  1.00  0.00     0.000 A 
HETATM   18  C   UNL     1       7.659  10.865  89.561  1.00  0.00     0.000 A 
HETATM   19  C   UNL     1       6.335  10.893  89.945  1.00  0.00     0.000 A 
HETATM   20  C   UNL     1       5.778   9.911  90.736  1.00  0.00     0.000 A 
HETATM   21  C   UNL     1       6.580   8.852  91.163  1.00  0.00     0.000 A 
BRANCH  19  22
HETATM   22  C   UNL     1       5.480  12.021  89.493  1.00  0.00     0.000 C 
HETATM   23  O   UNL     1       5.523  12.372  88.316  1.00  0.00     0.000 OA
HETATM   24  N   UNL     1       4.660  12.587  90.459  1.00  0.00     0.000 N 
HETATM   25  HN  UNL     1       4.659  12.227  91.406  1.00  0.00     0.000 HD
BRANCH  24  26
HETATM   26  C   UNL     1       3.756  13.672  90.170  1.00  0.00     0.000 C 
BRANCH  26  27
HETATM   27  C   UNL     1       2.501  13.650  91.052  1.00  0.00     0.000 C 
HETATM   28  C   UNL     1       1.309  14.329  90.388  1.00  0.00     0.000 C 
BRANCH  27  29
HETATM   29  O   UNL     1       2.155  12.299  91.355  1.00  0.00     0.000 OA
HETATM   30  H   UNL     1       1.720  11.913  90.576  1.00  0.00     0.000 HD
ENDBRANCH  27  29
ENDBRANCH  26  27
BRANCH  26  31
HETATM   31  C   UNL     1       4.528  14.977  90.336  1.00  0.00     0.000 C 
HETATM   32  O   UNL     1       4.961  15.624  89.384  1.00  0.00     0.000 OA
BRANCH  31  33
HETATM   33  P   UNL     1       4.707  15.310  91.657  1.00  0.00     0.000 P 
HETATM   34  H   UNL     1       6.065  15.383  91.894  1.00  0.00     0.000 HD
BRANCH  33  35
HETATM   35  O   UNL     1       4.155  14.421  92.590  1.00  0.00     0.000 OA
HETATM   36  H   UNL     1       4.332  14.903  93.416  1.00  0.00     0.000 HD
ENDBRANCH  33  35
ENDBRANCH  31  33
ENDBRANCH  26  31
ENDBRANCH  24  26
ENDBRANCH  19  22
ENDBRANCH  15  16
ENDBRANCH  11  14
ENDBRANCH   7   8
ENDBRANCH   2   7
TORSDOF 11
ENDMDL
MODEL 6
REMARK VINA RESULT:      -4.5      3.833     12.500
REMARK  11 active torsions:
REMARK  status: ('A' for Active; 'I' for Inactive)
REMARK    1  A    between atoms: O_2  and  C_18 
REMARK    2  A    between atoms: O_5  and  P_8 
REMARK    3  A    between atoms: N_6  and  C_11 
REMARK    4  A    between atoms: N_7  and  C_15 
REMARK       I    between atoms: N_7  and  C_24 
REMARK    5  A    between atoms: P_8  and  C_23 
REMARK    6  A    between atoms: C_11  and  C_14 
REMARK    7  A    between atoms: C_15  and  C_18 
REMARK    8  A    between atoms: C_15  and  C_23 
REMARK    9  A    between atoms: C_21  and  C_26 
REMARK   10  A    between atoms: C_24  and  C_25 
REMARK   11  A    between atoms: C_29  and  C_32 
ROOT
HETATM    1  O   UNL     1       3.461  14.319  90.063  1.00  0.00     0.000 OA
HETATM    2  N   UNL     1       2.751  13.674  92.743  1.00  0.00     0.000 N 
HETATM    3  C   UNL     1       4.079  14.206  92.407  1.00  0.00     0.000 C 
HETATM    4  C   UNL     1       2.205  12.927  91.602  1.00  0.00     0.000 C 
HETATM    5  C   UNL     1       3.987  15.075  91.155  1.00  0.00     0.000 C 
HETATM    6  C   UNL     1       2.157  13.824  90.370  1.00  0.00     0.000 C 
ENDROOT
BRANCH   2   7
HETATM    7  C   UNL     1       2.818  12.830  93.934  1.00  0.00     0.000 C 
BRANCH   7   8
HETATM    8  C   UNL     1       3.839  11.751  93.809  1.00  0.00     0.000 A 
HETATM    9  C   UNL     1       5.196  12.060  93.915  1.00  0.00     0.000 A 
HETATM   10  C   UNL     1       6.152  11.052  93.795  1.00  0.00     0.000 A 
HETATM   11  C   UNL     1       5.751   9.735  93.572  1.00  0.00     0.000 A 
HETATM   12  C   UNL     1       4.397   9.425  93.467  1.00  0.00     0.000 A 
HETATM   13  C   UNL     1       3.440  10.433  93.585  1.00  0.00     0.000 A 
BRANCH  11  14
HETATM   14  C   UNL     1       6.733   8.700  93.452  1.00  0.00     0.000 C 
HETATM   15  C   UNL     1       7.557   7.831  93.350  1.00  0.00     0.000 C 
BRANCH  15  16
HETATM   16  C   UNL     1       8.538   6.798  93.229  1.00  0.00     0.000 A 
HETATM   17  C   UNL     1       9.607   6.745  94.124  1.00  0.00     0.000 A 
HETATM   18  C   UNL     1      10.563   5.736  94.008  1.00  0.00     0.000 A 
HETATM   19  C   UNL     1      10.427   4.802  93.001  1.00  0.00     0.000 A 
HETATM   20  C   UNL     1       9.380   4.833  92.105  1.00  0.00     0.000 A 
HETATM   21  C   UNL     1       8.424   5.842  92.220  1.00  0.00     0.000 A 
BRANCH  19  22
HETATM   22  C   UNL     1      11.446   3.728  92.877  1.00  0.00     0.000 C 
HETATM   23  O   UNL     1      11.082   2.555  92.855  1.00  0.00     0.000 OA
HETATM   24  N   UNL     1      12.764   4.150  92.768  1.00  0.00     0.000 N 
HETATM   25  HN  UNL     1      12.988   5.138  92.769  1.00  0.00     0.000 HD
BRANCH  24  26
HETATM   26  C   UNL     1      13.863   3.230  92.616  1.00  0.00     0.000 C 
BRANCH  26  27
HETATM   27  C   UNL     1      14.360   3.132  91.168  1.00  0.00     0.000 C 
HETATM   28  C   UNL     1      13.906   4.311  90.314  1.00  0.00     0.000 C 
BRANCH  27  29
HETATM   29  O   UNL     1      15.786   3.073  91.156  1.00  0.00     0.000 OA
HETATM   30  H   UNL     1      16.127   3.976  91.045  1.00  0.00     0.000 HD
ENDBRANCH  27  29
ENDBRANCH  26  27
BRANCH  26  31
HETATM   31  C   UNL     1      14.978   3.678  93.556  1.00  0.00     0.000 C 
HETATM   32  O   UNL     1      15.234   4.860  93.776  1.00  0.00     0.000 OA
BRANCH  31  33
HETATM   33  P   UNL     1      15.670   2.615  94.083  1.00  0.00     0.000 P 
HETATM   34  H   UNL     1      15.550   2.672  95.457  1.00  0.00     0.000 HD
BRANCH  33  35
HETATM   35  O   UNL     1      17.036   2.562  93.773  1.00  0.00     0.000 OA
HETATM   36  H   UNL     1      17.013   2.825  92.837  1.00  0.00     0.000 HD
ENDBRANCH  33  35
ENDBRANCH  31  33
ENDBRANCH  26  31
ENDBRANCH  24  26
ENDBRANCH  19  22
ENDBRANCH  15  16
ENDBRANCH  11  14
ENDBRANCH   7   8
ENDBRANCH   2   7
TORSDOF 11
ENDMDL
MODEL 7
REMARK VINA RESULT:      -3.9      3.561     12.340
REMARK  11 active torsions:
REMARK  status: ('A' for Active; 'I' for Inactive)
REMARK    1  A    between atoms: O_2  and  C_18 
REMARK    2  A    between atoms: O_5  and  P_8 
REMARK    3  A    between atoms: N_6  and  C_11 
REMARK    4  A    between atoms: N_7  and  C_15 
REMARK       I    between atoms: N_7  and  C_24 
REMARK    5  A    between atoms: P_8  and  C_23 
REMARK    6  A    between atoms: C_11  and  C_14 
REMARK    7  A    between atoms: C_15  and  C_18 
REMARK    8  A    between atoms: C_15  and  C_23 
REMARK    9  A    between atoms: C_21  and  C_26 
REMARK   10  A    between atoms: C_24  and  C_25 
REMARK   11  A    between atoms: C_29  and  C_32 
ROOT
HETATM    1  O   UNL     1       3.764  15.445  92.521  1.00  0.00     0.000 OA
HETATM    2  N   UNL     1       1.974  13.258  92.184  1.00  0.00     0.000 N 
HETATM    3  C   UNL     1       2.262  13.817  93.512  1.00  0.00     0.000 C 
HETATM    4  C   UNL     1       3.129  13.451  91.295  1.00  0.00     0.000 C 
HETATM    5  C   UNL     1       2.635  15.292  93.383  1.00  0.00     0.000 C 
HETATM    6  C   UNL     1       3.482  14.933  91.219  1.00  0.00     0.000 C 
ENDROOT
BRANCH   2   7
HETATM    7  C   UNL     1       1.625  11.842  92.282  1.00  0.00     0.000 C 
BRANCH   7   8
HETATM    8  C   UNL     1       2.823  10.957  92.235  1.00  0.00     0.000 A 
HETATM    9  C   UNL     1       3.633  10.820  93.364  1.00  0.00     0.000 A 
HETATM   10  C   UNL     1       4.755   9.994  93.320  1.00  0.00     0.000 A 
HETATM   11  C   UNL     1       5.067   9.303  92.149  1.00  0.00     0.000 A 
HETATM   12  C   UNL     1       4.259   9.439  91.022  1.00  0.00     0.000 A 
HETATM   13  C   UNL     1       3.136  10.266  91.065  1.00  0.00     0.000 A 
BRANCH  11  14
HETATM   14  C   UNL     1       6.217   8.454  92.105  1.00  0.00     0.000 C 
HETATM   15  C   UNL     1       7.184   7.740  92.068  1.00  0.00     0.000 C 
BRANCH  15  16
HETATM   16  C   UNL     1       8.334   6.892  92.024  1.00  0.00     0.000 A 
HETATM   17  C   UNL     1       8.802   6.292  93.194  1.00  0.00     0.000 A 
HETATM   18  C   UNL     1       9.923   5.463  93.150  1.00  0.00     0.000 A 
HETATM   19  C   UNL     1      10.549   5.251  91.940  1.00  0.00     0.000 A 
HETATM   20  C   UNL     1      10.107   5.833  90.770  1.00  0.00     0.000 A 
HETATM   21  C   UNL     1       8.986   6.663  90.813  1.00  0.00     0.000 A 
BRANCH  19  22
HETATM   22  C   UNL     1      11.744   4.369  91.895  1.00  0.00     0.000 C 
HETATM   23  O   UNL     1      12.081   3.870  90.824  1.00  0.00     0.000 OA
HETATM   24  N   UNL     1      12.417   4.195  93.096  1.00  0.00     0.000 N 
HETATM   25  HN  UNL     1      12.095   4.660  93.937  1.00  0.00     0.000 HD
BRANCH  24  26
HETATM   26  C   UNL     1      13.606   3.389  93.209  1.00  0.00     0.000 C 
BRANCH  26  27
HETATM   27  C   UNL     1      13.535   2.105  92.373  1.00  0.00     0.000 C 
HETATM   28  C   UNL     1      14.464   1.015  92.895  1.00  0.00     0.000 C 
BRANCH  27  29
HETATM   29  O   UNL     1      12.196   1.611  92.370  1.00  0.00     0.000 OA
HETATM   30  H   UNL     1      12.137   0.892  91.718  1.00  0.00     0.000 HD
ENDBRANCH  27  29
ENDBRANCH  26  27
BRANCH  26  31
HETATM   31  C   UNL     1      14.795   4.252  92.799  1.00  0.00     0.000 C 
HETATM   32  O   UNL     1      14.893   4.773  91.690  1.00  0.00     0.000 OA
BRANCH  31  33
HETATM   33  P   UNL     1      15.739   4.340  93.793  1.00  0.00     0.000 P 
HETATM   34  H   UNL     1      15.179   3.849  94.955  1.00  0.00     0.000 HD
BRANCH  33  35
HETATM   35  O   UNL     1      16.225   5.628  94.061  1.00  0.00     0.000 OA
HETATM   36  H   UNL     1      17.085   5.410  94.460  1.00  0.00     0.000 HD
ENDBRANCH  33  35
ENDBRANCH  31  33
ENDBRANCH  26  31
ENDBRANCH  24  26
ENDBRANCH  19  22
ENDBRANCH  15  16
ENDBRANCH  11  14
ENDBRANCH   7   8
ENDBRANCH   2   7
TORSDOF 11
ENDMDL
MODEL 8
REMARK VINA RESULT:      -3.8      3.501     12.423
REMARK  11 active torsions:
REMARK  status: ('A' for Active; 'I' for Inactive)
REMARK    1  A    between atoms: O_2  and  C_18 
REMARK    2  A    between atoms: O_5  and  P_8 
REMARK    3  A    between atoms: N_6  and  C_11 
REMARK    4  A    between atoms: N_7  and  C_15 
REMARK       I    between atoms: N_7  and  C_24 
REMARK    5  A    between atoms: P_8  and  C_23 
REMARK    6  A    between atoms: C_11  and  C_14 
REMARK    7  A    between atoms: C_15  and  C_18 
REMARK    8  A    between atoms: C_15  and  C_23 
REMARK    9  A    between atoms: C_21  and  C_26 
REMARK   10  A    between atoms: C_24  and  C_25 
REMARK   11  A    between atoms: C_29  and  C_32 
ROOT
HETATM    1  O   UNL     1       5.489  14.913  89.246  1.00  0.00     0.000 OA
HETATM    2  N   UNL     1       3.569  13.049  90.215  1.00  0.00     0.000 N 
HETATM    3  C   UNL     1       3.885  14.279  90.954  1.00  0.00     0.000 C 
HETATM    4  C   UNL     1       4.736  12.615  89.436  1.00  0.00     0.000 C 
HETATM    5  C   UNL     1       4.349  15.361  89.982  1.00  0.00     0.000 C 
HETATM    6  C   UNL     1       5.180  13.735  88.501  1.00  0.00     0.000 C 
ENDROOT
BRANCH   2   7
HETATM    7  C   UNL     1       3.132  11.995  91.129  1.00  0.00     0.000 C 
BRANCH   7   8
HETATM    8  C   UNL     1       4.190  10.971  91.362  1.00  0.00     0.000 A 
HETATM    9  C   UNL     1       5.277  11.268  92.186  1.00  0.00     0.000 A 
HETATM   10  C   UNL     1       6.269  10.312  92.403  1.00  0.00     0.000 A 
HETATM   11  C   UNL     1       6.172   9.059  91.798  1.00  0.00     0.000 A 
HETATM   12  C   UNL     1       5.088   8.761  90.976  1.00  0.00     0.000 A 
HETATM   13  C   UNL     1       4.096   9.717  90.758  1.00  0.00     0.000 A 
BRANCH  11  14
HETATM   14  C   UNL     1       7.189   8.077  92.023  1.00  0.00     0.000 C 
HETATM   15  C   UNL     1       8.043   7.252  92.212  1.00  0.00     0.000 C 
BRANCH  15  16
HETATM   16  C   UNL     1       9.058   6.271  92.435  1.00  0.00     0.000 A 
HETATM   17  C   UNL     1       9.447   5.422  91.398  1.00  0.00     0.000 A 
HETATM   18  C   UNL     1      10.440   4.467  91.616  1.00  0.00     0.000 A 
HETATM   19  C   UNL     1      11.021   4.382  92.864  1.00  0.00     0.000 A 
HETATM   20  C   UNL     1      10.654   5.209  93.905  1.00  0.00     0.000 A 
HETATM   21  C   UNL     1       9.661   6.164  93.689  1.00  0.00     0.000 A 
BRANCH  19  22
HETATM   22  C   UNL     1      12.077   3.363  93.096  1.00  0.00     0.000 C 
HETATM   23  O   UNL     1      11.759   2.180  93.193  1.00  0.00     0.000 OA
HETATM   24  N   UNL     1      13.379   3.840  93.161  1.00  0.00     0.000 N 
HETATM   25  HN  UNL     1      13.569   4.829  93.047  1.00  0.00     0.000 HD
BRANCH  24  26
HETATM   26  C   UNL     1      14.514   2.974  93.357  1.00  0.00     0.000 C 
BRANCH  26  27
HETATM   27  C   UNL     1      14.929   2.241  92.075  1.00  0.00     0.000 C 
HETATM   28  C   UNL     1      14.929   3.155  90.855  1.00  0.00     0.000 C 
BRANCH  27  29
HETATM   29  O   UNL     1      16.236   1.691  92.242  1.00  0.00     0.000 OA
HETATM   30  H   UNL     1      16.463   1.726  93.187  1.00  0.00     0.000 HD
ENDBRANCH  27  29
ENDBRANCH  26  27
BRANCH  26  31
HETATM   31  C   UNL     1      15.657   3.820  93.907  1.00  0.00     0.000 C 
HETATM   32  O   UNL     1      15.562   5.032  94.096  1.00  0.00     0.000 OA
BRANCH  31  33
HETATM   33  P   UNL     1      16.794   3.080  94.124  1.00  0.00     0.000 P 
HETATM   34  H   UNL     1      16.881   2.825  95.477  1.00  0.00     0.000 HD
BRANCH  33  35
HETATM   35  O   UNL     1      17.996   3.677  93.720  1.00  0.00     0.000 OA
HETATM   36  H   UNL     1      18.198   3.147  92.931  1.00  0.00     0.000 HD
ENDBRANCH  33  35
ENDBRANCH  31  33
ENDBRANCH  26  31
ENDBRANCH  24  26
ENDBRANCH  19  22
ENDBRANCH  15  16
ENDBRANCH  11  14
ENDBRANCH   7   8
ENDBRANCH   2   7
TORSDOF 11
ENDMDL
