MODEL 1
REMARK VINA RESULT:      -6.6      0.000      0.000
REMARK  14 active torsions:
REMARK  status: ('A' for Active; 'I' for Inactive)
REMARK    1  A    between atoms: O_2  and  C_18 
REMARK    2  A    between atoms: C_5  and  C_8 
REMARK    3  A    between atoms: C_5  and  O_35 
REMARK    4  A    between atoms: C_5  and  C_36 
REMARK    5  A    between atoms: N_6  and  C_11 
REMARK    6  A    between atoms: N_7  and  C_15 
REMARK       I    between atoms: N_7  and  C_24 
REMARK    7  A    between atoms: C_8  and  C_23 
REMARK    8  A    between atoms: C_11  and  C_14 
REMARK    9  A    between atoms: C_15  and  C_18 
REMARK   10  A    between atoms: C_15  and  C_23 
REMARK   11  A    between atoms: C_21  and  C_26 
REMARK   12  A    between atoms: C_24  and  C_25 
REMARK   13  A    between atoms: C_29  and  C_32 
REMARK   14  A    between atoms: C_36  and  O_39 
ROOT
HETATM    1  O   UNL     1      16.927   3.809  93.828  1.00  0.00    -0.350 OA
HETATM    2  N   UNL     1      14.350   2.998  92.930  1.00  0.00     0.147 N 
HETATM    3  C   UNL     1      15.461   2.042  93.040  1.00  0.00     0.283 C 
HETATM    4  C   UNL     1      14.870   4.345  92.659  1.00  0.00     0.283 C 
HETATM    5  C   UNL     1      16.433   2.501  94.124  1.00  0.00     0.178 C 
HETATM    6  C   UNL     1      15.855   4.750  93.751  1.00  0.00     0.178 C 
ENDROOT
BRANCH   2   7
HETATM    7  C   UNL     1      13.412   2.583  91.889  1.00  0.00     0.277 C 
BRANCH   7   8
HETATM    8  C   UNL     1      12.259   3.519  91.758  1.00  0.00     0.011 A 
HETATM    9  C   UNL     1      11.574   3.945  92.896  1.00  0.00    -0.002 A 
HETATM   10  C   UNL     1      10.494   4.819  92.775  1.00  0.00     0.008 A 
HETATM   11  C   UNL     1      10.101   5.269  91.514  1.00  0.00     0.042 A 
HETATM   12  C   UNL     1      10.785   4.845  90.377  1.00  0.00     0.008 A 
HETATM   13  C   UNL     1      11.864   3.970  90.498  1.00  0.00    -0.002 A 
BRANCH  11  14
HETATM   14  C   UNL     1       8.995   6.167  91.390  1.00  0.00    -0.059 C 
HETATM   15  C   UNL     1       8.065   6.922  91.284  1.00  0.00    -0.059 C 
BRANCH  15  16
HETATM   16  C   UNL     1       6.959   7.819  91.160  1.00  0.00     0.042 A 
HETATM   17  C   UNL     1       6.468   8.149  89.896  1.00  0.00     0.008 A 
HETATM   18  C   UNL     1       5.388   9.022  89.775  1.00  0.00     0.005 A 
HETATM   19  C   UNL     1       4.821   9.545  90.919  1.00  0.00     0.056 A 
HETATM   20  C   UNL     1       5.288   9.235  92.179  1.00  0.00     0.005 A 
HETATM   21  C   UNL     1       6.369   8.362  92.301  1.00  0.00     0.008 A 
BRANCH  19  22
HETATM   22  C   UNL     1       3.671  10.477  90.789  1.00  0.00     0.254 C 
HETATM   23  O   UNL     1       2.777  10.218  89.987  1.00  0.00    -0.268 OA
HETATM   24  N   UNL     1       3.688  11.584  91.626  1.00  0.00    -0.335 N 
HETATM   25  HN  UNL     1       4.448  11.719  92.282  1.00  0.00     0.164 HD
BRANCH  24  26
HETATM   26  C   UNL     1       2.633  12.565  91.636  1.00  0.00     0.169 C 
BRANCH  26  27
HETATM   27  C   UNL     1       2.362  13.132  93.036  1.00  0.00     0.138 C 
HETATM   28  C   UNL     1       3.645  13.405  93.813  1.00  0.00     0.034 C 
BRANCH  27  29
HETATM   29  O   UNL     1       1.620  14.346  92.924  1.00  0.00    -0.383 OA
HETATM   30  H   UNL     1       0.676  14.135  93.013  1.00  0.00     0.210 HD
ENDBRANCH  27  29
ENDBRANCH  26  27
BRANCH  26  31
HETATM   31  C   UNL     1       3.014  13.668  90.655  1.00  0.00     0.194 C 
HETATM   32  O   UNL     1       2.206  14.488  90.223  1.00  0.00    -0.289 OA
BRANCH  31  33
HETATM   33  C   UNL     1       4.337  13.607  90.293  1.00  0.00     0.053 C 
BRANCH  33  34
HETATM   34  C   UNL     1       4.616  13.895  88.949  1.00  0.00     0.220 C 
BRANCH  34  35
HETATM   35  O   UNL     1       5.708  14.493  88.907  1.00  0.00    -0.371 OA
HETATM   36  H   UNL     1       6.160  13.991  89.569  1.00  0.00     0.211 HD
ENDBRANCH  34  35
BRANCH  34  37
HETATM   37  C   UNL     1       4.596  12.762  88.118  1.00  0.00     0.185 C 
HETATM   38  O   UNL     1       5.912  12.849  88.237  1.00  0.00    -0.647 OA
BRANCH  37  39
HETATM   39  O   UNL     1       3.772  12.103  87.558  1.00  0.00    -0.774 OA
HETATM   40  H   UNL     1       3.877  11.001  87.808  1.00  0.00     0.167 HD
ENDBRANCH  37  39
ENDBRANCH  34  37
ENDBRANCH  33  34
ENDBRANCH  31  33
ENDBRANCH  26  31
ENDBRANCH  24  26
ENDBRANCH  19  22
ENDBRANCH  15  16
ENDBRANCH  11  14
ENDBRANCH   7   8
ENDBRANCH   2   7
TORSDOF 14
ENDMDL
