MODEL 1
REMARK VINA RESULT:      -6.2      0.000      0.000
REMARK  12 active torsions:
REMARK  status: ('A' for Active; 'I' for Inactive)
REMARK    1  A    between atoms: O_2  and  C_16 
REMARK    2  A    between atoms: N_5  and  C_9 
REMARK    3  A    between atoms: N_6  and  C_13 
REMARK       I    between atoms: N_6  and  C_22 
REMARK    4  A    between atoms: C_9  and  C_12 
REMARK    5  A    between atoms: C_13  and  C_16 
REMARK    6  A    between atoms: C_13  and  C_21 
REMARK    7  A    between atoms: C_19  and  C_24 
REMARK    8  A    between atoms: C_21  and  C_33 
REMARK    9  A    between atoms: C_22  and  C_23 
REMARK   10  A    between atoms: C_27  and  C_30 
REMARK   11  A    between atoms: C_33  and  C_34 
REMARK   12  A    between atoms: C_34  and  C_35 
ROOT
HETATM    1  O   UNL     1      16.597   3.193  93.980  1.00  0.00    -0.350 OA
HETATM    2  N   UNL     1      14.121   3.065  92.582  1.00  0.00     0.147 N 
HETATM    3  C   UNL     1      14.910   1.857  92.858  1.00  0.00     0.283 C 
HETATM    4  C   UNL     1      15.008   4.231  92.469  1.00  0.00     0.283 C 
HETATM    5  C   UNL     1      15.739   2.059  94.124  1.00  0.00     0.178 C 
HETATM    6  C   UNL     1      15.835   4.377  93.742  1.00  0.00     0.178 C 
ENDROOT
BRANCH   2   7
HETATM    7  C   UNL     1      13.326   2.898  91.367  1.00  0.00     0.277 C 
BRANCH   7   8
HETATM    8  C   UNL     1      12.126   3.782  91.346  1.00  0.00     0.011 A 
HETATM    9  C   UNL     1      11.445   4.059  92.532  1.00  0.00    -0.002 A 
HETATM   10  C   UNL     1      10.321   4.885  92.514  1.00  0.00     0.008 A 
HETATM   11  C   UNL     1       9.880   5.435  91.311  1.00  0.00     0.042 A 
HETATM   12  C   UNL     1      10.560   5.159  90.126  1.00  0.00     0.008 A 
HETATM   13  C   UNL     1      11.684   4.333  90.143  1.00  0.00    -0.002 A 
BRANCH  11  14
HETATM   14  C   UNL     1       8.729   6.284  91.293  1.00  0.00    -0.059 C 
HETATM   15  C   UNL     1       7.761   6.997  91.278  1.00  0.00    -0.059 C 
BRANCH  15  16
HETATM   16  C   UNL     1       6.610   7.845  91.261  1.00  0.00     0.042 A 
HETATM   17  C   UNL     1       5.404   7.373  90.742  1.00  0.00     0.008 A 
HETATM   18  C   UNL     1       4.281   8.200  90.728  1.00  0.00     0.005 A 
HETATM   19  C   UNL     1       4.389   9.479  91.233  1.00  0.00     0.056 A 
HETATM   20  C   UNL     1       5.569   9.969  91.751  1.00  0.00     0.005 A 
HETATM   21  C   UNL     1       6.693   9.143  91.765  1.00  0.00     0.008 A 
BRANCH  19  22
HETATM   22  C   UNL     1       3.193  10.361  91.215  1.00  0.00     0.254 C 
HETATM   23  O   UNL     1       2.086   9.866  91.017  1.00  0.00    -0.268 OA
HETATM   24  N   UNL     1       3.426  11.707  91.456  1.00  0.00    -0.335 N 
HETATM   25  HN  UNL     1       4.366  12.041  91.636  1.00  0.00     0.164 HD
BRANCH  24  26
HETATM   26  C   UNL     1       2.367  12.683  91.495  1.00  0.00     0.166 C 
BRANCH  26  27
HETATM   27  C   UNL     1       2.183  13.304  92.886  1.00  0.00     0.138 C 
HETATM   28  C   UNL     1       3.480  13.335  93.688  1.00  0.00     0.034 C 
BRANCH  27  29
HETATM   29  O   UNL     1       1.689  14.636  92.753  1.00  0.00    -0.383 OA
HETATM   30  H   UNL     1       1.575  14.826  91.807  1.00  0.00     0.210 HD
ENDBRANCH  27  29
ENDBRANCH  26  27
BRANCH  26  31
HETATM   31  C   UNL     1       2.676  13.749  90.449  1.00  0.00     0.181 C 
HETATM   32  O   UNL     1       1.921  14.689  90.207  1.00  0.00    -0.294 OA
BRANCH  31  33
HETATM   33  C   UNL     1       4.147  14.396  90.665  1.00  0.00     0.138 C 
BRANCH  33  34
HETATM   34  C   UNL     1       4.627  14.432  89.337  1.00  0.00     0.208 C 
HETATM   35  O   UNL     1       5.140  15.469  88.984  1.00  0.00    -0.289 OA
BRANCH  34  36
HETATM   36  C   UNL     1       4.879  13.416  88.457  1.00  0.00     0.194 C 
HETATM   37  O   UNL     1       5.840  12.400  88.499  1.00  0.00    -0.185 OA
ENDBRANCH  34  36
ENDBRANCH  33  34
ENDBRANCH  31  33
ENDBRANCH  26  31
ENDBRANCH  24  26
ENDBRANCH  19  22
ENDBRANCH  15  16
ENDBRANCH  11  14
ENDBRANCH   7   8
ENDBRANCH   2   7
TORSDOF 12
ENDMDL
MODEL 2
REMARK VINA RESULT:      -6.1      2.516      3.870
REMARK  12 active torsions:
REMARK  status: ('A' for Active; 'I' for Inactive)
REMARK    1  A    between atoms: O_2  and  C_16 
REMARK    2  A    between atoms: N_5  and  C_9 
REMARK    3  A    between atoms: N_6  and  C_13 
REMARK       I    between atoms: N_6  and  C_22 
REMARK    4  A    between atoms: C_9  and  C_12 
REMARK    5  A    between atoms: C_13  and  C_16 
REMARK    6  A    between atoms: C_13  and  C_21 
REMARK    7  A    between atoms: C_19  and  C_24 
REMARK    8  A    between atoms: C_21  and  C_33 
REMARK    9  A    between atoms: C_22  and  C_23 
REMARK   10  A    between atoms: C_27  and  C_30 
REMARK   11  A    between atoms: C_33  and  C_34 
REMARK   12  A    between atoms: C_34  and  C_35 
ROOT
HETATM    1  O   UNL     1      17.364   4.777  93.399  1.00  0.00    -0.350 OA
HETATM    2  N   UNL     1      15.351   2.899  94.123  1.00  0.00     0.147 N 
HETATM    3  C   UNL     1      16.568   2.484  93.412  1.00  0.00     0.283 C 
HETATM    4  C   UNL     1      15.019   4.290  93.784  1.00  0.00     0.283 C 
HETATM    5  C   UNL     1      17.714   3.436  93.748  1.00  0.00     0.178 C 
HETATM    6  C   UNL     1      16.200   5.199  94.110  1.00  0.00     0.178 C 
ENDROOT
BRANCH   2   7
HETATM    7  C   UNL     1      14.237   2.007  93.807  1.00  0.00     0.277 C 
BRANCH   7   8
HETATM    8  C   UNL     1      13.161   2.693  93.036  1.00  0.00     0.011 A 
HETATM    9  C   UNL     1      12.136   3.357  93.711  1.00  0.00    -0.002 A 
HETATM   10  C   UNL     1      11.127   3.997  92.991  1.00  0.00     0.008 A 
HETATM   11  C   UNL     1      11.146   3.974  91.597  1.00  0.00     0.042 A 
HETATM   12  C   UNL     1      12.169   3.312  90.922  1.00  0.00     0.008 A 
HETATM   13  C   UNL     1      13.178   2.671  91.642  1.00  0.00    -0.002 A 
BRANCH  11  14
HETATM   14  C   UNL     1      10.112   4.633  90.859  1.00  0.00    -0.059 C 
HETATM   15  C   UNL     1       9.244   5.186  90.237  1.00  0.00    -0.059 C 
BRANCH  15  16
HETATM   16  C   UNL     1       8.210   5.843  89.500  1.00  0.00     0.042 A 
HETATM   17  C   UNL     1       8.448   6.261  88.190  1.00  0.00     0.008 A 
HETATM   18  C   UNL     1       7.439   6.900  87.470  1.00  0.00     0.005 A 
HETATM   19  C   UNL     1       6.216   7.106  88.074  1.00  0.00     0.056 A 
HETATM   20  C   UNL     1       5.957   6.702  89.367  1.00  0.00     0.005 A 
HETATM   21  C   UNL     1       6.965   6.064  90.089  1.00  0.00     0.008 A 
BRANCH  19  22
HETATM   22  C   UNL     1       5.142   7.788  87.307  1.00  0.00     0.254 C 
HETATM   23  O   UNL     1       5.150   7.728  86.080  1.00  0.00    -0.268 OA
HETATM   24  N   UNL     1       4.175   8.437  88.061  1.00  0.00    -0.335 N 
HETATM   25  HN  UNL     1       4.219   8.424  89.073  1.00  0.00     0.164 HD
BRANCH  24  26
HETATM   26  C   UNL     1       3.057   9.123  87.464  1.00  0.00     0.166 C 
BRANCH  26  27
HETATM   27  C   UNL     1       1.705   8.525  87.874  1.00  0.00     0.138 C 
HETATM   28  C   UNL     1       1.580   7.053  87.496  1.00  0.00     0.034 C 
BRANCH  27  29
HETATM   29  O   UNL     1       1.533   8.658  89.284  1.00  0.00    -0.383 OA
HETATM   30  H   UNL     1       1.538   7.769  89.677  1.00  0.00     0.210 HD
ENDBRANCH  27  29
ENDBRANCH  26  27
BRANCH  26  31
HETATM   31  C   UNL     1       3.152  10.595  87.853  1.00  0.00     0.181 C 
HETATM   32  O   UNL     1       2.171  11.332  87.931  1.00  0.00    -0.294 OA
BRANCH  31  33
HETATM   33  C   UNL     1       3.984  10.802  89.229  1.00  0.00     0.138 C 
BRANCH  33  34
HETATM   34  C   UNL     1       4.070  12.211  89.287  1.00  0.00     0.208 C 
HETATM   35  O   UNL     1       3.449  12.745  90.178  1.00  0.00    -0.289 OA
BRANCH  34  36
HETATM   36  C   UNL     1       4.954  13.071  88.696  1.00  0.00     0.194 C 
HETATM   37  O   UNL     1       5.048  13.499  87.367  1.00  0.00    -0.185 OA
ENDBRANCH  34  36
ENDBRANCH  33  34
ENDBRANCH  31  33
ENDBRANCH  26  31
ENDBRANCH  24  26
ENDBRANCH  19  22
ENDBRANCH  15  16
ENDBRANCH  11  14
ENDBRANCH   7   8
ENDBRANCH   2   7
TORSDOF 12
ENDMDL
MODEL 3
REMARK VINA RESULT:      -5.9      1.497      2.152
REMARK  12 active torsions:
REMARK  status: ('A' for Active; 'I' for Inactive)
REMARK    1  A    between atoms: O_2  and  C_16 
REMARK    2  A    between atoms: N_5  and  C_9 
REMARK    3  A    between atoms: N_6  and  C_13 
REMARK       I    between atoms: N_6  and  C_22 
REMARK    4  A    between atoms: C_9  and  C_12 
REMARK    5  A    between atoms: C_13  and  C_16 
REMARK    6  A    between atoms: C_13  and  C_21 
REMARK    7  A    between atoms: C_19  and  C_24 
REMARK    8  A    between atoms: C_21  and  C_33 
REMARK    9  A    between atoms: C_22  and  C_23 
REMARK   10  A    between atoms: C_27  and  C_30 
REMARK   11  A    between atoms: C_33  and  C_34 
REMARK   12  A    between atoms: C_34  and  C_35 
ROOT
HETATM    1  O   UNL     1      16.374   4.064  94.124  1.00  0.00    -0.350 OA
HETATM    2  N   UNL     1      14.490   2.572  92.598  1.00  0.00     0.147 N 
HETATM    3  C   UNL     1      14.487   4.042  92.598  1.00  0.00     0.283 C 
HETATM    4  C   UNL     1      15.015   2.070  93.876  1.00  0.00     0.283 C 
HETATM    5  C   UNL     1      15.895   4.562  92.873  1.00  0.00     0.178 C 
HETATM    6  C   UNL     1      16.409   2.636  94.121  1.00  0.00     0.178 C 
ENDROOT
BRANCH   2   7
HETATM    7  C   UNL     1      13.147   2.051  92.347  1.00  0.00     0.277 C 
BRANCH   7   8
HETATM    8  C   UNL     1      12.111   3.123  92.358  1.00  0.00     0.011 A 
HETATM    9  C   UNL     1      11.311   3.331  91.234  1.00  0.00    -0.002 A 
HETATM   10  C   UNL     1      10.343   4.335  91.243  1.00  0.00     0.008 A 
HETATM   11  C   UNL     1      10.174   5.129  92.376  1.00  0.00     0.042 A 
HETATM   12  C   UNL     1      10.972   4.923  93.500  1.00  0.00     0.008 A 
HETATM   13  C   UNL     1      11.941   3.919  93.491  1.00  0.00    -0.002 A 
BRANCH  11  14
HETATM   14  C   UNL     1       9.179   6.157  92.386  1.00  0.00    -0.059 C 
HETATM   15  C   UNL     1       8.343   7.021  92.394  1.00  0.00    -0.059 C 
BRANCH  15  16
HETATM   16  C   UNL     1       7.348   8.048  92.404  1.00  0.00     0.042 A 
HETATM   17  C   UNL     1       7.689   9.351  92.038  1.00  0.00     0.008 A 
HETATM   18  C   UNL     1       6.717  10.352  92.046  1.00  0.00     0.005 A 
HETATM   19  C   UNL     1       5.429  10.029  92.417  1.00  0.00     0.056 A 
HETATM   20  C   UNL     1       5.068   8.749  92.783  1.00  0.00     0.005 A 
HETATM   21  C   UNL     1       6.038   7.747  92.776  1.00  0.00     0.008 A 
BRANCH  19  22
HETATM   22  C   UNL     1       4.396  11.096  92.426  1.00  0.00     0.254 C 
HETATM   23  O   UNL     1       3.350  10.913  93.045  1.00  0.00    -0.268 OA
HETATM   24  N   UNL     1       4.714  12.257  91.735  1.00  0.00    -0.335 N 
HETATM   25  HN  UNL     1       5.608  12.346  91.268  1.00  0.00     0.164 HD
BRANCH  24  26
HETATM   26  C   UNL     1       3.826  13.390  91.672  1.00  0.00     0.166 C 
BRANCH  26  27
HETATM   27  C   UNL     1       4.068  14.397  92.804  1.00  0.00     0.138 C 
HETATM   28  C   UNL     1       2.792  15.112  93.232  1.00  0.00     0.034 C 
BRANCH  27  29
HETATM   29  O   UNL     1       4.623  13.723  93.932  1.00  0.00    -0.383 OA
HETATM   30  H   UNL     1       5.556  13.525  93.742  1.00  0.00     0.210 HD
ENDBRANCH  27  29
ENDBRANCH  26  27
BRANCH  26  31
HETATM   31  C   UNL     1       3.998  14.041  90.304  1.00  0.00     0.181 C 
HETATM   32  O   UNL     1       4.022  15.259  90.140  1.00  0.00    -0.294 OA
BRANCH  31  33
HETATM   33  C   UNL     1       5.287  13.453  89.515  1.00  0.00     0.138 C 
BRANCH  33  34
HETATM   34  C   UNL     1       4.683  12.949  88.342  1.00  0.00     0.208 C 
HETATM   35  O   UNL     1       5.142  13.343  87.295  1.00  0.00    -0.289 OA
BRANCH  34  36
HETATM   36  C   UNL     1       3.855  11.875  88.162  1.00  0.00     0.194 C 
HETATM   37  O   UNL     1       2.760  11.440  88.917  1.00  0.00    -0.185 OA
ENDBRANCH  34  36
ENDBRANCH  33  34
ENDBRANCH  31  33
ENDBRANCH  26  31
ENDBRANCH  24  26
ENDBRANCH  19  22
ENDBRANCH  15  16
ENDBRANCH  11  14
ENDBRANCH   7   8
ENDBRANCH   2   7
TORSDOF 12
ENDMDL
MODEL 4
REMARK VINA RESULT:      -5.3      2.380     12.872
REMARK  12 active torsions:
REMARK  status: ('A' for Active; 'I' for Inactive)
REMARK    1  A    between atoms: O_2  and  C_16 
REMARK    2  A    between atoms: N_5  and  C_9 
REMARK    3  A    between atoms: N_6  and  C_13 
REMARK       I    between atoms: N_6  and  C_22 
REMARK    4  A    between atoms: C_9  and  C_12 
REMARK    5  A    between atoms: C_13  and  C_16 
REMARK    6  A    between atoms: C_13  and  C_21 
REMARK    7  A    between atoms: C_19  and  C_24 
REMARK    8  A    between atoms: C_21  and  C_33 
REMARK    9  A    between atoms: C_22  and  C_23 
REMARK   10  A    between atoms: C_27  and  C_30 
REMARK   11  A    between atoms: C_33  and  C_34 
REMARK   12  A    between atoms: C_34  and  C_35 
ROOT
HETATM    1  O   UNL     1       2.818  14.746  93.970  1.00  0.00    -0.350 OA
HETATM    2  N   UNL     1       2.855  14.710  91.124  1.00  0.00     0.147 N 
HETATM    3  C   UNL     1       1.794  14.038  91.886  1.00  0.00     0.283 C 
HETATM    4  C   UNL     1       4.097  14.740  91.909  1.00  0.00     0.283 C 
HETATM    5  C   UNL     1       1.597  14.740  93.228  1.00  0.00     0.178 C 
HETATM    6  C   UNL     1       3.847  15.424  93.249  1.00  0.00     0.178 C 
ENDROOT
BRANCH   2   7
HETATM    7  C   UNL     1       3.068  14.048  89.839  1.00  0.00     0.277 C 
BRANCH   7   8
HETATM    8  C   UNL     1       4.004  12.892  89.944  1.00  0.00     0.011 A 
HETATM    9  C   UNL     1       5.164  12.861  89.169  1.00  0.00    -0.002 A 
HETATM   10  C   UNL     1       6.039  11.779  89.265  1.00  0.00     0.008 A 
HETATM   11  C   UNL     1       5.754  10.729  90.138  1.00  0.00     0.042 A 
HETATM   12  C   UNL     1       4.597  10.759  90.913  1.00  0.00     0.008 A 
HETATM   13  C   UNL     1       3.721  11.840  90.816  1.00  0.00    -0.002 A 
BRANCH  11  14
HETATM   14  C   UNL     1       6.653   9.621  90.238  1.00  0.00    -0.059 C 
HETATM   15  C   UNL     1       7.408   8.689  90.323  1.00  0.00    -0.059 C 
BRANCH  15  16
HETATM   16  C   UNL     1       8.305   7.580  90.423  1.00  0.00     0.042 A 
HETATM   17  C   UNL     1       9.434   7.522  89.605  1.00  0.00     0.008 A 
HETATM   18  C   UNL     1      10.311   6.441  89.705  1.00  0.00     0.005 A 
HETATM   19  C   UNL     1      10.040   5.446  90.621  1.00  0.00     0.056 A 
HETATM   20  C   UNL     1       8.932   5.481  91.440  1.00  0.00     0.005 A 
HETATM   21  C   UNL     1       8.054   6.560  91.341  1.00  0.00     0.008 A 
BRANCH  19  22
HETATM   22  C   UNL     1      10.974   4.294  90.726  1.00  0.00     0.254 C 
HETATM   23  O   UNL     1      10.745   3.276  90.077  1.00  0.00    -0.268 OA
HETATM   24  N   UNL     1      12.073   4.476  91.553  1.00  0.00    -0.335 N 
HETATM   25  HN  UNL     1      12.210   5.355  92.039  1.00  0.00     0.164 HD
BRANCH  24  26
HETATM   26  C   UNL     1      13.080   3.462  91.740  1.00  0.00     0.166 C 
BRANCH  26  27
HETATM   27  C   UNL     1      14.365   3.751  90.955  1.00  0.00     0.138 C 
HETATM   28  C   UNL     1      14.372   3.089  89.581  1.00  0.00     0.034 C 
BRANCH  27  29
HETATM   29  O   UNL     1      14.518   5.161  90.790  1.00  0.00    -0.383 OA
HETATM   30  H   UNL     1      14.723   5.548  91.658  1.00  0.00     0.210 HD
ENDBRANCH  27  29
ENDBRANCH  26  27
BRANCH  26  31
HETATM   31  C   UNL     1      13.356   3.350  93.235  1.00  0.00     0.181 C 
HETATM   32  O   UNL     1      12.480   3.105  94.062  1.00  0.00    -0.294 OA
BRANCH  31  33
HETATM   33  C   UNL     1      14.572   2.324  93.547  1.00  0.00     0.138 C 
BRANCH  33  34
HETATM   34  C   UNL     1      15.601   3.221  93.908  1.00  0.00     0.208 C 
HETATM   35  O   UNL     1      16.732   2.802  93.810  1.00  0.00    -0.289 OA
BRANCH  34  36
HETATM   36  C   UNL     1      15.576   4.578  94.081  1.00  0.00     0.194 C 
HETATM   37  O   UNL     1      16.581   5.533  93.890  1.00  0.00    -0.185 OA
ENDBRANCH  34  36
ENDBRANCH  33  34
ENDBRANCH  31  33
ENDBRANCH  26  31
ENDBRANCH  24  26
ENDBRANCH  19  22
ENDBRANCH  15  16
ENDBRANCH  11  14
ENDBRANCH   7   8
ENDBRANCH   2   7
TORSDOF 12
ENDMDL
MODEL 5
REMARK VINA RESULT:      -4.0      1.615      2.935
REMARK  12 active torsions:
REMARK  status: ('A' for Active; 'I' for Inactive)
REMARK    1  A    between atoms: O_2  and  C_16 
REMARK    2  A    between atoms: N_5  and  C_9 
REMARK    3  A    between atoms: N_6  and  C_13 
REMARK       I    between atoms: N_6  and  C_22 
REMARK    4  A    between atoms: C_9  and  C_12 
REMARK    5  A    between atoms: C_13  and  C_16 
REMARK    6  A    between atoms: C_13  and  C_21 
REMARK    7  A    between atoms: C_19  and  C_24 
REMARK    8  A    between atoms: C_21  and  C_33 
REMARK    9  A    between atoms: C_22  and  C_23 
REMARK   10  A    between atoms: C_27  and  C_30 
REMARK   11  A    between atoms: C_33  and  C_34 
REMARK   12  A    between atoms: C_34  and  C_35 
ROOT
HETATM    1  O   UNL     1      16.201   3.915  93.979  1.00  0.00    -0.350 OA
HETATM    2  N   UNL     1      14.240   2.495  92.482  1.00  0.00     0.147 N 
HETATM    3  C   UNL     1      14.417   3.946  92.333  1.00  0.00     0.283 C 
HETATM    4  C   UNL     1      14.624   2.077  93.837  1.00  0.00     0.283 C 
HETATM    5  C   UNL     1      15.861   4.326  92.654  1.00  0.00     0.178 C 
HETATM    6  C   UNL     1      16.061   2.501  94.123  1.00  0.00     0.178 C 
ENDROOT
BRANCH   2   7
HETATM    7  C   UNL     1      12.861   2.110  92.190  1.00  0.00     0.277 C 
BRANCH   7   8
HETATM    8  C   UNL     1      11.991   3.286  91.904  1.00  0.00     0.011 A 
HETATM    9  C   UNL     1      11.446   4.021  92.958  1.00  0.00    -0.002 A 
HETATM   10  C   UNL     1      10.630   5.121  92.692  1.00  0.00     0.008 A 
HETATM   11  C   UNL     1      10.361   5.486  91.374  1.00  0.00     0.042 A 
HETATM   12  C   UNL     1      10.904   4.752  90.321  1.00  0.00     0.008 A 
HETATM   13  C   UNL     1      11.720   3.652  90.586  1.00  0.00    -0.002 A 
BRANCH  11  14
HETATM   14  C   UNL     1       9.525   6.615  91.101  1.00  0.00    -0.059 C 
HETATM   15  C   UNL     1       8.824   7.564  90.872  1.00  0.00    -0.059 C 
BRANCH  15  16
HETATM   16  C   UNL     1       7.989   8.692  90.599  1.00  0.00     0.042 A 
HETATM   17  C   UNL     1       7.602   8.971  89.288  1.00  0.00     0.008 A 
HETATM   18  C   UNL     1       6.785  10.070  89.022  1.00  0.00     0.005 A 
HETATM   19  C   UNL     1       6.373  10.864  90.072  1.00  0.00     0.056 A 
HETATM   20  C   UNL     1       6.742  10.609  91.376  1.00  0.00     0.005 A 
HETATM   21  C   UNL     1       7.559   9.510  91.643  1.00  0.00     0.008 A 
BRANCH  19  22
HETATM   22  C   UNL     1       5.505  12.036  89.788  1.00  0.00     0.254 C 
HETATM   23  O   UNL     1       5.369  12.414  88.627  1.00  0.00    -0.268 OA
HETATM   24  N   UNL     1       4.880  12.609  90.886  1.00  0.00    -0.335 N 
HETATM   25  HN  UNL     1       5.019  12.226  91.814  1.00  0.00     0.164 HD
BRANCH  24  26
HETATM   26  C   UNL     1       3.988  13.736  90.771  1.00  0.00     0.166 C 
BRANCH  26  27
HETATM   27  C   UNL     1       2.569  13.329  90.354  1.00  0.00     0.138 C 
HETATM   28  C   UNL     1       1.702  14.529  89.988  1.00  0.00     0.034 C 
BRANCH  27  29
HETATM   29  O   UNL     1       2.635  12.446  89.235  1.00  0.00    -0.383 OA
HETATM   30  H   UNL     1       2.504  12.968  88.426  1.00  0.00     0.210 HD
ENDBRANCH  27  29
ENDBRANCH  26  27
BRANCH  26  31
HETATM   31  C   UNL     1       3.985  14.467  92.109  1.00  0.00     0.181 C 
HETATM   32  O   UNL     1       3.053  15.175  92.484  1.00  0.00    -0.294 OA
BRANCH  31  33
HETATM   33  C   UNL     1       4.317  13.467  93.342  1.00  0.00     0.138 C 
BRANCH  33  34
HETATM   34  C   UNL     1       3.022  13.220  93.849  1.00  0.00     0.208 C 
HETATM   35  O   UNL     1       2.349  14.195  94.091  1.00  0.00    -0.289 OA
BRANCH  34  36
HETATM   36  C   UNL     1       2.275  12.074  93.853  1.00  0.00     0.194 C 
HETATM   37  O   UNL     1       1.846  11.270  92.791  1.00  0.00    -0.185 OA
ENDBRANCH  34  36
ENDBRANCH  33  34
ENDBRANCH  31  33
ENDBRANCH  26  31
ENDBRANCH  24  26
ENDBRANCH  19  22
ENDBRANCH  15  16
ENDBRANCH  11  14
ENDBRANCH   7   8
ENDBRANCH   2   7
TORSDOF 12
ENDMDL
MODEL 6
REMARK VINA RESULT:      -3.7      1.686      3.163
REMARK  12 active torsions:
REMARK  status: ('A' for Active; 'I' for Inactive)
REMARK    1  A    between atoms: O_2  and  C_16 
REMARK    2  A    between atoms: N_5  and  C_9 
REMARK    3  A    between atoms: N_6  and  C_13 
REMARK       I    between atoms: N_6  and  C_22 
REMARK    4  A    between atoms: C_9  and  C_12 
REMARK    5  A    between atoms: C_13  and  C_16 
REMARK    6  A    between atoms: C_13  and  C_21 
REMARK    7  A    between atoms: C_19  and  C_24 
REMARK    8  A    between atoms: C_21  and  C_33 
REMARK    9  A    between atoms: C_22  and  C_23 
REMARK   10  A    between atoms: C_27  and  C_30 
REMARK   11  A    between atoms: C_33  and  C_34 
REMARK   12  A    between atoms: C_34  and  C_35 
ROOT
HETATM    1  O   UNL     1      16.470   3.411  93.113  1.00  0.00    -0.350 OA
HETATM    2  N   UNL     1      14.237   1.693  92.701  1.00  0.00     0.147 N 
HETATM    3  C   UNL     1      14.681   2.638  91.666  1.00  0.00     0.283 C 
HETATM    4  C   UNL     1      14.571   2.214  94.034  1.00  0.00     0.283 C 
HETATM    5  C   UNL     1      16.178   2.898  91.812  1.00  0.00     0.178 C 
HETATM    6  C   UNL     1      16.070   2.485  94.124  1.00  0.00     0.178 C 
ENDROOT
BRANCH   2   7
HETATM    7  C   UNL     1      12.803   1.437  92.588  1.00  0.00     0.277 C 
BRANCH   7   8
HETATM    8  C   UNL     1      12.035   2.660  92.217  1.00  0.00     0.011 A 
HETATM    9  C   UNL     1      11.735   3.615  93.189  1.00  0.00    -0.002 A 
HETATM   10  C   UNL     1      11.015   4.759  92.844  1.00  0.00     0.008 A 
HETATM   11  C   UNL     1      10.597   4.948  91.527  1.00  0.00     0.042 A 
HETATM   12  C   UNL     1      10.897   3.995  90.556  1.00  0.00     0.008 A 
HETATM   13  C   UNL     1      11.616   2.851  90.900  1.00  0.00    -0.002 A 
BRANCH  11  14
HETATM   14  C   UNL     1       9.861   6.122  91.173  1.00  0.00    -0.059 C 
HETATM   15  C   UNL     1       9.242   7.109  90.875  1.00  0.00    -0.059 C 
BRANCH  15  16
HETATM   16  C   UNL     1       8.505   8.282  90.520  1.00  0.00     0.042 A 
HETATM   17  C   UNL     1       8.789   8.948  89.327  1.00  0.00     0.008 A 
HETATM   18  C   UNL     1       8.068  10.090  88.980  1.00  0.00     0.005 A 
HETATM   19  C   UNL     1       7.081  10.541  89.832  1.00  0.00     0.056 A 
HETATM   20  C   UNL     1       6.782   9.900  91.016  1.00  0.00     0.005 A 
HETATM   21  C   UNL     1       7.502   8.758  91.365  1.00  0.00     0.008 A 
BRANCH  19  22
HETATM   22  C   UNL     1       6.315  11.759  89.463  1.00  0.00     0.254 C 
HETATM   23  O   UNL     1       6.796  12.547  88.652  1.00  0.00    -0.268 OA
HETATM   24  N   UNL     1       5.071  11.901  90.062  1.00  0.00    -0.335 N 
HETATM   25  HN  UNL     1       4.728  11.195  90.704  1.00  0.00     0.164 HD
BRANCH  24  26
HETATM   26  C   UNL     1       4.200  13.015  89.788  1.00  0.00     0.166 C 
BRANCH  26  27
HETATM   27  C   UNL     1       4.045  13.291  88.287  1.00  0.00     0.138 C 
HETATM   28  C   UNL     1       5.046  14.321  87.776  1.00  0.00     0.034 C 
BRANCH  27  29
HETATM   29  O   UNL     1       4.216  12.076  87.558  1.00  0.00    -0.383 OA
HETATM   30  H   UNL     1       3.517  12.023  86.885  1.00  0.00     0.210 HD
ENDBRANCH  27  29
ENDBRANCH  26  27
BRANCH  26  31
HETATM   31  C   UNL     1       2.853  12.725  90.441  1.00  0.00     0.181 C 
HETATM   32  O   UNL     1       2.662  11.764  91.185  1.00  0.00    -0.294 OA
BRANCH  31  33
HETATM   33  C   UNL     1       2.268  14.022  91.218  1.00  0.00     0.138 C 
BRANCH  33  34
HETATM   34  C   UNL     1       3.371  14.375  92.028  1.00  0.00     0.208 C 
HETATM   35  O   UNL     1       4.171  15.136  91.535  1.00  0.00    -0.289 OA
BRANCH  34  36
HETATM   36  C   UNL     1       3.560  14.241  93.376  1.00  0.00     0.194 C 
HETATM   37  O   UNL     1       4.742  14.198  94.124  1.00  0.00    -0.185 OA
ENDBRANCH  34  36
ENDBRANCH  33  34
ENDBRANCH  31  33
ENDBRANCH  26  31
ENDBRANCH  24  26
ENDBRANCH  19  22
ENDBRANCH  15  16
ENDBRANCH  11  14
ENDBRANCH   7   8
ENDBRANCH   2   7
TORSDOF 12
ENDMDL
