MODEL 1
REMARK VINA RESULT:      -5.8      0.000      0.000
REMARK  12 active torsions:
REMARK  status: ('A' for Active; 'I' for Inactive)
REMARK    1  A    between atoms: O_2  and  C_16 
REMARK    2  A    between atoms: N_5  and  C_9 
REMARK    3  A    between atoms: N_6  and  C_13 
REMARK       I    between atoms: N_6  and  C_22 
REMARK    4  A    between atoms: C_9  and  C_12 
REMARK    5  A    between atoms: C_13  and  C_16 
REMARK    6  A    between atoms: C_13  and  C_21 
REMARK    7  A    between atoms: C_19  and  C_24 
REMARK    8  A    between atoms: C_21  and  C_33 
REMARK    9  A    between atoms: C_22  and  C_23 
REMARK   10  A    between atoms: C_27  and  C_30 
REMARK   11  A    between atoms: C_33  and  C_34 
REMARK   12  A    between atoms: C_34  and  C_35 
ROOT
HETATM    1  O   UNL     1      16.432   2.924  94.052  1.00  0.00    -0.350 OA
HETATM    2  N   UNL     1      14.043   3.028  92.507  1.00  0.00     0.147 N 
HETATM    3  C   UNL     1      14.709   1.753  92.807  1.00  0.00     0.283 C 
HETATM    4  C   UNL     1      15.032   4.115  92.468  1.00  0.00     0.283 C 
HETATM    5  C   UNL     1      15.474   1.867  94.123  1.00  0.00     0.178 C 
HETATM    6  C   UNL     1      15.790   4.173  93.790  1.00  0.00     0.178 C 
ENDROOT
BRANCH   2   7
HETATM    7  C   UNL     1      13.312   2.946  91.244  1.00  0.00     0.277 C 
BRANCH   7   8
HETATM    8  C   UNL     1      12.109   3.827  91.225  1.00  0.00     0.011 A 
HETATM    9  C   UNL     1      11.436   4.112  92.414  1.00  0.00    -0.002 A 
HETATM   10  C   UNL     1      10.310   4.934  92.397  1.00  0.00     0.008 A 
HETATM   11  C   UNL     1       9.858   5.472  91.193  1.00  0.00     0.042 A 
HETATM   12  C   UNL     1      10.530   5.188  90.005  1.00  0.00     0.008 A 
HETATM   13  C   UNL     1      11.656   4.365  90.021  1.00  0.00    -0.002 A 
BRANCH  11  14
HETATM   14  C   UNL     1       8.704   6.317  91.176  1.00  0.00    -0.059 C 
HETATM   15  C   UNL     1       7.734   7.028  91.163  1.00  0.00    -0.059 C 
BRANCH  15  16
HETATM   16  C   UNL     1       6.581   7.873  91.147  1.00  0.00     0.042 A 
HETATM   17  C   UNL     1       5.593   7.684  90.180  1.00  0.00     0.008 A 
HETATM   18  C   UNL     1       4.467   8.507  90.166  1.00  0.00     0.005 A 
HETATM   19  C   UNL     1       4.354   9.499  91.118  1.00  0.00     0.056 A 
HETATM   20  C   UNL     1       5.317   9.706  92.083  1.00  0.00     0.005 A 
HETATM   21  C   UNL     1       6.444   8.883  92.098  1.00  0.00     0.008 A 
BRANCH  19  22
HETATM   22  C   UNL     1       3.155  10.376  91.101  1.00  0.00     0.254 C 
HETATM   23  O   UNL     1       2.067   9.900  90.785  1.00  0.00    -0.268 OA
HETATM   24  N   UNL     1       3.362  11.696  91.479  1.00  0.00    -0.335 N 
HETATM   25  HN  UNL     1       4.285  12.012  91.752  1.00  0.00     0.164 HD
BRANCH  24  26
HETATM   26  C   UNL     1       2.295  12.663  91.537  1.00  0.00     0.166 C 
BRANCH  26  27
HETATM   27  C   UNL     1       1.970  13.102  92.970  1.00  0.00     0.138 C 
HETATM   28  C   UNL     1       2.035  11.948  93.964  1.00  0.00     0.034 C 
BRANCH  27  29
HETATM   29  O   UNL     1       2.886  14.117  93.377  1.00  0.00    -0.383 OA
HETATM   30  H   UNL     1       3.765  13.893  93.027  1.00  0.00     0.210 HD
ENDBRANCH  27  29
ENDBRANCH  26  27
BRANCH  26  31
HETATM   31  C   UNL     1       2.696  13.851  90.669  1.00  0.00     0.181 C 
HETATM   32  O   UNL     1       2.147  14.949  90.742  1.00  0.00    -0.294 OA
BRANCH  31  33
HETATM   33  C   UNL     1       4.290  14.138  90.740  1.00  0.00     0.138 C 
BRANCH  33  34
HETATM   34  C   UNL     1       4.609  14.250  89.369  1.00  0.00     0.208 C 
HETATM   35  O   UNL     1       4.937  15.350  88.986  1.00  0.00    -0.289 OA
BRANCH  34  36
HETATM   36  C   UNL     1       4.893  13.284  88.442  1.00  0.00     0.194 C 
HETATM   37  O   UNL     1       4.512  11.939  88.392  1.00  0.00    -0.185 OA
ENDBRANCH  34  36
ENDBRANCH  33  34
ENDBRANCH  31  33
ENDBRANCH  26  31
ENDBRANCH  24  26
ENDBRANCH  19  22
ENDBRANCH  15  16
ENDBRANCH  11  14
ENDBRANCH   7   8
ENDBRANCH   2   7
TORSDOF 12
ENDMDL
