MODEL 1
REMARK VINA RESULT:      -6.4      0.000      0.000
REMARK  14 active torsions:
REMARK  status: ('A' for Active; 'I' for Inactive)
REMARK    1  A    between atoms: O_2  and  C_18 
REMARK    2  A    between atoms: C_5  and  C_8 
REMARK    3  A    between atoms: C_5  and  O_35 
REMARK    4  A    between atoms: C_5  and  C_36 
REMARK    5  A    between atoms: N_6  and  C_11 
REMARK    6  A    between atoms: N_7  and  C_15 
REMARK       I    between atoms: N_7  and  C_24 
REMARK    7  A    between atoms: C_8  and  C_23 
REMARK    8  A    between atoms: C_11  and  C_14 
REMARK    9  A    between atoms: C_15  and  C_18 
REMARK   10  A    between atoms: C_15  and  C_23 
REMARK   11  A    between atoms: C_21  and  C_26 
REMARK   12  A    between atoms: C_24  and  C_25 
REMARK   13  A    between atoms: C_29  and  C_32 
REMARK   14  A    between atoms: C_36  and  O_39 
ROOT
HETATM    1  O   UNL     1      16.185   2.867  93.988  1.00  0.00    -0.350 OA
HETATM    2  N   UNL     1      13.763   3.075  92.507  1.00  0.00     0.147 N 
HETATM    3  C   UNL     1      14.353   1.769  92.834  1.00  0.00     0.283 C 
HETATM    4  C   UNL     1      14.818   4.092  92.402  1.00  0.00     0.283 C 
HETATM    5  C   UNL     1      15.163   1.877  94.124  1.00  0.00     0.178 C 
HETATM    6  C   UNL     1      15.618   4.145  93.699  1.00  0.00     0.178 C 
ENDROOT
BRANCH   2   7
HETATM    7  C   UNL     1      12.990   2.997  91.268  1.00  0.00     0.277 C 
BRANCH   7   8
HETATM    8  C   UNL     1      11.814   3.914  91.274  1.00  0.00     0.011 A 
HETATM    9  C   UNL     1      11.373   4.472  92.474  1.00  0.00    -0.002 A 
HETATM   10  C   UNL     1      10.271   5.328  92.481  1.00  0.00     0.008 A 
HETATM   11  C   UNL     1       9.614   5.626  91.288  1.00  0.00     0.042 A 
HETATM   12  C   UNL     1      10.054   5.069  90.089  1.00  0.00     0.008 A 
HETATM   13  C   UNL     1      11.155   4.213  90.082  1.00  0.00    -0.002 A 
BRANCH  11  14
HETATM   14  C   UNL     1       8.485   6.506  91.295  1.00  0.00    -0.059 C 
HETATM   15  C   UNL     1       7.537   7.244  91.301  1.00  0.00    -0.059 C 
BRANCH  15  16
HETATM   16  C   UNL     1       6.408   8.122  91.308  1.00  0.00     0.042 A 
HETATM   17  C   UNL     1       6.456   9.311  92.037  1.00  0.00     0.008 A 
HETATM   18  C   UNL     1       5.356  10.169  92.042  1.00  0.00     0.005 A 
HETATM   19  C   UNL     1       4.235   9.820  91.318  1.00  0.00     0.056 A 
HETATM   20  C   UNL     1       4.163   8.651  90.591  1.00  0.00     0.005 A 
HETATM   21  C   UNL     1       5.262   7.792  90.585  1.00  0.00     0.008 A 
BRANCH  19  22
HETATM   22  C   UNL     1       3.063  10.733  91.326  1.00  0.00     0.254 C 
HETATM   23  O   UNL     1       1.963  10.300  90.991  1.00  0.00    -0.268 OA
HETATM   24  N   UNL     1       3.308  12.034  91.745  1.00  0.00    -0.335 N 
HETATM   25  HN  UNL     1       4.239  12.313  92.031  1.00  0.00     0.164 HD
BRANCH  24  26
HETATM   26  C   UNL     1       2.271  13.030  91.830  1.00  0.00     0.169 C 
BRANCH  26  27
HETATM   27  C   UNL     1       2.188  13.685  93.215  1.00  0.00     0.138 C 
HETATM   28  C   UNL     1       3.448  13.457  94.044  1.00  0.00     0.034 C 
BRANCH  27  29
HETATM   29  O   UNL     1       1.978  15.089  93.067  1.00  0.00    -0.383 OA
HETATM   30  H   UNL     1       1.074  15.294  93.359  1.00  0.00     0.210 HD
ENDBRANCH  27  29
ENDBRANCH  26  27
BRANCH  26  31
HETATM   31  C   UNL     1       2.529  14.066  90.741  1.00  0.00     0.194 C 
HETATM   32  O   UNL     1       1.627  14.679  90.172  1.00  0.00    -0.289 OA
BRANCH  31  33
HETATM   33  C   UNL     1       3.866  14.195  90.455  1.00  0.00     0.053 C 
BRANCH  33  34
HETATM   34  C   UNL     1       4.186  14.374  89.101  1.00  0.00     0.220 C 
BRANCH  34  35
HETATM   35  O   UNL     1       5.121  15.194  89.037  1.00  0.00    -0.371 OA
HETATM   36  H   UNL     1       5.815  14.629  89.341  1.00  0.00     0.211 HD
ENDBRANCH  34  35
BRANCH  34  37
HETATM   37  C   UNL     1       4.482  13.173  88.433  1.00  0.00     0.185 C 
HETATM   38  O   UNL     1       5.309  12.996  89.452  1.00  0.00    -0.647 OA
BRANCH  37  39
HETATM   39  O   UNL     1       4.158  12.637  87.416  1.00  0.00    -0.774 OA
HETATM   40  H   UNL     1       4.990  11.984  87.005  1.00  0.00     0.167 HD
ENDBRANCH  37  39
ENDBRANCH  34  37
ENDBRANCH  33  34
ENDBRANCH  31  33
ENDBRANCH  26  31
ENDBRANCH  24  26
ENDBRANCH  19  22
ENDBRANCH  15  16
ENDBRANCH  11  14
ENDBRANCH   7   8
ENDBRANCH   2   7
TORSDOF 14
ENDMDL
