MODEL 1
REMARK VINA RESULT:      -6.8      0.000      0.000
REMARK  10 active torsions:
REMARK  status: ('A' for Active; 'I' for Inactive)
REMARK    1  A    between atoms: O_2  and  C_18 
REMARK    2  A    between atoms: O_5  and  N_8 
REMARK    3  A    between atoms: N_6  and  C_11 
REMARK    4  A    between atoms: N_7  and  C_15 
REMARK       I    between atoms: N_7  and  C_24 
REMARK       I    between atoms: N_8  and  C_23 
REMARK    5  A    between atoms: C_11  and  C_14 
REMARK    6  A    between atoms: C_15  and  C_18 
REMARK    7  A    between atoms: C_15  and  C_23 
REMARK    8  A    between atoms: C_21  and  C_26 
REMARK    9  A    between atoms: C_24  and  C_25 
REMARK   10  A    between atoms: C_29  and  C_32 
ROOT
HETATM    1  O   UNK     0      16.467   4.395  93.912  0.00  0.00    -0.388 OA
HETATM    2  N   UNK     0      14.660   2.588  92.658  0.00  0.00     0.096 N 
HETATM    3  C   UNK     0      14.560   4.040  92.453  0.00  0.00     0.299 C 
HETATM    4  C   UNK     0      15.237   2.305  93.978  0.00  0.00     0.299 C 
HETATM    5  C   UNK     0      15.936   4.681  92.617  0.00  0.00     0.198 C 
HETATM    6  C   UNK     0      16.596   2.986  94.107  0.00  0.00     0.198 C 
ENDROOT
BRANCH   2   7
HETATM    7  C   UNK     0      13.350   1.954  92.516  0.00  0.00     0.311 C 
BRANCH   7   8
HETATM    8  C   UNK     0      12.264   2.945  92.270  0.00  0.00    -0.030 A 
HETATM    9  C   UNK     0      11.745   3.105  90.984  0.00  0.00     0.010 A 
HETATM   10  C   UNK     0      10.730   4.033  90.752  0.00  0.00     0.021 A 
HETATM   11  C   UNK     0      10.233   4.798  91.806  0.00  0.00     0.018 A 
HETATM   12  C   UNK     0      10.749   4.639  93.090  0.00  0.00     0.021 A 
HETATM   13  C   UNK     0      11.765   3.712  93.323  0.00  0.00     0.010 A 
BRANCH  11  14
HETATM   14  C   UNK     0       9.190   5.748  91.568  0.00  0.00    -0.061 C 
HETATM   15  C   UNK     0       8.313   6.547  91.369  0.00  0.00    -0.061 C 
BRANCH  15  16
HETATM   16  C   UNK     0       7.271   7.495  91.132  0.00  0.00     0.018 A 
HETATM   17  C   UNK     0       7.543   8.667  90.425  0.00  0.00     0.022 A 
HETATM   18  C   UNK     0       6.525   9.592  90.192  0.00  0.00     0.018 A 
HETATM   19  C   UNK     0       5.259   9.325  90.669  0.00  0.00     0.032 A 
HETATM   20  C   UNK     0       4.964   8.174  91.370  0.00  0.00     0.018 A 
HETATM   21  C   UNK     0       5.982   7.249  91.605  0.00  0.00     0.022 A 
BRANCH  19  22
HETATM   22  C   UNK     0       4.175  10.311  90.422  0.00  0.00     0.252 C 
HETATM   23  O   UNK     0       3.007   9.932  90.427  0.00  0.00    -0.268 OA
HETATM   24  N   UNK     0       4.582  11.624  90.224  0.00  0.00    -0.341 N 
HETATM   25  H   UNK     0       5.565  11.867  90.259  0.00  0.00     0.163 HD
BRANCH  24  26
HETATM   26  C   UNK     0       3.649  12.698  89.997  0.00  0.00     0.207 C 
BRANCH  26  27
HETATM   27  C   UNK     0       3.361  13.512  91.265  0.00  0.00     0.146 C 
HETATM   28  C   UNK     0       2.017  13.161  91.892  0.00  0.00     0.042 C 
BRANCH  27  29
HETATM   29  O   UNK     0       4.394  13.283  92.223  0.00  0.00    -0.393 OA
HETATM   30  H   UNK     0       4.586  14.125  92.671  0.00  0.00     0.210 HD
ENDBRANCH  27  29
ENDBRANCH  26  27
BRANCH  26  31
HETATM   31  C   UNK     0       4.215  13.580  88.888  0.00  0.00     0.266 C 
HETATM   32  O   UNK     0       4.475  14.771  89.047  0.00  0.00    -0.269 OA
HETATM   33  N   UNK     0       4.357  12.898  87.704  0.00  0.00    -0.236 N 
HETATM   34  H   UNK     0       4.070  11.944  87.515  0.00  0.00     0.197 HD
BRANCH  33  35
HETATM   35  O   UNK     0       4.837  13.648  86.622  0.00  0.00    -0.287 OA
HETATM   36  H   UNK     0       4.579  13.072  85.882  0.00  0.00     0.244 HD
ENDBRANCH  33  35
ENDBRANCH  26  31
ENDBRANCH  24  26
ENDBRANCH  19  22
ENDBRANCH  15  16
ENDBRANCH  11  14
ENDBRANCH   7   8
ENDBRANCH   2   7
TORSDOF 10
ENDMDL
