MODEL 1
REMARK VINA RESULT:      -7.5      0.000      0.000
REMARK  9 active torsions:
REMARK  status: ('A' for Active; 'I' for Inactive)
REMARK    1  A    between atoms: O_2  and  C_17 
REMARK    2  A    between atoms: N_5  and  C_10 
REMARK    3  A    between atoms: N_6  and  C_14 
REMARK       I    between atoms: N_6  and  C_23 
REMARK       I    between atoms: N_7  and  C_22 
REMARK    4  A    between atoms: C_10  and  C_13 
REMARK    5  A    between atoms: C_14  and  C_17 
REMARK    6  A    between atoms: C_14  and  C_22 
REMARK    7  A    between atoms: C_20  and  C_25 
REMARK    8  A    between atoms: C_23  and  C_24 
REMARK    9  A    between atoms: C_28  and  C_31 
ROOT
HETATM    1  O   UNL     1      15.895   3.880  94.121  1.00  0.00    -0.388 OA
HETATM    2  N   UNL     1      14.044   2.589  92.386  1.00  0.00     0.096 N 
HETATM    3  C   UNL     1      14.168   4.053  92.424  1.00  0.00     0.299 C 
HETATM    4  C   UNL     1      14.398   2.020  93.694  1.00  0.00     0.299 C 
HETATM    5  C   UNL     1      15.584   4.441  92.844  1.00  0.00     0.198 C 
HETATM    6  C   UNL     1      15.806   2.455  94.084  1.00  0.00     0.198 C 
ENDROOT
BRANCH   2   7
HETATM    7  C   UNL     1      12.691   2.194  91.996  1.00  0.00     0.311 C 
BRANCH   7   8
HETATM    8  C   UNL     1      11.827   3.367  91.678  1.00  0.00    -0.030 A 
HETATM    9  C   UNL     1      11.955   4.013  90.448  1.00  0.00     0.010 A 
HETATM   10  C   UNL     1      11.149   5.112  90.150  1.00  0.00     0.021 A 
HETATM   11  C   UNL     1      10.213   5.561  91.081  1.00  0.00     0.018 A 
HETATM   12  C   UNL     1      10.084   4.916  92.310  1.00  0.00     0.021 A 
HETATM   13  C   UNL     1      10.891   3.818  92.608  1.00  0.00     0.010 A 
BRANCH  11  14
HETATM   14  C   UNL     1       9.385   6.686  90.775  1.00  0.00    -0.061 C 
HETATM   15  C   UNL     1       8.689   7.633  90.517  1.00  0.00    -0.061 C 
BRANCH  15  16
HETATM   16  C   UNL     1       7.861   8.757  90.210  1.00  0.00     0.018 A 
HETATM   17  C   UNL     1       6.523   8.765  90.605  1.00  0.00     0.022 A 
HETATM   18  C   UNL     1       5.716   9.864  90.308  1.00  0.00     0.018 A 
HETATM   19  C   UNL     1       6.265  10.928  89.623  1.00  0.00     0.032 A 
HETATM   20  C   UNL     1       7.584  10.943  89.221  1.00  0.00     0.018 A 
HETATM   21  C   UNL     1       8.391   9.845  89.518  1.00  0.00     0.022 A 
BRANCH  19  22
HETATM   22  C   UNL     1       5.404  12.097  89.305  1.00  0.00     0.252 C 
HETATM   23  O   UNL     1       5.362  12.513  88.150  1.00  0.00    -0.268 OA
HETATM   24  N   UNL     1       4.679  12.624  90.364  1.00  0.00    -0.342 N 
HETATM   25  H   UNL     1       4.745  12.211  91.287  1.00  0.00     0.163 HD
BRANCH  24  26
HETATM   26  C   UNL     1       3.782  13.741  90.210  1.00  0.00     0.199 C 
BRANCH  26  27
HETATM   27  C   UNL     1       2.574  13.667  91.152  1.00  0.00     0.145 C 
HETATM   28  C   UNL     1       2.406  12.287  91.778  1.00  0.00     0.042 C 
BRANCH  27  29
HETATM   29  O   UNL     1       2.719  14.634  92.192  1.00  0.00    -0.393 OA
HETATM   30  H   UNL     1       2.435  14.227  93.028  1.00  0.00     0.210 HD
ENDBRANCH  27  29
ENDBRANCH  26  27
BRANCH  26  31
HETATM   31  C   UNL     1       4.585  15.018  90.438  1.00  0.00     0.220 C 
HETATM   32  O   UNL     1       4.842  15.456  91.558  1.00  0.00    -0.278 OA
HETATM   33  N   UNL     1       4.944  15.623  89.258  1.00  0.00    -0.271 NA
HETATM   34  H   UNL     1       4.673  15.339  88.324  1.00  0.00     0.127 HD
HETATM   35  H   UNL     1       4.442  16.810  88.700  1.00  0.00     0.127 HD
ENDBRANCH  26  31
ENDBRANCH  24  26
ENDBRANCH  19  22
ENDBRANCH  15  16
ENDBRANCH  11  14
ENDBRANCH   7   8
ENDBRANCH   2   7
TORSDOF 9
ENDMDL
