MODEL 1
REMARK VINA RESULT:      -6.4      0.000      0.000
REMARK  12 active torsions:
REMARK  status: ('A' for Active; 'I' for Inactive)
REMARK    1  A    between atoms: O_2  and  C_16 
REMARK    2  A    between atoms: N_5  and  C_9 
REMARK    3  A    between atoms: N_6  and  C_13 
REMARK       I    between atoms: N_6  and  C_22 
REMARK    4  A    between atoms: C_9  and  C_12 
REMARK    5  A    between atoms: C_13  and  C_16 
REMARK    6  A    between atoms: C_13  and  C_21 
REMARK    7  A    between atoms: C_19  and  C_24 
REMARK    8  A    between atoms: C_21  and  C_33 
REMARK    9  A    between atoms: C_22  and  C_23 
REMARK   10  A    between atoms: C_27  and  C_30 
REMARK   11  A    between atoms: C_33  and  C_34 
REMARK   12  A    between atoms: C_34  and  C_35 
ROOT
HETATM    1  O   UNL     1      16.809   3.782  93.853  1.00  0.00    -0.350 OA
HETATM    2  N   UNL     1      14.247   3.047  92.855  1.00  0.00     0.147 N 
HETATM    3  C   UNL     1      15.326   2.060  93.001  1.00  0.00     0.283 C 
HETATM    4  C   UNL     1      14.814   4.381  92.611  1.00  0.00     0.283 C 
HETATM    5  C   UNL     1      16.268   2.487  94.123  1.00  0.00     0.178 C 
HETATM    6  C   UNL     1      15.768   4.753  93.741  1.00  0.00     0.178 C 
ENDROOT
BRANCH   2   7
HETATM    7  C   UNL     1      13.337   2.664  91.777  1.00  0.00     0.277 C 
BRANCH   7   8
HETATM    8  C   UNL     1      12.164   3.578  91.672  1.00  0.00     0.011 A 
HETATM    9  C   UNL     1      11.297   3.726  92.755  1.00  0.00    -0.002 A 
HETATM   10  C   UNL     1      10.198   4.580  92.657  1.00  0.00     0.008 A 
HETATM   11  C   UNL     1       9.968   5.285  91.477  1.00  0.00     0.042 A 
HETATM   12  C   UNL     1      10.832   5.138  90.394  1.00  0.00     0.008 A 
HETATM   13  C   UNL     1      11.931   4.284  90.492  1.00  0.00    -0.002 A 
BRANCH  11  14
HETATM   14  C   UNL     1       8.841   6.162  91.377  1.00  0.00    -0.059 C 
HETATM   15  C   UNL     1       7.895   6.899  91.293  1.00  0.00    -0.059 C 
BRANCH  15  16
HETATM   16  C   UNL     1       6.770   7.775  91.192  1.00  0.00     0.042 A 
HETATM   17  C   UNL     1       6.663   8.650  90.111  1.00  0.00     0.008 A 
HETATM   18  C   UNL     1       5.564   9.503  90.011  1.00  0.00     0.005 A 
HETATM   19  C   UNL     1       4.597   9.461  90.994  1.00  0.00     0.056 A 
HETATM   20  C   UNL     1       4.680   8.606  92.072  1.00  0.00     0.005 A 
HETATM   21  C   UNL     1       5.779   7.753  92.173  1.00  0.00     0.008 A 
BRANCH  19  22
HETATM   22  C   UNL     1       3.427  10.371  90.888  1.00  0.00     0.254 C 
HETATM   23  O   UNL     1       2.409   9.977  90.323  1.00  0.00    -0.268 OA
HETATM   24  N   UNL     1       3.573  11.620  91.475  1.00  0.00    -0.335 N 
HETATM   25  HN  UNL     1       4.436  11.867  91.947  1.00  0.00     0.164 HD
BRANCH  24  26
HETATM   26  C   UNL     1       2.521  12.604  91.478  1.00  0.00     0.166 C 
BRANCH  26  27
HETATM   27  C   UNL     1       2.329  13.265  92.849  1.00  0.00     0.138 C 
HETATM   28  C   UNL     1       3.649  13.483  93.581  1.00  0.00     0.034 C 
BRANCH  27  29
HETATM   29  O   UNL     1       1.677  14.524  92.685  1.00  0.00    -0.383 OA
HETATM   30  H   UNL     1       2.264  15.107  92.175  1.00  0.00     0.210 HD
ENDBRANCH  27  29
ENDBRANCH  26  27
BRANCH  26  31
HETATM   31  C   UNL     1       2.847  13.638  90.405  1.00  0.00     0.181 C 
HETATM   32  O   UNL     1       2.096  14.570  90.123  1.00  0.00    -0.294 OA
BRANCH  31  33
HETATM   33  C   UNL     1       4.315  14.290  90.623  1.00  0.00     0.138 C 
BRANCH  33  34
HETATM   34  C   UNL     1       4.749  14.440  89.287  1.00  0.00     0.208 C 
HETATM   35  O   UNL     1       5.023  15.566  88.940  1.00  0.00    -0.289 OA
BRANCH  34  36
HETATM   36  C   UNL     1       5.190  13.509  88.388  1.00  0.00     0.194 C 
HETATM   37  O   UNL     1       4.517  12.437  87.791  1.00  0.00    -0.185 OA
ENDBRANCH  34  36
ENDBRANCH  33  34
ENDBRANCH  31  33
ENDBRANCH  26  31
ENDBRANCH  24  26
ENDBRANCH  19  22
ENDBRANCH  15  16
ENDBRANCH  11  14
ENDBRANCH   7   8
ENDBRANCH   2   7
TORSDOF 12
ENDMDL
MODEL 2
REMARK VINA RESULT:      -6.0      1.628      2.159
REMARK  12 active torsions:
REMARK  status: ('A' for Active; 'I' for Inactive)
REMARK    1  A    between atoms: O_2  and  C_16 
REMARK    2  A    between atoms: N_5  and  C_9 
REMARK    3  A    between atoms: N_6  and  C_13 
REMARK       I    between atoms: N_6  and  C_22 
REMARK    4  A    between atoms: C_9  and  C_12 
REMARK    5  A    between atoms: C_13  and  C_16 
REMARK    6  A    between atoms: C_13  and  C_21 
REMARK    7  A    between atoms: C_19  and  C_24 
REMARK    8  A    between atoms: C_21  and  C_33 
REMARK    9  A    between atoms: C_22  and  C_23 
REMARK   10  A    between atoms: C_27  and  C_30 
REMARK   11  A    between atoms: C_33  and  C_34 
REMARK   12  A    between atoms: C_34  and  C_35 
ROOT
HETATM    1  O   UNL     1      16.883   3.355  93.806  1.00  0.00    -0.350 OA
HETATM    2  N   UNL     1      14.145   3.191  93.044  1.00  0.00     0.147 N 
HETATM    3  C   UNL     1      15.003   1.998  93.090  1.00  0.00     0.283 C 
HETATM    4  C   UNL     1      14.955   4.381  92.750  1.00  0.00     0.283 C 
HETATM    5  C   UNL     1      16.109   2.196  94.123  1.00  0.00     0.178 C 
HETATM    6  C   UNL     1      16.062   4.524  93.789  1.00  0.00     0.178 C 
ENDROOT
BRANCH   2   7
HETATM    7  C   UNL     1      13.083   3.027  92.053  1.00  0.00     0.277 C 
BRANCH   7   8
HETATM    8  C   UNL     1      12.013   4.055  92.192  1.00  0.00     0.011 A 
HETATM    9  C   UNL     1      11.484   4.668  91.055  1.00  0.00    -0.002 A 
HETATM   10  C   UNL     1      10.484   5.632  91.184  1.00  0.00     0.008 A 
HETATM   11  C   UNL     1      10.013   5.981  92.449  1.00  0.00     0.042 A 
HETATM   12  C   UNL     1      10.541   5.370  93.585  1.00  0.00     0.008 A 
HETATM   13  C   UNL     1      11.541   4.407  93.456  1.00  0.00    -0.002 A 
BRANCH  11  14
HETATM   14  C   UNL     1       8.986   6.968  92.581  1.00  0.00    -0.059 C 
HETATM   15  C   UNL     1       8.123   7.799  92.692  1.00  0.00    -0.059 C 
BRANCH  15  16
HETATM   16  C   UNL     1       7.098   8.786  92.824  1.00  0.00     0.042 A 
HETATM   17  C   UNL     1       6.077   8.861  91.875  1.00  0.00     0.008 A 
HETATM   18  C   UNL     1       5.075   9.822  92.005  1.00  0.00     0.005 A 
HETATM   19  C   UNL     1       5.115  10.686  93.080  1.00  0.00     0.056 A 
HETATM   20  C   UNL     1       6.113  10.632  94.030  1.00  0.00     0.005 A 
HETATM   21  C   UNL     1       7.116   9.671  93.901  1.00  0.00     0.008 A 
BRANCH  19  22
HETATM   22  C   UNL     1       4.049  11.711  93.217  1.00  0.00     0.254 C 
HETATM   23  O   UNL     1       3.126  11.516  94.004  1.00  0.00    -0.268 OA
HETATM   24  N   UNL     1       4.198  12.851  92.439  1.00  0.00    -0.335 N 
HETATM   25  HN  UNL     1       5.000  12.954  91.828  1.00  0.00     0.164 HD
BRANCH  24  26
HETATM   26  C   UNL     1       3.260  13.945  92.478  1.00  0.00     0.166 C 
BRANCH  26  27
HETATM   27  C   UNL     1       3.948  15.316  92.498  1.00  0.00     0.138 C 
HETATM   28  C   UNL     1       4.599  15.623  93.842  1.00  0.00     0.034 C 
BRANCH  27  29
HETATM   29  O   UNL     1       4.945  15.364  91.478  1.00  0.00    -0.383 OA
HETATM   30  H   UNL     1       4.633  14.840  90.721  1.00  0.00     0.210 HD
ENDBRANCH  27  29
ENDBRANCH  26  27
BRANCH  26  31
HETATM   31  C   UNL     1       2.333  13.807  91.275  1.00  0.00     0.181 C 
HETATM   32  O   UNL     1       1.317  14.485  91.131  1.00  0.00    -0.294 OA
BRANCH  31  33
HETATM   33  C   UNL     1       3.145  13.905  89.875  1.00  0.00     0.138 C 
BRANCH  33  34
HETATM   34  C   UNL     1       3.433  12.545  89.630  1.00  0.00     0.208 C 
HETATM   35  O   UNL     1       2.590  11.750  89.979  1.00  0.00    -0.289 OA
BRANCH  34  36
HETATM   36  C   UNL     1       4.366  11.969  88.811  1.00  0.00     0.194 C 
HETATM   37  O   UNL     1       4.217  11.004  87.809  1.00  0.00    -0.185 OA
ENDBRANCH  34  36
ENDBRANCH  33  34
ENDBRANCH  31  33
ENDBRANCH  26  31
ENDBRANCH  24  26
ENDBRANCH  19  22
ENDBRANCH  15  16
ENDBRANCH  11  14
ENDBRANCH   7   8
ENDBRANCH   2   7
TORSDOF 12
ENDMDL
MODEL 3
REMARK VINA RESULT:      -5.8      1.615      2.088
REMARK  12 active torsions:
REMARK  status: ('A' for Active; 'I' for Inactive)
REMARK    1  A    between atoms: O_2  and  C_16 
REMARK    2  A    between atoms: N_5  and  C_9 
REMARK    3  A    between atoms: N_6  and  C_13 
REMARK       I    between atoms: N_6  and  C_22 
REMARK    4  A    between atoms: C_9  and  C_12 
REMARK    5  A    between atoms: C_13  and  C_16 
REMARK    6  A    between atoms: C_13  and  C_21 
REMARK    7  A    between atoms: C_19  and  C_24 
REMARK    8  A    between atoms: C_21  and  C_33 
REMARK    9  A    between atoms: C_22  and  C_23 
REMARK   10  A    between atoms: C_27  and  C_30 
REMARK   11  A    between atoms: C_33  and  C_34 
REMARK   12  A    between atoms: C_34  and  C_35 
ROOT
HETATM    1  O   UNL     1      16.359   4.309  93.946  1.00  0.00    -0.350 OA
HETATM    2  N   UNL     1      14.371   2.661  92.747  1.00  0.00     0.147 N 
HETATM    3  C   UNL     1      14.374   4.119  92.562  1.00  0.00     0.283 C 
HETATM    4  C   UNL     1      14.978   2.316  94.040  1.00  0.00     0.283 C 
HETATM    5  C   UNL     1      15.800   4.652  92.676  1.00  0.00     0.178 C 
HETATM    6  C   UNL     1      16.389   2.892  94.120  1.00  0.00     0.178 C 
ENDROOT
BRANCH   2   7
HETATM    7  C   UNL     1      13.013   2.129  92.652  1.00  0.00     0.277 C 
BRANCH   7   8
HETATM    8  C   UNL     1      11.978   3.202  92.704  1.00  0.00     0.011 A 
HETATM    9  C   UNL     1      11.090   3.365  91.641  1.00  0.00    -0.002 A 
HETATM   10  C   UNL     1      10.123   4.369  91.688  1.00  0.00     0.008 A 
HETATM   11  C   UNL     1      10.044   5.208  92.799  1.00  0.00     0.042 A 
HETATM   12  C   UNL     1      10.930   5.046  93.861  1.00  0.00     0.008 A 
HETATM   13  C   UNL     1      11.898   4.042  93.815  1.00  0.00    -0.002 A 
BRANCH  11  14
HETATM   14  C   UNL     1       9.051   6.237  92.848  1.00  0.00    -0.059 C 
HETATM   15  C   UNL     1       8.217   7.102  92.889  1.00  0.00    -0.059 C 
BRANCH  15  16
HETATM   16  C   UNL     1       7.225   8.130  92.937  1.00  0.00     0.042 A 
HETATM   17  C   UNL     1       5.908   7.845  92.573  1.00  0.00     0.008 A 
HETATM   18  C   UNL     1       4.940   8.848  92.623  1.00  0.00     0.005 A 
HETATM   19  C   UNL     1       5.309  10.111  93.035  1.00  0.00     0.056 A 
HETATM   20  C   UNL     1       6.603  10.418  93.399  1.00  0.00     0.005 A 
HETATM   21  C   UNL     1       7.573   9.416  93.350  1.00  0.00     0.008 A 
BRANCH  19  22
HETATM   22  C   UNL     1       4.278  11.180  93.086  1.00  0.00     0.254 C 
HETATM   23  O   UNL     1       3.342  11.073  93.875  1.00  0.00    -0.268 OA
HETATM   24  N   UNL     1       4.473  12.255  92.230  1.00  0.00    -0.335 N 
HETATM   25  HN  UNL     1       5.284  12.286  91.623  1.00  0.00     0.164 HD
BRANCH  24  26
HETATM   26  C   UNL     1       3.574  13.380  92.180  1.00  0.00     0.166 C 
BRANCH  26  27
HETATM   27  C   UNL     1       4.118  14.607  92.922  1.00  0.00     0.138 C 
HETATM   28  C   UNL     1       3.017  15.586  93.316  1.00  0.00     0.034 C 
BRANCH  27  29
HETATM   29  O   UNL     1       4.808  14.187  94.098  1.00  0.00    -0.383 OA
HETATM   30  H   UNL     1       4.516  14.745  94.839  1.00  0.00     0.210 HD
ENDBRANCH  27  29
ENDBRANCH  26  27
BRANCH  26  31
HETATM   31  C   UNL     1       3.302  13.694  90.712  1.00  0.00     0.181 C 
HETATM   32  O   UNL     1       2.205  14.062  90.299  1.00  0.00    -0.294 OA
BRANCH  31  33
HETATM   33  C   UNL     1       4.387  14.737  90.109  1.00  0.00     0.138 C 
BRANCH  33  34
HETATM   34  C   UNL     1       4.818  14.046  88.955  1.00  0.00     0.208 C 
HETATM   35  O   UNL     1       5.197  14.732  88.034  1.00  0.00    -0.289 OA
BRANCH  34  36
HETATM   36  C   UNL     1       5.156  12.732  88.782  1.00  0.00     0.194 C 
HETATM   37  O   UNL     1       6.404  12.102  88.851  1.00  0.00    -0.185 OA
ENDBRANCH  34  36
ENDBRANCH  33  34
ENDBRANCH  31  33
ENDBRANCH  26  31
ENDBRANCH  24  26
ENDBRANCH  19  22
ENDBRANCH  15  16
ENDBRANCH  11  14
ENDBRANCH   7   8
ENDBRANCH   2   7
TORSDOF 12
ENDMDL
MODEL 4
REMARK VINA RESULT:      -5.1      2.396     12.916
REMARK  12 active torsions:
REMARK  status: ('A' for Active; 'I' for Inactive)
REMARK    1  A    between atoms: O_2  and  C_16 
REMARK    2  A    between atoms: N_5  and  C_9 
REMARK    3  A    between atoms: N_6  and  C_13 
REMARK       I    between atoms: N_6  and  C_22 
REMARK    4  A    between atoms: C_9  and  C_12 
REMARK    5  A    between atoms: C_13  and  C_16 
REMARK    6  A    between atoms: C_13  and  C_21 
REMARK    7  A    between atoms: C_19  and  C_24 
REMARK    8  A    between atoms: C_21  and  C_33 
REMARK    9  A    between atoms: C_22  and  C_23 
REMARK   10  A    between atoms: C_27  and  C_30 
REMARK   11  A    between atoms: C_33  and  C_34 
REMARK   12  A    between atoms: C_34  and  C_35 
ROOT
HETATM    1  O   UNL     1       2.715  14.680  93.885  1.00  0.00    -0.350 OA
HETATM    2  N   UNL     1       2.795  14.560  91.043  1.00  0.00     0.147 N 
HETATM    3  C   UNL     1       1.653  14.031  91.802  1.00  0.00     0.283 C 
HETATM    4  C   UNL     1       4.019  14.475  91.850  1.00  0.00     0.283 C 
HETATM    5  C   UNL     1       1.513  14.788  93.120  1.00  0.00     0.178 C 
HETATM    6  C   UNL     1       3.824  15.221  93.167  1.00  0.00     0.178 C 
ENDROOT
BRANCH   2   7
HETATM    7  C   UNL     1       2.955  13.841  89.780  1.00  0.00     0.277 C 
BRANCH   7   8
HETATM    8  C   UNL     1       3.886  12.683  89.899  1.00  0.00     0.011 A 
HETATM    9  C   UNL     1       3.461  11.509  90.522  1.00  0.00    -0.002 A 
HETATM   10  C   UNL     1       4.333  10.426  90.637  1.00  0.00     0.008 A 
HETATM   11  C   UNL     1       5.627  10.517  90.126  1.00  0.00     0.042 A 
HETATM   12  C   UNL     1       6.052  11.688  89.503  1.00  0.00     0.008 A 
HETATM   13  C   UNL     1       5.181  12.772  89.389  1.00  0.00    -0.002 A 
BRANCH  11  14
HETATM   14  C   UNL     1       6.520   9.405  90.241  1.00  0.00    -0.059 C 
HETATM   15  C   UNL     1       7.270   8.470  90.339  1.00  0.00    -0.059 C 
BRANCH  15  16
HETATM   16  C   UNL     1       8.161   7.358  90.454  1.00  0.00     0.042 A 
HETATM   17  C   UNL     1       8.140   6.346  89.494  1.00  0.00     0.008 A 
HETATM   18  C   UNL     1       9.012   5.263  89.605  1.00  0.00     0.005 A 
HETATM   19  C   UNL     1       9.885   5.216  90.672  1.00  0.00     0.056 A 
HETATM   20  C   UNL     1       9.924   6.204  91.634  1.00  0.00     0.005 A 
HETATM   21  C   UNL     1       9.053   7.287  91.524  1.00  0.00     0.008 A 
BRANCH  19  22
HETATM   22  C   UNL     1      10.812   4.061  90.791  1.00  0.00     0.254 C 
HETATM   23  O   UNL     1      10.590   3.045  90.138  1.00  0.00    -0.268 OA
HETATM   24  N   UNL     1      11.897   4.238  91.638  1.00  0.00    -0.335 N 
HETATM   25  HN  UNL     1      12.029   5.115  92.127  1.00  0.00     0.164 HD
BRANCH  24  26
HETATM   26  C   UNL     1      12.897   3.220  91.840  1.00  0.00     0.166 C 
BRANCH  26  27
HETATM   27  C   UNL     1      14.215   3.530  91.119  1.00  0.00     0.138 C 
HETATM   28  C   UNL     1      14.091   3.417  89.603  1.00  0.00     0.034 C 
BRANCH  27  29
HETATM   29  O   UNL     1      14.641   4.851  91.452  1.00  0.00    -0.383 OA
HETATM   30  H   UNL     1      13.913   5.299  91.913  1.00  0.00     0.210 HD
ENDBRANCH  27  29
ENDBRANCH  26  27
BRANCH  26  31
HETATM   31  C   UNL     1      13.110   3.067  93.342  1.00  0.00     0.181 C 
HETATM   32  O   UNL     1      12.199   2.801  94.124  1.00  0.00    -0.294 OA
BRANCH  31  33
HETATM   33  C   UNL     1      14.311   2.033  93.679  1.00  0.00     0.138 C 
BRANCH  33  34
HETATM   34  C   UNL     1      15.394   2.921  93.864  1.00  0.00     0.208 C 
HETATM   35  O   UNL     1      15.103   4.067  94.121  1.00  0.00    -0.289 OA
BRANCH  34  36
HETATM   36  C   UNL     1      16.719   2.670  94.088  1.00  0.00     0.194 C 
HETATM   37  O   UNL     1      17.853   3.404  93.722  1.00  0.00    -0.185 OA
ENDBRANCH  34  36
ENDBRANCH  33  34
ENDBRANCH  31  33
ENDBRANCH  26  31
ENDBRANCH  24  26
ENDBRANCH  19  22
ENDBRANCH  15  16
ENDBRANCH  11  14
ENDBRANCH   7   8
ENDBRANCH   2   7
TORSDOF 12
ENDMDL
MODEL 5
REMARK VINA RESULT:      -4.0      2.716     12.380
REMARK  12 active torsions:
REMARK  status: ('A' for Active; 'I' for Inactive)
REMARK    1  A    between atoms: O_2  and  C_16 
REMARK    2  A    between atoms: N_5  and  C_9 
REMARK    3  A    between atoms: N_6  and  C_13 
REMARK       I    between atoms: N_6  and  C_22 
REMARK    4  A    between atoms: C_9  and  C_12 
REMARK    5  A    between atoms: C_13  and  C_16 
REMARK    6  A    between atoms: C_13  and  C_21 
REMARK    7  A    between atoms: C_19  and  C_24 
REMARK    8  A    between atoms: C_21  and  C_33 
REMARK    9  A    between atoms: C_22  and  C_23 
REMARK   10  A    between atoms: C_27  and  C_30 
REMARK   11  A    between atoms: C_33  and  C_34 
REMARK   12  A    between atoms: C_34  and  C_35 
ROOT
HETATM    1  O   UNL     1       3.214  14.724  94.072  1.00  0.00    -0.350 OA
HETATM    2  N   UNL     1       2.734  14.658  91.267  1.00  0.00     0.147 N 
HETATM    3  C   UNL     1       1.813  14.022  92.218  1.00  0.00     0.283 C 
HETATM    4  C   UNL     1       4.098  14.662  91.814  1.00  0.00     0.283 C 
HETATM    5  C   UNL     1       1.879  14.744  93.562  1.00  0.00     0.178 C 
HETATM    6  C   UNL     1       4.111  15.367  93.166  1.00  0.00     0.178 C 
ENDROOT
BRANCH   2   7
HETATM    7  C   UNL     1       2.695  13.975  89.974  1.00  0.00     0.277 C 
BRANCH   7   8
HETATM    8  C   UNL     1       3.676  12.855  89.893  1.00  0.00     0.011 A 
HETATM    9  C   UNL     1       3.356  11.610  90.435  1.00  0.00    -0.002 A 
HETATM   10  C   UNL     1       4.273  10.561  90.362  1.00  0.00     0.008 A 
HETATM   11  C   UNL     1       5.508  10.759  89.745  1.00  0.00     0.042 A 
HETATM   12  C   UNL     1       5.828  12.002  89.204  1.00  0.00     0.008 A 
HETATM   13  C   UNL     1       4.912  13.051  89.278  1.00  0.00    -0.002 A 
BRANCH  11  14
HETATM   14  C   UNL     1       6.448   9.683  89.669  1.00  0.00    -0.059 C 
HETATM   15  C   UNL     1       7.237   8.778  89.604  1.00  0.00    -0.059 C 
BRANCH  15  16
HETATM   16  C   UNL     1       8.176   7.702  89.526  1.00  0.00     0.042 A 
HETATM   17  C   UNL     1       9.400   7.891  88.885  1.00  0.00     0.008 A 
HETATM   18  C   UNL     1      10.317   6.843  88.812  1.00  0.00     0.005 A 
HETATM   19  C   UNL     1       9.990   5.630  89.382  1.00  0.00     0.056 A 
HETATM   20  C   UNL     1       8.786   5.418  90.021  1.00  0.00     0.005 A 
HETATM   21  C   UNL     1       7.869   6.466  90.094  1.00  0.00     0.008 A 
BRANCH  19  22
HETATM   22  C   UNL     1      10.966   4.513  89.302  1.00  0.00     0.254 C 
HETATM   23  O   UNL     1      11.099   3.907  88.241  1.00  0.00    -0.268 OA
HETATM   24  N   UNL     1      11.687   4.251  90.459  1.00  0.00    -0.335 N 
HETATM   25  HN  UNL     1      11.541   4.810  91.291  1.00  0.00     0.164 HD
BRANCH  24  26
HETATM   26  C   UNL     1      12.686   3.216  90.532  1.00  0.00     0.166 C 
BRANCH  26  27
HETATM   27  C   UNL     1      14.114   3.773  90.592  1.00  0.00     0.138 C 
HETATM   28  C   UNL     1      14.311   4.753  91.744  1.00  0.00     0.034 C 
BRANCH  27  29
HETATM   29  O   UNL     1      15.041   2.697  90.736  1.00  0.00    -0.383 OA
HETATM   30  H   UNL     1      14.947   2.109  89.968  1.00  0.00     0.210 HD
ENDBRANCH  27  29
ENDBRANCH  26  27
BRANCH  26  31
HETATM   31  C   UNL     1      12.376   2.354  91.751  1.00  0.00     0.181 C 
HETATM   32  O   UNL     1      13.171   2.187  92.674  1.00  0.00    -0.294 OA
BRANCH  31  33
HETATM   33  C   UNL     1      10.967   2.768  92.438  1.00  0.00     0.138 C 
BRANCH  33  34
HETATM   34  C   UNL     1      11.407   3.639  93.459  1.00  0.00     0.208 C 
HETATM   35  O   UNL     1      12.411   3.308  94.046  1.00  0.00    -0.289 OA
BRANCH  34  36
HETATM   36  C   UNL     1      11.069   4.938  93.723  1.00  0.00     0.194 C 
HETATM   37  O   UNL     1      10.718   5.976  92.852  1.00  0.00    -0.185 OA
ENDBRANCH  34  36
ENDBRANCH  33  34
ENDBRANCH  31  33
ENDBRANCH  26  31
ENDBRANCH  24  26
ENDBRANCH  19  22
ENDBRANCH  15  16
ENDBRANCH  11  14
ENDBRANCH   7   8
ENDBRANCH   2   7
TORSDOF 12
ENDMDL
MODEL 6
REMARK VINA RESULT:      -3.8      1.506      1.907
REMARK  12 active torsions:
REMARK  status: ('A' for Active; 'I' for Inactive)
REMARK    1  A    between atoms: O_2  and  C_16 
REMARK    2  A    between atoms: N_5  and  C_9 
REMARK    3  A    between atoms: N_6  and  C_13 
REMARK       I    between atoms: N_6  and  C_22 
REMARK    4  A    between atoms: C_9  and  C_12 
REMARK    5  A    between atoms: C_13  and  C_16 
REMARK    6  A    between atoms: C_13  and  C_21 
REMARK    7  A    between atoms: C_19  and  C_24 
REMARK    8  A    between atoms: C_21  and  C_33 
REMARK    9  A    between atoms: C_22  and  C_23 
REMARK   10  A    between atoms: C_27  and  C_30 
REMARK   11  A    between atoms: C_33  and  C_34 
REMARK   12  A    between atoms: C_34  and  C_35 
ROOT
HETATM    1  O   UNL     1      15.853   2.642  91.124  1.00  0.00    -0.350 OA
HETATM    2  N   UNL     1      13.708   3.096  92.939  1.00  0.00     0.147 N 
HETATM    3  C   UNL     1      14.749   2.096  93.215  1.00  0.00     0.283 C 
HETATM    4  C   UNL     1      13.535   3.255  91.489  1.00  0.00     0.283 C 
HETATM    5  C   UNL     1      16.052   2.504  92.532  1.00  0.00     0.178 C 
HETATM    6  C   UNL     1      14.865   3.635  90.847  1.00  0.00     0.178 C 
ENDROOT
BRANCH   2   7
HETATM    7  C   UNL     1      12.447   2.719  93.575  1.00  0.00     0.277 C 
BRANCH   7   8
HETATM    8  C   UNL     1      11.366   3.715  93.326  1.00  0.00     0.011 A 
HETATM    9  C   UNL     1      11.273   4.857  94.123  1.00  0.00    -0.002 A 
HETATM   10  C   UNL     1      10.261   5.788  93.892  1.00  0.00     0.008 A 
HETATM   11  C   UNL     1       9.343   5.578  92.864  1.00  0.00     0.042 A 
HETATM   12  C   UNL     1       9.435   4.439  92.067  1.00  0.00     0.008 A 
HETATM   13  C   UNL     1      10.446   3.507  92.298  1.00  0.00    -0.002 A 
BRANCH  11  14
HETATM   14  C   UNL     1       8.306   6.535  92.626  1.00  0.00    -0.059 C 
HETATM   15  C   UNL     1       7.434   7.339  92.427  1.00  0.00    -0.059 C 
BRANCH  15  16
HETATM   16  C   UNL     1       6.399   8.295  92.189  1.00  0.00     0.042 A 
HETATM   17  C   UNL     1       6.200   9.344  93.088  1.00  0.00     0.008 A 
HETATM   18  C   UNL     1       5.191  10.279  92.854  1.00  0.00     0.005 A 
HETATM   19  C   UNL     1       4.405  10.144  91.729  1.00  0.00     0.056 A 
HETATM   20  C   UNL     1       4.581   9.117  90.826  1.00  0.00     0.005 A 
HETATM   21  C   UNL     1       5.590   8.181  91.059  1.00  0.00     0.008 A 
BRANCH  19  22
HETATM   22  C   UNL     1       3.329  11.139  91.482  1.00  0.00     0.254 C 
HETATM   23  O   UNL     1       2.165  10.755  91.399  1.00  0.00    -0.268 OA
HETATM   24  N   UNL     1       3.735  12.463  91.387  1.00  0.00    -0.335 N 
HETATM   25  HN  UNL     1       4.713  12.708  91.492  1.00  0.00     0.164 HD
BRANCH  24  26
HETATM   26  C   UNL     1       2.808  13.545  91.174  1.00  0.00     0.166 C 
BRANCH  26  27
HETATM   27  C   UNL     1       2.844  14.588  92.298  1.00  0.00     0.138 C 
HETATM   28  C   UNL     1       2.009  14.175  93.505  1.00  0.00     0.034 C 
BRANCH  27  29
HETATM   29  O   UNL     1       4.194  14.792  92.717  1.00  0.00    -0.383 OA
HETATM   30  H   UNL     1       4.719  14.023  92.439  1.00  0.00     0.210 HD
ENDBRANCH  27  29
ENDBRANCH  26  27
BRANCH  26  31
HETATM   31  C   UNL     1       3.131  14.175  89.823  1.00  0.00     0.181 C 
HETATM   32  O   UNL     1       4.083  14.933  89.647  1.00  0.00    -0.294 OA
BRANCH  31  33
HETATM   33  C   UNL     1       3.213  13.065  88.645  1.00  0.00     0.138 C 
BRANCH  33  34
HETATM   34  C   UNL     1       4.597  13.068  88.362  1.00  0.00     0.208 C 
HETATM   35  O   UNL     1       4.936  13.672  87.371  1.00  0.00    -0.289 OA
BRANCH  34  36
HETATM   36  C   UNL     1       5.665  12.753  89.156  1.00  0.00     0.194 C 
HETATM   37  O   UNL     1       6.604  11.721  89.042  1.00  0.00    -0.185 OA
ENDBRANCH  34  36
ENDBRANCH  33  34
ENDBRANCH  31  33
ENDBRANCH  26  31
ENDBRANCH  24  26
ENDBRANCH  19  22
ENDBRANCH  15  16
ENDBRANCH  11  14
ENDBRANCH   7   8
ENDBRANCH   2   7
TORSDOF 12
ENDMDL
MODEL 7
REMARK VINA RESULT:      -3.5      2.266     13.020
REMARK  12 active torsions:
REMARK  status: ('A' for Active; 'I' for Inactive)
REMARK    1  A    between atoms: O_2  and  C_16 
REMARK    2  A    between atoms: N_5  and  C_9 
REMARK    3  A    between atoms: N_6  and  C_13 
REMARK       I    between atoms: N_6  and  C_22 
REMARK    4  A    between atoms: C_9  and  C_12 
REMARK    5  A    between atoms: C_13  and  C_16 
REMARK    6  A    between atoms: C_13  and  C_21 
REMARK    7  A    between atoms: C_19  and  C_24 
REMARK    8  A    between atoms: C_21  and  C_33 
REMARK    9  A    between atoms: C_22  and  C_23 
REMARK   10  A    between atoms: C_27  and  C_30 
REMARK   11  A    between atoms: C_33  and  C_34 
REMARK   12  A    between atoms: C_34  and  C_35 
ROOT
HETATM    1  O   UNL     1       3.761  15.450  91.817  1.00  0.00    -0.350 OA
HETATM    2  N   UNL     1       1.810  13.610  92.772  1.00  0.00     0.147 N 
HETATM    3  C   UNL     1       2.772  14.250  93.681  1.00  0.00     0.283 C 
HETATM    4  C   UNL     1       2.393  13.485  91.429  1.00  0.00     0.283 C 
HETATM    5  C   UNL     1       3.191  15.606  93.118  1.00  0.00     0.178 C 
HETATM    6  C   UNL     1       2.821  14.857  90.920  1.00  0.00     0.178 C 
ENDROOT
BRANCH   2   7
HETATM    7  C   UNL     1       1.402  12.304  93.286  1.00  0.00     0.277 C 
BRANCH   7   8
HETATM    8  C   UNL     1       2.490  11.289  93.186  1.00  0.00     0.011 A 
HETATM    9  C   UNL     1       2.336  10.184  92.349  1.00  0.00    -0.002 A 
HETATM   10  C   UNL     1       3.352   9.233  92.256  1.00  0.00     0.008 A 
HETATM   11  C   UNL     1       4.522   9.389  92.999  1.00  0.00     0.042 A 
HETATM   12  C   UNL     1       4.677  10.493  93.835  1.00  0.00     0.008 A 
HETATM   13  C   UNL     1       3.661  11.444  93.929  1.00  0.00    -0.002 A 
BRANCH  11  14
HETATM   14  C   UNL     1       5.565   8.415  92.902  1.00  0.00    -0.059 C 
HETATM   15  C   UNL     1       6.442   7.597  92.821  1.00  0.00    -0.059 C 
BRANCH  15  16
HETATM   16  C   UNL     1       7.485   6.623  92.725  1.00  0.00     0.042 A 
HETATM   17  C   UNL     1       8.344   6.413  93.805  1.00  0.00     0.008 A 
HETATM   18  C   UNL     1       9.359   5.461  93.712  1.00  0.00     0.005 A 
HETATM   19  C   UNL     1       9.492   4.740  92.544  1.00  0.00     0.056 A 
HETATM   20  C   UNL     1       8.656   4.928  91.463  1.00  0.00     0.005 A 
HETATM   21  C   UNL     1       7.640   5.880  91.555  1.00  0.00     0.008 A 
BRANCH  19  22
HETATM   22  C   UNL     1      10.574   3.727  92.445  1.00  0.00     0.254 C 
HETATM   23  O   UNL     1      10.301   2.540  92.603  1.00  0.00    -0.268 OA
HETATM   24  N   UNL     1      11.839   4.216  92.150  1.00  0.00    -0.335 N 
HETATM   25  HN  UNL     1      11.985   5.209  92.008  1.00  0.00     0.164 HD
BRANCH  24  26
HETATM   26  C   UNL     1      12.987   3.358  91.997  1.00  0.00     0.166 C 
BRANCH  26  27
HETATM   27  C   UNL     1      13.695   3.548  90.650  1.00  0.00     0.138 C 
HETATM   28  C   UNL     1      12.716   3.749  89.498  1.00  0.00     0.034 C 
BRANCH  27  29
HETATM   29  O   UNL     1      14.563   4.679  90.722  1.00  0.00    -0.383 OA
HETATM   30  H   UNL     1      15.383   4.465  90.245  1.00  0.00     0.210 HD
ENDBRANCH  27  29
ENDBRANCH  26  27
BRANCH  26  31
HETATM   31  C   UNL     1      13.931   3.631  93.163  1.00  0.00     0.181 C 
HETATM   32  O   UNL     1      13.623   4.334  94.124  1.00  0.00    -0.294 OA
BRANCH  31  33
HETATM   33  C   UNL     1      14.535   2.260  93.782  1.00  0.00     0.138 C 
BRANCH  33  34
HETATM   34  C   UNL     1      15.916   2.439  93.548  1.00  0.00     0.208 C 
HETATM   35  O   UNL     1      16.353   1.939  92.537  1.00  0.00    -0.289 OA
BRANCH  34  36
HETATM   36  C   UNL     1      16.805   3.316  94.106  1.00  0.00     0.194 C 
HETATM   37  O   UNL     1      18.204   3.301  94.120  1.00  0.00    -0.185 OA
ENDBRANCH  34  36
ENDBRANCH  33  34
ENDBRANCH  31  33
ENDBRANCH  26  31
ENDBRANCH  24  26
ENDBRANCH  19  22
ENDBRANCH  15  16
ENDBRANCH  11  14
ENDBRANCH   7   8
ENDBRANCH   2   7
TORSDOF 12
ENDMDL
MODEL 8
REMARK VINA RESULT:      -3.4      2.401     12.583
REMARK  12 active torsions:
REMARK  status: ('A' for Active; 'I' for Inactive)
REMARK    1  A    between atoms: O_2  and  C_16 
REMARK    2  A    between atoms: N_5  and  C_9 
REMARK    3  A    between atoms: N_6  and  C_13 
REMARK       I    between atoms: N_6  and  C_22 
REMARK    4  A    between atoms: C_9  and  C_12 
REMARK    5  A    between atoms: C_13  and  C_16 
REMARK    6  A    between atoms: C_13  and  C_21 
REMARK    7  A    between atoms: C_19  and  C_24 
REMARK    8  A    between atoms: C_21  and  C_33 
REMARK    9  A    between atoms: C_22  and  C_23 
REMARK   10  A    between atoms: C_27  and  C_30 
REMARK   11  A    between atoms: C_33  and  C_34 
REMARK   12  A    between atoms: C_34  and  C_35 
ROOT
HETATM    1  O   UNL     1       5.098  15.625  91.168  1.00  0.00    -0.350 OA
HETATM    2  N   UNL     1       3.342  13.665  90.082  1.00  0.00     0.147 N 
HETATM    3  C   UNL     1       3.524  13.814  91.532  1.00  0.00     0.283 C 
HETATM    4  C   UNL     1       4.564  14.079  89.377  1.00  0.00     0.283 C 
HETATM    5  C   UNL     1       3.904  15.256  91.861  1.00  0.00     0.178 C 
HETATM    6  C   UNL     1       4.920  15.513  89.756  1.00  0.00     0.178 C 
ENDROOT
BRANCH   2   7
HETATM    7  C   UNL     1       2.988  12.288  89.743  1.00  0.00     0.277 C 
BRANCH   7   8
HETATM    8  C   UNL     1       4.142  11.354  89.881  1.00  0.00     0.011 A 
HETATM    9  C   UNL     1       4.447  10.467  88.848  1.00  0.00    -0.002 A 
HETATM   10  C   UNL     1       5.524   9.591  88.976  1.00  0.00     0.008 A 
HETATM   11  C   UNL     1       6.298   9.605  90.137  1.00  0.00     0.042 A 
HETATM   12  C   UNL     1       5.995  10.491  91.168  1.00  0.00     0.008 A 
HETATM   13  C   UNL     1       4.917  11.366  91.041  1.00  0.00    -0.002 A 
BRANCH  11  14
HETATM   14  C   UNL     1       7.405   8.708  90.267  1.00  0.00    -0.059 C 
HETATM   15  C   UNL     1       8.336   7.955  90.377  1.00  0.00    -0.059 C 
BRANCH  15  16
HETATM   16  C   UNL     1       9.443   7.059  90.508  1.00  0.00     0.042 A 
HETATM   17  C   UNL     1      10.079   6.566  89.368  1.00  0.00     0.008 A 
HETATM   18  C   UNL     1      11.160   5.695  89.497  1.00  0.00     0.005 A 
HETATM   19  C   UNL     1      11.582   5.337  90.760  1.00  0.00     0.056 A 
HETATM   20  C   UNL     1      10.970   5.810  91.902  1.00  0.00     0.005 A 
HETATM   21  C   UNL     1       9.888   6.681  91.775  1.00  0.00     0.008 A 
BRANCH  19  22
HETATM   22  C   UNL     1      12.732   4.407  90.896  1.00  0.00     0.254 C 
HETATM   23  O   UNL     1      13.099   3.759  89.918  1.00  0.00    -0.268 OA
HETATM   24  N   UNL     1      13.332   4.361  92.147  1.00  0.00    -0.335 N 
HETATM   25  HN  UNL     1      12.990   4.943  92.901  1.00  0.00     0.164 HD
BRANCH  24  26
HETATM   26  C   UNL     1      14.473   3.527  92.429  1.00  0.00     0.166 C 
BRANCH  26  27
HETATM   27  C   UNL     1      15.411   4.139  93.477  1.00  0.00     0.138 C 
HETATM   28  C   UNL     1      16.585   3.227  93.814  1.00  0.00     0.034 C 
BRANCH  27  29
HETATM   29  O   UNL     1      15.915   5.385  92.996  1.00  0.00    -0.383 OA
HETATM   30  H   UNL     1      15.159   5.952  92.768  1.00  0.00     0.210 HD
ENDBRANCH  27  29
ENDBRANCH  26  27
BRANCH  26  31
HETATM   31  C   UNL     1      13.954   2.165  92.878  1.00  0.00     0.181 C 
HETATM   32  O   UNL     1      14.643   1.357  93.500  1.00  0.00    -0.294 OA
BRANCH  31  33
HETATM   33  C   UNL     1      12.559   2.290  93.694  1.00  0.00     0.138 C 
BRANCH  33  34
HETATM   34  C   UNL     1      11.619   2.098  92.658  1.00  0.00     0.208 C 
HETATM   35  O   UNL     1      11.939   1.324  91.785  1.00  0.00    -0.289 OA
BRANCH  34  36
HETATM   36  C   UNL     1      10.287   2.407  92.600  1.00  0.00     0.194 C 
HETATM   37  O   UNL     1       9.500   2.816  91.517  1.00  0.00    -0.185 OA
ENDBRANCH  34  36
ENDBRANCH  33  34
ENDBRANCH  31  33
ENDBRANCH  26  31
ENDBRANCH  24  26
ENDBRANCH  19  22
ENDBRANCH  15  16
ENDBRANCH  11  14
ENDBRANCH   7   8
ENDBRANCH   2   7
TORSDOF 12
ENDMDL
