MODEL 1
REMARK VINA RESULT:      -7.6      0.000      0.000
REMARK  9 active torsions:
REMARK  status: ('A' for Active; 'I' for Inactive)
REMARK    1  A    between atoms: N_3  and  C_6 
REMARK    2  A    between atoms: C_6  and  C_9 
REMARK    3  A    between atoms: C_14  and  C_17 
REMARK       I    between atoms: N_26  and  C_15 
REMARK    4  A    between atoms: C_15  and  C_16 
REMARK    5  A    between atoms: C_20  and  C_23 
REMARK    6  A    between atoms: OG1_24  and  CB_28 
REMARK    7  A    between atoms: N_26  and  CA_27 
REMARK    8  A    between atoms: CA_27  and  CB_28 
REMARK    9  A    between atoms: CA_27  and  C_30 
ROOT
HETATM    1  O   UNK A   0       1.894   8.157  87.878  1.00  0.00    -0.388 OA
HETATM    2  N   UNK A   0       4.668   7.548  87.682  1.00  0.00     0.096 N 
HETATM    3  C   UNK A   0       4.195   8.929  87.850  1.00  0.00     0.299 C 
HETATM    4  C   UNK A   0       3.654   6.751  86.978  1.00  0.00     0.299 C 
HETATM    5  C   UNK A   0       2.860   8.932  88.590  1.00  0.00     0.198 C 
HETATM    6  C   UNK A   0       2.332   6.806  87.737  1.00  0.00     0.198 C 
ENDROOT
BRANCH   2   7
HETATM    7  C   UNK A   0       5.941   7.520  86.965  1.00  0.00     0.311 C 
BRANCH   7   8
HETATM    8  C   UNK A   0       7.037   6.918  87.776  1.00  0.00    -0.030 A 
HETATM    9  C   UNK A   0       8.275   6.655  87.189  1.00  0.00     0.010 A 
HETATM   10  C   UNK A   0       9.301   6.090  87.947  1.00  0.00     0.021 A 
HETATM   11  C   UNK A   0       9.088   5.790  89.292  1.00  0.00     0.018 A 
HETATM   12  C   UNK A   0       7.852   6.052  89.880  1.00  0.00     0.021 A 
HETATM   13  C   UNK A   0       6.826   6.617  89.122  1.00  0.00     0.010 A 
BRANCH  11  14
HETATM   14  C   UNK A   0      10.141   5.212  90.070  1.00  0.00    -0.061 C 
HETATM   15  C   UNK A   0      11.025   4.726  90.724  1.00  0.00    -0.061 C 
BRANCH  15  16
HETATM   16  C   UNK A   0      12.076   4.147  91.501  1.00  0.00     0.018 A 
HETATM   17  C   UNK A   0      13.336   3.953  90.933  1.00  0.00     0.022 A 
HETATM   18  C   UNK A   0      14.362   3.391  91.692  1.00  0.00     0.018 A 
HETATM   19  C   UNK A   0      14.107   3.037  93.000  1.00  0.00     0.032 A 
HETATM   20  C   UNK A   0      12.871   3.219  93.584  1.00  0.00     0.018 A 
HETATM   21  C   UNK A   0      11.844   3.781  92.826  1.00  0.00     0.022 A 
BRANCH  19  22
HETATM   22  C   UNK A   0      15.200   2.437  93.808  1.00  0.00     0.252 C 
HETATM   23  O   UNK A   0      16.352   2.832  93.645  1.00  0.00    -0.268 OA
ENDBRANCH  19  22
ENDBRANCH  15  16
ENDBRANCH  11  14
ENDBRANCH   7   8
ENDBRANCH   2   7
TORSDOF 9
ENDMDL
MODEL 2
REMARK VINA RESULT:      -7.5      0.084      1.427
REMARK  9 active torsions:
REMARK  status: ('A' for Active; 'I' for Inactive)
REMARK    1  A    between atoms: N_3  and  C_6 
REMARK    2  A    between atoms: C_6  and  C_9 
REMARK    3  A    between atoms: C_14  and  C_17 
REMARK       I    between atoms: N_26  and  C_15 
REMARK    4  A    between atoms: C_15  and  C_16 
REMARK    5  A    between atoms: C_20  and  C_23 
REMARK    6  A    between atoms: OG1_24  and  CB_28 
REMARK    7  A    between atoms: N_26  and  CA_27 
REMARK    8  A    between atoms: CA_27  and  CB_28 
REMARK    9  A    between atoms: CA_27  and  C_30 
ROOT
HETATM    1  O   UNK A   0       1.919   8.022  87.825  1.00  0.00    -0.388 OA
HETATM    2  N   UNK A   0       4.722   7.548  87.687  1.00  0.00     0.096 N 
HETATM    3  C   UNK A   0       4.176   8.910  87.766  1.00  0.00     0.299 C 
HETATM    4  C   UNK A   0       3.758   6.657  87.026  1.00  0.00     0.299 C 
HETATM    5  C   UNK A   0       2.836   8.889  88.496  1.00  0.00     0.198 C 
HETATM    6  C   UNK A   0       2.428   6.689  87.772  1.00  0.00     0.198 C 
ENDROOT
BRANCH   2   7
HETATM    7  C   UNK A   0       6.003   7.543  86.982  1.00  0.00     0.311 C 
BRANCH   7   8
HETATM    8  C   UNK A   0       7.097   6.941  87.795  1.00  0.00    -0.030 A 
HETATM    9  C   UNK A   0       6.890   6.668  89.148  1.00  0.00     0.010 A 
HETATM   10  C   UNK A   0       7.914   6.107  89.911  1.00  0.00     0.021 A 
HETATM   11  C   UNK A   0       9.143   5.815  89.319  1.00  0.00     0.018 A 
HETATM   12  C   UNK A   0       9.350   6.086  87.968  1.00  0.00     0.021 A 
HETATM   13  C   UNK A   0       8.327   6.649  87.206  1.00  0.00     0.010 A 
BRANCH  11  14
HETATM   14  C   UNK A   0      10.192   5.237  90.101  1.00  0.00    -0.061 C 
HETATM   15  C   UNK A   0      11.074   4.750  90.758  1.00  0.00    -0.061 C 
BRANCH  15  16
HETATM   16  C   UNK A   0      12.124   4.173  91.538  1.00  0.00     0.018 A 
HETATM   17  C   UNK A   0      11.885   3.805  92.863  1.00  0.00     0.022 A 
HETATM   18  C   UNK A   0      12.908   3.239  93.623  1.00  0.00     0.018 A 
HETATM   19  C   UNK A   0      14.145   3.053  93.043  1.00  0.00     0.032 A 
HETATM   20  C   UNK A   0      14.406   3.408  91.736  1.00  0.00     0.018 A 
HETATM   21  C   UNK A   0      13.384   3.974  90.975  1.00  0.00     0.022 A 
BRANCH  19  22
HETATM   22  C   UNK A   0      15.235   2.452  93.855  1.00  0.00     0.252 C 
HETATM   23  O   UNK A   0      16.392   2.824  93.675  1.00  0.00    -0.268 OA
ENDBRANCH  19  22
ENDBRANCH  15  16
ENDBRANCH  11  14
ENDBRANCH   7   8
ENDBRANCH   2   7
TORSDOF 9
ENDMDL
MODEL 3
REMARK VINA RESULT:      -7.5      0.268      1.042
REMARK  9 active torsions:
REMARK  status: ('A' for Active; 'I' for Inactive)
REMARK    1  A    between atoms: N_3  and  C_6 
REMARK    2  A    between atoms: C_6  and  C_9 
REMARK    3  A    between atoms: C_14  and  C_17 
REMARK       I    between atoms: N_26  and  C_15 
REMARK    4  A    between atoms: C_15  and  C_16 
REMARK    5  A    between atoms: C_20  and  C_23 
REMARK    6  A    between atoms: OG1_24  and  CB_28 
REMARK    7  A    between atoms: N_26  and  CA_27 
REMARK    8  A    between atoms: CA_27  and  CB_28 
REMARK    9  A    between atoms: CA_27  and  C_30 
ROOT
HETATM    1  O   UNK A   0       1.607   7.924  87.862  1.00  0.00    -0.388 OA
HETATM    2  N   UNK A   0       4.423   7.544  87.688  1.00  0.00     0.096 N 
HETATM    3  C   UNK A   0       3.836   8.884  87.821  1.00  0.00     0.299 C 
HETATM    4  C   UNK A   0       3.482   6.648  87.001  1.00  0.00     0.299 C 
HETATM    5  C   UNK A   0       2.502   8.794  88.558  1.00  0.00     0.198 C 
HETATM    6  C   UNK A   0       2.158   6.611  87.756  1.00  0.00     0.198 C 
ENDROOT
BRANCH   2   7
HETATM    7  C   UNK A   0       5.698   7.605  86.975  1.00  0.00     0.311 C 
BRANCH   7   8
HETATM    8  C   UNK A   0       6.815   7.001  87.755  1.00  0.00    -0.030 A 
HETATM    9  C   UNK A   0       8.064   6.823  87.160  1.00  0.00     0.010 A 
HETATM   10  C   UNK A   0       9.110   6.256  87.888  1.00  0.00     0.021 A 
HETATM   11  C   UNK A   0       8.905   5.868  89.212  1.00  0.00     0.018 A 
HETATM   12  C   UNK A   0       7.658   6.045  89.808  1.00  0.00     0.021 A 
HETATM   13  C   UNK A   0       6.612   6.611  89.079  1.00  0.00     0.010 A 
BRANCH  11  14
HETATM   14  C   UNK A   0       9.979   5.288  89.960  1.00  0.00    -0.061 C 
HETATM   15  C   UNK A   0      10.881   4.801  90.588  1.00  0.00    -0.061 C 
BRANCH  15  16
HETATM   16  C   UNK A   0      11.954   4.222  91.335  1.00  0.00     0.018 A 
HETATM   17  C   UNK A   0      11.750   3.835  92.660  1.00  0.00     0.022 A 
HETATM   18  C   UNK A   0      12.796   3.268  93.388  1.00  0.00     0.018 A 
HETATM   19  C   UNK A   0      14.020   3.100  92.775  1.00  0.00     0.032 A 
HETATM   20  C   UNK A   0      14.247   3.475  91.468  1.00  0.00     0.018 A 
HETATM   21  C   UNK A   0      13.202   4.042  90.739  1.00  0.00     0.022 A 
BRANCH  19  22
HETATM   22  C   UNK A   0      15.135   2.497  93.552  1.00  0.00     0.252 C 
HETATM   23  O   UNK A   0      16.141   3.166  93.774  1.00  0.00    -0.268 OA
ENDBRANCH  19  22
ENDBRANCH  15  16
ENDBRANCH  11  14
ENDBRANCH   7   8
ENDBRANCH   2   7
TORSDOF 9
ENDMDL
MODEL 4
REMARK VINA RESULT:      -7.0      1.423      2.004
REMARK  9 active torsions:
REMARK  status: ('A' for Active; 'I' for Inactive)
REMARK    1  A    between atoms: N_3  and  C_6 
REMARK    2  A    between atoms: C_6  and  C_9 
REMARK    3  A    between atoms: C_14  and  C_17 
REMARK       I    between atoms: N_26  and  C_15 
REMARK    4  A    between atoms: C_15  and  C_16 
REMARK    5  A    between atoms: C_20  and  C_23 
REMARK    6  A    between atoms: OG1_24  and  CB_28 
REMARK    7  A    between atoms: N_26  and  CA_27 
REMARK    8  A    between atoms: CA_27  and  CB_28 
REMARK    9  A    between atoms: CA_27  and  C_30 
ROOT
HETATM    1  O   UNK A   0       4.871  11.129  88.626  1.00  0.00    -0.388 OA
HETATM    2  N   UNK A   0       5.286   8.313  88.613  1.00  0.00     0.096 N 
HETATM    3  C   UNK A   0       6.389   9.250  88.868  1.00  0.00     0.299 C 
HETATM    4  C   UNK A   0       4.276   8.945  87.754  1.00  0.00     0.299 C 
HETATM    5  C   UNK A   0       5.843  10.534  89.488  1.00  0.00     0.198 C 
HETATM    6  C   UNK A   0       3.781  10.235  88.399  1.00  0.00     0.198 C 
ENDROOT
BRANCH   2   7
HETATM    7  C   UNK A   0       5.785   7.079  88.008  1.00  0.00     0.311 C 
BRANCH   7   8
HETATM    8  C   UNK A   0       6.971   6.533  88.728  1.00  0.00    -0.030 A 
HETATM    9  C   UNK A   0       6.822   5.995  90.007  1.00  0.00     0.010 A 
HETATM   10  C   UNK A   0       7.931   5.485  90.682  1.00  0.00     0.021 A 
HETATM   11  C   UNK A   0       9.187   5.512  90.077  1.00  0.00     0.018 A 
HETATM   12  C   UNK A   0       9.337   6.049  88.800  1.00  0.00     0.021 A 
HETATM   13  C   UNK A   0       8.228   6.559  88.125  1.00  0.00     0.010 A 
BRANCH  11  14
HETATM   14  C   UNK A   0      10.325   4.988  90.768  1.00  0.00    -0.061 C 
HETATM   15  C   UNK A   0      11.280   4.546  91.349  1.00  0.00    -0.061 C 
BRANCH  15  16
HETATM   16  C   UNK A   0      12.417   4.022  92.040  1.00  0.00     0.018 A 
HETATM   17  C   UNK A   0      13.658   3.973  91.402  1.00  0.00     0.022 A 
HETATM   18  C   UNK A   0      14.767   3.464  92.077  1.00  0.00     0.018 A 
HETATM   19  C   UNK A   0      14.612   3.016  93.372  1.00  0.00     0.032 A 
HETATM   20  C   UNK A   0      13.397   3.053  94.024  1.00  0.00     0.018 A 
HETATM   21  C   UNK A   0      12.287   3.562  93.350  1.00  0.00     0.022 A 
BRANCH  19  22
HETATM   22  C   UNK A   0      15.794   2.472  94.090  1.00  0.00     0.252 C 
HETATM   23  O   UNK A   0      16.919   2.837  93.756  1.00  0.00    -0.268 OA
ENDBRANCH  19  22
ENDBRANCH  15  16
ENDBRANCH  11  14
ENDBRANCH   7   8
ENDBRANCH   2   7
TORSDOF 9
ENDMDL
MODEL 5
REMARK VINA RESULT:      -6.6      3.923     10.410
REMARK  9 active torsions:
REMARK  status: ('A' for Active; 'I' for Inactive)
REMARK    1  A    between atoms: N_3  and  C_6 
REMARK    2  A    between atoms: C_6  and  C_9 
REMARK    3  A    between atoms: C_14  and  C_17 
REMARK       I    between atoms: N_26  and  C_15 
REMARK    4  A    between atoms: C_15  and  C_16 
REMARK    5  A    between atoms: C_20  and  C_23 
REMARK    6  A    between atoms: OG1_24  and  CB_28 
REMARK    7  A    between atoms: N_26  and  CA_27 
REMARK    8  A    between atoms: CA_27  and  CB_28 
REMARK    9  A    between atoms: CA_27  and  C_30 
ROOT
HETATM    1  O   UNK A   0      14.483   3.234  92.132  1.00  0.00    -0.388 OA
HETATM    2  N   UNK A   0      11.782   4.125  92.236  1.00  0.00     0.096 N 
HETATM    3  C   UNK A   0      12.368   3.322  93.318  1.00  0.00     0.299 C 
HETATM    4  C   UNK A   0      12.437   3.805  90.960  1.00  0.00     0.299 C 
HETATM    5  C   UNK A   0      13.874   3.561  93.382  1.00  0.00     0.198 C 
HETATM    6  C   UNK A   0      13.941   4.032  91.079  1.00  0.00     0.198 C 
ENDROOT
BRANCH   2   7
HETATM    7  C   UNK A   0      10.339   3.904  92.150  1.00  0.00     0.311 C 
BRANCH   7   8
HETATM    8  C   UNK A   0       9.589   5.158  91.856  1.00  0.00    -0.030 A 
HETATM    9  C   UNK A   0       9.918   6.339  92.521  1.00  0.00     0.010 A 
HETATM   10  C   UNK A   0       9.215   7.512  92.249  1.00  0.00     0.021 A 
HETATM   11  C   UNK A   0       8.185   7.504  91.309  1.00  0.00     0.018 A 
HETATM   12  C   UNK A   0       7.855   6.325  90.644  1.00  0.00     0.021 A 
HETATM   13  C   UNK A   0       8.557   5.151  90.917  1.00  0.00     0.010 A 
BRANCH  11  14
HETATM   14  C   UNK A   0       7.465   8.708  91.028  1.00  0.00    -0.061 C 
HETATM   15  C   UNK A   0       6.860   9.720  90.792  1.00  0.00    -0.061 C 
BRANCH  15  16
HETATM   16  C   UNK A   0       6.141  10.924  90.512  1.00  0.00     0.018 A 
HETATM   17  C   UNK A   0       6.325  11.578  89.294  1.00  0.00     0.022 A 
HETATM   18  C   UNK A   0       5.622  12.750  89.020  1.00  0.00     0.018 A 
HETATM   19  C   UNK A   0       4.750  13.242  89.968  1.00  0.00     0.032 A 
HETATM   20  C   UNK A   0       4.550  12.614  91.180  1.00  0.00     0.018 A 
HETATM   21  C   UNK A   0       5.253  11.441  91.455  1.00  0.00     0.022 A 
BRANCH  19  22
HETATM   22  C   UNK A   0       4.002  14.492  89.677  1.00  0.00     0.252 C 
HETATM   23  O   UNK A   0       4.596  15.567  89.705  1.00  0.00    -0.268 OA
ENDBRANCH  19  22
ENDBRANCH  15  16
ENDBRANCH  11  14
ENDBRANCH   7   8
ENDBRANCH   2   7
TORSDOF 9
ENDMDL
MODEL 6
REMARK VINA RESULT:      -6.6      1.841      2.827
REMARK  9 active torsions:
REMARK  status: ('A' for Active; 'I' for Inactive)
REMARK    1  A    between atoms: N_3  and  C_6 
REMARK    2  A    between atoms: C_6  and  C_9 
REMARK    3  A    between atoms: C_14  and  C_17 
REMARK       I    between atoms: N_26  and  C_15 
REMARK    4  A    between atoms: C_15  and  C_16 
REMARK    5  A    between atoms: C_20  and  C_23 
REMARK    6  A    between atoms: OG1_24  and  CB_28 
REMARK    7  A    between atoms: N_26  and  CA_27 
REMARK    8  A    between atoms: CA_27  and  CB_28 
REMARK    9  A    between atoms: CA_27  and  C_30 
ROOT
HETATM    1  O   UNK A   0       2.934  11.210  88.804  1.00  0.00    -0.388 OA
HETATM    2  N   UNK A   0       4.116   8.836  89.838  1.00  0.00     0.096 N 
HETATM    3  C   UNK A   0       3.606   8.903  88.462  1.00  0.00     0.299 C 
HETATM    4  C   UNK A   0       3.363   9.758  90.699  1.00  0.00     0.299 C 
HETATM    5  C   UNK A   0       3.682  10.340  87.952  1.00  0.00     0.198 C 
HETATM    6  C   UNK A   0       3.444  11.174  90.137  1.00  0.00     0.198 C 
ENDROOT
BRANCH   2   7
HETATM    7  C   UNK A   0       4.043   7.469  90.351  1.00  0.00     0.311 C 
BRANCH   7   8
HETATM    8  C   UNK A   0       5.389   6.905  90.657  1.00  0.00    -0.030 A 
HETATM    9  C   UNK A   0       5.966   7.120  91.910  1.00  0.00     0.010 A 
HETATM   10  C   UNK A   0       7.226   6.595  92.196  1.00  0.00     0.021 A 
HETATM   11  C   UNK A   0       7.906   5.852  91.232  1.00  0.00     0.018 A 
HETATM   12  C   UNK A   0       7.331   5.636  89.981  1.00  0.00     0.021 A 
HETATM   13  C   UNK A   0       6.071   6.162  89.694  1.00  0.00     0.010 A 
BRANCH  11  14
HETATM   14  C   UNK A   0       9.198   5.311  91.527  1.00  0.00    -0.061 C 
HETATM   15  C   UNK A   0      10.282   4.856  91.775  1.00  0.00    -0.061 C 
BRANCH  15  16
HETATM   16  C   UNK A   0      11.573   4.315  92.069  1.00  0.00     0.018 A 
HETATM   17  C   UNK A   0      11.877   3.905  93.368  1.00  0.00     0.022 A 
HETATM   18  C   UNK A   0      13.135   3.375  93.654  1.00  0.00     0.018 A 
HETATM   19  C   UNK A   0      14.059   3.266  92.636  1.00  0.00     0.032 A 
HETATM   20  C   UNK A   0      13.783   3.664  91.345  1.00  0.00     0.018 A 
HETATM   21  C   UNK A   0      12.526   4.194  91.058  1.00  0.00     0.022 A 
BRANCH  19  22
HETATM   22  C   UNK A   0      15.400   2.703  92.942  1.00  0.00     0.252 C 
HETATM   23  O   UNK A   0      16.078   3.215  93.829  1.00  0.00    -0.268 OA
ENDBRANCH  19  22
ENDBRANCH  15  16
ENDBRANCH  11  14
ENDBRANCH   7   8
ENDBRANCH   2   7
TORSDOF 9
ENDMDL
MODEL 7
REMARK VINA RESULT:      -6.5      3.750     10.319
REMARK  9 active torsions:
REMARK  status: ('A' for Active; 'I' for Inactive)
REMARK    1  A    between atoms: N_3  and  C_6 
REMARK    2  A    between atoms: C_6  and  C_9 
REMARK    3  A    between atoms: C_14  and  C_17 
REMARK       I    between atoms: N_26  and  C_15 
REMARK    4  A    between atoms: C_15  and  C_16 
REMARK    5  A    between atoms: C_20  and  C_23 
REMARK    6  A    between atoms: OG1_24  and  CB_28 
REMARK    7  A    between atoms: N_26  and  CA_27 
REMARK    8  A    between atoms: CA_27  and  CB_28 
REMARK    9  A    between atoms: CA_27  and  C_30 
ROOT
HETATM    1  O   UNK A   0      14.132   2.981  92.833  1.00  0.00    -0.388 OA
HETATM    2  N   UNK A   0      12.052   4.132  91.267  1.00  0.00     0.096 N 
HETATM    3  C   UNK A   0      11.775   3.089  92.264  1.00  0.00     0.299 C 
HETATM    4  C   UNK A   0      13.415   3.974  90.739  1.00  0.00     0.299 C 
HETATM    5  C   UNK A   0      12.820   3.146  93.376  1.00  0.00     0.198 C 
HETATM    6  C   UNK A   0      14.421   4.009  91.885  1.00  0.00     0.198 C 
ENDROOT
BRANCH   2   7
HETATM    7  C   UNK A   0      11.069   4.090  90.186  1.00  0.00     0.311 C 
BRANCH   7   8
HETATM    8  C   UNK A   0      10.231   5.322  90.132  1.00  0.00    -0.030 A 
HETATM    9  C   UNK A   0      10.188   6.083  88.963  1.00  0.00     0.010 A 
HETATM   10  C   UNK A   0       9.407   7.238  88.912  1.00  0.00     0.021 A 
HETATM   11  C   UNK A   0       8.668   7.629  90.028  1.00  0.00     0.018 A 
HETATM   12  C   UNK A   0       8.710   6.869  91.195  1.00  0.00     0.021 A 
HETATM   13  C   UNK A   0       9.492   5.715  91.247  1.00  0.00     0.010 A 
BRANCH  11  14
HETATM   14  C   UNK A   0       7.865   8.812  89.974  1.00  0.00    -0.061 C 
HETATM   15  C   UNK A   0       7.191   9.806  89.929  1.00  0.00    -0.061 C 
BRANCH  15  16
HETATM   16  C   UNK A   0       6.389  10.989  89.875  1.00  0.00     0.018 A 
HETATM   17  C   UNK A   0       5.389  11.196  90.825  1.00  0.00     0.022 A 
HETATM   18  C   UNK A   0       4.608  12.351  90.773  1.00  0.00     0.018 A 
HETATM   19  C   UNK A   0       4.846  13.272  89.774  1.00  0.00     0.032 A 
HETATM   20  C   UNK A   0       5.828  13.090  88.824  1.00  0.00     0.018 A 
HETATM   21  C   UNK A   0       6.609  11.935  88.874  1.00  0.00     0.022 A 
BRANCH  19  22
HETATM   22  C   UNK A   0       4.013  14.501  89.719  1.00  0.00     0.252 C 
HETATM   23  O   UNK A   0       4.564  15.597  89.665  1.00  0.00    -0.268 OA
ENDBRANCH  19  22
ENDBRANCH  15  16
ENDBRANCH  11  14
ENDBRANCH   7   8
ENDBRANCH   2   7
TORSDOF 9
ENDMDL
MODEL 8
REMARK VINA RESULT:      -6.4      4.859     10.382
REMARK  9 active torsions:
REMARK  status: ('A' for Active; 'I' for Inactive)
REMARK    1  A    between atoms: N_3  and  C_6 
REMARK    2  A    between atoms: C_6  and  C_9 
REMARK    3  A    between atoms: C_14  and  C_17 
REMARK       I    between atoms: N_26  and  C_15 
REMARK    4  A    between atoms: C_15  and  C_16 
REMARK    5  A    between atoms: C_20  and  C_23 
REMARK    6  A    between atoms: OG1_24  and  CB_28 
REMARK    7  A    between atoms: N_26  and  CA_27 
REMARK    8  A    between atoms: CA_27  and  CB_28 
REMARK    9  A    between atoms: CA_27  and  C_30 
ROOT
HETATM    1  O   UNK A   0      11.268   4.049  88.971  1.00  0.00    -0.388 OA
HETATM    2  N   UNK A   0       9.464   5.955  87.868  1.00  0.00     0.096 N 
HETATM    3  C   UNK A   0      10.134   4.954  87.026  1.00  0.00     0.299 C 
HETATM    4  C   UNK A   0      10.301   6.273  89.034  1.00  0.00     0.299 C 
HETATM    5  C   UNK A   0      10.447   3.709  87.852  1.00  0.00     0.198 C 
HETATM    6  C   UNK A   0      10.611   4.998  89.812  1.00  0.00     0.198 C 
ENDROOT
BRANCH   2   7
HETATM    7  C   UNK A   0       9.164   7.161  87.099  1.00  0.00     0.311 C 
BRANCH   7   8
HETATM    8  C   UNK A   0       8.362   8.147  87.879  1.00  0.00    -0.030 A 
HETATM    9  C   UNK A   0       7.031   7.871  88.191  1.00  0.00     0.010 A 
HETATM   10  C   UNK A   0       6.279   8.794  88.919  1.00  0.00     0.021 A 
HETATM   11  C   UNK A   0       6.861   9.991  89.336  1.00  0.00     0.018 A 
HETATM   12  C   UNK A   0       8.191  10.267  89.026  1.00  0.00     0.021 A 
HETATM   13  C   UNK A   0       8.942   9.345  88.297  1.00  0.00     0.010 A 
BRANCH  11  14
HETATM   14  C   UNK A   0       6.091  10.936  90.085  1.00  0.00    -0.061 C 
HETATM   15  C   UNK A   0       5.444  11.731  90.715  1.00  0.00    -0.061 C 
BRANCH  15  16
HETATM   16  C   UNK A   0       4.675  12.676  91.463  1.00  0.00     0.018 A 
HETATM   17  C   UNK A   0       4.038  12.280  92.639  1.00  0.00     0.022 A 
HETATM   18  C   UNK A   0       3.290  13.203  93.370  1.00  0.00     0.018 A 
HETATM   19  C   UNK A   0       3.197  14.500  92.909  1.00  0.00     0.032 A 
HETATM   20  C   UNK A   0       3.818  14.916  91.750  1.00  0.00     0.018 A 
HETATM   21  C   UNK A   0       4.566  13.994  91.018  1.00  0.00     0.022 A 
BRANCH  19  22
HETATM   22  C   UNK A   0       2.399  15.482  93.688  1.00  0.00     0.252 C 
HETATM   23  O   UNK A   0       1.190  15.566  93.486  1.00  0.00    -0.268 OA
ENDBRANCH  19  22
ENDBRANCH  15  16
ENDBRANCH  11  14
ENDBRANCH   7   8
ENDBRANCH   2   7
TORSDOF 9
ENDMDL
MODEL 9
REMARK VINA RESULT:      -6.3      2.319      3.199
REMARK  9 active torsions:
REMARK  status: ('A' for Active; 'I' for Inactive)
REMARK    1  A    between atoms: N_3  and  C_6 
REMARK    2  A    between atoms: C_6  and  C_9 
REMARK    3  A    between atoms: C_14  and  C_17 
REMARK       I    between atoms: N_26  and  C_15 
REMARK    4  A    between atoms: C_15  and  C_16 
REMARK    5  A    between atoms: C_20  and  C_23 
REMARK    6  A    between atoms: OG1_24  and  CB_28 
REMARK    7  A    between atoms: N_26  and  CA_27 
REMARK    8  A    between atoms: CA_27  and  CB_28 
REMARK    9  A    between atoms: CA_27  and  C_30 
ROOT
HETATM    1  O   UNK A   0       4.340  12.505  88.559  1.00  0.00    -0.388 OA
HETATM    2  N   UNK A   0       4.868   9.978  89.757  1.00  0.00     0.096 N 
HETATM    3  C   UNK A   0       3.601  10.249  89.063  1.00  0.00     0.299 C 
HETATM    4  C   UNK A   0       5.412  11.223  90.317  1.00  0.00     0.299 C 
HETATM    5  C   UNK A   0       3.819  11.305  87.983  1.00  0.00     0.198 C 
HETATM    6  C   UNK A   0       5.587  12.256  89.208  1.00  0.00     0.198 C 
ENDROOT
BRANCH   2   7
HETATM    7  C   UNK A   0       4.681   8.975  90.804  1.00  0.00     0.311 C 
BRANCH   7   8
HETATM    8  C   UNK A   0       5.918   8.185  91.062  1.00  0.00    -0.030 A 
HETATM    9  C   UNK A   0       6.565   7.541  90.007  1.00  0.00     0.010 A 
HETATM   10  C   UNK A   0       7.722   6.799  90.247  1.00  0.00     0.021 A 
HETATM   11  C   UNK A   0       8.231   6.704  91.542  1.00  0.00     0.018 A 
HETATM   12  C   UNK A   0       7.586   7.347  92.596  1.00  0.00     0.021 A 
HETATM   13  C   UNK A   0       6.429   8.088  92.356  1.00  0.00     0.010 A 
BRANCH  11  14
HETATM   14  C   UNK A   0       9.419   5.944  91.788  1.00  0.00    -0.061 C 
HETATM   15  C   UNK A   0      10.417   5.306  91.995  1.00  0.00    -0.061 C 
BRANCH  15  16
HETATM   16  C   UNK A   0      11.603   4.547  92.240  1.00  0.00     0.018 A 
HETATM   17  C   UNK A   0      11.817   3.977  93.496  1.00  0.00     0.022 A 
HETATM   18  C   UNK A   0      12.973   3.234  93.734  1.00  0.00     0.018 A 
HETATM   19  C   UNK A   0      13.888   3.077  92.713  1.00  0.00     0.032 A 
HETATM   20  C   UNK A   0      13.699   3.630  91.465  1.00  0.00     0.018 A 
HETATM   21  C   UNK A   0      12.543   4.374  91.225  1.00  0.00     0.022 A 
BRANCH  19  22
HETATM   22  C   UNK A   0      15.120   2.287  92.969  1.00  0.00     0.252 C 
HETATM   23  O   UNK A   0      16.146   2.869  93.312  1.00  0.00    -0.268 OA
ENDBRANCH  19  22
ENDBRANCH  15  16
ENDBRANCH  11  14
ENDBRANCH   7   8
ENDBRANCH   2   7
TORSDOF 9
ENDMDL
