MODEL 1
REMARK VINA RESULT:      -7.5      0.000      0.000
REMARK  9 active torsions:
REMARK  status: ('A' for Active; 'I' for Inactive)
REMARK    1  A    between atoms: N_3  and  C_6 
REMARK    2  A    between atoms: C_6  and  C_9 
REMARK    3  A    between atoms: C_14  and  C_17 
REMARK       I    between atoms: N_26  and  C_15 
REMARK    4  A    between atoms: C_15  and  C_16 
REMARK    5  A    between atoms: C_20  and  C_23 
REMARK    6  A    between atoms: OG1_24  and  CB_28 
REMARK    7  A    between atoms: N_26  and  CA_27 
REMARK    8  A    between atoms: CA_27  and  CB_28 
REMARK    9  A    between atoms: CA_27  and  C_30 
ROOT
HETATM    1  O   UNK A   0       1.926   7.989  87.791  1.00  0.00    -0.388 OA
HETATM    2  N   UNK A   0       4.727   7.500  87.664  1.00  0.00     0.096 N 
HETATM    3  C   UNK A   0       4.189   8.865  87.758  1.00  0.00     0.299 C 
HETATM    4  C   UNK A   0       3.762   6.625  86.984  1.00  0.00     0.299 C 
HETATM    5  C   UNK A   0       2.843   8.841  88.479  1.00  0.00     0.198 C 
HETATM    6  C   UNK A   0       2.427   6.654  87.722  1.00  0.00     0.198 C 
ENDROOT
BRANCH   2   7
HETATM    7  C   UNK A   0       6.012   7.498  86.967  1.00  0.00     0.311 C 
BRANCH   7   8
HETATM    8  C   UNK A   0       7.101   6.894  87.786  1.00  0.00    -0.030 A 
HETATM    9  C   UNK A   0       8.338   6.614  87.203  1.00  0.00     0.010 A 
HETATM   10  C   UNK A   0       9.357   6.047  87.967  1.00  0.00     0.021 A 
HETATM   11  C   UNK A   0       9.140   5.762  89.315  1.00  0.00     0.018 A 
HETATM   12  C   UNK A   0       7.905   6.040  89.898  1.00  0.00     0.021 A 
HETATM   13  C   UNK A   0       6.885   6.607  89.134  1.00  0.00     0.010 A 
BRANCH  11  14
HETATM   14  C   UNK A   0      10.186   5.182  90.100  1.00  0.00    -0.061 C 
HETATM   15  C   UNK A   0      11.065   4.694  90.759  1.00  0.00    -0.061 C 
BRANCH  15  16
HETATM   16  C   UNK A   0      12.110   4.113  91.543  1.00  0.00     0.018 A 
HETATM   17  C   UNK A   0      13.367   3.899  90.978  1.00  0.00     0.022 A 
HETATM   18  C   UNK A   0      14.388   3.335  91.744  1.00  0.00     0.018 A 
HETATM   19  C   UNK A   0      14.129   3.000  93.056  1.00  0.00     0.032 A 
HETATM   20  C   UNK A   0      12.895   3.202  93.638  1.00  0.00     0.018 A 
HETATM   21  C   UNK A   0      11.874   3.765  92.873  1.00  0.00     0.022 A 
BRANCH  19  22
HETATM   22  C   UNK A   0      15.216   2.398  93.871  1.00  0.00     0.252 C 
HETATM   23  O   UNK A   0      16.373   2.775  93.700  1.00  0.00    -0.268 OA
ENDBRANCH  19  22
ENDBRANCH  15  16
ENDBRANCH  11  14
ENDBRANCH   7   8
ENDBRANCH   2   7
TORSDOF 9
ENDMDL
MODEL 2
REMARK VINA RESULT:      -7.5      0.157      1.433
REMARK  9 active torsions:
REMARK  status: ('A' for Active; 'I' for Inactive)
REMARK    1  A    between atoms: N_3  and  C_6 
REMARK    2  A    between atoms: C_6  and  C_9 
REMARK    3  A    between atoms: C_14  and  C_17 
REMARK       I    between atoms: N_26  and  C_15 
REMARK    4  A    between atoms: C_15  and  C_16 
REMARK    5  A    between atoms: C_20  and  C_23 
REMARK    6  A    between atoms: OG1_24  and  CB_28 
REMARK    7  A    between atoms: N_26  and  CA_27 
REMARK    8  A    between atoms: CA_27  and  CB_28 
REMARK    9  A    between atoms: CA_27  and  C_30 
ROOT
HETATM    1  O   UNK A   0       1.789   8.062  87.852  1.00  0.00    -0.388 OA
HETATM    2  N   UNK A   0       4.582   7.543  87.671  1.00  0.00     0.096 N 
HETATM    3  C   UNK A   0       4.061   8.912  87.790  1.00  0.00     0.299 C 
HETATM    4  C   UNK A   0       3.595   6.686  86.999  1.00  0.00     0.299 C 
HETATM    5  C   UNK A   0       2.728   8.895  88.534  1.00  0.00     0.198 C 
HETATM    6  C   UNK A   0       2.274   6.722  87.760  1.00  0.00     0.198 C 
ENDROOT
BRANCH   2   7
HETATM    7  C   UNK A   0       5.854   7.534  86.952  1.00  0.00     0.311 C 
BRANCH   7   8
HETATM    8  C   UNK A   0       6.957   6.935  87.756  1.00  0.00    -0.030 A 
HETATM    9  C   UNK A   0       6.752   6.631  89.103  1.00  0.00     0.010 A 
HETATM   10  C   UNK A   0       7.783   6.073  89.857  1.00  0.00     0.021 A 
HETATM   11  C   UNK A   0       9.019   5.817  89.264  1.00  0.00     0.018 A 
HETATM   12  C   UNK A   0       9.226   6.120  87.920  1.00  0.00     0.021 A 
HETATM   13  C   UNK A   0       8.194   6.679  87.165  1.00  0.00     0.010 A 
BRANCH  11  14
HETATM   14  C   UNK A   0      10.077   5.243  90.038  1.00  0.00    -0.061 C 
HETATM   15  C   UNK A   0      10.966   4.760  90.687  1.00  0.00    -0.061 C 
BRANCH  15  16
HETATM   16  C   UNK A   0      12.024   4.186  91.460  1.00  0.00     0.018 A 
HETATM   17  C   UNK A   0      11.795   3.811  92.784  1.00  0.00     0.022 A 
HETATM   18  C   UNK A   0      12.826   3.249  93.536  1.00  0.00     0.018 A 
HETATM   19  C   UNK A   0      14.061   3.074  92.949  1.00  0.00     0.032 A 
HETATM   20  C   UNK A   0      14.313   3.437  91.642  1.00  0.00     0.018 A 
HETATM   21  C   UNK A   0      13.283   3.999  90.889  1.00  0.00     0.022 A 
BRANCH  19  22
HETATM   22  C   UNK A   0      15.160   2.478  93.752  1.00  0.00     0.252 C 
HETATM   23  O   UNK A   0      16.265   3.015  93.749  1.00  0.00    -0.268 OA
ENDBRANCH  19  22
ENDBRANCH  15  16
ENDBRANCH  11  14
ENDBRANCH   7   8
ENDBRANCH   2   7
TORSDOF 9
ENDMDL
MODEL 3
REMARK VINA RESULT:      -6.9      1.521      2.297
REMARK  9 active torsions:
REMARK  status: ('A' for Active; 'I' for Inactive)
REMARK    1  A    between atoms: N_3  and  C_6 
REMARK    2  A    between atoms: C_6  and  C_9 
REMARK    3  A    between atoms: C_14  and  C_17 
REMARK       I    between atoms: N_26  and  C_15 
REMARK    4  A    between atoms: C_15  and  C_16 
REMARK    5  A    between atoms: C_20  and  C_23 
REMARK    6  A    between atoms: OG1_24  and  CB_28 
REMARK    7  A    between atoms: N_26  and  CA_27 
REMARK    8  A    between atoms: CA_27  and  CB_28 
REMARK    9  A    between atoms: CA_27  and  C_30 
ROOT
HETATM    1  O   UNK A   0       2.777  11.089  89.648  1.00  0.00    -0.388 OA
HETATM    2  N   UNK A   0       4.638   9.177  88.656  1.00  0.00     0.096 N 
HETATM    3  C   UNK A   0       3.789   9.964  87.751  1.00  0.00     0.299 C 
HETATM    4  C   UNK A   0       3.961   8.993  89.947  1.00  0.00     0.299 C 
HETATM    5  C   UNK A   0       3.440  11.301  88.401  1.00  0.00     0.198 C 
HETATM    6  C   UNK A   0       3.608  10.351  90.545  1.00  0.00     0.198 C 
ENDROOT
BRANCH   2   7
HETATM    7  C   UNK A   0       4.976   7.887  88.057  1.00  0.00     0.311 C 
BRANCH   7   8
HETATM    8  C   UNK A   0       6.187   7.274  88.674  1.00  0.00    -0.030 A 
HETATM    9  C   UNK A   0       6.067   6.118  89.446  1.00  0.00     0.010 A 
HETATM   10  C   UNK A   0       7.199   5.546  90.025  1.00  0.00     0.021 A 
HETATM   11  C   UNK A   0       8.451   6.128  89.830  1.00  0.00     0.018 A 
HETATM   12  C   UNK A   0       8.572   7.283  89.059  1.00  0.00     0.021 A 
HETATM   13  C   UNK A   0       7.440   7.856  88.480  1.00  0.00     0.010 A 
BRANCH  11  14
HETATM   14  C   UNK A   0       9.613   5.540  90.423  1.00  0.00    -0.061 C 
HETATM   15  C   UNK A   0      10.589   5.045  90.921  1.00  0.00    -0.061 C 
BRANCH  15  16
HETATM   16  C   UNK A   0      11.749   4.457  91.514  1.00  0.00     0.018 A 
HETATM   17  C   UNK A   0      11.722   4.056  92.850  1.00  0.00     0.022 A 
HETATM   18  C   UNK A   0      12.853   3.480  93.427  1.00  0.00     0.018 A 
HETATM   19  C   UNK A   0      13.985   3.315  92.656  1.00  0.00     0.032 A 
HETATM   20  C   UNK A   0      14.037   3.703  91.333  1.00  0.00     0.018 A 
HETATM   21  C   UNK A   0      12.906   4.280  90.755  1.00  0.00     0.022 A 
BRANCH  19  22
HETATM   22  C   UNK A   0      15.190   2.702  93.271  1.00  0.00     0.252 C 
HETATM   23  O   UNK A   0      15.050   1.827  94.122  1.00  0.00    -0.268 OA
ENDBRANCH  19  22
ENDBRANCH  15  16
ENDBRANCH  11  14
ENDBRANCH   7   8
ENDBRANCH   2   7
TORSDOF 9
ENDMDL
MODEL 4
REMARK VINA RESULT:      -6.9      1.582      1.949
REMARK  9 active torsions:
REMARK  status: ('A' for Active; 'I' for Inactive)
REMARK    1  A    between atoms: N_3  and  C_6 
REMARK    2  A    between atoms: C_6  and  C_9 
REMARK    3  A    between atoms: C_14  and  C_17 
REMARK       I    between atoms: N_26  and  C_15 
REMARK    4  A    between atoms: C_15  and  C_16 
REMARK    5  A    between atoms: C_20  and  C_23 
REMARK    6  A    between atoms: OG1_24  and  CB_28 
REMARK    7  A    between atoms: N_26  and  CA_27 
REMARK    8  A    between atoms: CA_27  and  CB_28 
REMARK    9  A    between atoms: CA_27  and  C_30 
ROOT
HETATM    1  O   UNK A   0       2.705  11.171  89.624  1.00  0.00    -0.388 OA
HETATM    2  N   UNK A   0       4.593   9.250  88.703  1.00  0.00     0.096 N 
HETATM    3  C   UNK A   0       3.820  10.077  87.766  1.00  0.00     0.299 C 
HETATM    4  C   UNK A   0       3.830   9.046  89.942  1.00  0.00     0.299 C 
HETATM    5  C   UNK A   0       3.452  11.403  88.428  1.00  0.00     0.198 C 
HETATM    6  C   UNK A   0       3.461  10.394  90.552  1.00  0.00     0.198 C 
ENDROOT
BRANCH   2   7
HETATM    7  C   UNK A   0       4.948   7.970  88.093  1.00  0.00     0.311 C 
BRANCH   7   8
HETATM    8  C   UNK A   0       6.147   7.352  88.727  1.00  0.00    -0.030 A 
HETATM    9  C   UNK A   0       7.397   7.956  88.589  1.00  0.00     0.010 A 
HETATM   10  C   UNK A   0       8.520   7.378  89.180  1.00  0.00     0.021 A 
HETATM   11  C   UNK A   0       8.393   6.196  89.909  1.00  0.00     0.018 A 
HETATM   12  C   UNK A   0       7.145   5.591  90.047  1.00  0.00     0.021 A 
HETATM   13  C   UNK A   0       6.021   6.169  89.456  1.00  0.00     0.010 A 
BRANCH  11  14
HETATM   14  C   UNK A   0       9.545   5.603  90.516  1.00  0.00    -0.061 C 
HETATM   15  C   UNK A   0      10.513   5.106  91.026  1.00  0.00    -0.061 C 
BRANCH  15  16
HETATM   16  C   UNK A   0      11.665   4.515  91.633  1.00  0.00     0.018 A 
HETATM   17  C   UNK A   0      12.833   4.342  90.890  1.00  0.00     0.022 A 
HETATM   18  C   UNK A   0      13.957   3.768  91.484  1.00  0.00     0.018 A 
HETATM   19  C   UNK A   0      13.888   3.380  92.805  1.00  0.00     0.032 A 
HETATM   20  C   UNK A   0      12.745   3.539  93.561  1.00  0.00     0.018 A 
HETATM   21  C   UNK A   0      11.620   4.113  92.968  1.00  0.00     0.022 A 
BRANCH  19  22
HETATM   22  C   UNK A   0      15.085   2.766  93.437  1.00  0.00     0.252 C 
HETATM   23  O   UNK A   0      14.950   1.757  94.124  1.00  0.00    -0.268 OA
ENDBRANCH  19  22
ENDBRANCH  15  16
ENDBRANCH  11  14
ENDBRANCH   7   8
ENDBRANCH   2   7
TORSDOF 9
ENDMDL
MODEL 5
REMARK VINA RESULT:      -6.6      3.958     10.459
REMARK  9 active torsions:
REMARK  status: ('A' for Active; 'I' for Inactive)
REMARK    1  A    between atoms: N_3  and  C_6 
REMARK    2  A    between atoms: C_6  and  C_9 
REMARK    3  A    between atoms: C_14  and  C_17 
REMARK       I    between atoms: N_26  and  C_15 
REMARK    4  A    between atoms: C_15  and  C_16 
REMARK    5  A    between atoms: C_20  and  C_23 
REMARK    6  A    between atoms: OG1_24  and  CB_28 
REMARK    7  A    between atoms: N_26  and  CA_27 
REMARK    8  A    between atoms: CA_27  and  CB_28 
REMARK    9  A    between atoms: CA_27  and  C_30 
ROOT
HETATM    1  O   UNK A   0      14.614   3.386  92.145  1.00  0.00    -0.388 OA
HETATM    2  N   UNK A   0      11.886   4.199  92.157  1.00  0.00     0.096 N 
HETATM    3  C   UNK A   0      12.432   3.327  93.206  1.00  0.00     0.299 C 
HETATM    4  C   UNK A   0      12.624   3.998  90.901  1.00  0.00     0.299 C 
HETATM    5  C   UNK A   0      13.924   3.598  93.379  1.00  0.00     0.198 C 
HETATM    6  C   UNK A   0      14.110   4.252  91.128  1.00  0.00     0.198 C 
ENDROOT
BRANCH   2   7
HETATM    7  C   UNK A   0      10.459   3.949  91.967  1.00  0.00     0.311 C 
BRANCH   7   8
HETATM    8  C   UNK A   0       9.694   5.200  91.694  1.00  0.00    -0.030 A 
HETATM    9  C   UNK A   0       8.787   5.245  90.635  1.00  0.00     0.010 A 
HETATM   10  C   UNK A   0       8.073   6.416  90.378  1.00  0.00     0.021 A 
HETATM   11  C   UNK A   0       8.266   7.539  91.181  1.00  0.00     0.018 A 
HETATM   12  C   UNK A   0       9.172   7.495  92.239  1.00  0.00     0.021 A 
HETATM   13  C   UNK A   0       9.886   6.326  92.496  1.00  0.00     0.010 A 
BRANCH  11  14
HETATM   14  C   UNK A   0       7.532   8.739  90.918  1.00  0.00    -0.061 C 
HETATM   15  C   UNK A   0       6.914   9.747  90.698  1.00  0.00    -0.061 C 
BRANCH  15  16
HETATM   16  C   UNK A   0       6.181  10.946  90.436  1.00  0.00     0.018 A 
HETATM   17  C   UNK A   0       5.279  11.431  91.384  1.00  0.00     0.022 A 
HETATM   18  C   UNK A   0       4.565  12.602  91.130  1.00  0.00     0.018 A 
HETATM   19  C   UNK A   0       4.769  13.261  89.935  1.00  0.00     0.032 A 
HETATM   20  C   UNK A   0       5.654  12.802  88.983  1.00  0.00     0.018 A 
HETATM   21  C   UNK A   0       6.368  11.631  89.236  1.00  0.00     0.022 A 
BRANCH  19  22
HETATM   22  C   UNK A   0       4.007  14.508  89.664  1.00  0.00     0.252 C 
HETATM   23  O   UNK A   0       4.606  15.580  89.624  1.00  0.00    -0.268 OA
ENDBRANCH  19  22
ENDBRANCH  15  16
ENDBRANCH  11  14
ENDBRANCH   7   8
ENDBRANCH   2   7
TORSDOF 9
ENDMDL
MODEL 6
REMARK VINA RESULT:      -6.6      3.397     10.384
REMARK  9 active torsions:
REMARK  status: ('A' for Active; 'I' for Inactive)
REMARK    1  A    between atoms: N_3  and  C_6 
REMARK    2  A    between atoms: C_6  and  C_9 
REMARK    3  A    between atoms: C_14  and  C_17 
REMARK       I    between atoms: N_26  and  C_15 
REMARK    4  A    between atoms: C_15  and  C_16 
REMARK    5  A    between atoms: C_20  and  C_23 
REMARK    6  A    between atoms: OG1_24  and  CB_28 
REMARK    7  A    between atoms: N_26  and  CA_27 
REMARK    8  A    between atoms: CA_27  and  CB_28 
REMARK    9  A    between atoms: CA_27  and  C_30 
ROOT
HETATM    1  O   UNK A   0      16.073   3.119  93.659  1.00  0.00    -0.388 OA
HETATM    2  N   UNK A   0      13.410   2.950  92.667  1.00  0.00     0.096 N 
HETATM    3  C   UNK A   0      14.167   1.748  93.044  1.00  0.00     0.299 C 
HETATM    4  C   UNK A   0      14.331   4.005  92.222  1.00  0.00     0.299 C 
HETATM    5  C   UNK A   0      15.188   2.098  94.124  1.00  0.00     0.198 C 
HETATM    6  C   UNK A   0      15.348   4.302  93.319  1.00  0.00     0.198 C 
ENDROOT
BRANCH   2   7
HETATM    7  C   UNK A   0      12.433   2.640  91.625  1.00  0.00     0.311 C 
BRANCH   7   8
HETATM    8  C   UNK A   0      11.556   3.802  91.305  1.00  0.00    -0.030 A 
HETATM    9  C   UNK A   0      10.931   4.507  92.334  1.00  0.00     0.010 A 
HETATM   10  C   UNK A   0      10.108   5.593  92.036  1.00  0.00     0.021 A 
HETATM   11  C   UNK A   0       9.913   5.975  90.709  1.00  0.00     0.018 A 
HETATM   12  C   UNK A   0      10.537   5.272  89.680  1.00  0.00     0.021 A 
HETATM   13  C   UNK A   0      11.359   4.185  89.978  1.00  0.00     0.010 A 
BRANCH  11  14
HETATM   14  C   UNK A   0       9.072   7.091  90.403  1.00  0.00    -0.061 C 
HETATM   15  C   UNK A   0       8.364   8.028  90.146  1.00  0.00    -0.061 C 
BRANCH  15  16
HETATM   16  C   UNK A   0       7.522   9.143  89.840  1.00  0.00     0.018 A 
HETATM   17  C   UNK A   0       6.136   8.989  89.842  1.00  0.00     0.022 A 
HETATM   18  C   UNK A   0       5.314  10.077  89.546  1.00  0.00     0.018 A 
HETATM   19  C   UNK A   0       5.897  11.293  89.256  1.00  0.00     0.032 A 
HETATM   20  C   UNK A   0       7.265  11.470  89.246  1.00  0.00     0.018 A 
HETATM   21  C   UNK A   0       8.087  10.383  89.542  1.00  0.00     0.022 A 
BRANCH  19  22
HETATM   22  C   UNK A   0       5.022  12.451  88.939  1.00  0.00     0.252 C 
HETATM   23  O   UNK A   0       4.686  12.648  87.773  1.00  0.00    -0.268 OA
ENDBRANCH  19  22
ENDBRANCH  15  16
ENDBRANCH  11  14
ENDBRANCH   7   8
ENDBRANCH   2   7
TORSDOF 9
ENDMDL
MODEL 7
REMARK VINA RESULT:      -6.3      1.622      2.020
REMARK  9 active torsions:
REMARK  status: ('A' for Active; 'I' for Inactive)
REMARK    1  A    between atoms: N_3  and  C_6 
REMARK    2  A    between atoms: C_6  and  C_9 
REMARK    3  A    between atoms: C_14  and  C_17 
REMARK       I    between atoms: N_26  and  C_15 
REMARK    4  A    between atoms: C_15  and  C_16 
REMARK    5  A    between atoms: C_20  and  C_23 
REMARK    6  A    between atoms: OG1_24  and  CB_28 
REMARK    7  A    between atoms: N_26  and  CA_27 
REMARK    8  A    between atoms: CA_27  and  CB_28 
REMARK    9  A    between atoms: CA_27  and  C_30 
ROOT
HETATM    1  O   UNK A   0       3.876   6.836  86.788  1.00  0.00    -0.388 OA
HETATM    2  N   UNK A   0       4.545   8.708  88.825  1.00  0.00     0.096 N 
HETATM    3  C   UNK A   0       5.577   8.088  87.983  1.00  0.00     0.299 C 
HETATM    4  C   UNK A   0       3.395   7.803  88.960  1.00  0.00     0.299 C 
HETATM    5  C   UNK A   0       4.985   7.722  86.624  1.00  0.00     0.198 C 
HETATM    6  C   UNK A   0       2.855   7.443  87.580  1.00  0.00     0.198 C 
ENDROOT
BRANCH   2   7
HETATM    7  C   UNK A   0       5.089   9.058  90.137  1.00  0.00     0.311 C 
BRANCH   7   8
HETATM    8  C   UNK A   0       6.285   8.242  90.492  1.00  0.00    -0.030 A 
HETATM    9  C   UNK A   0       7.563   8.707  90.181  1.00  0.00     0.010 A 
HETATM   10  C   UNK A   0       8.683   7.944  90.510  1.00  0.00     0.021 A 
HETATM   11  C   UNK A   0       8.524   6.716  91.152  1.00  0.00     0.018 A 
HETATM   12  C   UNK A   0       7.248   6.250  91.464  1.00  0.00     0.021 A 
HETATM   13  C   UNK A   0       6.128   7.013  91.133  1.00  0.00     0.010 A 
BRANCH  11  14
HETATM   14  C   UNK A   0       9.672   5.934  91.493  1.00  0.00    -0.061 C 
HETATM   15  C   UNK A   0      10.638   5.276  91.778  1.00  0.00    -0.061 C 
BRANCH  15  16
HETATM   16  C   UNK A   0      11.786   4.495  92.117  1.00  0.00     0.018 A 
HETATM   17  C   UNK A   0      12.775   4.260  91.161  1.00  0.00     0.022 A 
HETATM   18  C   UNK A   0      13.897   3.500  91.493  1.00  0.00     0.018 A 
HETATM   19  C   UNK A   0      14.004   2.993  92.771  1.00  0.00     0.032 A 
HETATM   20  C   UNK A   0      13.040   3.211  93.733  1.00  0.00     0.018 A 
HETATM   21  C   UNK A   0      11.918   3.970  93.402  1.00  0.00     0.022 A 
BRANCH  19  22
HETATM   22  C   UNK A   0      15.198   2.182  93.123  1.00  0.00     0.252 C 
HETATM   23  O   UNK A   0      16.246   2.753  93.418  1.00  0.00    -0.268 OA
ENDBRANCH  19  22
ENDBRANCH  15  16
ENDBRANCH  11  14
ENDBRANCH   7   8
ENDBRANCH   2   7
TORSDOF 9
ENDMDL
MODEL 8
REMARK VINA RESULT:      -6.3      2.089      3.161
REMARK  9 active torsions:
REMARK  status: ('A' for Active; 'I' for Inactive)
REMARK    1  A    between atoms: N_3  and  C_6 
REMARK    2  A    between atoms: C_6  and  C_9 
REMARK    3  A    between atoms: C_14  and  C_17 
REMARK       I    between atoms: N_26  and  C_15 
REMARK    4  A    between atoms: C_15  and  C_16 
REMARK    5  A    between atoms: C_20  and  C_23 
REMARK    6  A    between atoms: OG1_24  and  CB_28 
REMARK    7  A    between atoms: N_26  and  CA_27 
REMARK    8  A    between atoms: CA_27  and  CB_28 
REMARK    9  A    between atoms: CA_27  and  C_30 
ROOT
HETATM    1  O   UNK A   0       2.295  10.304  87.899  1.00  0.00    -0.388 OA
HETATM    2  N   UNK A   0       4.068   9.430  89.947  1.00  0.00     0.096 N 
HETATM    3  C   UNK A   0       2.812   8.722  89.665  1.00  0.00     0.299 C 
HETATM    4  C   UNK A   0       3.933  10.852  89.603  1.00  0.00     0.299 C 
HETATM    5  C   UNK A   0       2.428   8.914  88.200  1.00  0.00     0.198 C 
HETATM    6  C   UNK A   0       3.522  10.994  88.141  1.00  0.00     0.198 C 
ENDROOT
BRANCH   2   7
HETATM    7  C   UNK A   0       4.450   9.268  91.349  1.00  0.00     0.311 C 
BRANCH   7   8
HETATM    8  C   UNK A   0       5.687   8.451  91.510  1.00  0.00    -0.030 A 
HETATM    9  C   UNK A   0       6.081   8.027  92.779  1.00  0.00     0.010 A 
HETATM   10  C   UNK A   0       7.238   7.264  92.932  1.00  0.00     0.021 A 
HETATM   11  C   UNK A   0       8.000   6.924  91.814  1.00  0.00     0.018 A 
HETATM   12  C   UNK A   0       7.608   7.347  90.546  1.00  0.00     0.021 A 
HETATM   13  C   UNK A   0       6.450   8.111  90.393  1.00  0.00     0.010 A 
BRANCH  11  14
HETATM   14  C   UNK A   0       9.186   6.140  91.970  1.00  0.00    -0.061 C 
HETATM   15  C   UNK A   0      10.184   5.481  92.101  1.00  0.00    -0.061 C 
BRANCH  15  16
HETATM   16  C   UNK A   0      11.370   4.698  92.256  1.00  0.00     0.018 A 
HETATM   17  C   UNK A   0      11.706   4.185  93.509  1.00  0.00     0.022 A 
HETATM   18  C   UNK A   0      12.862   3.419  93.660  1.00  0.00     0.018 A 
HETATM   19  C   UNK A   0      13.654   3.182  92.557  1.00  0.00     0.032 A 
HETATM   20  C   UNK A   0      13.343   3.678  91.308  1.00  0.00     0.018 A 
HETATM   21  C   UNK A   0      12.188   4.445  91.155  1.00  0.00     0.022 A 
BRANCH  19  22
HETATM   22  C   UNK A   0      14.886   2.367  92.719  1.00  0.00     0.252 C 
HETATM   23  O   UNK A   0      15.637   2.597  93.663  1.00  0.00    -0.268 OA
ENDBRANCH  19  22
ENDBRANCH  15  16
ENDBRANCH  11  14
ENDBRANCH   7   8
ENDBRANCH   2   7
TORSDOF 9
ENDMDL
MODEL 9
REMARK VINA RESULT:      -6.1      3.016      3.891
REMARK  9 active torsions:
REMARK  status: ('A' for Active; 'I' for Inactive)
REMARK    1  A    between atoms: N_3  and  C_6 
REMARK    2  A    between atoms: C_6  and  C_9 
REMARK    3  A    between atoms: C_14  and  C_17 
REMARK       I    between atoms: N_26  and  C_15 
REMARK    4  A    between atoms: C_15  and  C_16 
REMARK    5  A    between atoms: C_20  and  C_23 
REMARK    6  A    between atoms: OG1_24  and  CB_28 
REMARK    7  A    between atoms: N_26  and  CA_27 
REMARK    8  A    between atoms: CA_27  and  CB_28 
REMARK    9  A    between atoms: CA_27  and  C_30 
ROOT
HETATM    1  O   UNK A   0       4.240  14.372  89.277  1.00  0.00    -0.388 OA
HETATM    2  N   UNK A   0       4.797  11.589  89.493  1.00  0.00     0.096 N 
HETATM    3  C   UNK A   0       4.493  12.213  88.198  1.00  0.00     0.299 C 
HETATM    4  C   UNK A   0       4.131  12.326  90.576  1.00  0.00     0.299 C 
HETATM    5  C   UNK A   0       4.910  13.681  88.220  1.00  0.00     0.198 C 
HETATM    6  C   UNK A   0       4.555  13.791  90.542  1.00  0.00     0.198 C 
ENDROOT
BRANCH   2   7
HETATM    7  C   UNK A   0       4.396  10.183  89.497  1.00  0.00     0.311 C 
BRANCH   7   8
HETATM    8  C   UNK A   0       5.515   9.275  89.880  1.00  0.00    -0.030 A 
HETATM    9  C   UNK A   0       6.451   8.881  88.923  1.00  0.00     0.010 A 
HETATM   10  C   UNK A   0       7.497   8.030  89.279  1.00  0.00     0.021 A 
HETATM   11  C   UNK A   0       7.606   7.574  90.593  1.00  0.00     0.018 A 
HETATM   12  C   UNK A   0       6.672   7.966  91.549  1.00  0.00     0.021 A 
HETATM   13  C   UNK A   0       5.626   8.817  91.193  1.00  0.00     0.010 A 
BRANCH  11  14
HETATM   14  C   UNK A   0       8.680   6.702  90.959  1.00  0.00    -0.061 C 
HETATM   15  C   UNK A   0       9.582   5.969  91.266  1.00  0.00    -0.061 C 
BRANCH  15  16
HETATM   16  C   UNK A   0      10.655   5.097  91.632  1.00  0.00     0.018 A 
HETATM   17  C   UNK A   0      10.884   4.800  92.975  1.00  0.00     0.022 A 
HETATM   18  C   UNK A   0      11.929   3.947  93.331  1.00  0.00     0.018 A 
HETATM   19  C   UNK A   0      12.720   3.410  92.337  1.00  0.00     0.032 A 
HETATM   20  C   UNK A   0      12.513   3.689  91.002  1.00  0.00     0.018 A 
HETATM   21  C   UNK A   0      11.469   4.542  90.645  1.00  0.00     0.022 A 
BRANCH  19  22
HETATM   22  C   UNK A   0      13.834   2.504  92.717  1.00  0.00     0.252 C 
HETATM   23  O   UNK A   0      14.219   2.483  93.883  1.00  0.00    -0.268 OA
ENDBRANCH  19  22
ENDBRANCH  15  16
ENDBRANCH  11  14
ENDBRANCH   7   8
ENDBRANCH   2   7
TORSDOF 9
ENDMDL
