MODEL 1
REMARK VINA RESULT:      -6.0      0.000      0.000
REMARK  12 active torsions:
REMARK  status: ('A' for Active; 'I' for Inactive)
REMARK    1  A    between atoms: O_2  and  C_16 
REMARK    2  A    between atoms: N_5  and  C_9 
REMARK    3  A    between atoms: N_6  and  C_13 
REMARK       I    between atoms: N_6  and  C_22 
REMARK    4  A    between atoms: C_9  and  C_12 
REMARK    5  A    between atoms: C_13  and  C_16 
REMARK    6  A    between atoms: C_13  and  C_21 
REMARK    7  A    between atoms: C_19  and  C_24 
REMARK    8  A    between atoms: C_21  and  C_33 
REMARK    9  A    between atoms: C_22  and  C_23 
REMARK   10  A    between atoms: C_27  and  C_30 
REMARK   11  A    between atoms: C_33  and  C_34 
REMARK   12  A    between atoms: C_34  and  C_35 
ROOT
HETATM    1  O   UNL     1      16.726   3.491  93.762  1.00  0.00    -0.350 OA
HETATM    2  N   UNL     1      14.119   3.098  92.687  1.00  0.00     0.147 N 
HETATM    3  C   UNL     1      15.003   1.964  92.994  1.00  0.00     0.283 C 
HETATM    4  C   UNL     1      14.920   4.282  92.348  1.00  0.00     0.283 C 
HETATM    5  C   UNL     1      15.956   2.343  94.124  1.00  0.00     0.178 C 
HETATM    6  C   UNL     1      15.875   4.606  93.492  1.00  0.00     0.178 C 
ENDROOT
BRANCH   2   7
HETATM    7  C   UNL     1      13.203   2.761  91.599  1.00  0.00     0.277 C 
BRANCH   7   8
HETATM    8  C   UNL     1      12.023   3.670  91.548  1.00  0.00     0.011 A 
HETATM    9  C   UNL     1      11.469   4.159  92.731  1.00  0.00    -0.002 A 
HETATM   10  C   UNL     1      10.363   5.008  92.685  1.00  0.00     0.008 A 
HETATM   11  C   UNL     1       9.814   5.369  91.455  1.00  0.00     0.042 A 
HETATM   12  C   UNL     1      10.366   4.881  90.273  1.00  0.00     0.008 A 
HETATM   13  C   UNL     1      11.471   4.031  90.319  1.00  0.00    -0.002 A 
BRANCH  11  14
HETATM   14  C   UNL     1       8.681   6.241  91.407  1.00  0.00    -0.059 C 
HETATM   15  C   UNL     1       7.728   6.974  91.368  1.00  0.00    -0.059 C 
BRANCH  15  16
HETATM   16  C   UNL     1       6.596   7.846  91.321  1.00  0.00     0.042 A 
HETATM   17  C   UNL     1       5.535   7.563  90.461  1.00  0.00     0.008 A 
HETATM   18  C   UNL     1       4.429   8.413  90.418  1.00  0.00     0.005 A 
HETATM   19  C   UNL     1       4.409   9.523  91.235  1.00  0.00     0.056 A 
HETATM   20  C   UNL     1       5.446   9.824  92.093  1.00  0.00     0.005 A 
HETATM   21  C   UNL     1       6.552   8.976  92.137  1.00  0.00     0.008 A 
BRANCH  19  22
HETATM   22  C   UNL     1       3.232  10.429  91.187  1.00  0.00     0.254 C 
HETATM   23  O   UNL     1       2.157   9.994  90.782  1.00  0.00    -0.268 OA
HETATM   24  N   UNL     1       3.442  11.724  91.639  1.00  0.00    -0.335 N 
HETATM   25  HN  UNL     1       4.353  12.006  91.983  1.00  0.00     0.164 HD
BRANCH  24  26
HETATM   26  C   UNL     1       2.394  12.712  91.678  1.00  0.00     0.166 C 
BRANCH  26  27
HETATM   27  C   UNL     1       2.277  13.401  93.043  1.00  0.00     0.138 C 
HETATM   28  C   UNL     1       3.618  13.501  93.763  1.00  0.00     0.034 C 
BRANCH  27  29
HETATM   29  O   UNL     1       1.744  14.713  92.872  1.00  0.00    -0.383 OA
HETATM   30  H   UNL     1       0.779  14.666  92.978  1.00  0.00     0.210 HD
ENDBRANCH  27  29
ENDBRANCH  26  27
BRANCH  26  31
HETATM   31  C   UNL     1       2.665  13.723  90.568  1.00  0.00     0.181 C 
HETATM   32  O   UNL     1       1.881  14.624  90.277  1.00  0.00    -0.294 OA
BRANCH  31  33
HETATM   33  C   UNL     1       4.118  14.423  90.733  1.00  0.00     0.138 C 
BRANCH  33  34
HETATM   34  C   UNL     1       4.650  14.258  89.436  1.00  0.00     0.208 C 
HETATM   35  O   UNL     1       4.939  15.273  88.845  1.00  0.00    -0.289 OA
BRANCH  34  36
HETATM   36  C   UNL     1       5.169  13.150  88.824  1.00  0.00     0.194 C 
HETATM   37  O   UNL     1       5.795  12.024  89.371  1.00  0.00    -0.185 OA
ENDBRANCH  34  36
ENDBRANCH  33  34
ENDBRANCH  31  33
ENDBRANCH  26  31
ENDBRANCH  24  26
ENDBRANCH  19  22
ENDBRANCH  15  16
ENDBRANCH  11  14
ENDBRANCH   7   8
ENDBRANCH   2   7
TORSDOF 12
ENDMDL
MODEL 2
REMARK VINA RESULT:      -4.8      2.357     12.787
REMARK  12 active torsions:
REMARK  status: ('A' for Active; 'I' for Inactive)
REMARK    1  A    between atoms: O_2  and  C_16 
REMARK    2  A    between atoms: N_5  and  C_9 
REMARK    3  A    between atoms: N_6  and  C_13 
REMARK       I    between atoms: N_6  and  C_22 
REMARK    4  A    between atoms: C_9  and  C_12 
REMARK    5  A    between atoms: C_13  and  C_16 
REMARK    6  A    between atoms: C_13  and  C_21 
REMARK    7  A    between atoms: C_19  and  C_24 
REMARK    8  A    between atoms: C_21  and  C_33 
REMARK    9  A    between atoms: C_22  and  C_23 
REMARK   10  A    between atoms: C_27  and  C_30 
REMARK   11  A    between atoms: C_33  and  C_34 
REMARK   12  A    between atoms: C_34  and  C_35 
ROOT
HETATM    1  O   UNL     1       3.036  14.807  94.077  1.00  0.00    -0.350 OA
HETATM    2  N   UNL     1       2.613  14.500  91.279  1.00  0.00     0.147 N 
HETATM    3  C   UNL     1       1.676  13.942  92.263  1.00  0.00     0.283 C 
HETATM    4  C   UNL     1       3.966  14.561  91.850  1.00  0.00     0.283 C 
HETATM    5  C   UNL     1       1.712  14.775  93.542  1.00  0.00     0.178 C 
HETATM    6  C   UNL     1       3.948  15.377  93.137  1.00  0.00     0.178 C 
ENDROOT
BRANCH   2   7
HETATM    7  C   UNL     1       2.603  13.711  90.048  1.00  0.00     0.277 C 
BRANCH   7   8
HETATM    8  C   UNL     1       3.602  12.605  90.075  1.00  0.00     0.011 A 
HETATM    9  C   UNL     1       3.360  11.466  90.843  1.00  0.00    -0.002 A 
HETATM   10  C   UNL     1       4.295  10.431  90.870  1.00  0.00     0.008 A 
HETATM   11  C   UNL     1       5.471  10.536  90.127  1.00  0.00     0.042 A 
HETATM   12  C   UNL     1       5.713  11.673  89.360  1.00  0.00     0.008 A 
HETATM   13  C   UNL     1       4.779  12.708  89.333  1.00  0.00    -0.002 A 
BRANCH  11  14
HETATM   14  C   UNL     1       6.429   9.473  90.154  1.00  0.00    -0.059 C 
HETATM   15  C   UNL     1       7.233   8.580  90.176  1.00  0.00    -0.059 C 
BRANCH  15  16
HETATM   16  C   UNL     1       8.190   7.518  90.201  1.00  0.00     0.042 A 
HETATM   17  C   UNL     1       7.770   6.207  90.424  1.00  0.00     0.008 A 
HETATM   18  C   UNL     1       8.703   5.171  90.446  1.00  0.00     0.005 A 
HETATM   19  C   UNL     1      10.035   5.469  90.244  1.00  0.00     0.056 A 
HETATM   20  C   UNL     1      10.476   6.757  90.022  1.00  0.00     0.005 A 
HETATM   21  C   UNL     1       9.543   7.794  90.000  1.00  0.00     0.008 A 
BRANCH  19  22
HETATM   22  C   UNL     1      11.029   4.365  90.269  1.00  0.00     0.254 C 
HETATM   23  O   UNL     1      10.986   3.498  89.400  1.00  0.00    -0.268 OA
HETATM   24  N   UNL     1      11.969   4.417  91.290  1.00  0.00    -0.335 N 
HETATM   25  HN  UNL     1      11.958   5.178  91.959  1.00  0.00     0.164 HD
BRANCH  24  26
HETATM   26  C   UNL     1      13.012   3.433  91.434  1.00  0.00     0.166 C 
BRANCH  26  27
HETATM   27  C   UNL     1      14.336   3.874  90.797  1.00  0.00     0.138 C 
HETATM   28  C   UNL     1      14.734   3.001  89.613  1.00  0.00     0.034 C 
BRANCH  27  29
HETATM   29  O   UNL     1      14.227   5.228  90.359  1.00  0.00    -0.383 OA
HETATM   30  H   UNL     1      13.366   5.339  89.922  1.00  0.00     0.210 HD
ENDBRANCH  27  29
ENDBRANCH  26  27
BRANCH  26  31
HETATM   31  C   UNL     1      13.180   3.147  92.923  1.00  0.00     0.181 C 
HETATM   32  O   UNL     1      12.264   2.739  93.634  1.00  0.00    -0.294 OA
BRANCH  31  33
HETATM   33  C   UNL     1      14.444   2.174  93.210  1.00  0.00     0.138 C 
BRANCH  33  34
HETATM   34  C   UNL     1      15.350   3.073  93.815  1.00  0.00     0.208 C 
HETATM   35  O   UNL     1      16.427   2.617  94.124  1.00  0.00    -0.289 OA
BRANCH  34  36
HETATM   36  C   UNL     1      15.344   4.440  93.863  1.00  0.00     0.194 C 
HETATM   37  O   UNL     1      16.354   5.360  93.560  1.00  0.00    -0.185 OA
ENDBRANCH  34  36
ENDBRANCH  33  34
ENDBRANCH  31  33
ENDBRANCH  26  31
ENDBRANCH  24  26
ENDBRANCH  19  22
ENDBRANCH  15  16
ENDBRANCH  11  14
ENDBRANCH   7   8
ENDBRANCH   2   7
TORSDOF 12
ENDMDL
MODEL 3
REMARK VINA RESULT:      -4.7      1.179      1.964
REMARK  12 active torsions:
REMARK  status: ('A' for Active; 'I' for Inactive)
REMARK    1  A    between atoms: O_2  and  C_16 
REMARK    2  A    between atoms: N_5  and  C_9 
REMARK    3  A    between atoms: N_6  and  C_13 
REMARK       I    between atoms: N_6  and  C_22 
REMARK    4  A    between atoms: C_9  and  C_12 
REMARK    5  A    between atoms: C_13  and  C_16 
REMARK    6  A    between atoms: C_13  and  C_21 
REMARK    7  A    between atoms: C_19  and  C_24 
REMARK    8  A    between atoms: C_21  and  C_33 
REMARK    9  A    between atoms: C_22  and  C_23 
REMARK   10  A    between atoms: C_27  and  C_30 
REMARK   11  A    between atoms: C_33  and  C_34 
REMARK   12  A    between atoms: C_34  and  C_35 
ROOT
HETATM    1  O   UNL     1      16.185   4.399  94.123  1.00  0.00    -0.350 OA
HETATM    2  N   UNL     1      14.823   2.827  92.181  1.00  0.00     0.147 N 
HETATM    3  C   UNL     1      14.520   4.254  92.363  1.00  0.00     0.283 C 
HETATM    4  C   UNL     1      15.295   2.247  93.445  1.00  0.00     0.283 C 
HETATM    5  C   UNL     1      15.755   4.980  92.891  1.00  0.00     0.178 C 
HETATM    6  C   UNL     1      16.510   3.020  93.948  1.00  0.00     0.178 C 
ENDROOT
BRANCH   2   7
HETATM    7  C   UNL     1      13.650   2.109  91.685  1.00  0.00     0.277 C 
BRANCH   7   8
HETATM    8  C   UNL     1      12.445   2.982  91.597  1.00  0.00     0.011 A 
HETATM    9  C   UNL     1      12.243   3.779  90.470  1.00  0.00    -0.002 A 
HETATM   10  C   UNL     1      11.117   4.598  90.387  1.00  0.00     0.008 A 
HETATM   11  C   UNL     1      10.192   4.617  91.431  1.00  0.00     0.042 A 
HETATM   12  C   UNL     1      10.392   3.821  92.556  1.00  0.00     0.008 A 
HETATM   13  C   UNL     1      11.518   3.002  92.640  1.00  0.00    -0.002 A 
BRANCH  11  14
HETATM   14  C   UNL     1       9.036   5.455  91.345  1.00  0.00    -0.059 C 
HETATM   15  C   UNL     1       8.064   6.160  91.273  1.00  0.00    -0.059 C 
BRANCH  15  16
HETATM   16  C   UNL     1       6.909   6.998  91.186  1.00  0.00     0.042 A 
HETATM   17  C   UNL     1       6.270   7.425  92.351  1.00  0.00     0.008 A 
HETATM   18  C   UNL     1       5.145   8.245  92.266  1.00  0.00     0.005 A 
HETATM   19  C   UNL     1       4.685   8.620  91.021  1.00  0.00     0.056 A 
HETATM   20  C   UNL     1       5.300   8.212  89.856  1.00  0.00     0.005 A 
HETATM   21  C   UNL     1       6.425   7.392  89.939  1.00  0.00     0.008 A 
BRANCH  19  22
HETATM   22  C   UNL     1       3.485   9.492  90.932  1.00  0.00     0.254 C 
HETATM   23  O   UNL     1       2.533   9.133  90.244  1.00  0.00    -0.268 OA
HETATM   24  N   UNL     1       3.529  10.665  91.673  1.00  0.00    -0.335 N 
HETATM   25  HN  UNL     1       4.341  10.884  92.239  1.00  0.00     0.164 HD
BRANCH  24  26
HETATM   26  C   UNL     1       2.435  11.601  91.709  1.00  0.00     0.166 C 
BRANCH  26  27
HETATM   27  C   UNL     1       1.873  11.804  93.122  1.00  0.00     0.138 C 
HETATM   28  C   UNL     1       2.406  10.777  94.115  1.00  0.00     0.034 C 
BRANCH  27  29
HETATM   29  O   UNL     1       2.207  13.113  93.585  1.00  0.00    -0.383 OA
HETATM   30  H   UNL     1       2.641  13.591  92.859  1.00  0.00     0.210 HD
ENDBRANCH  27  29
ENDBRANCH  26  27
BRANCH  26  31
HETATM   31  C   UNL     1       2.927  12.916  91.114  1.00  0.00     0.181 C 
HETATM   32  O   UNL     1       3.846  13.570  91.603  1.00  0.00    -0.294 OA
BRANCH  31  33
HETATM   33  C   UNL     1       3.265  12.774  89.535  1.00  0.00     0.138 C 
BRANCH  33  34
HETATM   34  C   UNL     1       4.602  13.227  89.499  1.00  0.00     0.208 C 
HETATM   35  O   UNL     1       5.441  12.443  89.879  1.00  0.00    -0.289 OA
BRANCH  34  36
HETATM   36  C   UNL     1       5.160  14.292  88.846  1.00  0.00     0.194 C 
HETATM   37  O   UNL     1       5.361  15.610  89.272  1.00  0.00    -0.185 OA
ENDBRANCH  34  36
ENDBRANCH  33  34
ENDBRANCH  31  33
ENDBRANCH  26  31
ENDBRANCH  24  26
ENDBRANCH  19  22
ENDBRANCH  15  16
ENDBRANCH  11  14
ENDBRANCH   7   8
ENDBRANCH   2   7
TORSDOF 12
ENDMDL
MODEL 4
REMARK VINA RESULT:      -4.4      2.848     12.394
REMARK  12 active torsions:
REMARK  status: ('A' for Active; 'I' for Inactive)
REMARK    1  A    between atoms: O_2  and  C_16 
REMARK    2  A    between atoms: N_5  and  C_9 
REMARK    3  A    between atoms: N_6  and  C_13 
REMARK       I    between atoms: N_6  and  C_22 
REMARK    4  A    between atoms: C_9  and  C_12 
REMARK    5  A    between atoms: C_13  and  C_16 
REMARK    6  A    between atoms: C_13  and  C_21 
REMARK    7  A    between atoms: C_19  and  C_24 
REMARK    8  A    between atoms: C_21  and  C_33 
REMARK    9  A    between atoms: C_22  and  C_23 
REMARK   10  A    between atoms: C_27  and  C_30 
REMARK   11  A    between atoms: C_33  and  C_34 
REMARK   12  A    between atoms: C_34  and  C_35 
ROOT
HETATM    1  O   UNL     1       3.195  14.909  93.779  1.00  0.00    -0.350 OA
HETATM    2  N   UNL     1       2.752  14.778  90.970  1.00  0.00     0.147 N 
HETATM    3  C   UNL     1       1.881  14.071  91.919  1.00  0.00     0.283 C 
HETATM    4  C   UNL     1       4.105  14.909  91.530  1.00  0.00     0.283 C 
HETATM    5  C   UNL     1       1.869  14.806  93.257  1.00  0.00     0.178 C 
HETATM    6  C   UNL     1       4.041  15.623  92.877  1.00  0.00     0.178 C 
ENDROOT
BRANCH   2   7
HETATM    7  C   UNL     1       2.787  14.086  89.683  1.00  0.00     0.277 C 
BRANCH   7   8
HETATM    8  C   UNL     1       3.766  12.961  89.670  1.00  0.00     0.011 A 
HETATM    9  C   UNL     1       5.032  13.146  89.115  1.00  0.00    -0.002 A 
HETATM   10  C   UNL     1       5.948  12.094  89.100  1.00  0.00     0.008 A 
HETATM   11  C   UNL     1       5.597  10.858  89.642  1.00  0.00     0.042 A 
HETATM   12  C   UNL     1       4.333  10.672  90.198  1.00  0.00     0.008 A 
HETATM   13  C   UNL     1       3.417  11.724  90.212  1.00  0.00    -0.002 A 
BRANCH  11  14
HETATM   14  C   UNL     1       6.537   9.780  89.629  1.00  0.00    -0.059 C 
HETATM   15  C   UNL     1       7.327   8.874  89.619  1.00  0.00    -0.059 C 
BRANCH  15  16
HETATM   16  C   UNL     1       8.266   7.795  89.606  1.00  0.00     0.042 A 
HETATM   17  C   UNL     1       8.840   7.358  90.800  1.00  0.00     0.008 A 
HETATM   18  C   UNL     1       9.754   6.304  90.788  1.00  0.00     0.005 A 
HETATM   19  C   UNL     1      10.073   5.712  89.584  1.00  0.00     0.056 A 
HETATM   20  C   UNL     1       9.520   6.126  88.390  1.00  0.00     0.005 A 
HETATM   21  C   UNL     1       8.606   7.180  88.401  1.00  0.00     0.008 A 
BRANCH  19  22
HETATM   22  C   UNL     1      11.048   4.591  89.571  1.00  0.00     0.254 C 
HETATM   23  O   UNL     1      11.121   3.870  88.578  1.00  0.00    -0.268 OA
HETATM   24  N   UNL     1      11.838   4.459  90.705  1.00  0.00    -0.335 N 
HETATM   25  HN  UNL     1      11.739   5.108  91.477  1.00  0.00     0.164 HD
BRANCH  24  26
HETATM   26  C   UNL     1      12.845   3.437  90.834  1.00  0.00     0.166 C 
BRANCH  26  27
HETATM   27  C   UNL     1      14.239   4.010  91.118  1.00  0.00     0.138 C 
HETATM   28  C   UNL     1      15.355   3.035  90.762  1.00  0.00     0.034 C 
BRANCH  27  29
HETATM   29  O   UNL     1      14.421   5.215  90.374  1.00  0.00    -0.383 OA
HETATM   30  H   UNL     1      13.699   5.286  89.728  1.00  0.00     0.210 HD
ENDBRANCH  27  29
ENDBRANCH  26  27
BRANCH  26  31
HETATM   31  C   UNL     1      12.402   2.483  91.938  1.00  0.00     0.181 C 
HETATM   32  O   UNL     1      12.907   1.374  92.107  1.00  0.00    -0.294 OA
BRANCH  31  33
HETATM   33  C   UNL     1      12.395   3.203  93.390  1.00  0.00     0.138 C 
BRANCH  33  34
HETATM   34  C   UNL     1      11.147   3.865  93.360  1.00  0.00     0.208 C 
HETATM   35  O   UNL     1      10.260   3.301  92.763  1.00  0.00    -0.289 OA
BRANCH  34  36
HETATM   36  C   UNL     1      10.671   4.895  94.124  1.00  0.00     0.194 C 
HETATM   37  O   UNL     1      10.940   6.267  94.061  1.00  0.00    -0.185 OA
ENDBRANCH  34  36
ENDBRANCH  33  34
ENDBRANCH  31  33
ENDBRANCH  26  31
ENDBRANCH  24  26
ENDBRANCH  19  22
ENDBRANCH  15  16
ENDBRANCH  11  14
ENDBRANCH   7   8
ENDBRANCH   2   7
TORSDOF 12
ENDMDL
MODEL 5
REMARK VINA RESULT:      -3.2      1.856      1.984
REMARK  12 active torsions:
REMARK  status: ('A' for Active; 'I' for Inactive)
REMARK    1  A    between atoms: O_2  and  C_16 
REMARK    2  A    between atoms: N_5  and  C_9 
REMARK    3  A    between atoms: N_6  and  C_13 
REMARK       I    between atoms: N_6  and  C_22 
REMARK    4  A    between atoms: C_9  and  C_12 
REMARK    5  A    between atoms: C_13  and  C_16 
REMARK    6  A    between atoms: C_13  and  C_21 
REMARK    7  A    between atoms: C_19  and  C_24 
REMARK    8  A    between atoms: C_21  and  C_33 
REMARK    9  A    between atoms: C_22  and  C_23 
REMARK   10  A    between atoms: C_27  and  C_30 
REMARK   11  A    between atoms: C_33  and  C_34 
REMARK   12  A    between atoms: C_34  and  C_35 
ROOT
HETATM    1  O   UNL     1      15.433   3.029  90.389  1.00  0.00    -0.350 OA
HETATM    2  N   UNL     1      13.568   3.058  92.540  1.00  0.00     0.147 N 
HETATM    3  C   UNL     1      14.459   1.912  92.311  1.00  0.00     0.283 C 
HETATM    4  C   UNL     1      13.286   3.737  91.268  1.00  0.00     0.283 C 
HETATM    5  C   UNL     1      15.739   2.381  91.625  1.00  0.00     0.178 C 
HETATM    6  C   UNL     1      14.592   4.163  90.606  1.00  0.00     0.178 C 
ENDROOT
BRANCH   2   7
HETATM    7  C   UNL     1      12.330   2.630  93.187  1.00  0.00     0.277 C 
BRANCH   7   8
HETATM    8  C   UNL     1      11.283   3.692  93.169  1.00  0.00     0.011 A 
HETATM    9  C   UNL     1      11.307   4.710  94.123  1.00  0.00    -0.002 A 
HETATM   10  C   UNL     1      10.327   5.702  94.108  1.00  0.00     0.008 A 
HETATM   11  C   UNL     1       9.326   5.677  93.138  1.00  0.00     0.042 A 
HETATM   12  C   UNL     1       9.301   4.662  92.185  1.00  0.00     0.008 A 
HETATM   13  C   UNL     1      10.280   3.669  92.200  1.00  0.00    -0.002 A 
BRANCH  11  14
HETATM   14  C   UNL     1       8.322   6.697  93.122  1.00  0.00    -0.059 C 
HETATM   15  C   UNL     1       7.478   7.554  93.109  1.00  0.00    -0.059 C 
BRANCH  15  16
HETATM   16  C   UNL     1       6.476   8.573  93.093  1.00  0.00     0.042 A 
HETATM   17  C   UNL     1       5.133   8.232  93.260  1.00  0.00     0.008 A 
HETATM   18  C   UNL     1       4.156   9.227  93.247  1.00  0.00     0.005 A 
HETATM   19  C   UNL     1       4.542  10.539  93.068  1.00  0.00     0.056 A 
HETATM   20  C   UNL     1       5.862  10.901  92.901  1.00  0.00     0.005 A 
HETATM   21  C   UNL     1       6.841   9.907  92.913  1.00  0.00     0.008 A 
BRANCH  19  22
HETATM   22  C   UNL     1       3.500  11.598  93.053  1.00  0.00     0.254 C 
HETATM   23  O   UNL     1       2.707  11.673  93.988  1.00  0.00    -0.268 OA
HETATM   24  N   UNL     1       3.522  12.457  91.963  1.00  0.00    -0.335 N 
HETATM   25  HN  UNL     1       4.224  12.349  91.239  1.00  0.00     0.164 HD
BRANCH  24  26
HETATM   26  C   UNL     1       2.593  13.548  91.816  1.00  0.00     0.166 C 
BRANCH  26  27
HETATM   27  C   UNL     1       2.920  14.733  92.734  1.00  0.00     0.138 C 
HETATM   28  C   UNL     1       1.846  14.965  93.792  1.00  0.00     0.034 C 
BRANCH  27  29
HETATM   29  O   UNL     1       4.169  14.503  93.384  1.00  0.00    -0.383 OA
HETATM   30  H   UNL     1       4.877  14.855  92.818  1.00  0.00     0.210 HD
ENDBRANCH  27  29
ENDBRANCH  26  27
BRANCH  26  31
HETATM   31  C   UNL     1       2.593  13.966  90.349  1.00  0.00     0.181 C 
HETATM   32  O   UNL     1       1.696  14.639  89.845  1.00  0.00    -0.294 OA
BRANCH  31  33
HETATM   33  C   UNL     1       3.986  14.680  89.927  1.00  0.00     0.138 C 
BRANCH  33  34
HETATM   34  C   UNL     1       4.439  13.813  88.907  1.00  0.00     0.208 C 
HETATM   35  O   UNL     1       5.597  13.934  88.580  1.00  0.00    -0.289 OA
BRANCH  34  36
HETATM   36  C   UNL     1       3.888  12.663  88.411  1.00  0.00     0.194 C 
HETATM   37  O   UNL     1       4.470  11.414  88.169  1.00  0.00    -0.185 OA
ENDBRANCH  34  36
ENDBRANCH  33  34
ENDBRANCH  31  33
ENDBRANCH  26  31
ENDBRANCH  24  26
ENDBRANCH  19  22
ENDBRANCH  15  16
ENDBRANCH  11  14
ENDBRANCH   7   8
ENDBRANCH   2   7
TORSDOF 12
ENDMDL
MODEL 6
REMARK VINA RESULT:      -3.1      2.468     12.571
REMARK  12 active torsions:
REMARK  status: ('A' for Active; 'I' for Inactive)
REMARK    1  A    between atoms: O_2  and  C_16 
REMARK    2  A    between atoms: N_5  and  C_9 
REMARK    3  A    between atoms: N_6  and  C_13 
REMARK       I    between atoms: N_6  and  C_22 
REMARK    4  A    between atoms: C_9  and  C_12 
REMARK    5  A    between atoms: C_13  and  C_16 
REMARK    6  A    between atoms: C_13  and  C_21 
REMARK    7  A    between atoms: C_19  and  C_24 
REMARK    8  A    between atoms: C_21  and  C_33 
REMARK    9  A    between atoms: C_22  and  C_23 
REMARK   10  A    between atoms: C_27  and  C_30 
REMARK   11  A    between atoms: C_33  and  C_34 
REMARK   12  A    between atoms: C_34  and  C_35 
ROOT
HETATM    1  O   UNL     1       4.741  15.610  92.222  1.00  0.00    -0.350 OA
HETATM    2  N   UNL     1       3.141  13.748  90.781  1.00  0.00     0.147 N 
HETATM    3  C   UNL     1       3.061  13.859  92.244  1.00  0.00     0.283 C 
HETATM    4  C   UNL     1       4.485  14.126  90.320  1.00  0.00     0.283 C 
HETATM    5  C   UNL     1       3.429  15.276  92.676  1.00  0.00     0.178 C 
HETATM    6  C   UNL     1       4.819  15.535  90.798  1.00  0.00     0.178 C 
ENDROOT
BRANCH   2   7
HETATM    7  C   UNL     1       2.803  12.395  90.345  1.00  0.00     0.277 C 
BRANCH   7   8
HETATM    8  C   UNL     1       3.969  11.468  90.414  1.00  0.00     0.011 A 
HETATM    9  C   UNL     1       4.628  11.090  89.243  1.00  0.00    -0.002 A 
HETATM   10  C   UNL     1       5.718  10.222  89.306  1.00  0.00     0.008 A 
HETATM   11  C   UNL     1       6.148   9.733  90.540  1.00  0.00     0.042 A 
HETATM   12  C   UNL     1       5.491  10.110  91.709  1.00  0.00     0.008 A 
HETATM   13  C   UNL     1       4.401  10.978  91.646  1.00  0.00    -0.002 A 
BRANCH  11  14
HETATM   14  C   UNL     1       7.267   8.844  90.604  1.00  0.00    -0.059 C 
HETATM   15  C   UNL     1       8.208   8.097  90.659  1.00  0.00    -0.059 C 
BRANCH  15  16
HETATM   16  C   UNL     1       9.325   7.207  90.725  1.00  0.00     0.042 A 
HETATM   17  C   UNL     1       9.800   6.775  91.963  1.00  0.00     0.008 A 
HETATM   18  C   UNL     1      10.889   5.905  92.026  1.00  0.00     0.005 A 
HETATM   19  C   UNL     1      11.477   5.487  90.851  1.00  0.00     0.056 A 
HETATM   20  C   UNL     1      11.027   5.901  89.615  1.00  0.00     0.005 A 
HETATM   21  C   UNL     1       9.939   6.771  89.550  1.00  0.00     0.008 A 
BRANCH  19  22
HETATM   22  C   UNL     1      12.638   4.562  90.919  1.00  0.00     0.254 C 
HETATM   23  O   UNL     1      12.993   3.970  89.903  1.00  0.00    -0.268 OA
HETATM   24  N   UNL     1      13.261   4.458  92.155  1.00  0.00    -0.335 N 
HETATM   25  HN  UNL     1      12.927   4.998  92.945  1.00  0.00     0.164 HD
BRANCH  24  26
HETATM   26  C   UNL     1      14.413   3.621  92.375  1.00  0.00     0.166 C 
BRANCH  26  27
HETATM   27  C   UNL     1      15.420   4.242  93.351  1.00  0.00     0.138 C 
HETATM   28  C   UNL     1      16.516   3.265  93.760  1.00  0.00     0.034 C 
BRANCH  27  29
HETATM   29  O   UNL     1      16.022   5.389  92.752  1.00  0.00    -0.383 OA
HETATM   30  H   UNL     1      16.499   5.879  93.442  1.00  0.00     0.210 HD
ENDBRANCH  27  29
ENDBRANCH  26  27
BRANCH  26  31
HETATM   31  C   UNL     1      13.918   2.268  92.874  1.00  0.00     0.181 C 
HETATM   32  O   UNL     1      14.619   1.500  93.531  1.00  0.00    -0.294 OA
BRANCH  31  33
HETATM   33  C   UNL     1      12.516   2.399  93.677  1.00  0.00     0.138 C 
BRANCH  33  34
HETATM   34  C   UNL     1      11.584   2.185  92.636  1.00  0.00     0.208 C 
HETATM   35  O   UNL     1      11.908   1.385  91.788  1.00  0.00    -0.289 OA
BRANCH  34  36
HETATM   36  C   UNL     1      10.256   2.503  92.555  1.00  0.00     0.194 C 
HETATM   37  O   UNL     1       9.486   2.894  91.455  1.00  0.00    -0.185 OA
ENDBRANCH  34  36
ENDBRANCH  33  34
ENDBRANCH  31  33
ENDBRANCH  26  31
ENDBRANCH  24  26
ENDBRANCH  19  22
ENDBRANCH  15  16
ENDBRANCH  11  14
ENDBRANCH   7   8
ENDBRANCH   2   7
TORSDOF 12
ENDMDL
