MODEL 1
REMARK VINA RESULT:      -7.4      0.000      0.000
REMARK  9 active torsions:
REMARK  status: ('A' for Active; 'I' for Inactive)
REMARK    1  A    between atoms: O_2  and  C_17 
REMARK    2  A    between atoms: N_5  and  C_10 
REMARK    3  A    between atoms: N_6  and  C_14 
REMARK       I    between atoms: N_6  and  C_23 
REMARK       I    between atoms: N_7  and  C_22 
REMARK    4  A    between atoms: C_10  and  C_13 
REMARK    5  A    between atoms: C_14  and  C_17 
REMARK    6  A    between atoms: C_14  and  C_22 
REMARK    7  A    between atoms: C_20  and  C_25 
REMARK    8  A    between atoms: C_23  and  C_24 
REMARK    9  A    between atoms: C_28  and  C_31 
ROOT
HETATM    1  O   UNL     1      16.407   2.945  93.639  1.00  0.00    -0.388 OA
HETATM    2  N   UNL     1      13.683   2.634  92.875  1.00  0.00     0.096 N 
HETATM    3  C   UNL     1      14.549   1.472  93.120  1.00  0.00     0.299 C 
HETATM    4  C   UNL     1      14.486   3.772  92.409  1.00  0.00     0.299 C 
HETATM    5  C   UNL     1      15.638   1.842  94.124  1.00  0.00     0.198 C 
HETATM    6  C   UNL     1      15.577   4.088  93.428  1.00  0.00     0.198 C 
ENDROOT
BRANCH   2   7
HETATM    7  C   UNL     1      12.637   2.305  91.908  1.00  0.00     0.311 C 
BRANCH   7   8
HETATM    8  C   UNL     1      11.761   3.471  91.600  1.00  0.00    -0.030 A 
HETATM    9  C   UNL     1      11.385   3.731  90.281  1.00  0.00     0.010 A 
HETATM   10  C   UNL     1      10.568   4.823  89.991  1.00  0.00     0.021 A 
HETATM   11  C   UNL     1      10.125   5.653  91.020  1.00  0.00     0.018 A 
HETATM   12  C   UNL     1      10.499   5.395  92.337  1.00  0.00     0.021 A 
HETATM   13  C   UNL     1      11.318   4.303  92.627  1.00  0.00     0.010 A 
BRANCH  11  14
HETATM   14  C   UNL     1       9.284   6.772  90.723  1.00  0.00    -0.061 C 
HETATM   15  C   UNL     1       8.578   7.713  90.473  1.00  0.00    -0.061 C 
BRANCH  15  16
HETATM   16  C   UNL     1       7.738   8.830  90.175  1.00  0.00     0.018 A 
HETATM   17  C   UNL     1       6.424   8.858  90.643  1.00  0.00     0.022 A 
HETATM   18  C   UNL     1       5.605   9.950  90.355  1.00  0.00     0.018 A 
HETATM   19  C   UNL     1       6.118  10.989  89.607  1.00  0.00     0.032 A 
HETATM   20  C   UNL     1       7.412  10.985  89.132  1.00  0.00     0.018 A 
HETATM   21  C   UNL     1       8.232   9.893  89.419  1.00  0.00     0.022 A 
BRANCH  19  22
HETATM   22  C   UNL     1       5.244  12.151  89.298  1.00  0.00     0.252 C 
HETATM   23  O   UNL     1       5.178  12.561  88.142  1.00  0.00    -0.268 OA
HETATM   24  N   UNL     1       4.535  12.679  90.368  1.00  0.00    -0.342 N 
HETATM   25  H   UNL     1       4.621  12.271  91.292  1.00  0.00     0.163 HD
BRANCH  24  26
HETATM   26  C   UNL     1       3.628  13.790  90.225  1.00  0.00     0.199 C 
BRANCH  26  27
HETATM   27  C   UNL     1       2.400  13.675  91.136  1.00  0.00     0.145 C 
HETATM   28  C   UNL     1       2.343  12.342  91.874  1.00  0.00     0.042 C 
BRANCH  27  29
HETATM   29  O   UNL     1       2.415  14.734  92.093  1.00  0.00    -0.393 OA
HETATM   30  H   UNL     1       1.586  14.700  92.598  1.00  0.00     0.210 HD
ENDBRANCH  27  29
ENDBRANCH  26  27
BRANCH  26  31
HETATM   31  C   UNL     1       4.411  15.068  90.507  1.00  0.00     0.220 C 
HETATM   32  O   UNL     1       4.526  15.548  91.633  1.00  0.00    -0.278 OA
HETATM   33  N   UNL     1       4.926  15.625  89.361  1.00  0.00    -0.271 NA
HETATM   34  H   UNL     1       4.775  15.306  88.411  1.00  0.00     0.127 HD
HETATM   35  H   UNL     1       4.515  16.793  88.699  1.00  0.00     0.127 HD
ENDBRANCH  26  31
ENDBRANCH  24  26
ENDBRANCH  19  22
ENDBRANCH  15  16
ENDBRANCH  11  14
ENDBRANCH   7   8
ENDBRANCH   2   7
TORSDOF 9
ENDMDL
