MODEL 1
REMARK VINA RESULT:      -6.7      0.000      0.000
REMARK  11 active torsions:
REMARK  status: ('A' for Active; 'I' for Inactive)
REMARK    1  A    between atoms: O_2  and  C_18 
REMARK    2  A    between atoms: O_5  and  P_8 
REMARK    3  A    between atoms: N_6  and  C_11 
REMARK    4  A    between atoms: N_7  and  C_15 
REMARK       I    between atoms: N_7  and  C_24 
REMARK    5  A    between atoms: P_8  and  C_23 
REMARK    6  A    between atoms: C_11  and  C_14 
REMARK    7  A    between atoms: C_15  and  C_18 
REMARK    8  A    between atoms: C_15  and  C_23 
REMARK    9  A    between atoms: C_21  and  C_26 
REMARK   10  A    between atoms: C_24  and  C_25 
REMARK   11  A    between atoms: C_29  and  C_32 
ROOT
HETATM    1  O   UNL     1      15.838   3.855  94.121  1.00  0.00     0.000 OA
HETATM    2  N   UNL     1      14.060   2.582  92.299  1.00  0.00     0.000 N 
HETATM    3  C   UNL     1      14.099   4.044  92.439  1.00  0.00     0.000 C 
HETATM    4  C   UNL     1      14.451   1.945  93.564  1.00  0.00     0.000 C 
HETATM    5  C   UNL     1      15.491   4.484  92.886  1.00  0.00     0.000 C 
HETATM    6  C   UNL     1      15.833   2.433  93.985  1.00  0.00     0.000 C 
ENDROOT
BRANCH   2   7
HETATM    7  C   UNL     1      12.731   2.137  91.882  1.00  0.00     0.000 C 
BRANCH   7   8
HETATM    8  C   UNL     1      11.808   3.277  91.616  1.00  0.00     0.000 A 
HETATM    9  C   UNL     1      10.903   3.684  92.596  1.00  0.00     0.000 A 
HETATM   10  C   UNL     1      10.037   4.749  92.347  1.00  0.00     0.000 A 
HETATM   11  C   UNL     1      10.079   5.408  91.119  1.00  0.00     0.000 A 
HETATM   12  C   UNL     1      10.984   5.003  90.139  1.00  0.00     0.000 A 
HETATM   13  C   UNL     1      11.849   3.937  90.387  1.00  0.00     0.000 A 
BRANCH  11  14
HETATM   14  C   UNL     1       9.193   6.502  90.864  1.00  0.00     0.000 C 
HETATM   15  C   UNL     1       8.448   7.421  90.650  1.00  0.00     0.000 C 
BRANCH  15  16
HETATM   16  C   UNL     1       7.562   8.514  90.395  1.00  0.00     0.000 A 
HETATM   17  C   UNL     1       7.498   9.582  91.290  1.00  0.00     0.000 A 
HETATM   18  C   UNL     1       6.636  10.649  91.040  1.00  0.00     0.000 A 
HETATM   19  C   UNL     1       5.858  10.625  89.901  1.00  0.00     0.000 A 
HETATM   20  C   UNL     1       5.904   9.581  89.001  1.00  0.00     0.000 A 
HETATM   21  C   UNL     1       6.765   8.513  89.250  1.00  0.00     0.000 A 
BRANCH  19  22
HETATM   22  C   UNL     1       4.938  11.761  89.635  1.00  0.00     0.000 C 
HETATM   23  O   UNL     1       4.599  12.000  88.479  1.00  0.00     0.000 OA
HETATM   24  N   UNL     1       4.506  12.466  90.750  1.00  0.00     0.000 N 
HETATM   25  HN  UNL     1       4.809  12.195  91.678  1.00  0.00     0.000 HD
BRANCH  24  26
HETATM   26  C   UNL     1       3.593  13.577  90.658  1.00  0.00     0.000 C 
BRANCH  26  27
HETATM   27  C   UNL     1       2.316  13.366  91.481  1.00  0.00     0.000 C 
HETATM   28  C   UNL     1       2.454  12.234  92.493  1.00  0.00     0.000 C 
BRANCH  27  29
HETATM   29  O   UNL     1       1.990  14.570  92.174  1.00  0.00     0.000 OA
HETATM   30  H   UNL     1       2.360  15.318  91.676  1.00  0.00     0.000 HD
ENDBRANCH  27  29
ENDBRANCH  26  27
BRANCH  26  31
HETATM   31  C   UNL     1       4.339  14.831  91.105  1.00  0.00     0.000 C 
HETATM   32  O   UNL     1       4.493  15.133  92.287  1.00  0.00     0.000 OA
BRANCH  31  33
HETATM   33  P   UNL     1       4.773  15.583  90.041  1.00  0.00     0.000 P 
HETATM   34  H   UNL     1       3.681  16.241  89.513  1.00  0.00     0.000 HD
BRANCH  33  35
HETATM   35  O   UNL     1       5.390  14.871  89.001  1.00  0.00     0.000 OA
HETATM   36  H   UNL     1       6.250  15.323  88.967  1.00  0.00     0.000 HD
ENDBRANCH  33  35
ENDBRANCH  31  33
ENDBRANCH  26  31
ENDBRANCH  24  26
ENDBRANCH  19  22
ENDBRANCH  15  16
ENDBRANCH  11  14
ENDBRANCH   7   8
ENDBRANCH   2   7
TORSDOF 11
ENDMDL
