MODEL 1
REMARK VINA RESULT:      -6.2      0.000      0.000
REMARK  12 active torsions:
REMARK  status: ('A' for Active; 'I' for Inactive)
REMARK    1  A    between atoms: O_2  and  C_16 
REMARK    2  A    between atoms: N_5  and  C_9 
REMARK    3  A    between atoms: N_6  and  C_13 
REMARK       I    between atoms: N_6  and  C_22 
REMARK    4  A    between atoms: C_9  and  C_12 
REMARK    5  A    between atoms: C_13  and  C_16 
REMARK    6  A    between atoms: C_13  and  C_21 
REMARK    7  A    between atoms: C_19  and  C_24 
REMARK    8  A    between atoms: C_21  and  C_33 
REMARK    9  A    between atoms: C_22  and  C_23 
REMARK   10  A    between atoms: C_27  and  C_30 
REMARK   11  A    between atoms: C_33  and  C_34 
REMARK   12  A    between atoms: C_34  and  C_35 
ROOT
HETATM    1  O   UNL     1      16.547   4.397  94.124  1.00  0.00    -0.350 OA
HETATM    2  N   UNL     1      14.719   2.750  92.693  1.00  0.00     0.147 N 
HETATM    3  C   UNL     1      14.589   4.214  92.702  1.00  0.00     0.283 C 
HETATM    4  C   UNL     1      15.354   2.294  93.937  1.00  0.00     0.283 C 
HETATM    5  C   UNL     1      15.960   4.854  92.904  1.00  0.00     0.178 C 
HETATM    6  C   UNL     1      16.706   2.978  94.110  1.00  0.00     0.178 C 
ENDROOT
BRANCH   2   7
HETATM    7  C   UNL     1      13.415   2.116  92.511  1.00  0.00     0.277 C 
BRANCH   7   8
HETATM    8  C   UNL     1      12.306   3.109  92.434  1.00  0.00     0.011 A 
HETATM    9  C   UNL     1      11.906   3.797  93.580  1.00  0.00    -0.002 A 
HETATM   10  C   UNL     1      10.867   4.725  93.510  1.00  0.00     0.008 A 
HETATM   11  C   UNL     1      10.230   4.966  92.293  1.00  0.00     0.042 A 
HETATM   12  C   UNL     1      10.629   4.280  91.147  1.00  0.00     0.008 A 
HETATM   13  C   UNL     1      11.668   3.352  91.218  1.00  0.00    -0.002 A 
BRANCH  11  14
HETATM   14  C   UNL     1       9.166   5.920  92.220  1.00  0.00    -0.059 C 
HETATM   15  C   UNL     1       8.272   6.721  92.158  1.00  0.00    -0.059 C 
BRANCH  15  16
HETATM   16  C   UNL     1       7.208   7.673  92.085  1.00  0.00     0.042 A 
HETATM   17  C   UNL     1       7.241   8.818  92.882  1.00  0.00     0.008 A 
HETATM   18  C   UNL     1       6.205   9.748  92.809  1.00  0.00     0.005 A 
HETATM   19  C   UNL     1       5.159   9.514  91.940  1.00  0.00     0.056 A 
HETATM   20  C   UNL     1       5.103   8.390  91.142  1.00  0.00     0.005 A 
HETATM   21  C   UNL     1       6.139   7.459  91.215  1.00  0.00     0.008 A 
BRANCH  19  22
HETATM   22  C   UNL     1       4.054  10.504  91.863  1.00  0.00     0.254 C 
HETATM   23  O   UNL     1       2.892  10.111  91.915  1.00  0.00    -0.268 OA
HETATM   24  N   UNL     1       4.436  11.835  91.761  1.00  0.00    -0.335 N 
HETATM   25  HN  UNL     1       5.417  12.087  91.750  1.00  0.00     0.164 HD
BRANCH  24  26
HETATM   26  C   UNL     1       3.482  12.913  91.702  1.00  0.00     0.166 C 
BRANCH  26  27
HETATM   27  C   UNL     1       3.832  14.068  92.649  1.00  0.00     0.138 C 
HETATM   28  C   UNL     1       2.595  14.732  93.242  1.00  0.00     0.034 C 
BRANCH  27  29
HETATM   29  O   UNL     1       4.652  13.582  93.712  1.00  0.00    -0.383 OA
HETATM   30  H   UNL     1       4.150  12.909  94.201  1.00  0.00     0.210 HD
ENDBRANCH  27  29
ENDBRANCH  26  27
BRANCH  26  31
HETATM   31  C   UNL     1       3.404  13.387  90.255  1.00  0.00     0.181 C 
HETATM   32  O   UNL     1       2.488  14.087  89.828  1.00  0.00    -0.294 OA
BRANCH  31  33
HETATM   33  C   UNL     1       4.779  14.103  89.780  1.00  0.00     0.138 C 
BRANCH  33  34
HETATM   34  C   UNL     1       5.205  13.227  88.758  1.00  0.00     0.208 C 
HETATM   35  O   UNL     1       5.127  13.650  87.627  1.00  0.00    -0.289 OA
BRANCH  34  36
HETATM   36  C   UNL     1       5.960  12.088  88.823  1.00  0.00     0.194 C 
HETATM   37  O   UNL     1       5.585  10.746  88.691  1.00  0.00    -0.185 OA
ENDBRANCH  34  36
ENDBRANCH  33  34
ENDBRANCH  31  33
ENDBRANCH  26  31
ENDBRANCH  24  26
ENDBRANCH  19  22
ENDBRANCH  15  16
ENDBRANCH  11  14
ENDBRANCH   7   8
ENDBRANCH   2   7
TORSDOF 12
ENDMDL
