MODEL 1
REMARK VINA RESULT:      -7.6      0.000      0.000
REMARK  9 active torsions:
REMARK  status: ('A' for Active; 'I' for Inactive)
REMARK    1  A    between atoms: N_3  and  C_6 
REMARK    2  A    between atoms: C_6  and  C_9 
REMARK    3  A    between atoms: C_14  and  C_17 
REMARK       I    between atoms: N_26  and  C_15 
REMARK    4  A    between atoms: C_15  and  C_16 
REMARK    5  A    between atoms: C_20  and  C_23 
REMARK    6  A    between atoms: OG1_24  and  CB_28 
REMARK    7  A    between atoms: N_26  and  CA_27 
REMARK    8  A    between atoms: CA_27  and  CB_28 
REMARK    9  A    between atoms: CA_27  and  C_30 
ROOT
HETATM    1  O   UNK A   0       1.890   8.086  87.898  1.00  0.00    -0.388 OA
HETATM    2  N   UNK A   0       4.676   7.529  87.718  1.00  0.00     0.096 N 
HETATM    3  C   UNK A   0       4.171   8.907  87.785  1.00  0.00     0.299 C 
HETATM    4  C   UNK A   0       3.675   6.657  87.088  1.00  0.00     0.299 C 
HETATM    5  C   UNK A   0       2.844   8.936  88.539  1.00  0.00     0.198 C 
HETATM    6  C   UNK A   0       2.360   6.738  87.856  1.00  0.00     0.198 C 
ENDROOT
BRANCH   2   7
HETATM    7  C   UNK A   0       5.943   7.476  86.990  1.00  0.00     0.311 C 
BRANCH   7   8
HETATM    8  C   UNK A   0       7.042   6.887  87.806  1.00  0.00    -0.030 A 
HETATM    9  C   UNK A   0       8.283   6.631  87.222  1.00  0.00     0.010 A 
HETATM   10  C   UNK A   0       9.312   6.078  87.984  1.00  0.00     0.021 A 
HETATM   11  C   UNK A   0       9.100   5.784  89.330  1.00  0.00     0.018 A 
HETATM   12  C   UNK A   0       7.862   6.040  89.915  1.00  0.00     0.021 A 
HETATM   13  C   UNK A   0       6.833   6.593  89.154  1.00  0.00     0.010 A 
BRANCH  11  14
HETATM   14  C   UNK A   0      10.157   5.219  90.113  1.00  0.00    -0.061 C 
HETATM   15  C   UNK A   0      11.044   4.743  90.770  1.00  0.00    -0.061 C 
BRANCH  15  16
HETATM   16  C   UNK A   0      12.100   4.178  91.551  1.00  0.00     0.018 A 
HETATM   17  C   UNK A   0      13.359   3.982  90.982  1.00  0.00     0.022 A 
HETATM   18  C   UNK A   0      14.390   3.434  91.745  1.00  0.00     0.018 A 
HETATM   19  C   UNK A   0      14.140   3.094  93.058  1.00  0.00     0.032 A 
HETATM   20  C   UNK A   0      12.904   3.277  93.643  1.00  0.00     0.018 A 
HETATM   21  C   UNK A   0      11.872   3.825  92.881  1.00  0.00     0.022 A 
BRANCH  19  22
HETATM   22  C   UNK A   0      15.237   2.508  93.869  1.00  0.00     0.252 C 
HETATM   23  O   UNK A   0      16.403   2.734  93.554  1.00  0.00    -0.268 OA
ENDBRANCH  19  22
ENDBRANCH  15  16
ENDBRANCH  11  14
ENDBRANCH   7   8
ENDBRANCH   2   7
TORSDOF 9
ENDMDL
MODEL 2
REMARK VINA RESULT:      -7.5      0.058      1.426
REMARK  9 active torsions:
REMARK  status: ('A' for Active; 'I' for Inactive)
REMARK    1  A    between atoms: N_3  and  C_6 
REMARK    2  A    between atoms: C_6  and  C_9 
REMARK    3  A    between atoms: C_14  and  C_17 
REMARK       I    between atoms: N_26  and  C_15 
REMARK    4  A    between atoms: C_15  and  C_16 
REMARK    5  A    between atoms: C_20  and  C_23 
REMARK    6  A    between atoms: OG1_24  and  CB_28 
REMARK    7  A    between atoms: N_26  and  CA_27 
REMARK    8  A    between atoms: CA_27  and  CB_28 
REMARK    9  A    between atoms: CA_27  and  C_30 
ROOT
HETATM    1  O   UNK A   0       1.927   8.128  87.842  1.00  0.00    -0.388 OA
HETATM    2  N   UNK A   0       4.713   7.568  87.674  1.00  0.00     0.096 N 
HETATM    3  C   UNK A   0       4.211   8.946  87.775  1.00  0.00     0.299 C 
HETATM    4  C   UNK A   0       3.716   6.717  87.010  1.00  0.00     0.299 C 
HETATM    5  C   UNK A   0       2.876   8.957  88.516  1.00  0.00     0.198 C 
HETATM    6  C   UNK A   0       2.393   6.781  87.767  1.00  0.00     0.198 C 
ENDROOT
BRANCH   2   7
HETATM    7  C   UNK A   0       5.987   7.532  86.958  1.00  0.00     0.311 C 
BRANCH   7   8
HETATM    8  C   UNK A   0       7.081   6.935  87.776  1.00  0.00    -0.030 A 
HETATM    9  C   UNK A   0       6.872   6.666  89.129  1.00  0.00     0.010 A 
HETATM   10  C   UNK A   0       7.896   6.109  89.895  1.00  0.00     0.021 A 
HETATM   11  C   UNK A   0       9.127   5.820  89.308  1.00  0.00     0.018 A 
HETATM   12  C   UNK A   0       9.337   6.088  87.957  1.00  0.00     0.021 A 
HETATM   13  C   UNK A   0       8.313   6.645  87.190  1.00  0.00     0.010 A 
BRANCH  11  14
HETATM   14  C   UNK A   0      10.176   5.247  90.093  1.00  0.00    -0.061 C 
HETATM   15  C   UNK A   0      11.058   4.766  90.754  1.00  0.00    -0.061 C 
BRANCH  15  16
HETATM   16  C   UNK A   0      12.106   4.193  91.540  1.00  0.00     0.018 A 
HETATM   17  C   UNK A   0      11.859   3.812  92.859  1.00  0.00     0.022 A 
HETATM   18  C   UNK A   0      12.881   3.251  93.625  1.00  0.00     0.018 A 
HETATM   19  C   UNK A   0      14.126   3.083  93.055  1.00  0.00     0.032 A 
HETATM   20  C   UNK A   0      14.395   3.451  91.754  1.00  0.00     0.018 A 
HETATM   21  C   UNK A   0      13.374   4.013  90.987  1.00  0.00     0.022 A 
BRANCH  19  22
HETATM   22  C   UNK A   0      15.214   2.486  93.872  1.00  0.00     0.252 C 
HETATM   23  O   UNK A   0      16.383   2.737  93.588  1.00  0.00    -0.268 OA
ENDBRANCH  19  22
ENDBRANCH  15  16
ENDBRANCH  11  14
ENDBRANCH   7   8
ENDBRANCH   2   7
TORSDOF 9
ENDMDL
MODEL 3
REMARK VINA RESULT:      -7.5      0.086      1.010
REMARK  9 active torsions:
REMARK  status: ('A' for Active; 'I' for Inactive)
REMARK    1  A    between atoms: N_3  and  C_6 
REMARK    2  A    between atoms: C_6  and  C_9 
REMARK    3  A    between atoms: C_14  and  C_17 
REMARK       I    between atoms: N_26  and  C_15 
REMARK    4  A    between atoms: C_15  and  C_16 
REMARK    5  A    between atoms: C_20  and  C_23 
REMARK    6  A    between atoms: OG1_24  and  CB_28 
REMARK    7  A    between atoms: N_26  and  CA_27 
REMARK    8  A    between atoms: CA_27  and  CB_28 
REMARK    9  A    between atoms: CA_27  and  C_30 
ROOT
HETATM    1  O   UNK A   0       1.850   7.997  87.867  1.00  0.00    -0.388 OA
HETATM    2  N   UNK A   0       4.660   7.566  87.723  1.00  0.00     0.096 N 
HETATM    3  C   UNK A   0       4.095   8.918  87.829  1.00  0.00     0.299 C 
HETATM    4  C   UNK A   0       3.710   6.675  87.043  1.00  0.00     0.299 C 
HETATM    5  C   UNK A   0       2.754   8.863  88.556  1.00  0.00     0.198 C 
HETATM    6  C   UNK A   0       2.378   6.672  87.787  1.00  0.00     0.198 C 
ENDROOT
BRANCH   2   7
HETATM    7  C   UNK A   0       5.941   7.594  87.020  1.00  0.00     0.311 C 
BRANCH   7   8
HETATM    8  C   UNK A   0       7.043   6.989  87.822  1.00  0.00    -0.030 A 
HETATM    9  C   UNK A   0       6.864   6.757  89.186  1.00  0.00     0.010 A 
HETATM   10  C   UNK A   0       7.895   6.193  89.938  1.00  0.00     0.021 A 
HETATM   11  C   UNK A   0       9.102   5.859  89.325  1.00  0.00     0.018 A 
HETATM   12  C   UNK A   0       9.281   6.090  87.962  1.00  0.00     0.021 A 
HETATM   13  C   UNK A   0       8.251   6.655  87.210  1.00  0.00     0.010 A 
BRANCH  11  14
HETATM   14  C   UNK A   0      10.158   5.279  90.096  1.00  0.00    -0.061 C 
HETATM   15  C   UNK A   0      11.046   4.791  90.744  1.00  0.00    -0.061 C 
BRANCH  15  16
HETATM   16  C   UNK A   0      12.101   4.210  91.515  1.00  0.00     0.018 A 
HETATM   17  C   UNK A   0      13.353   4.004  90.936  1.00  0.00     0.022 A 
HETATM   18  C   UNK A   0      14.383   3.440  91.689  1.00  0.00     0.018 A 
HETATM   19  C   UNK A   0      14.138   3.096  93.001  1.00  0.00     0.032 A 
HETATM   20  C   UNK A   0      12.909   3.289  93.596  1.00  0.00     0.018 A 
HETATM   21  C   UNK A   0      11.878   3.853  92.844  1.00  0.00     0.022 A 
BRANCH  19  22
HETATM   22  C   UNK A   0      15.235   2.493  93.802  1.00  0.00     0.252 C 
HETATM   23  O   UNK A   0      16.398   2.809  93.561  1.00  0.00    -0.268 OA
ENDBRANCH  19  22
ENDBRANCH  15  16
ENDBRANCH  11  14
ENDBRANCH   7   8
ENDBRANCH   2   7
TORSDOF 9
ENDMDL
MODEL 4
REMARK VINA RESULT:      -7.4      0.565      1.154
REMARK  9 active torsions:
REMARK  status: ('A' for Active; 'I' for Inactive)
REMARK    1  A    between atoms: N_3  and  C_6 
REMARK    2  A    between atoms: C_6  and  C_9 
REMARK    3  A    between atoms: C_14  and  C_17 
REMARK       I    between atoms: N_26  and  C_15 
REMARK    4  A    between atoms: C_15  and  C_16 
REMARK    5  A    between atoms: C_20  and  C_23 
REMARK    6  A    between atoms: OG1_24  and  CB_28 
REMARK    7  A    between atoms: N_26  and  CA_27 
REMARK    8  A    between atoms: CA_27  and  CB_28 
REMARK    9  A    between atoms: CA_27  and  C_30 
ROOT
HETATM    1  O   UNK A   0       1.904   9.185  88.349  1.00  0.00    -0.388 OA
HETATM    2  N   UNK A   0       4.451   7.997  87.901  1.00  0.00     0.096 N 
HETATM    3  C   UNK A   0       4.270   9.455  87.885  1.00  0.00     0.299 C 
HETATM    4  C   UNK A   0       3.209   7.331  87.486  1.00  0.00     0.299 C 
HETATM    5  C   UNK A   0       3.097   9.840  88.782  1.00  0.00     0.198 C 
HETATM    6  C   UNK A   0       2.061   7.766  88.391  1.00  0.00     0.198 C 
ENDROOT
BRANCH   2   7
HETATM    7  C   UNK A   0       5.565   7.604  87.039  1.00  0.00     0.311 C 
BRANCH   7   8
HETATM    8  C   UNK A   0       6.692   7.001  87.807  1.00  0.00    -0.030 A 
HETATM    9  C   UNK A   0       7.930   6.812  87.192  1.00  0.00     0.010 A 
HETATM   10  C   UNK A   0       8.985   6.246  87.909  1.00  0.00     0.021 A 
HETATM   11  C   UNK A   0       8.801   5.872  89.240  1.00  0.00     0.018 A 
HETATM   12  C   UNK A   0       7.565   6.061  89.854  1.00  0.00     0.021 A 
HETATM   13  C   UNK A   0       6.510   6.626  89.138  1.00  0.00     0.010 A 
BRANCH  11  14
HETATM   14  C   UNK A   0       9.883   5.294  89.975  1.00  0.00    -0.061 C 
HETATM   15  C   UNK A   0      10.793   4.808  90.594  1.00  0.00    -0.061 C 
BRANCH  15  16
HETATM   16  C   UNK A   0      11.874   4.229  91.329  1.00  0.00     0.018 A 
HETATM   17  C   UNK A   0      11.665   3.770  92.629  1.00  0.00     0.022 A 
HETATM   18  C   UNK A   0      12.719   3.204  93.345  1.00  0.00     0.018 A 
HETATM   19  C   UNK A   0      13.957   3.107  92.745  1.00  0.00     0.032 A 
HETATM   20  C   UNK A   0      14.189   3.554  91.461  1.00  0.00     0.018 A 
HETATM   21  C   UNK A   0      13.136   4.121  90.744  1.00  0.00     0.022 A 
BRANCH  19  22
HETATM   22  C   UNK A   0      15.080   2.505  93.509  1.00  0.00     0.252 C 
HETATM   23  O   UNK A   0      16.213   2.960  93.369  1.00  0.00    -0.268 OA
ENDBRANCH  19  22
ENDBRANCH  15  16
ENDBRANCH  11  14
ENDBRANCH   7   8
ENDBRANCH   2   7
TORSDOF 9
ENDMDL
MODEL 5
REMARK VINA RESULT:      -6.8      1.436      1.769
REMARK  9 active torsions:
REMARK  status: ('A' for Active; 'I' for Inactive)
REMARK    1  A    between atoms: N_3  and  C_6 
REMARK    2  A    between atoms: C_6  and  C_9 
REMARK    3  A    between atoms: C_14  and  C_17 
REMARK       I    between atoms: N_26  and  C_15 
REMARK    4  A    between atoms: C_15  and  C_16 
REMARK    5  A    between atoms: C_20  and  C_23 
REMARK    6  A    between atoms: OG1_24  and  CB_28 
REMARK    7  A    between atoms: N_26  and  CA_27 
REMARK    8  A    between atoms: CA_27  and  CB_28 
REMARK    9  A    between atoms: CA_27  and  C_30 
ROOT
HETATM    1  O   UNK A   0       2.686  11.047  89.541  1.00  0.00    -0.388 OA
HETATM    2  N   UNK A   0       4.601   9.131  88.666  1.00  0.00     0.096 N 
HETATM    3  C   UNK A   0       3.896  10.003  87.715  1.00  0.00     0.299 C 
HETATM    4  C   UNK A   0       3.762   8.894  89.849  1.00  0.00     0.299 C 
HETATM    5  C   UNK A   0       3.507  11.309  88.402  1.00  0.00     0.198 C 
HETATM    6  C   UNK A   0       3.375  10.226  90.485  1.00  0.00     0.198 C 
ENDROOT
BRANCH   2   7
HETATM    7  C   UNK A   0       4.974   7.868  88.032  1.00  0.00     0.311 C 
BRANCH   7   8
HETATM    8  C   UNK A   0       6.180   7.253  88.658  1.00  0.00    -0.030 A 
HETATM    9  C   UNK A   0       7.431   7.848  88.491  1.00  0.00     0.010 A 
HETATM   10  C   UNK A   0       8.560   7.272  89.074  1.00  0.00     0.021 A 
HETATM   11  C   UNK A   0       8.436   6.103  89.825  1.00  0.00     0.018 A 
HETATM   12  C   UNK A   0       7.187   5.509  89.992  1.00  0.00     0.021 A 
HETATM   13  C   UNK A   0       6.058   6.084  89.409  1.00  0.00     0.010 A 
BRANCH  11  14
HETATM   14  C   UNK A   0       9.593   5.514  90.425  1.00  0.00    -0.061 C 
HETATM   15  C   UNK A   0      10.566   5.018  90.929  1.00  0.00    -0.061 C 
BRANCH  15  16
HETATM   16  C   UNK A   0      11.723   4.430  91.528  1.00  0.00     0.018 A 
HETATM   17  C   UNK A   0      12.891   4.274  90.780  1.00  0.00     0.022 A 
HETATM   18  C   UNK A   0      14.021   3.703  91.366  1.00  0.00     0.018 A 
HETATM   19  C   UNK A   0      13.958   3.301  92.684  1.00  0.00     0.032 A 
HETATM   20  C   UNK A   0      12.816   3.444  93.443  1.00  0.00     0.018 A 
HETATM   21  C   UNK A   0      11.685   4.015  92.859  1.00  0.00     0.022 A 
BRANCH  19  22
HETATM   22  C   UNK A   0      15.161   2.690  93.306  1.00  0.00     0.252 C 
HETATM   23  O   UNK A   0      16.059   3.420  93.719  1.00  0.00    -0.268 OA
ENDBRANCH  19  22
ENDBRANCH  15  16
ENDBRANCH  11  14
ENDBRANCH   7   8
ENDBRANCH   2   7
TORSDOF 9
ENDMDL
MODEL 6
REMARK VINA RESULT:      -6.6      3.937     10.417
REMARK  9 active torsions:
REMARK  status: ('A' for Active; 'I' for Inactive)
REMARK    1  A    between atoms: N_3  and  C_6 
REMARK    2  A    between atoms: C_6  and  C_9 
REMARK    3  A    between atoms: C_14  and  C_17 
REMARK       I    between atoms: N_26  and  C_15 
REMARK    4  A    between atoms: C_15  and  C_16 
REMARK    5  A    between atoms: C_20  and  C_23 
REMARK    6  A    between atoms: OG1_24  and  CB_28 
REMARK    7  A    between atoms: N_26  and  CA_27 
REMARK    8  A    between atoms: CA_27  and  CB_28 
REMARK    9  A    between atoms: CA_27  and  C_30 
ROOT
HETATM    1  O   UNK A   0      14.617   3.330  92.042  1.00  0.00    -0.388 OA
HETATM    2  N   UNK A   0      11.909   4.160  92.328  1.00  0.00     0.096 N 
HETATM    3  C   UNK A   0      12.545   3.264  93.304  1.00  0.00     0.299 C 
HETATM    4  C   UNK A   0      12.523   3.979  91.005  1.00  0.00     0.299 C 
HETATM    5  C   UNK A   0      14.049   3.522  93.339  1.00  0.00     0.198 C 
HETATM    6  C   UNK A   0      14.026   4.219  91.094  1.00  0.00     0.198 C 
ENDROOT
BRANCH   2   7
HETATM    7  C   UNK A   0      10.468   3.922  92.269  1.00  0.00     0.311 C 
BRANCH   7   8
HETATM    8  C   UNK A   0       9.700   5.163  91.963  1.00  0.00    -0.030 A 
HETATM    9  C   UNK A   0       9.987   6.346  92.645  1.00  0.00     0.010 A 
HETATM   10  C   UNK A   0       9.268   7.507  92.362  1.00  0.00     0.021 A 
HETATM   11  C   UNK A   0       8.263   7.484  91.394  1.00  0.00     0.018 A 
HETATM   12  C   UNK A   0       7.976   6.304  90.712  1.00  0.00     0.021 A 
HETATM   13  C   UNK A   0       8.695   5.142  90.996  1.00  0.00     0.010 A 
BRANCH  11  14
HETATM   14  C   UNK A   0       7.527   8.676  91.102  1.00  0.00    -0.061 C 
HETATM   15  C   UNK A   0       6.908   9.677  90.856  1.00  0.00    -0.061 C 
BRANCH  15  16
HETATM   16  C   UNK A   0       6.173  10.868  90.564  1.00  0.00     0.018 A 
HETATM   17  C   UNK A   0       6.341  11.506  89.335  1.00  0.00     0.022 A 
HETATM   18  C   UNK A   0       5.621  12.666  89.050  1.00  0.00     0.018 A 
HETATM   19  C   UNK A   0       4.750  13.161  89.998  1.00  0.00     0.032 A 
HETATM   20  C   UNK A   0       4.567  12.549  91.220  1.00  0.00     0.018 A 
HETATM   21  C   UNK A   0       5.286  11.389  91.507  1.00  0.00     0.022 A 
BRANCH  19  22
HETATM   22  C   UNK A   0       3.985  14.399  89.694  1.00  0.00     0.252 C 
HETATM   23  O   UNK A   0       4.551  15.487  89.769  1.00  0.00    -0.268 OA
ENDBRANCH  19  22
ENDBRANCH  15  16
ENDBRANCH  11  14
ENDBRANCH   7   8
ENDBRANCH   2   7
TORSDOF 9
ENDMDL
MODEL 7
REMARK VINA RESULT:      -6.5      1.862      2.801
REMARK  9 active torsions:
REMARK  status: ('A' for Active; 'I' for Inactive)
REMARK    1  A    between atoms: N_3  and  C_6 
REMARK    2  A    between atoms: C_6  and  C_9 
REMARK    3  A    between atoms: C_14  and  C_17 
REMARK       I    between atoms: N_26  and  C_15 
REMARK    4  A    between atoms: C_15  and  C_16 
REMARK    5  A    between atoms: C_20  and  C_23 
REMARK    6  A    between atoms: OG1_24  and  CB_28 
REMARK    7  A    between atoms: N_26  and  CA_27 
REMARK    8  A    between atoms: CA_27  and  CB_28 
REMARK    9  A    between atoms: CA_27  and  C_30 
ROOT
HETATM    1  O   UNK A   0       3.079  10.267  88.177  1.00  0.00    -0.388 OA
HETATM    2  N   UNK A   0       4.051   8.090  89.732  1.00  0.00     0.096 N 
HETATM    3  C   UNK A   0       2.669   8.121  89.235  1.00  0.00     0.299 C 
HETATM    4  C   UNK A   0       4.546   9.459  89.932  1.00  0.00     0.299 C 
HETATM    5  C   UNK A   0       2.600   8.940  87.948  1.00  0.00     0.198 C 
HETATM    6  C   UNK A   0       4.433  10.246  88.631  1.00  0.00     0.198 C 
ENDROOT
BRANCH   2   7
HETATM    7  C   UNK A   0       4.138   7.319  90.971  1.00  0.00     0.311 C 
BRANCH   7   8
HETATM    8  C   UNK A   0       5.503   6.765  91.200  1.00  0.00    -0.030 A 
HETATM    9  C   UNK A   0       6.097   6.874  92.458  1.00  0.00     0.010 A 
HETATM   10  C   UNK A   0       7.375   6.357  92.674  1.00  0.00     0.021 A 
HETATM   11  C   UNK A   0       8.057   5.731  91.631  1.00  0.00     0.018 A 
HETATM   12  C   UNK A   0       7.465   5.621  90.375  1.00  0.00     0.021 A 
HETATM   13  C   UNK A   0       6.188   6.138  90.159  1.00  0.00     0.010 A 
BRANCH  11  14
HETATM   14  C   UNK A   0       9.367   5.199  91.853  1.00  0.00    -0.061 C 
HETATM   15  C   UNK A   0      10.467   4.752  92.039  1.00  0.00    -0.061 C 
BRANCH  15  16
HETATM   16  C   UNK A   0      11.776   4.221  92.259  1.00  0.00     0.018 A 
HETATM   17  C   UNK A   0      12.098   3.651  93.491  1.00  0.00     0.022 A 
HETATM   18  C   UNK A   0      13.374   3.131  93.705  1.00  0.00     0.018 A 
HETATM   19  C   UNK A   0      14.299   3.190  92.683  1.00  0.00     0.032 A 
HETATM   20  C   UNK A   0      14.005   3.748  91.457  1.00  0.00     0.018 A 
HETATM   21  C   UNK A   0      12.729   4.269  91.242  1.00  0.00     0.022 A 
BRANCH  19  22
HETATM   22  C   UNK A   0      15.659   2.637  92.912  1.00  0.00     0.252 C 
HETATM   23  O   UNK A   0      16.234   2.880  93.970  1.00  0.00    -0.268 OA
ENDBRANCH  19  22
ENDBRANCH  15  16
ENDBRANCH  11  14
ENDBRANCH   7   8
ENDBRANCH   2   7
TORSDOF 9
ENDMDL
MODEL 8
REMARK VINA RESULT:      -6.4      3.769     10.255
REMARK  9 active torsions:
REMARK  status: ('A' for Active; 'I' for Inactive)
REMARK    1  A    between atoms: N_3  and  C_6 
REMARK    2  A    between atoms: C_6  and  C_9 
REMARK    3  A    between atoms: C_14  and  C_17 
REMARK       I    between atoms: N_26  and  C_15 
REMARK    4  A    between atoms: C_15  and  C_16 
REMARK    5  A    between atoms: C_20  and  C_23 
REMARK    6  A    between atoms: OG1_24  and  CB_28 
REMARK    7  A    between atoms: N_26  and  CA_27 
REMARK    8  A    between atoms: CA_27  and  CB_28 
REMARK    9  A    between atoms: CA_27  and  C_30 
ROOT
HETATM    1  O   UNK A   0      14.483   3.068  92.188  1.00  0.00    -0.388 OA
HETATM    2  N   UNK A   0      11.912   3.844  91.243  1.00  0.00     0.096 N 
HETATM    3  C   UNK A   0      12.132   2.544  91.893  1.00  0.00     0.299 C 
HETATM    4  C   UNK A   0      13.143   4.286  90.573  1.00  0.00     0.299 C 
HETATM    5  C   UNK A   0      13.301   2.645  92.870  1.00  0.00     0.198 C 
HETATM    6  C   UNK A   0      14.288   4.345  91.579  1.00  0.00     0.198 C 
ENDROOT
BRANCH   2   7
HETATM    7  C   UNK A   0      10.803   3.767  90.295  1.00  0.00     0.311 C 
BRANCH   7   8
HETATM    8  C   UNK A   0      10.019   5.034  90.235  1.00  0.00    -0.030 A 
HETATM    9  C   UNK A   0      10.186   5.906  89.158  1.00  0.00     0.010 A 
HETATM   10  C   UNK A   0       9.455   7.092  89.101  1.00  0.00     0.021 A 
HETATM   11  C   UNK A   0       8.556   7.405  90.120  1.00  0.00     0.018 A 
HETATM   12  C   UNK A   0       8.388   6.535  91.196  1.00  0.00     0.021 A 
HETATM   13  C   UNK A   0       9.119   5.349  91.253  1.00  0.00     0.010 A 
BRANCH  11  14
HETATM   14  C   UNK A   0       7.804   8.621  90.061  1.00  0.00    -0.061 C 
HETATM   15  C   UNK A   0       7.173   9.643  90.012  1.00  0.00    -0.061 C 
BRANCH  15  16
HETATM   16  C   UNK A   0       6.423  10.859  89.953  1.00  0.00     0.018 A 
HETATM   17  C   UNK A   0       5.455  11.128  90.921  1.00  0.00     0.022 A 
HETATM   18  C   UNK A   0       4.725  12.315  90.864  1.00  0.00     0.018 A 
HETATM   19  C   UNK A   0       4.979  13.206  89.843  1.00  0.00     0.032 A 
HETATM   20  C   UNK A   0       5.931  12.963  88.874  1.00  0.00     0.018 A 
HETATM   21  C   UNK A   0       6.661  11.776  88.929  1.00  0.00     0.022 A 
BRANCH  19  22
HETATM   22  C   UNK A   0       4.200  14.470  89.782  1.00  0.00     0.252 C 
HETATM   23  O   UNK A   0       4.782  15.521  89.526  1.00  0.00    -0.268 OA
ENDBRANCH  19  22
ENDBRANCH  15  16
ENDBRANCH  11  14
ENDBRANCH   7   8
ENDBRANCH   2   7
TORSDOF 9
ENDMDL
MODEL 9
REMARK VINA RESULT:      -6.4      4.832     10.230
REMARK  9 active torsions:
REMARK  status: ('A' for Active; 'I' for Inactive)
REMARK    1  A    between atoms: N_3  and  C_6 
REMARK    2  A    between atoms: C_6  and  C_9 
REMARK    3  A    between atoms: C_14  and  C_17 
REMARK       I    between atoms: N_26  and  C_15 
REMARK    4  A    between atoms: C_15  and  C_16 
REMARK    5  A    between atoms: C_20  and  C_23 
REMARK    6  A    between atoms: OG1_24  and  CB_28 
REMARK    7  A    between atoms: N_26  and  CA_27 
REMARK    8  A    between atoms: CA_27  and  CB_28 
REMARK    9  A    between atoms: CA_27  and  C_30 
ROOT
HETATM    1  O   UNK A   0      11.192   3.868  88.858  1.00  0.00    -0.388 OA
HETATM    2  N   UNK A   0       9.459   5.822  87.726  1.00  0.00     0.096 N 
HETATM    3  C   UNK A   0      10.178   4.854  86.886  1.00  0.00     0.299 C 
HETATM    4  C   UNK A   0      10.224   6.090  88.952  1.00  0.00     0.299 C 
HETATM    5  C   UNK A   0      10.440   3.576  87.679  1.00  0.00     0.198 C 
HETATM    6  C   UNK A   0      10.486   4.784  89.695  1.00  0.00     0.198 C 
ENDROOT
BRANCH   2   7
HETATM    7  C   UNK A   0       9.207   7.059  86.990  1.00  0.00     0.311 C 
BRANCH   7   8
HETATM    8  C   UNK A   0       8.413   8.040  87.784  1.00  0.00    -0.030 A 
HETATM    9  C   UNK A   0       8.992   9.246  88.182  1.00  0.00     0.010 A 
HETATM   10  C   UNK A   0       8.251  10.163  88.926  1.00  0.00     0.021 A 
HETATM   11  C   UNK A   0       6.930   9.876  89.270  1.00  0.00     0.018 A 
HETATM   12  C   UNK A   0       6.351   8.673  88.872  1.00  0.00     0.021 A 
HETATM   13  C   UNK A   0       7.092   7.755  88.129  1.00  0.00     0.010 A 
BRANCH  11  14
HETATM   14  C   UNK A   0       6.170  10.819  90.031  1.00  0.00    -0.061 C 
HETATM   15  C   UNK A   0       5.530  11.611  90.671  1.00  0.00    -0.061 C 
BRANCH  15  16
HETATM   16  C   UNK A   0       4.769  12.552  91.432  1.00  0.00     0.018 A 
HETATM   17  C   UNK A   0       4.374  13.759  90.853  1.00  0.00     0.022 A 
HETATM   18  C   UNK A   0       3.630  14.675  91.595  1.00  0.00     0.018 A 
HETATM   19  C   UNK A   0       3.296  14.365  92.897  1.00  0.00     0.032 A 
HETATM   20  C   UNK A   0       3.674  13.180  93.492  1.00  0.00     0.018 A 
HETATM   21  C   UNK A   0       4.419  12.262  92.751  1.00  0.00     0.022 A 
BRANCH  19  22
HETATM   22  C   UNK A   0       2.504  15.343  93.688  1.00  0.00     0.252 C 
HETATM   23  O   UNK A   0       1.336  15.561  93.375  1.00  0.00    -0.268 OA
ENDBRANCH  19  22
ENDBRANCH  15  16
ENDBRANCH  11  14
ENDBRANCH   7   8
ENDBRANCH   2   7
TORSDOF 9
ENDMDL
