MODEL 1
REMARK VINA RESULT:      -6.7      0.000      0.000
REMARK  9 active torsions:
REMARK  status: ('A' for Active; 'I' for Inactive)
REMARK    1  A    between atoms: O_2  and  C_17 
REMARK    2  A    between atoms: N_5  and  C_10 
REMARK    3  A    between atoms: N_6  and  C_14 
REMARK       I    between atoms: N_6  and  C_23 
REMARK       I    between atoms: N_7  and  C_22 
REMARK    4  A    between atoms: C_10  and  C_13 
REMARK    5  A    between atoms: C_14  and  C_17 
REMARK    6  A    between atoms: C_14  and  C_22 
REMARK    7  A    between atoms: C_20  and  C_25 
REMARK    8  A    between atoms: C_23  and  C_24 
REMARK    9  A    between atoms: C_28  and  C_31 
ROOT
HETATM    1  O   UNL     1      16.427   3.414  93.824  1.00  0.00    -0.388 OA
HETATM    2  N   UNL     1      13.816   2.729  92.920  1.00  0.00     0.096 N 
HETATM    3  C   UNL     1      14.878   1.720  93.038  1.00  0.00     0.299 C 
HETATM    4  C   UNL     1      14.404   4.048  92.645  1.00  0.00     0.299 C 
HETATM    5  C   UNL     1      15.867   2.135  94.124  1.00  0.00     0.198 C 
HETATM    6  C   UNL     1      15.404   4.408  93.738  1.00  0.00     0.198 C 
ENDROOT
BRANCH   2   7
HETATM    7  C   UNL     1      12.862   2.358  91.877  1.00  0.00     0.311 C 
BRANCH   7   8
HETATM    8  C   UNL     1      11.884   3.445  91.589  1.00  0.00    -0.030 A 
HETATM    9  C   UNL     1      11.798   3.982  90.303  1.00  0.00     0.010 A 
HETATM   10  C   UNL     1      10.885   5.001  90.033  1.00  0.00     0.021 A 
HETATM   11  C   UNL     1      10.056   5.480  91.047  1.00  0.00     0.018 A 
HETATM   12  C   UNL     1      10.141   4.945  92.330  1.00  0.00     0.021 A 
HETATM   13  C   UNL     1      11.054   3.926  92.602  1.00  0.00     0.010 A 
BRANCH  11  14
HETATM   14  C   UNL     1       9.118   6.524  90.769  1.00  0.00    -0.061 C 
HETATM   15  C   UNL     1       8.330   7.401  90.534  1.00  0.00    -0.061 C 
BRANCH  15  16
HETATM   16  C   UNL     1       7.392   8.444  90.255  1.00  0.00     0.018 A 
HETATM   17  C   UNL     1       7.424   9.626  90.996  1.00  0.00     0.022 A 
HETATM   18  C   UNL     1       6.511  10.644  90.722  1.00  0.00     0.018 A 
HETATM   19  C   UNL     1       5.589  10.459  89.714  1.00  0.00     0.032 A 
HETATM   20  C   UNL     1       5.537   9.300  88.968  1.00  0.00     0.018 A 
HETATM   21  C   UNL     1       6.449   8.281  89.241  1.00  0.00     0.022 A 
BRANCH  19  22
HETATM   22  C   UNL     1       4.615  11.543  89.423  1.00  0.00     0.252 C 
HETATM   23  O   UNL     1       3.806  11.394  88.511  1.00  0.00    -0.268 OA
HETATM   24  N   UNL     1       4.685  12.659  90.245  1.00  0.00    -0.342 N 
HETATM   25  H   UNL     1       5.365  12.702  90.996  1.00  0.00     0.163 HD
BRANCH  24  26
HETATM   26  C   UNL     1       3.794  13.783  90.105  1.00  0.00     0.199 C 
BRANCH  26  27
HETATM   27  C   UNL     1       2.469  13.586  90.854  1.00  0.00     0.145 C 
HETATM   28  C   UNL     1       2.651  12.856  92.180  1.00  0.00     0.042 C 
BRANCH  27  29
HETATM   29  O   UNL     1       1.869  14.857  91.103  1.00  0.00    -0.393 OA
HETATM   30  H   UNL     1       1.195  14.745  91.794  1.00  0.00     0.210 HD
ENDBRANCH  27  29
ENDBRANCH  26  27
BRANCH  26  31
HETATM   31  C   UNL     1       4.529  15.025  90.597  1.00  0.00     0.220 C 
HETATM   32  O   UNL     1       4.423  15.457  91.743  1.00  0.00    -0.278 OA
HETATM   33  N   UNL     1       5.279  15.610  89.605  1.00  0.00    -0.271 NA
HETATM   34  H   UNL     1       5.318  15.334  88.631  1.00  0.00     0.127 HD
HETATM   35  H   UNL     1       5.037  16.815  88.926  1.00  0.00     0.127 HD
ENDBRANCH  26  31
ENDBRANCH  24  26
ENDBRANCH  19  22
ENDBRANCH  15  16
ENDBRANCH  11  14
ENDBRANCH   7   8
ENDBRANCH   2   7
TORSDOF 9
ENDMDL
