MODEL 1
REMARK VINA RESULT:      -6.6      0.000      0.000
REMARK  14 active torsions:
REMARK  status: ('A' for Active; 'I' for Inactive)
REMARK    1  A    between atoms: O_2  and  C_18 
REMARK    2  A    between atoms: C_5  and  C_8 
REMARK    3  A    between atoms: C_5  and  O_35 
REMARK    4  A    between atoms: C_5  and  C_36 
REMARK    5  A    between atoms: N_6  and  C_11 
REMARK    6  A    between atoms: N_7  and  C_15 
REMARK       I    between atoms: N_7  and  C_24 
REMARK    7  A    between atoms: C_8  and  C_23 
REMARK    8  A    between atoms: C_11  and  C_14 
REMARK    9  A    between atoms: C_15  and  C_18 
REMARK   10  A    between atoms: C_15  and  C_23 
REMARK   11  A    between atoms: C_21  and  C_26 
REMARK   12  A    between atoms: C_24  and  C_25 
REMARK   13  A    between atoms: C_29  and  C_32 
REMARK   14  A    between atoms: C_36  and  O_39 
ROOT
HETATM    1  O   UNL     1      16.571   3.241  93.643  1.00  0.00    -0.350 OA
HETATM    2  N   UNL     1      13.885   2.829  92.798  1.00  0.00     0.147 N 
HETATM    3  C   UNL     1      14.779   1.701  93.092  1.00  0.00     0.283 C 
HETATM    4  C   UNL     1      14.667   3.985  92.338  1.00  0.00     0.283 C 
HETATM    5  C   UNL     1      15.823   2.123  94.123  1.00  0.00     0.178 C 
HETATM    6  C   UNL     1      15.713   4.353  93.385  1.00  0.00     0.178 C 
ENDROOT
BRANCH   2   7
HETATM    7  C   UNL     1      12.882   2.450  91.804  1.00  0.00     0.277 C 
BRANCH   7   8
HETATM    8  C   UNL     1      11.745   3.413  91.749  1.00  0.00     0.011 A 
HETATM    9  C   UNL     1      11.066   3.621  90.547  1.00  0.00    -0.002 A 
HETATM   10  C   UNL     1      10.004   4.523  90.494  1.00  0.00     0.008 A 
HETATM   11  C   UNL     1       9.619   5.214  91.642  1.00  0.00     0.042 A 
HETATM   12  C   UNL     1      10.296   5.007  92.842  1.00  0.00     0.008 A 
HETATM   13  C   UNL     1      11.359   4.106  92.896  1.00  0.00    -0.002 A 
BRANCH  11  14
HETATM   14  C   UNL     1       8.528   6.138  91.588  1.00  0.00    -0.059 C 
HETATM   15  C   UNL     1       7.610   6.913  91.542  1.00  0.00    -0.059 C 
BRANCH  15  16
HETATM   16  C   UNL     1       6.519   7.836  91.489  1.00  0.00     0.042 A 
HETATM   17  C   UNL     1       5.303   7.444  90.927  1.00  0.00     0.008 A 
HETATM   18  C   UNL     1       4.238   8.344  90.878  1.00  0.00     0.005 A 
HETATM   19  C   UNL     1       4.412   9.612  91.390  1.00  0.00     0.056 A 
HETATM   20  C   UNL     1       5.604  10.023  91.950  1.00  0.00     0.005 A 
HETATM   21  C   UNL     1       6.670   9.124  92.000  1.00  0.00     0.008 A 
BRANCH  19  22
HETATM   22  C   UNL     1       3.278  10.570  91.336  1.00  0.00     0.254 C 
HETATM   23  O   UNL     1       2.151  10.152  91.082  1.00  0.00    -0.268 OA
HETATM   24  N   UNL     1       3.588  11.896  91.606  1.00  0.00    -0.335 N 
HETATM   25  HN  UNL     1       4.538  12.164  91.832  1.00  0.00     0.164 HD
BRANCH  24  26
HETATM   26  C   UNL     1       2.594  12.939  91.616  1.00  0.00     0.169 C 
BRANCH  26  27
HETATM   27  C   UNL     1       2.584  13.738  92.925  1.00  0.00     0.138 C 
HETATM   28  C   UNL     1       3.970  13.851  93.550  1.00  0.00     0.034 C 
BRANCH  27  29
HETATM   29  O   UNL     1       2.078  15.050  92.679  1.00  0.00    -0.383 OA
HETATM   30  H   UNL     1       2.224  15.262  91.742  1.00  0.00     0.210 HD
ENDBRANCH  27  29
ENDBRANCH  26  27
BRANCH  26  31
HETATM   31  C   UNL     1       2.856  13.843  90.416  1.00  0.00     0.194 C 
HETATM   32  O   UNL     1       1.961  14.437  89.816  1.00  0.00    -0.289 OA
BRANCH  31  33
HETATM   33  C   UNL     1       4.186  13.878  90.073  1.00  0.00     0.053 C 
BRANCH  33  34
HETATM   34  C   UNL     1       4.473  13.664  88.717  1.00  0.00     0.220 C 
BRANCH  34  35
HETATM   35  O   UNL     1       5.644  14.036  88.513  1.00  0.00    -0.371 OA
HETATM   36  H   UNL     1       6.044  13.633  89.268  1.00  0.00     0.211 HD
ENDBRANCH  34  35
BRANCH  34  37
HETATM   37  C   UNL     1       4.252  12.340  88.300  1.00  0.00     0.185 C 
HETATM   38  O   UNL     1       5.454  12.146  88.820  1.00  0.00    -0.647 OA
BRANCH  37  39
HETATM   39  O   UNL     1       3.401  11.738  87.719  1.00  0.00    -0.774 OA
HETATM   40  H   UNL     1       3.383  11.999  86.615  1.00  0.00     0.167 HD
ENDBRANCH  37  39
ENDBRANCH  34  37
ENDBRANCH  33  34
ENDBRANCH  31  33
ENDBRANCH  26  31
ENDBRANCH  24  26
ENDBRANCH  19  22
ENDBRANCH  15  16
ENDBRANCH  11  14
ENDBRANCH   7   8
ENDBRANCH   2   7
TORSDOF 14
ENDMDL
