MODEL 1
REMARK VINA RESULT:      -6.9      0.000      0.000
REMARK  9 active torsions:
REMARK  status: ('A' for Active; 'I' for Inactive)
REMARK    1  A    between atoms: O_2  and  C_17 
REMARK    2  A    between atoms: N_5  and  C_10 
REMARK    3  A    between atoms: N_6  and  C_14 
REMARK       I    between atoms: N_6  and  C_23 
REMARK       I    between atoms: N_7  and  C_22 
REMARK    4  A    between atoms: C_10  and  C_13 
REMARK    5  A    between atoms: C_14  and  C_17 
REMARK    6  A    between atoms: C_14  and  C_22 
REMARK    7  A    between atoms: C_20  and  C_25 
REMARK    8  A    between atoms: C_23  and  C_24 
REMARK    9  A    between atoms: C_28  and  C_31 
ROOT
HETATM    1  O   UNL     1      16.198   3.941  94.114  1.00  0.00    -0.388 OA
HETATM    2  N   UNL     1      14.238   2.649  92.504  1.00  0.00     0.096 N 
HETATM    3  C   UNL     1      14.388   4.110  92.506  1.00  0.00     0.299 C 
HETATM    4  C   UNL     1      14.651   2.099  93.803  1.00  0.00     0.299 C 
HETATM    5  C   UNL     1      15.830   4.482  92.844  1.00  0.00     0.198 C 
HETATM    6  C   UNL     1      16.085   2.518  94.111  1.00  0.00     0.198 C 
ENDROOT
BRANCH   2   7
HETATM    7  C   UNL     1      12.861   2.270  92.193  1.00  0.00     0.311 C 
BRANCH   7   8
HETATM    8  C   UNL     1      11.922   3.425  92.275  1.00  0.00    -0.030 A 
HETATM    9  C   UNL     1      11.358   3.948  91.111  1.00  0.00     0.010 A 
HETATM   10  C   UNL     1      10.481   5.030  91.186  1.00  0.00     0.021 A 
HETATM   11  C   UNL     1      10.167   5.586  92.425  1.00  0.00     0.018 A 
HETATM   12  C   UNL     1      10.729   5.065  93.589  1.00  0.00     0.021 A 
HETATM   13  C   UNL     1      11.607   3.983  93.514  1.00  0.00     0.010 A 
BRANCH  11  14
HETATM   14  C   UNL     1       9.266   6.695  92.503  1.00  0.00    -0.061 C 
HETATM   15  C   UNL     1       8.508   7.627  92.567  1.00  0.00    -0.061 C 
BRANCH  15  16
HETATM   16  C   UNL     1       7.607   8.734  92.643  1.00  0.00     0.018 A 
HETATM   17  C   UNL     1       7.719   9.652  93.688  1.00  0.00     0.022 A 
HETATM   18  C   UNL     1       6.841  10.734  93.760  1.00  0.00     0.018 A 
HETATM   19  C   UNL     1       5.874  10.874  92.788  1.00  0.00     0.032 A 
HETATM   20  C   UNL     1       5.742   9.980  91.746  1.00  0.00     0.018 A 
HETATM   21  C   UNL     1       6.619   8.898  91.672  1.00  0.00     0.022 A 
BRANCH  19  22
HETATM   22  C   UNL     1       4.938  12.025  92.867  1.00  0.00     0.252 C 
HETATM   23  O   UNL     1       4.682  12.516  93.964  1.00  0.00    -0.268 OA
HETATM   24  N   UNL     1       4.432  12.482  91.658  1.00  0.00    -0.342 N 
HETATM   25  H   UNL     1       4.708  12.042  90.788  1.00  0.00     0.163 HD
BRANCH  24  26
HETATM   26  C   UNL     1       3.533  13.604  91.568  1.00  0.00     0.199 C 
BRANCH  26  27
HETATM   27  C   UNL     1       3.655  14.357  90.237  1.00  0.00     0.145 C 
HETATM   28  C   UNL     1       5.056  14.267  89.641  1.00  0.00     0.042 C 
BRANCH  27  29
HETATM   29  O   UNL     1       2.719  13.825  89.300  1.00  0.00    -0.393 OA
HETATM   30  H   UNL     1       2.797  12.856  89.307  1.00  0.00     0.210 HD
ENDBRANCH  27  29
ENDBRANCH  26  27
BRANCH  26  31
HETATM   31  C   UNL     1       2.116  13.084  91.783  1.00  0.00     0.220 C 
HETATM   32  O   UNL     1       1.810  11.900  91.655  1.00  0.00    -0.278 OA
HETATM   33  N   UNL     1       1.235  14.092  92.092  1.00  0.00    -0.271 NA
HETATM   34  H   UNL     1       1.433  15.085  92.118  1.00  0.00     0.127 HD
HETATM   35  H   UNL     1       0.218  14.637  91.292  1.00  0.00     0.127 HD
ENDBRANCH  26  31
ENDBRANCH  24  26
ENDBRANCH  19  22
ENDBRANCH  15  16
ENDBRANCH  11  14
ENDBRANCH   7   8
ENDBRANCH   2   7
TORSDOF 9
ENDMDL
