MODEL 1
REMARK VINA RESULT:      -6.0      0.000      0.000
REMARK  12 active torsions:
REMARK  status: ('A' for Active; 'I' for Inactive)
REMARK    1  A    between atoms: O_2  and  C_16 
REMARK    2  A    between atoms: N_5  and  C_9 
REMARK    3  A    between atoms: N_6  and  C_13 
REMARK       I    between atoms: N_6  and  C_22 
REMARK    4  A    between atoms: C_9  and  C_12 
REMARK    5  A    between atoms: C_13  and  C_16 
REMARK    6  A    between atoms: C_13  and  C_21 
REMARK    7  A    between atoms: C_19  and  C_24 
REMARK    8  A    between atoms: C_21  and  C_33 
REMARK    9  A    between atoms: C_22  and  C_23 
REMARK   10  A    between atoms: C_27  and  C_30 
REMARK   11  A    between atoms: C_33  and  C_34 
REMARK   12  A    between atoms: C_34  and  C_35 
ROOT
HETATM    1  O   UNL     1      16.808   3.648  93.863  1.00  0.00    -0.350 OA
HETATM    2  N   UNL     1      14.255   3.146  92.708  1.00  0.00     0.147 N 
HETATM    3  C   UNL     1      15.217   2.061  92.945  1.00  0.00     0.283 C 
HETATM    4  C   UNL     1      14.968   4.410  92.477  1.00  0.00     0.283 C 
HETATM    5  C   UNL     1      16.123   2.421  94.120  1.00  0.00     0.178 C 
HETATM    6  C   UNL     1      15.879   4.715  93.662  1.00  0.00     0.178 C 
ENDROOT
BRANCH   2   7
HETATM    7  C   UNL     1      13.384   2.828  91.578  1.00  0.00     0.277 C 
BRANCH   7   8
HETATM    8  C   UNL     1      12.191   3.720  91.511  1.00  0.00     0.011 A 
HETATM    9  C   UNL     1      11.881   4.380  90.322  1.00  0.00    -0.002 A 
HETATM   10  C   UNL     1      10.767   5.217  90.259  1.00  0.00     0.008 A 
HETATM   11  C   UNL     1       9.962   5.390  91.385  1.00  0.00     0.042 A 
HETATM   12  C   UNL     1      10.270   4.731  92.573  1.00  0.00     0.008 A 
HETATM   13  C   UNL     1      11.385   3.895  92.636  1.00  0.00    -0.002 A 
BRANCH  11  14
HETATM   14  C   UNL     1       8.818   6.247  91.319  1.00  0.00    -0.059 C 
HETATM   15  C   UNL     1       7.856   6.966  91.265  1.00  0.00    -0.059 C 
BRANCH  15  16
HETATM   16  C   UNL     1       6.712   7.822  91.200  1.00  0.00     0.042 A 
HETATM   17  C   UNL     1       6.868   9.202  91.329  1.00  0.00     0.008 A 
HETATM   18  C   UNL     1       5.752  10.037  91.263  1.00  0.00     0.005 A 
HETATM   19  C   UNL     1       4.508   9.474  91.070  1.00  0.00     0.056 A 
HETATM   20  C   UNL     1       4.329   8.113  90.940  1.00  0.00     0.005 A 
HETATM   21  C   UNL     1       5.443   7.277  91.006  1.00  0.00     0.008 A 
BRANCH  19  22
HETATM   22  C   UNL     1       3.320  10.364  91.002  1.00  0.00     0.254 C 
HETATM   23  O   UNL     1       2.332   9.997  90.371  1.00  0.00    -0.268 OA
HETATM   24  N   UNL     1       3.417  11.562  91.697  1.00  0.00    -0.335 N 
HETATM   25  HN  UNL     1       4.257  11.786  92.217  1.00  0.00     0.164 HD
BRANCH  24  26
HETATM   26  C   UNL     1       2.341  12.518  91.747  1.00  0.00     0.166 C 
BRANCH  26  27
HETATM   27  C   UNL     1       1.765  12.691  93.158  1.00  0.00     0.138 C 
HETATM   28  C   UNL     1       1.525  11.358  93.858  1.00  0.00     0.034 C 
BRANCH  27  29
HETATM   29  O   UNL     1       2.662  13.474  93.946  1.00  0.00    -0.383 OA
HETATM   30  H   UNL     1       2.784  14.332  93.508  1.00  0.00     0.210 HD
ENDBRANCH  27  29
ENDBRANCH  26  27
BRANCH  26  31
HETATM   31  C   UNL     1       2.867  13.840  91.196  1.00  0.00     0.181 C 
HETATM   32  O   UNL     1       2.543  14.933  91.657  1.00  0.00    -0.294 OA
BRANCH  31  33
HETATM   33  C   UNL     1       4.485  13.851  91.101  1.00  0.00     0.138 C 
BRANCH  33  34
HETATM   34  C   UNL     1       4.676  14.174  89.739  1.00  0.00     0.208 C 
HETATM   35  O   UNL     1       5.316  15.176  89.515  1.00  0.00    -0.289 OA
BRANCH  34  36
HETATM   36  C   UNL     1       4.516  13.411  88.616  1.00  0.00     0.194 C 
HETATM   37  O   UNL     1       4.939  12.106  88.340  1.00  0.00    -0.185 OA
ENDBRANCH  34  36
ENDBRANCH  33  34
ENDBRANCH  31  33
ENDBRANCH  26  31
ENDBRANCH  24  26
ENDBRANCH  19  22
ENDBRANCH  15  16
ENDBRANCH  11  14
ENDBRANCH   7   8
ENDBRANCH   2   7
TORSDOF 12
ENDMDL
