MODEL 1
REMARK VINA RESULT:      -6.2      0.000      0.000
REMARK  12 active torsions:
REMARK  status: ('A' for Active; 'I' for Inactive)
REMARK    1  A    between atoms: O_2  and  C_16 
REMARK    2  A    between atoms: N_5  and  C_9 
REMARK    3  A    between atoms: N_6  and  C_13 
REMARK       I    between atoms: N_6  and  C_22 
REMARK    4  A    between atoms: C_9  and  C_12 
REMARK    5  A    between atoms: C_13  and  C_16 
REMARK    6  A    between atoms: C_13  and  C_21 
REMARK    7  A    between atoms: C_19  and  C_24 
REMARK    8  A    between atoms: C_21  and  C_33 
REMARK    9  A    between atoms: C_22  and  C_23 
REMARK   10  A    between atoms: C_27  and  C_30 
REMARK   11  A    between atoms: C_33  and  C_34 
REMARK   12  A    between atoms: C_34  and  C_35 
ROOT
HETATM    1  O   UNL     1      16.712   3.510  93.951  1.00  0.00    -0.350 OA
HETATM    2  N   UNL     1      14.202   3.153  92.658  1.00  0.00     0.147 N 
HETATM    3  C   UNL     1      15.113   2.023  92.893  1.00  0.00     0.283 C 
HETATM    4  C   UNL     1      14.971   4.397  92.515  1.00  0.00     0.283 C 
HETATM    5  C   UNL     1      15.972   2.300  94.124  1.00  0.00     0.178 C 
HETATM    6  C   UNL     1      15.834   4.618  93.753  1.00  0.00     0.178 C 
ENDROOT
BRANCH   2   7
HETATM    7  C   UNL     1      13.376   2.914  91.476  1.00  0.00     0.277 C 
BRANCH   7   8
HETATM    8  C   UNL     1      12.172   3.793  91.437  1.00  0.00     0.011 A 
HETATM    9  C   UNL     1      11.559   4.187  92.627  1.00  0.00    -0.002 A 
HETATM   10  C   UNL     1      10.432   5.008  92.592  1.00  0.00     0.008 A 
HETATM   11  C   UNL     1       9.921   5.436  91.368  1.00  0.00     0.042 A 
HETATM   12  C   UNL     1      10.533   5.044  90.179  1.00  0.00     0.008 A 
HETATM   13  C   UNL     1      11.659   4.222  90.213  1.00  0.00    -0.002 A 
BRANCH  11  14
HETATM   14  C   UNL     1       8.766   6.280  91.332  1.00  0.00    -0.059 C 
HETATM   15  C   UNL     1       7.795   6.989  91.302  1.00  0.00    -0.059 C 
BRANCH  15  16
HETATM   16  C   UNL     1       6.641   7.832  91.267  1.00  0.00     0.042 A 
HETATM   17  C   UNL     1       5.756   7.757  90.192  1.00  0.00     0.008 A 
HETATM   18  C   UNL     1       4.628   8.578  90.160  1.00  0.00     0.005 A 
HETATM   19  C   UNL     1       4.412   9.454  91.202  1.00  0.00     0.056 A 
HETATM   20  C   UNL     1       5.272   9.547  92.276  1.00  0.00     0.005 A 
HETATM   21  C   UNL     1       6.399   8.727  92.310  1.00  0.00     0.008 A 
BRANCH  19  22
HETATM   22  C   UNL     1       3.212  10.330  91.166  1.00  0.00     0.254 C 
HETATM   23  O   UNL     1       2.119   9.839  90.894  1.00  0.00    -0.268 OA
HETATM   24  N   UNL     1       3.425  11.666  91.476  1.00  0.00    -0.335 N 
HETATM   25  HN  UNL     1       4.352  11.995  91.716  1.00  0.00     0.164 HD
BRANCH  24  26
HETATM   26  C   UNL     1       2.358  12.634  91.508  1.00  0.00     0.166 C 
BRANCH  26  27
HETATM   27  C   UNL     1       2.138  13.230  92.904  1.00  0.00     0.138 C 
HETATM   28  C   UNL     1       3.429  13.319  93.711  1.00  0.00     0.034 C 
BRANCH  27  29
HETATM   29  O   UNL     1       1.576  14.536  92.783  1.00  0.00    -0.383 OA
HETATM   30  H   UNL     1       1.972  14.967  92.007  1.00  0.00     0.210 HD
ENDBRANCH  27  29
ENDBRANCH  26  27
BRANCH  26  31
HETATM   31  C   UNL     1       2.684  13.720  90.487  1.00  0.00     0.181 C 
HETATM   32  O   UNL     1       1.956  14.690  90.286  1.00  0.00    -0.294 OA
BRANCH  31  33
HETATM   33  C   UNL     1       4.179  14.312  90.694  1.00  0.00     0.138 C 
BRANCH  33  34
HETATM   34  C   UNL     1       4.661  14.308  89.367  1.00  0.00     0.208 C 
HETATM   35  O   UNL     1       5.004  15.379  88.922  1.00  0.00    -0.289 OA
BRANCH  34  36
HETATM   36  C   UNL     1       5.081  13.272  88.578  1.00  0.00     0.194 C 
HETATM   37  O   UNL     1       5.823  12.131  88.904  1.00  0.00    -0.185 OA
ENDBRANCH  34  36
ENDBRANCH  33  34
ENDBRANCH  31  33
ENDBRANCH  26  31
ENDBRANCH  24  26
ENDBRANCH  19  22
ENDBRANCH  15  16
ENDBRANCH  11  14
ENDBRANCH   7   8
ENDBRANCH   2   7
TORSDOF 12
ENDMDL
