MODEL 1
REMARK VINA RESULT:      -6.9      0.000      0.000
REMARK  10 active torsions:
REMARK  status: ('A' for Active; 'I' for Inactive)
REMARK    1  A    between atoms: O_2  and  C_18 
REMARK    2  A    between atoms: O_5  and  N_8 
REMARK    3  A    between atoms: N_6  and  C_11 
REMARK    4  A    between atoms: N_7  and  C_15 
REMARK       I    between atoms: N_7  and  C_24 
REMARK       I    between atoms: N_8  and  C_23 
REMARK    5  A    between atoms: C_11  and  C_14 
REMARK    6  A    between atoms: C_15  and  C_18 
REMARK    7  A    between atoms: C_15  and  C_23 
REMARK    8  A    between atoms: C_21  and  C_26 
REMARK    9  A    between atoms: C_24  and  C_25 
REMARK   10  A    between atoms: C_29  and  C_32 
ROOT
HETATM    1  O   UNK     0      16.433   4.269  94.124  0.00  0.00    -0.388 OA
HETATM    2  N   UNK     0      14.711   2.556  92.640  0.00  0.00     0.096 N 
HETATM    3  C   UNK     0      14.533   4.015  92.636  0.00  0.00     0.299 C 
HETATM    4  C   UNK     0      15.316   2.126  93.908  0.00  0.00     0.299 C 
HETATM    5  C   UNK     0      15.875   4.700  92.881  0.00  0.00     0.198 C 
HETATM    6  C   UNK     0      16.639   2.856  94.124  0.00  0.00     0.198 C 
ENDROOT
BRANCH   2   7
HETATM    7  C   UNK     0      13.436   1.878  92.417  0.00  0.00     0.311 C 
BRANCH   7   8
HETATM    8  C   UNK     0      12.324   2.834  92.146  0.00  0.00    -0.030 A 
HETATM    9  C   UNK     0      11.845   2.994  90.845  0.00  0.00     0.010 A 
HETATM   10  C   UNK     0      10.806   3.889  90.590  0.00  0.00     0.021 A 
HETATM   11  C   UNK     0      10.247   4.622  91.636  0.00  0.00     0.018 A 
HETATM   12  C   UNK     0      10.724   4.463  92.935  0.00  0.00     0.021 A 
HETATM   13  C   UNK     0      11.763   3.568  93.191  0.00  0.00     0.010 A 
BRANCH  11  14
HETATM   14  C   UNK     0       9.180   5.539  91.374  0.00  0.00    -0.061 C 
HETATM   15  C   UNK     0       8.283   6.310  91.155  0.00  0.00    -0.061 C 
BRANCH  15  16
HETATM   16  C   UNK     0       7.217   7.225  90.893  0.00  0.00     0.018 A 
HETATM   17  C   UNK     0       6.024   6.763  90.336  0.00  0.00     0.022 A 
HETATM   18  C   UNK     0       4.982   7.655  90.083  0.00  0.00     0.018 A 
HETATM   19  C   UNK     0       5.156   8.988  90.392  0.00  0.00     0.032 A 
HETATM   20  C   UNK     0       6.325   9.469  90.943  0.00  0.00     0.018 A 
HETATM   21  C   UNK     0       7.367   8.578  91.196  0.00  0.00     0.022 A 
BRANCH  19  22
HETATM   22  C   UNK     0       4.046   9.938  90.120  0.00  0.00     0.252 C 
HETATM   23  O   UNK     0       2.944   9.498  89.802  0.00  0.00    -0.268 OA
HETATM   24  N   UNK     0       4.347  11.284  90.275  0.00  0.00    -0.341 N 
HETATM   25  H   UNK     0       5.274  11.572  90.565  0.00  0.00     0.163 HD
BRANCH  24  26
HETATM   26  C   UNK     0       3.372  12.325  90.072  0.00  0.00     0.207 C 
BRANCH  26  27
HETATM   27  C   UNK     0       3.017  13.068  91.366  0.00  0.00     0.146 C 
HETATM   28  C   UNK     0       2.206  12.208  92.329  0.00  0.00     0.042 C 
BRANCH  27  29
HETATM   29  O   UNK     0       4.215  13.489  92.018  0.00  0.00    -0.393 OA
HETATM   30  H   UNK     0       4.522  12.765  92.589  0.00  0.00     0.210 HD
ENDBRANCH  27  29
ENDBRANCH  26  27
BRANCH  26  31
HETATM   31  C   UNK     0       3.922  13.280  89.018  0.00  0.00     0.266 C 
HETATM   32  O   UNK     0       3.937  14.501  89.162  0.00  0.00    -0.269 OA
HETATM   33  N   UNK     0       4.355  12.619  87.894  0.00  0.00    -0.236 N 
HETATM   34  H   UNK     0       4.276  11.626  87.706  0.00  0.00     0.197 HD
BRANCH  33  35
HETATM   35  O   UNK     0       4.842  13.429  86.859  0.00  0.00    -0.287 OA
HETATM   36  H   UNK     0       5.231  12.754  86.277  0.00  0.00     0.244 HD
ENDBRANCH  33  35
ENDBRANCH  26  31
ENDBRANCH  24  26
ENDBRANCH  19  22
ENDBRANCH  15  16
ENDBRANCH  11  14
ENDBRANCH   7   8
ENDBRANCH   2   7
TORSDOF 10
ENDMDL
MODEL 2
REMARK VINA RESULT:      -6.2      1.397      1.962
REMARK  10 active torsions:
REMARK  status: ('A' for Active; 'I' for Inactive)
REMARK    1  A    between atoms: O_2  and  C_18 
REMARK    2  A    between atoms: O_5  and  N_8 
REMARK    3  A    between atoms: N_6  and  C_11 
REMARK    4  A    between atoms: N_7  and  C_15 
REMARK       I    between atoms: N_7  and  C_24 
REMARK       I    between atoms: N_8  and  C_23 
REMARK    5  A    between atoms: C_11  and  C_14 
REMARK    6  A    between atoms: C_15  and  C_18 
REMARK    7  A    between atoms: C_15  and  C_23 
REMARK    8  A    between atoms: C_21  and  C_26 
REMARK    9  A    between atoms: C_24  and  C_25 
REMARK   10  A    between atoms: C_29  and  C_32 
ROOT
HETATM    1  O   UNK     0      16.893   3.686  94.124  0.00  0.00    -0.388 OA
HETATM    2  N   UNK     0      14.573   3.204  92.547  0.00  0.00     0.096 N 
HETATM    3  C   UNK     0      14.526   4.061  93.739  0.00  0.00     0.299 C 
HETATM    4  C   UNK     0      15.624   2.189  92.698  0.00  0.00     0.299 C 
HETATM    5  C   UNK     0      15.895   4.697  93.973  0.00  0.00     0.198 C 
HETATM    6  C   UNK     0      16.966   2.867  92.956  0.00  0.00     0.198 C 
ENDROOT
BRANCH   2   7
HETATM    7  C   UNK     0      13.275   2.576  92.310  0.00  0.00     0.311 C 
BRANCH   7   8
HETATM    8  C   UNK     0      12.178   3.575  92.166  0.00  0.00    -0.030 A 
HETATM    9  C   UNK     0      11.577   4.118  93.302  0.00  0.00     0.010 A 
HETATM   10  C   UNK     0      10.549   5.052  93.169  0.00  0.00     0.021 A 
HETATM   11  C   UNK     0      10.125   5.444  91.899  0.00  0.00     0.018 A 
HETATM   12  C   UNK     0      10.725   4.902  90.764  0.00  0.00     0.021 A 
HETATM   13  C   UNK     0      11.752   3.968  90.897  0.00  0.00     0.010 A 
BRANCH  11  14
HETATM   14  C   UNK     0       9.072   6.403  91.763  0.00  0.00    -0.061 C 
HETATM   15  C   UNK     0       8.188   7.210  91.648  0.00  0.00    -0.061 C 
BRANCH  15  16
HETATM   16  C   UNK     0       7.137   8.168  91.513  0.00  0.00     0.018 A 
HETATM   17  C   UNK     0       7.294   9.453  92.034  0.00  0.00     0.022 A 
HETATM   18  C   UNK     0       6.269  10.389  91.900  0.00  0.00     0.018 A 
HETATM   19  C   UNK     0       5.110  10.021  91.249  0.00  0.00     0.032 A 
HETATM   20  C   UNK     0       4.929   8.757  90.727  0.00  0.00     0.018 A 
HETATM   21  C   UNK     0       5.954   7.820  90.861  0.00  0.00     0.022 A 
BRANCH  19  22
HETATM   22  C   UNK     0       4.017  11.018  91.109  0.00  0.00     0.252 C 
HETATM   23  O   UNK     0       3.012  10.720  90.469  0.00  0.00    -0.268 OA
HETATM   24  N   UNK     0       4.216  12.232  91.752  0.00  0.00    -0.341 N 
HETATM   25  H   UNK     0       5.062  12.398  92.284  0.00  0.00     0.163 HD
BRANCH  24  26
HETATM   26  C   UNK     0       3.239  13.290  91.730  0.00  0.00     0.207 C 
BRANCH  26  27
HETATM   27  C   UNK     0       3.283  14.166  92.988  0.00  0.00     0.146 C 
HETATM   28  C   UNK     0       4.453  13.817  93.901  0.00  0.00     0.042 C 
BRANCH  27  29
HETATM   29  O   UNK     0       3.384  15.539  92.611  0.00  0.00    -0.393 OA
HETATM   30  H   UNK     0       2.557  15.985  92.862  0.00  0.00     0.210 HD
ENDBRANCH  27  29
ENDBRANCH  26  27
BRANCH  26  31
HETATM   31  C   UNK     0       3.476  14.117  90.470  0.00  0.00     0.266 C 
HETATM   32  O   UNK     0       2.608  14.308  89.621  0.00  0.00    -0.269 OA
HETATM   33  N   UNK     0       4.768  14.578  90.388  0.00  0.00    -0.236 N 
HETATM   34  H   UNK     0       5.529  14.366  91.021  0.00  0.00     0.197 HD
BRANCH  33  35
HETATM   35  O   UNK     0       5.079  15.317  89.237  0.00  0.00    -0.287 OA
HETATM   36  H   UNK     0       4.764  14.708  88.548  0.00  0.00     0.244 HD
ENDBRANCH  33  35
ENDBRANCH  26  31
ENDBRANCH  24  26
ENDBRANCH  19  22
ENDBRANCH  15  16
ENDBRANCH  11  14
ENDBRANCH   7   8
ENDBRANCH   2   7
TORSDOF 10
ENDMDL
MODEL 3
REMARK VINA RESULT:      -5.3      1.908     12.419
REMARK  10 active torsions:
REMARK  status: ('A' for Active; 'I' for Inactive)
REMARK    1  A    between atoms: O_2  and  C_18 
REMARK    2  A    between atoms: O_5  and  N_8 
REMARK    3  A    between atoms: N_6  and  C_11 
REMARK    4  A    between atoms: N_7  and  C_15 
REMARK       I    between atoms: N_7  and  C_24 
REMARK       I    between atoms: N_8  and  C_23 
REMARK    5  A    between atoms: C_11  and  C_14 
REMARK    6  A    between atoms: C_15  and  C_18 
REMARK    7  A    between atoms: C_15  and  C_23 
REMARK    8  A    between atoms: C_21  and  C_26 
REMARK    9  A    between atoms: C_24  and  C_25 
REMARK   10  A    between atoms: C_29  and  C_32 
ROOT
HETATM    1  O   UNK     0       5.629  14.770  88.816  0.00  0.00    -0.388 OA
HETATM    2  N   UNK     0       3.617  13.290  90.182  0.00  0.00     0.096 N 
HETATM    3  C   UNK     0       4.364  14.366  90.848  0.00  0.00     0.299 C 
HETATM    4  C   UNK     0       4.444  12.676  89.135  0.00  0.00     0.299 C 
HETATM    5  C   UNK     0       4.820  15.394  89.815  0.00  0.00     0.198 C 
HETATM    6  C   UNK     0       4.900  13.743  88.143  0.00  0.00     0.198 C 
ENDROOT
BRANCH   2   7
HETATM    7  C   UNK     0       3.178  12.288  91.152  0.00  0.00     0.311 C 
BRANCH   7   8
HETATM    8  C   UNK     0       4.210  11.238  91.390  0.00  0.00    -0.030 A 
HETATM    9  C   UNK     0       4.118  10.010  90.734  0.00  0.00     0.010 A 
HETATM   10  C   UNK     0       5.081   9.026  90.958  0.00  0.00     0.021 A 
HETATM   11  C   UNK     0       6.137   9.273  91.835  0.00  0.00     0.018 A 
HETATM   12  C   UNK     0       6.230  10.499  92.489  0.00  0.00     0.021 A 
HETATM   13  C   UNK     0       5.267  11.482  92.267  0.00  0.00     0.010 A 
BRANCH  11  14
HETATM   14  C   UNK     0       7.126   8.264  92.062  0.00  0.00    -0.061 C 
HETATM   15  C   UNK     0       7.957   7.417  92.253  0.00  0.00    -0.061 C 
BRANCH  15  16
HETATM   16  C   UNK     0       8.944   6.409  92.480  0.00  0.00     0.018 A 
HETATM   17  C   UNK     0       9.611   6.350  93.704  0.00  0.00     0.022 A 
HETATM   18  C   UNK     0      10.573   5.365  93.927  0.00  0.00     0.018 A 
HETATM   19  C   UNK     0      10.847   4.461  92.922  0.00  0.00     0.032 A 
HETATM   20  C   UNK     0      10.203   4.498  91.703  0.00  0.00     0.018 A 
HETATM   21  C   UNK     0       9.241   5.484  91.479  0.00  0.00     0.022 A 
BRANCH  19  22
HETATM   22  C   UNK     0      11.873   3.413  93.159  0.00  0.00     0.252 C 
HETATM   23  O   UNK     0      11.608   2.243  92.894  0.00  0.00    -0.268 OA
HETATM   24  N   UNK     0      13.093   3.857  93.652  0.00  0.00    -0.341 N 
HETATM   25  H   UNK     0      13.248   4.843  93.824  0.00  0.00     0.163 HD
BRANCH  24  26
HETATM   26  C   UNK     0      14.195   2.966  93.910  0.00  0.00     0.207 C 
BRANCH  26  27
HETATM   27  C   UNK     0      14.292   1.829  92.885  0.00  0.00     0.146 C 
HETATM   28  C   UNK     0      15.013   2.252  91.610  0.00  0.00     0.042 C 
BRANCH  27  29
HETATM   29  O   UNK     0      14.985   0.723  93.464  0.00  0.00    -0.393 OA
HETATM   30  H   UNK     0      14.433  -0.071  93.359  0.00  0.00     0.210 HD
ENDBRANCH  27  29
ENDBRANCH  26  27
BRANCH  26  31
HETATM   31  C   UNK     0      15.472   3.800  93.936  0.00  0.00     0.266 C 
HETATM   32  O   UNK     0      15.478   5.020  93.782  0.00  0.00    -0.269 OA
HETATM   33  N   UNK     0      16.594   3.026  94.110  0.00  0.00    -0.236 N 
HETATM   34  H   UNK     0      16.633   2.014  94.150  0.00  0.00     0.197 HD
BRANCH  33  35
HETATM   35  O   UNK     0      17.816   3.714  94.107  0.00  0.00    -0.287 OA
HETATM   36  H   UNK     0      17.602   4.452  94.702  0.00  0.00     0.244 HD
ENDBRANCH  33  35
ENDBRANCH  26  31
ENDBRANCH  24  26
ENDBRANCH  19  22
ENDBRANCH  15  16
ENDBRANCH  11  14
ENDBRANCH   7   8
ENDBRANCH   2   7
TORSDOF 10
ENDMDL
MODEL 4
REMARK VINA RESULT:      -5.2      2.014     12.462
REMARK  10 active torsions:
REMARK  status: ('A' for Active; 'I' for Inactive)
REMARK    1  A    between atoms: O_2  and  C_18 
REMARK    2  A    between atoms: O_5  and  N_8 
REMARK    3  A    between atoms: N_6  and  C_11 
REMARK    4  A    between atoms: N_7  and  C_15 
REMARK       I    between atoms: N_7  and  C_24 
REMARK       I    between atoms: N_8  and  C_23 
REMARK    5  A    between atoms: C_11  and  C_14 
REMARK    6  A    between atoms: C_15  and  C_18 
REMARK    7  A    between atoms: C_15  and  C_23 
REMARK    8  A    between atoms: C_21  and  C_26 
REMARK    9  A    between atoms: C_24  and  C_25 
REMARK   10  A    between atoms: C_29  and  C_32 
ROOT
HETATM    1  O   UNK     0       3.811  14.647  91.978  0.00  0.00    -0.388 OA
HETATM    2  N   UNK     0       3.813  13.462  89.390  0.00  0.00     0.096 N 
HETATM    3  C   UNK     0       3.024  12.896  90.494  0.00  0.00     0.299 C 
HETATM    4  C   UNK     0       4.996  14.151  89.920  0.00  0.00     0.299 C 
HETATM    5  C   UNK     0       2.640  14.002  91.474  0.00  0.00     0.198 C 
HETATM    6  C   UNK     0       4.568  15.227  90.914  0.00  0.00     0.198 C 
ENDROOT
BRANCH   2   7
HETATM    7  C   UNK     0       4.200  12.418  88.443  0.00  0.00     0.311 C 
BRANCH   7   8
HETATM    8  C   UNK     0       5.116  11.411  89.051  0.00  0.00    -0.030 A 
HETATM    9  C   UNK     0       4.632  10.150  89.402  0.00  0.00     0.010 A 
HETATM   10  C   UNK     0       5.487   9.208  89.973  0.00  0.00     0.021 A 
HETATM   11  C   UNK     0       6.828   9.527  90.190  0.00  0.00     0.018 A 
HETATM   12  C   UNK     0       7.313  10.785  89.840  0.00  0.00     0.021 A 
HETATM   13  C   UNK     0       6.457  11.728  89.270  0.00  0.00     0.010 A 
BRANCH  11  14
HETATM   14  C   UNK     0       7.706   8.560  90.774  0.00  0.00    -0.061 C 
HETATM   15  C   UNK     0       8.444   7.747  91.264  0.00  0.00    -0.061 C 
BRANCH  15  16
HETATM   16  C   UNK     0       9.320   6.781  91.847  0.00  0.00     0.018 A 
HETATM   17  C   UNK     0       9.961   5.843  91.037  0.00  0.00     0.022 A 
HETATM   18  C   UNK     0      10.818   4.901  91.606  0.00  0.00     0.018 A 
HETATM   19  C   UNK     0      11.015   4.917  92.971  0.00  0.00     0.032 A 
HETATM   20  C   UNK     0      10.393   5.832  93.794  0.00  0.00     0.018 A 
HETATM   21  C   UNK     0       9.535   6.774  93.225  0.00  0.00     0.022 A 
BRANCH  19  22
HETATM   22  C   UNK     0      11.926   3.912  93.577  0.00  0.00     0.252 C 
HETATM   23  O   UNK     0      11.449   2.908  94.101  0.00  0.00    -0.268 OA
HETATM   24  N   UNK     0      13.284   4.184  93.478  0.00  0.00    -0.341 N 
HETATM   25  H   UNK     0      13.606   5.022  93.008  0.00  0.00     0.163 HD
BRANCH  24  26
HETATM   26  C   UNK     0      14.293   3.295  93.994  0.00  0.00     0.207 C 
BRANCH  26  27
HETATM   27  C   UNK     0      14.226   1.895  93.370  0.00  0.00     0.146 C 
HETATM   28  C   UNK     0      14.688   1.881  91.917  0.00  0.00     0.042 C 
BRANCH  27  29
HETATM   29  O   UNK     0      15.041   0.997  94.123  0.00  0.00    -0.393 OA
HETATM   30  H   UNK     0      15.121   1.345  95.028  0.00  0.00     0.210 HD
ENDBRANCH  27  29
ENDBRANCH  26  27
BRANCH  26  31
HETATM   31  C   UNK     0      15.652   3.944  93.756  0.00  0.00     0.266 C 
HETATM   32  O   UNK     0      15.781   5.088  93.325  0.00  0.00    -0.269 OA
HETATM   33  N   UNK     0      16.691   3.092  94.041  0.00  0.00    -0.236 N 
HETATM   34  H   UNK     0      16.621   2.117  94.311  0.00  0.00     0.197 HD
BRANCH  33  35
HETATM   35  O   UNK     0      17.978   3.600  93.812  0.00  0.00    -0.287 OA
HETATM   36  H   UNK     0      17.765   4.527  93.609  0.00  0.00     0.244 HD
ENDBRANCH  33  35
ENDBRANCH  26  31
ENDBRANCH  24  26
ENDBRANCH  19  22
ENDBRANCH  15  16
ENDBRANCH  11  14
ENDBRANCH   7   8
ENDBRANCH   2   7
TORSDOF 10
ENDMDL
MODEL 5
REMARK VINA RESULT:      -5.1      2.704     12.373
REMARK  10 active torsions:
REMARK  status: ('A' for Active; 'I' for Inactive)
REMARK    1  A    between atoms: O_2  and  C_18 
REMARK    2  A    between atoms: O_5  and  N_8 
REMARK    3  A    between atoms: N_6  and  C_11 
REMARK    4  A    between atoms: N_7  and  C_15 
REMARK       I    between atoms: N_7  and  C_24 
REMARK       I    between atoms: N_8  and  C_23 
REMARK    5  A    between atoms: C_11  and  C_14 
REMARK    6  A    between atoms: C_15  and  C_18 
REMARK    7  A    between atoms: C_15  and  C_23 
REMARK    8  A    between atoms: C_21  and  C_26 
REMARK    9  A    between atoms: C_24  and  C_25 
REMARK   10  A    between atoms: C_29  and  C_32 
ROOT
HETATM    1  O   UNK     0       2.743  14.961  94.000  0.00  0.00    -0.388 OA
HETATM    2  N   UNK     0       2.615  14.556  91.185  0.00  0.00     0.096 N 
HETATM    3  C   UNK     0       1.604  13.990  92.089  0.00  0.00     0.299 C 
HETATM    4  C   UNK     0       3.900  14.686  91.885  0.00  0.00     0.299 C 
HETATM    5  C   UNK     0       1.481  14.860  93.337  0.00  0.00     0.198 C 
HETATM    6  C   UNK     0       3.723  15.539  93.138  0.00  0.00     0.198 C 
ENDROOT
BRANCH   2   7
HETATM    7  C   UNK     0       2.757  13.732  89.987  0.00  0.00     0.311 C 
BRANCH   7   8
HETATM    8  C   UNK     0       3.770  12.651  90.158  0.00  0.00    -0.030 A 
HETATM    9  C   UNK     0       4.947  12.675  89.409  0.00  0.00     0.010 A 
HETATM   10  C   UNK     0       5.894  11.663  89.566  0.00  0.00     0.021 A 
HETATM   11  C   UNK     0       5.664  10.630  90.474  0.00  0.00     0.018 A 
HETATM   12  C   UNK     0       4.489  10.605  91.223  0.00  0.00     0.021 A 
HETATM   13  C   UNK     0       3.542  11.616  91.065  0.00  0.00     0.010 A 
BRANCH  11  14
HETATM   14  C   UNK     0       6.637   9.593  90.637  0.00  0.00    -0.061 C 
HETATM   15  C   UNK     0       7.454   8.721  90.774  0.00  0.00    -0.061 C 
BRANCH  15  16
HETATM   16  C   UNK     0       8.424   7.686  90.938  0.00  0.00     0.018 A 
HETATM   17  C   UNK     0       9.033   7.118  89.818  0.00  0.00     0.022 A 
HETATM   18  C   UNK     0       9.982   6.108  89.978  0.00  0.00     0.018 A 
HETATM   19  C   UNK     0      10.301   5.689  91.252  0.00  0.00     0.032 A 
HETATM   20  C   UNK     0       9.714   6.233  92.375  0.00  0.00     0.018 A 
HETATM   21  C   UNK     0       8.764   7.242  92.216  0.00  0.00     0.022 A 
BRANCH  19  22
HETATM   22  C   UNK     0      11.311   4.612  91.422  0.00  0.00     0.252 C 
HETATM   23  O   UNK     0      11.572   3.880  90.470  0.00  0.00    -0.268 OA
HETATM   24  N   UNK     0      11.912   4.533  92.670  0.00  0.00    -0.341 N 
HETATM   25  H   UNK     0      11.664   5.189  93.401  0.00  0.00     0.163 HD
BRANCH  24  26
HETATM   26  C   UNK     0      12.927   3.559  92.982  0.00  0.00     0.207 C 
BRANCH  26  27
HETATM   27  C   UNK     0      12.784   2.270  92.163  0.00  0.00     0.146 C 
HETATM   28  C   UNK     0      13.874   1.252  92.480  0.00  0.00     0.042 C 
BRANCH  27  29
HETATM   29  O   UNK     0      11.510   1.680  92.419  0.00  0.00    -0.393 OA
HETATM   30  H   UNK     0      10.942   1.832  91.645  0.00  0.00     0.210 HD
ENDBRANCH  27  29
ENDBRANCH  26  27
BRANCH  26  31
HETATM   31  C   UNK     0      14.286   4.212  92.755  0.00  0.00     0.266 C 
HETATM   32  O   UNK     0      14.650   4.638  91.661  0.00  0.00    -0.269 OA
HETATM   33  N   UNK     0      15.051   4.230  93.897  0.00  0.00    -0.236 N 
HETATM   34  H   UNK     0      14.818   3.810  94.789  0.00  0.00     0.197 HD
BRANCH  33  35
HETATM   35  O   UNK     0      16.333   4.781  93.764  0.00  0.00    -0.287 OA
HETATM   36  H   UNK     0      16.716   4.175  93.107  0.00  0.00     0.244 HD
ENDBRANCH  33  35
ENDBRANCH  26  31
ENDBRANCH  24  26
ENDBRANCH  19  22
ENDBRANCH  15  16
ENDBRANCH  11  14
ENDBRANCH   7   8
ENDBRANCH   2   7
TORSDOF 10
ENDMDL
MODEL 6
REMARK VINA RESULT:      -4.5      1.615      2.846
REMARK  10 active torsions:
REMARK  status: ('A' for Active; 'I' for Inactive)
REMARK    1  A    between atoms: O_2  and  C_18 
REMARK    2  A    between atoms: O_5  and  N_8 
REMARK    3  A    between atoms: N_6  and  C_11 
REMARK    4  A    between atoms: N_7  and  C_15 
REMARK       I    between atoms: N_7  and  C_24 
REMARK       I    between atoms: N_8  and  C_23 
REMARK    5  A    between atoms: C_11  and  C_14 
REMARK    6  A    between atoms: C_15  and  C_18 
REMARK    7  A    between atoms: C_15  and  C_23 
REMARK    8  A    between atoms: C_21  and  C_26 
REMARK    9  A    between atoms: C_24  and  C_25 
REMARK   10  A    between atoms: C_29  and  C_32 
ROOT
HETATM    1  O   UNK     0      16.854   2.406  92.707  0.00  0.00    -0.388 OA
HETATM    2  N   UNK     0      14.060   2.881  92.978  0.00  0.00     0.096 N 
HETATM    3  C   UNK     0      14.876   2.429  94.113  0.00  0.00     0.299 C 
HETATM    4  C   UNK     0      14.638   2.395  91.718  0.00  0.00     0.299 C 
HETATM    5  C   UNK     0      16.317   2.901  93.935  0.00  0.00     0.198 C 
HETATM    6  C   UNK     0      16.084   2.867  91.595  0.00  0.00     0.198 C 
ENDROOT
BRANCH   2   7
HETATM    7  C   UNK     0      12.677   2.431  93.122  0.00  0.00     0.311 C 
BRANCH   7   8
HETATM    8  C   UNK     0      11.694   3.518  92.845  0.00  0.00    -0.030 A 
HETATM    9  C   UNK     0      11.381   4.444  93.840  0.00  0.00     0.010 A 
HETATM   10  C   UNK     0      10.460   5.459  93.583  0.00  0.00     0.021 A 
HETATM   11  C   UNK     0       9.855   5.549  92.329  0.00  0.00     0.018 A 
HETATM   12  C   UNK     0      10.168   4.625  91.335  0.00  0.00     0.021 A 
HETATM   13  C   UNK     0      11.088   3.609  91.592  0.00  0.00     0.010 A 
BRANCH  11  14
HETATM   14  C   UNK     0       8.912   6.592  92.065  0.00  0.00    -0.061 C 
HETATM   15  C   UNK     0       8.120   7.469  91.842  0.00  0.00    -0.061 C 
BRANCH  15  16
HETATM   16  C   UNK     0       7.178   8.510  91.579  0.00  0.00     0.018 A 
HETATM   17  C   UNK     0       7.526   9.841  91.813  0.00  0.00     0.022 A 
HETATM   18  C   UNK     0       6.607  10.858  91.554  0.00  0.00     0.018 A 
HETATM   19  C   UNK     0       5.362  10.522  91.066  0.00  0.00     0.032 A 
HETATM   20  C   UNK     0       4.992   9.215  90.827  0.00  0.00     0.018 A 
HETATM   21  C   UNK     0       5.911   8.198  91.086  0.00  0.00     0.022 A 
BRANCH  19  22
HETATM   22  C   UNK     0       4.382  11.606  90.793  0.00  0.00     0.252 C 
HETATM   23  O   UNK     0       3.422  11.376  90.061  0.00  0.00    -0.268 OA
HETATM   24  N   UNK     0       4.625  12.818  91.423  0.00  0.00    -0.341 N 
HETATM   25  H   UNK     0       5.426  12.927  92.034  0.00  0.00     0.163 HD
BRANCH  24  26
HETATM   26  C   UNK     0       3.754  13.957  91.276  0.00  0.00     0.207 C 
BRANCH  26  27
HETATM   27  C   UNK     0       3.628  14.424  89.820  0.00  0.00     0.146 C 
HETATM   28  C   UNK     0       4.946  14.331  89.061  0.00  0.00     0.042 C 
BRANCH  27  29
HETATM   29  O   UNK     0       2.648  13.632  89.149  0.00  0.00    -0.393 OA
HETATM   30  H   UNK     0       2.106  13.184  89.819  0.00  0.00     0.210 HD
ENDBRANCH  27  29
ENDBRANCH  26  27
BRANCH  26  31
HETATM   31  C   UNK     0       2.395  13.581  91.858  0.00  0.00     0.266 C 
HETATM   32  O   UNK     0       1.397  14.289  91.739  0.00  0.00    -0.269 OA
HETATM   33  N   UNK     0       2.437  12.396  92.552  0.00  0.00    -0.236 N 
HETATM   34  H   UNK     0       3.258  11.835  92.745  0.00  0.00     0.197 HD
BRANCH  33  35
HETATM   35  O   UNK     0       1.234  11.998  93.152  0.00  0.00    -0.287 OA
HETATM   36  H   UNK     0       1.445  12.157  94.088  0.00  0.00     0.244 HD
ENDBRANCH  33  35
ENDBRANCH  26  31
ENDBRANCH  24  26
ENDBRANCH  19  22
ENDBRANCH  15  16
ENDBRANCH  11  14
ENDBRANCH   7   8
ENDBRANCH   2   7
TORSDOF 10
ENDMDL
MODEL 7
REMARK VINA RESULT:      -4.5      2.099      2.749
REMARK  10 active torsions:
REMARK  status: ('A' for Active; 'I' for Inactive)
REMARK    1  A    between atoms: O_2  and  C_18 
REMARK    2  A    between atoms: O_5  and  N_8 
REMARK    3  A    between atoms: N_6  and  C_11 
REMARK    4  A    between atoms: N_7  and  C_15 
REMARK       I    between atoms: N_7  and  C_24 
REMARK       I    between atoms: N_8  and  C_23 
REMARK    5  A    between atoms: C_11  and  C_14 
REMARK    6  A    between atoms: C_15  and  C_18 
REMARK    7  A    between atoms: C_15  and  C_23 
REMARK    8  A    between atoms: C_21  and  C_26 
REMARK    9  A    between atoms: C_24  and  C_25 
REMARK   10  A    between atoms: C_29  and  C_32 
ROOT
HETATM    1  O   UNK     0      16.592   2.817  92.970  0.00  0.00    -0.388 OA
HETATM    2  N   UNK     0      13.777   2.927  93.383  0.00  0.00     0.096 N 
HETATM    3  C   UNK     0      14.572   1.770  93.817  0.00  0.00     0.299 C 
HETATM    4  C   UNK     0      14.408   3.563  92.219  0.00  0.00     0.299 C 
HETATM    5  C   UNK     0      16.002   2.210  94.122  0.00  0.00     0.198 C 
HETATM    6  C   UNK     0      15.842   3.961  92.560  0.00  0.00     0.198 C 
ENDROOT
BRANCH   2   7
HETATM    7  C   UNK     0      12.406   2.526  93.075  0.00  0.00     0.311 C 
BRANCH   7   8
HETATM    8  C   UNK     0      11.467   3.684  93.054  0.00  0.00    -0.030 A 
HETATM    9  C   UNK     0      10.584   3.846  91.985  0.00  0.00     0.010 A 
HETATM   10  C   UNK     0       9.707   4.930  91.963  0.00  0.00     0.021 A 
HETATM   11  C   UNK     0       9.711   5.850  93.011  0.00  0.00     0.018 A 
HETATM   12  C   UNK     0      10.591   5.689  94.079  0.00  0.00     0.021 A 
HETATM   13  C   UNK     0      11.469   4.606  94.101  0.00  0.00     0.010 A 
BRANCH  11  14
HETATM   14  C   UNK     0       8.810   6.961  92.989  0.00  0.00    -0.061 C 
HETATM   15  C   UNK     0       8.052   7.894  92.972  0.00  0.00    -0.061 C 
BRANCH  15  16
HETATM   16  C   UNK     0       7.151   9.002  92.950  0.00  0.00     0.018 A 
HETATM   17  C   UNK     0       6.462   9.318  91.778  0.00  0.00     0.022 A 
HETATM   18  C   UNK     0       5.580  10.399  91.758  0.00  0.00     0.018 A 
HETATM   19  C   UNK     0       5.406  11.139  92.908  0.00  0.00     0.032 A 
HETATM   20  C   UNK     0       6.075  10.849  94.078  0.00  0.00     0.018 A 
HETATM   21  C   UNK     0       6.957   9.769  94.100  0.00  0.00     0.022 A 
BRANCH  19  22
HETATM   22  C   UNK     0       4.468  12.291  92.885  0.00  0.00     0.252 C 
HETATM   23  O   UNK     0       4.729  13.290  93.551  0.00  0.00    -0.268 OA
HETATM   24  N   UNK     0       3.353  12.152  92.070  0.00  0.00    -0.341 N 
HETATM   25  H   UNK     0       3.217  11.306  91.528  0.00  0.00     0.163 HD
BRANCH  24  26
HETATM   26  C   UNK     0       2.366  13.190  91.922  0.00  0.00     0.207 C 
BRANCH  26  27
HETATM   27  C   UNK     0       1.449  13.316  93.146  0.00  0.00     0.146 C 
HETATM   28  C   UNK     0       1.436  12.052  93.998  0.00  0.00     0.042 C 
BRANCH  27  29
HETATM   29  O   UNK     0       1.878  14.414  93.952  0.00  0.00    -0.393 OA
HETATM   30  H   UNK     0       2.106  14.074  94.833  0.00  0.00     0.210 HD
ENDBRANCH  27  29
ENDBRANCH  26  27
BRANCH  26  31
HETATM   31  C   UNK     0       3.101  14.497  91.644  0.00  0.00     0.266 C 
HETATM   32  O   UNK     0       2.902  15.528  92.284  0.00  0.00    -0.269 OA
HETATM   33  N   UNK     0       3.968  14.388  90.583  0.00  0.00    -0.236 N 
HETATM   34  H   UNK     0       4.091  13.584  89.980  0.00  0.00     0.197 HD
BRANCH  33  35
HETATM   35  O   UNK     0       4.658  15.559  90.237  0.00  0.00    -0.287 OA
HETATM   36  H   UNK     0       5.112  15.748  91.075  0.00  0.00     0.244 HD
ENDBRANCH  33  35
ENDBRANCH  26  31
ENDBRANCH  24  26
ENDBRANCH  19  22
ENDBRANCH  15  16
ENDBRANCH  11  14
ENDBRANCH   7   8
ENDBRANCH   2   7
TORSDOF 10
ENDMDL
MODEL 8
REMARK VINA RESULT:      -4.3      1.554      2.458
REMARK  10 active torsions:
REMARK  status: ('A' for Active; 'I' for Inactive)
REMARK    1  A    between atoms: O_2  and  C_18 
REMARK    2  A    between atoms: O_5  and  N_8 
REMARK    3  A    between atoms: N_6  and  C_11 
REMARK    4  A    between atoms: N_7  and  C_15 
REMARK       I    between atoms: N_7  and  C_24 
REMARK       I    between atoms: N_8  and  C_23 
REMARK    5  A    between atoms: C_11  and  C_14 
REMARK    6  A    between atoms: C_15  and  C_18 
REMARK    7  A    between atoms: C_15  and  C_23 
REMARK    8  A    between atoms: C_21  and  C_26 
REMARK    9  A    between atoms: C_24  and  C_25 
REMARK   10  A    between atoms: C_29  and  C_32 
ROOT
HETATM    1  O   UNK     0      16.886   3.852  92.941  0.00  0.00    -0.388 OA
HETATM    2  N   UNK     0      14.695   2.038  93.035  0.00  0.00     0.096 N 
HETATM    3  C   UNK     0      15.535   2.165  91.836  0.00  0.00     0.299 C 
HETATM    4  C   UNK     0      14.672   3.309  93.771  0.00  0.00     0.299 C 
HETATM    5  C   UNK     0      16.940   2.611  92.235  0.00  0.00     0.198 C 
HETATM    6  C   UNK     0      16.096   3.728  94.124  0.00  0.00     0.198 C 
ENDROOT
BRANCH   2   7
HETATM    7  C   UNK     0      13.340   1.622  92.675  0.00  0.00     0.311 C 
BRANCH   7   8
HETATM    8  C   UNK     0      12.414   2.779  92.516  0.00  0.00    -0.030 A 
HETATM    9  C   UNK     0      12.451   3.832  93.431  0.00  0.00     0.010 A 
HETATM   10  C   UNK     0      11.583   4.914  93.285  0.00  0.00     0.021 A 
HETATM   11  C   UNK     0      10.680   4.943  92.222  0.00  0.00     0.018 A 
HETATM   12  C   UNK     0      10.643   3.893  91.308  0.00  0.00     0.021 A 
HETATM   13  C   UNK     0      11.510   2.810  91.454  0.00  0.00     0.010 A 
BRANCH  11  14
HETATM   14  C   UNK     0       9.792   6.054  92.070  0.00  0.00    -0.061 C 
HETATM   15  C   UNK     0       9.045   6.988  91.943  0.00  0.00    -0.061 C 
BRANCH  15  16
HETATM   16  C   UNK     0       8.158   8.097  91.790  0.00  0.00     0.018 A 
HETATM   17  C   UNK     0       8.592   9.385  92.109  0.00  0.00     0.022 A 
HETATM   18  C   UNK     0       7.727  10.469  91.958  0.00  0.00     0.018 A 
HETATM   19  C   UNK     0       6.449  10.242  91.492  0.00  0.00     0.032 A 
HETATM   20  C   UNK     0       5.995   8.980  91.171  0.00  0.00     0.018 A 
HETATM   21  C   UNK     0       6.860   7.896  91.322  0.00  0.00     0.022 A 
BRANCH  19  22
HETATM   22  C   UNK     0       5.527  11.397  91.333  0.00  0.00     0.252 C 
HETATM   23  O   UNK     0       5.013  11.895  92.331  0.00  0.00    -0.268 OA
HETATM   24  N   UNK     0       5.336  11.848  90.035  0.00  0.00    -0.341 N 
HETATM   25  H   UNK     0       5.815  11.402  89.261  0.00  0.00     0.163 HD
BRANCH  24  26
HETATM   26  C   UNK     0       4.491  12.973  89.721  0.00  0.00     0.207 C 
BRANCH  26  27
HETATM   27  C   UNK     0       5.158  13.967  88.762  0.00  0.00     0.146 C 
HETATM   28  C   UNK     0       5.366  15.339  89.394  0.00  0.00     0.042 C 
BRANCH  27  29
HETATM   29  O   UNK     0       6.423  13.453  88.346  0.00  0.00    -0.393 OA
HETATM   30  H   UNK     0       7.119  13.924  88.834  0.00  0.00     0.210 HD
ENDBRANCH  27  29
ENDBRANCH  26  27
BRANCH  26  31
HETATM   31  C   UNK     0       3.190  12.430  89.140  0.00  0.00     0.266 C 
HETATM   32  O   UNK     0       2.105  12.543  89.707  0.00  0.00    -0.269 OA
HETATM   33  N   UNK     0       3.386  11.778  87.946  0.00  0.00    -0.236 N 
HETATM   34  H   UNK     0       4.274  11.590  87.497  0.00  0.00     0.197 HD
BRANCH  33  35
HETATM   35  O   UNK     0       2.242  11.215  87.363  0.00  0.00    -0.287 OA
HETATM   36  H   UNK     0       2.584  11.002  86.479  0.00  0.00     0.244 HD
ENDBRANCH  33  35
ENDBRANCH  26  31
ENDBRANCH  24  26
ENDBRANCH  19  22
ENDBRANCH  15  16
ENDBRANCH  11  14
ENDBRANCH   7   8
ENDBRANCH   2   7
TORSDOF 10
ENDMDL
MODEL 9
REMARK VINA RESULT:      -4.1      1.938     12.337
REMARK  10 active torsions:
REMARK  status: ('A' for Active; 'I' for Inactive)
REMARK    1  A    between atoms: O_2  and  C_18 
REMARK    2  A    between atoms: O_5  and  N_8 
REMARK    3  A    between atoms: N_6  and  C_11 
REMARK    4  A    between atoms: N_7  and  C_15 
REMARK       I    between atoms: N_7  and  C_24 
REMARK       I    between atoms: N_8  and  C_23 
REMARK    5  A    between atoms: C_11  and  C_14 
REMARK    6  A    between atoms: C_15  and  C_18 
REMARK    7  A    between atoms: C_15  and  C_23 
REMARK    8  A    between atoms: C_21  and  C_26 
REMARK    9  A    between atoms: C_24  and  C_25 
REMARK   10  A    between atoms: C_29  and  C_32 
ROOT
HETATM    1  O   UNK     0       4.221  14.925  91.541  0.00  0.00    -0.388 OA
HETATM    2  N   UNK     0       3.148  13.042  89.695  0.00  0.00     0.096 N 
HETATM    3  C   UNK     0       2.797  13.004  91.122  0.00  0.00     0.299 C 
HETATM    4  C   UNK     0       4.493  13.606  89.523  0.00  0.00     0.299 C 
HETATM    5  C   UNK     0       2.901  14.406  91.717  0.00  0.00     0.198 C 
HETATM    6  C   UNK     0       4.558  14.993  90.155  0.00  0.00     0.198 C 
ENDROOT
BRANCH   2   7
HETATM    7  C   UNK     0       3.066  11.706  89.107  0.00  0.00     0.311 C 
BRANCH   7   8
HETATM    8  C   UNK     0       4.161  10.810  89.575  0.00  0.00    -0.030 A 
HETATM    9  C   UNK     0       4.874  10.041  88.655  0.00  0.00     0.010 A 
HETATM   10  C   UNK     0       5.898   9.201  89.092  0.00  0.00     0.021 A 
HETATM   11  C   UNK     0       6.210   9.132  90.450  0.00  0.00     0.018 A 
HETATM   12  C   UNK     0       5.499   9.900  91.370  0.00  0.00     0.021 A 
HETATM   13  C   UNK     0       4.475  10.740  90.933  0.00  0.00     0.010 A 
BRANCH  11  14
HETATM   14  C   UNK     0       7.261   8.272  90.898  0.00  0.00    -0.061 C 
HETATM   15  C   UNK     0       8.145   7.550  91.275  0.00  0.00    -0.061 C 
BRANCH  15  16
HETATM   16  C   UNK     0       9.196   6.691  91.722  0.00  0.00     0.018 A 
HETATM   17  C   UNK     0       9.474   6.581  93.085  0.00  0.00     0.022 A 
HETATM   18  C   UNK     0      10.499   5.741  93.522  0.00  0.00     0.018 A 
HETATM   19  C   UNK     0      11.222   5.030  92.588  0.00  0.00     0.032 A 
HETATM   20  C   UNK     0      10.967   5.121  91.235  0.00  0.00     0.018 A 
HETATM   21  C   UNK     0       9.943   5.961  90.798  0.00  0.00     0.022 A 
BRANCH  19  22
HETATM   22  C   UNK     0      12.314   4.137  93.053  0.00  0.00     0.252 C 
HETATM   23  O   UNK     0      12.148   3.464  94.068  0.00  0.00    -0.268 OA
HETATM   24  N   UNK     0      13.459   4.116  92.268  0.00  0.00    -0.341 N 
HETATM   25  H   UNK     0      13.515   4.681  91.429  0.00  0.00     0.163 HD
BRANCH  24  26
HETATM   26  C   UNK     0      14.594   3.284  92.575  0.00  0.00     0.207 C 
BRANCH  26  27
HETATM   27  C   UNK     0      15.316   3.713  93.858  0.00  0.00     0.146 C 
HETATM   28  C   UNK     0      16.660   3.016  94.033  0.00  0.00     0.042 C 
BRANCH  27  29
HETATM   29  O   UNK     0      15.525   5.125  93.839  0.00  0.00    -0.393 OA
HETATM   30  H   UNK     0      14.758   5.541  93.411  0.00  0.00     0.210 HD
ENDBRANCH  27  29
ENDBRANCH  26  27
BRANCH  26  31
HETATM   31  C   UNK     0      14.103   1.843  92.670  0.00  0.00     0.266 C 
HETATM   32  O   UNK     0      14.660   0.990  93.359  0.00  0.00    -0.269 OA
HETATM   33  N   UNK     0      13.007   1.615  91.873  0.00  0.00    -0.236 N 
HETATM   34  H   UNK     0      12.580   2.268  91.228  0.00  0.00     0.197 HD
BRANCH  33  35
HETATM   35  O   UNK     0      12.516   0.301  91.874  0.00  0.00    -0.287 OA
HETATM   36  H   UNK     0      12.671   0.058  92.803  0.00  0.00     0.244 HD
ENDBRANCH  33  35
ENDBRANCH  26  31
ENDBRANCH  24  26
ENDBRANCH  19  22
ENDBRANCH  15  16
ENDBRANCH  11  14
ENDBRANCH   7   8
ENDBRANCH   2   7
TORSDOF 10
ENDMDL
