MODEL 1
REMARK VINA RESULT:      -7.6      0.000      0.000
REMARK  9 active torsions:
REMARK  status: ('A' for Active; 'I' for Inactive)
REMARK    1  A    between atoms: N_3  and  C_6 
REMARK    2  A    between atoms: C_6  and  C_9 
REMARK    3  A    between atoms: C_14  and  C_17 
REMARK       I    between atoms: N_26  and  C_15 
REMARK    4  A    between atoms: C_15  and  C_16 
REMARK    5  A    between atoms: C_20  and  C_23 
REMARK    6  A    between atoms: OG1_24  and  CB_28 
REMARK    7  A    between atoms: N_26  and  CA_27 
REMARK    8  A    between atoms: CA_27  and  CB_28 
REMARK    9  A    between atoms: CA_27  and  C_30 
ROOT
HETATM    1  O   UNK A   0       1.910   8.075  87.835  1.00  0.00    -0.388 OA
HETATM    2  N   UNK A   0       4.701   7.535  87.677  1.00  0.00     0.096 N 
HETATM    3  C   UNK A   0       4.190   8.907  87.801  1.00  0.00     0.299 C 
HETATM    4  C   UNK A   0       3.714   6.691  86.989  1.00  0.00     0.299 C 
HETATM    5  C   UNK A   0       2.849   8.896  88.532  1.00  0.00     0.198 C 
HETATM    6  C   UNK A   0       2.386   6.732  87.738  1.00  0.00     0.198 C 
ENDROOT
BRANCH   2   7
HETATM    7  C   UNK A   0       5.980   7.521  86.970  1.00  0.00     0.311 C 
BRANCH   7   8
HETATM    8  C   UNK A   0       7.073   6.920  87.786  1.00  0.00    -0.030 A 
HETATM    9  C   UNK A   0       6.842   6.582  89.120  1.00  0.00     0.010 A 
HETATM   10  C   UNK A   0       7.864   6.021  89.885  1.00  0.00     0.021 A 
HETATM   11  C   UNK A   0       9.117   5.797  89.315  1.00  0.00     0.018 A 
HETATM   12  C   UNK A   0       9.349   6.133  87.983  1.00  0.00     0.021 A 
HETATM   13  C   UNK A   0       8.327   6.694  87.218  1.00  0.00     0.010 A 
BRANCH  11  14
HETATM   14  C   UNK A   0      10.165   5.219  90.099  1.00  0.00    -0.061 C 
HETATM   15  C   UNK A   0      11.046   4.734  90.759  1.00  0.00    -0.061 C 
BRANCH  15  16
HETATM   16  C   UNK A   0      12.093   4.156  91.542  1.00  0.00     0.018 A 
HETATM   17  C   UNK A   0      11.853   3.794  92.868  1.00  0.00     0.022 A 
HETATM   18  C   UNK A   0      12.874   3.228  93.631  1.00  0.00     0.018 A 
HETATM   19  C   UNK A   0      14.111   3.036  93.052  1.00  0.00     0.032 A 
HETATM   20  C   UNK A   0      14.374   3.386  91.744  1.00  0.00     0.018 A 
HETATM   21  C   UNK A   0      13.353   3.952  90.980  1.00  0.00     0.022 A 
BRANCH  19  22
HETATM   22  C   UNK A   0      15.199   2.435  93.866  1.00  0.00     0.252 C 
HETATM   23  O   UNK A   0      16.350   2.840  93.721  1.00  0.00    -0.268 OA
ENDBRANCH  19  22
ENDBRANCH  15  16
ENDBRANCH  11  14
ENDBRANCH   7   8
ENDBRANCH   2   7
TORSDOF 9
ENDMDL
