MODEL 1
REMARK VINA RESULT:      -6.9      0.000      0.000
REMARK  10 active torsions:
REMARK  status: ('A' for Active; 'I' for Inactive)
REMARK    1  A    between atoms: O_2  and  C_16 
REMARK    2  A    between atoms: N_5  and  C_9 
REMARK    3  A    between atoms: N_6  and  C_13 
REMARK       I    between atoms: N_6  and  C_22 
REMARK    4  A    between atoms: C_9  and  C_12 
REMARK    5  A    between atoms: C_13  and  C_16 
REMARK    6  A    between atoms: C_13  and  C_21 
REMARK    7  A    between atoms: C_19  and  C_24 
REMARK    8  A    between atoms: C_22  and  C_23 
REMARK    9  A    between atoms: C_27  and  C_30 
REMARK   10  A    between atoms: N_33  and  S_34 
ROOT
HETATM    1  C   UNL     1       5.830  11.148  89.795  1.00  0.00     0.056 A 
HETATM    2  C   UNL     1       5.325  10.057  90.471  1.00  0.00     0.005 A 
HETATM    3  C   UNL     1       7.141  11.208  89.370  1.00  0.00     0.005 A 
HETATM    4  C   UNL     1       7.498   9.014  90.315  1.00  0.00     0.042 A 
HETATM    5  C   UNL     1       6.168   8.977  90.735  1.00  0.00     0.008 A 
HETATM    6  C   UNL     1       7.985  10.129  89.633  1.00  0.00     0.008 A 
ENDROOT
BRANCH   1   7
HETATM    7  C   UNL     1       4.931  12.297  89.513  1.00  0.00     0.254 C 
HETATM    8  O   UNL     1       4.859  12.735  88.368  1.00  0.00    -0.268 OA
HETATM    9  N   UNL     1       4.206  12.781  90.593  1.00  0.00    -0.337 N 
HETATM   10  HN  UNL     1       4.299  12.352  91.507  1.00  0.00     0.164 HD
BRANCH   9  11
HETATM   11  C   UNL     1       3.275  13.874  90.475  1.00  0.00     0.172 C 
BRANCH  11  12
HETATM   12  C   UNL     1       1.943  13.599  91.185  1.00  0.00     0.136 C 
HETATM   13  C   UNL     1       2.026  12.417  92.144  1.00  0.00     0.034 C 
BRANCH  12  14
HETATM   14  O   UNL     1       1.541  14.759  91.912  1.00  0.00    -0.383 OA
HETATM   15  H   UNL     1       2.130  14.857  92.680  1.00  0.00     0.210 HD
ENDBRANCH  12  14
ENDBRANCH  11  12
BRANCH  11  16
HETATM   16  C   UNL     1       3.951  15.124  91.029  1.00  0.00     0.398 A 
HETATM   17  O   UNL     1       5.066  15.497  90.670  1.00  0.00    -0.136 OA
HETATM   18  N   UNL     1       4.938  15.592  92.182  1.00  0.00     0.142 N 
HETATM   19  HN  UNL     1       5.849  15.947  92.093  1.00  0.00     0.338 HD
BRANCH  18  20
HETATM   20  S   UNL     1       4.226  15.106  93.273  1.00  0.00     0.076 SA
HETATM   21  H   UNL     1       3.974  15.886  94.133  1.00  0.00     0.136 HD
ENDBRANCH  18  20
ENDBRANCH  11  16
ENDBRANCH   9  11
ENDBRANCH   1   7
BRANCH   4  22
HETATM   22  C   UNL     1       8.363   7.909  90.587  1.00  0.00    -0.059 C 
HETATM   23  C   UNL     1       9.092   6.980  90.816  1.00  0.00    -0.059 C 
BRANCH  23  24
HETATM   24  C   UNL     1       9.958   5.874  91.089  1.00  0.00     0.042 A 
HETATM   25  C   UNL     1      10.587   5.207  90.039  1.00  0.00     0.008 A 
HETATM   26  C   UNL     1      11.430   4.128  90.304  1.00  0.00    -0.002 A 
HETATM   27  C   UNL     1      11.645   3.718  91.621  1.00  0.00     0.011 A 
HETATM   28  C   UNL     1      11.014   4.387  92.670  1.00  0.00    -0.002 A 
HETATM   29  C   UNL     1      10.171   5.466  92.404  1.00  0.00     0.008 A 
BRANCH  27  30
HETATM   30  C   UNL     1      12.548   2.566  91.904  1.00  0.00     0.277 C 
BRANCH  30  31
HETATM   31  N   UNL     1      13.602   2.907  92.858  1.00  0.00     0.147 N 
HETATM   32  C   UNL     1      14.449   1.738  93.135  1.00  0.00     0.283 C 
HETATM   33  C   UNL     1      15.548   2.120  94.124  1.00  0.00     0.178 C 
HETATM   34  O   UNL     1      16.334   3.193  93.603  1.00  0.00    -0.350 OA
HETATM   35  C   UNL     1      15.524   4.343  93.359  1.00  0.00     0.178 C 
HETATM   36  C   UNL     1      14.424   4.016  92.354  1.00  0.00     0.283 C 
ENDBRANCH  30  31
ENDBRANCH  27  30
ENDBRANCH  23  24
ENDBRANCH   4  22
TORSDOF 10
ENDMDL
