MODEL 1
REMARK VINA RESULT:      -6.6      0.000      0.000
REMARK  14 active torsions:
REMARK  status: ('A' for Active; 'I' for Inactive)
REMARK    1  A    between atoms: O_2  and  C_18 
REMARK    2  A    between atoms: C_5  and  C_8 
REMARK    3  A    between atoms: C_5  and  O_35 
REMARK    4  A    between atoms: C_5  and  C_36 
REMARK    5  A    between atoms: N_6  and  C_11 
REMARK    6  A    between atoms: N_7  and  C_15 
REMARK       I    between atoms: N_7  and  C_24 
REMARK    7  A    between atoms: C_8  and  C_23 
REMARK    8  A    between atoms: C_11  and  C_14 
REMARK    9  A    between atoms: C_15  and  C_18 
REMARK   10  A    between atoms: C_15  and  C_23 
REMARK   11  A    between atoms: C_21  and  C_26 
REMARK   12  A    between atoms: C_24  and  C_25 
REMARK   13  A    between atoms: C_29  and  C_32 
REMARK   14  A    between atoms: C_36  and  O_39 
ROOT
HETATM    1  O   UNL     1      16.032   4.616  93.698  1.00  0.00    -0.350 OA
HETATM    2  N   UNL     1      14.276   2.742  92.470  1.00  0.00     0.147 N 
HETATM    3  C   UNL     1      14.320   4.147  92.043  1.00  0.00     0.283 C 
HETATM    4  C   UNL     1      14.644   2.636  93.889  1.00  0.00     0.283 C 
HETATM    5  C   UNL     1      15.708   4.726  92.311  1.00  0.00     0.178 C 
HETATM    6  C   UNL     1      16.022   3.250  94.114  1.00  0.00     0.178 C 
ENDROOT
BRANCH   2   7
HETATM    7  C   UNL     1      12.952   2.170  92.232  1.00  0.00     0.277 C 
BRANCH   7   8
HETATM    8  C   UNL     1      11.894   3.215  92.120  1.00  0.00     0.011 A 
HETATM    9  C   UNL     1      11.209   3.386  90.916  1.00  0.00    -0.002 A 
HETATM   10  C   UNL     1      10.221   4.365  90.810  1.00  0.00     0.008 A 
HETATM   11  C   UNL     1       9.916   5.169  91.907  1.00  0.00     0.042 A 
HETATM   12  C   UNL     1      10.599   4.998  93.110  1.00  0.00     0.008 A 
HETATM   13  C   UNL     1      11.588   4.021  93.217  1.00  0.00    -0.002 A 
BRANCH  11  14
HETATM   14  C   UNL     1       8.901   6.171  91.798  1.00  0.00    -0.059 C 
HETATM   15  C   UNL     1       8.047   7.013  91.708  1.00  0.00    -0.059 C 
BRANCH  15  16
HETATM   16  C   UNL     1       7.032   8.014  91.600  1.00  0.00     0.042 A 
HETATM   17  C   UNL     1       6.237   8.321  92.704  1.00  0.00     0.008 A 
HETATM   18  C   UNL     1       5.249   9.300  92.599  1.00  0.00     0.005 A 
HETATM   19  C   UNL     1       5.079   9.950  91.395  1.00  0.00     0.056 A 
HETATM   20  C   UNL     1       5.852   9.664  90.289  1.00  0.00     0.005 A 
HETATM   21  C   UNL     1       6.840   8.685  90.392  1.00  0.00     0.008 A 
BRANCH  19  22
HETATM   22  C   UNL     1       4.025  10.992  91.283  1.00  0.00     0.254 C 
HETATM   23  O   UNL     1       2.868  10.651  91.049  1.00  0.00    -0.268 OA
HETATM   24  N   UNL     1       4.441  12.301  91.482  1.00  0.00    -0.335 N 
HETATM   25  HN  UNL     1       5.410  12.504  91.696  1.00  0.00     0.164 HD
BRANCH  24  26
HETATM   26  C   UNL     1       3.534  13.419  91.430  1.00  0.00     0.169 C 
BRANCH  26  27
HETATM   27  C   UNL     1       3.066  13.869  92.820  1.00  0.00     0.138 C 
HETATM   28  C   UNL     1       4.179  13.801  93.860  1.00  0.00     0.034 C 
BRANCH  27  29
HETATM   29  O   UNL     1       2.579  15.209  92.750  1.00  0.00    -0.383 OA
HETATM   30  H   UNL     1       3.226  15.743  92.258  1.00  0.00     0.210 HD
ENDBRANCH  27  29
ENDBRANCH  26  27
BRANCH  26  31
HETATM   31  C   UNL     1       4.232  14.552  90.686  1.00  0.00     0.194 C 
HETATM   32  O   UNL     1       4.992  15.347  91.238  1.00  0.00    -0.289 OA
BRANCH  31  33
HETATM   33  C   UNL     1       3.883  14.595  89.359  1.00  0.00     0.053 C 
BRANCH  33  34
HETATM   34  C   UNL     1       4.787  13.996  88.470  1.00  0.00     0.220 C 
BRANCH  34  35
HETATM   35  O   UNL     1       5.924  14.077  88.972  1.00  0.00    -0.371 OA
HETATM   36  H   UNL     1       5.702  14.617  89.715  1.00  0.00     0.211 HD
ENDBRANCH  34  35
BRANCH  34  37
HETATM   37  C   UNL     1       4.446  12.675  88.130  1.00  0.00     0.185 C 
HETATM   38  O   UNL     1       5.711  12.439  88.440  1.00  0.00    -0.647 OA
BRANCH  37  39
HETATM   39  O   UNL     1       3.484  12.100  87.718  1.00  0.00    -0.774 OA
HETATM   40  H   UNL     1       3.420  11.044  88.130  1.00  0.00     0.167 HD
ENDBRANCH  37  39
ENDBRANCH  34  37
ENDBRANCH  33  34
ENDBRANCH  31  33
ENDBRANCH  26  31
ENDBRANCH  24  26
ENDBRANCH  19  22
ENDBRANCH  15  16
ENDBRANCH  11  14
ENDBRANCH   7   8
ENDBRANCH   2   7
TORSDOF 14
ENDMDL
