MODEL 1
REMARK VINA RESULT:      -6.4      0.000      0.000
REMARK  12 active torsions:
REMARK  status: ('A' for Active; 'I' for Inactive)
REMARK    1  A    between atoms: O_2  and  C_16 
REMARK    2  A    between atoms: N_5  and  C_9 
REMARK    3  A    between atoms: N_6  and  C_13 
REMARK       I    between atoms: N_6  and  C_22 
REMARK    4  A    between atoms: C_9  and  C_12 
REMARK    5  A    between atoms: C_13  and  C_16 
REMARK    6  A    between atoms: C_13  and  C_21 
REMARK    7  A    between atoms: C_19  and  C_24 
REMARK    8  A    between atoms: C_21  and  C_33 
REMARK    9  A    between atoms: C_22  and  C_23 
REMARK   10  A    between atoms: C_27  and  C_30 
REMARK   11  A    between atoms: C_33  and  C_34 
REMARK   12  A    between atoms: C_34  and  C_35 
ROOT
HETATM    1  O   UNL     1      16.644   3.682  93.800  1.00  0.00    -0.350 OA
HETATM    2  N   UNL     1      14.064   3.041  92.785  1.00  0.00     0.147 N 
HETATM    3  C   UNL     1      15.082   2.004  93.004  1.00  0.00     0.283 C 
HETATM    4  C   UNL     1      14.710   4.326  92.485  1.00  0.00     0.283 C 
HETATM    5  C   UNL     1      16.026   2.436  94.124  1.00  0.00     0.178 C 
HETATM    6  C   UNL     1      15.662   4.703  93.616  1.00  0.00     0.178 C 
ENDROOT
BRANCH   2   7
HETATM    7  C   UNL     1      13.154   2.653  91.708  1.00  0.00     0.277 C 
BRANCH   7   8
HETATM    8  C   UNL     1      12.014   3.601  91.558  1.00  0.00     0.011 A 
HETATM    9  C   UNL     1      11.787   4.231  90.334  1.00  0.00    -0.002 A 
HETATM   10  C   UNL     1      10.722   5.120  90.193  1.00  0.00     0.008 A 
HETATM   11  C   UNL     1       9.883   5.378  91.276  1.00  0.00     0.042 A 
HETATM   12  C   UNL     1      10.108   4.750  92.500  1.00  0.00     0.008 A 
HETATM   13  C   UNL     1      11.174   3.861  92.641  1.00  0.00    -0.002 A 
BRANCH  11  14
HETATM   14  C   UNL     1       8.789   6.289  91.131  1.00  0.00    -0.059 C 
HETATM   15  C   UNL     1       7.870   7.054  91.009  1.00  0.00    -0.059 C 
BRANCH  15  16
HETATM   16  C   UNL     1       6.776   7.963  90.864  1.00  0.00     0.042 A 
HETATM   17  C   UNL     1       5.647   7.584  90.138  1.00  0.00     0.008 A 
HETATM   18  C   UNL     1       4.579   8.471  89.999  1.00  0.00     0.005 A 
HETATM   19  C   UNL     1       4.663   9.714  90.589  1.00  0.00     0.056 A 
HETATM   20  C   UNL     1       5.769  10.113  91.311  1.00  0.00     0.005 A 
HETATM   21  C   UNL     1       6.838   9.227  91.450  1.00  0.00     0.008 A 
BRANCH  19  22
HETATM   22  C   UNL     1       3.526  10.659  90.439  1.00  0.00     0.254 C 
HETATM   23  O   UNL     1       2.696  10.462  89.555  1.00  0.00    -0.268 OA
HETATM   24  N   UNL     1       3.479  11.704  91.351  1.00  0.00    -0.335 N 
HETATM   25  HN  UNL     1       4.188  11.788  92.071  1.00  0.00     0.164 HD
BRANCH  24  26
HETATM   26  C   UNL     1       2.426  12.687  91.351  1.00  0.00     0.166 C 
BRANCH  26  27
HETATM   27  C   UNL     1       1.611  12.684  92.650  1.00  0.00     0.138 C 
HETATM   28  C   UNL     1       1.407  11.280  93.208  1.00  0.00     0.034 C 
BRANCH  27  29
HETATM   29  O   UNL     1       2.273  13.481  93.631  1.00  0.00    -0.383 OA
HETATM   30  H   UNL     1       3.217  13.252  93.624  1.00  0.00     0.210 HD
ENDBRANCH  27  29
ENDBRANCH  26  27
BRANCH  26  31
HETATM   31  C   UNL     1       3.062  14.050  91.098  1.00  0.00     0.181 C 
HETATM   32  O   UNL     1       2.838  15.034  91.801  1.00  0.00    -0.294 OA
BRANCH  31  33
HETATM   33  C   UNL     1       4.674  13.948  90.965  1.00  0.00     0.138 C 
BRANCH  33  34
HETATM   34  C   UNL     1       4.876  14.475  89.671  1.00  0.00     0.208 C 
HETATM   35  O   UNL     1       5.263  15.620  89.617  1.00  0.00    -0.289 OA
BRANCH  34  36
HETATM   36  C   UNL     1       4.989  13.844  88.463  1.00  0.00     0.194 C 
HETATM   37  O   UNL     1       5.309  12.515  88.164  1.00  0.00    -0.185 OA
ENDBRANCH  34  36
ENDBRANCH  33  34
ENDBRANCH  31  33
ENDBRANCH  26  31
ENDBRANCH  24  26
ENDBRANCH  19  22
ENDBRANCH  15  16
ENDBRANCH  11  14
ENDBRANCH   7   8
ENDBRANCH   2   7
TORSDOF 12
ENDMDL
MODEL 2
REMARK VINA RESULT:      -6.1      2.202      3.324
REMARK  12 active torsions:
REMARK  status: ('A' for Active; 'I' for Inactive)
REMARK    1  A    between atoms: O_2  and  C_16 
REMARK    2  A    between atoms: N_5  and  C_9 
REMARK    3  A    between atoms: N_6  and  C_13 
REMARK       I    between atoms: N_6  and  C_22 
REMARK    4  A    between atoms: C_9  and  C_12 
REMARK    5  A    between atoms: C_13  and  C_16 
REMARK    6  A    between atoms: C_13  and  C_21 
REMARK    7  A    between atoms: C_19  and  C_24 
REMARK    8  A    between atoms: C_21  and  C_33 
REMARK    9  A    between atoms: C_22  and  C_23 
REMARK   10  A    between atoms: C_27  and  C_30 
REMARK   11  A    between atoms: C_33  and  C_34 
REMARK   12  A    between atoms: C_34  and  C_35 
ROOT
HETATM    1  O   UNL     1      17.497   4.698  93.618  1.00  0.00    -0.350 OA
HETATM    2  N   UNL     1      15.323   2.928  94.110  1.00  0.00     0.147 N 
HETATM    3  C   UNL     1      16.615   2.437  93.611  1.00  0.00     0.283 C 
HETATM    4  C   UNL     1      15.103   4.311  93.662  1.00  0.00     0.283 C 
HETATM    5  C   UNL     1      17.734   3.365  94.075  1.00  0.00     0.178 C 
HETATM    6  C   UNL     1      16.257   5.194  94.124  1.00  0.00     0.178 C 
ENDROOT
BRANCH   2   7
HETATM    7  C   UNL     1      14.233   2.059  93.668  1.00  0.00     0.277 C 
BRANCH   7   8
HETATM    8  C   UNL     1      13.165   2.809  92.947  1.00  0.00     0.011 A 
HETATM    9  C   UNL     1      12.129   3.408  93.664  1.00  0.00    -0.002 A 
HETATM   10  C   UNL     1      11.128   4.108  92.991  1.00  0.00     0.008 A 
HETATM   11  C   UNL     1      11.165   4.211  91.601  1.00  0.00     0.042 A 
HETATM   12  C   UNL     1      12.200   3.614  90.883  1.00  0.00     0.008 A 
HETATM   13  C   UNL     1      13.200   2.913  91.556  1.00  0.00    -0.002 A 
BRANCH  11  14
HETATM   14  C   UNL     1      10.140   4.931  90.910  1.00  0.00    -0.059 C 
HETATM   15  C   UNL     1       9.278   5.536  90.330  1.00  0.00    -0.059 C 
BRANCH  15  16
HETATM   16  C   UNL     1       8.252   6.255  89.640  1.00  0.00     0.042 A 
HETATM   17  C   UNL     1       7.006   6.437  90.240  1.00  0.00     0.008 A 
HETATM   18  C   UNL     1       6.007   7.142  89.569  1.00  0.00     0.005 A 
HETATM   19  C   UNL     1       6.276   7.648  88.314  1.00  0.00     0.056 A 
HETATM   20  C   UNL     1       7.499   7.481  87.700  1.00  0.00     0.005 A 
HETATM   21  C   UNL     1       8.499   6.777  88.371  1.00  0.00     0.008 A 
BRANCH  19  22
HETATM   22  C   UNL     1       5.210   8.396  87.598  1.00  0.00     0.254 C 
HETATM   23  O   UNL     1       5.081   8.244  86.386  1.00  0.00    -0.268 OA
HETATM   24  N   UNL     1       4.408   9.213  88.384  1.00  0.00    -0.335 N 
HETATM   25  HN  UNL     1       4.558   9.269  89.384  1.00  0.00     0.164 HD
BRANCH  24  26
HETATM   26  C   UNL     1       3.318   9.983  87.841  1.00  0.00     0.166 C 
BRANCH  26  27
HETATM   27  C   UNL     1       1.948   9.355  88.126  1.00  0.00     0.138 C 
HETATM   28  C   UNL     1       1.778   7.995  87.457  1.00  0.00     0.034 C 
BRANCH  27  29
HETATM   29  O   UNL     1       1.776   9.203  89.535  1.00  0.00    -0.383 OA
HETATM   30  H   UNL     1       2.567   8.766  89.893  1.00  0.00     0.210 HD
ENDBRANCH  27  29
ENDBRANCH  26  27
BRANCH  26  31
HETATM   31  C   UNL     1       3.413  11.393  88.415  1.00  0.00     0.181 C 
HETATM   32  O   UNL     1       2.627  11.828  89.254  1.00  0.00    -0.294 OA
BRANCH  31  33
HETATM   33  C   UNL     1       4.899  11.716  88.976  1.00  0.00     0.138 C 
BRANCH  33  34
HETATM   34  C   UNL     1       5.072  13.048  88.540  1.00  0.00     0.208 C 
HETATM   35  O   UNL     1       4.797  13.269  87.383  1.00  0.00    -0.289 OA
BRANCH  34  36
HETATM   36  C   UNL     1       5.224  14.204  89.256  1.00  0.00     0.194 C 
HETATM   37  O   UNL     1       4.488  14.701  90.338  1.00  0.00    -0.185 OA
ENDBRANCH  34  36
ENDBRANCH  33  34
ENDBRANCH  31  33
ENDBRANCH  26  31
ENDBRANCH  24  26
ENDBRANCH  19  22
ENDBRANCH  15  16
ENDBRANCH  11  14
ENDBRANCH   7   8
ENDBRANCH   2   7
TORSDOF 12
ENDMDL
MODEL 3
REMARK VINA RESULT:      -5.3      1.467      2.536
REMARK  12 active torsions:
REMARK  status: ('A' for Active; 'I' for Inactive)
REMARK    1  A    between atoms: O_2  and  C_16 
REMARK    2  A    between atoms: N_5  and  C_9 
REMARK    3  A    between atoms: N_6  and  C_13 
REMARK       I    between atoms: N_6  and  C_22 
REMARK    4  A    between atoms: C_9  and  C_12 
REMARK    5  A    between atoms: C_13  and  C_16 
REMARK    6  A    between atoms: C_13  and  C_21 
REMARK    7  A    between atoms: C_19  and  C_24 
REMARK    8  A    between atoms: C_21  and  C_33 
REMARK    9  A    between atoms: C_22  and  C_23 
REMARK   10  A    between atoms: C_27  and  C_30 
REMARK   11  A    between atoms: C_33  and  C_34 
REMARK   12  A    between atoms: C_34  and  C_35 
ROOT
HETATM    1  O   UNL     1      16.964   3.681  94.124  1.00  0.00    -0.350 OA
HETATM    2  N   UNL     1      14.625   3.185  92.580  1.00  0.00     0.147 N 
HETATM    3  C   UNL     1      14.619   4.139  93.697  1.00  0.00     0.283 C 
HETATM    4  C   UNL     1      15.625   2.136  92.819  1.00  0.00     0.283 C 
HETATM    5  C   UNL     1      16.017   4.724  93.885  1.00  0.00     0.178 C 
HETATM    6  C   UNL     1      16.998   2.767  93.028  1.00  0.00     0.178 C 
ENDROOT
BRANCH   2   7
HETATM    7  C   UNL     1      13.297   2.604  92.388  1.00  0.00     0.277 C 
BRANCH   7   8
HETATM    8  C   UNL     1      12.219   3.633  92.404  1.00  0.00     0.011 A 
HETATM    9  C   UNL     1      11.748   4.129  93.620  1.00  0.00    -0.002 A 
HETATM   10  C   UNL     1      10.737   5.090  93.637  1.00  0.00     0.008 A 
HETATM   11  C   UNL     1      10.201   5.557  92.437  1.00  0.00     0.042 A 
HETATM   12  C   UNL     1      10.671   5.062  91.222  1.00  0.00     0.008 A 
HETATM   13  C   UNL     1      11.680   4.100  91.205  1.00  0.00    -0.002 A 
BRANCH  11  14
HETATM   14  C   UNL     1       9.166   6.544  92.454  1.00  0.00    -0.059 C 
HETATM   15  C   UNL     1       8.296   7.375  92.469  1.00  0.00    -0.059 C 
BRANCH  15  16
HETATM   16  C   UNL     1       7.263   8.363  92.485  1.00  0.00     0.042 A 
HETATM   17  C   UNL     1       7.513   9.625  93.024  1.00  0.00     0.008 A 
HETATM   18  C   UNL     1       6.505  10.589  93.037  1.00  0.00     0.005 A 
HETATM   19  C   UNL     1       5.271  10.270  92.511  1.00  0.00     0.056 A 
HETATM   20  C   UNL     1       4.998   9.030  91.973  1.00  0.00     0.005 A 
HETATM   21  C   UNL     1       6.005   8.065  91.959  1.00  0.00     0.008 A 
BRANCH  19  22
HETATM   22  C   UNL     1       4.197  11.297  92.527  1.00  0.00     0.254 C 
HETATM   23  O   UNL     1       3.246  11.158  93.292  1.00  0.00    -0.268 OA
HETATM   24  N   UNL     1       4.372  12.374  91.669  1.00  0.00    -0.335 N 
HETATM   25  HN  UNL     1       5.197  12.434  91.084  1.00  0.00     0.164 HD
BRANCH  24  26
HETATM   26  C   UNL     1       3.431  13.461  91.588  1.00  0.00     0.166 C 
BRANCH  26  27
HETATM   27  C   UNL     1       3.973  14.762  92.194  1.00  0.00     0.138 C 
HETATM   28  C   UNL     1       4.912  15.501  91.247  1.00  0.00     0.034 C 
BRANCH  27  29
HETATM   29  O   UNL     1       2.884  15.621  92.531  1.00  0.00    -0.383 OA
HETATM   30  H   UNL     1       3.179  16.542  92.429  1.00  0.00     0.210 HD
ENDBRANCH  27  29
ENDBRANCH  26  27
BRANCH  26  31
HETATM   31  C   UNL     1       3.060  13.647  90.120  1.00  0.00     0.181 C 
HETATM   32  O   UNL     1       2.315  14.542  89.726  1.00  0.00    -0.294 OA
BRANCH  31  33
HETATM   33  C   UNL     1       4.371  13.697  89.168  1.00  0.00     0.138 C 
BRANCH  33  34
HETATM   34  C   UNL     1       4.388  12.382  88.655  1.00  0.00     0.208 C 
HETATM   35  O   UNL     1       5.398  11.746  88.851  1.00  0.00    -0.289 OA
BRANCH  34  36
HETATM   36  C   UNL     1       3.363  11.586  88.221  1.00  0.00     0.194 C 
HETATM   37  O   UNL     1       2.688  10.546  88.870  1.00  0.00    -0.185 OA
ENDBRANCH  34  36
ENDBRANCH  33  34
ENDBRANCH  31  33
ENDBRANCH  26  31
ENDBRANCH  24  26
ENDBRANCH  19  22
ENDBRANCH  15  16
ENDBRANCH  11  14
ENDBRANCH   7   8
ENDBRANCH   2   7
TORSDOF 12
ENDMDL
MODEL 4
REMARK VINA RESULT:      -4.7      2.840     12.326
REMARK  12 active torsions:
REMARK  status: ('A' for Active; 'I' for Inactive)
REMARK    1  A    between atoms: O_2  and  C_16 
REMARK    2  A    between atoms: N_5  and  C_9 
REMARK    3  A    between atoms: N_6  and  C_13 
REMARK       I    between atoms: N_6  and  C_22 
REMARK    4  A    between atoms: C_9  and  C_12 
REMARK    5  A    between atoms: C_13  and  C_16 
REMARK    6  A    between atoms: C_13  and  C_21 
REMARK    7  A    between atoms: C_19  and  C_24 
REMARK    8  A    between atoms: C_21  and  C_33 
REMARK    9  A    between atoms: C_22  and  C_23 
REMARK   10  A    between atoms: C_27  and  C_30 
REMARK   11  A    between atoms: C_33  and  C_34 
REMARK   12  A    between atoms: C_34  and  C_35 
ROOT
HETATM    1  O   UNL     1       2.853  14.869  93.947  1.00  0.00    -0.350 OA
HETATM    2  N   UNL     1       2.469  14.776  91.128  1.00  0.00     0.147 N 
HETATM    3  C   UNL     1       1.569  14.068  92.049  1.00  0.00     0.283 C 
HETATM    4  C   UNL     1       3.810  14.883  91.718  1.00  0.00     0.283 C 
HETATM    5  C   UNL     1       1.538  14.788  93.395  1.00  0.00     0.178 C 
HETATM    6  C   UNL     1       3.727  15.582  93.071  1.00  0.00     0.178 C 
ENDROOT
BRANCH   2   7
HETATM    7  C   UNL     1       2.523  14.098  89.834  1.00  0.00     0.277 C 
BRANCH   7   8
HETATM    8  C   UNL     1       3.526  12.995  89.812  1.00  0.00     0.011 A 
HETATM    9  C   UNL     1       3.209  11.754  90.364  1.00  0.00    -0.002 A 
HETATM   10  C   UNL     1       4.148  10.722  90.346  1.00  0.00     0.008 A 
HETATM   11  C   UNL     1       5.403  10.933  89.774  1.00  0.00     0.042 A 
HETATM   12  C   UNL     1       5.720  12.172  89.222  1.00  0.00     0.008 A 
HETATM   13  C   UNL     1       4.782  13.204  89.241  1.00  0.00    -0.002 A 
BRANCH  11  14
HETATM   14  C   UNL     1       6.365   9.874  89.754  1.00  0.00    -0.059 C 
HETATM   15  C   UNL     1       7.174   8.985  89.737  1.00  0.00    -0.059 C 
BRANCH  15  16
HETATM   16  C   UNL     1       8.135   7.927  89.718  1.00  0.00     0.042 A 
HETATM   17  C   UNL     1       9.335   8.089  89.023  1.00  0.00     0.008 A 
HETATM   18  C   UNL     1      10.274   7.057  89.007  1.00  0.00     0.005 A 
HETATM   19  C   UNL     1       9.993   5.889  89.684  1.00  0.00     0.056 A 
HETATM   20  C   UNL     1       8.815   5.705  90.377  1.00  0.00     0.005 A 
HETATM   21  C   UNL     1       7.875   6.735  90.395  1.00  0.00     0.008 A 
BRANCH  19  22
HETATM   22  C   UNL     1      10.993   4.790  89.665  1.00  0.00     0.254 C 
HETATM   23  O   UNL     1      11.098   4.092  88.659  1.00  0.00    -0.268 OA
HETATM   24  N   UNL     1      11.768   4.652  90.808  1.00  0.00    -0.335 N 
HETATM   25  HN  UNL     1      11.642   5.283  91.592  1.00  0.00     0.164 HD
BRANCH  24  26
HETATM   26  C   UNL     1      12.795   3.650  90.933  1.00  0.00     0.166 C 
BRANCH  26  27
HETATM   27  C   UNL     1      14.150   4.238  91.348  1.00  0.00     0.138 C 
HETATM   28  C   UNL     1      15.235   3.173  91.471  1.00  0.00     0.034 C 
BRANCH  27  29
HETATM   29  O   UNL     1      14.562   5.211  90.390  1.00  0.00    -0.383 OA
HETATM   30  H   UNL     1      14.890   4.745  89.603  1.00  0.00     0.210 HD
ENDBRANCH  27  29
ENDBRANCH  26  27
BRANCH  26  31
HETATM   31  C   UNL     1      12.311   2.608  91.936  1.00  0.00     0.181 C 
HETATM   32  O   UNL     1      12.786   1.476  92.008  1.00  0.00    -0.294 OA
BRANCH  31  33
HETATM   33  C   UNL     1      12.299   3.190  93.449  1.00  0.00     0.138 C 
BRANCH  33  34
HETATM   34  C   UNL     1      11.184   4.055  93.401  1.00  0.00     0.208 C 
HETATM   35  O   UNL     1      10.192   3.615  92.866  1.00  0.00    -0.289 OA
BRANCH  34  36
HETATM   36  C   UNL     1      10.919   5.202  94.098  1.00  0.00     0.194 C 
HETATM   37  O   UNL     1       9.984   6.214  93.854  1.00  0.00    -0.185 OA
ENDBRANCH  34  36
ENDBRANCH  33  34
ENDBRANCH  31  33
ENDBRANCH  26  31
ENDBRANCH  24  26
ENDBRANCH  19  22
ENDBRANCH  15  16
ENDBRANCH  11  14
ENDBRANCH   7   8
ENDBRANCH   2   7
TORSDOF 12
ENDMDL
