MODEL 1
REMARK VINA RESULT:      -7.3      0.000      0.000
REMARK  9 active torsions:
REMARK  status: ('A' for Active; 'I' for Inactive)
REMARK    1  A    between atoms: O_2  and  C_17 
REMARK    2  A    between atoms: N_5  and  C_10 
REMARK    3  A    between atoms: N_6  and  C_14 
REMARK       I    between atoms: N_6  and  C_23 
REMARK       I    between atoms: N_7  and  C_22 
REMARK    4  A    between atoms: C_10  and  C_13 
REMARK    5  A    between atoms: C_14  and  C_17 
REMARK    6  A    between atoms: C_14  and  C_22 
REMARK    7  A    between atoms: C_20  and  C_25 
REMARK    8  A    between atoms: C_23  and  C_24 
REMARK    9  A    between atoms: C_28  and  C_31 
ROOT
HETATM    1  O   UNL     1      16.390   4.115  94.124  1.00  0.00    -0.388 OA
HETATM    2  N   UNL     1      14.588   2.557  92.566  1.00  0.00     0.096 N 
HETATM    3  C   UNL     1      14.530   4.025  92.567  1.00  0.00     0.299 C 
HETATM    4  C   UNL     1      15.109   2.072  93.851  1.00  0.00     0.299 C 
HETATM    5  C   UNL     1      15.914   4.597  92.866  1.00  0.00     0.198 C 
HETATM    6  C   UNL     1      16.478   2.689  94.120  1.00  0.00     0.198 C 
ENDROOT
BRANCH   2   7
HETATM    7  C   UNL     1      13.269   1.987  92.292  1.00  0.00     0.311 C 
BRANCH   7   8
HETATM    8  C   UNL     1      12.275   3.023  91.891  1.00  0.00    -0.030 A 
HETATM    9  C   UNL     1      12.192   3.430  90.558  1.00  0.00     0.010 A 
HETATM   10  C   UNL     1      11.264   4.401  90.182  1.00  0.00     0.021 A 
HETATM   11  C   UNL     1      10.418   4.963  91.138  1.00  0.00     0.018 A 
HETATM   12  C   UNL     1      10.500   4.557  92.469  1.00  0.00     0.021 A 
HETATM   13  C   UNL     1      11.428   3.587  92.845  1.00  0.00     0.010 A 
BRANCH  11  14
HETATM   14  C   UNL     1       9.465   5.957  90.752  1.00  0.00    -0.061 C 
HETATM   15  C   UNL     1       8.663   6.792  90.427  1.00  0.00    -0.061 C 
BRANCH  15  16
HETATM   16  C   UNL     1       7.709   7.785  90.042  1.00  0.00     0.018 A 
HETATM   17  C   UNL     1       6.487   7.400  89.489  1.00  0.00     0.022 A 
HETATM   18  C   UNL     1       5.556   8.369  89.115  1.00  0.00     0.018 A 
HETATM   19  C   UNL     1       5.867   9.699  89.304  1.00  0.00     0.032 A 
HETATM   20  C   UNL     1       7.067  10.105  89.848  1.00  0.00     0.018 A 
HETATM   21  C   UNL     1       7.999   9.137  90.221  1.00  0.00     0.022 A 
BRANCH  19  22
HETATM   22  C   UNL     1       4.875  10.731  88.904  1.00  0.00     0.252 C 
HETATM   23  O   UNL     1       4.073  10.477  88.009  1.00  0.00    -0.268 OA
HETATM   24  N   UNL     1       4.921  11.925  89.611  1.00  0.00    -0.342 N 
HETATM   25  H   UNL     1       5.596  12.054  90.356  1.00  0.00     0.163 HD
BRANCH  24  26
HETATM   26  C   UNL     1       4.010  13.012  89.357  1.00  0.00     0.199 C 
BRANCH  26  27
HETATM   27  C   UNL     1       3.494  13.667  90.645  1.00  0.00     0.145 C 
HETATM   28  C   UNL     1       2.527  12.769  91.410  1.00  0.00     0.042 C 
BRANCH  27  29
HETATM   29  O   UNL     1       4.597  13.988  91.492  1.00  0.00    -0.393 OA
HETATM   30  H   UNL     1       5.187  14.591  91.009  1.00  0.00     0.210 HD
ENDBRANCH  27  29
ENDBRANCH  26  27
BRANCH  26  31
HETATM   31  C   UNL     1       4.727  14.023  88.470  1.00  0.00     0.220 C 
HETATM   32  O   UNL     1       5.022  15.156  88.848  1.00  0.00    -0.278 OA
HETATM   33  N   UNL     1       4.963  13.532  87.208  1.00  0.00    -0.271 NA
HETATM   34  H   UNL     1       4.656  12.641  86.837  1.00  0.00     0.127 HD
HETATM   35  H   UNL     1       4.339  13.891  86.003  1.00  0.00     0.127 HD
ENDBRANCH  26  31
ENDBRANCH  24  26
ENDBRANCH  19  22
ENDBRANCH  15  16
ENDBRANCH  11  14
ENDBRANCH   7   8
ENDBRANCH   2   7
TORSDOF 9
ENDMDL
MODEL 2
REMARK VINA RESULT:      -6.7      1.476      2.148
REMARK  9 active torsions:
REMARK  status: ('A' for Active; 'I' for Inactive)
REMARK    1  A    between atoms: O_2  and  C_17 
REMARK    2  A    between atoms: N_5  and  C_10 
REMARK    3  A    between atoms: N_6  and  C_14 
REMARK       I    between atoms: N_6  and  C_23 
REMARK       I    between atoms: N_7  and  C_22 
REMARK    4  A    between atoms: C_10  and  C_13 
REMARK    5  A    between atoms: C_14  and  C_17 
REMARK    6  A    between atoms: C_14  and  C_22 
REMARK    7  A    between atoms: C_20  and  C_25 
REMARK    8  A    between atoms: C_23  and  C_24 
REMARK    9  A    between atoms: C_28  and  C_31 
ROOT
HETATM    1  O   UNL     1      16.523   3.162  93.450  1.00  0.00    -0.388 OA
HETATM    2  N   UNL     1      13.764   2.686  92.942  1.00  0.00     0.096 N 
HETATM    3  C   UNL     1      14.709   1.579  93.143  1.00  0.00     0.299 C 
HETATM    4  C   UNL     1      14.461   3.847  92.372  1.00  0.00     0.299 C 
HETATM    5  C   UNL     1      15.861   2.039  94.034  1.00  0.00     0.198 C 
HETATM    6  C   UNL     1      15.618   4.253  93.280  1.00  0.00     0.198 C 
ENDROOT
BRANCH   2   7
HETATM    7  C   UNL     1      12.657   2.271  92.082  1.00  0.00     0.311 C 
BRANCH   7   8
HETATM    8  C   UNL     1      11.640   3.347  91.906  1.00  0.00    -0.030 A 
HETATM    9  C   UNL     1      11.261   4.132  92.996  1.00  0.00     0.010 A 
HETATM   10  C   UNL     1      10.308   5.137  92.834  1.00  0.00     0.021 A 
HETATM   11  C   UNL     1       9.736   5.358  91.582  1.00  0.00     0.018 A 
HETATM   12  C   UNL     1      10.114   4.576  90.493  1.00  0.00     0.021 A 
HETATM   13  C   UNL     1      11.066   3.570  90.655  1.00  0.00     0.010 A 
BRANCH  11  14
HETATM   14  C   UNL     1       8.760   6.391  91.415  1.00  0.00    -0.061 C 
HETATM   15  C   UNL     1       7.939   7.259  91.274  1.00  0.00    -0.061 C 
BRANCH  15  16
HETATM   16  C   UNL     1       6.963   8.290  91.107  1.00  0.00     0.018 A 
HETATM   17  C   UNL     1       7.345   9.630  91.186  1.00  0.00     0.022 A 
HETATM   18  C   UNL     1       6.393  10.636  91.020  1.00  0.00     0.018 A 
HETATM   19  C   UNL     1       5.083  10.280  90.779  1.00  0.00     0.032 A 
HETATM   20  C   UNL     1       4.680   8.964  90.697  1.00  0.00     0.018 A 
HETATM   21  C   UNL     1       5.631   7.957  90.863  1.00  0.00     0.022 A 
BRANCH  19  22
HETATM   22  C   UNL     1       4.069  11.353  90.605  1.00  0.00     0.252 C 
HETATM   23  O   UNL     1       2.909  11.044  90.343  1.00  0.00    -0.268 OA
HETATM   24  N   UNL     1       4.522  12.652  90.782  1.00  0.00    -0.342 N 
HETATM   25  H   UNL     1       5.490  12.830  91.022  1.00  0.00     0.163 HD
BRANCH  24  26
HETATM   26  C   UNL     1       3.655  13.798  90.671  1.00  0.00     0.199 C 
BRANCH  26  27
HETATM   27  C   UNL     1       2.899  14.099  91.971  1.00  0.00     0.145 C 
HETATM   28  C   UNL     1       1.442  13.653  91.915  1.00  0.00     0.042 C 
BRANCH  27  29
HETATM   29  O   UNL     1       3.543  13.441  93.061  1.00  0.00    -0.393 OA
HETATM   30  H   UNL     1       3.126  13.739  93.887  1.00  0.00     0.210 HD
ENDBRANCH  27  29
ENDBRANCH  26  27
BRANCH  26  31
HETATM   31  C   UNL     1       4.507  14.986  90.237  1.00  0.00     0.220 C 
HETATM   32  O   UNL     1       4.668  15.301  89.059  1.00  0.00    -0.278 OA
HETATM   33  N   UNL     1       5.091  15.624  91.305  1.00  0.00    -0.271 NA
HETATM   34  H   UNL     1       5.052  15.339  92.277  1.00  0.00     0.127 HD
HETATM   35  H   UNL     1       6.441  15.624  91.687  1.00  0.00     0.127 HD
ENDBRANCH  26  31
ENDBRANCH  24  26
ENDBRANCH  19  22
ENDBRANCH  15  16
ENDBRANCH  11  14
ENDBRANCH   7   8
ENDBRANCH   2   7
TORSDOF 9
ENDMDL
MODEL 3
REMARK VINA RESULT:      -6.6      2.051      3.034
REMARK  9 active torsions:
REMARK  status: ('A' for Active; 'I' for Inactive)
REMARK    1  A    between atoms: O_2  and  C_17 
REMARK    2  A    between atoms: N_5  and  C_10 
REMARK    3  A    between atoms: N_6  and  C_14 
REMARK       I    between atoms: N_6  and  C_23 
REMARK       I    between atoms: N_7  and  C_22 
REMARK    4  A    between atoms: C_10  and  C_13 
REMARK    5  A    between atoms: C_14  and  C_17 
REMARK    6  A    between atoms: C_14  and  C_22 
REMARK    7  A    between atoms: C_20  and  C_25 
REMARK    8  A    between atoms: C_23  and  C_24 
REMARK    9  A    between atoms: C_28  and  C_31 
ROOT
HETATM    1  O   UNL     1      15.921   3.858  94.101  1.00  0.00    -0.388 OA
HETATM    2  N   UNL     1      14.042   2.593  92.378  1.00  0.00     0.096 N 
HETATM    3  C   UNL     1      14.246   4.048  92.355  1.00  0.00     0.299 C 
HETATM    4  C   UNL     1      14.333   2.064  93.717  1.00  0.00     0.299 C 
HETATM    5  C   UNL     1      15.671   4.377  92.794  1.00  0.00     0.198 C 
HETATM    6  C   UNL     1      15.755   2.439  94.124  1.00  0.00     0.198 C 
ENDROOT
BRANCH   2   7
HETATM    7  C   UNL     1      12.679   2.255  91.971  1.00  0.00     0.311 C 
BRANCH   7   8
HETATM    8  C   UNL     1      11.755   3.423  92.055  1.00  0.00    -0.030 A 
HETATM    9  C   UNL     1      11.542   4.056  93.280  1.00  0.00     0.010 A 
HETATM   10  C   UNL     1      10.677   5.147  93.360  1.00  0.00     0.021 A 
HETATM   11  C   UNL     1      10.027   5.605  92.214  1.00  0.00     0.018 A 
HETATM   12  C   UNL     1      10.239   4.974  90.990  1.00  0.00     0.021 A 
HETATM   13  C   UNL     1      11.104   3.882  90.910  1.00  0.00     0.010 A 
BRANCH  11  14
HETATM   14  C   UNL     1       9.141   6.726  92.296  1.00  0.00    -0.061 C 
HETATM   15  C   UNL     1       8.397   7.668  92.364  1.00  0.00    -0.061 C 
BRANCH  15  16
HETATM   16  C   UNL     1       7.512   8.787  92.445  1.00  0.00     0.018 A 
HETATM   17  C   UNL     1       7.476   9.565  93.603  1.00  0.00     0.022 A 
HETATM   18  C   UNL     1       6.614  10.659  93.680  1.00  0.00     0.018 A 
HETATM   19  C   UNL     1       5.809  10.951  92.600  1.00  0.00     0.032 A 
HETATM   20  C   UNL     1       5.825  10.197  91.445  1.00  0.00     0.018 A 
HETATM   21  C   UNL     1       6.686   9.103  91.366  1.00  0.00     0.022 A 
BRANCH  19  22
HETATM   22  C   UNL     1       4.889  12.115  92.683  1.00  0.00     0.252 C 
HETATM   23  O   UNL     1       4.483  12.481  93.784  1.00  0.00    -0.268 OA
HETATM   24  N   UNL     1       4.574  12.729  91.479  1.00  0.00    -0.342 N 
HETATM   25  H   UNL     1       4.968  12.387  90.611  1.00  0.00     0.163 HD
BRANCH  24  26
HETATM   26  C   UNL     1       3.715  13.883  91.398  1.00  0.00     0.199 C 
BRANCH  26  27
HETATM   27  C   UNL     1       3.654  14.480  89.987  1.00  0.00     0.145 C 
HETATM   28  C   UNL     1       4.926  15.235  89.616  1.00  0.00     0.042 C 
BRANCH  27  29
HETATM   29  O   UNL     1       3.441  13.437  89.036  1.00  0.00    -0.393 OA
HETATM   30  H   UNL     1       3.884  13.685  88.207  1.00  0.00     0.210 HD
ENDBRANCH  27  29
ENDBRANCH  26  27
BRANCH  26  31
HETATM   31  C   UNL     1       2.331  13.469  91.886  1.00  0.00     0.220 C 
HETATM   32  O   UNL     1       1.746  12.471  91.470  1.00  0.00    -0.278 OA
HETATM   33  N   UNL     1       1.815  14.356  92.799  1.00  0.00    -0.271 NA
HETATM   34  H   UNL     1       2.230  15.232  93.096  1.00  0.00     0.127 HD
HETATM   35  H   UNL     1       0.768  15.275  92.627  1.00  0.00     0.127 HD
ENDBRANCH  26  31
ENDBRANCH  24  26
ENDBRANCH  19  22
ENDBRANCH  15  16
ENDBRANCH  11  14
ENDBRANCH   7   8
ENDBRANCH   2   7
TORSDOF 9
ENDMDL
MODEL 4
REMARK VINA RESULT:      -5.8      1.759      2.499
REMARK  9 active torsions:
REMARK  status: ('A' for Active; 'I' for Inactive)
REMARK    1  A    between atoms: O_2  and  C_17 
REMARK    2  A    between atoms: N_5  and  C_10 
REMARK    3  A    between atoms: N_6  and  C_14 
REMARK       I    between atoms: N_6  and  C_23 
REMARK       I    between atoms: N_7  and  C_22 
REMARK    4  A    between atoms: C_10  and  C_13 
REMARK    5  A    between atoms: C_14  and  C_17 
REMARK    6  A    between atoms: C_14  and  C_22 
REMARK    7  A    between atoms: C_20  and  C_25 
REMARK    8  A    between atoms: C_23  and  C_24 
REMARK    9  A    between atoms: C_28  and  C_31 
ROOT
HETATM    1  O   UNL     1      15.635   4.323  93.484  1.00  0.00    -0.388 OA
HETATM    2  N   UNL     1      13.770   2.618  92.173  1.00  0.00     0.096 N 
HETATM    3  C   UNL     1      13.949   4.018  91.764  1.00  0.00     0.299 C 
HETATM    4  C   UNL     1      14.076   2.468  93.602  1.00  0.00     0.299 C 
HETATM    5  C   UNL     1      15.370   4.473  92.088  1.00  0.00     0.198 C 
HETATM    6  C   UNL     1      15.492   2.959  93.883  1.00  0.00     0.198 C 
ENDROOT
BRANCH   2   7
HETATM    7  C   UNL     1      12.411   2.164  91.882  1.00  0.00     0.311 C 
BRANCH   7   8
HETATM    8  C   UNL     1      11.446   3.295  91.770  1.00  0.00    -0.030 A 
HETATM    9  C   UNL     1      11.111   4.038  92.902  1.00  0.00     0.010 A 
HETATM   10  C   UNL     1      10.206   5.095  92.799  1.00  0.00     0.021 A 
HETATM   11  C   UNL     1       9.640   5.409  91.564  1.00  0.00     0.018 A 
HETATM   12  C   UNL     1       9.974   4.667  90.433  1.00  0.00     0.021 A 
HETATM   13  C   UNL     1      10.878   3.610  90.536  1.00  0.00     0.010 A 
BRANCH  11  14
HETATM   14  C   UNL     1       8.714   6.494  91.458  1.00  0.00    -0.061 C 
HETATM   15  C   UNL     1       7.936   7.407  91.369  1.00  0.00    -0.061 C 
BRANCH  15  16
HETATM   16  C   UNL     1       7.010   8.491  91.262  1.00  0.00     0.018 A 
HETATM   17  C   UNL     1       5.871   8.516  92.068  1.00  0.00     0.022 A 
HETATM   18  C   UNL     1       4.969   9.575  91.966  1.00  0.00     0.018 A 
HETATM   19  C   UNL     1       5.227  10.585  91.062  1.00  0.00     0.032 A 
HETATM   20  C   UNL     1       6.345  10.583  90.254  1.00  0.00     0.018 A 
HETATM   21  C   UNL     1       7.247   9.524  90.356  1.00  0.00     0.022 A 
BRANCH  19  22
HETATM   22  C   UNL     1       4.265  11.712  90.952  1.00  0.00     0.252 C 
HETATM   23  O   UNL     1       3.202  11.539  90.360  1.00  0.00    -0.268 OA
HETATM   24  N   UNL     1       4.645  12.898  91.566  1.00  0.00    -0.342 N 
HETATM   25  H   UNL     1       5.528  12.960  92.059  1.00  0.00     0.163 HD
BRANCH  24  26
HETATM   26  C   UNL     1       3.810  14.072  91.567  1.00  0.00     0.199 C 
BRANCH  26  27
HETATM   27  C   UNL     1       3.714  14.734  90.187  1.00  0.00     0.145 C 
HETATM   28  C   UNL     1       5.067  14.838  89.493  1.00  0.00     0.042 C 
BRANCH  27  29
HETATM   29  O   UNL     1       2.825  13.984  89.359  1.00  0.00    -0.393 OA
HETATM   30  H   UNL     1       2.719  14.459  88.518  1.00  0.00     0.210 HD
ENDBRANCH  27  29
ENDBRANCH  26  27
BRANCH  26  31
HETATM   31  C   UNL     1       2.435  13.665  92.085  1.00  0.00     0.220 C 
HETATM   32  O   UNL     1       1.387  14.122  91.631  1.00  0.00    -0.278 OA
HETATM   33  N   UNL     1       2.515  12.773  93.126  1.00  0.00    -0.271 NA
HETATM   34  H   UNL     1       3.359  12.446  93.581  1.00  0.00     0.127 HD
HETATM   35  H   UNL     1       2.245  12.993  94.486  1.00  0.00     0.127 HD
ENDBRANCH  26  31
ENDBRANCH  24  26
ENDBRANCH  19  22
ENDBRANCH  15  16
ENDBRANCH  11  14
ENDBRANCH   7   8
ENDBRANCH   2   7
TORSDOF 9
ENDMDL
MODEL 5
REMARK VINA RESULT:      -5.3      2.532     12.298
REMARK  9 active torsions:
REMARK  status: ('A' for Active; 'I' for Inactive)
REMARK    1  A    between atoms: O_2  and  C_17 
REMARK    2  A    between atoms: N_5  and  C_10 
REMARK    3  A    between atoms: N_6  and  C_14 
REMARK       I    between atoms: N_6  and  C_23 
REMARK       I    between atoms: N_7  and  C_22 
REMARK    4  A    between atoms: C_10  and  C_13 
REMARK    5  A    between atoms: C_14  and  C_17 
REMARK    6  A    between atoms: C_14  and  C_22 
REMARK    7  A    between atoms: C_20  and  C_25 
REMARK    8  A    between atoms: C_23  and  C_24 
REMARK    9  A    between atoms: C_28  and  C_31 
ROOT
HETATM    1  O   UNL     1       4.354  14.451  89.693  1.00  0.00    -0.388 OA
HETATM    2  N   UNL     1       3.256  13.643  92.192  1.00  0.00     0.096 N 
HETATM    3  C   UNL     1       4.623  14.173  92.089  1.00  0.00     0.299 C 
HETATM    4  C   UNL     1       2.877  12.982  90.936  1.00  0.00     0.299 C 
HETATM    5  C   UNL     1       4.720  15.124  90.899  1.00  0.00     0.198 C 
HETATM    6  C   UNL     1       3.016  13.959  89.774  1.00  0.00     0.198 C 
ENDROOT
BRANCH   2   7
HETATM    7  C   UNL     1       3.143  12.720  93.320  1.00  0.00     0.311 C 
BRANCH   7   8
HETATM    8  C   UNL     1       4.170  11.640  93.277  1.00  0.00    -0.030 A 
HETATM    9  C   UNL     1       4.020  10.572  92.392  1.00  0.00     0.010 A 
HETATM   10  C   UNL     1       4.979   9.560  92.352  1.00  0.00     0.021 A 
HETATM   11  C   UNL     1       6.088   9.618  93.195  1.00  0.00     0.018 A 
HETATM   12  C   UNL     1       6.239  10.685  94.078  1.00  0.00     0.021 A 
HETATM   13  C   UNL     1       5.280  11.696  94.120  1.00  0.00     0.010 A 
BRANCH  11  14
HETATM   14  C   UNL     1       7.073   8.581  93.152  1.00  0.00    -0.061 C 
HETATM   15  C   UNL     1       7.900   7.709  93.115  1.00  0.00    -0.061 C 
BRANCH  15  16
HETATM   16  C   UNL     1       8.885   6.674  93.071  1.00  0.00     0.018 A 
HETATM   17  C   UNL     1       8.843   5.716  92.058  1.00  0.00     0.022 A 
HETATM   18  C   UNL     1       9.806   4.707  92.014  1.00  0.00     0.018 A 
HETATM   19  C   UNL     1      10.787   4.679  92.983  1.00  0.00     0.032 A 
HETATM   20  C   UNL     1      10.849   5.614  93.995  1.00  0.00     0.018 A 
HETATM   21  C   UNL     1       9.887   6.623  94.040  1.00  0.00     0.022 A 
BRANCH  19  22
HETATM   22  C   UNL     1      11.811   3.603  92.937  1.00  0.00     0.252 C 
HETATM   23  O   UNL     1      11.457   2.448  92.713  1.00  0.00    -0.268 OA
HETATM   24  N   UNL     1      13.125   4.005  93.132  1.00  0.00    -0.342 N 
HETATM   25  H   UNL     1      13.344   4.982  93.287  1.00  0.00     0.163 HD
BRANCH  24  26
HETATM   26  C   UNL     1      14.232   3.084  93.092  1.00  0.00     0.199 C 
BRANCH  26  27
HETATM   27  C   UNL     1      14.591   2.649  91.666  1.00  0.00     0.145 C 
HETATM   28  C   UNL     1      14.250   3.712  90.628  1.00  0.00     0.042 C 
BRANCH  27  29
HETATM   29  O   UNL     1      15.987   2.360  91.592  1.00  0.00    -0.393 OA
HETATM   30  H   UNL     1      16.456   2.972  92.185  1.00  0.00     0.210 HD
ENDBRANCH  27  29
ENDBRANCH  26  27
BRANCH  26  31
HETATM   31  C   UNL     1      15.417   3.749  93.784  1.00  0.00     0.220 C 
HETATM   32  O   UNL     1      15.480   4.960  93.986  1.00  0.00    -0.278 OA
HETATM   33  N   UNL     1      16.400   2.847  94.111  1.00  0.00    -0.271 NA
HETATM   34  H   UNL     1      16.420   1.861  93.880  1.00  0.00     0.127 HD
HETATM   35  H   UNL     1      17.665   2.687  93.523  1.00  0.00     0.127 HD
ENDBRANCH  26  31
ENDBRANCH  24  26
ENDBRANCH  19  22
ENDBRANCH  15  16
ENDBRANCH  11  14
ENDBRANCH   7   8
ENDBRANCH   2   7
TORSDOF 9
ENDMDL
MODEL 6
REMARK VINA RESULT:      -5.0      1.923     12.163
REMARK  9 active torsions:
REMARK  status: ('A' for Active; 'I' for Inactive)
REMARK    1  A    between atoms: O_2  and  C_17 
REMARK    2  A    between atoms: N_5  and  C_10 
REMARK    3  A    between atoms: N_6  and  C_14 
REMARK       I    between atoms: N_6  and  C_23 
REMARK       I    between atoms: N_7  and  C_22 
REMARK    4  A    between atoms: C_10  and  C_13 
REMARK    5  A    between atoms: C_14  and  C_17 
REMARK    6  A    between atoms: C_14  and  C_22 
REMARK    7  A    between atoms: C_20  and  C_25 
REMARK    8  A    between atoms: C_23  and  C_24 
REMARK    9  A    between atoms: C_28  and  C_31 
ROOT
HETATM    1  O   UNL     1       5.590  14.631  89.178  1.00  0.00    -0.388 OA
HETATM    2  N   UNL     1       3.544  12.684  89.534  1.00  0.00     0.096 N 
HETATM    3  C   UNL     1       3.986  13.544  90.641  1.00  0.00     0.299 C 
HETATM    4  C   UNL     1       4.648  12.475  88.587  1.00  0.00     0.299 C 
HETATM    5  C   UNL     1       4.513  14.866  90.088  1.00  0.00     0.198 C 
HETATM    6  C   UNL     1       5.160  13.821  88.084  1.00  0.00     0.198 C 
ENDROOT
BRANCH   2   7
HETATM    7  C   UNL     1       3.044  11.406  90.040  1.00  0.00     0.311 C 
BRANCH   7   8
HETATM    8  C   UNL     1       4.145  10.492  90.460  1.00  0.00    -0.030 A 
HETATM    9  C   UNL     1       4.454   9.373  89.687  1.00  0.00     0.010 A 
HETATM   10  C   UNL     1       5.482   8.516  90.081  1.00  0.00     0.021 A 
HETATM   11  C   UNL     1       6.200   8.780  91.246  1.00  0.00     0.018 A 
HETATM   12  C   UNL     1       5.892   9.898  92.019  1.00  0.00     0.021 A 
HETATM   13  C   UNL     1       4.864  10.755  91.626  1.00  0.00     0.010 A 
BRANCH  11  14
HETATM   14  C   UNL     1       7.256   7.902  91.649  1.00  0.00    -0.061 C 
HETATM   15  C   UNL     1       8.144   7.165  91.987  1.00  0.00    -0.061 C 
BRANCH  15  16
HETATM   16  C   UNL     1       9.199   6.288  92.390  1.00  0.00     0.018 A 
HETATM   17  C   UNL     1       9.859   5.510  91.438  1.00  0.00     0.022 A 
HETATM   18  C   UNL     1      10.890   4.657  91.831  1.00  0.00     0.018 A 
HETATM   19  C   UNL     1      11.238   4.602  93.165  1.00  0.00     0.032 A 
HETATM   20  C   UNL     1      10.601   5.360  94.124  1.00  0.00     0.018 A 
HETATM   21  C   UNL     1       9.570   6.214  93.732  1.00  0.00     0.022 A 
BRANCH  19  22
HETATM   22  C   UNL     1      12.335   3.691  93.583  1.00  0.00     0.252 C 
HETATM   23  O   UNL     1      12.062   2.549  93.945  1.00  0.00    -0.268 OA
HETATM   24  N   UNL     1      13.620   4.211  93.506  1.00  0.00    -0.342 N 
HETATM   25  H   UNL     1      13.771   5.156  93.173  1.00  0.00     0.163 HD
BRANCH  24  26
HETATM   26  C   UNL     1      14.789   3.444  93.853  1.00  0.00     0.199 C 
BRANCH  26  27
HETATM   27  C   UNL     1      14.994   2.228  92.941  1.00  0.00     0.145 C 
HETATM   28  C   UNL     1      14.912   0.909  93.700  1.00  0.00     0.042 C 
BRANCH  27  29
HETATM   29  O   UNL     1      14.006   2.233  91.910  1.00  0.00    -0.393 OA
HETATM   30  H   UNL     1      14.389   1.817  91.119  1.00  0.00     0.210 HD
ENDBRANCH  27  29
ENDBRANCH  26  27
BRANCH  26  31
HETATM   31  C   UNL     1      15.992   4.381  93.806  1.00  0.00     0.220 C 
HETATM   32  O   UNL     1      15.891   5.590  93.605  1.00  0.00    -0.278 OA
HETATM   33  N   UNL     1      17.179   3.711  93.975  1.00  0.00    -0.271 NA
HETATM   34  H   UNL     1      17.304   2.709  94.054  1.00  0.00     0.127 HD
HETATM   35  H   UNL     1      18.171   3.442  93.019  1.00  0.00     0.127 HD
ENDBRANCH  26  31
ENDBRANCH  24  26
ENDBRANCH  19  22
ENDBRANCH  15  16
ENDBRANCH  11  14
ENDBRANCH   7   8
ENDBRANCH   2   7
TORSDOF 9
ENDMDL
MODEL 7
REMARK VINA RESULT:      -5.0      1.784     12.270
REMARK  9 active torsions:
REMARK  status: ('A' for Active; 'I' for Inactive)
REMARK    1  A    between atoms: O_2  and  C_17 
REMARK    2  A    between atoms: N_5  and  C_10 
REMARK    3  A    between atoms: N_6  and  C_14 
REMARK       I    between atoms: N_6  and  C_23 
REMARK       I    between atoms: N_7  and  C_22 
REMARK    4  A    between atoms: C_10  and  C_13 
REMARK    5  A    between atoms: C_14  and  C_17 
REMARK    6  A    between atoms: C_14  and  C_22 
REMARK    7  A    between atoms: C_20  and  C_25 
REMARK    8  A    between atoms: C_23  and  C_24 
REMARK    9  A    between atoms: C_28  and  C_31 
ROOT
HETATM    1  O   UNL     1       3.701  14.345  91.984  1.00  0.00    -0.388 OA
HETATM    2  N   UNL     1       3.604  13.080  89.436  1.00  0.00     0.096 N 
HETATM    3  C   UNL     1       2.886  12.531  90.594  1.00  0.00     0.299 C 
HETATM    4  C   UNL     1       4.795  13.815  89.884  1.00  0.00     0.299 C 
HETATM    5  C   UNL     1       2.524  13.656  91.560  1.00  0.00     0.198 C 
HETATM    6  C   UNL     1       4.389  14.909  90.866  1.00  0.00     0.198 C 
ENDROOT
BRANCH   2   7
HETATM    7  C   UNL     1       3.970  12.017  88.502  1.00  0.00     0.311 C 
BRANCH   7   8
HETATM    8  C   UNL     1       4.933  11.046  89.095  1.00  0.00    -0.030 A 
HETATM    9  C   UNL     1       6.292  11.359  89.150  1.00  0.00     0.010 A 
HETATM   10  C   UNL     1       7.195  10.450  89.703  1.00  0.00     0.021 A 
HETATM   11  C   UNL     1       6.737   9.232  90.203  1.00  0.00     0.018 A 
HETATM   12  C   UNL     1       5.381   8.919  90.149  1.00  0.00     0.021 A 
HETATM   13  C   UNL     1       4.478   9.827  89.595  1.00  0.00     0.010 A 
BRANCH  11  14
HETATM   14  C   UNL     1       7.663   8.301  90.773  1.00  0.00    -0.061 C 
HETATM   15  C   UNL     1       8.440   7.518  91.251  1.00  0.00    -0.061 C 
BRANCH  15  16
HETATM   16  C   UNL     1       9.364   6.587  91.820  1.00  0.00     0.018 A 
HETATM   17  C   UNL     1      10.136   5.775  90.988  1.00  0.00     0.022 A 
HETATM   18  C   UNL     1      11.039   4.869  91.543  1.00  0.00     0.018 A 
HETATM   19  C   UNL     1      11.152   4.796  92.916  1.00  0.00     0.032 A 
HETATM   20  C   UNL     1      10.401   5.587  93.759  1.00  0.00     0.018 A 
HETATM   21  C   UNL     1       9.496   6.494  93.206  1.00  0.00     0.022 A 
BRANCH  19  22
HETATM   22  C   UNL     1      12.113   3.829  93.506  1.00  0.00     0.252 C 
HETATM   23  O   UNL     1      11.701   2.745  93.911  1.00  0.00    -0.268 OA
HETATM   24  N   UNL     1      13.441   4.231  93.533  1.00  0.00    -0.342 N 
HETATM   25  H   UNL     1      13.712   5.133  93.157  1.00  0.00     0.163 HD
BRANCH  24  26
HETATM   26  C   UNL     1      14.494   3.396  94.051  1.00  0.00     0.199 C 
BRANCH  26  27
HETATM   27  C   UNL     1      14.521   2.005  93.405  1.00  0.00     0.145 C 
HETATM   28  C   UNL     1      14.946   2.049  91.942  1.00  0.00     0.042 C 
BRANCH  27  29
HETATM   29  O   UNL     1      15.422   1.162  94.124  1.00  0.00    -0.393 OA
HETATM   30  H   UNL     1      15.243   0.241  93.872  1.00  0.00     0.210 HD
ENDBRANCH  27  29
ENDBRANCH  26  27
BRANCH  26  31
HETATM   31  C   UNL     1      15.816   4.129  93.844  1.00  0.00     0.220 C 
HETATM   32  O   UNL     1      16.909   3.572  93.914  1.00  0.00    -0.278 OA
HETATM   33  N   UNL     1      15.634   5.471  93.612  1.00  0.00    -0.271 NA
HETATM   34  H   UNL     1      14.756   5.977  93.636  1.00  0.00     0.127 HD
HETATM   35  H   UNL     1      15.915   6.549  94.466  1.00  0.00     0.127 HD
ENDBRANCH  26  31
ENDBRANCH  24  26
ENDBRANCH  19  22
ENDBRANCH  15  16
ENDBRANCH  11  14
ENDBRANCH   7   8
ENDBRANCH   2   7
TORSDOF 9
ENDMDL
MODEL 8
REMARK VINA RESULT:      -4.9      2.215     12.316
REMARK  9 active torsions:
REMARK  status: ('A' for Active; 'I' for Inactive)
REMARK    1  A    between atoms: O_2  and  C_17 
REMARK    2  A    between atoms: N_5  and  C_10 
REMARK    3  A    between atoms: N_6  and  C_14 
REMARK       I    between atoms: N_6  and  C_23 
REMARK       I    between atoms: N_7  and  C_22 
REMARK    4  A    between atoms: C_10  and  C_13 
REMARK    5  A    between atoms: C_14  and  C_17 
REMARK    6  A    between atoms: C_14  and  C_22 
REMARK    7  A    between atoms: C_20  and  C_25 
REMARK    8  A    between atoms: C_23  and  C_24 
REMARK    9  A    between atoms: C_28  and  C_31 
ROOT
HETATM    1  O   UNL     1       3.016  14.544  93.189  1.00  0.00    -0.388 OA
HETATM    2  N   UNL     1       2.959  13.377  90.594  1.00  0.00     0.096 N 
HETATM    3  C   UNL     1       1.878  13.148  91.563  1.00  0.00     0.299 C 
HETATM    4  C   UNL     1       4.225  13.621  91.299  1.00  0.00     0.299 C 
HETATM    5  C   UNL     1       1.774  14.338  92.513  1.00  0.00     0.198 C 
HETATM    6  C   UNL     1       4.066  14.799  92.255  1.00  0.00     0.198 C 
ENDROOT
BRANCH   2   7
HETATM    7  C   UNL     1       3.084  12.243  89.679  1.00  0.00     0.311 C 
BRANCH   7   8
HETATM    8  C   UNL     1       4.162  11.299  90.089  1.00  0.00    -0.030 A 
HETATM    9  C   UNL     1       5.459  11.470  89.605  1.00  0.00     0.010 A 
HETATM   10  C   UNL     1       6.468  10.586  89.986  1.00  0.00     0.021 A 
HETATM   11  C   UNL     1       6.180   9.533  90.853  1.00  0.00     0.018 A 
HETATM   12  C   UNL     1       4.885   9.361  91.338  1.00  0.00     0.021 A 
HETATM   13  C   UNL     1       3.876  10.244  90.956  1.00  0.00     0.010 A 
BRANCH  11  14
HETATM   14  C   UNL     1       7.216   8.627  91.245  1.00  0.00    -0.061 C 
HETATM   15  C   UNL     1       8.086   7.866  91.576  1.00  0.00    -0.061 C 
BRANCH  15  16
HETATM   16  C   UNL     1       9.121   6.960  91.968  1.00  0.00     0.018 A 
HETATM   17  C   UNL     1       9.695   6.108  91.024  1.00  0.00     0.022 A 
HETATM   18  C   UNL     1      10.706   5.227  91.406  1.00  0.00     0.018 A 
HETATM   19  C   UNL     1      11.121   5.217  92.721  1.00  0.00     0.032 A 
HETATM   20  C   UNL     1      10.569   6.049  93.673  1.00  0.00     0.018 A 
HETATM   21  C   UNL     1       9.557   6.931  93.292  1.00  0.00     0.022 A 
BRANCH  19  22
HETATM   22  C   UNL     1      12.197   4.277  93.128  1.00  0.00     0.252 C 
HETATM   23  O   UNL     1      12.024   3.556  94.108  1.00  0.00    -0.268 OA
HETATM   24  N   UNL     1      13.333   4.271  92.331  1.00  0.00    -0.342 N 
HETATM   25  H   UNL     1      13.395   4.878  91.522  1.00  0.00     0.163 HD
BRANCH  24  26
HETATM   26  C   UNL     1      14.452   3.399  92.582  1.00  0.00     0.199 C 
BRANCH  26  27
HETATM   27  C   UNL     1      15.277   3.826  93.802  1.00  0.00     0.145 C 
HETATM   28  C   UNL     1      16.571   3.033  93.939  1.00  0.00     0.042 C 
BRANCH  27  29
HETATM   29  O   UNL     1      15.592   5.214  93.702  1.00  0.00    -0.393 OA
HETATM   30  H   UNL     1      15.100   5.586  92.951  1.00  0.00     0.210 HD
ENDBRANCH  27  29
ENDBRANCH  26  27
BRANCH  26  31
HETATM   31  C   UNL     1      13.910   1.982  92.747  1.00  0.00     0.220 C 
HETATM   32  O   UNL     1      14.402   1.163  93.521  1.00  0.00    -0.278 OA
HETATM   33  N   UNL     1      12.850   1.731  91.910  1.00  0.00    -0.271 NA
HETATM   34  H   UNL     1      12.478   2.351  91.199  1.00  0.00     0.127 HD
HETATM   35  H   UNL     1      12.815   0.916  90.768  1.00  0.00     0.127 HD
ENDBRANCH  26  31
ENDBRANCH  24  26
ENDBRANCH  19  22
ENDBRANCH  15  16
ENDBRANCH  11  14
ENDBRANCH   7   8
ENDBRANCH   2   7
TORSDOF 9
ENDMDL
MODEL 9
REMARK VINA RESULT:      -4.9      1.935      2.081
REMARK  9 active torsions:
REMARK  status: ('A' for Active; 'I' for Inactive)
REMARK    1  A    between atoms: O_2  and  C_17 
REMARK    2  A    between atoms: N_5  and  C_10 
REMARK    3  A    between atoms: N_6  and  C_14 
REMARK       I    between atoms: N_6  and  C_23 
REMARK       I    between atoms: N_7  and  C_22 
REMARK    4  A    between atoms: C_10  and  C_13 
REMARK    5  A    between atoms: C_14  and  C_17 
REMARK    6  A    between atoms: C_14  and  C_22 
REMARK    7  A    between atoms: C_20  and  C_25 
REMARK    8  A    between atoms: C_23  and  C_24 
REMARK    9  A    between atoms: C_28  and  C_31 
ROOT
HETATM    1  O   UNL     1      17.451   4.079  94.071  1.00  0.00    -0.388 OA
HETATM    2  N   UNL     1      14.867   3.358  93.118  1.00  0.00     0.096 N 
HETATM    3  C   UNL     1      15.055   4.465  94.066  1.00  0.00     0.299 C 
HETATM    4  C   UNL     1      15.927   2.357  93.298  1.00  0.00     0.299 C 
HETATM    5  C   UNL     1      16.443   5.074  93.882  1.00  0.00     0.198 C 
HETATM    6  C   UNL     1      17.294   3.014  93.133  1.00  0.00     0.198 C 
ENDROOT
BRANCH   2   7
HETATM    7  C   UNL     1      13.547   2.753  93.284  1.00  0.00     0.311 C 
BRANCH   7   8
HETATM    8  C   UNL     1      12.443   3.731  93.069  1.00  0.00    -0.030 A 
HETATM    9  C   UNL     1      12.258   4.308  91.812  1.00  0.00     0.010 A 
HETATM   10  C   UNL     1      11.226   5.224  91.610  1.00  0.00     0.021 A 
HETATM   11  C   UNL     1      10.379   5.562  92.665  1.00  0.00     0.018 A 
HETATM   12  C   UNL     1      10.562   4.987  93.921  1.00  0.00     0.021 A 
HETATM   13  C   UNL     1      11.594   4.071  94.123  1.00  0.00     0.010 A 
BRANCH  11  14
HETATM   14  C   UNL     1       9.320   6.501  92.457  1.00  0.00    -0.061 C 
HETATM   15  C   UNL     1       8.430   7.291  92.283  1.00  0.00    -0.061 C 
BRANCH  15  16
HETATM   16  C   UNL     1       7.372   8.230  92.075  1.00  0.00     0.018 A 
HETATM   17  C   UNL     1       6.922   8.497  90.782  1.00  0.00     0.022 A 
HETATM   18  C   UNL     1       5.888   9.411  90.579  1.00  0.00     0.018 A 
HETATM   19  C   UNL     1       5.327  10.036  91.673  1.00  0.00     0.032 A 
HETATM   20  C   UNL     1       5.753   9.788  92.961  1.00  0.00     0.018 A 
HETATM   21  C   UNL     1       6.787   8.875  93.165  1.00  0.00     0.022 A 
BRANCH  19  22
HETATM   22  C   UNL     1       4.226  11.011  91.457  1.00  0.00     0.252 C 
HETATM   23  O   UNL     1       3.135  10.606  91.064  1.00  0.00    -0.268 OA
HETATM   24  N   UNL     1       4.522  12.335  91.747  1.00  0.00    -0.342 N 
HETATM   25  H   UNL     1       5.439  12.592  92.092  1.00  0.00     0.163 HD
BRANCH  24  26
HETATM   26  C   UNL     1       3.554  13.394  91.612  1.00  0.00     0.199 C 
BRANCH  26  27
HETATM   27  C   UNL     1       3.415  14.238  92.885  1.00  0.00     0.145 C 
HETATM   28  C   UNL     1       3.981  13.537  94.115  1.00  0.00     0.042 C 
BRANCH  27  29
HETATM   29  O   UNL     1       4.090  15.483  92.708  1.00  0.00    -0.393 OA
HETATM   30  H   UNL     1       4.505  15.482  91.830  1.00  0.00     0.210 HD
ENDBRANCH  27  29
ENDBRANCH  26  27
BRANCH  26  31
HETATM   31  C   UNL     1       3.965  14.252  90.420  1.00  0.00     0.220 C 
HETATM   32  O   UNL     1       5.083  14.753  90.310  1.00  0.00    -0.278 OA
HETATM   33  N   UNL     1       2.938  14.422  89.524  1.00  0.00    -0.271 NA
HETATM   34  H   UNL     1       1.983  14.100  89.627  1.00  0.00     0.127 HD
HETATM   35  H   UNL     1       2.185  15.580  89.271  1.00  0.00     0.127 HD
ENDBRANCH  26  31
ENDBRANCH  24  26
ENDBRANCH  19  22
ENDBRANCH  15  16
ENDBRANCH  11  14
ENDBRANCH   7   8
ENDBRANCH   2   7
TORSDOF 9
ENDMDL
