MODEL 1
REMARK VINA RESULT:      -7.5      0.000      0.000
REMARK  9 active torsions:
REMARK  status: ('A' for Active; 'I' for Inactive)
REMARK    1  A    between atoms: N_3  and  C_6 
REMARK    2  A    between atoms: C_6  and  C_9 
REMARK    3  A    between atoms: C_14  and  C_17 
REMARK       I    between atoms: N_26  and  C_15 
REMARK    4  A    between atoms: C_15  and  C_16 
REMARK    5  A    between atoms: C_20  and  C_23 
REMARK    6  A    between atoms: OG1_24  and  CB_28 
REMARK    7  A    between atoms: N_26  and  CA_27 
REMARK    8  A    between atoms: CA_27  and  CB_28 
REMARK    9  A    between atoms: CA_27  and  C_30 
ROOT
HETATM    1  O   UNK A   0       1.816   8.046  87.941  1.00  0.00    -0.388 OA
HETATM    2  N   UNK A   0       4.604   7.508  87.741  1.00  0.00     0.096 N 
HETATM    3  C   UNK A   0       4.091   8.883  87.830  1.00  0.00     0.299 C 
HETATM    4  C   UNK A   0       3.606   6.639  87.103  1.00  0.00     0.299 C 
HETATM    5  C   UNK A   0       2.767   8.893  88.589  1.00  0.00     0.198 C 
HETATM    6  C   UNK A   0       2.293   6.702  87.878  1.00  0.00     0.198 C 
ENDROOT
BRANCH   2   7
HETATM    7  C   UNK A   0       5.868   7.474  87.008  1.00  0.00     0.311 C 
BRANCH   7   8
HETATM    8  C   UNK A   0       6.976   6.886  87.814  1.00  0.00    -0.030 A 
HETATM    9  C   UNK A   0       8.214   6.638  87.219  1.00  0.00     0.010 A 
HETATM   10  C   UNK A   0       9.251   6.086  87.971  1.00  0.00     0.021 A 
HETATM   11  C   UNK A   0       9.050   5.785  89.318  1.00  0.00     0.018 A 
HETATM   12  C   UNK A   0       7.814   6.032  89.913  1.00  0.00     0.021 A 
HETATM   13  C   UNK A   0       6.777   6.583  89.161  1.00  0.00     0.010 A 
BRANCH  11  14
HETATM   14  C   UNK A   0      10.114   5.220  90.090  1.00  0.00    -0.061 C 
HETATM   15  C   UNK A   0      11.008   4.746  90.739  1.00  0.00    -0.061 C 
BRANCH  15  16
HETATM   16  C   UNK A   0      12.071   4.182  91.511  1.00  0.00     0.018 A 
HETATM   17  C   UNK A   0      11.867   3.873  92.856  1.00  0.00     0.022 A 
HETATM   18  C   UNK A   0      12.903   3.320  93.608  1.00  0.00     0.018 A 
HETATM   19  C   UNK A   0      14.119   3.088  92.999  1.00  0.00     0.032 A 
HETATM   20  C   UNK A   0      14.345   3.385  91.672  1.00  0.00     0.018 A 
HETATM   21  C   UNK A   0      13.310   3.938  90.919  1.00  0.00     0.022 A 
BRANCH  19  22
HETATM   22  C   UNK A   0      15.223   2.500  93.801  1.00  0.00     0.252 C 
HETATM   23  O   UNK A   0      16.314   3.065  93.824  1.00  0.00    -0.268 OA
ENDBRANCH  19  22
ENDBRANCH  15  16
ENDBRANCH  11  14
ENDBRANCH   7   8
ENDBRANCH   2   7
TORSDOF 9
ENDMDL
