MODEL 1
REMARK VINA RESULT:      -7.0      0.000      0.000
REMARK  10 active torsions:
REMARK  status: ('A' for Active; 'I' for Inactive)
REMARK    1  A    between atoms: O_2  and  C_18 
REMARK    2  A    between atoms: O_5  and  N_8 
REMARK    3  A    between atoms: N_6  and  C_11 
REMARK    4  A    between atoms: N_7  and  C_15 
REMARK       I    between atoms: N_7  and  C_24 
REMARK       I    between atoms: N_8  and  C_23 
REMARK    5  A    between atoms: C_11  and  C_14 
REMARK    6  A    between atoms: C_15  and  C_18 
REMARK    7  A    between atoms: C_15  and  C_23 
REMARK    8  A    between atoms: C_21  and  C_26 
REMARK    9  A    between atoms: C_24  and  C_25 
REMARK   10  A    between atoms: C_29  and  C_32 
ROOT
HETATM    1  O   UNK     0      16.491   4.263  94.120  0.00  0.00    -0.388 OA
HETATM    2  N   UNK     0      14.665   2.598  92.709  0.00  0.00     0.096 N 
HETATM    3  C   UNK     0      14.532   4.061  92.703  0.00  0.00     0.299 C 
HETATM    4  C   UNK     0      15.301   2.156  93.957  0.00  0.00     0.299 C 
HETATM    5  C   UNK     0      15.902   4.706  92.896  0.00  0.00     0.198 C 
HETATM    6  C   UNK     0      16.653   2.844  94.121  0.00  0.00     0.198 C 
ENDROOT
BRANCH   2   7
HETATM    7  C   UNK     0      13.361   1.959  92.535  0.00  0.00     0.311 C 
BRANCH   7   8
HETATM    8  C   UNK     0      12.296   2.934  92.165  0.00  0.00    -0.030 A 
HETATM    9  C   UNK     0      11.605   3.623  93.163  0.00  0.00     0.010 A 
HETATM   10  C   UNK     0      10.607   4.533  92.817  0.00  0.00     0.021 A 
HETATM   11  C   UNK     0      10.301   4.756  91.475  0.00  0.00     0.018 A 
HETATM   12  C   UNK     0      10.991   4.069  90.478  0.00  0.00     0.021 A 
HETATM   13  C   UNK     0      11.989   3.157  90.823  0.00  0.00     0.010 A 
BRANCH  11  14
HETATM   14  C   UNK     0       9.278   5.692  91.121  0.00  0.00    -0.061 C 
HETATM   15  C   UNK     0       8.419   6.478  90.824  0.00  0.00    -0.061 C 
BRANCH  15  16
HETATM   16  C   UNK     0       7.396   7.412  90.471  0.00  0.00     0.018 A 
HETATM   17  C   UNK     0       6.089   7.214  90.917  0.00  0.00     0.022 A 
HETATM   18  C   UNK     0       5.091   8.127  90.574  0.00  0.00     0.018 A 
HETATM   19  C   UNK     0       5.422   9.216  89.796  0.00  0.00     0.032 A 
HETATM   20  C   UNK     0       6.706   9.434  89.342  0.00  0.00     0.018 A 
HETATM   21  C   UNK     0       7.704   8.521  89.684  0.00  0.00     0.022 A 
BRANCH  19  22
HETATM   22  C   UNK     0       4.358  10.187  89.430  0.00  0.00     0.252 C 
HETATM   23  O   UNK     0       3.509   9.863  88.603  0.00  0.00    -0.268 OA
HETATM   24  N   UNK     0       4.396  11.408  90.088  0.00  0.00    -0.341 N 
HETATM   25  H   UNK     0       5.114  11.596  90.779  0.00  0.00     0.163 HD
BRANCH  24  26
HETATM   26  C   UNK     0       3.420  12.443  89.860  0.00  0.00     0.207 C 
BRANCH  26  27
HETATM   27  C   UNK     0       2.991  13.149  91.153  0.00  0.00     0.146 C 
HETATM   28  C   UNK     0       2.003  12.324  91.969  0.00  0.00     0.042 C 
BRANCH  27  29
HETATM   29  O   UNK     0       4.142  13.420  91.953  0.00  0.00    -0.393 OA
HETATM   30  H   UNK     0       4.077  12.895  92.768  0.00  0.00     0.210 HD
ENDBRANCH  27  29
ENDBRANCH  26  27
BRANCH  26  31
HETATM   31  C   UNK     0       4.013  13.429  88.859  0.00  0.00     0.266 C 
HETATM   32  O   UNK     0       4.132  14.631  89.094  0.00  0.00    -0.269 OA
HETATM   33  N   UNK     0       4.352  12.825  87.673  0.00  0.00    -0.236 N 
HETATM   34  H   UNK     0       4.185  11.859  87.415  0.00  0.00     0.197 HD
BRANCH  33  35
HETATM   35  O   UNK     0       4.869  13.672  86.683  0.00  0.00    -0.287 OA
HETATM   36  H   UNK     0       4.957  13.044  85.945  0.00  0.00     0.244 HD
ENDBRANCH  33  35
ENDBRANCH  26  31
ENDBRANCH  24  26
ENDBRANCH  19  22
ENDBRANCH  15  16
ENDBRANCH  11  14
ENDBRANCH   7   8
ENDBRANCH   2   7
TORSDOF 10
ENDMDL
