MODEL 1
REMARK VINA RESULT:      -6.8      0.000      0.000
REMARK  11 active torsions:
REMARK  status: ('A' for Active; 'I' for Inactive)
REMARK    1  A    between atoms: O_2  and  C_18 
REMARK    2  A    between atoms: O_5  and  P_8 
REMARK    3  A    between atoms: N_6  and  C_11 
REMARK    4  A    between atoms: N_7  and  C_15 
REMARK       I    between atoms: N_7  and  C_24 
REMARK    5  A    between atoms: P_8  and  C_23 
REMARK    6  A    between atoms: C_11  and  C_14 
REMARK    7  A    between atoms: C_15  and  C_18 
REMARK    8  A    between atoms: C_15  and  C_23 
REMARK    9  A    between atoms: C_21  and  C_26 
REMARK   10  A    between atoms: C_24  and  C_25 
REMARK   11  A    between atoms: C_29  and  C_32 
ROOT
HETATM    1  O   UNL     1      16.259   3.857  94.124  1.00  0.00     0.000 OA
HETATM    2  N   UNL     1      14.286   2.566  92.529  1.00  0.00     0.000 N 
HETATM    3  C   UNL     1      14.353   4.030  92.631  1.00  0.00     0.000 C 
HETATM    4  C   UNL     1      14.802   1.952  93.760  1.00  0.00     0.000 C 
HETATM    5  C   UNL     1      15.789   4.463  92.918  1.00  0.00     0.000 C 
HETATM    6  C   UNL     1      16.225   2.433  94.022  1.00  0.00     0.000 C 
ENDROOT
BRANCH   2   7
HETATM    7  C   UNL     1      12.916   2.128  92.264  1.00  0.00     0.000 C 
BRANCH   7   8
HETATM    8  C   UNL     1      12.007   3.267  91.948  1.00  0.00     0.000 A 
HETATM    9  C   UNL     1      11.835   3.673  90.624  1.00  0.00     0.000 A 
HETATM   10  C   UNL     1      10.987   4.740  90.327  1.00  0.00     0.000 A 
HETATM   11  C   UNL     1      10.310   5.397  91.353  1.00  0.00     0.000 A 
HETATM   12  C   UNL     1      10.480   4.992  92.675  1.00  0.00     0.000 A 
HETATM   13  C   UNL     1      11.329   3.926  92.973  1.00  0.00     0.000 A 
BRANCH  11  14
HETATM   14  C   UNL     1       9.438   6.490  91.048  1.00  0.00     0.000 C 
HETATM   15  C   UNL     1       8.704   7.408  90.791  1.00  0.00     0.000 C 
BRANCH  15  16
HETATM   16  C   UNL     1       7.833   8.499  90.487  1.00  0.00     0.000 A 
HETATM   17  C   UNL     1       7.044   8.461  89.336  1.00  0.00     0.000 A 
HETATM   18  C   UNL     1       6.192   9.526  89.041  1.00  0.00     0.000 A 
HETATM   19  C   UNL     1       6.147  10.602  89.902  1.00  0.00     0.000 A 
HETATM   20  C   UNL     1       6.916  10.663  91.045  1.00  0.00     0.000 A 
HETATM   21  C   UNL     1       7.769   9.600  91.342  1.00  0.00     0.000 A 
BRANCH  19  22
HETATM   22  C   UNL     1       5.240  11.736  89.586  1.00  0.00     0.000 C 
HETATM   23  O   UNL     1       5.008  12.009  88.411  1.00  0.00     0.000 OA
HETATM   24  N   UNL     1       4.694  12.400  90.676  1.00  0.00     0.000 N 
HETATM   25  HN  UNL     1       4.912  12.102  91.620  1.00  0.00     0.000 HD
BRANCH  24  26
HETATM   26  C   UNL     1       3.779  13.503  90.533  1.00  0.00     0.000 C 
BRANCH  26  27
HETATM   27  C   UNL     1       2.425  13.243  91.206  1.00  0.00     0.000 C 
HETATM   28  C   UNL     1       2.517  12.207  92.321  1.00  0.00     0.000 C 
BRANCH  27  29
HETATM   29  O   UNL     1       1.919  14.463  91.747  1.00  0.00     0.000 OA
HETATM   30  H   UNL     1       0.986  14.548  91.487  1.00  0.00     0.000 HD
ENDBRANCH  27  29
ENDBRANCH  26  27
BRANCH  26  31
HETATM   31  C   UNL     1       4.454  14.745  91.107  1.00  0.00     0.000 C 
HETATM   32  O   UNL     1       4.519  14.975  92.313  1.00  0.00     0.000 OA
BRANCH  31  33
HETATM   33  P   UNL     1       4.934  15.576  90.123  1.00  0.00     0.000 P 
HETATM   34  H   UNL     1       4.015  16.588  89.938  1.00  0.00     0.000 HD
BRANCH  33  35
HETATM   35  O   UNL     1       5.169  14.975  88.878  1.00  0.00     0.000 OA
HETATM   36  H   UNL     1       4.350  14.461  88.775  1.00  0.00     0.000 HD
ENDBRANCH  33  35
ENDBRANCH  31  33
ENDBRANCH  26  31
ENDBRANCH  24  26
ENDBRANCH  19  22
ENDBRANCH  15  16
ENDBRANCH  11  14
ENDBRANCH   7   8
ENDBRANCH   2   7
TORSDOF 11
ENDMDL
