MODEL 1
REMARK VINA RESULT:      -7.3      0.000      0.000
REMARK  9 active torsions:
REMARK  status: ('A' for Active; 'I' for Inactive)
REMARK    1  A    between atoms: O_2  and  C_17 
REMARK    2  A    between atoms: N_5  and  C_10 
REMARK    3  A    between atoms: N_6  and  C_14 
REMARK       I    between atoms: N_6  and  C_23 
REMARK       I    between atoms: N_7  and  C_22 
REMARK    4  A    between atoms: C_10  and  C_13 
REMARK    5  A    between atoms: C_14  and  C_17 
REMARK    6  A    between atoms: C_14  and  C_22 
REMARK    7  A    between atoms: C_20  and  C_25 
REMARK    8  A    between atoms: C_23  and  C_24 
REMARK    9  A    between atoms: C_28  and  C_31 
ROOT
HETATM    1  O   UNL     1      16.100   3.985  93.972  1.00  0.00    -0.388 OA
HETATM    2  N   UNL     1      14.155   2.575  92.445  1.00  0.00     0.096 N 
HETATM    3  C   UNL     1      14.302   4.033  92.342  1.00  0.00     0.299 C 
HETATM    4  C   UNL     1      14.558   2.121  93.783  1.00  0.00     0.299 C 
HETATM    5  C   UNL     1      15.740   4.432  92.663  1.00  0.00     0.198 C 
HETATM    6  C   UNL     1      15.989   2.564  94.071  1.00  0.00     0.198 C 
ENDROOT
BRANCH   2   7
HETATM    7  C   UNL     1      12.780   2.171  92.152  1.00  0.00     0.311 C 
BRANCH   7   8
HETATM    8  C   UNL     1      11.902   3.334  91.839  1.00  0.00    -0.030 A 
HETATM    9  C   UNL     1      11.399   4.126  92.873  1.00  0.00     0.010 A 
HETATM   10  C   UNL     1      10.575   5.213  92.582  1.00  0.00     0.021 A 
HETATM   11  C   UNL     1      10.256   5.509  91.257  1.00  0.00     0.018 A 
HETATM   12  C   UNL     1      10.757   4.719  90.224  1.00  0.00     0.021 A 
HETATM   13  C   UNL     1      11.580   3.632  90.515  1.00  0.00     0.010 A 
BRANCH  11  14
HETATM   14  C   UNL     1       9.412   6.625  90.959  1.00  0.00    -0.061 C 
HETATM   15  C   UNL     1       8.702   7.563  90.708  1.00  0.00    -0.061 C 
BRANCH  15  16
HETATM   16  C   UNL     1       7.859   8.678  90.410  1.00  0.00     0.018 A 
HETATM   17  C   UNL     1       6.566   8.732  90.931  1.00  0.00     0.022 A 
HETATM   18  C   UNL     1       5.745   9.822  90.643  1.00  0.00     0.018 A 
HETATM   19  C   UNL     1       6.234  10.833  89.842  1.00  0.00     0.032 A 
HETATM   20  C   UNL     1       7.508  10.802  89.315  1.00  0.00     0.018 A 
HETATM   21  C   UNL     1       8.330   9.713  89.602  1.00  0.00     0.022 A 
BRANCH  19  22
HETATM   22  C   UNL     1       5.358  11.992  89.534  1.00  0.00     0.252 C 
HETATM   23  O   UNL     1       5.211  12.339  88.364  1.00  0.00    -0.268 OA
HETATM   24  N   UNL     1       4.739  12.593  90.621  1.00  0.00    -0.342 N 
HETATM   25  H   UNL     1       4.888  12.235  91.558  1.00  0.00     0.163 HD
BRANCH  24  26
HETATM   26  C   UNL     1       3.842  13.712  90.483  1.00  0.00     0.199 C 
BRANCH  26  27
HETATM   27  C   UNL     1       2.834  13.810  91.635  1.00  0.00     0.145 C 
HETATM   28  C   UNL     1       1.993  12.547  91.786  1.00  0.00     0.042 C 
BRANCH  27  29
HETATM   29  O   UNL     1       3.529  14.053  92.858  1.00  0.00    -0.393 OA
HETATM   30  H   UNL     1       3.520  13.234  93.381  1.00  0.00     0.210 HD
ENDBRANCH  27  29
ENDBRANCH  26  27
BRANCH  26  31
HETATM   31  C   UNL     1       4.687  14.976  90.376  1.00  0.00     0.220 C 
HETATM   32  O   UNL     1       5.051  15.624  91.356  1.00  0.00    -0.278 OA
HETATM   33  N   UNL     1       4.952  15.315  89.071  1.00  0.00    -0.271 NA
HETATM   34  H   UNL     1       4.595  14.856  88.241  1.00  0.00     0.127 HD
HETATM   35  H   UNL     1       4.428  16.381  88.323  1.00  0.00     0.127 HD
ENDBRANCH  26  31
ENDBRANCH  24  26
ENDBRANCH  19  22
ENDBRANCH  15  16
ENDBRANCH  11  14
ENDBRANCH   7   8
ENDBRANCH   2   7
TORSDOF 9
ENDMDL
MODEL 2
REMARK VINA RESULT:      -6.8      1.842      2.837
REMARK  9 active torsions:
REMARK  status: ('A' for Active; 'I' for Inactive)
REMARK    1  A    between atoms: O_2  and  C_17 
REMARK    2  A    between atoms: N_5  and  C_10 
REMARK    3  A    between atoms: N_6  and  C_14 
REMARK       I    between atoms: N_6  and  C_23 
REMARK       I    between atoms: N_7  and  C_22 
REMARK    4  A    between atoms: C_10  and  C_13 
REMARK    5  A    between atoms: C_14  and  C_17 
REMARK    6  A    between atoms: C_14  and  C_22 
REMARK    7  A    between atoms: C_20  and  C_25 
REMARK    8  A    between atoms: C_23  and  C_24 
REMARK    9  A    between atoms: C_28  and  C_31 
ROOT
HETATM    1  O   UNL     1      16.512   2.831  93.693  1.00  0.00    -0.388 OA
HETATM    2  N   UNL     1      13.731   2.867  93.085  1.00  0.00     0.096 N 
HETATM    3  C   UNL     1      14.483   1.607  93.165  1.00  0.00     0.299 C 
HETATM    4  C   UNL     1      14.623   3.960  92.673  1.00  0.00     0.299 C 
HETATM    5  C   UNL     1      15.660   1.768  94.124  1.00  0.00     0.198 C 
HETATM    6  C   UNL     1      15.796   4.065  93.643  1.00  0.00     0.198 C 
ENDROOT
BRANCH   2   7
HETATM    7  C   UNL     1      12.604   2.740  92.163  1.00  0.00     0.311 C 
BRANCH   7   8
HETATM    8  C   UNL     1      11.659   3.888  92.259  1.00  0.00    -0.030 A 
HETATM    9  C   UNL     1      11.330   4.417  93.508  1.00  0.00     0.010 A 
HETATM   10  C   UNL     1      10.444   5.490  93.600  1.00  0.00     0.021 A 
HETATM   11  C   UNL     1       9.888   6.035  92.443  1.00  0.00     0.018 A 
HETATM   12  C   UNL     1      10.216   5.508  91.195  1.00  0.00     0.021 A 
HETATM   13  C   UNL     1      11.101   4.435  91.103  1.00  0.00     0.010 A 
BRANCH  11  14
HETATM   14  C   UNL     1       8.981   7.137  92.537  1.00  0.00    -0.061 C 
HETATM   15  C   UNL     1       8.218   8.063  92.617  1.00  0.00    -0.061 C 
BRANCH  15  16
HETATM   16  C   UNL     1       7.311   9.164  92.712  1.00  0.00     0.018 A 
HETATM   17  C   UNL     1       6.690   9.656  91.563  1.00  0.00     0.022 A 
HETATM   18  C   UNL     1       5.803  10.729  91.657  1.00  0.00     0.018 A 
HETATM   19  C   UNL     1       5.557  11.284  92.895  1.00  0.00     0.032 A 
HETATM   20  C   UNL     1       6.158  10.816  94.044  1.00  0.00     0.018 A 
HETATM   21  C   UNL     1       7.045   9.744  93.952  1.00  0.00     0.022 A 
BRANCH  19  22
HETATM   22  C   UNL     1       4.613  12.428  92.993  1.00  0.00     0.252 C 
HETATM   23  O   UNL     1       4.178  12.753  94.095  1.00  0.00    -0.268 OA
HETATM   24  N   UNL     1       4.310  13.071  91.801  1.00  0.00    -0.342 N 
HETATM   25  H   UNL     1       4.728  12.761  90.931  1.00  0.00     0.163 HD
BRANCH  24  26
HETATM   26  C   UNL     1       3.431  14.210  91.736  1.00  0.00     0.199 C 
BRANCH  26  27
HETATM   27  C   UNL     1       3.528  14.960  90.401  1.00  0.00     0.145 C 
HETATM   28  C   UNL     1       4.902  15.583  90.180  1.00  0.00     0.042 C 
BRANCH  27  29
HETATM   29  O   UNL     1       3.249  14.061  89.328  1.00  0.00    -0.393 OA
HETATM   30  H   UNL     1       2.681  13.349  89.667  1.00  0.00     0.210 HD
ENDBRANCH  27  29
ENDBRANCH  26  27
BRANCH  26  31
HETATM   31  C   UNL     1       2.011  13.718  91.994  1.00  0.00     0.220 C 
HETATM   32  O   UNL     1       1.597  12.629  91.600  1.00  0.00    -0.278 OA
HETATM   33  N   UNL     1       1.256  14.644  92.673  1.00  0.00    -0.271 NA
HETATM   34  H   UNL     1       1.536  15.582  92.933  1.00  0.00     0.127 HD
HETATM   35  H   UNL     1       0.201  15.433  92.188  1.00  0.00     0.127 HD
ENDBRANCH  26  31
ENDBRANCH  24  26
ENDBRANCH  19  22
ENDBRANCH  15  16
ENDBRANCH  11  14
ENDBRANCH   7   8
ENDBRANCH   2   7
TORSDOF 9
ENDMDL
MODEL 3
REMARK VINA RESULT:      -6.6      1.438      2.048
REMARK  9 active torsions:
REMARK  status: ('A' for Active; 'I' for Inactive)
REMARK    1  A    between atoms: O_2  and  C_17 
REMARK    2  A    between atoms: N_5  and  C_10 
REMARK    3  A    between atoms: N_6  and  C_14 
REMARK       I    between atoms: N_6  and  C_23 
REMARK       I    between atoms: N_7  and  C_22 
REMARK    4  A    between atoms: C_10  and  C_13 
REMARK    5  A    between atoms: C_14  and  C_17 
REMARK    6  A    between atoms: C_14  and  C_22 
REMARK    7  A    between atoms: C_20  and  C_25 
REMARK    8  A    between atoms: C_23  and  C_24 
REMARK    9  A    between atoms: C_28  and  C_31 
ROOT
HETATM    1  O   UNL     1      16.374   3.232  93.802  1.00  0.00    -0.388 OA
HETATM    2  N   UNL     1      13.763   2.922  92.712  1.00  0.00     0.096 N 
HETATM    3  C   UNL     1      14.625   1.763  92.981  1.00  0.00     0.299 C 
HETATM    4  C   UNL     1      14.585   4.103  92.415  1.00  0.00     0.299 C 
HETATM    5  C   UNL     1      15.584   2.086  94.124  1.00  0.00     0.198 C 
HETATM    6  C   UNL     1      15.544   4.371  93.570  1.00  0.00     0.198 C 
ENDROOT
BRANCH   2   7
HETATM    7  C   UNL     1      12.842   2.639  91.612  1.00  0.00     0.311 C 
BRANCH   7   8
HETATM    8  C   UNL     1      11.759   3.657  91.502  1.00  0.00    -0.030 A 
HETATM    9  C   UNL     1      11.549   4.322  90.294  1.00  0.00     0.010 A 
HETATM   10  C   UNL     1      10.537   5.276  90.190  1.00  0.00     0.021 A 
HETATM   11  C   UNL     1       9.734   5.563  91.294  1.00  0.00     0.018 A 
HETATM   12  C   UNL     1       9.942   4.898  92.501  1.00  0.00     0.021 A 
HETATM   13  C   UNL     1      10.955   3.945  92.605  1.00  0.00     0.010 A 
BRANCH  11  14
HETATM   14  C   UNL     1       8.694   6.540  91.186  1.00  0.00    -0.061 C 
HETATM   15  C   UNL     1       7.820   7.361  91.097  1.00  0.00    -0.061 C 
BRANCH  15  16
HETATM   16  C   UNL     1       6.782   8.337  90.990  1.00  0.00     0.018 A 
HETATM   17  C   UNL     1       6.913   9.567  91.637  1.00  0.00     0.022 A 
HETATM   18  C   UNL     1       5.901  10.520  91.530  1.00  0.00     0.018 A 
HETATM   19  C   UNL     1       4.781  10.224  90.781  1.00  0.00     0.032 A 
HETATM   20  C   UNL     1       4.628   9.016  90.133  1.00  0.00     0.018 A 
HETATM   21  C   UNL     1       5.639   8.062  90.239  1.00  0.00     0.022 A 
BRANCH  19  22
HETATM   22  C   UNL     1       3.703  11.240  90.670  1.00  0.00     0.252 C 
HETATM   23  O   UNL     1       2.924  11.186  89.721  1.00  0.00    -0.268 OA
HETATM   24  N   UNL     1       3.645  12.180  91.689  1.00  0.00    -0.342 N 
HETATM   25  H   UNL     1       4.308  12.147  92.455  1.00  0.00     0.163 HD
BRANCH  24  26
HETATM   26  C   UNL     1       2.642  13.213  91.735  1.00  0.00     0.199 C 
BRANCH  26  27
HETATM   27  C   UNL     1       2.547  13.887  93.110  1.00  0.00     0.145 C 
HETATM   28  C   UNL     1       3.906  14.023  93.789  1.00  0.00     0.042 C 
BRANCH  27  29
HETATM   29  O   UNL     1       1.969  15.184  92.967  1.00  0.00    -0.393 OA
HETATM   30  H   UNL     1       1.453  15.378  93.768  1.00  0.00     0.210 HD
ENDBRANCH  27  29
ENDBRANCH  26  27
BRANCH  26  31
HETATM   31  C   UNL     1       2.966  14.227  90.643  1.00  0.00     0.220 C 
HETATM   32  O   UNL     1       3.936  14.981  90.695  1.00  0.00    -0.278 OA
HETATM   33  N   UNL     1       2.035  14.217  89.633  1.00  0.00    -0.271 NA
HETATM   34  H   UNL     1       1.179  13.675  89.602  1.00  0.00     0.127 HD
HETATM   35  H   UNL     1       1.060  15.183  89.338  1.00  0.00     0.127 HD
ENDBRANCH  26  31
ENDBRANCH  24  26
ENDBRANCH  19  22
ENDBRANCH  15  16
ENDBRANCH  11  14
ENDBRANCH   7   8
ENDBRANCH   2   7
TORSDOF 9
ENDMDL
MODEL 4
REMARK VINA RESULT:      -6.6      1.460      2.008
REMARK  9 active torsions:
REMARK  status: ('A' for Active; 'I' for Inactive)
REMARK    1  A    between atoms: O_2  and  C_17 
REMARK    2  A    between atoms: N_5  and  C_10 
REMARK    3  A    between atoms: N_6  and  C_14 
REMARK       I    between atoms: N_6  and  C_23 
REMARK       I    between atoms: N_7  and  C_22 
REMARK    4  A    between atoms: C_10  and  C_13 
REMARK    5  A    between atoms: C_14  and  C_17 
REMARK    6  A    between atoms: C_14  and  C_22 
REMARK    7  A    between atoms: C_20  and  C_25 
REMARK    8  A    between atoms: C_23  and  C_24 
REMARK    9  A    between atoms: C_28  and  C_31 
ROOT
HETATM    1  O   UNL     1      16.456   4.388  93.976  1.00  0.00    -0.388 OA
HETATM    2  N   UNL     1      14.670   2.612  92.650  1.00  0.00     0.096 N 
HETATM    3  C   UNL     1      14.561   4.069  92.494  1.00  0.00     0.299 C 
HETATM    4  C   UNL     1      15.242   2.288  93.964  1.00  0.00     0.299 C 
HETATM    5  C   UNL     1      15.931   4.714  92.688  1.00  0.00     0.198 C 
HETATM    6  C   UNL     1      16.595   2.975  94.124  1.00  0.00     0.198 C 
ENDROOT
BRANCH   2   7
HETATM    7  C   UNL     1      13.366   1.974  92.479  1.00  0.00     0.311 C 
BRANCH   7   8
HETATM    8  C   UNL     1      12.283   2.960  92.202  1.00  0.00    -0.030 A 
HETATM    9  C   UNL     1      11.735   3.052  90.922  1.00  0.00     0.010 A 
HETATM   10  C   UNL     1      10.724   3.976  90.661  1.00  0.00     0.021 A 
HETATM   11  C   UNL     1      10.259   4.805  91.681  1.00  0.00     0.018 A 
HETATM   12  C   UNL     1      10.804   4.714  92.960  1.00  0.00     0.021 A 
HETATM   13  C   UNL     1      11.817   3.791  93.221  1.00  0.00     0.010 A 
BRANCH  11  14
HETATM   14  C   UNL     1       9.219   5.752  91.414  1.00  0.00    -0.061 C 
HETATM   15  C   UNL     1       8.346   6.547  91.188  1.00  0.00    -0.061 C 
BRANCH  15  16
HETATM   16  C   UNL     1       7.307   7.492  90.920  1.00  0.00     0.018 A 
HETATM   17  C   UNL     1       7.615   8.846  90.786  1.00  0.00     0.022 A 
HETATM   18  C   UNL     1       6.602   9.767  90.522  1.00  0.00     0.018 A 
HETATM   19  C   UNL     1       5.305   9.315  90.397  1.00  0.00     0.032 A 
HETATM   20  C   UNL     1       4.975   7.982  90.526  1.00  0.00     0.018 A 
HETATM   21  C   UNL     1       5.987   7.060  90.791  1.00  0.00     0.022 A 
BRANCH  19  22
HETATM   22  C   UNL     1       4.226  10.297  90.118  1.00  0.00     0.252 C 
HETATM   23  O   UNL     1       3.053   9.945  90.220  1.00  0.00    -0.268 OA
HETATM   24  N   UNL     1       4.641  11.577  89.777  1.00  0.00    -0.342 N 
HETATM   25  H   UNL     1       5.629  11.801  89.736  1.00  0.00     0.163 HD
BRANCH  24  26
HETATM   26  C   UNL     1       3.715  12.645  89.501  1.00  0.00     0.199 C 
BRANCH  26  27
HETATM   27  C   UNL     1       3.172  13.304  90.775  1.00  0.00     0.145 C 
HETATM   28  C   UNL     1       4.281  13.835  91.677  1.00  0.00     0.042 C 
BRANCH  27  29
HETATM   29  O   UNL     1       2.305  14.382  90.424  1.00  0.00    -0.393 OA
HETATM   30  H   UNL     1       1.510  14.329  90.980  1.00  0.00     0.210 HD
ENDBRANCH  27  29
ENDBRANCH  26  27
BRANCH  26  31
HETATM   31  C   UNL     1       4.426  13.660  88.612  1.00  0.00     0.220 C 
HETATM   32  O   UNL     1       4.627  14.825  88.953  1.00  0.00    -0.278 OA
HETATM   33  N   UNL     1       4.772  13.130  87.393  1.00  0.00    -0.271 NA
HETATM   34  H   UNL     1       4.544  12.206  87.046  1.00  0.00     0.127 HD
HETATM   35  H   UNL     1       4.207  13.396  86.135  1.00  0.00     0.127 HD
ENDBRANCH  26  31
ENDBRANCH  24  26
ENDBRANCH  19  22
ENDBRANCH  15  16
ENDBRANCH  11  14
ENDBRANCH   7   8
ENDBRANCH   2   7
TORSDOF 9
ENDMDL
MODEL 5
REMARK VINA RESULT:      -5.5      1.946     12.298
REMARK  9 active torsions:
REMARK  status: ('A' for Active; 'I' for Inactive)
REMARK    1  A    between atoms: O_2  and  C_17 
REMARK    2  A    between atoms: N_5  and  C_10 
REMARK    3  A    between atoms: N_6  and  C_14 
REMARK       I    between atoms: N_6  and  C_23 
REMARK       I    between atoms: N_7  and  C_22 
REMARK    4  A    between atoms: C_10  and  C_13 
REMARK    5  A    between atoms: C_14  and  C_17 
REMARK    6  A    between atoms: C_14  and  C_22 
REMARK    7  A    between atoms: C_20  and  C_25 
REMARK    8  A    between atoms: C_23  and  C_24 
REMARK    9  A    between atoms: C_28  and  C_31 
ROOT
HETATM    1  O   UNL     1       5.599  14.614  88.555  1.00  0.00    -0.388 OA
HETATM    2  N   UNL     1       3.666  13.176  90.071  1.00  0.00     0.096 N 
HETATM    3  C   UNL     1       4.367  14.340  90.628  1.00  0.00     0.299 C 
HETATM    4  C   UNL     1       4.513  12.508  89.073  1.00  0.00     0.299 C 
HETATM    5  C   UNL     1       4.770  15.290  89.503  1.00  0.00     0.198 C 
HETATM    6  C   UNL     1       4.912  13.499  87.985  1.00  0.00     0.198 C 
ENDROOT
BRANCH   2   7
HETATM    7  C   UNL     1       3.280  12.247  91.131  1.00  0.00     0.311 C 
BRANCH   7   8
HETATM    8  C   UNL     1       4.325  11.217  91.392  1.00  0.00    -0.030 A 
HETATM    9  C   UNL     1       5.337  11.470  92.318  1.00  0.00     0.010 A 
HETATM   10  C   UNL     1       6.317  10.508  92.561  1.00  0.00     0.021 A 
HETATM   11  C   UNL     1       6.283   9.292  91.879  1.00  0.00     0.018 A 
HETATM   12  C   UNL     1       5.273   9.038  90.954  1.00  0.00     0.021 A 
HETATM   13  C   UNL     1       4.293  10.000  90.710  1.00  0.00     0.010 A 
BRANCH  11  14
HETATM   14  C   UNL     1       7.287   8.304  92.130  1.00  0.00    -0.061 C 
HETATM   15  C   UNL     1       8.131   7.474  92.341  1.00  0.00    -0.061 C 
BRANCH  15  16
HETATM   16  C   UNL     1       9.135   6.487  92.591  1.00  0.00     0.018 A 
HETATM   17  C   UNL     1       9.604   5.690  91.547  1.00  0.00     0.022 A 
HETATM   18  C   UNL     1      10.586   4.730  91.791  1.00  0.00     0.018 A 
HETATM   19  C   UNL     1      11.076   4.588  93.072  1.00  0.00     0.032 A 
HETATM   20  C   UNL     1      10.629   5.364  94.121  1.00  0.00     0.018 A 
HETATM   21  C   UNL     1       9.647   6.324  93.878  1.00  0.00     0.022 A 
BRANCH  19  22
HETATM   22  C   UNL     1      12.120   3.563  93.332  1.00  0.00     0.252 C 
HETATM   23  O   UNL     1      11.837   2.374  93.208  1.00  0.00    -0.268 OA
HETATM   24  N   UNL     1      13.373   4.047  93.681  1.00  0.00    -0.342 N 
HETATM   25  H   UNL     1      13.540   5.045  93.740  1.00  0.00     0.163 HD
BRANCH  24  26
HETATM   26  C   UNL     1      14.495   3.180  93.940  1.00  0.00     0.199 C 
BRANCH  26  27
HETATM   27  C   UNL     1      14.592   2.020  92.941  1.00  0.00     0.145 C 
HETATM   28  C   UNL     1      15.424   2.375  91.714  1.00  0.00     0.042 C 
BRANCH  27  29
HETATM   29  O   UNL     1      15.172   0.885  93.583  1.00  0.00    -0.393 OA
HETATM   30  H   UNL     1      14.789   0.809  94.473  1.00  0.00     0.210 HD
ENDBRANCH  27  29
ENDBRANCH  26  27
BRANCH  26  31
HETATM   31  C   UNL     1      15.758   4.035  93.922  1.00  0.00     0.220 C 
HETATM   32  O   UNL     1      15.744   5.247  93.717  1.00  0.00    -0.278 OA
HETATM   33  N   UNL     1      16.893   3.287  94.121  1.00  0.00    -0.271 NA
HETATM   34  H   UNL     1      16.949   2.278  94.204  1.00  0.00     0.127 HD
HETATM   35  H   UNL     1      17.888   2.949  93.190  1.00  0.00     0.127 HD
ENDBRANCH  26  31
ENDBRANCH  24  26
ENDBRANCH  19  22
ENDBRANCH  15  16
ENDBRANCH  11  14
ENDBRANCH   7   8
ENDBRANCH   2   7
TORSDOF 9
ENDMDL
MODEL 6
REMARK VINA RESULT:      -5.3      1.715     12.321
REMARK  9 active torsions:
REMARK  status: ('A' for Active; 'I' for Inactive)
REMARK    1  A    between atoms: O_2  and  C_17 
REMARK    2  A    between atoms: N_5  and  C_10 
REMARK    3  A    between atoms: N_6  and  C_14 
REMARK       I    between atoms: N_6  and  C_23 
REMARK       I    between atoms: N_7  and  C_22 
REMARK    4  A    between atoms: C_10  and  C_13 
REMARK    5  A    between atoms: C_14  and  C_17 
REMARK    6  A    between atoms: C_14  and  C_22 
REMARK    7  A    between atoms: C_20  and  C_25 
REMARK    8  A    between atoms: C_23  and  C_24 
REMARK    9  A    between atoms: C_28  and  C_31 
ROOT
HETATM    1  O   UNL     1       2.729  13.541  91.850  1.00  0.00    -0.388 OA
HETATM    2  N   UNL     1       3.113  12.142  89.400  1.00  0.00     0.096 N 
HETATM    3  C   UNL     1       3.240  11.466  90.699  1.00  0.00     0.299 C 
HETATM    4  C   UNL     1       3.461  13.563  89.537  1.00  0.00     0.299 C 
HETATM    5  C   UNL     1       2.362  12.165  91.734  1.00  0.00     0.198 C 
HETATM    6  C   UNL     1       2.579  14.213  90.599  1.00  0.00     0.198 C 
ENDROOT
BRANCH   2   7
HETATM    7  C   UNL     1       3.955  11.495  88.395  1.00  0.00     0.311 C 
BRANCH   7   8
HETATM    8  C   UNL     1       4.967  10.585  89.003  1.00  0.00    -0.030 A 
HETATM    9  C   UNL     1       4.633   9.259  89.281  1.00  0.00     0.010 A 
HETATM   10  C   UNL     1       5.579   8.407  89.851  1.00  0.00     0.021 A 
HETATM   11  C   UNL     1       6.858   8.881  90.141  1.00  0.00     0.018 A 
HETATM   12  C   UNL     1       7.192  10.205  89.864  1.00  0.00     0.021 A 
HETATM   13  C   UNL     1       6.247  11.058  89.295  1.00  0.00     0.010 A 
BRANCH  11  14
HETATM   14  C   UNL     1       7.828   8.006  90.725  1.00  0.00    -0.061 C 
HETATM   15  C   UNL     1       8.644   7.272  91.215  1.00  0.00    -0.061 C 
BRANCH  15  16
HETATM   16  C   UNL     1       9.613   6.397  91.799  1.00  0.00     0.018 A 
HETATM   17  C   UNL     1      10.285   5.471  91.001  1.00  0.00     0.022 A 
HETATM   18  C   UNL     1      11.233   4.620  91.569  1.00  0.00     0.018 A 
HETATM   19  C   UNL     1      11.487   4.714  92.922  1.00  0.00     0.032 A 
HETATM   20  C   UNL     1      10.836   5.621  93.732  1.00  0.00     0.018 A 
HETATM   21  C   UNL     1       9.888   6.472  93.164  1.00  0.00     0.022 A 
BRANCH  19  22
HETATM   22  C   UNL     1      12.495   3.806  93.527  1.00  0.00     0.252 C 
HETATM   23  O   UNL     1      12.115   2.801  94.123  1.00  0.00    -0.268 OA
HETATM   24  N   UNL     1      13.824   4.164  93.345  1.00  0.00    -0.342 N 
HETATM   25  H   UNL     1      14.063   4.997  92.820  1.00  0.00     0.163 HD
BRANCH  24  26
HETATM   26  C   UNL     1      14.916   3.373  93.851  1.00  0.00     0.199 C 
BRANCH  26  27
HETATM   27  C   UNL     1      15.194   2.130  92.998  1.00  0.00     0.145 C 
HETATM   28  C   UNL     1      14.641   0.855  93.625  1.00  0.00     0.042 C 
BRANCH  27  29
HETATM   29  O   UNL     1      14.615   2.299  91.704  1.00  0.00    -0.393 OA
HETATM   30  H   UNL     1      14.142   3.148  91.691  1.00  0.00     0.210 HD
ENDBRANCH  27  29
ENDBRANCH  26  27
BRANCH  26  31
HETATM   31  C   UNL     1      16.144   4.274  93.935  1.00  0.00     0.220 C 
HETATM   32  O   UNL     1      16.088   5.496  93.810  1.00  0.00    -0.278 OA
HETATM   33  N   UNL     1      17.302   3.559  94.123  1.00  0.00    -0.271 NA
HETATM   34  H   UNL     1      17.395   2.550  94.141  1.00  0.00     0.127 HD
HETATM   35  H   UNL     1      18.339   3.323  93.208  1.00  0.00     0.127 HD
ENDBRANCH  26  31
ENDBRANCH  24  26
ENDBRANCH  19  22
ENDBRANCH  15  16
ENDBRANCH  11  14
ENDBRANCH   7   8
ENDBRANCH   2   7
TORSDOF 9
ENDMDL
MODEL 7
REMARK VINA RESULT:      -5.0      1.731      2.322
REMARK  9 active torsions:
REMARK  status: ('A' for Active; 'I' for Inactive)
REMARK    1  A    between atoms: O_2  and  C_17 
REMARK    2  A    between atoms: N_5  and  C_10 
REMARK    3  A    between atoms: N_6  and  C_14 
REMARK       I    between atoms: N_6  and  C_23 
REMARK       I    between atoms: N_7  and  C_22 
REMARK    4  A    between atoms: C_10  and  C_13 
REMARK    5  A    between atoms: C_14  and  C_17 
REMARK    6  A    between atoms: C_14  and  C_22 
REMARK    7  A    between atoms: C_20  and  C_25 
REMARK    8  A    between atoms: C_23  and  C_24 
REMARK    9  A    between atoms: C_28  and  C_31 
ROOT
HETATM    1  O   UNL     1      15.882   4.144  94.019  1.00  0.00    -0.388 OA
HETATM    2  N   UNL     1      14.140   2.685  92.305  1.00  0.00     0.096 N 
HETATM    3  C   UNL     1      14.275   4.145  92.200  1.00  0.00     0.299 C 
HETATM    4  C   UNL     1      14.400   2.253  93.685  1.00  0.00     0.299 C 
HETATM    5  C   UNL     1      15.663   4.571  92.673  1.00  0.00     0.198 C 
HETATM    6  C   UNL     1      15.783   2.723  94.123  1.00  0.00     0.198 C 
ENDROOT
BRANCH   2   7
HETATM    7  C   UNL     1      12.813   2.256  91.867  1.00  0.00     0.311 C 
BRANCH   7   8
HETATM    8  C   UNL     1      11.814   3.362  91.912  1.00  0.00    -0.030 A 
HETATM    9  C   UNL     1      11.505   4.069  90.749  1.00  0.00     0.010 A 
HETATM   10  C   UNL     1      10.573   5.105  90.791  1.00  0.00     0.021 A 
HETATM   11  C   UNL     1       9.948   5.433  91.994  1.00  0.00     0.018 A 
HETATM   12  C   UNL     1      10.256   4.727  93.156  1.00  0.00     0.021 A 
HETATM   13  C   UNL     1      11.189   3.691  93.115  1.00  0.00     0.010 A 
BRANCH  11  14
HETATM   14  C   UNL     1       8.990   6.494  92.036  1.00  0.00    -0.061 C 
HETATM   15  C   UNL     1       8.184   7.386  92.071  1.00  0.00    -0.061 C 
BRANCH  15  16
HETATM   16  C   UNL     1       7.227   8.447  92.114  1.00  0.00     0.018 A 
HETATM   17  C   UNL     1       7.132   9.255  93.248  1.00  0.00     0.022 A 
HETATM   18  C   UNL     1       6.200  10.291  93.288  1.00  0.00     0.018 A 
HETATM   19  C   UNL     1       5.384  10.497  92.195  1.00  0.00     0.032 A 
HETATM   20  C   UNL     1       5.457   9.712  91.064  1.00  0.00     0.018 A 
HETATM   21  C   UNL     1       6.390   8.675  91.022  1.00  0.00     0.022 A 
BRANCH  19  22
HETATM   22  C   UNL     1       4.389  11.600  92.240  1.00  0.00     0.252 C 
HETATM   23  O   UNL     1       3.276  11.385  92.713  1.00  0.00    -0.268 OA
HETATM   24  N   UNL     1       4.819  12.826  91.750  1.00  0.00    -0.342 N 
HETATM   25  H   UNL     1       5.762  12.935  91.397  1.00  0.00     0.163 HD
BRANCH  24  26
HETATM   26  C   UNL     1       3.979  13.997  91.748  1.00  0.00     0.199 C 
BRANCH  26  27
HETATM   27  C   UNL     1       2.828  13.900  90.739  1.00  0.00     0.145 C 
HETATM   28  C   UNL     1       3.277  13.343  89.392  1.00  0.00     0.042 C 
BRANCH  27  29
HETATM   29  O   UNL     1       1.800  13.062  91.267  1.00  0.00    -0.393 OA
HETATM   30  H   UNL     1       1.740  13.220  92.224  1.00  0.00     0.210 HD
ENDBRANCH  27  29
ENDBRANCH  26  27
BRANCH  26  31
HETATM   31  C   UNL     1       3.457  14.199  93.167  1.00  0.00     0.220 C 
HETATM   32  O   UNL     1       2.314  14.579  93.412  1.00  0.00    -0.278 OA
HETATM   33  N   UNL     1       4.419  13.945  94.114  1.00  0.00    -0.271 NA
HETATM   34  H   UNL     1       5.392  13.718  93.946  1.00  0.00     0.127 HD
HETATM   35  H   UNL     1       5.102  14.862  94.930  1.00  0.00     0.127 HD
ENDBRANCH  26  31
ENDBRANCH  24  26
ENDBRANCH  19  22
ENDBRANCH  15  16
ENDBRANCH  11  14
ENDBRANCH   7   8
ENDBRANCH   2   7
TORSDOF 9
ENDMDL
MODEL 8
REMARK VINA RESULT:      -4.7      1.469      1.978
REMARK  9 active torsions:
REMARK  status: ('A' for Active; 'I' for Inactive)
REMARK    1  A    between atoms: O_2  and  C_17 
REMARK    2  A    between atoms: N_5  and  C_10 
REMARK    3  A    between atoms: N_6  and  C_14 
REMARK       I    between atoms: N_6  and  C_23 
REMARK       I    between atoms: N_7  and  C_22 
REMARK    4  A    between atoms: C_10  and  C_13 
REMARK    5  A    between atoms: C_14  and  C_17 
REMARK    6  A    between atoms: C_14  and  C_22 
REMARK    7  A    between atoms: C_20  and  C_25 
REMARK    8  A    between atoms: C_23  and  C_24 
REMARK    9  A    between atoms: C_28  and  C_31 
ROOT
HETATM    1  O   UNL     1      16.538   2.350  92.277  1.00  0.00    -0.388 OA
HETATM    2  N   UNL     1      13.952   2.973  93.293  1.00  0.00     0.096 N 
HETATM    3  C   UNL     1      14.964   2.305  94.124  1.00  0.00     0.299 C 
HETATM    4  C   UNL     1      14.162   2.636  91.878  1.00  0.00     0.299 C 
HETATM    5  C   UNL     1      16.362   2.698  93.652  1.00  0.00     0.198 C 
HETATM    6  C   UNL     1      15.578   3.019  91.459  1.00  0.00     0.198 C 
ENDROOT
BRANCH   2   7
HETATM    7  C   UNL     1      12.604   2.603  93.721  1.00  0.00     0.311 C 
BRANCH   7   8
HETATM    8  C   UNL     1      11.590   3.633  93.358  1.00  0.00    -0.030 A 
HETATM    9  C   UNL     1      11.516   4.823  94.083  1.00  0.00     0.010 A 
HETATM   10  C   UNL     1      10.567   5.787  93.745  1.00  0.00     0.021 A 
HETATM   11  C   UNL     1       9.693   5.562  92.682  1.00  0.00     0.018 A 
HETATM   12  C   UNL     1       9.766   4.374  91.957  1.00  0.00     0.021 A 
HETATM   13  C   UNL     1      10.715   3.409  92.295  1.00  0.00     0.010 A 
BRANCH  11  14
HETATM   14  C   UNL     1       8.720   6.552  92.335  1.00  0.00    -0.061 C 
HETATM   15  C   UNL     1       7.903   7.384  92.044  1.00  0.00    -0.061 C 
BRANCH  15  16
HETATM   16  C   UNL     1       6.931   8.374  91.697  1.00  0.00     0.018 A 
HETATM   17  C   UNL     1       7.123   9.173  90.570  1.00  0.00     0.022 A 
HETATM   18  C   UNL     1       6.174  10.137  90.230  1.00  0.00     0.018 A 
HETATM   19  C   UNL     1       5.055  10.280  91.023  1.00  0.00     0.032 A 
HETATM   20  C   UNL     1       4.842   9.502  92.142  1.00  0.00     0.018 A 
HETATM   21  C   UNL     1       5.791   8.538  92.483  1.00  0.00     0.022 A 
BRANCH  19  22
HETATM   22  C   UNL     1       4.045  11.308  90.662  1.00  0.00     0.252 C 
HETATM   23  O   UNL     1       3.201  11.046  89.808  1.00  0.00    -0.268 OA
HETATM   24  N   UNL     1       4.124  12.508  91.355  1.00  0.00    -0.342 N 
HETATM   25  H   UNL     1       4.833  12.644  92.066  1.00  0.00     0.163 HD
BRANCH  24  26
HETATM   26  C   UNL     1       3.201  13.592  91.136  1.00  0.00     0.199 C 
BRANCH  26  27
HETATM   27  C   UNL     1       2.921  14.400  92.409  1.00  0.00     0.145 C 
HETATM   28  C   UNL     1       3.005  13.549  93.671  1.00  0.00     0.042 C 
BRANCH  27  29
HETATM   29  O   UNL     1       3.858  15.473  92.510  1.00  0.00    -0.393 OA
HETATM   30  H   UNL     1       4.250  15.618  91.632  1.00  0.00     0.210 HD
ENDBRANCH  27  29
ENDBRANCH  26  27
BRANCH  26  31
HETATM   31  C   UNL     1       3.776  14.476  90.033  1.00  0.00     0.220 C 
HETATM   32  O   UNL     1       4.167  15.625  90.232  1.00  0.00    -0.278 OA
HETATM   33  N   UNL     1       3.764  13.853  88.809  1.00  0.00    -0.271 NA
HETATM   34  H   UNL     1       3.368  12.945  88.594  1.00  0.00     0.127 HD
HETATM   35  H   UNL     1       2.943  14.121  87.702  1.00  0.00     0.127 HD
ENDBRANCH  26  31
ENDBRANCH  24  26
ENDBRANCH  19  22
ENDBRANCH  15  16
ENDBRANCH  11  14
ENDBRANCH   7   8
ENDBRANCH   2   7
TORSDOF 9
ENDMDL
MODEL 9
REMARK VINA RESULT:      -4.5      1.831     12.492
REMARK  9 active torsions:
REMARK  status: ('A' for Active; 'I' for Inactive)
REMARK    1  A    between atoms: O_2  and  C_17 
REMARK    2  A    between atoms: N_5  and  C_10 
REMARK    3  A    between atoms: N_6  and  C_14 
REMARK       I    between atoms: N_6  and  C_23 
REMARK       I    between atoms: N_7  and  C_22 
REMARK    4  A    between atoms: C_10  and  C_13 
REMARK    5  A    between atoms: C_14  and  C_17 
REMARK    6  A    between atoms: C_14  and  C_22 
REMARK    7  A    between atoms: C_20  and  C_25 
REMARK    8  A    between atoms: C_23  and  C_24 
REMARK    9  A    between atoms: C_28  and  C_31 
ROOT
HETATM    1  O   UNL     1       1.715  14.409  92.338  1.00  0.00    -0.388 OA
HETATM    2  N   UNL     1       3.223  12.577  90.765  1.00  0.00     0.096 N 
HETATM    3  C   UNL     1       2.726  13.842  90.206  1.00  0.00     0.299 C 
HETATM    4  C   UNL     1       2.330  12.117  91.838  1.00  0.00     0.299 C 
HETATM    5  C   UNL     1       2.594  14.882  91.315  1.00  0.00     0.198 C 
HETATM    6  C   UNL     1       2.207  13.196  92.908  1.00  0.00     0.198 C 
ENDROOT
BRANCH   2   7
HETATM    7  C   UNL     1       3.347  11.562  89.721  1.00  0.00     0.311 C 
BRANCH   7   8
HETATM    8  C   UNL     1       4.470  10.616  89.979  1.00  0.00    -0.030 A 
HETATM    9  C   UNL     1       4.566   9.970  91.213  1.00  0.00     0.010 A 
HETATM   10  C   UNL     1       5.617   9.086  91.456  1.00  0.00     0.021 A 
HETATM   11  C   UNL     1       6.569   8.846  90.466  1.00  0.00     0.018 A 
HETATM   12  C   UNL     1       6.473   9.490  89.234  1.00  0.00     0.021 A 
HETATM   13  C   UNL     1       5.423  10.375  88.990  1.00  0.00     0.010 A 
BRANCH  11  14
HETATM   14  C   UNL     1       7.646   7.938  90.716  1.00  0.00    -0.061 C 
HETATM   15  C   UNL     1       8.550   7.174  90.925  1.00  0.00    -0.061 C 
BRANCH  15  16
HETATM   16  C   UNL     1       9.625   6.265  91.174  1.00  0.00     0.018 A 
HETATM   17  C   UNL     1      10.303   5.679  90.105  1.00  0.00     0.022 A 
HETATM   18  C   UNL     1      11.354   4.794  90.348  1.00  0.00     0.018 A 
HETATM   19  C   UNL     1      11.704   4.517  91.653  1.00  0.00     0.032 A 
HETATM   20  C   UNL     1      11.049   5.083  92.726  1.00  0.00     0.018 A 
HETATM   21  C   UNL     1       9.998   5.967  92.485  1.00  0.00     0.022 A 
BRANCH  19  22
HETATM   22  C   UNL     1      12.822   3.573  91.911  1.00  0.00     0.252 C 
HETATM   23  O   UNL     1      12.819   2.474  91.362  1.00  0.00    -0.268 OA
HETATM   24  N   UNL     1      13.822   4.032  92.757  1.00  0.00    -0.342 N 
HETATM   25  H   UNL     1      13.770   4.963  93.155  1.00  0.00     0.163 HD
BRANCH  24  26
HETATM   26  C   UNL     1      14.983   3.244  93.085  1.00  0.00     0.199 C 
BRANCH  26  27
HETATM   27  C   UNL     1      15.969   3.989  93.994  1.00  0.00     0.145 C 
HETATM   28  C   UNL     1      17.397   3.474  93.853  1.00  0.00     0.042 C 
BRANCH  27  29
HETATM   29  O   UNL     1      15.945   5.382  93.684  1.00  0.00    -0.393 OA
HETATM   30  H   UNL     1      15.436   5.503  92.865  1.00  0.00     0.210 HD
ENDBRANCH  27  29
ENDBRANCH  26  27
BRANCH  26  31
HETATM   31  C   UNL     1      14.500   1.951  93.732  1.00  0.00     0.220 C 
HETATM   32  O   UNL     1      15.211   0.954  93.850  1.00  0.00    -0.278 OA
HETATM   33  N   UNL     1      13.185   2.025  94.124  1.00  0.00    -0.271 NA
HETATM   34  H   UNL     1      12.547   2.795  93.962  1.00  0.00     0.127 HD
HETATM   35  H   UNL     1      12.069   1.395  93.553  1.00  0.00     0.127 HD
ENDBRANCH  26  31
ENDBRANCH  24  26
ENDBRANCH  19  22
ENDBRANCH  15  16
ENDBRANCH  11  14
ENDBRANCH   7   8
ENDBRANCH   2   7
TORSDOF 9
ENDMDL
