MODEL 1
REMARK VINA RESULT:      -7.0      0.000      0.000
REMARK  9 active torsions:
REMARK  status: ('A' for Active; 'I' for Inactive)
REMARK    1  A    between atoms: O_2  and  C_17 
REMARK    2  A    between atoms: N_5  and  C_10 
REMARK    3  A    between atoms: N_6  and  C_14 
REMARK       I    between atoms: N_6  and  C_23 
REMARK       I    between atoms: N_7  and  C_22 
REMARK    4  A    between atoms: C_10  and  C_13 
REMARK    5  A    between atoms: C_14  and  C_17 
REMARK    6  A    between atoms: C_14  and  C_22 
REMARK    7  A    between atoms: C_20  and  C_25 
REMARK    8  A    between atoms: C_23  and  C_24 
REMARK    9  A    between atoms: C_28  and  C_31 
ROOT
HETATM    1  O   UNL     1      17.004   4.025  93.765  1.00  0.00    -0.388 OA
HETATM    2  N   UNL     1      14.469   2.855  93.208  1.00  0.00     0.096 N 
HETATM    3  C   UNL     1      15.706   2.062  93.170  1.00  0.00     0.299 C 
HETATM    4  C   UNL     1      14.759   4.256  92.874  1.00  0.00     0.299 C 
HETATM    5  C   UNL     1      16.737   2.667  94.120  1.00  0.00     0.198 C 
HETATM    6  C   UNL     1      15.812   4.809  93.829  1.00  0.00     0.198 C 
ENDROOT
BRANCH   2   7
HETATM    7  C   UNL     1      13.470   2.299  92.297  1.00  0.00     0.311 C 
BRANCH   7   8
HETATM    8  C   UNL     1      12.412   3.288  91.944  1.00  0.00    -0.030 A 
HETATM    9  C   UNL     1      11.556   3.776  92.932  1.00  0.00     0.010 A 
HETATM   10  C   UNL     1      10.564   4.699  92.602  1.00  0.00     0.021 A 
HETATM   11  C   UNL     1      10.430   5.136  91.285  1.00  0.00     0.018 A 
HETATM   12  C   UNL     1      11.284   4.649  90.297  1.00  0.00     0.021 A 
HETATM   13  C   UNL     1      12.275   3.725  90.626  1.00  0.00     0.010 A 
BRANCH  11  14
HETATM   14  C   UNL     1       9.414   6.085  90.947  1.00  0.00    -0.061 C 
HETATM   15  C   UNL     1       8.560   6.882  90.663  1.00  0.00    -0.061 C 
BRANCH  15  16
HETATM   16  C   UNL     1       7.545   7.831  90.325  1.00  0.00     0.018 A 
HETATM   17  C   UNL     1       7.215   8.847  91.223  1.00  0.00     0.022 A 
HETATM   18  C   UNL     1       6.227   9.774  90.892  1.00  0.00     0.018 A 
HETATM   19  C   UNL     1       5.593   9.666  89.672  1.00  0.00     0.032 A 
HETATM   20  C   UNL     1       5.901   8.671  88.768  1.00  0.00     0.018 A 
HETATM   21  C   UNL     1       6.889   7.743  89.098  1.00  0.00     0.022 A 
BRANCH  19  22
HETATM   22  C   UNL     1       4.539  10.652  89.321  1.00  0.00     0.252 C 
HETATM   23  O   UNL     1       3.449  10.250  88.922  1.00  0.00    -0.268 OA
HETATM   24  N   UNL     1       4.873  11.988  89.499  1.00  0.00    -0.342 N 
HETATM   25  H   UNL     1       5.785  12.245  89.856  1.00  0.00     0.163 HD
BRANCH  24  26
HETATM   26  C   UNL     1       3.951  13.061  89.226  1.00  0.00     0.199 C 
BRANCH  26  27
HETATM   27  C   UNL     1       3.356  13.672  90.501  1.00  0.00     0.145 C 
HETATM   28  C   UNL     1       2.551  12.663  91.311  1.00  0.00     0.042 C 
BRANCH  27  29
HETATM   29  O   UNL     1       4.407  14.188  91.317  1.00  0.00    -0.393 OA
HETATM   30  H   UNL     1       4.584  15.104  91.043  1.00  0.00     0.210 HD
ENDBRANCH  27  29
ENDBRANCH  26  27
BRANCH  26  31
HETATM   31  C   UNL     1       4.688  14.110  88.400  1.00  0.00     0.220 C 
HETATM   32  O   UNL     1       4.928  15.242  88.815  1.00  0.00    -0.278 OA
HETATM   33  N   UNL     1       5.008  13.651  87.145  1.00  0.00    -0.271 NA
HETATM   34  H   UNL     1       4.748  12.759  86.740  1.00  0.00     0.127 HD
HETATM   35  H   UNL     1       4.443  14.017  85.913  1.00  0.00     0.127 HD
ENDBRANCH  26  31
ENDBRANCH  24  26
ENDBRANCH  19  22
ENDBRANCH  15  16
ENDBRANCH  11  14
ENDBRANCH   7   8
ENDBRANCH   2   7
TORSDOF 9
ENDMDL
MODEL 2
REMARK VINA RESULT:      -6.5      1.856      2.949
REMARK  9 active torsions:
REMARK  status: ('A' for Active; 'I' for Inactive)
REMARK    1  A    between atoms: O_2  and  C_17 
REMARK    2  A    between atoms: N_5  and  C_10 
REMARK    3  A    between atoms: N_6  and  C_14 
REMARK       I    between atoms: N_6  and  C_23 
REMARK       I    between atoms: N_7  and  C_22 
REMARK    4  A    between atoms: C_10  and  C_13 
REMARK    5  A    between atoms: C_14  and  C_17 
REMARK    6  A    between atoms: C_14  and  C_22 
REMARK    7  A    between atoms: C_20  and  C_25 
REMARK    8  A    between atoms: C_23  and  C_24 
REMARK    9  A    between atoms: C_28  and  C_31 
ROOT
HETATM    1  O   UNL     1      16.069   3.954  93.967  1.00  0.00    -0.388 OA
HETATM    2  N   UNL     1      14.065   2.607  92.460  1.00  0.00     0.096 N 
HETATM    3  C   UNL     1      14.271   4.057  92.341  1.00  0.00     0.299 C 
HETATM    4  C   UNL     1      14.454   2.152  93.802  1.00  0.00     0.299 C 
HETATM    5  C   UNL     1      15.725   4.401  92.654  1.00  0.00     0.198 C 
HETATM    6  C   UNL     1      15.902   2.540  94.082  1.00  0.00     0.198 C 
ENDROOT
BRANCH   2   7
HETATM    7  C   UNL     1      12.676   2.255  92.174  1.00  0.00     0.311 C 
BRANCH   7   8
HETATM    8  C   UNL     1      11.768   3.437  92.229  1.00  0.00    -0.030 A 
HETATM    9  C   UNL     1      11.492   4.047  93.454  1.00  0.00     0.010 A 
HETATM   10  C   UNL     1      10.642   5.151  93.507  1.00  0.00     0.021 A 
HETATM   11  C   UNL     1      10.070   5.646  92.335  1.00  0.00     0.018 A 
HETATM   12  C   UNL     1      10.345   5.038  91.112  1.00  0.00     0.021 A 
HETATM   13  C   UNL     1      11.194   3.933  91.059  1.00  0.00     0.010 A 
BRANCH  11  14
HETATM   14  C   UNL     1       9.199   6.780  92.390  1.00  0.00    -0.061 C 
HETATM   15  C   UNL     1       8.468   7.733  92.435  1.00  0.00    -0.061 C 
BRANCH  15  16
HETATM   16  C   UNL     1       7.597   8.866  92.488  1.00  0.00     0.018 A 
HETATM   17  C   UNL     1       7.161   9.465  91.306  1.00  0.00     0.022 A 
HETATM   18  C   UNL     1       6.310  10.569  91.358  1.00  0.00     0.018 A 
HETATM   19  C   UNL     1       5.914  11.048  92.590  1.00  0.00     0.032 A 
HETATM   20  C   UNL     1       6.332  10.474  93.772  1.00  0.00     0.018 A 
HETATM   21  C   UNL     1       7.183   9.370  93.721  1.00  0.00     0.022 A 
BRANCH  19  22
HETATM   22  C   UNL     1       5.009  12.225  92.645  1.00  0.00     0.252 C 
HETATM   23  O   UNL     1       4.654  12.658  93.738  1.00  0.00    -0.268 OA
HETATM   24  N   UNL     1       4.646  12.771  91.421  1.00  0.00    -0.342 N 
HETATM   25  H   UNL     1       4.999  12.375  90.558  1.00  0.00     0.163 HD
BRANCH  24  26
HETATM   26  C   UNL     1       3.795  13.928  91.310  1.00  0.00     0.199 C 
BRANCH  26  27
HETATM   27  C   UNL     1       3.702  14.461  89.875  1.00  0.00     0.145 C 
HETATM   28  C   UNL     1       5.021  15.046  89.382  1.00  0.00     0.042 C 
BRANCH  27  29
HETATM   29  O   UNL     1       3.307  13.406  88.999  1.00  0.00    -0.393 OA
HETATM   30  H   UNL     1       2.621  13.747  88.401  1.00  0.00     0.210 HD
ENDBRANCH  27  29
ENDBRANCH  26  27
BRANCH  26  31
HETATM   31  C   UNL     1       2.420  13.548  91.851  1.00  0.00     0.220 C 
HETATM   32  O   UNL     1       1.777  12.589  91.430  1.00  0.00    -0.278 OA
HETATM   33  N   UNL     1       1.985  14.420  92.820  1.00  0.00    -0.271 NA
HETATM   34  H   UNL     1       2.448  15.268  93.126  1.00  0.00     0.127 HD
HETATM   35  H   UNL     1       0.967  15.383  92.732  1.00  0.00     0.127 HD
ENDBRANCH  26  31
ENDBRANCH  24  26
ENDBRANCH  19  22
ENDBRANCH  15  16
ENDBRANCH  11  14
ENDBRANCH   7   8
ENDBRANCH   2   7
TORSDOF 9
ENDMDL
MODEL 3
REMARK VINA RESULT:      -6.0      1.678      2.162
REMARK  9 active torsions:
REMARK  status: ('A' for Active; 'I' for Inactive)
REMARK    1  A    between atoms: O_2  and  C_17 
REMARK    2  A    between atoms: N_5  and  C_10 
REMARK    3  A    between atoms: N_6  and  C_14 
REMARK       I    between atoms: N_6  and  C_23 
REMARK       I    between atoms: N_7  and  C_22 
REMARK    4  A    between atoms: C_10  and  C_13 
REMARK    5  A    between atoms: C_14  and  C_17 
REMARK    6  A    between atoms: C_14  and  C_22 
REMARK    7  A    between atoms: C_20  and  C_25 
REMARK    8  A    between atoms: C_23  and  C_24 
REMARK    9  A    between atoms: C_28  and  C_31 
ROOT
HETATM    1  O   UNL     1      16.306   2.992  93.868  1.00  0.00    -0.388 OA
HETATM    2  N   UNL     1      13.732   2.886  92.657  1.00  0.00     0.096 N 
HETATM    3  C   UNL     1      14.503   1.665  92.931  1.00  0.00     0.299 C 
HETATM    4  C   UNL     1      14.643   4.015  92.428  1.00  0.00     0.299 C 
HETATM    5  C   UNL     1      15.427   1.894  94.124  1.00  0.00     0.198 C 
HETATM    6  C   UNL     1      15.565   4.189  93.631  1.00  0.00     0.198 C 
ENDROOT
BRANCH   2   7
HETATM    7  C   UNL     1      12.846   2.692  91.510  1.00  0.00     0.311 C 
BRANCH   7   8
HETATM    8  C   UNL     1      11.708   3.654  91.503  1.00  0.00    -0.030 A 
HETATM    9  C   UNL     1      11.199   4.123  90.291  1.00  0.00     0.010 A 
HETATM   10  C   UNL     1      10.136   5.025  90.283  1.00  0.00     0.021 A 
HETATM   11  C   UNL     1       9.580   5.456  91.487  1.00  0.00     0.018 A 
HETATM   12  C   UNL     1      10.086   4.989  92.697  1.00  0.00     0.021 A 
HETATM   13  C   UNL     1      11.151   4.087  92.706  1.00  0.00     0.010 A 
BRANCH  11  14
HETATM   14  C   UNL     1       8.487   6.380  91.478  1.00  0.00    -0.061 C 
HETATM   15  C   UNL     1       7.569   7.156  91.470  1.00  0.00    -0.061 C 
BRANCH  15  16
HETATM   16  C   UNL     1       6.476   8.078  91.462  1.00  0.00     0.018 A 
HETATM   17  C   UNL     1       6.715   9.442  91.634  1.00  0.00     0.022 A 
HETATM   18  C   UNL     1       5.649  10.342  91.623  1.00  0.00     0.018 A 
HETATM   19  C   UNL     1       4.370   9.858  91.440  1.00  0.00     0.032 A 
HETATM   20  C   UNL     1       4.108   8.515  91.269  1.00  0.00     0.018 A 
HETATM   21  C   UNL     1       5.173   7.614  91.280  1.00  0.00     0.022 A 
BRANCH  19  22
HETATM   22  C   UNL     1       3.235  10.817  91.431  1.00  0.00     0.252 C 
HETATM   23  O   UNL     1       2.092  10.392  91.285  1.00  0.00    -0.268 OA
HETATM   24  N   UNL     1       3.566  12.152  91.617  1.00  0.00    -0.342 N 
HETATM   25  H   UNL     1       4.531  12.427  91.756  1.00  0.00     0.163 HD
BRANCH  24  26
HETATM   26  C   UNL     1       2.575  13.198  91.657  1.00  0.00     0.199 C 
BRANCH  26  27
HETATM   27  C   UNL     1       2.400  13.797  93.058  1.00  0.00     0.145 C 
HETATM   28  C   UNL     1       3.549  13.437  93.994  1.00  0.00     0.042 C 
BRANCH  27  29
HETATM   29  O   UNL     1       2.309  15.218  92.962  1.00  0.00    -0.393 OA
HETATM   30  H   UNL     1       2.570  15.480  92.063  1.00  0.00     0.210 HD
ENDBRANCH  27  29
ENDBRANCH  26  27
BRANCH  26  31
HETATM   31  C   UNL     1       2.983  14.264  90.645  1.00  0.00     0.220 C 
HETATM   32  O   UNL     1       3.953  15.003  90.805  1.00  0.00    -0.278 OA
HETATM   33  N   UNL     1       2.124  14.320  89.574  1.00  0.00    -0.271 NA
HETATM   34  H   UNL     1       1.268  13.789  89.455  1.00  0.00     0.127 HD
HETATM   35  H   UNL     1       1.179  15.311  89.265  1.00  0.00     0.127 HD
ENDBRANCH  26  31
ENDBRANCH  24  26
ENDBRANCH  19  22
ENDBRANCH  15  16
ENDBRANCH  11  14
ENDBRANCH   7   8
ENDBRANCH   2   7
TORSDOF 9
ENDMDL
MODEL 4
REMARK VINA RESULT:      -5.6      1.994      2.752
REMARK  9 active torsions:
REMARK  status: ('A' for Active; 'I' for Inactive)
REMARK    1  A    between atoms: O_2  and  C_17 
REMARK    2  A    between atoms: N_5  and  C_10 
REMARK    3  A    between atoms: N_6  and  C_14 
REMARK       I    between atoms: N_6  and  C_23 
REMARK       I    between atoms: N_7  and  C_22 
REMARK    4  A    between atoms: C_10  and  C_13 
REMARK    5  A    between atoms: C_14  and  C_17 
REMARK    6  A    between atoms: C_14  and  C_22 
REMARK    7  A    between atoms: C_20  and  C_25 
REMARK    8  A    between atoms: C_23  and  C_24 
REMARK    9  A    between atoms: C_28  and  C_31 
ROOT
HETATM    1  O   UNL     1      16.132   4.174  93.826  1.00  0.00    -0.388 OA
HETATM    2  N   UNL     1      14.140   2.639  92.493  1.00  0.00     0.096 N 
HETATM    3  C   UNL     1      14.340   4.063  92.192  1.00  0.00     0.299 C 
HETATM    4  C   UNL     1      14.524   2.359  93.883  1.00  0.00     0.299 C 
HETATM    5  C   UNL     1      15.792   4.450  92.466  1.00  0.00     0.198 C 
HETATM    6  C   UNL     1      15.969   2.786  94.117  1.00  0.00     0.198 C 
ENDROOT
BRANCH   2   7
HETATM    7  C   UNL     1      12.752   2.248  92.248  1.00  0.00     0.311 C 
BRANCH   7   8
HETATM    8  C   UNL     1      11.812   3.401  92.347  1.00  0.00    -0.030 A 
HETATM    9  C   UNL     1      11.079   3.799  91.228  1.00  0.00     0.010 A 
HETATM   10  C   UNL     1      10.201   4.879  91.319  1.00  0.00     0.021 A 
HETATM   11  C   UNL     1      10.054   5.558  92.528  1.00  0.00     0.018 A 
HETATM   12  C   UNL     1      10.786   5.161  93.646  1.00  0.00     0.021 A 
HETATM   13  C   UNL     1      11.665   4.082  93.555  1.00  0.00     0.010 A 
BRANCH  11  14
HETATM   14  C   UNL     1       9.152   6.664  92.622  1.00  0.00    -0.061 C 
HETATM   15  C   UNL     1       8.393   7.594  92.699  1.00  0.00    -0.061 C 
BRANCH  15  16
HETATM   16  C   UNL     1       7.491   8.699  92.792  1.00  0.00     0.018 A 
HETATM   17  C   UNL     1       7.660   9.654  93.795  1.00  0.00     0.022 A 
HETATM   18  C   UNL     1       6.781  10.734  93.883  1.00  0.00     0.018 A 
HETATM   19  C   UNL     1       5.755  10.834  92.967  1.00  0.00     0.032 A 
HETATM   20  C   UNL     1       5.566   9.903  91.968  1.00  0.00     0.018 A 
HETATM   21  C   UNL     1       6.444   8.823  91.878  1.00  0.00     0.022 A 
BRANCH  19  22
HETATM   22  C   UNL     1       4.817  11.983  93.063  1.00  0.00     0.252 C 
HETATM   23  O   UNL     1       4.727  12.597  94.124  1.00  0.00    -0.268 OA
HETATM   24  N   UNL     1       4.117  12.295  91.906  1.00  0.00    -0.342 N 
HETATM   25  H   UNL     1       4.262  11.759  91.059  1.00  0.00     0.163 HD
BRANCH  24  26
HETATM   26  C   UNL     1       3.190  13.396  91.833  1.00  0.00     0.199 C 
BRANCH  26  27
HETATM   27  C   UNL     1       3.785  14.708  92.359  1.00  0.00     0.145 C 
HETATM   28  C   UNL     1       4.671  15.401  91.329  1.00  0.00     0.042 C 
BRANCH  27  29
HETATM   29  O   UNL     1       2.730  15.594  92.733  1.00  0.00    -0.393 OA
HETATM   30  H   UNL     1       3.085  16.499  92.752  1.00  0.00     0.210 HD
ENDBRANCH  27  29
ENDBRANCH  26  27
BRANCH  26  31
HETATM   31  C   UNL     1       2.742  13.532  90.382  1.00  0.00     0.220 C 
HETATM   32  O   UNL     1       1.993  14.426  89.993  1.00  0.00    -0.278 OA
HETATM   33  N   UNL     1       3.239  12.526  89.588  1.00  0.00    -0.271 NA
HETATM   34  H   UNL     1       3.783  11.727  89.892  1.00  0.00     0.127 HD
HETATM   35  H   UNL     1       2.550  11.443  89.021  1.00  0.00     0.127 HD
ENDBRANCH  26  31
ENDBRANCH  24  26
ENDBRANCH  19  22
ENDBRANCH  15  16
ENDBRANCH  11  14
ENDBRANCH   7   8
ENDBRANCH   2   7
TORSDOF 9
ENDMDL
MODEL 5
REMARK VINA RESULT:      -5.4      2.275     12.228
REMARK  9 active torsions:
REMARK  status: ('A' for Active; 'I' for Inactive)
REMARK    1  A    between atoms: O_2  and  C_17 
REMARK    2  A    between atoms: N_5  and  C_10 
REMARK    3  A    between atoms: N_6  and  C_14 
REMARK       I    between atoms: N_6  and  C_23 
REMARK       I    between atoms: N_7  and  C_22 
REMARK    4  A    between atoms: C_10  and  C_13 
REMARK    5  A    between atoms: C_14  and  C_17 
REMARK    6  A    between atoms: C_14  and  C_22 
REMARK    7  A    between atoms: C_20  and  C_25 
REMARK    8  A    between atoms: C_23  and  C_24 
REMARK    9  A    between atoms: C_28  and  C_31 
ROOT
HETATM    1  O   UNL     1       3.264  14.624  93.122  1.00  0.00    -0.388 OA
HETATM    2  N   UNL     1       3.407  14.580  90.279  1.00  0.00     0.096 N 
HETATM    3  C   UNL     1       2.580  13.618  91.022  1.00  0.00     0.299 C 
HETATM    4  C   UNL     1       4.551  14.999  91.100  1.00  0.00     0.299 C 
HETATM    5  C   UNL     1       2.130  14.236  92.344  1.00  0.00     0.198 C 
HETATM    6  C   UNL     1       4.057  15.583  92.420  1.00  0.00     0.198 C 
ENDROOT
BRANCH   2   7
HETATM    7  C   UNL     1       3.858  14.005  89.013  1.00  0.00     0.311 C 
BRANCH   7   8
HETATM    8  C   UNL     1       4.720  12.805  89.209  1.00  0.00    -0.030 A 
HETATM    9  C   UNL     1       4.148  11.591  89.590  1.00  0.00     0.010 A 
HETATM   10  C   UNL     1       4.954  10.468  89.776  1.00  0.00     0.021 A 
HETATM   11  C   UNL     1       6.332  10.560  89.579  1.00  0.00     0.018 A 
HETATM   12  C   UNL     1       6.904  11.772  89.198  1.00  0.00     0.021 A 
HETATM   13  C   UNL     1       6.098  12.895  89.013  1.00  0.00     0.010 A 
BRANCH  11  14
HETATM   14  C   UNL     1       7.158   9.407  89.767  1.00  0.00    -0.061 C 
HETATM   15  C   UNL     1       7.854   8.439  89.926  1.00  0.00    -0.061 C 
BRANCH  15  16
HETATM   16  C   UNL     1       8.680   7.288  90.115  1.00  0.00     0.018 A 
HETATM   17  C   UNL     1       9.297   6.686  89.018  1.00  0.00     0.022 A 
HETATM   18  C   UNL     1      10.106   5.564  89.204  1.00  0.00     0.018 A 
HETATM   19  C   UNL     1      10.279   5.071  90.480  1.00  0.00     0.032 A 
HETATM   20  C   UNL     1       9.679   5.648  91.580  1.00  0.00     0.018 A 
HETATM   21  C   UNL     1       8.871   6.769  91.396  1.00  0.00     0.022 A 
BRANCH  19  22
HETATM   22  C   UNL     1      11.139   3.875  90.676  1.00  0.00     0.252 C 
HETATM   23  O   UNL     1      10.978   2.896  89.952  1.00  0.00    -0.268 OA
HETATM   24  N   UNL     1      12.097   3.972  91.675  1.00  0.00    -0.342 N 
HETATM   25  H   UNL     1      12.187   4.823  92.218  1.00  0.00     0.163 HD
BRANCH  24  26
HETATM   26  C   UNL     1      13.021   2.907  91.970  1.00  0.00     0.199 C 
BRANCH  26  27
HETATM   27  C   UNL     1      14.393   3.114  91.318  1.00  0.00     0.145 C 
HETATM   28  C   UNL     1      14.617   4.555  90.873  1.00  0.00     0.042 C 
BRANCH  27  29
HETATM   29  O   UNL     1      15.420   2.748  92.239  1.00  0.00    -0.393 OA
HETATM   30  H   UNL     1      15.003   2.324  93.008  1.00  0.00     0.210 HD
ENDBRANCH  27  29
ENDBRANCH  26  27
BRANCH  26  31
HETATM   31  C   UNL     1      13.139   2.799  93.487  1.00  0.00     0.220 C 
HETATM   32  O   UNL     1      14.162   2.422  94.054  1.00  0.00    -0.278 OA
HETATM   33  N   UNL     1      11.968   3.133  94.124  1.00  0.00    -0.271 NA
HETATM   34  H   UNL     1      11.083   3.361  93.686  1.00  0.00     0.127 HD
HETATM   35  H   UNL     1      11.063   2.287  94.784  1.00  0.00     0.127 HD
ENDBRANCH  26  31
ENDBRANCH  24  26
ENDBRANCH  19  22
ENDBRANCH  15  16
ENDBRANCH  11  14
ENDBRANCH   7   8
ENDBRANCH   2   7
TORSDOF 9
ENDMDL
MODEL 6
REMARK VINA RESULT:      -5.0      1.727     12.247
REMARK  9 active torsions:
REMARK  status: ('A' for Active; 'I' for Inactive)
REMARK    1  A    between atoms: O_2  and  C_17 
REMARK    2  A    between atoms: N_5  and  C_10 
REMARK    3  A    between atoms: N_6  and  C_14 
REMARK       I    between atoms: N_6  and  C_23 
REMARK       I    between atoms: N_7  and  C_22 
REMARK    4  A    between atoms: C_10  and  C_13 
REMARK    5  A    between atoms: C_14  and  C_17 
REMARK    6  A    between atoms: C_14  and  C_22 
REMARK    7  A    between atoms: C_20  and  C_25 
REMARK    8  A    between atoms: C_23  and  C_24 
REMARK    9  A    between atoms: C_28  and  C_31 
ROOT
HETATM    1  O   UNL     1       5.620  15.027  89.330  1.00  0.00    -0.388 OA
HETATM    2  N   UNL     1       3.546  13.140  89.820  1.00  0.00     0.096 N 
HETATM    3  C   UNL     1       4.004  14.066  90.865  1.00  0.00     0.299 C 
HETATM    4  C   UNL     1       4.644  12.851  88.887  1.00  0.00     0.299 C 
HETATM    5  C   UNL     1       4.550  15.340  90.224  1.00  0.00     0.198 C 
HETATM    6  C   UNL     1       5.175  14.152  88.293  1.00  0.00     0.198 C 
ENDROOT
BRANCH   2   7
HETATM    7  C   UNL     1       3.029  11.907  90.412  1.00  0.00     0.311 C 
BRANCH   7   8
HETATM    8  C   UNL     1       4.111  10.930  90.725  1.00  0.00    -0.030 A 
HETATM    9  C   UNL     1       4.319   9.831  89.891  1.00  0.00     0.010 A 
HETATM   10  C   UNL     1       5.330   8.915  90.184  1.00  0.00     0.021 A 
HETATM   11  C   UNL     1       6.132   9.100  91.310  1.00  0.00     0.018 A 
HETATM   12  C   UNL     1       5.924  10.197  92.143  1.00  0.00     0.021 A 
HETATM   13  C   UNL     1       4.914  11.113  91.851  1.00  0.00     0.010 A 
BRANCH  11  14
HETATM   14  C   UNL     1       7.169   8.161  91.609  1.00  0.00    -0.061 C 
HETATM   15  C   UNL     1       8.041   7.373  91.861  1.00  0.00    -0.061 C 
BRANCH  15  16
HETATM   16  C   UNL     1       9.078   6.435  92.161  1.00  0.00     0.018 A 
HETATM   17  C   UNL     1       9.643   6.406  93.436  1.00  0.00     0.022 A 
HETATM   18  C   UNL     1      10.653   5.489  93.730  1.00  0.00     0.018 A 
HETATM   19  C   UNL     1      11.073   4.622  92.743  1.00  0.00     0.032 A 
HETATM   20  C   UNL     1      10.531   4.631  91.475  1.00  0.00     0.018 A 
HETATM   21  C   UNL     1       9.521   5.548  91.180  1.00  0.00     0.022 A 
BRANCH  19  22
HETATM   22  C   UNL     1      12.150   3.647  93.055  1.00  0.00     0.252 C 
HETATM   23  O   UNL     1      11.846   2.500  93.374  1.00  0.00    -0.268 OA
HETATM   24  N   UNL     1      13.450   4.117  92.935  1.00  0.00    -0.342 N 
HETATM   25  H   UNL     1      13.625   5.072  92.642  1.00  0.00     0.163 HD
BRANCH  24  26
HETATM   26  C   UNL     1      14.601   3.286  93.180  1.00  0.00     0.199 C 
BRANCH  26  27
HETATM   27  C   UNL     1      14.980   2.424  91.969  1.00  0.00     0.145 C 
HETATM   28  C   UNL     1      14.724   3.135  90.644  1.00  0.00     0.042 C 
BRANCH  27  29
HETATM   29  O   UNL     1      16.361   2.072  92.047  1.00  0.00    -0.393 OA
HETATM   30  H   UNL     1      16.880   2.785  91.638  1.00  0.00     0.210 HD
ENDBRANCH  27  29
ENDBRANCH  26  27
BRANCH  26  31
HETATM   31  C   UNL     1      15.753   4.196  93.595  1.00  0.00     0.220 C 
HETATM   32  O   UNL     1      15.735   5.415  93.434  1.00  0.00    -0.278 OA
HETATM   33  N   UNL     1      16.807   3.491  94.124  1.00  0.00    -0.271 NA
HETATM   34  H   UNL     1      16.891   2.483  94.189  1.00  0.00     0.127 HD
HETATM   35  H   UNL     1      18.064   3.243  93.552  1.00  0.00     0.127 HD
ENDBRANCH  26  31
ENDBRANCH  24  26
ENDBRANCH  19  22
ENDBRANCH  15  16
ENDBRANCH  11  14
ENDBRANCH   7   8
ENDBRANCH   2   7
TORSDOF 9
ENDMDL
MODEL 7
REMARK VINA RESULT:      -4.8      1.787     12.325
REMARK  9 active torsions:
REMARK  status: ('A' for Active; 'I' for Inactive)
REMARK    1  A    between atoms: O_2  and  C_17 
REMARK    2  A    between atoms: N_5  and  C_10 
REMARK    3  A    between atoms: N_6  and  C_14 
REMARK       I    between atoms: N_6  and  C_23 
REMARK       I    between atoms: N_7  and  C_22 
REMARK    4  A    between atoms: C_10  and  C_13 
REMARK    5  A    between atoms: C_14  and  C_17 
REMARK    6  A    between atoms: C_14  and  C_22 
REMARK    7  A    between atoms: C_20  and  C_25 
REMARK    8  A    between atoms: C_23  and  C_24 
REMARK    9  A    between atoms: C_28  and  C_31 
ROOT
HETATM    1  O   UNL     1       2.818  13.524  92.364  1.00  0.00    -0.388 OA
HETATM    2  N   UNL     1       3.167  12.597  89.695  1.00  0.00     0.096 N 
HETATM    3  C   UNL     1       2.952  11.664  90.810  1.00  0.00     0.299 C 
HETATM    4  C   UNL     1       3.830  13.816  90.179  1.00  0.00     0.299 C 
HETATM    5  C   UNL     1       2.144  12.349  91.909  1.00  0.00     0.198 C 
HETATM    6  C   UNL     1       3.002  14.449  91.292  1.00  0.00     0.198 C 
ENDROOT
BRANCH   2   7
HETATM    7  C   UNL     1       3.950  11.965  88.635  1.00  0.00     0.311 C 
BRANCH   7   8
HETATM    8  C   UNL     1       4.945  10.992  89.167  1.00  0.00    -0.030 A 
HETATM    9  C   UNL     1       6.266  11.391  89.378  1.00  0.00     0.010 A 
HETATM   10  C   UNL     1       7.198  10.480  89.873  1.00  0.00     0.021 A 
HETATM   11  C   UNL     1       6.810   9.172  90.160  1.00  0.00     0.018 A 
HETATM   12  C   UNL     1       5.492   8.772  89.950  1.00  0.00     0.021 A 
HETATM   13  C   UNL     1       4.559   9.682  89.453  1.00  0.00     0.010 A 
BRANCH  11  14
HETATM   14  C   UNL     1       7.767   8.238  90.670  1.00  0.00    -0.061 C 
HETATM   15  C   UNL     1       8.570   7.454  91.100  1.00  0.00    -0.061 C 
BRANCH  15  16
HETATM   16  C   UNL     1       9.525   6.520  91.610  1.00  0.00     0.018 A 
HETATM   17  C   UNL     1      10.207   5.674  90.736  1.00  0.00     0.022 A 
HETATM   18  C   UNL     1      11.141   4.765  91.234  1.00  0.00     0.018 A 
HETATM   19  C   UNL     1      11.373   4.724  92.592  1.00  0.00     0.032 A 
HETATM   20  C   UNL     1      10.712   5.550  93.477  1.00  0.00     0.018 A 
HETATM   21  C   UNL     1       9.777   6.459  92.981  1.00  0.00     0.022 A 
BRANCH  19  22
HETATM   22  C   UNL     1      12.366   3.754  93.122  1.00  0.00     0.252 C 
HETATM   23  O   UNL     1      11.991   2.633  93.457  1.00  0.00    -0.268 OA
HETATM   24  N   UNL     1      13.680   4.198  93.176  1.00  0.00    -0.342 N 
HETATM   25  H   UNL     1      13.920   5.130  92.858  1.00  0.00     0.163 HD
BRANCH  24  26
HETATM   26  C   UNL     1      14.761   3.367  93.642  1.00  0.00     0.199 C 
BRANCH  26  27
HETATM   27  C   UNL     1      15.115   2.246  92.657  1.00  0.00     0.145 C 
HETATM   28  C   UNL     1      14.550   0.895  93.082  1.00  0.00     0.042 C 
BRANCH  27  29
HETATM   29  O   UNL     1      14.612   2.572  91.362  1.00  0.00    -0.393 OA
HETATM   30  H   UNL     1      13.734   2.974  91.468  1.00  0.00     0.210 HD
ENDBRANCH  27  29
ENDBRANCH  26  27
BRANCH  26  31
HETATM   31  C   UNL     1      15.961   4.270  93.909  1.00  0.00     0.220 C 
HETATM   32  O   UNL     1      15.892   5.498  93.894  1.00  0.00    -0.278 OA
HETATM   33  N   UNL     1      17.113   3.553  94.124  1.00  0.00    -0.271 NA
HETATM   34  H   UNL     1      17.223   2.548  94.055  1.00  0.00     0.127 HD
HETATM   35  H   UNL     1      18.225   3.416  93.278  1.00  0.00     0.127 HD
ENDBRANCH  26  31
ENDBRANCH  24  26
ENDBRANCH  19  22
ENDBRANCH  15  16
ENDBRANCH  11  14
ENDBRANCH   7   8
ENDBRANCH   2   7
TORSDOF 9
ENDMDL
MODEL 8
REMARK VINA RESULT:      -4.5      1.885     12.317
REMARK  9 active torsions:
REMARK  status: ('A' for Active; 'I' for Inactive)
REMARK    1  A    between atoms: O_2  and  C_17 
REMARK    2  A    between atoms: N_5  and  C_10 
REMARK    3  A    between atoms: N_6  and  C_14 
REMARK       I    between atoms: N_6  and  C_23 
REMARK       I    between atoms: N_7  and  C_22 
REMARK    4  A    between atoms: C_10  and  C_13 
REMARK    5  A    between atoms: C_14  and  C_17 
REMARK    6  A    between atoms: C_14  and  C_22 
REMARK    7  A    between atoms: C_20  and  C_25 
REMARK    8  A    between atoms: C_23  and  C_24 
REMARK    9  A    between atoms: C_28  and  C_31 
ROOT
HETATM    1  O   UNL     1       4.258  14.882  91.027  1.00  0.00    -0.388 OA
HETATM    2  N   UNL     1       2.523  12.631  91.172  1.00  0.00     0.096 N 
HETATM    3  C   UNL     1       3.003  13.310  92.384  1.00  0.00     0.299 C 
HETATM    4  C   UNL     1       3.508  12.774  90.091  1.00  0.00     0.299 C 
HETATM    5  C   UNL     1       3.292  14.776  92.074  1.00  0.00     0.198 C 
HETATM    6  C   UNL     1       3.787  14.251  89.836  1.00  0.00     0.198 C 
ENDROOT
BRANCH   2   7
HETATM    7  C   UNL     1       2.249  11.221  91.443  1.00  0.00     0.311 C 
BRANCH   7   8
HETATM    8  C   UNL     1       3.488  10.391  91.440  1.00  0.00    -0.030 A 
HETATM    9  C   UNL     1       3.859   9.698  90.287  1.00  0.00     0.010 A 
HETATM   10  C   UNL     1       5.016   8.920  90.284  1.00  0.00     0.021 A 
HETATM   11  C   UNL     1       5.803   8.836  91.432  1.00  0.00     0.018 A 
HETATM   12  C   UNL     1       5.433   9.528  92.584  1.00  0.00     0.021 A 
HETATM   13  C   UNL     1       4.275  10.306  92.588  1.00  0.00     0.010 A 
BRANCH  11  14
HETATM   14  C   UNL     1       6.991   8.040  91.428  1.00  0.00    -0.061 C 
HETATM   15  C   UNL     1       7.990   7.370  91.425  1.00  0.00    -0.061 C 
BRANCH  15  16
HETATM   16  C   UNL     1       9.177   6.573  91.422  1.00  0.00     0.018 A 
HETATM   17  C   UNL     1       9.871   6.353  92.611  1.00  0.00     0.022 A 
HETATM   18  C   UNL     1      11.028   5.573  92.608  1.00  0.00     0.018 A 
HETATM   19  C   UNL     1      11.463   5.032  91.417  1.00  0.00     0.032 A 
HETATM   20  C   UNL     1      10.795   5.235  90.228  1.00  0.00     0.018 A 
HETATM   21  C   UNL     1       9.638   6.014  90.230  1.00  0.00     0.022 A 
BRANCH  19  22
HETATM   22  C   UNL     1      12.697   4.203  91.414  1.00  0.00     0.252 C 
HETATM   23  O   UNL     1      13.060   3.673  90.367  1.00  0.00    -0.268 OA
HETATM   24  N   UNL     1      13.371   4.112  92.623  1.00  0.00    -0.342 N 
HETATM   25  H   UNL     1      13.024   4.598  93.442  1.00  0.00     0.163 HD
BRANCH  24  26
HETATM   26  C   UNL     1      14.595   3.366  92.775  1.00  0.00     0.199 C 
BRANCH  26  27
HETATM   27  C   UNL     1      15.624   4.086  93.655  1.00  0.00     0.145 C 
HETATM   28  C   UNL     1      16.954   3.344  93.723  1.00  0.00     0.042 C 
BRANCH  27  29
HETATM   29  O   UNL     1      15.851   5.400  93.146  1.00  0.00    -0.393 OA
HETATM   30  H   UNL     1      15.007   5.882  93.162  1.00  0.00     0.210 HD
ENDBRANCH  27  29
ENDBRANCH  26  27
BRANCH  26  31
HETATM   31  C   UNL     1      14.238   1.997  93.345  1.00  0.00     0.220 C 
HETATM   32  O   UNL     1      14.882   0.979  93.096  1.00  0.00    -0.278 OA
HETATM   33  N   UNL     1      13.107   2.038  94.124  1.00  0.00    -0.271 NA
HETATM   34  H   UNL     1      12.504   2.838  94.277  1.00  0.00     0.127 HD
HETATM   35  H   UNL     1      11.830   1.530  93.834  1.00  0.00     0.127 HD
ENDBRANCH  26  31
ENDBRANCH  24  26
ENDBRANCH  19  22
ENDBRANCH  15  16
ENDBRANCH  11  14
ENDBRANCH   7   8
ENDBRANCH   2   7
TORSDOF 9
ENDMDL
MODEL 9
REMARK VINA RESULT:      -4.4      1.717     12.381
REMARK  9 active torsions:
REMARK  status: ('A' for Active; 'I' for Inactive)
REMARK    1  A    between atoms: O_2  and  C_17 
REMARK    2  A    between atoms: N_5  and  C_10 
REMARK    3  A    between atoms: N_6  and  C_14 
REMARK       I    between atoms: N_6  and  C_23 
REMARK       I    between atoms: N_7  and  C_22 
REMARK    4  A    between atoms: C_10  and  C_13 
REMARK    5  A    between atoms: C_14  and  C_17 
REMARK    6  A    between atoms: C_14  and  C_22 
REMARK    7  A    between atoms: C_20  and  C_25 
REMARK    8  A    between atoms: C_23  and  C_24 
REMARK    9  A    between atoms: C_28  and  C_31 
ROOT
HETATM    1  O   UNL     1       5.385  14.570  88.942  1.00  0.00    -0.388 OA
HETATM    2  N   UNL     1       3.531  12.694  90.012  1.00  0.00     0.096 N 
HETATM    3  C   UNL     1       3.939  13.886  90.768  1.00  0.00     0.299 C 
HETATM    4  C   UNL     1       4.611  12.277  89.107  1.00  0.00     0.299 C 
HETATM    5  C   UNL     1       4.329  15.003  89.802  1.00  0.00     0.198 C 
HETATM    6  C   UNL     1       4.985  13.430  88.181  1.00  0.00     0.198 C 
ENDROOT
BRANCH   2   7
HETATM    7  C   UNL     1       3.163  11.608  90.918  1.00  0.00     0.311 C 
BRANCH   7   8
HETATM    8  C   UNL     1       4.283  10.648  91.138  1.00  0.00    -0.030 A 
HETATM    9  C   UNL     1       5.490  11.097  91.675  1.00  0.00     0.010 A 
HETATM   10  C   UNL     1       6.539  10.201  91.879  1.00  0.00     0.021 A 
HETATM   11  C   UNL     1       6.379   8.856  91.548  1.00  0.00     0.018 A 
HETATM   12  C   UNL     1       5.174   8.406  91.011  1.00  0.00     0.021 A 
HETATM   13  C   UNL     1       4.125   9.302  90.806  1.00  0.00     0.010 A 
BRANCH  11  14
HETATM   14  C   UNL     1       7.455   7.936  91.759  1.00  0.00    -0.061 C 
HETATM   15  C   UNL     1       8.359   7.163  91.937  1.00  0.00    -0.061 C 
BRANCH  15  16
HETATM   16  C   UNL     1       9.433   6.244  92.149  1.00  0.00     0.018 A 
HETATM   17  C   UNL     1       9.979   5.550  91.069  1.00  0.00     0.022 A 
HETATM   18  C   UNL     1      11.029   4.655  91.276  1.00  0.00     0.018 A 
HETATM   19  C   UNL     1      11.510   4.476  92.556  1.00  0.00     0.032 A 
HETATM   20  C   UNL     1      10.987   5.150  93.640  1.00  0.00     0.018 A 
HETATM   21  C   UNL     1       9.937   6.045  93.434  1.00  0.00     0.022 A 
BRANCH  19  22
HETATM   22  C   UNL     1      12.627   3.521  92.776  1.00  0.00     0.252 C 
HETATM   23  O   UNL     1      12.722   2.533  92.053  1.00  0.00    -0.268 OA
HETATM   24  N   UNL     1      13.512   3.846  93.795  1.00  0.00    -0.342 N 
HETATM   25  H   UNL     1      13.384   4.693  94.335  1.00  0.00     0.163 HD
BRANCH  24  26
HETATM   26  C   UNL     1      14.658   3.033  94.114  1.00  0.00     0.199 C 
BRANCH  26  27
HETATM   27  C   UNL     1      14.740   1.760  93.262  1.00  0.00     0.145 C 
HETATM   28  C   UNL     1      15.760   1.876  92.135  1.00  0.00     0.042 C 
BRANCH  27  29
HETATM   29  O   UNL     1      15.089   0.652  94.091  1.00  0.00    -0.393 OA
HETATM   30  H   UNL     1      15.358   0.995  94.960  1.00  0.00     0.210 HD
ENDBRANCH  27  29
ENDBRANCH  26  27
BRANCH  26  31
HETATM   31  C   UNL     1      15.904   3.897  93.941  1.00  0.00     0.220 C 
HETATM   32  O   UNL     1      17.043   3.472  94.123  1.00  0.00    -0.278 OA
HETATM   33  N   UNL     1      15.595   5.192  93.603  1.00  0.00    -0.271 NA
HETATM   34  H   UNL     1      14.668   5.596  93.533  1.00  0.00     0.127 HD
HETATM   35  H   UNL     1      15.695   6.347  94.394  1.00  0.00     0.127 HD
ENDBRANCH  26  31
ENDBRANCH  24  26
ENDBRANCH  19  22
ENDBRANCH  15  16
ENDBRANCH  11  14
ENDBRANCH   7   8
ENDBRANCH   2   7
TORSDOF 9
ENDMDL
