MODEL 1
REMARK VINA RESULT:      -6.1      0.000      0.000
REMARK  12 active torsions:
REMARK  status: ('A' for Active; 'I' for Inactive)
REMARK    1  A    between atoms: O_2  and  C_16 
REMARK    2  A    between atoms: N_5  and  C_9 
REMARK    3  A    between atoms: N_6  and  C_13 
REMARK       I    between atoms: N_6  and  C_22 
REMARK    4  A    between atoms: C_9  and  C_12 
REMARK    5  A    between atoms: C_13  and  C_16 
REMARK    6  A    between atoms: C_13  and  C_21 
REMARK    7  A    between atoms: C_19  and  C_24 
REMARK    8  A    between atoms: C_21  and  C_33 
REMARK    9  A    between atoms: C_22  and  C_23 
REMARK   10  A    between atoms: C_27  and  C_30 
REMARK   11  A    between atoms: C_33  and  C_34 
REMARK   12  A    between atoms: C_34  and  C_35 
ROOT
HETATM    1  O   UNL     1      16.495   3.278  93.648  1.00  0.00    -0.350 OA
HETATM    2  N   UNL     1      13.830   2.889  92.726  1.00  0.00     0.147 N 
HETATM    3  C   UNL     1      14.698   1.753  93.068  1.00  0.00     0.283 C 
HETATM    4  C   UNL     1      14.644   4.025  92.271  1.00  0.00     0.283 C 
HETATM    5  C   UNL     1      15.715   2.179  94.124  1.00  0.00     0.178 C 
HETATM    6  C   UNL     1      15.662   4.397  93.344  1.00  0.00     0.178 C 
ENDROOT
BRANCH   2   7
HETATM    7  C   UNL     1      12.854   2.507  91.708  1.00  0.00     0.277 C 
BRANCH   7   8
HETATM    8  C   UNL     1      11.688   3.435  91.662  1.00  0.00     0.011 A 
HETATM    9  C   UNL     1      11.316   4.142  92.805  1.00  0.00    -0.002 A 
HETATM   10  C   UNL     1      10.224   5.009  92.764  1.00  0.00     0.008 A 
HETATM   11  C   UNL     1       9.507   5.170  91.578  1.00  0.00     0.042 A 
HETATM   12  C   UNL     1       9.879   4.465  90.436  1.00  0.00     0.008 A 
HETATM   13  C   UNL     1      10.970   3.597  90.477  1.00  0.00    -0.002 A 
BRANCH  11  14
HETATM   14  C   UNL     1       8.389   6.061  91.535  1.00  0.00    -0.059 C 
HETATM   15  C   UNL     1       7.449   6.810  91.500  1.00  0.00    -0.059 C 
BRANCH  15  16
HETATM   16  C   UNL     1       6.331   7.701  91.457  1.00  0.00     0.042 A 
HETATM   17  C   UNL     1       6.123   8.607  92.498  1.00  0.00     0.008 A 
HETATM   18  C   UNL     1       5.035   9.478  92.455  1.00  0.00     0.005 A 
HETATM   19  C   UNL     1       4.180   9.425  91.373  1.00  0.00     0.056 A 
HETATM   20  C   UNL     1       4.364   8.539  90.333  1.00  0.00     0.005 A 
HETATM   21  C   UNL     1       5.452   7.667  90.375  1.00  0.00     0.008 A 
BRANCH  19  22
HETATM   22  C   UNL     1       3.020  10.352  91.329  1.00  0.00     0.254 C 
HETATM   23  O   UNL     1       1.894   9.895  91.147  1.00  0.00    -0.268 OA
HETATM   24  N   UNL     1       3.307  11.695  91.527  1.00  0.00    -0.335 N 
HETATM   25  HN  UNL     1       4.259  11.997  91.696  1.00  0.00     0.164 HD
BRANCH  24  26
HETATM   26  C   UNL     1       2.287  12.713  91.536  1.00  0.00     0.166 C 
BRANCH  26  27
HETATM   27  C   UNL     1       2.103  13.356  92.917  1.00  0.00     0.138 C 
HETATM   28  C   UNL     1       3.167  12.912  93.914  1.00  0.00     0.034 C 
BRANCH  27  29
HETATM   29  O   UNL     1       2.148  14.777  92.792  1.00  0.00    -0.383 OA
HETATM   30  H   UNL     1       1.661  15.028  91.988  1.00  0.00     0.210 HD
ENDBRANCH  27  29
ENDBRANCH  26  27
BRANCH  26  31
HETATM   31  C   UNL     1       2.658  13.754  90.485  1.00  0.00     0.181 C 
HETATM   32  O   UNL     1       1.922  14.692  90.183  1.00  0.00    -0.294 OA
BRANCH  31  33
HETATM   33  C   UNL     1       4.119  14.397  90.764  1.00  0.00     0.138 C 
BRANCH  33  34
HETATM   34  C   UNL     1       4.665  14.412  89.461  1.00  0.00     0.208 C 
HETATM   35  O   UNL     1       5.278  15.407  89.152  1.00  0.00    -0.289 OA
BRANCH  34  36
HETATM   36  C   UNL     1       4.873  13.391  88.575  1.00  0.00     0.194 C 
HETATM   37  O   UNL     1       5.281  12.070  88.796  1.00  0.00    -0.185 OA
ENDBRANCH  34  36
ENDBRANCH  33  34
ENDBRANCH  31  33
ENDBRANCH  26  31
ENDBRANCH  24  26
ENDBRANCH  19  22
ENDBRANCH  15  16
ENDBRANCH  11  14
ENDBRANCH   7   8
ENDBRANCH   2   7
TORSDOF 12
ENDMDL
