MODEL 1
REMARK VINA RESULT:      -6.6      0.000      0.000
REMARK  11 active torsions:
REMARK  status: ('A' for Active; 'I' for Inactive)
REMARK    1  A    between atoms: O_2  and  C_18 
REMARK    2  A    between atoms: O_5  and  P_8 
REMARK    3  A    between atoms: N_6  and  C_11 
REMARK    4  A    between atoms: N_7  and  C_15 
REMARK       I    between atoms: N_7  and  C_24 
REMARK    5  A    between atoms: P_8  and  C_23 
REMARK    6  A    between atoms: C_11  and  C_14 
REMARK    7  A    between atoms: C_15  and  C_18 
REMARK    8  A    between atoms: C_15  and  C_23 
REMARK    9  A    between atoms: C_21  and  C_26 
REMARK   10  A    between atoms: C_24  and  C_25 
REMARK   11  A    between atoms: C_29  and  C_32 
ROOT
HETATM    1  O   UNL     1      16.457   3.276  93.657  1.00  0.00     0.000 OA
HETATM    2  N   UNL     1      13.774   2.919  92.776  1.00  0.00     0.000 N 
HETATM    3  C   UNL     1      14.643   1.772  93.076  1.00  0.00     0.000 C 
HETATM    4  C   UNL     1      14.585   4.061  92.329  1.00  0.00     0.000 C 
HETATM    5  C   UNL     1      15.681   2.171  94.122  1.00  0.00     0.000 C 
HETATM    6  C   UNL     1      15.624   4.405  93.391  1.00  0.00     0.000 C 
ENDROOT
BRANCH   2   7
HETATM    7  C   UNL     1      12.778   2.563  91.767  1.00  0.00     0.000 C 
BRANCH   7   8
HETATM    8  C   UNL     1      11.792   3.656  91.532  1.00  0.00     0.000 A 
HETATM    9  C   UNL     1      11.208   4.312  92.617  1.00  0.00     0.000 A 
HETATM   10  C   UNL     1      10.283   5.333  92.398  1.00  0.00     0.000 A 
HETATM   11  C   UNL     1       9.945   5.699  91.096  1.00  0.00     0.000 A 
HETATM   12  C   UNL     1      10.528   5.045  90.012  1.00  0.00     0.000 A 
HETATM   13  C   UNL     1      11.451   4.023  90.230  1.00  0.00     0.000 A 
BRANCH  11  14
HETATM   14  C   UNL     1       8.998   6.748  90.872  1.00  0.00     0.000 C 
HETATM   15  C   UNL     1       8.203   7.630  90.683  1.00  0.00     0.000 C 
BRANCH  15  16
HETATM   16  C   UNL     1       7.257   8.678  90.459  1.00  0.00     0.000 A 
HETATM   17  C   UNL     1       7.338   9.860  91.196  1.00  0.00     0.000 A 
HETATM   18  C   UNL     1       6.417  10.883  90.975  1.00  0.00     0.000 A 
HETATM   19  C   UNL     1       5.437  10.703  90.022  1.00  0.00     0.000 A 
HETATM   20  C   UNL     1       5.335   9.545  89.280  1.00  0.00     0.000 A 
HETATM   21  C   UNL     1       6.256   8.521  89.500  1.00  0.00     0.000 A 
BRANCH  19  22
HETATM   22  C   UNL     1       4.454  11.793  89.788  1.00  0.00     0.000 C 
HETATM   23  O   UNL     1       3.829  11.820  88.730  1.00  0.00     0.000 OA
HETATM   24  N   UNL     1       4.299  12.704  90.823  1.00  0.00     0.000 N 
HETATM   25  HN  UNL     1       4.832  12.604  91.679  1.00  0.00     0.000 HD
BRANCH  24  26
HETATM   26  C   UNL     1       3.368  13.802  90.757  1.00  0.00     0.000 C 
BRANCH  26  27
HETATM   27  C   UNL     1       2.119  13.574  91.618  1.00  0.00     0.000 C 
HETATM   28  C   UNL     1       2.438  12.878  92.936  1.00  0.00     0.000 C 
BRANCH  27  29
HETATM   29  O   UNL     1       1.495  14.827  91.894  1.00  0.00     0.000 OA
HETATM   30  H   UNL     1       0.577  14.787  91.576  1.00  0.00     0.000 HD
ENDBRANCH  27  29
ENDBRANCH  26  27
BRANCH  26  31
HETATM   31  C   UNL     1       4.109  15.067  91.179  1.00  0.00     0.000 C 
HETATM   32  O   UNL     1       3.987  15.575  92.292  1.00  0.00     0.000 OA
BRANCH  31  33
HETATM   33  P   UNL     1       4.882  15.578  90.164  1.00  0.00     0.000 P 
HETATM   34  H   UNL     1       4.432  16.855  89.892  1.00  0.00     0.000 HD
BRANCH  33  35
HETATM   35  O   UNL     1       4.871  14.854  88.964  1.00  0.00     0.000 OA
HETATM   36  H   UNL     1       5.168  15.540  88.343  1.00  0.00     0.000 HD
ENDBRANCH  33  35
ENDBRANCH  31  33
ENDBRANCH  26  31
ENDBRANCH  24  26
ENDBRANCH  19  22
ENDBRANCH  15  16
ENDBRANCH  11  14
ENDBRANCH   7   8
ENDBRANCH   2   7
TORSDOF 11
ENDMDL
MODEL 2
REMARK VINA RESULT:      -6.3      1.302      2.017
REMARK  11 active torsions:
REMARK  status: ('A' for Active; 'I' for Inactive)
REMARK    1  A    between atoms: O_2  and  C_18 
REMARK    2  A    between atoms: O_5  and  P_8 
REMARK    3  A    between atoms: N_6  and  C_11 
REMARK    4  A    between atoms: N_7  and  C_15 
REMARK       I    between atoms: N_7  and  C_24 
REMARK    5  A    between atoms: P_8  and  C_23 
REMARK    6  A    between atoms: C_11  and  C_14 
REMARK    7  A    between atoms: C_15  and  C_18 
REMARK    8  A    between atoms: C_15  and  C_23 
REMARK    9  A    between atoms: C_21  and  C_26 
REMARK   10  A    between atoms: C_24  and  C_25 
REMARK   11  A    between atoms: C_29  and  C_32 
ROOT
HETATM    1  O   UNL     1      16.640   4.261  94.124  1.00  0.00     0.000 OA
HETATM    2  N   UNL     1      14.820   2.798  92.496  1.00  0.00     0.000 N 
HETATM    3  C   UNL     1      14.629   4.230  92.765  1.00  0.00     0.000 C 
HETATM    4  C   UNL     1      15.529   2.165  93.617  1.00  0.00     0.000 C 
HETATM    5  C   UNL     1      15.980   4.892  93.025  1.00  0.00     0.000 C 
HETATM    6  C   UNL     1      16.857   2.875  93.857  1.00  0.00     0.000 C 
ENDROOT
BRANCH   2   7
HETATM    7  C   UNL     1      13.537   2.141  92.254  1.00  0.00     0.000 C 
BRANCH   7   8
HETATM    8  C   UNL     1      12.452   3.113  91.935  1.00  0.00     0.000 A 
HETATM    9  C   UNL     1      12.283   3.562  90.625  1.00  0.00     0.000 A 
HETATM   10  C   UNL     1      11.270   4.473  90.325  1.00  0.00     0.000 A 
HETATM   11  C   UNL     1      10.426   4.933  91.335  1.00  0.00     0.000 A 
HETATM   12  C   UNL     1      10.594   4.485  92.644  1.00  0.00     0.000 A 
HETATM   13  C   UNL     1      11.607   3.575  92.944  1.00  0.00     0.000 A 
BRANCH  11  14
HETATM   14  C   UNL     1       9.386   5.866  91.027  1.00  0.00     0.000 C 
HETATM   15  C   UNL     1       8.512   6.650  90.768  1.00  0.00     0.000 C 
BRANCH  15  16
HETATM   16  C   UNL     1       7.472   7.581  90.460  1.00  0.00     0.000 A 
HETATM   17  C   UNL     1       7.200   7.906  89.130  1.00  0.00     0.000 A 
HETATM   18  C   UNL     1       6.184   8.813  88.830  1.00  0.00     0.000 A 
HETATM   19  C   UNL     1       5.463   9.374  89.863  1.00  0.00     0.000 A 
HETATM   20  C   UNL     1       5.714   9.070  91.185  1.00  0.00     0.000 A 
HETATM   21  C   UNL     1       6.730   8.163  91.487  1.00  0.00     0.000 A 
BRANCH  19  22
HETATM   22  C   UNL     1       4.382  10.341  89.542  1.00  0.00     0.000 C 
HETATM   23  O   UNL     1       3.524  10.031  88.719  1.00  0.00     0.000 OA
HETATM   24  N   UNL     1       4.416  11.543  90.236  1.00  0.00     0.000 N 
HETATM   25  HN  UNL     1       5.142  11.720  90.920  1.00  0.00     0.000 HD
BRANCH  24  26
HETATM   26  C   UNL     1       3.424  12.572  90.053  1.00  0.00     0.000 C 
BRANCH  26  27
HETATM   27  C   UNL     1       2.695  12.931  91.354  1.00  0.00     0.000 C 
HETATM   28  C   UNL     1       2.280  11.699  92.150  1.00  0.00     0.000 C 
BRANCH  27  29
HETATM   29  O   UNL     1       3.541  13.744  92.167  1.00  0.00     0.000 OA
HETATM   30  H   UNL     1       3.679  14.592  91.711  1.00  0.00     0.000 HD
ENDBRANCH  27  29
ENDBRANCH  26  27
BRANCH  26  31
HETATM   31  C   UNL     1       4.121  13.789  89.454  1.00  0.00     0.000 C 
HETATM   32  O   UNL     1       3.836  14.944  89.765  1.00  0.00     0.000 OA
BRANCH  31  33
HETATM   33  P   UNL     1       5.060  13.439  88.514  1.00  0.00     0.000 P 
HETATM   34  H   UNL     1       5.722  14.588  88.131  1.00  0.00     0.000 HD
BRANCH  33  35
HETATM   35  O   UNL     1       4.564  12.822  87.357  1.00  0.00     0.000 OA
HETATM   36  H   UNL     1       4.673  13.544  86.714  1.00  0.00     0.000 HD
ENDBRANCH  33  35
ENDBRANCH  31  33
ENDBRANCH  26  31
ENDBRANCH  24  26
ENDBRANCH  19  22
ENDBRANCH  15  16
ENDBRANCH  11  14
ENDBRANCH   7   8
ENDBRANCH   2   7
TORSDOF 11
ENDMDL
MODEL 3
REMARK VINA RESULT:      -5.3      1.689      2.244
REMARK  11 active torsions:
REMARK  status: ('A' for Active; 'I' for Inactive)
REMARK    1  A    between atoms: O_2  and  C_18 
REMARK    2  A    between atoms: O_5  and  P_8 
REMARK    3  A    between atoms: N_6  and  C_11 
REMARK    4  A    between atoms: N_7  and  C_15 
REMARK       I    between atoms: N_7  and  C_24 
REMARK    5  A    between atoms: P_8  and  C_23 
REMARK    6  A    between atoms: C_11  and  C_14 
REMARK    7  A    between atoms: C_15  and  C_18 
REMARK    8  A    between atoms: C_15  and  C_23 
REMARK    9  A    between atoms: C_21  and  C_26 
REMARK   10  A    between atoms: C_24  and  C_25 
REMARK   11  A    between atoms: C_29  and  C_32 
ROOT
HETATM    1  O   UNL     1      16.502   4.503  93.981  1.00  0.00     0.000 OA
HETATM    2  N   UNL     1      14.771   2.690  92.632  1.00  0.00     0.000 N 
HETATM    3  C   UNL     1      14.627   4.145  92.482  1.00  0.00     0.000 C 
HETATM    4  C   UNL     1      15.340   2.374  93.949  1.00  0.00     0.000 C 
HETATM    5  C   UNL     1      15.980   4.822  92.690  1.00  0.00     0.000 C 
HETATM    6  C   UNL     1      16.674   3.092  94.123  1.00  0.00     0.000 C 
ENDROOT
BRANCH   2   7
HETATM    7  C   UNL     1      13.485   2.021  92.447  1.00  0.00     0.000 C 
BRANCH   7   8
HETATM    8  C   UNL     1      12.351   2.984  92.361  1.00  0.00     0.000 A 
HETATM    9  C   UNL     1      11.951   3.692  93.495  1.00  0.00     0.000 A 
HETATM   10  C   UNL     1      10.888   4.592  93.416  1.00  0.00     0.000 A 
HETATM   11  C   UNL     1      10.228   4.785  92.203  1.00  0.00     0.000 A 
HETATM   12  C   UNL     1      10.627   4.079  91.070  1.00  0.00     0.000 A 
HETATM   13  C   UNL     1      11.689   3.179  91.148  1.00  0.00     0.000 A 
BRANCH  11  14
HETATM   14  C   UNL     1       9.139   5.710  92.122  1.00  0.00     0.000 C 
HETATM   15  C   UNL     1       8.225   6.488  92.053  1.00  0.00     0.000 C 
BRANCH  15  16
HETATM   16  C   UNL     1       7.136   7.412  91.971  1.00  0.00     0.000 A 
HETATM   17  C   UNL     1       5.835   6.979  92.228  1.00  0.00     0.000 A 
HETATM   18  C   UNL     1       4.774   7.881  92.151  1.00  0.00     0.000 A 
HETATM   19  C   UNL     1       5.038   9.194  91.820  1.00  0.00     0.000 A 
HETATM   20  C   UNL     1       6.315   9.646  91.562  1.00  0.00     0.000 A 
HETATM   21  C   UNL     1       7.377   8.745  91.638  1.00  0.00     0.000 A 
BRANCH  19  22
HETATM   22  C   UNL     1       3.906  10.154  91.737  1.00  0.00     0.000 C 
HETATM   23  O   UNL     1       2.762   9.751  91.930  1.00  0.00     0.000 OA
HETATM   24  N   UNL     1       4.246  11.471  91.462  1.00  0.00     0.000 N 
HETATM   25  HN  UNL     1       5.217  11.736  91.339  1.00  0.00     0.000 HD
BRANCH  24  26
HETATM   26  C   UNL     1       3.265  12.523  91.373  1.00  0.00     0.000 C 
BRANCH  26  27
HETATM   27  C   UNL     1       3.305  13.475  92.576  1.00  0.00     0.000 C 
HETATM   28  C   UNL     1       4.504  13.221  93.482  1.00  0.00     0.000 C 
BRANCH  27  29
HETATM   29  O   UNL     1       3.351  14.825  92.114  1.00  0.00     0.000 OA
HETATM   30  H   UNL     1       2.782  15.363  92.690  1.00  0.00     0.000 HD
ENDBRANCH  27  29
ENDBRANCH  26  27
BRANCH  26  31
HETATM   31  C   UNL     1       3.502  13.271  90.066  1.00  0.00     0.000 C 
HETATM   32  O   UNL     1       2.694  14.070  89.596  1.00  0.00     0.000 OA
BRANCH  31  33
HETATM   33  P   UNL     1       4.689  12.917  89.472  1.00  0.00     0.000 P 
HETATM   34  H   UNL     1       5.214  14.043  88.872  1.00  0.00     0.000 HD
BRANCH  33  35
HETATM   35  O   UNL     1       4.609  11.909  88.500  1.00  0.00     0.000 OA
HETATM   36  H   UNL     1       4.335  12.433  87.728  1.00  0.00     0.000 HD
ENDBRANCH  33  35
ENDBRANCH  31  33
ENDBRANCH  26  31
ENDBRANCH  24  26
ENDBRANCH  19  22
ENDBRANCH  15  16
ENDBRANCH  11  14
ENDBRANCH   7   8
ENDBRANCH   2   7
TORSDOF 11
ENDMDL
MODEL 4
REMARK VINA RESULT:      -5.1      3.412     12.415
REMARK  11 active torsions:
REMARK  status: ('A' for Active; 'I' for Inactive)
REMARK    1  A    between atoms: O_2  and  C_18 
REMARK    2  A    between atoms: O_5  and  P_8 
REMARK    3  A    between atoms: N_6  and  C_11 
REMARK    4  A    between atoms: N_7  and  C_15 
REMARK       I    between atoms: N_7  and  C_24 
REMARK    5  A    between atoms: P_8  and  C_23 
REMARK    6  A    between atoms: C_11  and  C_14 
REMARK    7  A    between atoms: C_15  and  C_18 
REMARK    8  A    between atoms: C_15  and  C_23 
REMARK    9  A    between atoms: C_21  and  C_26 
REMARK   10  A    between atoms: C_24  and  C_25 
REMARK   11  A    between atoms: C_29  and  C_32 
ROOT
HETATM    1  O   UNL     1       3.057  14.900  94.102  1.00  0.00     0.000 OA
HETATM    2  N   UNL     1       2.680  14.799  91.283  1.00  0.00     0.000 N 
HETATM    3  C   UNL     1       1.716  14.188  92.209  1.00  0.00     0.000 C 
HETATM    4  C   UNL     1       4.022  14.796  91.879  1.00  0.00     0.000 C 
HETATM    5  C   UNL     1       1.742  14.927  93.544  1.00  0.00     0.000 C 
HETATM    6  C   UNL     1       3.995  15.520  93.222  1.00  0.00     0.000 C 
ENDROOT
BRANCH   2   7
HETATM    7  C   UNL     1       2.679  14.099  89.999  1.00  0.00     0.000 C 
BRANCH   7   8
HETATM    8  C   UNL     1       3.680  12.996  89.954  1.00  0.00     0.000 A 
HETATM    9  C   UNL     1       3.405  11.779  90.579  1.00  0.00     0.000 A 
HETATM   10  C   UNL     1       4.342  10.746  90.539  1.00  0.00     0.000 A 
HETATM   11  C   UNL     1       5.553  10.931  89.872  1.00  0.00     0.000 A 
HETATM   12  C   UNL     1       5.829  12.145  89.247  1.00  0.00     0.000 A 
HETATM   13  C   UNL     1       4.892  13.178  89.288  1.00  0.00     0.000 A 
BRANCH  11  14
HETATM   14  C   UNL     1       6.513   9.871  89.829  1.00  0.00     0.000 C 
HETATM   15  C   UNL     1       7.319   8.980  89.793  1.00  0.00     0.000 C 
BRANCH  15  16
HETATM   16  C   UNL     1       8.278   7.920  89.750  1.00  0.00     0.000 A 
HETATM   17  C   UNL     1       8.455   7.095  90.861  1.00  0.00     0.000 A 
HETATM   18  C   UNL     1       9.389   6.060  90.818  1.00  0.00     0.000 A 
HETATM   19  C   UNL     1      10.123   5.872  89.665  1.00  0.00     0.000 A 
HETATM   20  C   UNL     1       9.967   6.674  88.554  1.00  0.00     0.000 A 
HETATM   21  C   UNL     1       9.033   7.710  88.596  1.00  0.00     0.000 A 
BRANCH  19  22
HETATM   22  C   UNL     1      11.119   4.770  89.620  1.00  0.00     0.000 C 
HETATM   23  O   UNL     1      11.287   4.156  88.569  1.00  0.00     0.000 OA
HETATM   24  N   UNL     1      11.815   4.532  90.797  1.00  0.00     0.000 N 
HETATM   25  HN  UNL     1      11.640   5.096  91.620  1.00  0.00     0.000 HD
BRANCH  24  26
HETATM   26  C   UNL     1      12.830   3.514  90.905  1.00  0.00     0.000 C 
BRANCH  26  27
HETATM   27  C   UNL     1      14.249   4.093  90.950  1.00  0.00     0.000 C 
HETATM   28  C   UNL     1      14.778   4.233  92.373  1.00  0.00     0.000 C 
BRANCH  27  29
HETATM   29  O   UNL     1      15.132   3.252  90.209  1.00  0.00     0.000 OA
HETATM   30  H   UNL     1      14.766   2.351  90.208  1.00  0.00     0.000 HD
ENDBRANCH  27  29
ENDBRANCH  26  27
BRANCH  26  31
HETATM   31  C   UNL     1      12.529   2.687  92.150  1.00  0.00     0.000 C 
HETATM   32  O   UNL     1      13.178   1.691  92.466  1.00  0.00     0.000 OA
BRANCH  31  33
HETATM   33  P   UNL     1      11.439   3.162  92.838  1.00  0.00     0.000 P 
HETATM   34  H   UNL     1      10.560   3.699  91.920  1.00  0.00     0.000 HD
BRANCH  33  35
HETATM   35  O   UNL     1      11.707   4.144  93.802  1.00  0.00     0.000 OA
HETATM   36  H   UNL     1      11.763   4.933  93.236  1.00  0.00     0.000 HD
ENDBRANCH  33  35
ENDBRANCH  31  33
ENDBRANCH  26  31
ENDBRANCH  24  26
ENDBRANCH  19  22
ENDBRANCH  15  16
ENDBRANCH  11  14
ENDBRANCH   7   8
ENDBRANCH   2   7
TORSDOF 11
ENDMDL
MODEL 5
REMARK VINA RESULT:      -4.0      1.920      2.585
REMARK  11 active torsions:
REMARK  status: ('A' for Active; 'I' for Inactive)
REMARK    1  A    between atoms: O_2  and  C_18 
REMARK    2  A    between atoms: O_5  and  P_8 
REMARK    3  A    between atoms: N_6  and  C_11 
REMARK    4  A    between atoms: N_7  and  C_15 
REMARK       I    between atoms: N_7  and  C_24 
REMARK    5  A    between atoms: P_8  and  C_23 
REMARK    6  A    between atoms: C_11  and  C_14 
REMARK    7  A    between atoms: C_15  and  C_18 
REMARK    8  A    between atoms: C_15  and  C_23 
REMARK    9  A    between atoms: C_21  and  C_26 
REMARK   10  A    between atoms: C_24  and  C_25 
REMARK   11  A    between atoms: C_29  and  C_32 
ROOT
HETATM    1  O   UNL     1      16.016   2.735  91.484  1.00  0.00     0.000 OA
HETATM    2  N   UNL     1      13.540   3.070  92.847  1.00  0.00     0.000 N 
HETATM    3  C   UNL     1      14.565   2.137  93.335  1.00  0.00     0.000 C 
HETATM    4  C   UNL     1      13.639   3.209  91.387  1.00  0.00     0.000 C 
HETATM    5  C   UNL     1      15.949   2.618  92.906  1.00  0.00     0.000 C 
HETATM    6  C   UNL     1      15.044   3.664  91.005  1.00  0.00     0.000 C 
ENDROOT
BRANCH   2   7
HETATM    7  C   UNL     1      12.205   2.622  93.237  1.00  0.00     0.000 C 
BRANCH   7   8
HETATM    8  C   UNL     1      11.204   3.727  93.210  1.00  0.00     0.000 A 
HETATM    9  C   UNL     1      11.301   4.777  94.124  1.00  0.00     0.000 A 
HETATM   10  C   UNL     1      10.364   5.810  94.100  1.00  0.00     0.000 A 
HETATM   11  C   UNL     1       9.333   5.794  93.161  1.00  0.00     0.000 A 
HETATM   12  C   UNL     1       9.236   4.747  92.248  1.00  0.00     0.000 A 
HETATM   13  C   UNL     1      10.172   3.713  92.271  1.00  0.00     0.000 A 
BRANCH  11  14
HETATM   14  C   UNL     1       8.374   6.856  93.136  1.00  0.00     0.000 C 
HETATM   15  C   UNL     1       7.568   7.747  93.114  1.00  0.00     0.000 C 
BRANCH  15  16
HETATM   16  C   UNL     1       6.609   8.807  93.088  1.00  0.00     0.000 A 
HETATM   17  C   UNL     1       5.620   8.876  94.070  1.00  0.00     0.000 A 
HETATM   18  C   UNL     1       4.686   9.912  94.046  1.00  0.00     0.000 A 
HETATM   19  C   UNL     1       4.762  10.855  93.043  1.00  0.00     0.000 A 
HETATM   20  C   UNL     1       5.729  10.808  92.060  1.00  0.00     0.000 A 
HETATM   21  C   UNL     1       6.663   9.773  92.083  1.00  0.00     0.000 A 
BRANCH  19  22
HETATM   22  C   UNL     1       3.765  11.957  93.017  1.00  0.00     0.000 C 
HETATM   23  O   UNL     1       2.801  11.911  93.776  1.00  0.00     0.000 OA
HETATM   24  N   UNL     1       4.025  12.990  92.128  1.00  0.00     0.000 N 
HETATM   25  HN  UNL     1       4.856  12.972  91.549  1.00  0.00     0.000 HD
BRANCH  24  26
HETATM   26  C   UNL     1       3.166  14.140  92.003  1.00  0.00     0.000 C 
BRANCH  26  27
HETATM   27  C   UNL     1       3.909  15.463  92.231  1.00  0.00     0.000 C 
HETATM   28  C   UNL     1       4.388  15.623  93.670  1.00  0.00     0.000 C 
BRANCH  27  29
HETATM   29  O   UNL     1       5.034  15.536  91.357  1.00  0.00     0.000 OA
HETATM   30  H   UNL     1       5.159  16.464  91.096  1.00  0.00     0.000 HD
ENDBRANCH  27  29
ENDBRANCH  26  27
BRANCH  26  31
HETATM   31  C   UNL     1       2.525  14.096  90.620  1.00  0.00     0.000 C 
HETATM   32  O   UNL     1       1.433  14.603  90.371  1.00  0.00     0.000 OA
BRANCH  31  33
HETATM   33  P   UNL     1       3.289  13.397  89.716  1.00  0.00     0.000 P 
HETATM   34  H   UNL     1       3.738  12.251  90.339  1.00  0.00     0.000 HD
BRANCH  33  35
HETATM   35  O   UNL     1       4.405  14.076  89.208  1.00  0.00     0.000 OA
HETATM   36  H   UNL     1       4.133  14.997  89.358  1.00  0.00     0.000 HD
ENDBRANCH  33  35
ENDBRANCH  31  33
ENDBRANCH  26  31
ENDBRANCH  24  26
ENDBRANCH  19  22
ENDBRANCH  15  16
ENDBRANCH  11  14
ENDBRANCH   7   8
ENDBRANCH   2   7
TORSDOF 11
ENDMDL
MODEL 6
REMARK VINA RESULT:      -3.9      3.371     12.671
REMARK  11 active torsions:
REMARK  status: ('A' for Active; 'I' for Inactive)
REMARK    1  A    between atoms: O_2  and  C_18 
REMARK    2  A    between atoms: O_5  and  P_8 
REMARK    3  A    between atoms: N_6  and  C_11 
REMARK    4  A    between atoms: N_7  and  C_15 
REMARK       I    between atoms: N_7  and  C_24 
REMARK    5  A    between atoms: P_8  and  C_23 
REMARK    6  A    between atoms: C_11  and  C_14 
REMARK    7  A    between atoms: C_15  and  C_18 
REMARK    8  A    between atoms: C_15  and  C_23 
REMARK    9  A    between atoms: C_21  and  C_26 
REMARK   10  A    between atoms: C_24  and  C_25 
REMARK   11  A    between atoms: C_29  and  C_32 
ROOT
HETATM    1  O   UNL     1       4.712  13.634  88.755  1.00  0.00     0.000 OA
HETATM    2  N   UNL     1       3.456  12.780  91.162  1.00  0.00     0.000 N 
HETATM    3  C   UNL     1       4.474  13.839  91.162  1.00  0.00     0.000 C 
HETATM    4  C   UNL     1       3.694  11.852  90.048  1.00  0.00     0.000 C 
HETATM    5  C   UNL     1       4.470  14.560  89.816  1.00  0.00     0.000 C 
HETATM    6  C   UNL     1       3.709  12.619  88.730  1.00  0.00     0.000 C 
ENDROOT
BRANCH   2   7
HETATM    7  C   UNL     1       3.450  12.069  92.439  1.00  0.00     0.000 C 
BRANCH   7   8
HETATM    8  C   UNL     1       4.504  11.017  92.509  1.00  0.00     0.000 A 
HETATM    9  C   UNL     1       4.337   9.817  91.818  1.00  0.00     0.000 A 
HETATM   10  C   UNL     1       5.322   8.831  91.884  1.00  0.00     0.000 A 
HETATM   11  C   UNL     1       6.474   9.048  92.639  1.00  0.00     0.000 A 
HETATM   12  C   UNL     1       6.642  10.246  93.329  1.00  0.00     0.000 A 
HETATM   13  C   UNL     1       5.657  11.232  93.264  1.00  0.00     0.000 A 
BRANCH  11  14
HETATM   14  C   UNL     1       7.485   8.038  92.705  1.00  0.00     0.000 C 
HETATM   15  C   UNL     1       8.334   7.188  92.760  1.00  0.00     0.000 C 
BRANCH  15  16
HETATM   16  C   UNL     1       9.345   6.179  92.825  1.00  0.00     0.000 A 
HETATM   17  C   UNL     1       9.562   5.339  91.732  1.00  0.00     0.000 A 
HETATM   18  C   UNL     1      10.549   4.357  91.795  1.00  0.00     0.000 A 
HETATM   19  C   UNL     1      11.298   4.236  92.947  1.00  0.00     0.000 A 
HETATM   20  C   UNL     1      11.103   5.054  94.040  1.00  0.00     0.000 A 
HETATM   21  C   UNL     1      10.115   6.037  93.979  1.00  0.00     0.000 A 
BRANCH  19  22
HETATM   22  C   UNL     1      12.349   3.188  93.014  1.00  0.00     0.000 C 
HETATM   23  O   UNL     1      12.016   2.006  93.054  1.00  0.00     0.000 OA
HETATM   24  N   UNL     1      13.661   3.641  93.000  1.00  0.00     0.000 N 
HETATM   25  HN  UNL     1      13.861   4.632  92.940  1.00  0.00     0.000 HD
BRANCH  24  26
HETATM   26  C   UNL     1      14.790   2.747  93.035  1.00  0.00     0.000 C 
BRANCH  26  27
HETATM   27  C   UNL     1      15.230   2.291  91.638  1.00  0.00     0.000 C 
HETATM   28  C   UNL     1      14.881   3.306  90.556  1.00  0.00     0.000 C 
BRANCH  27  29
HETATM   29  O   UNL     1      16.640   2.070  91.629  1.00  0.00     0.000 OA
HETATM   30  H   UNL     1      16.865   1.566  90.829  1.00  0.00     0.000 HD
ENDBRANCH  27  29
ENDBRANCH  26  27
BRANCH  26  31
HETATM   31  C   UNL     1      15.924   3.456  93.769  1.00  0.00     0.000 C 
HETATM   32  O   UNL     1      16.954   2.885  94.122  1.00  0.00     0.000 OA
BRANCH  31  33
HETATM   33  P   UNL     1      15.637   4.777  94.014  1.00  0.00     0.000 P 
HETATM   34  H   UNL     1      14.383   5.040  93.501  1.00  0.00     0.000 HD
BRANCH  33  35
HETATM   35  O   UNL     1      16.530   5.708  93.464  1.00  0.00     0.000 OA
HETATM   36  H   UNL     1      17.100   5.878  94.233  1.00  0.00     0.000 HD
ENDBRANCH  33  35
ENDBRANCH  31  33
ENDBRANCH  26  31
ENDBRANCH  24  26
ENDBRANCH  19  22
ENDBRANCH  15  16
ENDBRANCH  11  14
ENDBRANCH   7   8
ENDBRANCH   2   7
TORSDOF 11
ENDMDL
