MODEL 1
REMARK VINA RESULT:      -6.7      0.000      0.000
REMARK  14 active torsions:
REMARK  status: ('A' for Active; 'I' for Inactive)
REMARK    1  A    between atoms: O_2  and  C_18 
REMARK    2  A    between atoms: C_5  and  C_8 
REMARK    3  A    between atoms: C_5  and  O_35 
REMARK    4  A    between atoms: C_5  and  C_36 
REMARK    5  A    between atoms: N_6  and  C_11 
REMARK    6  A    between atoms: N_7  and  C_15 
REMARK       I    between atoms: N_7  and  C_24 
REMARK    7  A    between atoms: C_8  and  C_23 
REMARK    8  A    between atoms: C_11  and  C_14 
REMARK    9  A    between atoms: C_15  and  C_18 
REMARK   10  A    between atoms: C_15  and  C_23 
REMARK   11  A    between atoms: C_21  and  C_26 
REMARK   12  A    between atoms: C_24  and  C_25 
REMARK   13  A    between atoms: C_29  and  C_32 
REMARK   14  A    between atoms: C_36  and  O_39 
ROOT
HETATM    1  O   UNL     1      16.044   4.249  94.123  1.00  0.00    -0.350 OA
HETATM    2  N   UNL     1      14.401   2.744  92.352  1.00  0.00     0.147 N 
HETATM    3  C   UNL     1      14.362   4.212  92.374  1.00  0.00     0.283 C 
HETATM    4  C   UNL     1      14.776   2.230  93.676  1.00  0.00     0.283 C 
HETATM    5  C   UNL     1      15.712   4.759  92.830  1.00  0.00     0.178 C 
HETATM    6  C   UNL     1      16.115   2.823  94.102  1.00  0.00     0.178 C 
ENDROOT
BRANCH   2   7
HETATM    7  C   UNL     1      13.113   2.198  91.927  1.00  0.00     0.277 C 
BRANCH   7   8
HETATM    8  C   UNL     1      12.050   3.240  91.858  1.00  0.00     0.011 A 
HETATM    9  C   UNL     1      11.635   3.731  90.619  1.00  0.00    -0.002 A 
HETATM   10  C   UNL     1      10.642   4.708  90.554  1.00  0.00     0.008 A 
HETATM   11  C   UNL     1      10.062   5.191  91.726  1.00  0.00     0.042 A 
HETATM   12  C   UNL     1      10.475   4.701  92.963  1.00  0.00     0.008 A 
HETATM   13  C   UNL     1      11.469   3.725  93.030  1.00  0.00    -0.002 A 
BRANCH  11  14
HETATM   14  C   UNL     1       9.041   6.192  91.658  1.00  0.00    -0.059 C 
HETATM   15  C   UNL     1       8.183   7.032  91.600  1.00  0.00    -0.059 C 
BRANCH  15  16
HETATM   16  C   UNL     1       7.163   8.031  91.533  1.00  0.00     0.042 A 
HETATM   17  C   UNL     1       7.499   9.350  91.226  1.00  0.00     0.008 A 
HETATM   18  C   UNL     1       6.502  10.324  91.157  1.00  0.00     0.005 A 
HETATM   19  C   UNL     1       5.194   9.958  91.396  1.00  0.00     0.056 A 
HETATM   20  C   UNL     1       4.837   8.661  91.701  1.00  0.00     0.005 A 
HETATM   21  C   UNL     1       5.832   7.686  91.770  1.00  0.00     0.008 A 
BRANCH  19  22
HETATM   22  C   UNL     1       4.134  10.996  91.324  1.00  0.00     0.254 C 
HETATM   23  O   UNL     1       3.014  10.683  90.929  1.00  0.00    -0.268 OA
HETATM   24  N   UNL     1       4.498  12.267  91.745  1.00  0.00    -0.335 N 
HETATM   25  HN  UNL     1       5.437  12.446  92.084  1.00  0.00     0.164 HD
BRANCH  24  26
HETATM   26  C   UNL     1       3.576  13.374  91.759  1.00  0.00     0.169 C 
BRANCH  26  27
HETATM   27  C   UNL     1       3.332  13.927  93.169  1.00  0.00     0.138 C 
HETATM   28  C   UNL     1       4.574  13.849  94.049  1.00  0.00     0.034 C 
BRANCH  27  29
HETATM   29  O   UNL     1       2.910  15.287  93.082  1.00  0.00    -0.383 OA
HETATM   30  H   UNL     1       2.481  15.528  93.920  1.00  0.00     0.210 HD
ENDBRANCH  27  29
ENDBRANCH  26  27
BRANCH  26  31
HETATM   31  C   UNL     1       4.126  14.451  90.829  1.00  0.00     0.194 C 
HETATM   32  O   UNL     1       4.839  15.373  91.220  1.00  0.00    -0.289 OA
BRANCH  31  33
HETATM   33  C   UNL     1       3.701  14.284  89.533  1.00  0.00     0.053 C 
BRANCH  33  34
HETATM   34  C   UNL     1       4.646  13.755  88.644  1.00  0.00     0.220 C 
BRANCH  34  35
HETATM   35  O   UNL     1       5.742  13.715  89.233  1.00  0.00    -0.371 OA
HETATM   36  H   UNL     1       5.999  14.615  89.098  1.00  0.00     0.211 HD
ENDBRANCH  34  35
BRANCH  34  37
HETATM   37  C   UNL     1       4.279  12.505  88.115  1.00  0.00     0.185 C 
HETATM   38  O   UNL     1       5.576  12.261  88.215  1.00  0.00    -0.647 OA
BRANCH  37  39
HETATM   39  O   UNL     1       3.278  11.980  87.729  1.00  0.00    -0.774 OA
HETATM   40  H   UNL     1       2.568  12.728  87.257  1.00  0.00     0.167 HD
ENDBRANCH  37  39
ENDBRANCH  34  37
ENDBRANCH  33  34
ENDBRANCH  31  33
ENDBRANCH  26  31
ENDBRANCH  24  26
ENDBRANCH  19  22
ENDBRANCH  15  16
ENDBRANCH  11  14
ENDBRANCH   7   8
ENDBRANCH   2   7
TORSDOF 14
ENDMDL
