MODEL 1
REMARK VINA RESULT:      -6.9      0.000      0.000
REMARK  14 active torsions:
REMARK  status: ('A' for Active; 'I' for Inactive)
REMARK    1  A    between atoms: O_2  and  C_18 
REMARK    2  A    between atoms: C_5  and  C_8 
REMARK    3  A    between atoms: C_5  and  O_35 
REMARK    4  A    between atoms: C_5  and  C_36 
REMARK    5  A    between atoms: N_6  and  C_11 
REMARK    6  A    between atoms: N_7  and  C_15 
REMARK       I    between atoms: N_7  and  C_24 
REMARK    7  A    between atoms: C_8  and  C_23 
REMARK    8  A    between atoms: C_11  and  C_14 
REMARK    9  A    between atoms: C_15  and  C_18 
REMARK   10  A    between atoms: C_15  and  C_23 
REMARK   11  A    between atoms: C_21  and  C_26 
REMARK   12  A    between atoms: C_24  and  C_25 
REMARK   13  A    between atoms: C_29  and  C_32 
REMARK   14  A    between atoms: C_36  and  O_39 
ROOT
HETATM    1  O   UNL     1      16.139   4.290  94.123  1.00  0.00    -0.350 OA
HETATM    2  N   UNL     1      14.369   2.744  92.517  1.00  0.00     0.147 N 
HETATM    3  C   UNL     1      14.323   4.212  92.514  1.00  0.00     0.283 C 
HETATM    4  C   UNL     1      14.850   2.257  93.817  1.00  0.00     0.283 C 
HETATM    5  C   UNL     1      15.703   4.773  92.851  1.00  0.00     0.178 C 
HETATM    6  C   UNL     1      16.216   2.864  94.124  1.00  0.00     0.178 C 
ENDROOT
BRANCH   2   7
HETATM    7  C   UNL     1      13.055   2.184  92.206  1.00  0.00     0.277 C 
BRANCH   7   8
HETATM    8  C   UNL     1      11.995   3.230  92.133  1.00  0.00     0.011 A 
HETATM    9  C   UNL     1      11.355   3.489  90.920  1.00  0.00    -0.002 A 
HETATM   10  C   UNL     1      10.365   4.469  90.850  1.00  0.00     0.008 A 
HETATM   11  C   UNL     1      10.015   5.188  91.992  1.00  0.00     0.042 A 
HETATM   12  C   UNL     1      10.653   4.930  93.204  1.00  0.00     0.008 A 
HETATM   13  C   UNL     1      11.644   3.951  93.274  1.00  0.00    -0.002 A 
BRANCH  11  14
HETATM   14  C   UNL     1       8.998   6.192  91.921  1.00  0.00    -0.059 C 
HETATM   15  C   UNL     1       8.143   7.036  91.859  1.00  0.00    -0.059 C 
BRANCH  15  16
HETATM   16  C   UNL     1       7.127   8.039  91.787  1.00  0.00     0.042 A 
HETATM   17  C   UNL     1       7.257   9.217  92.523  1.00  0.00     0.008 A 
HETATM   18  C   UNL     1       6.266  10.196  92.450  1.00  0.00     0.005 A 
HETATM   19  C   UNL     1       5.169   9.976  91.643  1.00  0.00     0.056 A 
HETATM   20  C   UNL     1       5.018   8.820  90.906  1.00  0.00     0.005 A 
HETATM   21  C   UNL     1       6.007   7.840  90.978  1.00  0.00     0.008 A 
BRANCH  19  22
HETATM   22  C   UNL     1       4.114  11.019  91.567  1.00  0.00     0.254 C 
HETATM   23  O   UNL     1       2.952  10.681  91.352  1.00  0.00    -0.268 OA
HETATM   24  N   UNL     1       4.533  12.325  91.774  1.00  0.00    -0.335 N 
HETATM   25  HN  UNL     1       5.507  12.526  91.971  1.00  0.00     0.164 HD
BRANCH  24  26
HETATM   26  C   UNL     1       3.625  13.444  91.756  1.00  0.00     0.169 C 
BRANCH  26  27
HETATM   27  C   UNL     1       3.425  14.068  93.143  1.00  0.00     0.138 C 
HETATM   28  C   UNL     1       4.634  13.874  94.051  1.00  0.00     0.034 C 
BRANCH  27  29
HETATM   29  O   UNL     1       3.169  15.466  93.004  1.00  0.00    -0.383 OA
HETATM   30  H   UNL     1       3.667  15.936  93.694  1.00  0.00     0.210 HD
ENDBRANCH  27  29
ENDBRANCH  26  27
BRANCH  26  31
HETATM   31  C   UNL     1       4.164  14.466  90.760  1.00  0.00     0.194 C 
HETATM   32  O   UNL     1       4.834  15.440  91.097  1.00  0.00    -0.289 OA
BRANCH  31  33
HETATM   33  C   UNL     1       3.781  14.186  89.471  1.00  0.00     0.053 C 
BRANCH  33  34
HETATM   34  C   UNL     1       4.803  13.767  88.608  1.00  0.00     0.220 C 
BRANCH  34  35
HETATM   35  O   UNL     1       5.886  13.905  89.206  1.00  0.00    -0.371 OA
HETATM   36  H   UNL     1       6.319  14.457  88.573  1.00  0.00     0.211 HD
ENDBRANCH  34  35
BRANCH  34  37
HETATM   37  C   UNL     1       4.624  12.461  88.121  1.00  0.00     0.185 C 
HETATM   38  O   UNL     1       5.759  12.237  88.766  1.00  0.00    -0.647 OA
BRANCH  37  39
HETATM   39  O   UNL     1       3.841  11.887  87.425  1.00  0.00    -0.774 OA
HETATM   40  H   UNL     1       3.157  11.215  88.031  1.00  0.00     0.167 HD
ENDBRANCH  37  39
ENDBRANCH  34  37
ENDBRANCH  33  34
ENDBRANCH  31  33
ENDBRANCH  26  31
ENDBRANCH  24  26
ENDBRANCH  19  22
ENDBRANCH  15  16
ENDBRANCH  11  14
ENDBRANCH   7   8
ENDBRANCH   2   7
TORSDOF 14
ENDMDL
