MODEL 1
REMARK VINA RESULT:      -6.6      0.000      0.000
REMARK  14 active torsions:
REMARK  status: ('A' for Active; 'I' for Inactive)
REMARK    1  A    between atoms: O_2  and  C_18 
REMARK    2  A    between atoms: C_5  and  C_8 
REMARK    3  A    between atoms: C_5  and  O_35 
REMARK    4  A    between atoms: C_5  and  C_36 
REMARK    5  A    between atoms: N_6  and  C_11 
REMARK    6  A    between atoms: N_7  and  C_15 
REMARK       I    between atoms: N_7  and  C_24 
REMARK    7  A    between atoms: C_8  and  C_23 
REMARK    8  A    between atoms: C_11  and  C_14 
REMARK    9  A    between atoms: C_15  and  C_18 
REMARK   10  A    between atoms: C_15  and  C_23 
REMARK   11  A    between atoms: C_21  and  C_26 
REMARK   12  A    between atoms: C_24  and  C_25 
REMARK   13  A    between atoms: C_29  and  C_32 
REMARK   14  A    between atoms: C_36  and  O_39 
ROOT
HETATM    1  O   UNL     1      16.535   3.225  93.633  1.00  0.00    -0.350 OA
HETATM    2  N   UNL     1      13.835   2.809  92.831  1.00  0.00     0.147 N 
HETATM    3  C   UNL     1      14.736   1.682  93.110  1.00  0.00     0.283 C 
HETATM    4  C   UNL     1      14.608   3.966  92.359  1.00  0.00     0.283 C 
HETATM    5  C   UNL     1      15.796   2.105  94.124  1.00  0.00     0.178 C 
HETATM    6  C   UNL     1      15.671   4.335  93.389  1.00  0.00     0.178 C 
ENDROOT
BRANCH   2   7
HETATM    7  C   UNL     1      12.818   2.429  91.853  1.00  0.00     0.277 C 
BRANCH   7   8
HETATM    8  C   UNL     1      11.687   3.400  91.805  1.00  0.00     0.011 A 
HETATM    9  C   UNL     1      10.976   3.582  90.618  1.00  0.00    -0.002 A 
HETATM   10  C   UNL     1       9.919   4.491  90.570  1.00  0.00     0.008 A 
HETATM   11  C   UNL     1       9.572   5.215  91.711  1.00  0.00     0.042 A 
HETATM   12  C   UNL     1      10.281   5.033  92.896  1.00  0.00     0.008 A 
HETATM   13  C   UNL     1      11.338   4.125  92.944  1.00  0.00    -0.002 A 
BRANCH  11  14
HETATM   14  C   UNL     1       8.487   6.146  91.662  1.00  0.00    -0.059 C 
HETATM   15  C   UNL     1       7.575   6.928  91.623  1.00  0.00    -0.059 C 
BRANCH  15  16
HETATM   16  C   UNL     1       6.490   7.859  91.575  1.00  0.00     0.042 A 
HETATM   17  C   UNL     1       5.824   8.090  90.371  1.00  0.00     0.008 A 
HETATM   18  C   UNL     1       4.764   8.997  90.325  1.00  0.00     0.005 A 
HETATM   19  C   UNL     1       4.395   9.650  91.482  1.00  0.00     0.056 A 
HETATM   20  C   UNL     1       5.038   9.439  92.684  1.00  0.00     0.005 A 
HETATM   21  C   UNL     1       6.098   8.533  92.731  1.00  0.00     0.008 A 
BRANCH  19  22
HETATM   22  C   UNL     1       3.268  10.616  91.432  1.00  0.00     0.254 C 
HETATM   23  O   UNL     1       2.130  10.200  91.230  1.00  0.00    -0.268 OA
HETATM   24  N   UNL     1       3.598  11.947  91.649  1.00  0.00    -0.335 N 
HETATM   25  HN  UNL     1       4.557  12.214  91.836  1.00  0.00     0.164 HD
BRANCH  24  26
HETATM   26  C   UNL     1       2.613  12.999  91.656  1.00  0.00     0.169 C 
BRANCH  26  27
HETATM   27  C   UNL     1       2.638  13.827  92.947  1.00  0.00     0.138 C 
HETATM   28  C   UNL     1       4.051  14.024  93.487  1.00  0.00     0.034 C 
BRANCH  27  29
HETATM   29  O   UNL     1       2.052  15.106  92.705  1.00  0.00    -0.383 OA
HETATM   30  H   UNL     1       2.231  15.354  91.783  1.00  0.00     0.210 HD
ENDBRANCH  27  29
ENDBRANCH  26  27
BRANCH  26  31
HETATM   31  C   UNL     1       2.857  13.874  90.431  1.00  0.00     0.194 C 
HETATM   32  O   UNL     1       1.949  14.403  89.794  1.00  0.00    -0.289 OA
BRANCH  31  33
HETATM   33  C   UNL     1       4.191  13.962  90.114  1.00  0.00     0.053 C 
BRANCH  33  34
HETATM   34  C   UNL     1       4.511  13.769  88.762  1.00  0.00     0.220 C 
BRANCH  34  35
HETATM   35  O   UNL     1       5.671  14.185  88.583  1.00  0.00    -0.371 OA
HETATM   36  H   UNL     1       5.931  14.248  89.489  1.00  0.00     0.211 HD
ENDBRANCH  34  35
BRANCH  34  37
HETATM   37  C   UNL     1       4.347  12.441  88.332  1.00  0.00     0.185 C 
HETATM   38  O   UNL     1       5.544  12.286  88.877  1.00  0.00    -0.647 OA
BRANCH  37  39
HETATM   39  O   UNL     1       3.531  11.813  87.727  1.00  0.00    -0.774 OA
HETATM   40  H   UNL     1       4.013  11.020  87.074  1.00  0.00     0.167 HD
ENDBRANCH  37  39
ENDBRANCH  34  37
ENDBRANCH  33  34
ENDBRANCH  31  33
ENDBRANCH  26  31
ENDBRANCH  24  26
ENDBRANCH  19  22
ENDBRANCH  15  16
ENDBRANCH  11  14
ENDBRANCH   7   8
ENDBRANCH   2   7
TORSDOF 14
ENDMDL
