MODEL 1
REMARK VINA RESULT:      -6.7      0.000      0.000
REMARK  14 active torsions:
REMARK  status: ('A' for Active; 'I' for Inactive)
REMARK    1  A    between atoms: O_2  and  C_18 
REMARK    2  A    between atoms: C_5  and  C_8 
REMARK    3  A    between atoms: C_5  and  O_35 
REMARK    4  A    between atoms: C_5  and  C_36 
REMARK    5  A    between atoms: N_6  and  C_11 
REMARK    6  A    between atoms: N_7  and  C_15 
REMARK       I    between atoms: N_7  and  C_24 
REMARK    7  A    between atoms: C_8  and  C_23 
REMARK    8  A    between atoms: C_11  and  C_14 
REMARK    9  A    between atoms: C_15  and  C_18 
REMARK   10  A    between atoms: C_15  and  C_23 
REMARK   11  A    between atoms: C_21  and  C_26 
REMARK   12  A    between atoms: C_24  and  C_25 
REMARK   13  A    between atoms: C_29  and  C_32 
REMARK   14  A    between atoms: C_36  and  O_39 
ROOT
HETATM    1  O   UNL     1      16.332   4.196  94.110  1.00  0.00    -0.350 OA
HETATM    2  N   UNL     1      14.585   2.590  92.538  1.00  0.00     0.147 N 
HETATM    3  C   UNL     1      14.500   4.057  92.523  1.00  0.00     0.283 C 
HETATM    4  C   UNL     1      15.094   2.128  93.836  1.00  0.00     0.283 C 
HETATM    5  C   UNL     1      15.868   4.657  92.839  1.00  0.00     0.178 C 
HETATM    6  C   UNL     1      16.446   2.773  94.122  1.00  0.00     0.178 C 
ENDROOT
BRANCH   2   7
HETATM    7  C   UNL     1      13.282   1.994  92.247  1.00  0.00     0.277 C 
BRANCH   7   8
HETATM    8  C   UNL     1      12.189   3.007  92.212  1.00  0.00     0.011 A 
HETATM    9  C   UNL     1      11.931   3.793  93.336  1.00  0.00    -0.002 A 
HETATM   10  C   UNL     1      10.907   4.739  93.305  1.00  0.00     0.008 A 
HETATM   11  C   UNL     1      10.143   4.901  92.149  1.00  0.00     0.042 A 
HETATM   12  C   UNL     1      10.400   4.117  91.026  1.00  0.00     0.008 A 
HETATM   13  C   UNL     1      11.424   3.169  91.057  1.00  0.00    -0.002 A 
BRANCH  11  14
HETATM   14  C   UNL     1       9.094   5.873  92.116  1.00  0.00    -0.059 C 
HETATM   15  C   UNL     1       8.213   6.690  92.090  1.00  0.00    -0.059 C 
BRANCH  15  16
HETATM   16  C   UNL     1       7.165   7.662  92.058  1.00  0.00     0.042 A 
HETATM   17  C   UNL     1       7.366   8.921  92.623  1.00  0.00     0.008 A 
HETATM   18  C   UNL     1       6.344   9.870  92.590  1.00  0.00     0.005 A 
HETATM   19  C   UNL     1       5.146   9.540  91.992  1.00  0.00     0.056 A 
HETATM   20  C   UNL     1       4.923   8.302  91.426  1.00  0.00     0.005 A 
HETATM   21  C   UNL     1       5.943   7.352  91.459  1.00  0.00     0.008 A 
BRANCH  19  22
HETATM   22  C   UNL     1       4.057  10.551  91.958  1.00  0.00     0.254 C 
HETATM   23  O   UNL     1       2.911  10.207  92.237  1.00  0.00    -0.268 OA
HETATM   24  N   UNL     1       4.439  11.844  91.628  1.00  0.00    -0.335 N 
HETATM   25  HN  UNL     1       5.410  12.059  91.434  1.00  0.00     0.164 HD
BRANCH  24  26
HETATM   26  C   UNL     1       3.503  12.939  91.577  1.00  0.00     0.169 C 
BRANCH  26  27
HETATM   27  C   UNL     1       3.758  13.988  92.667  1.00  0.00     0.138 C 
HETATM   28  C   UNL     1       4.472  13.407  93.882  1.00  0.00     0.034 C 
BRANCH  27  29
HETATM   29  O   UNL     1       4.546  15.051  92.130  1.00  0.00    -0.383 OA
HETATM   30  H   UNL     1       4.991  14.727  91.330  1.00  0.00     0.210 HD
ENDBRANCH  27  29
ENDBRANCH  26  27
BRANCH  26  31
HETATM   31  C   UNL     1       3.583  13.555  90.184  1.00  0.00     0.194 C 
HETATM   32  O   UNL     1       2.840  14.460  89.809  1.00  0.00    -0.289 OA
BRANCH  31  33
HETATM   33  C   UNL     1       4.543  12.955  89.406  1.00  0.00     0.053 C 
BRANCH  33  34
HETATM   34  C   UNL     1       4.120  12.525  88.140  1.00  0.00     0.220 C 
BRANCH  34  35
HETATM   35  O   UNL     1       4.785  13.142  87.287  1.00  0.00    -0.371 OA
HETATM   36  H   UNL     1       5.642  12.835  87.539  1.00  0.00     0.211 HD
ENDBRANCH  34  35
BRANCH  34  37
HETATM   37  C   UNL     1       4.194  11.132  87.968  1.00  0.00     0.185 C 
HETATM   38  O   UNL     1       5.191  11.239  88.833  1.00  0.00    -0.647 OA
BRANCH  37  39
HETATM   39  O   UNL     1       3.640  10.301  87.313  1.00  0.00    -0.774 OA
HETATM   40  H   UNL     1       3.096   9.549  87.964  1.00  0.00     0.167 HD
ENDBRANCH  37  39
ENDBRANCH  34  37
ENDBRANCH  33  34
ENDBRANCH  31  33
ENDBRANCH  26  31
ENDBRANCH  24  26
ENDBRANCH  19  22
ENDBRANCH  15  16
ENDBRANCH  11  14
ENDBRANCH   7   8
ENDBRANCH   2   7
TORSDOF 14
ENDMDL
