MODEL 1
REMARK VINA RESULT:      -6.2      0.000      0.000
REMARK  12 active torsions:
REMARK  status: ('A' for Active; 'I' for Inactive)
REMARK    1  A    between atoms: O_2  and  C_16 
REMARK    2  A    between atoms: N_5  and  C_9 
REMARK    3  A    between atoms: N_6  and  C_13 
REMARK       I    between atoms: N_6  and  C_22 
REMARK    4  A    between atoms: C_9  and  C_12 
REMARK    5  A    between atoms: C_13  and  C_16 
REMARK    6  A    between atoms: C_13  and  C_21 
REMARK    7  A    between atoms: C_19  and  C_24 
REMARK    8  A    between atoms: C_21  and  C_33 
REMARK    9  A    between atoms: C_22  and  C_23 
REMARK   10  A    between atoms: C_27  and  C_30 
REMARK   11  A    between atoms: C_33  and  C_34 
REMARK   12  A    between atoms: C_34  and  C_35 
ROOT
HETATM    1  O   UNL     1      16.692   3.700  93.818  1.00  0.00    -0.350 OA
HETATM    2  N   UNL     1      14.113   3.133  92.757  1.00  0.00     0.147 N 
HETATM    3  C   UNL     1      15.100   2.069  92.986  1.00  0.00     0.283 C 
HETATM    4  C   UNL     1      14.797   4.403  92.477  1.00  0.00     0.283 C 
HETATM    5  C   UNL     1      16.036   2.469  94.124  1.00  0.00     0.178 C 
HETATM    6  C   UNL     1      15.741   4.747  93.625  1.00  0.00     0.178 C 
ENDROOT
BRANCH   2   7
HETATM    7  C   UNL     1      13.211   2.776  91.663  1.00  0.00     0.277 C 
BRANCH   7   8
HETATM    8  C   UNL     1      12.045   3.700  91.564  1.00  0.00     0.011 A 
HETATM    9  C   UNL     1      11.700   4.255  90.331  1.00  0.00    -0.002 A 
HETATM   10  C   UNL     1      10.610   5.121  90.237  1.00  0.00     0.008 A 
HETATM   11  C   UNL     1       9.866   5.430  91.375  1.00  0.00     0.042 A 
HETATM   12  C   UNL     1      10.210   4.876  92.607  1.00  0.00     0.008 A 
HETATM   13  C   UNL     1      11.300   4.010  92.701  1.00  0.00    -0.002 A 
BRANCH  11  14
HETATM   14  C   UNL     1       8.748   6.316  91.279  1.00  0.00    -0.059 C 
HETATM   15  C   UNL     1       7.808   7.062  91.196  1.00  0.00    -0.059 C 
BRANCH  15  16
HETATM   16  C   UNL     1       6.690   7.948  91.099  1.00  0.00     0.042 A 
HETATM   17  C   UNL     1       6.782   9.245  91.604  1.00  0.00     0.008 A 
HETATM   18  C   UNL     1       5.692  10.109  91.506  1.00  0.00     0.005 A 
HETATM   19  C   UNL     1       4.536   9.659  90.905  1.00  0.00     0.056 A 
HETATM   20  C   UNL     1       4.419   8.382  90.398  1.00  0.00     0.005 A 
HETATM   21  C   UNL     1       5.508   7.516  90.496  1.00  0.00     0.008 A 
BRANCH  19  22
HETATM   22  C   UNL     1       3.374  10.580  90.803  1.00  0.00     0.254 C 
HETATM   23  O   UNL     1       2.415  10.261  90.104  1.00  0.00    -0.268 OA
HETATM   24  N   UNL     1       3.458  11.749  91.546  1.00  0.00    -0.335 N 
HETATM   25  HN  UNL     1       4.272  11.934  92.120  1.00  0.00     0.164 HD
BRANCH  24  26
HETATM   26  C   UNL     1       2.403  12.730  91.570  1.00  0.00     0.166 C 
BRANCH  26  27
HETATM   27  C   UNL     1       1.747  12.863  92.950  1.00  0.00     0.138 C 
HETATM   28  C   UNL     1       1.530  11.513  93.625  1.00  0.00     0.034 C 
BRANCH  27  29
HETATM   29  O   UNL     1       2.566  13.675  93.791  1.00  0.00    -0.383 OA
HETATM   30  H   UNL     1       2.042  14.442  94.078  1.00  0.00     0.210 HD
ENDBRANCH  27  29
ENDBRANCH  26  27
BRANCH  26  31
HETATM   31  C   UNL     1       2.992  14.059  91.106  1.00  0.00     0.181 C 
HETATM   32  O   UNL     1       2.732  15.132  91.647  1.00  0.00    -0.294 OA
BRANCH  31  33
HETATM   33  C   UNL     1       4.607  13.993  90.985  1.00  0.00     0.138 C 
BRANCH  33  34
HETATM   34  C   UNL     1       4.803  14.477  89.673  1.00  0.00     0.208 C 
HETATM   35  O   UNL     1       5.171  15.625  89.578  1.00  0.00    -0.289 OA
BRANCH  34  36
HETATM   36  C   UNL     1       4.929  13.804  88.488  1.00  0.00     0.194 C 
HETATM   37  O   UNL     1       5.128  12.441  88.239  1.00  0.00    -0.185 OA
ENDBRANCH  34  36
ENDBRANCH  33  34
ENDBRANCH  31  33
ENDBRANCH  26  31
ENDBRANCH  24  26
ENDBRANCH  19  22
ENDBRANCH  15  16
ENDBRANCH  11  14
ENDBRANCH   7   8
ENDBRANCH   2   7
TORSDOF 12
ENDMDL
