MODEL 1
REMARK VINA RESULT:      -7.0      0.000      0.000
REMARK  14 active torsions:
REMARK  status: ('A' for Active; 'I' for Inactive)
REMARK    1  A    between atoms: O_2  and  C_18 
REMARK    2  A    between atoms: C_5  and  C_8 
REMARK    3  A    between atoms: C_5  and  O_35 
REMARK    4  A    between atoms: C_5  and  C_36 
REMARK    5  A    between atoms: N_6  and  C_11 
REMARK    6  A    between atoms: N_7  and  C_15 
REMARK       I    between atoms: N_7  and  C_24 
REMARK    7  A    between atoms: C_8  and  C_23 
REMARK    8  A    between atoms: C_11  and  C_14 
REMARK    9  A    between atoms: C_15  and  C_18 
REMARK   10  A    between atoms: C_15  and  C_23 
REMARK   11  A    between atoms: C_21  and  C_26 
REMARK   12  A    between atoms: C_24  and  C_25 
REMARK   13  A    between atoms: C_29  and  C_32 
REMARK   14  A    between atoms: C_36  and  O_39 
ROOT
HETATM    1  O   UNL     1      16.434   4.082  94.122  1.00  0.00    -0.350 OA
HETATM    2  N   UNL     1      14.426   2.684  92.667  1.00  0.00     0.147 N 
HETATM    3  C   UNL     1      14.439   4.152  92.742  1.00  0.00     0.283 C 
HETATM    4  C   UNL     1      15.039   2.113  93.875  1.00  0.00     0.283 C 
HETATM    5  C   UNL     1      15.870   4.647  92.937  1.00  0.00     0.178 C 
HETATM    6  C   UNL     1      16.454   2.656  94.044  1.00  0.00     0.178 C 
ENDROOT
BRANCH   2   7
HETATM    7  C   UNL     1      13.063   2.187  92.491  1.00  0.00     0.277 C 
BRANCH   7   8
HETATM    8  C   UNL     1      12.050   3.280  92.527  1.00  0.00     0.011 A 
HETATM    9  C   UNL     1      11.335   3.605  91.373  1.00  0.00    -0.002 A 
HETATM   10  C   UNL     1      10.388   4.629  91.405  1.00  0.00     0.008 A 
HETATM   11  C   UNL     1      10.157   5.327  92.590  1.00  0.00     0.042 A 
HETATM   12  C   UNL     1      10.871   5.003  93.742  1.00  0.00     0.008 A 
HETATM   13  C   UNL     1      11.818   3.980  93.711  1.00  0.00    -0.002 A 
BRANCH  11  14
HETATM   14  C   UNL     1       9.185   6.376  92.623  1.00  0.00    -0.059 C 
HETATM   15  C   UNL     1       8.368   7.258  92.651  1.00  0.00    -0.059 C 
BRANCH  15  16
HETATM   16  C   UNL     1       7.397   8.307  92.685  1.00  0.00     0.042 A 
HETATM   17  C   UNL     1       7.714   9.530  93.276  1.00  0.00     0.008 A 
HETATM   18  C   UNL     1       6.767  10.554  93.306  1.00  0.00     0.005 A 
HETATM   19  C   UNL     1       5.528  10.333  92.744  1.00  0.00     0.056 A 
HETATM   20  C   UNL     1       5.190   9.133  92.154  1.00  0.00     0.005 A 
HETATM   21  C   UNL     1       6.136   8.108  92.123  1.00  0.00     0.008 A 
BRANCH  19  22
HETATM   22  C   UNL     1       4.519  11.424  92.777  1.00  0.00     0.254 C 
HETATM   23  O   UNL     1       3.780  11.527  93.753  1.00  0.00    -0.268 OA
HETATM   24  N   UNL     1       4.509  12.277  91.683  1.00  0.00    -0.335 N 
HETATM   25  HN  UNL     1       5.167  12.144  90.923  1.00  0.00     0.164 HD
BRANCH  24  26
HETATM   26  C   UNL     1       3.607  13.395  91.579  1.00  0.00     0.169 C 
BRANCH  26  27
HETATM   27  C   UNL     1       4.129  14.647  92.296  1.00  0.00     0.138 C 
HETATM   28  C   UNL     1       4.990  15.521  91.391  1.00  0.00     0.034 C 
BRANCH  27  29
HETATM   29  O   UNL     1       3.028  15.418  92.773  1.00  0.00    -0.383 OA
HETATM   30  H   UNL     1       3.354  16.022  93.462  1.00  0.00     0.210 HD
ENDBRANCH  27  29
ENDBRANCH  26  27
BRANCH  26  31
HETATM   31  C   UNL     1       3.367  13.665  90.097  1.00  0.00     0.194 C 
HETATM   32  O   UNL     1       2.413  14.320  89.682  1.00  0.00    -0.289 OA
BRANCH  31  33
HETATM   33  C   UNL     1       4.309  13.061  89.301  1.00  0.00     0.053 C 
BRANCH  33  34
HETATM   34  C   UNL     1       3.815  12.384  88.177  1.00  0.00     0.220 C 
BRANCH  34  35
HETATM   35  O   UNL     1       4.460  12.774  87.184  1.00  0.00    -0.371 OA
HETATM   36  H   UNL     1       5.151  12.130  87.214  1.00  0.00     0.211 HD
ENDBRANCH  34  35
BRANCH  34  37
HETATM   37  C   UNL     1       3.836  10.986  88.311  1.00  0.00     0.185 C 
HETATM   38  O   UNL     1       2.562  11.093  87.967  1.00  0.00    -0.647 OA
BRANCH  37  39
HETATM   39  O   UNL     1       4.627  10.150  88.631  1.00  0.00    -0.774 OA
HETATM   40  H   UNL     1       5.589  10.611  89.019  1.00  0.00     0.167 HD
ENDBRANCH  37  39
ENDBRANCH  34  37
ENDBRANCH  33  34
ENDBRANCH  31  33
ENDBRANCH  26  31
ENDBRANCH  24  26
ENDBRANCH  19  22
ENDBRANCH  15  16
ENDBRANCH  11  14
ENDBRANCH   7   8
ENDBRANCH   2   7
TORSDOF 14
ENDMDL
