MODEL 1
REMARK VINA RESULT:      -7.1      0.000      0.000
REMARK  10 active torsions:
REMARK  status: ('A' for Active; 'I' for Inactive)
REMARK    1  A    between atoms: O_2  and  C_18 
REMARK    2  A    between atoms: O_5  and  N_8 
REMARK    3  A    between atoms: N_6  and  C_11 
REMARK    4  A    between atoms: N_7  and  C_15 
REMARK       I    between atoms: N_7  and  C_24 
REMARK       I    between atoms: N_8  and  C_23 
REMARK    5  A    between atoms: C_11  and  C_14 
REMARK    6  A    between atoms: C_15  and  C_18 
REMARK    7  A    between atoms: C_15  and  C_23 
REMARK    8  A    between atoms: C_21  and  C_26 
REMARK    9  A    between atoms: C_24  and  C_25 
REMARK   10  A    between atoms: C_29  and  C_32 
ROOT
HETATM    1  O   UNK     0      16.567   4.290  94.107  0.00  0.00    -0.388 OA
HETATM    2  N   UNK     0      14.710   2.645  92.712  0.00  0.00     0.096 N 
HETATM    3  C   UNK     0      14.605   4.110  92.690  0.00  0.00     0.299 C 
HETATM    4  C   UNK     0      15.336   2.204  93.965  0.00  0.00     0.299 C 
HETATM    5  C   UNK     0      15.987   4.730  92.877  0.00  0.00     0.198 C 
HETATM    6  C   UNK     0      16.700   2.868  94.124  0.00  0.00     0.198 C 
ENDROOT
BRANCH   2   7
HETATM    7  C   UNK     0      13.394   2.029  92.544  0.00  0.00     0.311 C 
BRANCH   7   8
HETATM    8  C   UNK     0      12.335   3.030  92.232  0.00  0.00    -0.030 A 
HETATM    9  C   UNK     0      11.769   3.071  90.956  0.00  0.00     0.010 A 
HETATM   10  C   UNK     0      10.780   4.009  90.662  0.00  0.00     0.021 A 
HETATM   11  C   UNK     0      10.354   4.903  91.644  0.00  0.00     0.018 A 
HETATM   12  C   UNK     0      10.917   4.863  92.918  0.00  0.00     0.021 A 
HETATM   13  C   UNK     0      11.908   3.926  93.212  0.00  0.00     0.010 A 
BRANCH  11  14
HETATM   14  C   UNK     0       9.337   5.863  91.343  0.00  0.00    -0.061 C 
HETATM   15  C   UNK     0       8.482   6.670  91.090  0.00  0.00    -0.061 C 
BRANCH  15  16
HETATM   16  C   UNK     0       7.466   7.629  90.790  0.00  0.00     0.018 A 
HETATM   17  C   UNK     0       6.342   7.246  90.056  0.00  0.00     0.022 A 
HETATM   18  C   UNK     0       5.349   8.181  89.765  0.00  0.00     0.018 A 
HETATM   19  C   UNK     0       5.500   9.476  90.214  0.00  0.00     0.032 A 
HETATM   20  C   UNK     0       6.601   9.880  90.940  0.00  0.00     0.018 A 
HETATM   21  C   UNK     0       7.595   8.946  91.231  0.00  0.00     0.022 A 
BRANCH  19  22
HETATM   22  C   UNK     0       4.442  10.472  89.902  0.00  0.00     0.252 C 
HETATM   23  O   UNK     0       3.428  10.106  89.314  0.00  0.00    -0.268 OA
HETATM   24  N   UNK     0       4.682  11.769  90.334  0.00  0.00    -0.341 N 
HETATM   25  H   UNK     0       5.533  11.994  90.837  0.00  0.00     0.163 HD
BRANCH  24  26
HETATM   26  C   UNK     0       3.742  12.841  90.129  0.00  0.00     0.207 C 
BRANCH  26  27
HETATM   27  C   UNK     0       3.573  13.729  91.369  0.00  0.00     0.146 C 
HETATM   28  C   UNK     0       2.128  13.785  91.854  0.00  0.00     0.042 C 
BRANCH  27  29
HETATM   29  O   UNK     0       4.397  13.236  92.424  0.00  0.00    -0.393 OA
HETATM   30  H   UNK     0       4.795  12.398  92.134  0.00  0.00     0.210 HD
ENDBRANCH  27  29
ENDBRANCH  26  27
BRANCH  26  31
HETATM   31  C   UNK     0       4.215  13.653  88.927  0.00  0.00     0.266 C 
HETATM   32  O   UNK     0       4.364  14.873  88.959  0.00  0.00    -0.269 OA
HETATM   33  N   UNK     0       4.412  12.868  87.816  0.00  0.00    -0.236 N 
HETATM   34  H   UNK     0       4.214  11.878  87.730  0.00  0.00     0.197 HD
BRANCH  33  35
HETATM   35  O   UNK     0       4.812  13.544  86.655  0.00  0.00    -0.287 OA
HETATM   36  H   UNK     0       4.892  14.450  87.000  0.00  0.00     0.244 HD
ENDBRANCH  33  35
ENDBRANCH  26  31
ENDBRANCH  24  26
ENDBRANCH  19  22
ENDBRANCH  15  16
ENDBRANCH  11  14
ENDBRANCH   7   8
ENDBRANCH   2   7
TORSDOF 10
ENDMDL
MODEL 2
REMARK VINA RESULT:      -7.0      0.868      1.173
REMARK  10 active torsions:
REMARK  status: ('A' for Active; 'I' for Inactive)
REMARK    1  A    between atoms: O_2  and  C_18 
REMARK    2  A    between atoms: O_5  and  N_8 
REMARK    3  A    between atoms: N_6  and  C_11 
REMARK    4  A    between atoms: N_7  and  C_15 
REMARK       I    between atoms: N_7  and  C_24 
REMARK       I    between atoms: N_8  and  C_23 
REMARK    5  A    between atoms: C_11  and  C_14 
REMARK    6  A    between atoms: C_15  and  C_18 
REMARK    7  A    between atoms: C_15  and  C_23 
REMARK    8  A    between atoms: C_21  and  C_26 
REMARK    9  A    between atoms: C_24  and  C_25 
REMARK   10  A    between atoms: C_29  and  C_32 
ROOT
HETATM    1  O   UNK     0      17.078   4.341  93.790  0.00  0.00    -0.388 OA
HETATM    2  N   UNK     0      14.747   2.747  93.435  0.00  0.00     0.096 N 
HETATM    3  C   UNK     0      16.087   2.226  93.130  0.00  0.00     0.299 C 
HETATM    4  C   UNK     0      14.718   4.203  93.246  0.00  0.00     0.299 C 
HETATM    5  C   UNK     0      17.125   2.929  94.001  0.00  0.00     0.198 C 
HETATM    6  C   UNK     0      15.788   4.859  94.114  0.00  0.00     0.198 C 
ENDROOT
BRANCH   2   7
HETATM    7  C   UNK     0      13.737   2.095  92.603  0.00  0.00     0.311 C 
BRANCH   7   8
HETATM    8  C   UNK     0      12.628   3.018  92.228  0.00  0.00    -0.030 A 
HETATM    9  C   UNK     0      12.522   3.483  90.916  0.00  0.00     0.010 A 
HETATM   10  C   UNK     0      11.487   4.348  90.565  0.00  0.00     0.021 A 
HETATM   11  C   UNK     0      10.556   4.747  91.524  0.00  0.00     0.018 A 
HETATM   12  C   UNK     0      10.661   4.283  92.834  0.00  0.00     0.021 A 
HETATM   13  C   UNK     0      11.697   3.418  93.186  0.00  0.00     0.010 A 
BRANCH  11  14
HETATM   14  C   UNK     0       9.493   5.633  91.162  0.00  0.00    -0.061 C 
HETATM   15  C   UNK     0       8.599   6.378  90.859  0.00  0.00    -0.061 C 
BRANCH  15  16
HETATM   16  C   UNK     0       7.536   7.262  90.498  0.00  0.00     0.018 A 
HETATM   17  C   UNK     0       6.256   7.060  91.017  0.00  0.00     0.022 A 
HETATM   18  C   UNK     0       5.219   7.924  90.667  0.00  0.00     0.018 A 
HETATM   19  C   UNK     0       5.483   8.970  89.807  0.00  0.00     0.032 A 
HETATM   20  C   UNK     0       6.738   9.190  89.280  0.00  0.00     0.018 A 
HETATM   21  C   UNK     0       7.776   8.326  89.630  0.00  0.00     0.022 A 
BRANCH  19  22
HETATM   22  C   UNK     0       4.377   9.888  89.433  0.00  0.00     0.252 C 
HETATM   23  O   UNK     0       3.474   9.476  88.708  0.00  0.00    -0.268 OA
HETATM   24  N   UNK     0       4.442  11.168  89.967  0.00  0.00    -0.341 N 
HETATM   25  H   UNK     0       5.205  11.429  90.580  0.00  0.00     0.163 HD
BRANCH  24  26
HETATM   26  C   UNK     0       3.432  12.165  89.717  0.00  0.00     0.207 C 
BRANCH  26  27
HETATM   27  C   UNK     0       2.847  12.754  91.007  0.00  0.00     0.146 C 
HETATM   28  C   UNK     0       2.333  11.680  91.959  0.00  0.00     0.042 C 
BRANCH  27  29
HETATM   29  O   UNK     0       3.845  13.526  91.674  0.00  0.00    -0.393 OA
HETATM   30  H   UNK     0       4.374  12.927  92.228  0.00  0.00     0.210 HD
ENDBRANCH  27  29
ENDBRANCH  26  27
BRANCH  26  31
HETATM   31  C   UNK     0       4.055  13.250  88.845  0.00  0.00     0.266 C 
HETATM   32  O   UNK     0       4.130  14.427  89.191  0.00  0.00    -0.269 OA
HETATM   33  N   UNK     0       4.477  12.762  87.632  0.00  0.00    -0.236 N 
HETATM   34  H   UNK     0       4.351  11.820  87.279  0.00  0.00     0.197 HD
BRANCH  33  35
HETATM   35  O   UNK     0       5.029  13.705  86.753  0.00  0.00    -0.287 OA
HETATM   36  H   UNK     0       4.314  13.772  86.098  0.00  0.00     0.244 HD
ENDBRANCH  33  35
ENDBRANCH  26  31
ENDBRANCH  24  26
ENDBRANCH  19  22
ENDBRANCH  15  16
ENDBRANCH  11  14
ENDBRANCH   7   8
ENDBRANCH   2   7
TORSDOF 10
ENDMDL
MODEL 3
REMARK VINA RESULT:      -6.8      1.458      1.996
REMARK  10 active torsions:
REMARK  status: ('A' for Active; 'I' for Inactive)
REMARK    1  A    between atoms: O_2  and  C_18 
REMARK    2  A    between atoms: O_5  and  N_8 
REMARK    3  A    between atoms: N_6  and  C_11 
REMARK    4  A    between atoms: N_7  and  C_15 
REMARK       I    between atoms: N_7  and  C_24 
REMARK       I    between atoms: N_8  and  C_23 
REMARK    5  A    between atoms: C_11  and  C_14 
REMARK    6  A    between atoms: C_15  and  C_18 
REMARK    7  A    between atoms: C_15  and  C_23 
REMARK    8  A    between atoms: C_21  and  C_26 
REMARK    9  A    between atoms: C_24  and  C_25 
REMARK   10  A    between atoms: C_29  and  C_32 
ROOT
HETATM    1  O   UNK     0      16.583   3.239  93.888  0.00  0.00    -0.388 OA
HETATM    2  N   UNK     0      13.991   2.957  92.747  0.00  0.00     0.096 N 
HETATM    3  C   UNK     0      14.871   1.798  92.949  0.00  0.00     0.299 C 
HETATM    4  C   UNK     0      14.794   4.169  92.538  0.00  0.00     0.299 C 
HETATM    5  C   UNK     0      15.810   2.061  94.124  0.00  0.00     0.198 C 
HETATM    6  C   UNK     0      15.735   4.376  93.721  0.00  0.00     0.198 C 
ENDROOT
BRANCH   2   7
HETATM    7  C   UNK     0      13.089   2.731  91.618  0.00  0.00     0.311 C 
BRANCH   7   8
HETATM    8  C   UNK     0      11.955   3.697  91.596  0.00  0.00    -0.030 A 
HETATM    9  C   UNK     0      11.509   4.220  90.381  0.00  0.00     0.010 A 
HETATM   10  C   UNK     0      10.449   5.127  90.359  0.00  0.00     0.021 A 
HETATM   11  C   UNK     0       9.834   5.508  91.551  0.00  0.00     0.018 A 
HETATM   12  C   UNK     0      10.278   4.986  92.764  0.00  0.00     0.021 A 
HETATM   13  C   UNK     0      11.338   4.080  92.787  0.00  0.00     0.010 A 
BRANCH  11  14
HETATM   14  C   UNK     0       8.745   6.436  91.528  0.00  0.00    -0.061 C 
HETATM   15  C   UNK     0       7.830   7.216  91.508  0.00  0.00    -0.061 C 
BRANCH  15  16
HETATM   16  C   UNK     0       6.742   8.142  91.486  0.00  0.00     0.018 A 
HETATM   17  C   UNK     0       6.266   8.686  92.680  0.00  0.00     0.022 A 
HETATM   18  C   UNK     0       5.205   9.591  92.658  0.00  0.00     0.018 A 
HETATM   19  C   UNK     0       4.645   9.933  91.445  0.00  0.00     0.032 A 
HETATM   20  C   UNK     0       5.097   9.409  90.252  0.00  0.00     0.018 A 
HETATM   21  C   UNK     0       6.157   8.503  90.273  0.00  0.00     0.022 A 
BRANCH  19  22
HETATM   22  C   UNK     0       3.514  10.896  91.423  0.00  0.00     0.252 C 
HETATM   23  O   UNK     0       2.402  10.507  91.075  0.00  0.00    -0.268 OA
HETATM   24  N   UNK     0       3.808  12.189  91.832  0.00  0.00    -0.341 N 
HETATM   25  H   UNK     0       4.745  12.432  92.130  0.00  0.00     0.163 HD
BRANCH  24  26
HETATM   26  C   UNK     0       2.813  13.230  91.889  0.00  0.00     0.207 C 
BRANCH  26  27
HETATM   27  C   UNK     0       2.908  14.073  93.167  0.00  0.00     0.146 C 
HETATM   28  C   UNK     0       4.254  13.922  93.867  0.00  0.00     0.042 C 
BRANCH  27  29
HETATM   29  O   UNK     0       2.703  15.449  92.848  0.00  0.00    -0.393 OA
HETATM   30  H   UNK     0       3.557  15.908  92.914  0.00  0.00     0.210 HD
ENDBRANCH  27  29
ENDBRANCH  26  27
BRANCH  26  31
HETATM   31  C   UNK     0       2.971  14.094  90.642  0.00  0.00     0.266 C 
HETATM   32  O   UNK     0       2.016  14.498  89.981  0.00  0.00    -0.269 OA
HETATM   33  N   UNK     0       4.290  14.326  90.335  0.00  0.00    -0.236 N 
HETATM   34  H   UNK     0       5.100  13.936  90.804  0.00  0.00     0.197 HD
BRANCH  33  35
HETATM   35  O   UNK     0       4.523  15.083  89.178  0.00  0.00    -0.287 OA
HETATM   36  H   UNK     0       4.686  15.957  89.571  0.00  0.00     0.244 HD
ENDBRANCH  33  35
ENDBRANCH  26  31
ENDBRANCH  24  26
ENDBRANCH  19  22
ENDBRANCH  15  16
ENDBRANCH  11  14
ENDBRANCH   7   8
ENDBRANCH   2   7
TORSDOF 10
ENDMDL
MODEL 4
REMARK VINA RESULT:      -6.0      2.659     12.816
REMARK  10 active torsions:
REMARK  status: ('A' for Active; 'I' for Inactive)
REMARK    1  A    between atoms: O_2  and  C_18 
REMARK    2  A    between atoms: O_5  and  N_8 
REMARK    3  A    between atoms: N_6  and  C_11 
REMARK    4  A    between atoms: N_7  and  C_15 
REMARK       I    between atoms: N_7  and  C_24 
REMARK       I    between atoms: N_8  and  C_23 
REMARK    5  A    between atoms: C_11  and  C_14 
REMARK    6  A    between atoms: C_15  and  C_18 
REMARK    7  A    between atoms: C_15  and  C_23 
REMARK    8  A    between atoms: C_21  and  C_26 
REMARK    9  A    between atoms: C_24  and  C_25 
REMARK   10  A    between atoms: C_29  and  C_32 
ROOT
HETATM    1  O   UNK     0       2.177  15.625  93.503  0.00  0.00    -0.388 OA
HETATM    2  N   UNK     0       3.546  13.637  91.995  0.00  0.00     0.096 N 
HETATM    3  C   UNK     0       4.218  14.870  92.430  0.00  0.00     0.299 C 
HETATM    4  C   UNK     0       2.109  13.883  91.815  0.00  0.00     0.299 C 
HETATM    5  C   UNK     0       3.570  15.387  93.711  0.00  0.00     0.198 C 
HETATM    6  C   UNK     0       1.511  14.424  93.110  0.00  0.00     0.198 C 
ENDROOT
BRANCH   2   7
HETATM    7  C   UNK     0       4.144  13.129  90.762  0.00  0.00     0.311 C 
BRANCH   7   8
HETATM    8  C   UNK     0       5.089  12.003  91.011  0.00  0.00    -0.030 A 
HETATM    9  C   UNK     0       5.920  11.552  89.985  0.00  0.00     0.010 A 
HETATM   10  C   UNK     0       6.803  10.497  90.216  0.00  0.00     0.021 A 
HETATM   11  C   UNK     0       6.855   9.895  91.473  0.00  0.00     0.018 A 
HETATM   12  C   UNK     0       6.026  10.345  92.498  0.00  0.00     0.021 A 
HETATM   13  C   UNK     0       5.143  11.400  92.267  0.00  0.00     0.010 A 
BRANCH  11  14
HETATM   14  C   UNK     0       7.763   8.815  91.710  0.00  0.00    -0.061 C 
HETATM   15  C   UNK     0       8.525   7.907  91.910  0.00  0.00    -0.061 C 
BRANCH  15  16
HETATM   16  C   UNK     0       9.432   6.828  92.146  0.00  0.00     0.018 A 
HETATM   17  C   UNK     0       9.880   6.565  93.441  0.00  0.00     0.022 A 
HETATM   18  C   UNK     0      10.763   5.510  93.672  0.00  0.00     0.018 A 
HETATM   19  C   UNK     0      11.178   4.742  92.604  0.00  0.00     0.032 A 
HETATM   20  C   UNK     0      10.750   4.981  91.315  0.00  0.00     0.018 A 
HETATM   21  C   UNK     0       9.868   6.036  91.084  0.00  0.00     0.022 A 
BRANCH  19  22
HETATM   22  C   UNK     0      12.120   3.620  92.851  0.00  0.00     0.252 C 
HETATM   23  O   UNK     0      11.885   2.520  92.357  0.00  0.00    -0.268 OA
HETATM   24  N   UNK     0      13.235   3.920  93.621  0.00  0.00    -0.341 N 
HETATM   25  H   UNK     0      13.376   4.859  93.975  0.00  0.00     0.163 HD
BRANCH  24  26
HETATM   26  C   UNK     0      14.251   2.946  93.927  0.00  0.00     0.207 C 
BRANCH  26  27
HETATM   27  C   UNK     0      14.277   1.781  92.929  0.00  0.00     0.146 C 
HETATM   28  C   UNK     0      15.108   2.094  91.690  0.00  0.00     0.042 C 
BRANCH  27  29
HETATM   29  O   UNK     0      14.811   0.620  93.565  0.00  0.00    -0.393 OA
HETATM   30  H   UNK     0      15.285   0.097  92.896  0.00  0.00     0.210 HD
ENDBRANCH  27  29
ENDBRANCH  26  27
BRANCH  26  31
HETATM   31  C   UNK     0      15.593   3.670  93.970  0.00  0.00     0.266 C 
HETATM   32  O   UNK     0      15.700   4.889  93.851  0.00  0.00    -0.269 OA
HETATM   33  N   UNK     0      16.647   2.801  94.114  0.00  0.00    -0.236 N 
HETATM   34  H   UNK     0      16.602   1.789  94.125  0.00  0.00     0.197 HD
BRANCH  33  35
HETATM   35  O   UNK     0      17.922   3.385  94.124  0.00  0.00    -0.287 OA
HETATM   36  H   UNK     0      17.688   4.317  93.973  0.00  0.00     0.244 HD
ENDBRANCH  33  35
ENDBRANCH  26  31
ENDBRANCH  24  26
ENDBRANCH  19  22
ENDBRANCH  15  16
ENDBRANCH  11  14
ENDBRANCH   7   8
ENDBRANCH   2   7
TORSDOF 10
ENDMDL
MODEL 5
REMARK VINA RESULT:      -5.8      2.797     12.307
REMARK  10 active torsions:
REMARK  status: ('A' for Active; 'I' for Inactive)
REMARK    1  A    between atoms: O_2  and  C_18 
REMARK    2  A    between atoms: O_5  and  N_8 
REMARK    3  A    between atoms: N_6  and  C_11 
REMARK    4  A    between atoms: N_7  and  C_15 
REMARK       I    between atoms: N_7  and  C_24 
REMARK       I    between atoms: N_8  and  C_23 
REMARK    5  A    between atoms: C_11  and  C_14 
REMARK    6  A    between atoms: C_15  and  C_18 
REMARK    7  A    between atoms: C_15  and  C_23 
REMARK    8  A    between atoms: C_21  and  C_26 
REMARK    9  A    between atoms: C_24  and  C_25 
REMARK   10  A    between atoms: C_29  and  C_32 
ROOT
HETATM    1  O   UNK     0       2.770  14.473  94.123  0.00  0.00    -0.388 OA
HETATM    2  N   UNK     0       2.610  14.603  91.284  0.00  0.00     0.096 N 
HETATM    3  C   UNK     0       1.731  13.720  92.063  0.00  0.00     0.299 C 
HETATM    4  C   UNK     0       3.882  14.798  91.991  0.00  0.00     0.299 C 
HETATM    5  C   UNK     0       1.517  14.303  93.458  0.00  0.00     0.198 C 
HETATM    6  C   UNK     0       3.619  15.355  93.387  0.00  0.00     0.198 C 
ENDROOT
BRANCH   2   7
HETATM    7  C   UNK     0       2.837  14.058  89.947  0.00  0.00     0.311 C 
BRANCH   7   8
HETATM    8  C   UNK     0       3.840  12.955  89.946  0.00  0.00    -0.030 A 
HETATM    9  C   UNK     0       3.578  11.774  90.641  0.00  0.00     0.010 A 
HETATM   10  C   UNK     0       4.516  10.742  90.643  0.00  0.00     0.021 A 
HETATM   11  C   UNK     0       5.716  10.892  89.948  0.00  0.00     0.018 A 
HETATM   12  C   UNK     0       5.979  12.070  89.253  0.00  0.00     0.021 A 
HETATM   13  C   UNK     0       5.041  13.102  89.252  0.00  0.00     0.010 A 
BRANCH  11  14
HETATM   14  C   UNK     0       6.678   9.832  89.948  0.00  0.00    -0.061 C 
HETATM   15  C   UNK     0       7.486   8.942  89.948  0.00  0.00    -0.061 C 
BRANCH  15  16
HETATM   16  C   UNK     0       8.448   7.886  89.948  0.00  0.00     0.018 A 
HETATM   17  C   UNK     0       9.266   7.689  88.835  0.00  0.00     0.022 A 
HETATM   18  C   UNK     0      10.207   6.659  88.835  0.00  0.00     0.018 A 
HETATM   19  C   UNK     0      10.308   5.848  89.946  0.00  0.00     0.032 A 
HETATM   20  C   UNK     0       9.511   6.021  91.058  0.00  0.00     0.018 A 
HETATM   21  C   UNK     0       8.570   7.051  91.058  0.00  0.00     0.022 A 
BRANCH  19  22
HETATM   22  C   UNK     0      11.308   4.750  89.944  0.00  0.00     0.252 C 
HETATM   23  O   UNK     0      11.483   4.100  88.917  0.00  0.00    -0.268 OA
HETATM   24  N   UNK     0      12.001   4.557  91.131  0.00  0.00    -0.341 N 
HETATM   25  H   UNK     0      11.821   5.150  91.933  0.00  0.00     0.163 HD
BRANCH  24  26
HETATM   26  C   UNK     0      13.019   3.548  91.280  0.00  0.00     0.207 C 
BRANCH  26  27
HETATM   27  C   UNK     0      14.211   4.026  92.119  0.00  0.00     0.146 C 
HETATM   28  C   UNK     0      13.859   4.184  93.594  0.00  0.00     0.042 C 
BRANCH  27  29
HETATM   29  O   UNK     0      15.285   3.094  91.996  0.00  0.00    -0.393 OA
HETATM   30  H   UNK     0      15.921   3.267  92.711  0.00  0.00     0.210 HD
ENDBRANCH  27  29
ENDBRANCH  26  27
BRANCH  26  31
HETATM   31  C   UNK     0      12.366   2.314  91.895  0.00  0.00     0.266 C 
HETATM   32  O   UNK     0      12.949   1.238  92.015  0.00  0.00    -0.269 OA
HETATM   33  N   UNK     0      11.060   2.543  92.254  0.00  0.00    -0.236 N 
HETATM   34  H   UNK     0      10.524   3.387  92.089  0.00  0.00     0.197 HD
BRANCH  33  35
HETATM   35  O   UNK     0      10.375   1.446  92.795  0.00  0.00    -0.287 OA
HETATM   36  H   UNK     0       9.788   1.223  92.052  0.00  0.00     0.244 HD
ENDBRANCH  33  35
ENDBRANCH  26  31
ENDBRANCH  24  26
ENDBRANCH  19  22
ENDBRANCH  15  16
ENDBRANCH  11  14
ENDBRANCH   7   8
ENDBRANCH   2   7
TORSDOF 10
ENDMDL
MODEL 6
REMARK VINA RESULT:      -5.1      1.855     12.399
REMARK  10 active torsions:
REMARK  status: ('A' for Active; 'I' for Inactive)
REMARK    1  A    between atoms: O_2  and  C_18 
REMARK    2  A    between atoms: O_5  and  N_8 
REMARK    3  A    between atoms: N_6  and  C_11 
REMARK    4  A    between atoms: N_7  and  C_15 
REMARK       I    between atoms: N_7  and  C_24 
REMARK       I    between atoms: N_8  and  C_23 
REMARK    5  A    between atoms: C_11  and  C_14 
REMARK    6  A    between atoms: C_15  and  C_18 
REMARK    7  A    between atoms: C_15  and  C_23 
REMARK    8  A    between atoms: C_21  and  C_26 
REMARK    9  A    between atoms: C_24  and  C_25 
REMARK   10  A    between atoms: C_29  and  C_32 
ROOT
HETATM    1  O   UNK     0       5.331  14.387  88.407  0.00  0.00    -0.388 OA
HETATM    2  N   UNK     0       3.445  12.994  90.022  0.00  0.00     0.096 N 
HETATM    3  C   UNK     0       4.213  14.131  90.546  0.00  0.00     0.299 C 
HETATM    4  C   UNK     0       4.213  12.309  88.973  0.00  0.00     0.299 C 
HETATM    5  C   UNK     0       4.578  15.078  89.406  0.00  0.00     0.198 C 
HETATM    6  C   UNK     0       4.579  13.298  87.870  0.00  0.00     0.198 C 
ENDROOT
BRANCH   2   7
HETATM    7  C   UNK     0       3.093  12.067  91.096  0.00  0.00     0.311 C 
BRANCH   7   8
HETATM    8  C   UNK     0       4.137  11.026  91.314  0.00  0.00    -0.030 A 
HETATM    9  C   UNK     0       5.439  11.404  91.645  0.00  0.00     0.010 A 
HETATM   10  C   UNK     0       6.418  10.431  91.847  0.00  0.00     0.021 A 
HETATM   11  C   UNK     0       6.093   9.081  91.719  0.00  0.00     0.018 A 
HETATM   12  C   UNK     0       4.794   8.702  91.389  0.00  0.00     0.021 A 
HETATM   13  C   UNK     0       3.815   9.675  91.186  0.00  0.00     0.010 A 
BRANCH  11  14
HETATM   14  C   UNK     0       7.097   8.082  91.928  0.00  0.00    -0.061 C 
HETATM   15  C   UNK     0       7.940   7.243  92.104  0.00  0.00    -0.061 C 
BRANCH  15  16
HETATM   16  C   UNK     0       8.942   6.247  92.314  0.00  0.00     0.018 A 
HETATM   17  C   UNK     0       9.785   6.330  93.424  0.00  0.00     0.022 A 
HETATM   18  C   UNK     0      10.762   5.356  93.630  0.00  0.00     0.018 A 
HETATM   19  C   UNK     0      10.875   4.322  92.725  0.00  0.00     0.032 A 
HETATM   20  C   UNK     0      10.055   4.218  91.621  0.00  0.00     0.018 A 
HETATM   21  C   UNK     0       9.078   5.191  91.413  0.00  0.00     0.022 A 
BRANCH  19  22
HETATM   22  C   UNK     0      11.918   3.286  92.944  0.00  0.00     0.252 C 
HETATM   23  O   UNK     0      11.736   2.151  92.510  0.00  0.00    -0.268 OA
HETATM   24  N   UNK     0      13.056   3.703  93.621  0.00  0.00    -0.341 N 
HETATM   25  H   UNK     0      13.146   4.664  93.928  0.00  0.00     0.163 HD
BRANCH  24  26
HETATM   26  C   UNK     0      14.164   2.823  93.889  0.00  0.00     0.207 C 
BRANCH  26  27
HETATM   27  C   UNK     0      14.315   1.719  92.834  0.00  0.00     0.146 C 
HETATM   28  C   UNK     0      15.066   2.193  91.595  0.00  0.00     0.042 C 
BRANCH  27  29
HETATM   29  O   UNK     0      15.010   0.609  93.401  0.00  0.00    -0.393 OA
HETATM   30  H   UNK     0      15.833   0.477  92.901  0.00  0.00     0.210 HD
ENDBRANCH  27  29
ENDBRANCH  26  27
BRANCH  26  31
HETATM   31  C   UNK     0      15.425   3.676  93.981  0.00  0.00     0.266 C 
HETATM   32  O   UNK     0      16.554   3.196  94.066  0.00  0.00    -0.269 OA
HETATM   33  N   UNK     0      15.142   5.020  93.998  0.00  0.00    -0.236 N 
HETATM   34  H   UNK     0      14.223   5.447  94.020  0.00  0.00     0.197 HD
BRANCH  33  35
HETATM   35  O   UNK     0      16.246   5.875  94.120  0.00  0.00    -0.287 OA
HETATM   36  H   UNK     0      16.080   6.482  93.378  0.00  0.00     0.244 HD
ENDBRANCH  33  35
ENDBRANCH  26  31
ENDBRANCH  24  26
ENDBRANCH  19  22
ENDBRANCH  15  16
ENDBRANCH  11  14
ENDBRANCH   7   8
ENDBRANCH   2   7
TORSDOF 10
ENDMDL
MODEL 7
REMARK VINA RESULT:      -5.0      1.633      2.508
REMARK  10 active torsions:
REMARK  status: ('A' for Active; 'I' for Inactive)
REMARK    1  A    between atoms: O_2  and  C_18 
REMARK    2  A    between atoms: O_5  and  N_8 
REMARK    3  A    between atoms: N_6  and  C_11 
REMARK    4  A    between atoms: N_7  and  C_15 
REMARK       I    between atoms: N_7  and  C_24 
REMARK       I    between atoms: N_8  and  C_23 
REMARK    5  A    between atoms: C_11  and  C_14 
REMARK    6  A    between atoms: C_15  and  C_18 
REMARK    7  A    between atoms: C_15  and  C_23 
REMARK    8  A    between atoms: C_21  and  C_26 
REMARK    9  A    between atoms: C_24  and  C_25 
REMARK   10  A    between atoms: C_29  and  C_32 
ROOT
HETATM    1  O   UNK     0      16.426   3.731  92.957  0.00  0.00    -0.388 OA
HETATM    2  N   UNK     0      14.206   1.964  92.732  0.00  0.00     0.096 N 
HETATM    3  C   UNK     0      14.861   2.529  91.544  0.00  0.00     0.299 C 
HETATM    4  C   UNK     0      14.342   2.885  93.868  0.00  0.00     0.299 C 
HETATM    5  C   UNK     0      16.326   2.827  91.855  0.00  0.00     0.198 C 
HETATM    6  C   UNK     0      15.819   3.176  94.124  0.00  0.00     0.198 C 
ENDROOT
BRANCH   2   7
HETATM    7  C   UNK     0      12.798   1.680  92.461  0.00  0.00     0.311 C 
BRANCH   7   8
HETATM    8  C   UNK     0      12.026   2.909  92.120  0.00  0.00    -0.030 A 
HETATM    9  C   UNK     0      11.632   3.141  90.802  0.00  0.00     0.010 A 
HETATM   10  C   UNK     0      10.911   4.292  90.482  0.00  0.00     0.021 A 
HETATM   11  C   UNK     0      10.583   5.208  91.481  0.00  0.00     0.018 A 
HETATM   12  C   UNK     0      10.976   4.977  92.798  0.00  0.00     0.021 A 
HETATM   13  C   UNK     0      11.697   3.827  93.118  0.00  0.00     0.010 A 
BRANCH  11  14
HETATM   14  C   UNK     0       9.842   6.388  91.153  0.00  0.00    -0.061 C 
HETATM   15  C   UNK     0       9.220   7.378  90.878  0.00  0.00    -0.061 C 
BRANCH  15  16
HETATM   16  C   UNK     0       8.479   8.555  90.550  0.00  0.00     0.018 A 
HETATM   17  C   UNK     0       7.619   9.122  91.491  0.00  0.00     0.022 A 
HETATM   18  C   UNK     0       6.897  10.272  91.172  0.00  0.00     0.018 A 
HETATM   19  C   UNK     0       7.050  10.830  89.920  0.00  0.00     0.032 A 
HETATM   20  C   UNK     0       7.893  10.289  88.972  0.00  0.00     0.018 A 
HETATM   21  C   UNK     0       8.615   9.139  89.290  0.00  0.00     0.022 A 
BRANCH  19  22
HETATM   22  C   UNK     0       6.279  12.054  89.581  0.00  0.00     0.252 C 
HETATM   23  O   UNK     0       6.504  12.629  88.518  0.00  0.00    -0.268 OA
HETATM   24  N   UNK     0       5.323  12.447  90.506  0.00  0.00    -0.341 N 
HETATM   25  H   UNK     0       5.175  11.907  91.351  0.00  0.00     0.163 HD
BRANCH  24  26
HETATM   26  C   UNK     0       4.479  13.598  90.309  0.00  0.00     0.207 C 
BRANCH  26  27
HETATM   27  C   UNK     0       3.430  13.383  89.210  0.00  0.00     0.146 C 
HETATM   28  C   UNK     0       3.114  11.909  88.984  0.00  0.00     0.042 C 
BRANCH  27  29
HETATM   29  O   UNK     0       2.227  14.067  89.559  0.00  0.00    -0.393 OA
HETATM   30  H   UNK     0       2.364  14.509  90.413  0.00  0.00     0.210 HD
ENDBRANCH  27  29
ENDBRANCH  26  27
BRANCH  26  31
HETATM   31  C   UNK     0       3.822  13.929  91.645  0.00  0.00     0.266 C 
HETATM   32  O   UNK     0       2.976  13.208  92.172  0.00  0.00    -0.269 OA
HETATM   33  N   UNK     0       4.257  15.128  92.154  0.00  0.00    -0.236 N 
HETATM   34  H   UNK     0       4.883  15.787  91.705  0.00  0.00     0.197 HD
BRANCH  33  35
HETATM   35  O   UNK     0       3.672  15.525  93.365  0.00  0.00    -0.287 OA
HETATM   36  H   UNK     0       3.390  14.662  93.713  0.00  0.00     0.244 HD
ENDBRANCH  33  35
ENDBRANCH  26  31
ENDBRANCH  24  26
ENDBRANCH  19  22
ENDBRANCH  15  16
ENDBRANCH  11  14
ENDBRANCH   7   8
ENDBRANCH   2   7
TORSDOF 10
ENDMDL
MODEL 8
REMARK VINA RESULT:      -4.3      2.241     12.444
REMARK  10 active torsions:
REMARK  status: ('A' for Active; 'I' for Inactive)
REMARK    1  A    between atoms: O_2  and  C_18 
REMARK    2  A    between atoms: O_5  and  N_8 
REMARK    3  A    between atoms: N_6  and  C_11 
REMARK    4  A    between atoms: N_7  and  C_15 
REMARK       I    between atoms: N_7  and  C_24 
REMARK       I    between atoms: N_8  and  C_23 
REMARK    5  A    between atoms: C_11  and  C_14 
REMARK    6  A    between atoms: C_15  and  C_18 
REMARK    7  A    between atoms: C_15  and  C_23 
REMARK    8  A    between atoms: C_21  and  C_26 
REMARK    9  A    between atoms: C_24  and  C_25 
REMARK   10  A    between atoms: C_29  and  C_32 
ROOT
HETATM    1  O   UNK     0       4.493  15.111  89.733  0.00  0.00    -0.388 OA
HETATM    2  N   UNK     0       3.116  14.077  92.000  0.00  0.00     0.096 N 
HETATM    3  C   UNK     0       4.544  14.420  92.059  0.00  0.00     0.299 C 
HETATM    4  C   UNK     0       2.749  13.683  90.633  0.00  0.00     0.299 C 
HETATM    5  C   UNK     0       4.852  15.525  91.053  0.00  0.00     0.198 C 
HETATM    6  C   UNK     0       3.100  14.805  89.660  0.00  0.00     0.198 C 
ENDROOT
BRANCH   2   7
HETATM    7  C   UNK     0       2.800  13.011  92.949  0.00  0.00     0.311 C 
BRANCH   7   8
HETATM    8  C   UNK     0       3.814  11.918  92.935  0.00  0.00    -0.030 A 
HETATM    9  C   UNK     0       3.940  11.099  91.812  0.00  0.00     0.010 A 
HETATM   10  C   UNK     0       4.886  10.075  91.799  0.00  0.00     0.021 A 
HETATM   11  C   UNK     0       5.708   9.872  92.907  0.00  0.00     0.018 A 
HETATM   12  C   UNK     0       5.583  10.689  94.028  0.00  0.00     0.021 A 
HETATM   13  C   UNK     0       4.636  11.713  94.043  0.00  0.00     0.010 A 
BRANCH  11  14
HETATM   14  C   UNK     0       6.681   8.823  92.892  0.00  0.00    -0.061 C 
HETATM   15  C   UNK     0       7.498   7.941  92.879  0.00  0.00    -0.061 C 
BRANCH  15  16
HETATM   16  C   UNK     0       8.469   6.893  92.866  0.00  0.00     0.018 A 
HETATM   17  C   UNK     0       9.650   7.028  93.596  0.00  0.00     0.022 A 
HETATM   18  C   UNK     0      10.597   6.004  93.585  0.00  0.00     0.018 A 
HETATM   19  C   UNK     0      10.343   4.869  92.845  0.00  0.00     0.032 A 
HETATM   20  C   UNK     0       9.184   4.710  92.114  0.00  0.00     0.018 A 
HETATM   21  C   UNK     0       8.236   5.734  92.125  0.00  0.00     0.022 A 
BRANCH  19  22
HETATM   22  C   UNK     0      11.353   3.779  92.831  0.00  0.00     0.252 C 
HETATM   23  O   UNK     0      10.974   2.610  92.818  0.00  0.00    -0.268 OA
HETATM   24  N   UNK     0      12.681   4.182  92.810  0.00  0.00    -0.341 N 
HETATM   25  H   UNK     0      12.918   5.167  92.798  0.00  0.00     0.163 HD
BRANCH  24  26
HETATM   26  C   UNK     0      13.775   3.245  92.771  0.00  0.00     0.207 C 
BRANCH  26  27
HETATM   27  C   UNK     0      14.121   2.795  91.346  0.00  0.00     0.146 C 
HETATM   28  C   UNK     0      13.783   3.853  90.302  0.00  0.00     0.042 C 
BRANCH  27  29
HETATM   29  O   UNK     0      15.514   2.494  91.266  0.00  0.00    -0.393 OA
HETATM   30  H   UNK     0      15.634   1.551  91.469  0.00  0.00     0.210 HD
ENDBRANCH  27  29
ENDBRANCH  26  27
BRANCH  26  31
HETATM   31  C   UNK     0      14.973   3.898  93.453  0.00  0.00     0.266 C 
HETATM   32  O   UNK     0      14.969   5.065  93.839  0.00  0.00    -0.269 OA
HETATM   33  N   UNK     0      16.047   3.047  93.543  0.00  0.00    -0.236 N 
HETATM   34  H   UNK     0      16.115   2.112  93.157  0.00  0.00     0.197 HD
BRANCH  33  35
HETATM   35  O   UNK     0      17.204   3.584  94.124  0.00  0.00    -0.287 OA
HETATM   36  H   UNK     0      16.841   3.914  94.963  0.00  0.00     0.244 HD
ENDBRANCH  33  35
ENDBRANCH  26  31
ENDBRANCH  24  26
ENDBRANCH  19  22
ENDBRANCH  15  16
ENDBRANCH  11  14
ENDBRANCH   7   8
ENDBRANCH   2   7
TORSDOF 10
ENDMDL
