MODEL 1
REMARK VINA RESULT:      -6.3      0.000      0.000
REMARK  12 active torsions:
REMARK  status: ('A' for Active; 'I' for Inactive)
REMARK    1  A    between atoms: O_2  and  C_16 
REMARK    2  A    between atoms: N_5  and  C_9 
REMARK    3  A    between atoms: N_6  and  C_13 
REMARK       I    between atoms: N_6  and  C_22 
REMARK    4  A    between atoms: C_9  and  C_12 
REMARK    5  A    between atoms: C_13  and  C_16 
REMARK    6  A    between atoms: C_13  and  C_21 
REMARK    7  A    between atoms: C_19  and  C_24 
REMARK    8  A    between atoms: C_21  and  C_33 
REMARK    9  A    between atoms: C_22  and  C_23 
REMARK   10  A    between atoms: C_27  and  C_30 
REMARK   11  A    between atoms: C_33  and  C_34 
REMARK   12  A    between atoms: C_34  and  C_35 
ROOT
HETATM    1  O   UNL     1      16.802   3.700  93.723  1.00  0.00    -0.350 OA
HETATM    2  N   UNL     1      14.174   2.954  92.925  1.00  0.00     0.147 N 
HETATM    3  C   UNL     1      15.238   1.955  93.090  1.00  0.00     0.283 C 
HETATM    4  C   UNL     1      14.754   4.250  92.546  1.00  0.00     0.283 C 
HETATM    5  C   UNL     1      16.250   2.444  94.123  1.00  0.00     0.178 C 
HETATM    6  C   UNL     1      15.777   4.685  93.590  1.00  0.00     0.178 C 
ENDROOT
BRANCH   2   7
HETATM    7  C   UNL     1      13.197   2.511  91.932  1.00  0.00     0.277 C 
BRANCH   7   8
HETATM    8  C   UNL     1      12.034   3.437  91.826  1.00  0.00     0.011 A 
HETATM    9  C   UNL     1      11.427   3.928  92.984  1.00  0.00    -0.002 A 
HETATM   10  C   UNL     1      10.337   4.793  92.886  1.00  0.00     0.008 A 
HETATM   11  C   UNL     1       9.855   5.167  91.633  1.00  0.00     0.042 A 
HETATM   12  C   UNL     1      10.460   4.678  90.477  1.00  0.00     0.008 A 
HETATM   13  C   UNL     1      11.550   3.813  90.573  1.00  0.00    -0.002 A 
BRANCH  11  14
HETATM   14  C   UNL     1       8.738   6.056  91.533  1.00  0.00    -0.059 C 
HETATM   15  C   UNL     1       7.800   6.803  91.449  1.00  0.00    -0.059 C 
BRANCH  15  16
HETATM   16  C   UNL     1       6.683   7.690  91.349  1.00  0.00     0.042 A 
HETATM   17  C   UNL     1       5.666   7.428  90.431  1.00  0.00     0.008 A 
HETATM   18  C   UNL     1       4.575   8.293  90.336  1.00  0.00     0.005 A 
HETATM   19  C   UNL     1       4.527   9.398  91.159  1.00  0.00     0.056 A 
HETATM   20  C   UNL     1       5.520   9.679  92.074  1.00  0.00     0.005 A 
HETATM   21  C   UNL     1       6.611   8.815  92.170  1.00  0.00     0.008 A 
BRANCH  19  22
HETATM   22  C   UNL     1       3.366  10.320  91.055  1.00  0.00     0.254 C 
HETATM   23  O   UNL     1       2.313   9.907  90.575  1.00  0.00    -0.268 OA
HETATM   24  N   UNL     1       3.563  11.603  91.546  1.00  0.00    -0.335 N 
HETATM   25  HN  UNL     1       4.453  11.866  91.952  1.00  0.00     0.164 HD
BRANCH  24  26
HETATM   26  C   UNL     1       2.526  12.604  91.538  1.00  0.00     0.166 C 
BRANCH  26  27
HETATM   27  C   UNL     1       2.335  13.272  92.906  1.00  0.00     0.138 C 
HETATM   28  C   UNL     1       3.658  13.526  93.621  1.00  0.00     0.034 C 
BRANCH  27  29
HETATM   29  O   UNL     1       1.652  14.513  92.740  1.00  0.00    -0.383 OA
HETATM   30  H   UNL     1       2.260  15.142  92.317  1.00  0.00     0.210 HD
ENDBRANCH  27  29
ENDBRANCH  26  27
BRANCH  26  31
HETATM   31  C   UNL     1       2.876  13.629  90.465  1.00  0.00     0.181 C 
HETATM   32  O   UNL     1       2.149  14.580  90.184  1.00  0.00    -0.294 OA
BRANCH  31  33
HETATM   33  C   UNL     1       4.361  14.243  90.680  1.00  0.00     0.138 C 
BRANCH  33  34
HETATM   34  C   UNL     1       4.857  14.228  89.357  1.00  0.00     0.208 C 
HETATM   35  O   UNL     1       5.018  15.308  88.837  1.00  0.00    -0.289 OA
BRANCH  34  36
HETATM   36  C   UNL     1       5.461  13.227  88.648  1.00  0.00     0.194 C 
HETATM   37  O   UNL     1       5.001  11.947  88.318  1.00  0.00    -0.185 OA
ENDBRANCH  34  36
ENDBRANCH  33  34
ENDBRANCH  31  33
ENDBRANCH  26  31
ENDBRANCH  24  26
ENDBRANCH  19  22
ENDBRANCH  15  16
ENDBRANCH  11  14
ENDBRANCH   7   8
ENDBRANCH   2   7
TORSDOF 12
ENDMDL
