MODEL 1
REMARK VINA RESULT:      -7.1      0.000      0.000
REMARK  10 active torsions:
REMARK  status: ('A' for Active; 'I' for Inactive)
REMARK    1  A    between atoms: O_2  and  C_18 
REMARK    2  A    between atoms: O_5  and  N_8 
REMARK    3  A    between atoms: N_6  and  C_11 
REMARK    4  A    between atoms: N_7  and  C_15 
REMARK       I    between atoms: N_7  and  C_24 
REMARK       I    between atoms: N_8  and  C_23 
REMARK    5  A    between atoms: C_11  and  C_14 
REMARK    6  A    between atoms: C_15  and  C_18 
REMARK    7  A    between atoms: C_15  and  C_23 
REMARK    8  A    between atoms: C_21  and  C_26 
REMARK    9  A    between atoms: C_24  and  C_25 
REMARK   10  A    between atoms: C_29  and  C_32 
ROOT
HETATM    1  O   UNK     0      16.556   4.352  94.061  0.00  0.00    -0.388 OA
HETATM    2  N   UNK     0      14.776   2.610  92.683  0.00  0.00     0.096 N 
HETATM    3  C   UNK     0      14.621   4.070  92.624  0.00  0.00     0.299 C 
HETATM    4  C   UNK     0      15.400   2.221  93.955  0.00  0.00     0.299 C 
HETATM    5  C   UNK     0      15.979   4.742  92.814  0.00  0.00     0.198 C 
HETATM    6  C   UNK     0      16.739   2.936  94.114  0.00  0.00     0.198 C 
ENDROOT
BRANCH   2   7
HETATM    7  C   UNK     0      13.485   1.945  92.514  0.00  0.00     0.311 C 
BRANCH   7   8
HETATM    8  C   UNK     0      12.397   2.900  92.155  0.00  0.00    -0.030 A 
HETATM    9  C   UNK     0      11.836   3.718  93.136  0.00  0.00     0.010 A 
HETATM   10  C   UNK     0      10.817   4.609  92.802  0.00  0.00     0.021 A 
HETATM   11  C   UNK     0      10.362   4.684  91.486  0.00  0.00     0.018 A 
HETATM   12  C   UNK     0      10.922   3.868  90.505  0.00  0.00     0.021 A 
HETATM   13  C   UNK     0      11.940   2.976  90.839  0.00  0.00     0.010 A 
BRANCH  11  14
HETATM   14  C   UNK     0       9.318   5.601  91.142  0.00  0.00    -0.061 C 
HETATM   15  C   UNK     0       8.441   6.371  90.854  0.00  0.00    -0.061 C 
BRANCH  15  16
HETATM   16  C   UNK     0       7.399   7.286  90.512  0.00  0.00     0.018 A 
HETATM   17  C   UNK     0       6.063   6.905  90.652  0.00  0.00     0.022 A 
HETATM   18  C   UNK     0       5.045   7.798  90.320  0.00  0.00     0.018 A 
HETATM   19  C   UNK     0       5.383   9.053  89.857  0.00  0.00     0.032 A 
HETATM   20  C   UNK     0       6.695   9.454  89.710  0.00  0.00     0.018 A 
HETATM   21  C   UNK     0       7.713   8.560  90.040  0.00  0.00     0.022 A 
BRANCH  19  22
HETATM   22  C   UNK     0       4.298  10.004  89.502  0.00  0.00     0.252 C 
HETATM   23  O   UNK     0       3.444   9.662  88.688  0.00  0.00    -0.268 OA
HETATM   24  N   UNK     0       4.324  11.228  90.156  0.00  0.00    -0.341 N 
HETATM   25  H   UNK     0       5.048  11.431  90.836  0.00  0.00     0.163 HD
BRANCH  24  26
HETATM   26  C   UNK     0       3.328  12.245  89.938  0.00  0.00     0.207 C 
BRANCH  26  27
HETATM   27  C   UNK     0       2.865  12.912  91.239  0.00  0.00     0.146 C 
HETATM   28  C   UNK     0       2.140  11.943  92.166  0.00  0.00     0.042 C 
BRANCH  27  29
HETATM   29  O   UNK     0       3.994  13.453  91.925  0.00  0.00    -0.393 OA
HETATM   30  H   UNK     0       4.328  12.779  92.541  0.00  0.00     0.210 HD
ENDBRANCH  27  29
ENDBRANCH  26  27
BRANCH  26  31
HETATM   31  C   UNK     0       3.910  13.267  88.967  0.00  0.00     0.266 C 
HETATM   32  O   UNK     0       3.971  14.470  89.217  0.00  0.00    -0.269 OA
HETATM   33  N   UNK     0       4.314  12.691  87.787  0.00  0.00    -0.236 N 
HETATM   34  H   UNK     0       4.198  11.722  87.514  0.00  0.00     0.197 HD
BRANCH  33  35
HETATM   35  O   UNK     0       4.828  13.570  86.824  0.00  0.00    -0.287 OA
HETATM   36  H   UNK     0       4.295  14.363  87.008  0.00  0.00     0.244 HD
ENDBRANCH  33  35
ENDBRANCH  26  31
ENDBRANCH  24  26
ENDBRANCH  19  22
ENDBRANCH  15  16
ENDBRANCH  11  14
ENDBRANCH   7   8
ENDBRANCH   2   7
TORSDOF 10
ENDMDL
MODEL 2
REMARK VINA RESULT:      -6.4      1.696      2.282
REMARK  10 active torsions:
REMARK  status: ('A' for Active; 'I' for Inactive)
REMARK    1  A    between atoms: O_2  and  C_18 
REMARK    2  A    between atoms: O_5  and  N_8 
REMARK    3  A    between atoms: N_6  and  C_11 
REMARK    4  A    between atoms: N_7  and  C_15 
REMARK       I    between atoms: N_7  and  C_24 
REMARK       I    between atoms: N_8  and  C_23 
REMARK    5  A    between atoms: C_11  and  C_14 
REMARK    6  A    between atoms: C_15  and  C_18 
REMARK    7  A    between atoms: C_15  and  C_23 
REMARK    8  A    between atoms: C_21  and  C_26 
REMARK    9  A    between atoms: C_24  and  C_25 
REMARK   10  A    between atoms: C_29  and  C_32 
ROOT
HETATM    1  O   UNK     0      16.302   2.708  94.086  0.00  0.00    -0.388 OA
HETATM    2  N   UNK     0      13.955   3.064  92.515  0.00  0.00     0.096 N 
HETATM    3  C   UNK     0      14.495   1.727  92.797  0.00  0.00     0.299 C 
HETATM    4  C   UNK     0      15.040   4.054  92.511  0.00  0.00     0.299 C 
HETATM    5  C   UNK     0      15.249   1.742  94.124  0.00  0.00     0.198 C 
HETATM    6  C   UNK     0      15.782   4.015  93.844  0.00  0.00     0.198 C 
ENDROOT
BRANCH   2   7
HETATM    7  C   UNK     0      13.237   3.075  91.242  0.00  0.00     0.311 C 
BRANCH   7   8
HETATM    8  C   UNK     0      12.074   4.008  91.254  0.00  0.00    -0.030 A 
HETATM    9  C   UNK     0      11.501   4.423  90.051  0.00  0.00     0.010 A 
HETATM   10  C   UNK     0      10.415   5.297  90.061  0.00  0.00     0.021 A 
HETATM   11  C   UNK     0       9.900   5.754  91.274  0.00  0.00     0.018 A 
HETATM   12  C   UNK     0      10.471   5.340  92.476  0.00  0.00     0.021 A 
HETATM   13  C   UNK     0      11.558   4.467  92.466  0.00  0.00     0.010 A 
BRANCH  11  14
HETATM   14  C   UNK     0       8.784   6.649  91.284  0.00  0.00    -0.061 C 
HETATM   15  C   UNK     0       7.846   7.401  91.293  0.00  0.00    -0.061 C 
BRANCH  15  16
HETATM   16  C   UNK     0       6.730   8.294  91.302  0.00  0.00     0.018 A 
HETATM   17  C   UNK     0       5.496   7.873  90.806  0.00  0.00     0.022 A 
HETATM   18  C   UNK     0       4.406   8.744  90.817  0.00  0.00     0.018 A 
HETATM   19  C   UNK     0       4.575  10.016  91.322  0.00  0.00     0.032 A 
HETATM   20  C   UNK     0       5.784  10.457  91.817  0.00  0.00     0.018 A 
HETATM   21  C   UNK     0       6.874   9.587  91.806  0.00  0.00     0.022 A 
BRANCH  19  22
HETATM   22  C   UNK     0       3.414  10.944  91.331  0.00  0.00     0.252 C 
HETATM   23  O   UNK     0       2.321  10.541  90.941  0.00  0.00    -0.268 OA
HETATM   24  N   UNK     0       3.661  12.220  91.817  0.00  0.00    -0.341 N 
HETATM   25  H   UNK     0       4.585  12.474  92.146  0.00  0.00     0.163 HD
BRANCH  24  26
HETATM   26  C   UNK     0       2.633  13.226  91.912  0.00  0.00     0.207 C 
BRANCH  26  27
HETATM   27  C   UNK     0       2.612  13.926  93.276  0.00  0.00     0.146 C 
HETATM   28  C   UNK     0       3.990  13.981  93.926  0.00  0.00     0.042 C 
BRANCH  27  29
HETATM   29  O   UNK     0       2.119  15.257  93.122  0.00  0.00    -0.393 OA
HETATM   30  H   UNK     0       2.807  15.874  93.425  0.00  0.00     0.210 HD
ENDBRANCH  27  29
ENDBRANCH  26  27
BRANCH  26  31
HETATM   31  C   UNK     0       2.851  14.224  90.779  0.00  0.00     0.266 C 
HETATM   32  O   UNK     0       1.947  14.603  90.037  0.00  0.00    -0.269 OA
HETATM   33  N   UNK     0       4.166  14.607  90.671  0.00  0.00    -0.236 N 
HETATM   34  H   UNK     0       4.949  14.247  91.206  0.00  0.00     0.197 HD
BRANCH  33  35
HETATM   35  O   UNK     0       4.459  15.496  89.628  0.00  0.00    -0.287 OA
HETATM   36  H   UNK     0       3.724  15.302  89.022  0.00  0.00     0.244 HD
ENDBRANCH  33  35
ENDBRANCH  26  31
ENDBRANCH  24  26
ENDBRANCH  19  22
ENDBRANCH  15  16
ENDBRANCH  11  14
ENDBRANCH   7   8
ENDBRANCH   2   7
TORSDOF 10
ENDMDL
MODEL 3
REMARK VINA RESULT:      -5.7      2.905     12.276
REMARK  10 active torsions:
REMARK  status: ('A' for Active; 'I' for Inactive)
REMARK    1  A    between atoms: O_2  and  C_18 
REMARK    2  A    between atoms: O_5  and  N_8 
REMARK    3  A    between atoms: N_6  and  C_11 
REMARK    4  A    between atoms: N_7  and  C_15 
REMARK       I    between atoms: N_7  and  C_24 
REMARK       I    between atoms: N_8  and  C_23 
REMARK    5  A    between atoms: C_11  and  C_14 
REMARK    6  A    between atoms: C_15  and  C_18 
REMARK    7  A    between atoms: C_15  and  C_23 
REMARK    8  A    between atoms: C_21  and  C_26 
REMARK    9  A    between atoms: C_24  and  C_25 
REMARK   10  A    between atoms: C_29  and  C_32 
ROOT
HETATM    1  O   UNK     0       2.773  14.588  94.115  0.00  0.00    -0.388 OA
HETATM    2  N   UNK     0       2.649  14.655  91.272  0.00  0.00     0.096 N 
HETATM    3  C   UNK     0       1.662  13.910  92.066  0.00  0.00     0.299 C 
HETATM    4  C   UNK     0       3.931  14.711  91.986  0.00  0.00     0.299 C 
HETATM    5  C   UNK     0       1.513  14.555  93.442  0.00  0.00     0.198 C 
HETATM    6  C   UNK     0       3.729  15.336  93.363  0.00  0.00     0.198 C 
ENDROOT
BRANCH   2   7
HETATM    7  C   UNK     0       2.816  14.048  89.952  0.00  0.00     0.311 C 
BRANCH   7   8
HETATM    8  C   UNK     0       3.823  12.949  89.956  0.00  0.00    -0.030 A 
HETATM    9  C   UNK     0       5.018  13.098  89.251  0.00  0.00     0.010 A 
HETATM   10  C   UNK     0       5.961  12.070  89.252  0.00  0.00     0.021 A 
HETATM   11  C   UNK     0       5.708  10.895  89.959  0.00  0.00     0.018 A 
HETATM   12  C   UNK     0       4.515  10.745  90.663  0.00  0.00     0.021 A 
HETATM   13  C   UNK     0       3.572  11.773  90.662  0.00  0.00     0.010 A 
BRANCH  11  14
HETATM   14  C   UNK     0       6.676   9.841  89.961  0.00  0.00    -0.061 C 
HETATM   15  C   UNK     0       7.489   8.955  89.963  0.00  0.00    -0.061 C 
BRANCH  15  16
HETATM   16  C   UNK     0       8.454   7.902  89.966  0.00  0.00     0.018 A 
HETATM   17  C   UNK     0       8.687   7.173  91.133  0.00  0.00     0.022 A 
HETATM   18  C   UNK     0       9.628   6.143  91.135  0.00  0.00     0.018 A 
HETATM   19  C   UNK     0      10.314   5.864  89.972  0.00  0.00     0.032 A 
HETATM   20  C   UNK     0      10.103   6.570  88.806  0.00  0.00     0.018 A 
HETATM   21  C   UNK     0       9.163   7.600  88.803  0.00  0.00     0.022 A 
BRANCH  19  22
HETATM   22  C   UNK     0      11.318   4.769  89.976  0.00  0.00     0.252 C 
HETATM   23  O   UNK     0      11.506   4.124  88.947  0.00  0.00    -0.268 OA
HETATM   24  N   UNK     0      11.999   4.572  91.169  0.00  0.00    -0.341 N 
HETATM   25  H   UNK     0      11.808   5.160  91.972  0.00  0.00     0.163 HD
BRANCH  24  26
HETATM   26  C   UNK     0      13.018   3.565  91.324  0.00  0.00     0.207 C 
BRANCH  26  27
HETATM   27  C   UNK     0      14.198   4.042  92.181  0.00  0.00     0.146 C 
HETATM   28  C   UNK     0      13.821   4.214  93.648  0.00  0.00     0.042 C 
BRANCH  27  29
HETATM   29  O   UNK     0      15.268   3.103  92.084  0.00  0.00    -0.393 OA
HETATM   30  H   UNK     0      15.704   3.046  92.951  0.00  0.00     0.210 HD
ENDBRANCH  27  29
ENDBRANCH  26  27
BRANCH  26  31
HETATM   31  C   UNK     0      12.362   2.326  91.924  0.00  0.00     0.266 C 
HETATM   32  O   UNK     0      12.951   1.255  92.058  0.00  0.00    -0.269 OA
HETATM   33  N   UNK     0      11.045   2.543  92.251  0.00  0.00    -0.236 N 
HETATM   34  H   UNK     0      10.506   3.382  92.072  0.00  0.00     0.197 HD
BRANCH  33  35
HETATM   35  O   UNK     0      10.357   1.439  92.775  0.00  0.00    -0.287 OA
HETATM   36  H   UNK     0      10.333   1.679  93.717  0.00  0.00     0.244 HD
ENDBRANCH  33  35
ENDBRANCH  26  31
ENDBRANCH  24  26
ENDBRANCH  19  22
ENDBRANCH  15  16
ENDBRANCH  11  14
ENDBRANCH   7   8
ENDBRANCH   2   7
TORSDOF 10
ENDMDL
MODEL 4
REMARK VINA RESULT:      -5.1      2.221     12.491
REMARK  10 active torsions:
REMARK  status: ('A' for Active; 'I' for Inactive)
REMARK    1  A    between atoms: O_2  and  C_18 
REMARK    2  A    between atoms: O_5  and  N_8 
REMARK    3  A    between atoms: N_6  and  C_11 
REMARK    4  A    between atoms: N_7  and  C_15 
REMARK       I    between atoms: N_7  and  C_24 
REMARK       I    between atoms: N_8  and  C_23 
REMARK    5  A    between atoms: C_11  and  C_14 
REMARK    6  A    between atoms: C_15  and  C_18 
REMARK    7  A    between atoms: C_15  and  C_23 
REMARK    8  A    between atoms: C_21  and  C_26 
REMARK    9  A    between atoms: C_24  and  C_25 
REMARK   10  A    between atoms: C_29  and  C_32 
ROOT
HETATM    1  O   UNK     0       5.396  14.672  88.893  0.00  0.00    -0.388 OA
HETATM    2  N   UNK     0       3.682  13.514  90.848  0.00  0.00     0.096 N 
HETATM    3  C   UNK     0       4.643  14.568  91.198  0.00  0.00     0.299 C 
HETATM    4  C   UNK     0       4.182  12.736  89.707  0.00  0.00     0.299 C 
HETATM    5  C   UNK     0       4.904  15.455  89.983  0.00  0.00     0.198 C 
HETATM    6  C   UNK     0       4.454  13.664  88.526  0.00  0.00     0.198 C 
ENDROOT
BRANCH   2   7
HETATM    7  C   UNK     0       3.425  12.645  91.996  0.00  0.00     0.311 C 
BRANCH   7   8
HETATM    8  C   UNK     0       4.447  11.568  92.133  0.00  0.00    -0.030 A 
HETATM    9  C   UNK     0       5.417  11.652  93.132  0.00  0.00     0.010 A 
HETATM   10  C   UNK     0       6.375  10.646  93.260  0.00  0.00     0.021 A 
HETATM   11  C   UNK     0       6.361   9.556  92.390  0.00  0.00     0.018 A 
HETATM   12  C   UNK     0       5.392   9.472  91.392  0.00  0.00     0.021 A 
HETATM   13  C   UNK     0       4.435  10.478  91.263  0.00  0.00     0.010 A 
BRANCH  11  14
HETATM   14  C   UNK     0       7.342   8.524  92.522  0.00  0.00    -0.061 C 
HETATM   15  C   UNK     0       8.167   7.656  92.634  0.00  0.00    -0.061 C 
BRANCH  15  16
HETATM   16  C   UNK     0       9.146   6.624  92.765  0.00  0.00     0.018 A 
HETATM   17  C   UNK     0       9.491   5.846  91.659  0.00  0.00     0.022 A 
HETATM   18  C   UNK     0      10.449   4.840  91.786  0.00  0.00     0.018 A 
HETATM   19  C   UNK     0      11.040   4.634  93.015  0.00  0.00     0.032 A 
HETATM   20  C   UNK     0      10.717   5.388  94.123  0.00  0.00     0.018 A 
HETATM   21  C   UNK     0       9.758   6.394  93.997  0.00  0.00     0.022 A 
BRANCH  19  22
HETATM   22  C   UNK     0      12.059   3.560  93.150  0.00  0.00     0.252 C 
HETATM   23  O   UNK     0      11.814   2.442  92.705  0.00  0.00    -0.268 OA
HETATM   24  N   UNK     0      13.249   3.925  93.764  0.00  0.00    -0.341 N 
HETATM   25  H   UNK     0      13.390   4.876  94.085  0.00  0.00     0.163 HD
BRANCH  24  26
HETATM   26  C   UNK     0      14.341   3.004  93.947  0.00  0.00     0.207 C 
BRANCH  26  27
HETATM   27  C   UNK     0      14.298   1.828  92.963  0.00  0.00     0.146 C 
HETATM   28  C   UNK     0      15.047   2.123  91.668  0.00  0.00     0.042 C 
BRANCH  27  29
HETATM   29  O   UNK     0      14.868   0.672  93.576  0.00  0.00    -0.393 OA
HETATM   30  H   UNK     0      14.718  -0.089  92.989  0.00  0.00     0.210 HD
ENDBRANCH  27  29
ENDBRANCH  26  27
BRANCH  26  31
HETATM   31  C   UNK     0      15.641   3.791  93.814  0.00  0.00     0.266 C 
HETATM   32  O   UNK     0      15.672   5.000  93.592  0.00  0.00    -0.269 OA
HETATM   33  N   UNK     0      16.749   2.987  93.931  0.00  0.00    -0.236 N 
HETATM   34  H   UNK     0      16.759   1.978  94.024  0.00  0.00     0.197 HD
BRANCH  33  35
HETATM   35  O   UNK     0      17.987   3.628  93.782  0.00  0.00    -0.287 OA
HETATM   36  H   UNK     0      17.850   4.406  94.350  0.00  0.00     0.244 HD
ENDBRANCH  33  35
ENDBRANCH  26  31
ENDBRANCH  24  26
ENDBRANCH  19  22
ENDBRANCH  15  16
ENDBRANCH  11  14
ENDBRANCH   7   8
ENDBRANCH   2   7
TORSDOF 10
ENDMDL
MODEL 5
REMARK VINA RESULT:      -4.8      1.969     12.586
REMARK  10 active torsions:
REMARK  status: ('A' for Active; 'I' for Inactive)
REMARK    1  A    between atoms: O_2  and  C_18 
REMARK    2  A    between atoms: O_5  and  N_8 
REMARK    3  A    between atoms: N_6  and  C_11 
REMARK    4  A    between atoms: N_7  and  C_15 
REMARK       I    between atoms: N_7  and  C_24 
REMARK       I    between atoms: N_8  and  C_23 
REMARK    5  A    between atoms: C_11  and  C_14 
REMARK    6  A    between atoms: C_15  and  C_18 
REMARK    7  A    between atoms: C_15  and  C_23 
REMARK    8  A    between atoms: C_21  and  C_26 
REMARK    9  A    between atoms: C_24  and  C_25 
REMARK   10  A    between atoms: C_29  and  C_32 
ROOT
HETATM    1  O   UNK     0       2.433  13.539  92.205  0.00  0.00    -0.388 OA
HETATM    2  N   UNK     0       3.049  12.523  89.618  0.00  0.00     0.096 N 
HETATM    3  C   UNK     0       3.055  11.657  90.805  0.00  0.00     0.299 C 
HETATM    4  C   UNK     0       3.380  13.902  90.001  0.00  0.00     0.299 C 
HETATM    5  C   UNK     0       2.081  12.201  91.847  0.00  0.00     0.198 C 
HETATM    6  C   UNK     0       2.400  14.395  91.062  0.00  0.00     0.198 C 
ENDROOT
BRANCH   2   7
HETATM    7  C   UNK     0       3.984  12.026  88.610  0.00  0.00     0.311 C 
BRANCH   7   8
HETATM    8  C   UNK     0       4.939  11.025  89.165  0.00  0.00    -0.030 A 
HETATM    9  C   UNK     0       6.072  11.454  89.858  0.00  0.00     0.010 A 
HETATM   10  C   UNK     0       6.968  10.519  90.376  0.00  0.00     0.021 A 
HETATM   11  C   UNK     0       6.729   9.156  90.203  0.00  0.00     0.018 A 
HETATM   12  C   UNK     0       5.597   8.727  89.512  0.00  0.00     0.021 A 
HETATM   13  C   UNK     0       4.702   9.662  88.993  0.00  0.00     0.010 A 
BRANCH  11  14
HETATM   14  C   UNK     0       7.646   8.196  90.736  0.00  0.00    -0.061 C 
HETATM   15  C   UNK     0       8.418   7.390  91.184  0.00  0.00    -0.061 C 
BRANCH  15  16
HETATM   16  C   UNK     0       9.334   6.432  91.716  0.00  0.00     0.018 A 
HETATM   17  C   UNK     0      10.026   5.578  90.856  0.00  0.00     0.022 A 
HETATM   18  C   UNK     0      10.923   4.643  91.374  0.00  0.00     0.018 A 
HETATM   19  C   UNK     0      11.108   4.583  92.739  0.00  0.00     0.032 A 
HETATM   20  C   UNK     0      10.437   5.415  93.611  0.00  0.00     0.018 A 
HETATM   21  C   UNK     0       9.540   6.349  93.093  0.00  0.00     0.022 A 
BRANCH  19  22
HETATM   22  C   UNK     0      12.062   3.586  93.291  0.00  0.00     0.252 C 
HETATM   23  O   UNK     0      11.642   2.488  93.647  0.00  0.00    -0.268 OA
HETATM   24  N   UNK     0      13.392   3.978  93.338  0.00  0.00    -0.341 N 
HETATM   25  H   UNK     0      13.669   4.893  93.002  0.00  0.00     0.163 HD
BRANCH  24  26
HETATM   26  C   UNK     0      14.438   3.115  93.824  0.00  0.00     0.207 C 
BRANCH  26  27
HETATM   27  C   UNK     0      14.534   1.799  93.040  0.00  0.00     0.146 C 
HETATM   28  C   UNK     0      15.271   1.961  91.716  0.00  0.00     0.042 C 
BRANCH  27  29
HETATM   29  O   UNK     0      15.209   0.821  93.830  0.00  0.00    -0.393 OA
HETATM   30  H   UNK     0      15.396   1.209  94.702  0.00  0.00     0.210 HD
ENDBRANCH  27  29
ENDBRANCH  26  27
BRANCH  26  31
HETATM   31  C   UNK     0      15.749   3.892  93.764  0.00  0.00     0.266 C 
HETATM   32  O   UNK     0      15.816   5.064  93.398  0.00  0.00    -0.269 OA
HETATM   33  N   UNK     0      16.827   3.121  94.124  0.00  0.00    -0.236 N 
HETATM   34  H   UNK     0      16.819   2.131  94.343  0.00  0.00     0.197 HD
BRANCH  33  35
HETATM   35  O   UNK     0      18.078   3.751  94.059  0.00  0.00    -0.287 OA
HETATM   36  H   UNK     0      18.644   3.054  94.431  0.00  0.00     0.244 HD
ENDBRANCH  33  35
ENDBRANCH  26  31
ENDBRANCH  24  26
ENDBRANCH  19  22
ENDBRANCH  15  16
ENDBRANCH  11  14
ENDBRANCH   7   8
ENDBRANCH   2   7
TORSDOF 10
ENDMDL
MODEL 6
REMARK VINA RESULT:      -4.6      2.303     12.330
REMARK  10 active torsions:
REMARK  status: ('A' for Active; 'I' for Inactive)
REMARK    1  A    between atoms: O_2  and  C_18 
REMARK    2  A    between atoms: O_5  and  N_8 
REMARK    3  A    between atoms: N_6  and  C_11 
REMARK    4  A    between atoms: N_7  and  C_15 
REMARK       I    between atoms: N_7  and  C_24 
REMARK       I    between atoms: N_8  and  C_23 
REMARK    5  A    between atoms: C_11  and  C_14 
REMARK    6  A    between atoms: C_15  and  C_18 
REMARK    7  A    between atoms: C_15  and  C_23 
REMARK    8  A    between atoms: C_21  and  C_26 
REMARK    9  A    between atoms: C_24  and  C_25 
REMARK   10  A    between atoms: C_29  and  C_32 
ROOT
HETATM    1  O   UNK     0       4.769  14.708  90.147  0.00  0.00    -0.388 OA
HETATM    2  N   UNK     0       3.061  13.254  91.900  0.00  0.00     0.096 N 
HETATM    3  C   UNK     0       4.122  14.130  92.414  0.00  0.00     0.299 C 
HETATM    4  C   UNK     0       3.439  12.726  90.582  0.00  0.00     0.299 C 
HETATM    5  C   UNK     0       4.396  15.251  91.415  0.00  0.00     0.198 C 
HETATM    6  C   UNK     0       3.729  13.879  89.626  0.00  0.00     0.198 C 
ENDROOT
BRANCH   2   7
HETATM    7  C   UNK     0       2.789  12.165  92.837  0.00  0.00     0.311 C 
BRANCH   7   8
HETATM    8  C   UNK     0       3.853  11.122  92.820  0.00  0.00    -0.030 A 
HETATM    9  C   UNK     0       3.943  10.235  91.746  0.00  0.00     0.010 A 
HETATM   10  C   UNK     0       4.937   9.257  91.730  0.00  0.00     0.021 A 
HETATM   11  C   UNK     0       5.842   9.168  92.787  0.00  0.00     0.018 A 
HETATM   12  C   UNK     0       5.754  10.053  93.860  0.00  0.00     0.021 A 
HETATM   13  C   UNK     0       4.760  11.030  93.877  0.00  0.00     0.010 A 
BRANCH  11  14
HETATM   14  C   UNK     0       6.864   8.166  92.770  0.00  0.00    -0.061 C 
HETATM   15  C   UNK     0       7.722   7.324  92.755  0.00  0.00    -0.061 C 
BRANCH  15  16
HETATM   16  C   UNK     0       8.741   6.323  92.736  0.00  0.00     0.018 A 
HETATM   17  C   UNK     0       9.940   6.536  93.419  0.00  0.00     0.022 A 
HETATM   18  C   UNK     0      10.934   5.557  93.403  0.00  0.00     0.018 A 
HETATM   19  C   UNK     0      10.708   4.389  92.706  0.00  0.00     0.032 A 
HETATM   20  C   UNK     0       9.533   4.154  92.024  0.00  0.00     0.018 A 
HETATM   21  C   UNK     0       8.539   5.132  92.039  0.00  0.00     0.022 A 
BRANCH  19  22
HETATM   22  C   UNK     0      11.768   3.348  92.688  0.00  0.00     0.252 C 
HETATM   23  O   UNK     0      11.447   2.166  92.594  0.00  0.00    -0.268 OA
HETATM   24  N   UNK     0      13.075   3.810  92.757  0.00  0.00    -0.341 N 
HETATM   25  H   UNK     0      13.266   4.804  92.807  0.00  0.00     0.163 HD
BRANCH  24  26
HETATM   26  C   UNK     0      14.213   2.926  92.725  0.00  0.00     0.207 C 
BRANCH  26  27
HETATM   27  C   UNK     0      14.627   2.542  91.299  0.00  0.00     0.146 C 
HETATM   28  C   UNK     0      14.179   3.569  90.264  0.00  0.00     0.042 C 
BRANCH  27  29
HETATM   29  O   UNK     0      16.046   2.407  91.234  0.00  0.00    -0.393 OA
HETATM   30  H   UNK     0      16.432   3.293  91.125  0.00  0.00     0.210 HD
ENDBRANCH  27  29
ENDBRANCH  26  27
BRANCH  26  31
HETATM   31  C   UNK     0      15.355   3.611  93.468  0.00  0.00     0.266 C 
HETATM   32  O   UNK     0      16.193   2.994  94.124  0.00  0.00    -0.269 OA
HETATM   33  N   UNK     0      15.307   4.979  93.347  0.00  0.00    -0.236 N 
HETATM   34  H   UNK     0      14.584   5.522  92.892  0.00  0.00     0.197 HD
BRANCH  33  35
HETATM   35  O   UNK     0      16.303   5.687  94.035  0.00  0.00    -0.287 OA
HETATM   36  H   UNK     0      16.660   6.231  93.312  0.00  0.00     0.244 HD
ENDBRANCH  33  35
ENDBRANCH  26  31
ENDBRANCH  24  26
ENDBRANCH  19  22
ENDBRANCH  15  16
ENDBRANCH  11  14
ENDBRANCH   7   8
ENDBRANCH   2   7
TORSDOF 10
ENDMDL
