MODEL 1
REMARK VINA RESULT:      -7.0      0.000      0.000
REMARK  10 active torsions:
REMARK  status: ('A' for Active; 'I' for Inactive)
REMARK    1  A    between atoms: O_2  and  C_18 
REMARK    2  A    between atoms: O_5  and  N_8 
REMARK    3  A    between atoms: N_6  and  C_11 
REMARK    4  A    between atoms: N_7  and  C_15 
REMARK       I    between atoms: N_7  and  C_24 
REMARK       I    between atoms: N_8  and  C_23 
REMARK    5  A    between atoms: C_11  and  C_14 
REMARK    6  A    between atoms: C_15  and  C_18 
REMARK    7  A    between atoms: C_15  and  C_23 
REMARK    8  A    between atoms: C_21  and  C_26 
REMARK    9  A    between atoms: C_24  and  C_25 
REMARK   10  A    between atoms: C_29  and  C_32 
ROOT
HETATM    1  O   UNK     0      16.523   4.281  94.124  0.00  0.00    -0.388 OA
HETATM    2  N   UNK     0      14.745   2.613  92.656  0.00  0.00     0.096 N 
HETATM    3  C   UNK     0      14.605   4.076  92.652  0.00  0.00     0.299 C 
HETATM    4  C   UNK     0      15.348   2.168  93.919  0.00  0.00     0.299 C 
HETATM    5  C   UNK     0      15.966   4.726  92.885  0.00  0.00     0.198 C 
HETATM    6  C   UNK     0      16.692   2.863  94.124  0.00  0.00     0.198 C 
ENDROOT
BRANCH   2   7
HETATM    7  C   UNK     0      13.450   1.968  92.444  0.00  0.00     0.311 C 
BRANCH   7   8
HETATM    8  C   UNK     0      12.382   2.944  92.084  0.00  0.00    -0.030 A 
HETATM    9  C   UNK     0      12.209   3.328  90.754  0.00  0.00     0.010 A 
HETATM   10  C   UNK     0      11.211   4.243  90.416  0.00  0.00     0.021 A 
HETATM   11  C   UNK     0      10.386   4.771  91.409  0.00  0.00     0.018 A 
HETATM   12  C   UNK     0      10.558   4.388  92.737  0.00  0.00     0.021 A 
HETATM   13  C   UNK     0      11.556   3.474  93.075  0.00  0.00     0.010 A 
BRANCH  11  14
HETATM   14  C   UNK     0       9.362   5.707  91.062  0.00  0.00    -0.061 C 
HETATM   15  C   UNK     0       8.500   6.494  90.770  0.00  0.00    -0.061 C 
BRANCH  15  16
HETATM   16  C   UNK     0       7.478   7.429  90.423  0.00  0.00     0.018 A 
HETATM   17  C   UNK     0       6.769   7.276  89.231  0.00  0.00     0.022 A 
HETATM   18  C   UNK     0       5.769   8.187  88.892  0.00  0.00     0.018 A 
HETATM   19  C   UNK     0       5.499   9.231  89.752  0.00  0.00     0.032 A 
HETATM   20  C   UNK     0       6.186   9.406  90.936  0.00  0.00     0.018 A 
HETATM   21  C   UNK     0       7.186   8.495  91.275  0.00  0.00     0.022 A 
BRANCH  19  22
HETATM   22  C   UNK     0       4.436  10.203  89.390  0.00  0.00     0.252 C 
HETATM   23  O   UNK     0       3.629   9.910  88.511  0.00  0.00    -0.268 OA
HETATM   24  N   UNK     0       4.424  11.389  90.111  0.00  0.00    -0.341 N 
HETATM   25  H   UNK     0       5.108  11.552  90.841  0.00  0.00     0.163 HD
BRANCH  24  26
HETATM   26  C   UNK     0       3.441  12.420  89.894  0.00  0.00     0.207 C 
BRANCH  26  27
HETATM   27  C   UNK     0       3.013  13.115  91.193  0.00  0.00     0.146 C 
HETATM   28  C   UNK     0       2.103  12.242  92.050  0.00  0.00     0.042 C 
BRANCH  27  29
HETATM   29  O   UNK     0       4.171  13.463  91.951  0.00  0.00    -0.393 OA
HETATM   30  H   UNK     0       4.934  12.993  91.576  0.00  0.00     0.210 HD
ENDBRANCH  27  29
ENDBRANCH  26  27
BRANCH  26  31
HETATM   31  C   UNK     0       4.024  13.416  88.897  0.00  0.00     0.266 C 
HETATM   32  O   UNK     0       4.128  14.618  89.135  0.00  0.00    -0.269 OA
HETATM   33  N   UNK     0       4.373  12.819  87.710  0.00  0.00    -0.236 N 
HETATM   34  H   UNK     0       4.218  11.853  87.449  0.00  0.00     0.197 HD
BRANCH  33  35
HETATM   35  O   UNK     0       4.882  13.675  86.723  0.00  0.00    -0.287 OA
HETATM   36  H   UNK     0       4.227  14.392  86.759  0.00  0.00     0.244 HD
ENDBRANCH  33  35
ENDBRANCH  26  31
ENDBRANCH  24  26
ENDBRANCH  19  22
ENDBRANCH  15  16
ENDBRANCH  11  14
ENDBRANCH   7   8
ENDBRANCH   2   7
TORSDOF 10
ENDMDL
