MODEL 1
REMARK VINA RESULT:      -7.1      0.000      0.000
REMARK  10 active torsions:
REMARK  status: ('A' for Active; 'I' for Inactive)
REMARK    1  A    between atoms: O_2  and  C_16 
REMARK    2  A    between atoms: N_5  and  C_9 
REMARK    3  A    between atoms: N_6  and  C_13 
REMARK       I    between atoms: N_6  and  C_22 
REMARK    4  A    between atoms: C_9  and  C_12 
REMARK    5  A    between atoms: C_13  and  C_16 
REMARK    6  A    between atoms: C_13  and  C_21 
REMARK    7  A    between atoms: C_19  and  C_24 
REMARK    8  A    between atoms: C_22  and  C_23 
REMARK    9  A    between atoms: C_27  and  C_30 
REMARK   10  A    between atoms: N_33  and  S_34 
ROOT
HETATM    1  C   UNL     1       5.679  10.933  89.561  1.00  0.00     0.056 A 
HETATM    2  C   UNL     1       5.145   9.727  89.962  1.00  0.00     0.005 A 
HETATM    3  C   UNL     1       7.038  11.129  89.428  1.00  0.00     0.005 A 
HETATM    4  C   UNL     1       7.386   8.840  90.118  1.00  0.00     0.042 A 
HETATM    5  C   UNL     1       6.008   8.668  90.245  1.00  0.00     0.008 A 
HETATM    6  C   UNL     1       7.902  10.070  89.710  1.00  0.00     0.008 A 
ENDROOT
BRANCH   1   7
HETATM    7  C   UNL     1       4.760  12.060  89.258  1.00  0.00     0.254 C 
HETATM    8  O   UNL     1       4.530  12.349  88.086  1.00  0.00    -0.268 OA
HETATM    9  N   UNL     1       4.200  12.700  90.355  1.00  0.00    -0.337 N 
HETATM   10  HN  UNL     1       4.417  12.390  91.295  1.00  0.00     0.164 HD
BRANCH   9  11
HETATM   11  C   UNL     1       3.271  13.794  90.225  1.00  0.00     0.172 C 
BRANCH  11  12
HETATM   12  C   UNL     1       1.973  13.567  91.009  1.00  0.00     0.136 C 
HETATM   13  C   UNL     1       2.082  12.412  91.998  1.00  0.00     0.034 C 
BRANCH  12  14
HETATM   14  O   UNL     1       1.632  14.756  91.722  1.00  0.00    -0.383 OA
HETATM   15  H   UNL     1       1.895  14.641  92.650  1.00  0.00     0.210 HD
ENDBRANCH  12  14
ENDBRANCH  11  12
BRANCH  11  16
HETATM   16  C   UNL     1       3.981  15.064  90.682  1.00  0.00     0.398 A 
HETATM   17  O   UNL     1       5.121  15.359  90.328  1.00  0.00    -0.136 OA
HETATM   18  N   UNL     1       4.951  15.603  91.819  1.00  0.00     0.142 N 
HETATM   19  HN  UNL     1       5.877  15.912  91.728  1.00  0.00     0.338 HD
BRANCH  18  20
HETATM   20  S   UNL     1       4.186  15.250  92.925  1.00  0.00     0.076 SA
HETATM   21  H   UNL     1       4.242  14.115  93.269  1.00  0.00     0.136 HD
ENDBRANCH  18  20
ENDBRANCH  11  16
ENDBRANCH   9  11
ENDBRANCH   1   7
BRANCH   4  22
HETATM   22  C   UNL     1       8.271   7.756  90.411  1.00  0.00    -0.059 C 
HETATM   23  C   UNL     1       9.014   6.843  90.657  1.00  0.00    -0.059 C 
BRANCH  23  24
HETATM   24  C   UNL     1       9.899   5.757  90.949  1.00  0.00     0.042 A 
HETATM   25  C   UNL     1      10.012   5.284  92.256  1.00  0.00     0.008 A 
HETATM   26  C   UNL     1      10.876   4.227  92.541  1.00  0.00    -0.002 A 
HETATM   27  C   UNL     1      11.624   3.642  91.519  1.00  0.00     0.011 A 
HETATM   28  C   UNL     1      11.509   4.117  90.212  1.00  0.00    -0.002 A 
HETATM   29  C   UNL     1      10.646   5.174  89.927  1.00  0.00     0.008 A 
BRANCH  27  30
HETATM   30  C   UNL     1      12.546   2.511  91.825  1.00  0.00     0.277 C 
BRANCH  30  31
HETATM   31  N   UNL     1      13.535   2.858  92.843  1.00  0.00     0.147 N 
HETATM   32  C   UNL     1      14.466   1.743  93.066  1.00  0.00     0.283 C 
HETATM   33  C   UNL     1      15.495   2.132  94.124  1.00  0.00     0.178 C 
HETATM   34  O   UNL     1      16.207   3.303  93.719  1.00  0.00    -0.350 OA
HETATM   35  C   UNL     1      15.312   4.400  93.531  1.00  0.00     0.178 C 
HETATM   36  C   UNL     1      14.278   4.066  92.460  1.00  0.00     0.283 C 
ENDBRANCH  30  31
ENDBRANCH  27  30
ENDBRANCH  23  24
ENDBRANCH   4  22
TORSDOF 10
ENDMDL
MODEL 2
REMARK VINA RESULT:      -6.8      1.398      2.125
REMARK  10 active torsions:
REMARK  status: ('A' for Active; 'I' for Inactive)
REMARK    1  A    between atoms: O_2  and  C_16 
REMARK    2  A    between atoms: N_5  and  C_9 
REMARK    3  A    between atoms: N_6  and  C_13 
REMARK       I    between atoms: N_6  and  C_22 
REMARK    4  A    between atoms: C_9  and  C_12 
REMARK    5  A    between atoms: C_13  and  C_16 
REMARK    6  A    between atoms: C_13  and  C_21 
REMARK    7  A    between atoms: C_19  and  C_24 
REMARK    8  A    between atoms: C_22  and  C_23 
REMARK    9  A    between atoms: C_27  and  C_30 
REMARK   10  A    between atoms: N_33  and  S_34 
ROOT
HETATM    1  C   UNL     1       5.264  10.502  90.950  1.00  0.00     0.056 A 
HETATM    2  C   UNL     1       6.586  10.857  91.123  1.00  0.00     0.005 A 
HETATM    3  C   UNL     1       4.855   9.186  90.906  1.00  0.00     0.005 A 
HETATM    4  C   UNL     1       7.154   8.511  91.216  1.00  0.00     0.042 A 
HETATM    5  C   UNL     1       7.542   9.851  91.257  1.00  0.00     0.008 A 
HETATM    6  C   UNL     1       5.811   8.179  91.040  1.00  0.00     0.008 A 
ENDROOT
BRANCH   1   7
HETATM    7  C   UNL     1       4.246  11.575  90.809  1.00  0.00     0.254 C 
HETATM    8  O   UNL     1       3.177  11.319  90.259  1.00  0.00    -0.268 OA
HETATM    9  N   UNL     1       4.584  12.809  91.346  1.00  0.00    -0.337 N 
HETATM   10  HN  UNL     1       5.476  12.940  91.808  1.00  0.00     0.164 HD
BRANCH   9  11
HETATM   11  C   UNL     1       3.693  13.941  91.310  1.00  0.00     0.172 C 
BRANCH  11  12
HETATM   12  C   UNL     1       3.684  14.646  89.948  1.00  0.00     0.136 C 
HETATM   13  C   UNL     1       5.015  15.319  89.630  1.00  0.00     0.034 C 
BRANCH  12  14
HETATM   14  O   UNL     1       3.386  13.699  88.923  1.00  0.00    -0.383 OA
HETATM   15  H   UNL     1       2.471  13.845  88.630  1.00  0.00     0.210 HD
ENDBRANCH  12  14
ENDBRANCH  11  12
BRANCH  11  16
HETATM   16  C   UNL     1       2.300  13.450  91.690  1.00  0.00     0.398 A 
HETATM   17  O   UNL     1       1.272  14.055  91.392  1.00  0.00    -0.136 OA
HETATM   18  N   UNL     1       1.207  13.582  92.835  1.00  0.00     0.142 N 
HETATM   19  HN  UNL     1       0.321  14.000  92.781  1.00  0.00     0.338 HD
BRANCH  18  20
HETATM   20  S   UNL     1       1.990  13.183  93.912  1.00  0.00     0.076 SA
HETATM   21  H   UNL     1       2.509  14.047  94.541  1.00  0.00     0.136 HD
ENDBRANCH  18  20
ENDBRANCH  11  16
ENDBRANCH   9  11
ENDBRANCH   1   7
BRANCH   4  22
HETATM   22  C   UNL     1       8.134   7.479  91.351  1.00  0.00    -0.059 C 
HETATM   23  C   UNL     1       8.958   6.611  91.464  1.00  0.00    -0.059 C 
BRANCH  23  24
HETATM   24  C   UNL     1       9.940   5.579  91.598  1.00  0.00     0.042 A 
HETATM   25  C   UNL     1      10.216   5.040  92.854  1.00  0.00     0.008 A 
HETATM   26  C   UNL     1      11.174   4.035  92.985  1.00  0.00    -0.002 A 
HETATM   27  C   UNL     1      11.854   3.568  91.859  1.00  0.00     0.011 A 
HETATM   28  C   UNL     1      11.576   4.108  90.604  1.00  0.00    -0.002 A 
HETATM   29  C   UNL     1      10.618   5.113  90.473  1.00  0.00     0.008 A 
BRANCH  27  30
HETATM   30  C   UNL     1      12.876   2.492  92.000  1.00  0.00     0.277 C 
BRANCH  30  31
HETATM   31  N   UNL     1      13.913   2.833  92.973  1.00  0.00     0.147 N 
HETATM   32  C   UNL     1      14.880   1.735  93.109  1.00  0.00     0.283 C 
HETATM   33  C   UNL     1      15.958   2.118  94.120  1.00  0.00     0.178 C 
HETATM   34  O   UNL     1      16.618   3.317  93.713  1.00  0.00    -0.350 OA
HETATM   35  C   UNL     1      15.689   4.397  93.609  1.00  0.00     0.178 C 
HETATM   36  C   UNL     1      14.606   4.070  92.587  1.00  0.00     0.283 C 
ENDBRANCH  30  31
ENDBRANCH  27  30
ENDBRANCH  23  24
ENDBRANCH   4  22
TORSDOF 10
ENDMDL
MODEL 3
REMARK VINA RESULT:      -6.7      1.544      1.876
REMARK  10 active torsions:
REMARK  status: ('A' for Active; 'I' for Inactive)
REMARK    1  A    between atoms: O_2  and  C_16 
REMARK    2  A    between atoms: N_5  and  C_9 
REMARK    3  A    between atoms: N_6  and  C_13 
REMARK       I    between atoms: N_6  and  C_22 
REMARK    4  A    between atoms: C_9  and  C_12 
REMARK    5  A    between atoms: C_13  and  C_16 
REMARK    6  A    between atoms: C_13  and  C_21 
REMARK    7  A    between atoms: C_19  and  C_24 
REMARK    8  A    between atoms: C_22  and  C_23 
REMARK    9  A    between atoms: C_27  and  C_30 
REMARK   10  A    between atoms: N_33  and  S_34 
ROOT
HETATM    1  C   UNL     1       5.086   9.711  90.477  1.00  0.00     0.056 A 
HETATM    2  C   UNL     1       5.764   9.742  91.677  1.00  0.00     0.005 A 
HETATM    3  C   UNL     1       5.379   8.794  89.489  1.00  0.00     0.005 A 
HETATM    4  C   UNL     1       7.099   7.877  90.917  1.00  0.00     0.042 A 
HETATM    5  C   UNL     1       6.783   8.815  91.901  1.00  0.00     0.008 A 
HETATM    6  C   UNL     1       6.397   7.866  89.711  1.00  0.00     0.008 A 
ENDROOT
BRANCH   1   7
HETATM    7  C   UNL     1       4.000  10.697  90.240  1.00  0.00     0.254 C 
HETATM    8  O   UNL     1       2.994  10.346  89.629  1.00  0.00    -0.268 OA
HETATM    9  N   UNL     1       4.206  11.965  90.765  1.00  0.00    -0.337 N 
HETATM   10  HN  UNL     1       5.052  12.175  91.282  1.00  0.00     0.164 HD
BRANCH   9  11
HETATM   11  C   UNL     1       3.235  13.023  90.641  1.00  0.00     0.172 C 
BRANCH  11  12
HETATM   12  C   UNL     1       3.033  13.800  91.947  1.00  0.00     0.136 C 
HETATM   13  C   UNL     1       1.584  13.782  92.420  1.00  0.00     0.034 C 
BRANCH  12  14
HETATM   14  O   UNL     1       3.861  13.243  92.967  1.00  0.00    -0.383 OA
HETATM   15  H   UNL     1       4.624  13.831  93.096  1.00  0.00     0.210 HD
ENDBRANCH  12  14
ENDBRANCH  11  12
BRANCH  11  16
HETATM   16  C   UNL     1       3.691  13.942  89.513  1.00  0.00     0.398 A 
HETATM   17  O   UNL     1       4.307  13.539  88.528  1.00  0.00    -0.136 OA
HETATM   18  N   UNL     1       4.932  14.822  89.054  1.00  0.00     0.142 N 
HETATM   19  HN  UNL     1       5.522  14.681  88.283  1.00  0.00     0.338 HD
BRANCH  18  20
HETATM   20  S   UNL     1       5.043  15.625  90.183  1.00  0.00     0.076 SA
HETATM   21  H   UNL     1       6.108  15.657  90.709  1.00  0.00     0.136 HD
ENDBRANCH  18  20
ENDBRANCH  11  16
ENDBRANCH   9  11
ENDBRANCH   1   7
BRANCH   4  22
HETATM   22  C   UNL     1       8.144   6.929  91.144  1.00  0.00    -0.059 C 
HETATM   23  C   UNL     1       9.023   6.131  91.336  1.00  0.00    -0.059 C 
BRANCH  23  24
HETATM   24  C   UNL     1      10.069   5.182  91.562  1.00  0.00     0.042 A 
HETATM   25  C   UNL     1      10.541   4.401  90.508  1.00  0.00     0.008 A 
HETATM   26  C   UNL     1      11.560   3.474  90.729  1.00  0.00    -0.002 A 
HETATM   27  C   UNL     1      12.107   3.330  92.005  1.00  0.00     0.011 A 
HETATM   28  C   UNL     1      11.634   4.112  93.058  1.00  0.00    -0.002 A 
HETATM   29  C   UNL     1      10.615   5.039  92.836  1.00  0.00     0.008 A 
BRANCH  27  30
HETATM   30  C   UNL     1      13.197   2.341  92.239  1.00  0.00     0.277 C 
BRANCH  30  31
HETATM   31  N   UNL     1      14.218   2.844  93.157  1.00  0.00     0.147 N 
HETATM   32  C   UNL     1      15.390   1.957  93.168  1.00  0.00     0.283 C 
HETATM   33  C   UNL     1      16.445   2.508  94.124  1.00  0.00     0.178 C 
HETATM   34  O   UNL     1      16.824   3.831  93.738  1.00  0.00    -0.350 OA
HETATM   35  C   UNL     1      15.695   4.706  93.754  1.00  0.00     0.178 C 
HETATM   36  C   UNL     1      14.622   4.208  92.791  1.00  0.00     0.283 C 
ENDBRANCH  30  31
ENDBRANCH  27  30
ENDBRANCH  23  24
ENDBRANCH   4  22
TORSDOF 10
ENDMDL
MODEL 4
REMARK VINA RESULT:      -6.6      1.777      2.135
REMARK  10 active torsions:
REMARK  status: ('A' for Active; 'I' for Inactive)
REMARK    1  A    between atoms: O_2  and  C_16 
REMARK    2  A    between atoms: N_5  and  C_9 
REMARK    3  A    between atoms: N_6  and  C_13 
REMARK       I    between atoms: N_6  and  C_22 
REMARK    4  A    between atoms: C_9  and  C_12 
REMARK    5  A    between atoms: C_13  and  C_16 
REMARK    6  A    between atoms: C_13  and  C_21 
REMARK    7  A    between atoms: C_19  and  C_24 
REMARK    8  A    between atoms: C_22  and  C_23 
REMARK    9  A    between atoms: C_27  and  C_30 
REMARK   10  A    between atoms: N_33  and  S_34 
ROOT
HETATM    1  C   UNL     1       4.633  10.175  91.657  1.00  0.00     0.056 A 
HETATM    2  C   UNL     1       5.939  10.599  91.527  1.00  0.00     0.005 A 
HETATM    3  C   UNL     1       4.303   8.844  91.807  1.00  0.00     0.005 A 
HETATM    4  C   UNL     1       6.653   8.298  91.697  1.00  0.00     0.042 A 
HETATM    5  C   UNL     1       6.961   9.650  91.547  1.00  0.00     0.008 A 
HETATM    6  C   UNL     1       5.324   7.895  91.827  1.00  0.00     0.008 A 
ENDROOT
BRANCH   1   7
HETATM    7  C   UNL     1       3.545  11.186  91.638  1.00  0.00     0.254 C 
HETATM    8  O   UNL     1       2.393  10.823  91.412  1.00  0.00    -0.268 OA
HETATM    9  N   UNL     1       3.924  12.493  91.908  1.00  0.00    -0.337 N 
HETATM   10  HN  UNL     1       4.892  12.715  92.110  1.00  0.00     0.164 HD
BRANCH   9  11
HETATM   11  C   UNL     1       2.982  13.582  91.950  1.00  0.00     0.172 C 
BRANCH  11  12
HETATM   12  C   UNL     1       3.297  14.598  93.055  1.00  0.00     0.136 C 
HETATM   13  C   UNL     1       2.167  14.725  94.071  1.00  0.00     0.034 C 
BRANCH  12  14
HETATM   14  O   UNL     1       4.490  14.209  93.735  1.00  0.00    -0.383 OA
HETATM   15  H   UNL     1       4.446  14.547  94.645  1.00  0.00     0.210 HD
ENDBRANCH  12  14
ENDBRANCH  11  12
BRANCH  11  16
HETATM   16  C   UNL     1       2.972  14.243  90.575  1.00  0.00     0.398 A 
HETATM   17  O   UNL     1       2.827  13.612  89.530  1.00  0.00    -0.136 OA
HETATM   18  N   UNL     1       3.942  14.634  89.380  1.00  0.00     0.142 N 
HETATM   19  HN  UNL     1       3.960  14.268  88.470  1.00  0.00     0.338 HD
BRANCH  18  20
HETATM   20  S   UNL     1       4.850  15.405  90.097  1.00  0.00     0.076 SA
HETATM   21  H   UNL     1       4.772  16.583  89.959  1.00  0.00     0.136 HD
ENDBRANCH  18  20
ENDBRANCH  11  16
ENDBRANCH   9  11
ENDBRANCH   1   7
BRANCH   4  22
HETATM   22  C   UNL     1       7.700   7.325  91.714  1.00  0.00    -0.059 C 
HETATM   23  C   UNL     1       8.581   6.507  91.730  1.00  0.00    -0.059 C 
BRANCH  23  24
HETATM   24  C   UNL     1       9.629   5.532  91.748  1.00  0.00     0.042 A 
HETATM   25  C   UNL     1      10.279   5.231  92.944  1.00  0.00     0.008 A 
HETATM   26  C   UNL     1      11.302   4.283  92.961  1.00  0.00    -0.002 A 
HETATM   27  C   UNL     1      11.672   3.635  91.782  1.00  0.00     0.011 A 
HETATM   28  C   UNL     1      11.020   3.937  90.587  1.00  0.00    -0.002 A 
HETATM   29  C   UNL     1       9.998   4.886  90.570  1.00  0.00     0.008 A 
BRANCH  27  30
HETATM   30  C   UNL     1      12.764   2.620  91.802  1.00  0.00     0.277 C 
BRANCH  30  31
HETATM   31  N   UNL     1      13.758   2.892  92.839  1.00  0.00     0.147 N 
HETATM   32  C   UNL     1      14.628   1.725  93.044  1.00  0.00     0.283 C 
HETATM   33  C   UNL     1      15.664   2.036  94.122  1.00  0.00     0.178 C 
HETATM   34  O   UNL     1      16.439   3.178  93.751  1.00  0.00    -0.350 OA
HETATM   35  C   UNL     1      15.605   4.324  93.579  1.00  0.00     0.178 C 
HETATM   36  C   UNL     1      14.568   4.068  92.491  1.00  0.00     0.283 C 
ENDBRANCH  30  31
ENDBRANCH  27  30
ENDBRANCH  23  24
ENDBRANCH   4  22
TORSDOF 10
ENDMDL
MODEL 5
REMARK VINA RESULT:      -5.7      3.660     12.389
REMARK  10 active torsions:
REMARK  status: ('A' for Active; 'I' for Inactive)
REMARK    1  A    between atoms: O_2  and  C_16 
REMARK    2  A    between atoms: N_5  and  C_9 
REMARK    3  A    between atoms: N_6  and  C_13 
REMARK       I    between atoms: N_6  and  C_22 
REMARK    4  A    between atoms: C_9  and  C_12 
REMARK    5  A    between atoms: C_13  and  C_16 
REMARK    6  A    between atoms: C_13  and  C_21 
REMARK    7  A    between atoms: C_19  and  C_24 
REMARK    8  A    between atoms: C_22  and  C_23 
REMARK    9  A    between atoms: C_27  and  C_30 
REMARK   10  A    between atoms: N_33  and  S_34 
ROOT
HETATM    1  C   UNL     1      10.197   5.751  89.973  1.00  0.00     0.056 A 
HETATM    2  C   UNL     1       9.546   6.062  91.149  1.00  0.00     0.005 A 
HETATM    3  C   UNL     1       9.957   6.431  88.797  1.00  0.00     0.005 A 
HETATM    4  C   UNL     1       8.353   7.802  89.973  1.00  0.00     0.042 A 
HETATM    5  C   UNL     1       8.613   7.099  91.150  1.00  0.00     0.008 A 
HETATM    6  C   UNL     1       9.024   7.468  88.797  1.00  0.00     0.008 A 
ENDROOT
BRANCH   1   7
HETATM    7  C   UNL     1      11.192   4.648  89.974  1.00  0.00     0.254 C 
HETATM    8  O   UNL     1      11.358   3.989  88.950  1.00  0.00    -0.268 OA
HETATM    9  N   UNL     1      11.891   4.460  91.158  1.00  0.00    -0.337 N 
HETATM   10  HN  UNL     1      11.719   5.060  91.956  1.00  0.00     0.164 HD
BRANCH   9  11
HETATM   11  C   UNL     1      12.906   3.448  91.307  1.00  0.00     0.172 C 
BRANCH  11  12
HETATM   12  C   UNL     1      14.327   4.007  91.167  1.00  0.00     0.136 C 
HETATM   13  C   UNL     1      15.259   3.054  90.426  1.00  0.00     0.034 C 
BRANCH  12  14
HETATM   14  O   UNL     1      14.285   5.251  90.469  1.00  0.00    -0.383 OA
HETATM   15  H   UNL     1      13.639   5.173  89.747  1.00  0.00     0.210 HD
ENDBRANCH  12  14
ENDBRANCH  11  12
BRANCH  11  16
HETATM   16  C   UNL     1      12.703   2.782  92.665  1.00  0.00     0.398 A 
HETATM   17  O   UNL     1      12.033   3.286  93.564  1.00  0.00    -0.136 OA
HETATM   18  N   UNL     1      13.329   2.722  94.123  1.00  0.00     0.142 N 
HETATM   19  HN  UNL     1      12.937   3.041  94.964  1.00  0.00     0.338 HD
BRANCH  18  20
HETATM   20  S   UNL     1      14.622   2.348  93.776  1.00  0.00     0.076 SA
HETATM   21  H   UNL     1      14.799   1.195  93.551  1.00  0.00     0.136 HD
ENDBRANCH  18  20
ENDBRANCH  11  16
ENDBRANCH   9  11
ENDBRANCH   1   7
BRANCH   4  22
HETATM   22  C   UNL     1       7.395   8.863  89.972  1.00  0.00    -0.059 C 
HETATM   23  C   UNL     1       6.588   9.754  89.972  1.00  0.00    -0.059 C 
BRANCH  23  24
HETATM   24  C   UNL     1       5.629  10.816  89.973  1.00  0.00     0.042 A 
HETATM   25  C   UNL     1       5.918  12.015  89.323  1.00  0.00     0.008 A 
HETATM   26  C   UNL     1       4.984  13.051  89.325  1.00  0.00    -0.002 A 
HETATM   27  C   UNL     1       3.760  12.886  89.976  1.00  0.00     0.011 A 
HETATM   28  C   UNL     1       3.473  11.685  90.625  1.00  0.00    -0.002 A 
HETATM   29  C   UNL     1       4.408  10.650  90.623  1.00  0.00     0.008 A 
BRANCH  27  30
HETATM   30  C   UNL     1       2.762  13.993  89.976  1.00  0.00     0.277 C 
BRANCH  30  31
HETATM   31  N   UNL     1       2.713  14.699  91.254  1.00  0.00     0.147 N 
HETATM   32  C   UNL     1       1.847  13.991  92.207  1.00  0.00     0.283 C 
HETATM   33  C   UNL     1       1.820  14.740  93.537  1.00  0.00     0.178 C 
HETATM   34  O   UNL     1       3.143  14.866  94.063  1.00  0.00    -0.350 OA
HETATM   35  C   UNL     1       3.983  15.581  93.156  1.00  0.00     0.178 C 
HETATM   36  C   UNL     1       4.061  14.853  91.818  1.00  0.00     0.283 C 
ENDBRANCH  30  31
ENDBRANCH  27  30
ENDBRANCH  23  24
ENDBRANCH   4  22
TORSDOF 10
ENDMDL
MODEL 6
REMARK VINA RESULT:      -5.5      3.377     12.341
REMARK  10 active torsions:
REMARK  status: ('A' for Active; 'I' for Inactive)
REMARK    1  A    between atoms: O_2  and  C_16 
REMARK    2  A    between atoms: N_5  and  C_9 
REMARK    3  A    between atoms: N_6  and  C_13 
REMARK       I    between atoms: N_6  and  C_22 
REMARK    4  A    between atoms: C_9  and  C_12 
REMARK    5  A    between atoms: C_13  and  C_16 
REMARK    6  A    between atoms: C_13  and  C_21 
REMARK    7  A    between atoms: C_19  and  C_24 
REMARK    8  A    between atoms: C_22  and  C_23 
REMARK    9  A    between atoms: C_27  and  C_30 
REMARK   10  A    between atoms: N_33  and  S_34 
ROOT
HETATM    1  C   UNL     1      10.144   5.898  89.897  1.00  0.00     0.056 A 
HETATM    2  C   UNL     1      10.046   6.728  88.801  1.00  0.00     0.005 A 
HETATM    3  C   UNL     1       9.340   6.046  91.008  1.00  0.00     0.005 A 
HETATM    4  C   UNL     1       8.276   7.926  89.927  1.00  0.00     0.042 A 
HETATM    5  C   UNL     1       9.101   7.755  88.815  1.00  0.00     0.008 A 
HETATM    6  C   UNL     1       8.395   7.072  91.023  1.00  0.00     0.008 A 
ENDROOT
BRANCH   1   7
HETATM    7  C   UNL     1      11.149   4.803  89.881  1.00  0.00     0.254 C 
HETATM    8  O   UNL     1      11.181   4.033  88.925  1.00  0.00    -0.268 OA
HETATM    9  N   UNL     1      12.011   4.753  90.967  1.00  0.00    -0.337 N 
HETATM   10  HN  UNL     1      11.942   5.439  91.710  1.00  0.00     0.164 HD
BRANCH   9  11
HETATM   11  C   UNL     1      13.054   3.766  91.085  1.00  0.00     0.172 C 
BRANCH  11  12
HETATM   12  C   UNL     1      14.392   4.366  91.534  1.00  0.00     0.136 C 
HETATM   13  C   UNL     1      15.309   3.333  92.179  1.00  0.00     0.034 C 
BRANCH  12  14
HETATM   14  O   UNL     1      15.059   4.941  90.411  1.00  0.00    -0.383 OA
HETATM   15  H   UNL     1      15.357   4.219  89.832  1.00  0.00     0.210 HD
ENDBRANCH  12  14
ENDBRANCH  11  12
BRANCH  11  16
HETATM   16  C   UNL     1      12.574   2.693  92.057  1.00  0.00     0.398 A 
HETATM   17  O   UNL     1      11.593   1.984  91.840  1.00  0.00    -0.136 OA
HETATM   18  N   UNL     1      11.579   2.480  93.276  1.00  0.00     0.142 N 
HETATM   19  HN  UNL     1      10.766   1.931  93.306  1.00  0.00     0.338 HD
BRANCH  18  20
HETATM   20  S   UNL     1      12.068   3.474  94.116  1.00  0.00     0.076 SA
HETATM   21  H   UNL     1      13.239   3.675  94.075  1.00  0.00     0.136 HD
ENDBRANCH  18  20
ENDBRANCH  11  16
ENDBRANCH   9  11
ENDBRANCH   1   7
BRANCH   4  22
HETATM   22  C   UNL     1       7.310   8.980  89.943  1.00  0.00    -0.059 C 
HETATM   23  C   UNL     1       6.498   9.866  89.956  1.00  0.00    -0.059 C 
BRANCH  23  24
HETATM   24  C   UNL     1       5.531  10.921  89.971  1.00  0.00     0.042 A 
HETATM   25  C   UNL     1       4.338  10.761  90.676  1.00  0.00     0.008 A 
HETATM   26  C   UNL     1       3.394  11.788  90.689  1.00  0.00    -0.002 A 
HETATM   27  C   UNL     1       3.645  12.975  89.999  1.00  0.00     0.011 A 
HETATM   28  C   UNL     1       4.839  13.133  89.295  1.00  0.00    -0.002 A 
HETATM   29  C   UNL     1       5.782  12.105  89.282  1.00  0.00     0.008 A 
BRANCH  27  30
HETATM   30  C   UNL     1       2.637  14.073  90.015  1.00  0.00     0.277 C 
BRANCH  30  31
HETATM   31  N   UNL     1       2.591  14.768  91.301  1.00  0.00     0.147 N 
HETATM   32  C   UNL     1       1.650  14.108  92.216  1.00  0.00     0.283 C 
HETATM   33  C   UNL     1       1.628  14.843  93.554  1.00  0.00     0.178 C 
HETATM   34  O   UNL     1       2.938  14.878  94.124  1.00  0.00    -0.350 OA
HETATM   35  C   UNL     1       3.852  15.545  93.254  1.00  0.00     0.178 C 
HETATM   36  C   UNL     1       3.927  14.828  91.910  1.00  0.00     0.283 C 
ENDBRANCH  30  31
ENDBRANCH  27  30
ENDBRANCH  23  24
ENDBRANCH   4  22
TORSDOF 10
ENDMDL
MODEL 7
REMARK VINA RESULT:      -5.4      3.615     12.598
REMARK  10 active torsions:
REMARK  status: ('A' for Active; 'I' for Inactive)
REMARK    1  A    between atoms: O_2  and  C_16 
REMARK    2  A    between atoms: N_5  and  C_9 
REMARK    3  A    between atoms: N_6  and  C_13 
REMARK       I    between atoms: N_6  and  C_22 
REMARK    4  A    between atoms: C_9  and  C_12 
REMARK    5  A    between atoms: C_13  and  C_16 
REMARK    6  A    between atoms: C_13  and  C_21 
REMARK    7  A    between atoms: C_19  and  C_24 
REMARK    8  A    between atoms: C_22  and  C_23 
REMARK    9  A    between atoms: C_27  and  C_30 
REMARK   10  A    between atoms: N_33  and  S_34 
ROOT
HETATM    1  C   UNL     1      10.389   5.234  92.150  1.00  0.00     0.056 A 
HETATM    2  C   UNL     1      10.023   6.131  93.132  1.00  0.00     0.005 A 
HETATM    3  C   UNL     1       9.933   5.338  90.852  1.00  0.00     0.005 A 
HETATM    4  C   UNL     1       8.687   7.304  91.497  1.00  0.00     0.042 A 
HETATM    5  C   UNL     1       9.162   7.178  92.803  1.00  0.00     0.008 A 
HETATM    6  C   UNL     1       9.073   6.384  90.522  1.00  0.00     0.008 A 
ENDROOT
BRANCH   1   7
HETATM    7  C   UNL     1      11.308   4.121  92.501  1.00  0.00     0.254 C 
HETATM    8  O   UNL     1      10.838   3.016  92.762  1.00  0.00    -0.268 OA
HETATM    9  N   UNL     1      12.663   4.421  92.481  1.00  0.00    -0.337 N 
HETATM   10  HN  UNL     1      12.978   5.350  92.230  1.00  0.00     0.164 HD
BRANCH   9  11
HETATM   11  C   UNL     1      13.678   3.442  92.774  1.00  0.00     0.172 C 
BRANCH  11  12
HETATM   12  C   UNL     1      14.281   2.815  91.510  1.00  0.00     0.136 C 
HETATM   13  C   UNL     1      14.232   3.756  90.311  1.00  0.00     0.034 C 
BRANCH  12  14
HETATM   14  O   UNL     1      15.638   2.450  91.758  1.00  0.00    -0.383 OA
HETATM   15  H   UNL     1      16.124   3.248  92.024  1.00  0.00     0.210 HD
ENDBRANCH  12  14
ENDBRANCH  11  12
BRANCH  11  16
HETATM   16  C   UNL     1      14.750   4.121  93.620  1.00  0.00     0.398 A 
HETATM   17  O   UNL     1      15.336   5.142  93.266  1.00  0.00    -0.136 OA
HETATM   18  N   UNL     1      16.322   4.143  93.849  1.00  0.00     0.142 N 
HETATM   19  HN  UNL     1      16.951   4.871  93.659  1.00  0.00     0.338 HD
BRANCH  18  20
HETATM   20  S   UNL     1      16.507   2.793  94.124  1.00  0.00     0.076 SA
HETATM   21  H   UNL     1      16.139   2.026  93.294  1.00  0.00     0.136 HD
ENDBRANCH  18  20
ENDBRANCH  11  16
ENDBRANCH   9  11
ENDBRANCH   1   7
BRANCH   4  22
HETATM   22  C   UNL     1       7.803   8.375  91.160  1.00  0.00    -0.059 C 
HETATM   23  C   UNL     1       7.059   9.276  90.876  1.00  0.00    -0.059 C 
BRANCH  23  24
HETATM   24  C   UNL     1       6.173  10.348  90.538  1.00  0.00     0.042 A 
HETATM   25  C   UNL     1       6.520  11.246  89.528  1.00  0.00     0.008 A 
HETATM   26  C   UNL     1       5.658  12.292  89.200  1.00  0.00    -0.002 A 
HETATM   27  C   UNL     1       4.449  12.438  89.880  1.00  0.00     0.011 A 
HETATM   28  C   UNL     1       4.103  11.539  90.889  1.00  0.00    -0.002 A 
HETATM   29  C   UNL     1       4.966  10.494  91.218  1.00  0.00     0.008 A 
BRANCH  27  30
HETATM   30  C   UNL     1       3.527  13.555  89.526  1.00  0.00     0.277 C 
BRANCH  30  31
HETATM   31  N   UNL     1       3.199  14.392  90.679  1.00  0.00     0.147 N 
HETATM   32  C   UNL     1       2.109  13.794  91.463  1.00  0.00     0.283 C 
HETATM   33  C   UNL     1       1.792  14.679  92.666  1.00  0.00     0.178 C 
HETATM   34  O   UNL     1       2.955  14.851  93.478  1.00  0.00    -0.350 OA
HETATM   35  C   UNL     1       4.009  15.460  92.731  1.00  0.00     0.178 C 
HETATM   36  C   UNL     1       4.379  14.596  91.530  1.00  0.00     0.283 C 
ENDBRANCH  30  31
ENDBRANCH  27  30
ENDBRANCH  23  24
ENDBRANCH   4  22
TORSDOF 10
ENDMDL
MODEL 8
REMARK VINA RESULT:      -5.3      3.782     12.613
REMARK  10 active torsions:
REMARK  status: ('A' for Active; 'I' for Inactive)
REMARK    1  A    between atoms: O_2  and  C_16 
REMARK    2  A    between atoms: N_5  and  C_9 
REMARK    3  A    between atoms: N_6  and  C_13 
REMARK       I    between atoms: N_6  and  C_22 
REMARK    4  A    between atoms: C_9  and  C_12 
REMARK    5  A    between atoms: C_13  and  C_16 
REMARK    6  A    between atoms: C_13  and  C_21 
REMARK    7  A    between atoms: C_19  and  C_24 
REMARK    8  A    between atoms: C_22  and  C_23 
REMARK    9  A    between atoms: C_27  and  C_30 
REMARK   10  A    between atoms: N_33  and  S_34 
ROOT
HETATM    1  C   UNL     1      10.411   4.796  92.821  1.00  0.00     0.056 A 
HETATM    2  C   UNL     1       9.643   4.927  91.684  1.00  0.00     0.005 A 
HETATM    3  C   UNL     1      10.233   5.601  93.927  1.00  0.00     0.005 A 
HETATM    4  C   UNL     1       8.451   6.735  92.755  1.00  0.00     0.042 A 
HETATM    5  C   UNL     1       8.651   5.907  91.649  1.00  0.00     0.008 A 
HETATM    6  C   UNL     1       9.242   6.582  93.894  1.00  0.00     0.008 A 
ENDROOT
BRANCH   1   7
HETATM    7  C   UNL     1      11.466   3.750  92.858  1.00  0.00     0.254 C 
HETATM    8  O   UNL     1      11.163   2.584  92.623  1.00  0.00    -0.268 OA
HETATM    9  N   UNL     1      12.751   4.193  93.141  1.00  0.00    -0.337 N 
HETATM   10  HN  UNL     1      12.931   5.177  93.300  1.00  0.00     0.164 HD
BRANCH   9  11
HETATM   11  C   UNL     1      13.884   3.304  93.188  1.00  0.00     0.172 C 
BRANCH  11  12
HETATM   12  C   UNL     1      14.303   2.801  91.801  1.00  0.00     0.136 C 
HETATM   13  C   UNL     1      14.025   3.821  90.702  1.00  0.00     0.034 C 
BRANCH  12  14
HETATM   14  O   UNL     1      15.697   2.494  91.805  1.00  0.00    -0.383 OA
HETATM   15  H   UNL     1      16.005   2.490  92.727  1.00  0.00     0.210 HD
ENDBRANCH  12  14
ENDBRANCH  11  12
BRANCH  11  16
HETATM   16  C   UNL     1      15.027   4.042  93.878  1.00  0.00     0.398 A 
HETATM   17  O   UNL     1      15.501   5.092  93.450  1.00  0.00    -0.136 OA
HETATM   18  N   UNL     1      16.612   4.149  93.883  1.00  0.00     0.142 N 
HETATM   19  HN  UNL     1      17.168   4.909  93.610  1.00  0.00     0.338 HD
BRANCH  18  20
HETATM   20  S   UNL     1      16.907   2.811  94.122  1.00  0.00     0.076 SA
HETATM   21  H   UNL     1      16.600   2.382  95.187  1.00  0.00     0.136 HD
ENDBRANCH  18  20
ENDBRANCH  11  16
ENDBRANCH   9  11
ENDBRANCH   1   7
BRANCH   4  22
HETATM   22  C   UNL     1       7.436   7.741  92.719  1.00  0.00    -0.059 C 
HETATM   23  C   UNL     1       6.584   8.589  92.689  1.00  0.00    -0.059 C 
BRANCH  23  24
HETATM   24  C   UNL     1       5.569   9.597  92.652  1.00  0.00     0.042 A 
HETATM   25  C   UNL     1       4.565   9.538  91.686  1.00  0.00     0.008 A 
HETATM   26  C   UNL     1       3.577  10.522  91.648  1.00  0.00    -0.002 A 
HETATM   27  C   UNL     1       3.593  11.562  92.578  1.00  0.00     0.011 A 
HETATM   28  C   UNL     1       4.597  11.618  93.544  1.00  0.00    -0.002 A 
HETATM   29  C   UNL     1       5.586  10.635  93.581  1.00  0.00     0.008 A 
BRANCH  27  30
HETATM   30  C   UNL     1       2.534  12.612  92.539  1.00  0.00     0.277 C 
BRANCH  30  31
HETATM   31  N   UNL     1       2.922  13.763  91.726  1.00  0.00     0.147 N 
HETATM   32  C   UNL     1       4.097  14.434  92.301  1.00  0.00     0.283 C 
HETATM   33  C   UNL     1       4.489  15.625  91.430  1.00  0.00     0.178 C 
HETATM   34  O   UNL     1       4.764  15.196  90.095  1.00  0.00    -0.350 OA
HETATM   35  C   UNL     1       3.617  14.570  89.518  1.00  0.00     0.178 C 
HETATM   36  C   UNL     1       3.203  13.355  90.342  1.00  0.00     0.283 C 
ENDBRANCH  30  31
ENDBRANCH  27  30
ENDBRANCH  23  24
ENDBRANCH   4  22
TORSDOF 10
ENDMDL
MODEL 9
REMARK VINA RESULT:      -5.1      2.628      3.673
REMARK  10 active torsions:
REMARK  status: ('A' for Active; 'I' for Inactive)
REMARK    1  A    between atoms: O_2  and  C_16 
REMARK    2  A    between atoms: N_5  and  C_9 
REMARK    3  A    between atoms: N_6  and  C_13 
REMARK       I    between atoms: N_6  and  C_22 
REMARK    4  A    between atoms: C_9  and  C_12 
REMARK    5  A    between atoms: C_13  and  C_16 
REMARK    6  A    between atoms: C_13  and  C_21 
REMARK    7  A    between atoms: C_19  and  C_24 
REMARK    8  A    between atoms: C_22  and  C_23 
REMARK    9  A    between atoms: C_27  and  C_30 
REMARK   10  A    between atoms: N_33  and  S_34 
ROOT
HETATM    1  C   UNL     1       6.040   8.358  89.412  1.00  0.00     0.056 A 
HETATM    2  C   UNL     1       6.136   7.039  89.022  1.00  0.00     0.005 A 
HETATM    3  C   UNL     1       6.914   8.925  90.315  1.00  0.00     0.005 A 
HETATM    4  C   UNL     1       8.050   6.799  90.477  1.00  0.00     0.042 A 
HETATM    5  C   UNL     1       7.152   6.249  89.561  1.00  0.00     0.008 A 
HETATM    6  C   UNL     1       7.931   8.137  90.854  1.00  0.00     0.008 A 
ENDROOT
BRANCH   1   7
HETATM    7  C   UNL     1       4.958   9.199  88.836  1.00  0.00     0.254 C 
HETATM    8  O   UNL     1       4.833   9.263  87.616  1.00  0.00    -0.268 OA
HETATM    9  N   UNL     1       4.138   9.844  89.751  1.00  0.00    -0.337 N 
HETATM   10  HN  UNL     1       4.286   9.725  90.747  1.00  0.00     0.164 HD
BRANCH   9  11
HETATM   11  C   UNL     1       3.031  10.675  89.350  1.00  0.00     0.172 C 
BRANCH  11  12
HETATM   12  C   UNL     1       3.411  12.157  89.238  1.00  0.00     0.136 C 
HETATM   13  C   UNL     1       3.899  12.736  90.562  1.00  0.00     0.034 C 
BRANCH  12  14
HETATM   14  O   UNL     1       4.437  12.314  88.258  1.00  0.00    -0.383 OA
HETATM   15  H   UNL     1       4.195  11.789  87.477  1.00  0.00     0.210 HD
ENDBRANCH  12  14
ENDBRANCH  11  12
BRANCH  11  16
HETATM   16  C   UNL     1       2.502  10.137  88.025  1.00  0.00     0.398 A 
HETATM   17  O   UNL     1       1.617  10.697  87.380  1.00  0.00    -0.136 OA
HETATM   18  N   UNL     1       1.365   9.199  87.432  1.00  0.00     0.142 N 
HETATM   19  HN  UNL     1       0.600   9.454  86.873  1.00  0.00     0.338 HD
BRANCH  18  20
HETATM   20  S   UNL     1       1.657   8.045  88.150  1.00  0.00     0.076 SA
HETATM   21  H   UNL     1       0.737   7.347  88.430  1.00  0.00     0.136 HD
ENDBRANCH  18  20
ENDBRANCH  11  16
ENDBRANCH   9  11
ENDBRANCH   1   7
BRANCH   4  22
HETATM   22  C   UNL     1       9.090   5.989  91.031  1.00  0.00    -0.059 C 
HETATM   23  C   UNL     1       9.964   5.308  91.496  1.00  0.00    -0.059 C 
BRANCH  23  24
HETATM   24  C   UNL     1      11.005   4.498  92.050  1.00  0.00     0.042 A 
HETATM   25  C   UNL     1      11.712   3.617  91.231  1.00  0.00     0.008 A 
HETATM   26  C   UNL     1      12.726   2.826  91.771  1.00  0.00    -0.002 A 
HETATM   27  C   UNL     1      13.033   2.918  93.129  1.00  0.00     0.011 A 
HETATM   28  C   UNL     1      12.326   3.800  93.946  1.00  0.00    -0.002 A 
HETATM   29  C   UNL     1      11.312   4.590  93.406  1.00  0.00     0.008 A 
BRANCH  27  30
HETATM   30  C   UNL     1      14.119   2.073  93.705  1.00  0.00     0.277 C 
BRANCH  30  31
HETATM   31  N   UNL     1      15.276   2.862  94.124  1.00  0.00     0.147 N 
HETATM   32  C   UNL     1      16.519   2.285  93.593  1.00  0.00     0.283 C 
HETATM   33  C   UNL     1      17.711   3.131  94.034  1.00  0.00     0.178 C 
HETATM   34  O   UNL     1      17.556   4.480  93.587  1.00  0.00    -0.350 OA
HETATM   35  C   UNL     1      16.365   5.058  94.123  1.00  0.00     0.178 C 
HETATM   36  C   UNL     1      15.142   4.259  93.686  1.00  0.00     0.283 C 
ENDBRANCH  30  31
ENDBRANCH  27  30
ENDBRANCH  23  24
ENDBRANCH   4  22
TORSDOF 10
ENDMDL
