MODEL 1
REMARK VINA RESULT:      -6.3      0.000      0.000
REMARK  12 active torsions:
REMARK  status: ('A' for Active; 'I' for Inactive)
REMARK    1  A    between atoms: O_2  and  C_16 
REMARK    2  A    between atoms: N_5  and  C_9 
REMARK    3  A    between atoms: N_6  and  C_13 
REMARK       I    between atoms: N_6  and  C_22 
REMARK    4  A    between atoms: C_9  and  C_12 
REMARK    5  A    between atoms: C_13  and  C_16 
REMARK    6  A    between atoms: C_13  and  C_21 
REMARK    7  A    between atoms: C_19  and  C_24 
REMARK    8  A    between atoms: C_21  and  C_33 
REMARK    9  A    between atoms: C_22  and  C_23 
REMARK   10  A    between atoms: C_27  and  C_30 
REMARK   11  A    between atoms: C_33  and  C_34 
REMARK   12  A    between atoms: C_34  and  C_35 
ROOT
HETATM    1  O   UNL     1      16.716   3.558  93.648  1.00  0.00    -0.350 OA
HETATM    2  N   UNL     1      14.052   2.936  92.863  1.00  0.00     0.147 N 
HETATM    3  C   UNL     1      15.046   1.882  93.111  1.00  0.00     0.283 C 
HETATM    4  C   UNL     1      14.722   4.162  92.407  1.00  0.00     0.283 C 
HETATM    5  C   UNL     1      16.078   2.372  94.124  1.00  0.00     0.178 C 
HETATM    6  C   UNL     1      15.761   4.598  93.435  1.00  0.00     0.178 C 
ENDROOT
BRANCH   2   7
HETATM    7  C   UNL     1      13.059   2.492  91.887  1.00  0.00     0.277 C 
BRANCH   7   8
HETATM    8  C   UNL     1      11.899   3.423  91.793  1.00  0.00     0.011 A 
HETATM    9  C   UNL     1      11.292   3.657  90.559  1.00  0.00    -0.002 A 
HETATM   10  C   UNL     1      10.208   4.531  90.469  1.00  0.00     0.008 A 
HETATM   11  C   UNL     1       9.730   5.167  91.614  1.00  0.00     0.042 A 
HETATM   12  C   UNL     1      10.335   4.934  92.847  1.00  0.00     0.008 A 
HETATM   13  C   UNL     1      11.420   4.062  92.937  1.00  0.00    -0.002 A 
BRANCH  11  14
HETATM   14  C   UNL     1       8.617   6.061  91.522  1.00  0.00    -0.059 C 
HETATM   15  C   UNL     1       7.682   6.813  91.444  1.00  0.00    -0.059 C 
BRANCH  15  16
HETATM   16  C   UNL     1       6.569   7.706  91.352  1.00  0.00     0.042 A 
HETATM   17  C   UNL     1       5.554   7.460  90.427  1.00  0.00     0.008 A 
HETATM   18  C   UNL     1       4.467   8.329  90.339  1.00  0.00     0.005 A 
HETATM   19  C   UNL     1       4.419   9.424  91.177  1.00  0.00     0.056 A 
HETATM   20  C   UNL     1       5.410   9.689  92.099  1.00  0.00     0.005 A 
HETATM   21  C   UNL     1       6.497   8.820  92.188  1.00  0.00     0.008 A 
BRANCH  19  22
HETATM   22  C   UNL     1       3.262  10.351  91.081  1.00  0.00     0.254 C 
HETATM   23  O   UNL     1       2.186   9.927  90.666  1.00  0.00    -0.268 OA
HETATM   24  N   UNL     1       3.490  11.653  91.504  1.00  0.00    -0.335 N 
HETATM   25  HN  UNL     1       4.399  11.926  91.859  1.00  0.00     0.164 HD
BRANCH  24  26
HETATM   26  C   UNL     1       2.461  12.663  91.495  1.00  0.00     0.166 C 
BRANCH  26  27
HETATM   27  C   UNL     1       2.289  13.347  92.857  1.00  0.00     0.138 C 
HETATM   28  C   UNL     1       3.425  13.022  93.821  1.00  0.00     0.034 C 
BRANCH  27  29
HETATM   29  O   UNL     1       2.225  14.761  92.676  1.00  0.00    -0.383 OA
HETATM   30  H   UNL     1       2.599  14.974  91.805  1.00  0.00     0.210 HD
ENDBRANCH  27  29
ENDBRANCH  26  27
BRANCH  26  31
HETATM   31  C   UNL     1       2.810  13.673  90.407  1.00  0.00     0.181 C 
HETATM   32  O   UNL     1       2.051  14.578  90.066  1.00  0.00    -0.294 OA
BRANCH  31  33
HETATM   33  C   UNL     1       4.251  14.367  90.669  1.00  0.00     0.138 C 
BRANCH  33  34
HETATM   34  C   UNL     1       4.789  14.380  89.363  1.00  0.00     0.208 C 
HETATM   35  O   UNL     1       5.039  15.470  88.901  1.00  0.00    -0.289 OA
BRANCH  34  36
HETATM   36  C   UNL     1       5.349  13.374  88.623  1.00  0.00     0.194 C 
HETATM   37  O   UNL     1       5.590  12.036  88.953  1.00  0.00    -0.185 OA
ENDBRANCH  34  36
ENDBRANCH  33  34
ENDBRANCH  31  33
ENDBRANCH  26  31
ENDBRANCH  24  26
ENDBRANCH  19  22
ENDBRANCH  15  16
ENDBRANCH  11  14
ENDBRANCH   7   8
ENDBRANCH   2   7
TORSDOF 12
ENDMDL
