MODEL 1
REMARK VINA RESULT:      -6.9      0.000      0.000
REMARK  10 active torsions:
REMARK  status: ('A' for Active; 'I' for Inactive)
REMARK    1  A    between atoms: O_2  and  C_16 
REMARK    2  A    between atoms: N_5  and  C_9 
REMARK    3  A    between atoms: N_6  and  C_13 
REMARK       I    between atoms: N_6  and  C_22 
REMARK    4  A    between atoms: C_9  and  C_12 
REMARK    5  A    between atoms: C_13  and  C_16 
REMARK    6  A    between atoms: C_13  and  C_21 
REMARK    7  A    between atoms: C_19  and  C_24 
REMARK    8  A    between atoms: C_22  and  C_23 
REMARK    9  A    between atoms: C_27  and  C_30 
REMARK   10  A    between atoms: N_33  and  S_34 
ROOT
HETATM    1  C   UNL     1       5.455  10.606  89.395  1.00  0.00     0.056 A 
HETATM    2  C   UNL     1       5.083   9.301  89.149  1.00  0.00     0.005 A 
HETATM    3  C   UNL     1       6.684  10.934  89.928  1.00  0.00     0.005 A 
HETATM    4  C   UNL     1       7.230   8.582  89.990  1.00  0.00     0.042 A 
HETATM    5  C   UNL     1       5.980   8.277  89.450  1.00  0.00     0.008 A 
HETATM    6  C   UNL     1       7.582   9.910  90.229  1.00  0.00     0.008 A 
ENDROOT
BRANCH   1   7
HETATM    7  C   UNL     1       4.499  11.698  89.073  1.00  0.00     0.254 C 
HETATM    8  O   UNL     1       4.172  11.882  87.903  1.00  0.00    -0.268 OA
HETATM    9  N   UNL     1       4.021  12.426  90.153  1.00  0.00    -0.337 N 
HETATM   10  HN  UNL     1       4.317  12.201  91.095  1.00  0.00     0.164 HD
BRANCH   9  11
HETATM   11  C   UNL     1       3.071  13.499  90.005  1.00  0.00     0.172 C 
BRANCH  11  12
HETATM   12  C   UNL     1       1.964  13.463  91.066  1.00  0.00     0.136 C 
HETATM   13  C   UNL     1       2.315  12.562  92.245  1.00  0.00     0.034 C 
BRANCH  12  14
HETATM   14  O   UNL     1       1.721  14.784  91.549  1.00  0.00    -0.383 OA
HETATM   15  H   UNL     1       0.855  15.075  91.218  1.00  0.00     0.210 HD
ENDBRANCH  12  14
ENDBRANCH  11  12
BRANCH  11  16
HETATM   16  C   UNL     1       3.842  14.814  90.053  1.00  0.00     0.398 A 
HETATM   17  O   UNL     1       4.867  15.014  89.403  1.00  0.00    -0.136 OA
HETATM   18  N   UNL     1       5.034  15.526  90.825  1.00  0.00     0.142 N 
HETATM   19  HN  UNL     1       5.910  15.792  90.472  1.00  0.00     0.338 HD
BRANCH  18  20
HETATM   20  S   UNL     1       4.546  15.396  92.120  1.00  0.00     0.076 SA
HETATM   21  H   UNL     1       3.429  15.005  92.230  1.00  0.00     0.136 HD
ENDBRANCH  18  20
ENDBRANCH  11  16
ENDBRANCH   9  11
ENDBRANCH   1   7
BRANCH   4  22
HETATM   22  C   UNL     1       8.149   7.532  90.301  1.00  0.00    -0.059 C 
HETATM   23  C   UNL     1       8.922   6.649  90.564  1.00  0.00    -0.059 C 
BRANCH  23  24
HETATM   24  C   UNL     1       9.841   5.598  90.876  1.00  0.00     0.042 A 
HETATM   25  C   UNL     1      10.651   5.062  89.876  1.00  0.00     0.008 A 
HETATM   26  C   UNL     1      11.546   4.036  90.180  1.00  0.00    -0.002 A 
HETATM   27  C   UNL     1      11.630   3.547  91.484  1.00  0.00     0.011 A 
HETATM   28  C   UNL     1      10.819   4.085  92.483  1.00  0.00    -0.002 A 
HETATM   29  C   UNL     1       9.924   5.111  92.179  1.00  0.00     0.008 A 
BRANCH  27  30
HETATM   30  C   UNL     1      12.588   2.452  91.808  1.00  0.00     0.277 C 
BRANCH  30  31
HETATM   31  N   UNL     1      13.585   2.858  92.798  1.00  0.00     0.147 N 
HETATM   32  C   UNL     1      14.502   1.749  93.098  1.00  0.00     0.283 C 
HETATM   33  C   UNL     1      15.538   2.200  94.124  1.00  0.00     0.178 C 
HETATM   34  O   UNL     1      16.264   3.329  93.635  1.00  0.00    -0.350 OA
HETATM   35  C   UNL     1      15.383   4.422  93.370  1.00  0.00     0.178 C 
HETATM   36  C   UNL     1      14.343   4.025  92.327  1.00  0.00     0.283 C 
ENDBRANCH  30  31
ENDBRANCH  27  30
ENDBRANCH  23  24
ENDBRANCH   4  22
TORSDOF 10
ENDMDL
MODEL 2
REMARK VINA RESULT:      -6.9      0.708      1.153
REMARK  10 active torsions:
REMARK  status: ('A' for Active; 'I' for Inactive)
REMARK    1  A    between atoms: O_2  and  C_16 
REMARK    2  A    between atoms: N_5  and  C_9 
REMARK    3  A    between atoms: N_6  and  C_13 
REMARK       I    between atoms: N_6  and  C_22 
REMARK    4  A    between atoms: C_9  and  C_12 
REMARK    5  A    between atoms: C_13  and  C_16 
REMARK    6  A    between atoms: C_13  and  C_21 
REMARK    7  A    between atoms: C_19  and  C_24 
REMARK    8  A    between atoms: C_22  and  C_23 
REMARK    9  A    between atoms: C_27  and  C_30 
REMARK   10  A    between atoms: N_33  and  S_34 
ROOT
HETATM    1  C   UNL     1       5.428  10.186  89.677  1.00  0.00     0.056 A 
HETATM    2  C   UNL     1       5.112   8.862  89.459  1.00  0.00     0.005 A 
HETATM    3  C   UNL     1       6.658  10.579  90.161  1.00  0.00     0.005 A 
HETATM    4  C   UNL     1       7.320   8.257  90.229  1.00  0.00     0.042 A 
HETATM    5  C   UNL     1       6.068   7.885  89.738  1.00  0.00     0.008 A 
HETATM    6  C   UNL     1       7.615   9.604  90.441  1.00  0.00     0.008 A 
ENDROOT
BRANCH   1   7
HETATM    7  C   UNL     1       4.410  11.226  89.378  1.00  0.00     0.254 C 
HETATM    8  O   UNL     1       3.896  11.258  88.262  1.00  0.00    -0.268 OA
HETATM    9  N   UNL     1       4.095  12.087  90.420  1.00  0.00    -0.337 N 
HETATM   10  HN  UNL     1       4.543  11.984  91.323  1.00  0.00     0.164 HD
BRANCH   9  11
HETATM   11  C   UNL     1       3.111  13.131  90.293  1.00  0.00     0.172 C 
BRANCH  11  12
HETATM   12  C   UNL     1       2.278  13.320  91.567  1.00  0.00     0.136 C 
HETATM   13  C   UNL     1       1.215  14.403  91.415  1.00  0.00     0.034 C 
BRANCH  12  14
HETATM   14  O   UNL     1       1.639  12.089  91.907  1.00  0.00    -0.383 OA
HETATM   15  H   UNL     1       0.863  11.980  91.332  1.00  0.00     0.210 HD
ENDBRANCH  12  14
ENDBRANCH  11  12
BRANCH  11  16
HETATM   16  C   UNL     1       3.840  14.415  89.912  1.00  0.00     0.398 A 
HETATM   17  O   UNL     1       4.821  14.434  89.171  1.00  0.00    -0.136 OA
HETATM   18  N   UNL     1       5.048  15.339  90.371  1.00  0.00     0.142 N 
HETATM   19  HN  UNL     1       5.895  15.505  89.904  1.00  0.00     0.338 HD
BRANCH  18  20
HETATM   20  S   UNL     1       4.636  15.582  91.676  1.00  0.00     0.076 SA
HETATM   21  H   UNL     1       4.416  14.629  92.350  1.00  0.00     0.136 HD
ENDBRANCH  18  20
ENDBRANCH  11  16
ENDBRANCH   9  11
ENDBRANCH   1   7
BRANCH   4  22
HETATM   22  C   UNL     1       8.299   7.256  90.518  1.00  0.00    -0.059 C 
HETATM   23  C   UNL     1       9.123   6.415  90.762  1.00  0.00    -0.059 C 
BRANCH  23  24
HETATM   24  C   UNL     1      10.103   5.414  91.052  1.00  0.00     0.042 A 
HETATM   25  C   UNL     1      10.414   5.108  92.376  1.00  0.00     0.008 A 
HETATM   26  C   UNL     1      11.371   4.133  92.659  1.00  0.00    -0.002 A 
HETATM   27  C   UNL     1      12.014   3.463  91.618  1.00  0.00     0.011 A 
HETATM   28  C   UNL     1      11.701   3.771  90.294  1.00  0.00    -0.002 A 
HETATM   29  C   UNL     1      10.745   4.746  90.011  1.00  0.00     0.008 A 
BRANCH  27  30
HETATM   30  C   UNL     1      13.035   2.420  91.921  1.00  0.00     0.277 C 
BRANCH  30  31
HETATM   31  N   UNL     1      14.041   2.886  92.874  1.00  0.00     0.147 N 
HETATM   32  C   UNL     1      15.035   1.836  93.137  1.00  0.00     0.283 C 
HETATM   33  C   UNL     1      16.080   2.348  94.124  1.00  0.00     0.178 C 
HETATM   34  O   UNL     1      16.717   3.520  93.610  1.00  0.00    -0.350 OA
HETATM   35  C   UNL     1      15.762   4.557  93.381  1.00  0.00     0.178 C 
HETATM   36  C   UNL     1      14.709   4.098  92.378  1.00  0.00     0.283 C 
ENDBRANCH  30  31
ENDBRANCH  27  30
ENDBRANCH  23  24
ENDBRANCH   4  22
TORSDOF 10
ENDMDL
MODEL 3
REMARK VINA RESULT:      -6.7      1.550      2.202
REMARK  10 active torsions:
REMARK  status: ('A' for Active; 'I' for Inactive)
REMARK    1  A    between atoms: O_2  and  C_16 
REMARK    2  A    between atoms: N_5  and  C_9 
REMARK    3  A    between atoms: N_6  and  C_13 
REMARK       I    between atoms: N_6  and  C_22 
REMARK    4  A    between atoms: C_9  and  C_12 
REMARK    5  A    between atoms: C_13  and  C_16 
REMARK    6  A    between atoms: C_13  and  C_21 
REMARK    7  A    between atoms: C_19  and  C_24 
REMARK    8  A    between atoms: C_22  and  C_23 
REMARK    9  A    between atoms: C_27  and  C_30 
REMARK   10  A    between atoms: N_33  and  S_34 
ROOT
HETATM    1  C   UNL     1       5.305  10.495  91.030  1.00  0.00     0.056 A 
HETATM    2  C   UNL     1       6.621  10.845  91.243  1.00  0.00     0.005 A 
HETATM    3  C   UNL     1       4.896   9.180  90.948  1.00  0.00     0.005 A 
HETATM    4  C   UNL     1       7.186   8.497  91.301  1.00  0.00     0.042 A 
HETATM    5  C   UNL     1       7.574   9.835  91.380  1.00  0.00     0.008 A 
HETATM    6  C   UNL     1       5.847   8.169  91.085  1.00  0.00     0.008 A 
ENDROOT
BRANCH   1   7
HETATM    7  C   UNL     1       4.290  11.571  90.885  1.00  0.00     0.254 C 
HETATM    8  O   UNL     1       3.247  11.335  90.281  1.00  0.00    -0.268 OA
HETATM    9  N   UNL     1       4.602  12.784  91.483  1.00  0.00    -0.337 N 
HETATM   10  HN  UNL     1       5.473  12.898  91.988  1.00  0.00     0.164 HD
BRANCH   9  11
HETATM   11  C   UNL     1       3.711  13.916  91.452  1.00  0.00     0.172 C 
BRANCH  11  12
HETATM   12  C   UNL     1       3.662  14.595  90.078  1.00  0.00     0.136 C 
HETATM   13  C   UNL     1       5.022  14.615  89.388  1.00  0.00     0.034 C 
BRANCH  12  14
HETATM   14  O   UNL     1       2.728  13.914  89.241  1.00  0.00    -0.383 OA
HETATM   15  H   UNL     1       3.222  13.463  88.536  1.00  0.00     0.210 HD
ENDBRANCH  12  14
ENDBRANCH  11  12
BRANCH  11  16
HETATM   16  C   UNL     1       2.329  13.433  91.881  1.00  0.00     0.398 A 
HETATM   17  O   UNL     1       1.309  14.102  91.729  1.00  0.00    -0.136 OA
HETATM   18  N   UNL     1       1.328  13.475  93.113  1.00  0.00     0.142 N 
HETATM   19  HN  UNL     1       0.458  13.926  93.172  1.00  0.00     0.338 HD
BRANCH  18  20
HETATM   20  S   UNL     1       2.168  12.932  94.079  1.00  0.00     0.076 SA
HETATM   21  H   UNL     1       1.702  12.775  95.161  1.00  0.00     0.136 HD
ENDBRANCH  18  20
ENDBRANCH  11  16
ENDBRANCH   9  11
ENDBRANCH   1   7
BRANCH   4  22
HETATM   22  C   UNL     1       8.162   7.461  91.439  1.00  0.00    -0.059 C 
HETATM   23  C   UNL     1       8.983   6.590  91.554  1.00  0.00    -0.059 C 
BRANCH  23  24
HETATM   24  C   UNL     1       9.960   5.555  91.691  1.00  0.00     0.042 A 
HETATM   25  C   UNL     1      10.531   4.981  90.556  1.00  0.00     0.008 A 
HETATM   26  C   UNL     1      11.482   3.970  90.689  1.00  0.00    -0.002 A 
HETATM   27  C   UNL     1      11.864   3.535  91.959  1.00  0.00     0.011 A 
HETATM   28  C   UNL     1      11.292   4.110  93.094  1.00  0.00    -0.002 A 
HETATM   29  C   UNL     1      10.341   5.121  92.960  1.00  0.00     0.008 A 
BRANCH  27  30
HETATM   30  C   UNL     1      12.883   2.455  92.100  1.00  0.00     0.277 C 
BRANCH  30  31
HETATM   31  N   UNL     1      13.952   2.818  93.029  1.00  0.00     0.147 N 
HETATM   32  C   UNL     1      14.922   1.721  93.158  1.00  0.00     0.283 C 
HETATM   33  C   UNL     1      16.034   2.126  94.123  1.00  0.00     0.178 C 
HETATM   34  O   UNL     1      16.682   3.314  93.663  1.00  0.00    -0.350 OA
HETATM   35  C   UNL     1      15.752   4.393  93.564  1.00  0.00     0.178 C 
HETATM   36  C   UNL     1      14.634   4.043  92.588  1.00  0.00     0.283 C 
ENDBRANCH  30  31
ENDBRANCH  27  30
ENDBRANCH  23  24
ENDBRANCH   4  22
TORSDOF 10
ENDMDL
MODEL 4
REMARK VINA RESULT:      -6.6      1.621      2.034
REMARK  10 active torsions:
REMARK  status: ('A' for Active; 'I' for Inactive)
REMARK    1  A    between atoms: O_2  and  C_16 
REMARK    2  A    between atoms: N_5  and  C_9 
REMARK    3  A    between atoms: N_6  and  C_13 
REMARK       I    between atoms: N_6  and  C_22 
REMARK    4  A    between atoms: C_9  and  C_12 
REMARK    5  A    between atoms: C_13  and  C_16 
REMARK    6  A    between atoms: C_13  and  C_21 
REMARK    7  A    between atoms: C_19  and  C_24 
REMARK    8  A    between atoms: C_22  and  C_23 
REMARK    9  A    between atoms: C_27  and  C_30 
REMARK   10  A    between atoms: N_33  and  S_34 
ROOT
HETATM    1  C   UNL     1       4.885   9.978  91.291  1.00  0.00     0.056 A 
HETATM    2  C   UNL     1       6.109  10.398  91.768  1.00  0.00     0.005 A 
HETATM    3  C   UNL     1       4.659   8.679  90.888  1.00  0.00     0.005 A 
HETATM    4  C   UNL     1       6.951   8.158  91.444  1.00  0.00     0.042 A 
HETATM    5  C   UNL     1       7.155   9.478  91.845  1.00  0.00     0.008 A 
HETATM    6  C   UNL     1       5.703   7.758  90.965  1.00  0.00     0.008 A 
ENDROOT
BRANCH   1   7
HETATM    7  C   UNL     1       3.771  10.958  91.211  1.00  0.00     0.254 C 
HETATM    8  O   UNL     1       2.653  10.569  90.883  1.00  0.00    -0.268 OA
HETATM    9  N   UNL     1       4.087  12.267  91.546  1.00  0.00    -0.337 N 
HETATM   10  HN  UNL     1       5.029  12.510  91.833  1.00  0.00     0.164 HD
BRANCH   9  11
HETATM   11  C   UNL     1       3.111  13.327  91.541  1.00  0.00     0.172 C 
BRANCH  11  12
HETATM   12  C   UNL     1       3.246  14.264  92.748  1.00  0.00     0.136 C 
HETATM   13  C   UNL     1       1.894  14.722  93.285  1.00  0.00     0.034 C 
BRANCH  12  14
HETATM   14  O   UNL     1       3.958  13.600  93.791  1.00  0.00    -0.383 OA
HETATM   15  H   UNL     1       4.563  14.240  94.203  1.00  0.00     0.210 HD
ENDBRANCH  12  14
ENDBRANCH  11  12
BRANCH  11  16
HETATM   16  C   UNL     1       3.258  14.089  90.228  1.00  0.00     0.398 A 
HETATM   17  O   UNL     1       3.443  13.532  89.148  1.00  0.00    -0.136 OA
HETATM   18  N   UNL     1       4.361  14.735  89.286  1.00  0.00     0.142 N 
HETATM   19  HN  UNL     1       4.628  14.455  88.384  1.00  0.00     0.338 HD
BRANCH  18  20
HETATM   20  S   UNL     1       4.952  15.585  90.214  1.00  0.00     0.076 SA
HETATM   21  H   UNL     1       5.383  15.078  91.199  1.00  0.00     0.136 HD
ENDBRANCH  18  20
ENDBRANCH  11  16
ENDBRANCH   9  11
ENDBRANCH   1   7
BRANCH   4  22
HETATM   22  C   UNL     1       8.023   7.215  91.520  1.00  0.00    -0.059 C 
HETATM   23  C   UNL     1       8.926   6.423  91.585  1.00  0.00    -0.059 C 
BRANCH  23  24
HETATM   24  C   UNL     1       9.999   5.480  91.662  1.00  0.00     0.042 A 
HETATM   25  C   UNL     1      10.494   5.089  92.906  1.00  0.00     0.008 A 
HETATM   26  C   UNL     1      11.541   4.172  92.981  1.00  0.00    -0.002 A 
HETATM   27  C   UNL     1      12.092   3.644  91.813  1.00  0.00     0.011 A 
HETATM   28  C   UNL     1      11.595   4.036  90.570  1.00  0.00    -0.002 A 
HETATM   29  C   UNL     1      10.548   4.954  90.495  1.00  0.00     0.008 A 
BRANCH  27  30
HETATM   30  C   UNL     1      13.210   2.661  91.895  1.00  0.00     0.277 C 
BRANCH  30  31
HETATM   31  N   UNL     1      14.201   3.028  92.905  1.00  0.00     0.147 N 
HETATM   32  C   UNL     1      15.193   1.957  93.074  1.00  0.00     0.283 C 
HETATM   33  C   UNL     1      16.222   2.367  94.124  1.00  0.00     0.178 C 
HETATM   34  O   UNL     1      16.863   3.586  93.743  1.00  0.00    -0.350 OA
HETATM   35  C   UNL     1      15.909   4.639  93.607  1.00  0.00     0.178 C 
HETATM   36  C   UNL     1      14.872   4.285  92.546  1.00  0.00     0.283 C 
ENDBRANCH  30  31
ENDBRANCH  27  30
ENDBRANCH  23  24
ENDBRANCH   4  22
TORSDOF 10
ENDMDL
MODEL 5
REMARK VINA RESULT:      -6.0      1.364      1.984
REMARK  10 active torsions:
REMARK  status: ('A' for Active; 'I' for Inactive)
REMARK    1  A    between atoms: O_2  and  C_16 
REMARK    2  A    between atoms: N_5  and  C_9 
REMARK    3  A    between atoms: N_6  and  C_13 
REMARK       I    between atoms: N_6  and  C_22 
REMARK    4  A    between atoms: C_9  and  C_12 
REMARK    5  A    between atoms: C_13  and  C_16 
REMARK    6  A    between atoms: C_13  and  C_21 
REMARK    7  A    between atoms: C_19  and  C_24 
REMARK    8  A    between atoms: C_22  and  C_23 
REMARK    9  A    between atoms: C_27  and  C_30 
REMARK   10  A    between atoms: N_33  and  S_34 
ROOT
HETATM    1  C   UNL     1       5.591   9.262  89.832  1.00  0.00     0.056 A 
HETATM    2  C   UNL     1       6.800   9.761  90.269  1.00  0.00     0.005 A 
HETATM    3  C   UNL     1       5.344   7.909  89.737  1.00  0.00     0.005 A 
HETATM    4  C   UNL     1       7.585   7.493  90.538  1.00  0.00     0.042 A 
HETATM    5  C   UNL     1       7.809   8.867  90.626  1.00  0.00     0.008 A 
HETATM    6  C   UNL     1       6.352   7.013  90.094  1.00  0.00     0.008 A 
ENDROOT
BRANCH   1   7
HETATM    7  C   UNL     1       4.516  10.216  89.454  1.00  0.00     0.254 C 
HETATM    8  O   UNL     1       3.703   9.892  88.591  1.00  0.00    -0.268 OA
HETATM    9  N   UNL     1       4.501  11.421  90.143  1.00  0.00    -0.337 N 
HETATM   10  HN  UNL     1       5.191  11.609  90.861  1.00  0.00     0.164 HD
BRANCH   9  11
HETATM   11  C   UNL     1       3.508  12.437  89.907  1.00  0.00     0.172 C 
BRANCH  11  12
HETATM   12  C   UNL     1       3.154  13.226  91.174  1.00  0.00     0.136 C 
HETATM   13  C   UNL     1       1.885  12.713  91.846  1.00  0.00     0.034 C 
BRANCH  12  14
HETATM   14  O   UNL     1       4.235  13.148  92.103  1.00  0.00    -0.383 OA
HETATM   15  H   UNL     1       5.068  13.174  91.603  1.00  0.00     0.210 HD
ENDBRANCH  12  14
ENDBRANCH  11  12
BRANCH  11  16
HETATM   16  C   UNL     1       4.033  13.357  88.810  1.00  0.00     0.398 A 
HETATM   17  O   UNL     1       4.755  12.963  87.895  1.00  0.00    -0.136 OA
HETATM   18  N   UNL     1       5.278  14.277  88.453  1.00  0.00     0.142 N 
HETATM   19  HN  UNL     1       5.943  14.147  87.744  1.00  0.00     0.338 HD
BRANCH  18  20
HETATM   20  S   UNL     1       5.251  15.101  89.572  1.00  0.00     0.076 SA
HETATM   21  H   UNL     1       5.792  14.690  90.547  1.00  0.00     0.136 HD
ENDBRANCH  18  20
ENDBRANCH  11  16
ENDBRANCH   9  11
ENDBRANCH   1   7
BRANCH   4  22
HETATM   22  C   UNL     1       8.620   6.576  90.901  1.00  0.00    -0.059 C 
HETATM   23  C   UNL     1       9.490   5.804  91.206  1.00  0.00    -0.059 C 
BRANCH  23  24
HETATM   24  C   UNL     1      10.527   4.887  91.569  1.00  0.00     0.042 A 
HETATM   25  C   UNL     1      10.968   4.824  92.890  1.00  0.00     0.008 A 
HETATM   26  C   UNL     1      11.980   3.931  93.244  1.00  0.00    -0.002 A 
HETATM   27  C   UNL     1      12.548   3.102  92.276  1.00  0.00     0.011 A 
HETATM   28  C   UNL     1      12.105   3.166  90.955  1.00  0.00    -0.002 A 
HETATM   29  C   UNL     1      11.093   4.060  90.602  1.00  0.00     0.008 A 
BRANCH  27  30
HETATM   30  C   UNL     1      13.628   2.146  92.656  1.00  0.00     0.277 C 
BRANCH  30  31
HETATM   31  N   UNL     1      14.655   2.769  93.490  1.00  0.00     0.147 N 
HETATM   32  C   UNL     1      15.969   2.164  93.235  1.00  0.00     0.283 C 
HETATM   33  C   UNL     1      17.026   2.837  94.108  1.00  0.00     0.178 C 
HETATM   34  O   UNL     1      17.064   4.241  93.848  1.00  0.00    -0.350 OA
HETATM   35  C   UNL     1      15.799   4.842  94.122  1.00  0.00     0.178 C 
HETATM   36  C   UNL     1      14.713   4.218  93.252  1.00  0.00     0.283 C 
ENDBRANCH  30  31
ENDBRANCH  27  30
ENDBRANCH  23  24
ENDBRANCH   4  22
TORSDOF 10
ENDMDL
MODEL 6
REMARK VINA RESULT:      -5.8      2.562      3.583
REMARK  10 active torsions:
REMARK  status: ('A' for Active; 'I' for Inactive)
REMARK    1  A    between atoms: O_2  and  C_16 
REMARK    2  A    between atoms: N_5  and  C_9 
REMARK    3  A    between atoms: N_6  and  C_13 
REMARK       I    between atoms: N_6  and  C_22 
REMARK    4  A    between atoms: C_9  and  C_12 
REMARK    5  A    between atoms: C_13  and  C_16 
REMARK    6  A    between atoms: C_13  and  C_21 
REMARK    7  A    between atoms: C_19  and  C_24 
REMARK    8  A    between atoms: C_22  and  C_23 
REMARK    9  A    between atoms: C_27  and  C_30 
REMARK   10  A    between atoms: N_33  and  S_34 
ROOT
HETATM    1  C   UNL     1       5.902   7.241  88.343  1.00  0.00     0.056 A 
HETATM    2  C   UNL     1       5.570   6.190  89.172  1.00  0.00     0.005 A 
HETATM    3  C   UNL     1       7.204   7.668  88.181  1.00  0.00     0.005 A 
HETATM    4  C   UNL     1       7.909   5.949  89.725  1.00  0.00     0.042 A 
HETATM    5  C   UNL     1       6.584   5.536  89.872  1.00  0.00     0.008 A 
HETATM    6  C   UNL     1       8.219   7.015  88.880  1.00  0.00     0.008 A 
ENDROOT
BRANCH   1   7
HETATM    7  C   UNL     1       4.822   7.935  87.596  1.00  0.00     0.254 C 
HETATM    8  O   UNL     1       4.618   7.638  86.422  1.00  0.00    -0.268 OA
HETATM    9  N   UNL     1       4.094   8.874  88.313  1.00  0.00    -0.337 N 
HETATM   10  HN  UNL     1       4.303   9.050  89.289  1.00  0.00     0.164 HD
BRANCH   9  11
HETATM   11  C   UNL     1       2.999   9.613  87.736  1.00  0.00     0.172 C 
BRANCH  11  12
HETATM   12  C   UNL     1       1.629   9.029  88.104  1.00  0.00     0.136 C 
HETATM   13  C   UNL     1       1.221   7.878  87.192  1.00  0.00     0.034 C 
BRANCH  12  14
HETATM   14  O   UNL     1       1.656   8.564  89.453  1.00  0.00    -0.383 OA
HETATM   15  H   UNL     1       1.469   7.610  89.451  1.00  0.00     0.210 HD
ENDBRANCH  12  14
ENDBRANCH  11  12
BRANCH  11  16
HETATM   16  C   UNL     1       3.125  11.063  88.191  1.00  0.00     0.398 A 
HETATM   17  O   UNL     1       3.955  11.842  87.726  1.00  0.00    -0.136 OA
HETATM   18  N   UNL     1       3.898  11.972  89.240  1.00  0.00     0.142 N 
HETATM   19  HN  UNL     1       4.569  12.666  89.061  1.00  0.00     0.338 HD
BRANCH  18  20
HETATM   20  S   UNL     1       3.527  11.305  90.402  1.00  0.00     0.076 SA
HETATM   21  H   UNL     1       2.469  10.764  90.389  1.00  0.00     0.136 HD
ENDBRANCH  18  20
ENDBRANCH  11  16
ENDBRANCH   9  11
ENDBRANCH   1   7
BRANCH   4  22
HETATM   22  C   UNL     1       8.948   5.281  90.445  1.00  0.00    -0.059 C 
HETATM   23  C   UNL     1       9.823   4.720  91.049  1.00  0.00    -0.059 C 
BRANCH  23  24
HETATM   24  C   UNL     1      10.864   4.052  91.769  1.00  0.00     0.042 A 
HETATM   25  C   UNL     1      11.081   4.349  93.114  1.00  0.00     0.008 A 
HETATM   26  C   UNL     1      12.096   3.700  93.816  1.00  0.00    -0.002 A 
HETATM   27  C   UNL     1      12.893   2.752  93.172  1.00  0.00     0.011 A 
HETATM   28  C   UNL     1      12.674   2.456  91.826  1.00  0.00    -0.002 A 
HETATM   29  C   UNL     1      11.659   3.106  91.125  1.00  0.00     0.008 A 
BRANCH  27  30
HETATM   30  C   UNL     1      13.977   2.058  93.923  1.00  0.00     0.277 C 
BRANCH  30  31
HETATM   31  N   UNL     1      15.151   2.906  94.119  1.00  0.00     0.147 N 
HETATM   32  C   UNL     1      16.279   2.431  93.306  1.00  0.00     0.283 C 
HETATM   33  C   UNL     1      17.488   3.338  93.519  1.00  0.00     0.178 C 
HETATM   34  O   UNL     1      17.163   4.687  93.180  1.00  0.00    -0.350 OA
HETATM   35  C   UNL     1      16.088   5.167  93.988  1.00  0.00     0.178 C 
HETATM   36  C   UNL     1      14.846   4.305  93.788  1.00  0.00     0.283 C 
ENDBRANCH  30  31
ENDBRANCH  27  30
ENDBRANCH  23  24
ENDBRANCH   4  22
TORSDOF 10
ENDMDL
MODEL 7
REMARK VINA RESULT:      -5.5      3.624     12.335
REMARK  10 active torsions:
REMARK  status: ('A' for Active; 'I' for Inactive)
REMARK    1  A    between atoms: O_2  and  C_16 
REMARK    2  A    between atoms: N_5  and  C_9 
REMARK    3  A    between atoms: N_6  and  C_13 
REMARK       I    between atoms: N_6  and  C_22 
REMARK    4  A    between atoms: C_9  and  C_12 
REMARK    5  A    between atoms: C_13  and  C_16 
REMARK    6  A    between atoms: C_13  and  C_21 
REMARK    7  A    between atoms: C_19  and  C_24 
REMARK    8  A    between atoms: C_22  and  C_23 
REMARK    9  A    between atoms: C_27  and  C_30 
REMARK   10  A    between atoms: N_33  and  S_34 
ROOT
HETATM    1  C   UNL     1      10.059   5.764  89.826  1.00  0.00     0.056 A 
HETATM    2  C   UNL     1       9.577   6.255  88.631  1.00  0.00     0.005 A 
HETATM    3  C   UNL     1       9.650   6.263  91.045  1.00  0.00     0.005 A 
HETATM    4  C   UNL     1       8.215   7.814  89.875  1.00  0.00     0.042 A 
HETATM    5  C   UNL     1       8.645   7.292  88.655  1.00  0.00     0.008 A 
HETATM    6  C   UNL     1       8.717   7.300  91.070  1.00  0.00     0.008 A 
ENDROOT
BRANCH   1   7
HETATM    7  C   UNL     1      11.051   4.658  89.801  1.00  0.00     0.254 C 
HETATM    8  O   UNL     1      11.209   4.018  88.764  1.00  0.00    -0.268 OA
HETATM    9  N   UNL     1      11.757   4.446  90.977  1.00  0.00    -0.337 N 
HETATM   10  HN  UNL     1      11.590   5.032  91.787  1.00  0.00     0.164 HD
BRANCH   9  11
HETATM   11  C   UNL     1      12.769   3.429  91.102  1.00  0.00     0.172 C 
BRANCH  11  12
HETATM   12  C   UNL     1      14.190   4.005  91.136  1.00  0.00     0.136 C 
HETATM   13  C   UNL     1      15.228   3.032  90.589  1.00  0.00     0.034 C 
BRANCH  12  14
HETATM   14  O   UNL     1      14.235   5.209  90.371  1.00  0.00    -0.383 OA
HETATM   15  H   UNL     1      14.130   4.978  89.432  1.00  0.00     0.210 HD
ENDBRANCH  12  14
ENDBRANCH  11  12
BRANCH  11  16
HETATM   16  C   UNL     1      12.467   2.624  92.362  1.00  0.00     0.398 A 
HETATM   17  O   UNL     1      11.402   2.708  92.971  1.00  0.00    -0.136 OA
HETATM   18  N   UNL     1      12.570   2.711  93.945  1.00  0.00     0.142 N 
HETATM   19  HN  UNL     1      11.839   2.754  94.598  1.00  0.00     0.338 HD
BRANCH  18  20
HETATM   20  S   UNL     1      13.933   2.963  94.048  1.00  0.00     0.076 SA
HETATM   21  H   UNL     1      14.646   2.014  94.107  1.00  0.00     0.136 HD
ENDBRANCH  18  20
ENDBRANCH  11  16
ENDBRANCH   9  11
ENDBRANCH   1   7
BRANCH   4  22
HETATM   22  C   UNL     1       7.261   8.879  89.900  1.00  0.00    -0.059 C 
HETATM   23  C   UNL     1       6.460   9.775  89.920  1.00  0.00    -0.059 C 
BRANCH  23  24
HETATM   24  C   UNL     1       5.505  10.840  89.944  1.00  0.00     0.042 A 
HETATM   25  C   UNL     1       5.805  12.057  89.332  1.00  0.00     0.008 A 
HETATM   26  C   UNL     1       4.876  13.097  89.356  1.00  0.00    -0.002 A 
HETATM   27  C   UNL     1       3.647  12.918  89.992  1.00  0.00     0.011 A 
HETATM   28  C   UNL     1       3.348  11.701  90.603  1.00  0.00    -0.002 A 
HETATM   29  C   UNL     1       4.278  10.661  90.579  1.00  0.00     0.008 A 
BRANCH  27  30
HETATM   30  C   UNL     1       2.653  14.030  90.015  1.00  0.00     0.277 C 
BRANCH  30  31
HETATM   31  N   UNL     1       2.624  14.723  91.302  1.00  0.00     0.147 N 
HETATM   32  C   UNL     1       1.681  14.072  92.223  1.00  0.00     0.283 C 
HETATM   33  C   UNL     1       1.676  14.806  93.561  1.00  0.00     0.178 C 
HETATM   34  O   UNL     1       2.990  14.825  94.123  1.00  0.00    -0.350 OA
HETATM   35  C   UNL     1       3.906  15.484  93.248  1.00  0.00     0.178 C 
HETATM   36  C   UNL     1       3.964  14.768  91.902  1.00  0.00     0.283 C 
ENDBRANCH  30  31
ENDBRANCH  27  30
ENDBRANCH  23  24
ENDBRANCH   4  22
TORSDOF 10
ENDMDL
MODEL 8
REMARK VINA RESULT:      -5.4      3.696     12.598
REMARK  10 active torsions:
REMARK  status: ('A' for Active; 'I' for Inactive)
REMARK    1  A    between atoms: O_2  and  C_16 
REMARK    2  A    between atoms: N_5  and  C_9 
REMARK    3  A    between atoms: N_6  and  C_13 
REMARK       I    between atoms: N_6  and  C_22 
REMARK    4  A    between atoms: C_9  and  C_12 
REMARK    5  A    between atoms: C_13  and  C_16 
REMARK    6  A    between atoms: C_13  and  C_21 
REMARK    7  A    between atoms: C_19  and  C_24 
REMARK    8  A    between atoms: C_22  and  C_23 
REMARK    9  A    between atoms: C_27  and  C_30 
REMARK   10  A    between atoms: N_33  and  S_34 
ROOT
HETATM    1  C   UNL     1      10.302   5.047  92.215  1.00  0.00     0.056 A 
HETATM    2  C   UNL     1      10.090   6.040  93.148  1.00  0.00     0.005 A 
HETATM    3  C   UNL     1       9.651   5.029  90.999  1.00  0.00     0.005 A 
HETATM    4  C   UNL     1       8.515   7.064  91.630  1.00  0.00     0.042 A 
HETATM    5  C   UNL     1       9.186   7.061  92.853  1.00  0.00     0.008 A 
HETATM    6  C   UNL     1       8.747   6.049  90.703  1.00  0.00     0.008 A 
ENDROOT
BRANCH   1   7
HETATM    7  C   UNL     1      11.266   3.961  92.529  1.00  0.00     0.254 C 
HETATM    8  O   UNL     1      10.852   2.813  92.667  1.00  0.00    -0.268 OA
HETATM    9  N   UNL     1      12.599   4.339  92.619  1.00  0.00    -0.337 N 
HETATM   10  HN  UNL     1      12.870   5.304  92.468  1.00  0.00     0.164 HD
BRANCH   9  11
HETATM   11  C   UNL     1      13.655   3.398  92.893  1.00  0.00     0.172 C 
BRANCH  11  12
HETATM   12  C   UNL     1      14.181   2.711  91.626  1.00  0.00     0.136 C 
HETATM   13  C   UNL     1      14.189   3.642  90.418  1.00  0.00     0.034 C 
BRANCH  12  14
HETATM   14  O   UNL     1      15.508   2.239  91.856  1.00  0.00    -0.383 OA
HETATM   15  H   UNL     1      15.522   1.772  92.708  1.00  0.00     0.210 HD
ENDBRANCH  12  14
ENDBRANCH  11  12
BRANCH  11  16
HETATM   16  C   UNL     1      14.767   4.145  93.621  1.00  0.00     0.398 A 
HETATM   17  O   UNL     1      15.324   5.138  93.156  1.00  0.00    -0.136 OA
HETATM   18  N   UNL     1      16.350   4.191  93.756  1.00  0.00     0.142 N 
HETATM   19  HN  UNL     1      16.961   4.905  93.475  1.00  0.00     0.338 HD
BRANCH  18  20
HETATM   20  S   UNL     1      16.562   2.867  94.123  1.00  0.00     0.076 SA
HETATM   21  H   UNL     1      15.630   2.135  94.035  1.00  0.00     0.136 HD
ENDBRANCH  18  20
ENDBRANCH  11  16
ENDBRANCH   9  11
ENDBRANCH   1   7
BRANCH   4  22
HETATM   22  C   UNL     1       7.586   8.109  91.329  1.00  0.00    -0.059 C 
HETATM   23  C   UNL     1       6.805   8.987  91.075  1.00  0.00    -0.059 C 
BRANCH  23  24
HETATM   24  C   UNL     1       5.875  10.031  90.773  1.00  0.00     0.042 A 
HETATM   25  C   UNL     1       4.591   9.998  91.316  1.00  0.00     0.008 A 
HETATM   26  C   UNL     1       3.683  11.015  91.020  1.00  0.00    -0.002 A 
HETATM   27  C   UNL     1       4.061  12.066  90.183  1.00  0.00     0.011 A 
HETATM   28  C   UNL     1       5.346  12.097  89.641  1.00  0.00    -0.002 A 
HETATM   29  C   UNL     1       6.253  11.080  89.937  1.00  0.00     0.008 A 
BRANCH  27  30
HETATM   30  C   UNL     1       3.091  13.154  89.869  1.00  0.00     0.277 C 
BRANCH  30  31
HETATM   31  N   UNL     1       3.028  14.165  90.923  1.00  0.00     0.147 N 
HETATM   32  C   UNL     1       2.036  13.793  91.942  1.00  0.00     0.283 C 
HETATM   33  C   UNL     1       1.996  14.856  93.037  1.00  0.00     0.178 C 
HETATM   34  O   UNL     1       3.287  15.009  93.629  1.00  0.00    -0.350 OA
HETATM   35  C   UNL     1       4.251  15.401  92.651  1.00  0.00     0.178 C 
HETATM   36  C   UNL     1       4.345  14.352  91.547  1.00  0.00     0.283 C 
ENDBRANCH  30  31
ENDBRANCH  27  30
ENDBRANCH  23  24
ENDBRANCH   4  22
TORSDOF 10
ENDMDL
MODEL 9
REMARK VINA RESULT:      -4.8      2.358      3.137
REMARK  10 active torsions:
REMARK  status: ('A' for Active; 'I' for Inactive)
REMARK    1  A    between atoms: O_2  and  C_16 
REMARK    2  A    between atoms: N_5  and  C_9 
REMARK    3  A    between atoms: N_6  and  C_13 
REMARK       I    between atoms: N_6  and  C_22 
REMARK    4  A    between atoms: C_9  and  C_12 
REMARK    5  A    between atoms: C_13  and  C_16 
REMARK    6  A    between atoms: C_13  and  C_21 
REMARK    7  A    between atoms: C_19  and  C_24 
REMARK    8  A    between atoms: C_22  and  C_23 
REMARK    9  A    between atoms: C_27  and  C_30 
REMARK   10  A    between atoms: N_33  and  S_34 
ROOT
HETATM    1  C   UNL     1       4.993   7.833  91.287  1.00  0.00     0.056 A 
HETATM    2  C   UNL     1       5.292   7.540  92.601  1.00  0.00     0.005 A 
HETATM    3  C   UNL     1       5.796   7.426  90.241  1.00  0.00     0.005 A 
HETATM    4  C   UNL     1       7.274   6.386  91.844  1.00  0.00     0.042 A 
HETATM    5  C   UNL     1       6.446   6.809  92.884  1.00  0.00     0.008 A 
HETATM    6  C   UNL     1       6.950   6.695  90.523  1.00  0.00     0.008 A 
ENDROOT
BRANCH   1   7
HETATM    7  C   UNL     1       3.763   8.610  90.986  1.00  0.00     0.254 C 
HETATM    8  O   UNL     1       2.752   8.015  90.622  1.00  0.00    -0.268 OA
HETATM    9  N   UNL     1       3.852   9.983  91.168  1.00  0.00    -0.337 N 
HETATM   10  HN  UNL     1       4.714  10.403  91.495  1.00  0.00     0.164 HD
BRANCH   9  11
HETATM   11  C   UNL     1       2.738  10.869  90.942  1.00  0.00     0.172 C 
BRANCH  11  12
HETATM   12  C   UNL     1       2.257  11.558  92.225  1.00  0.00     0.136 C 
HETATM   13  C   UNL     1       2.611  10.767  93.480  1.00  0.00     0.034 C 
BRANCH  12  14
HETATM   14  O   UNL     1       2.841  12.857  92.317  1.00  0.00    -0.383 OA
HETATM   15  H   UNL     1       3.774  12.792  92.055  1.00  0.00     0.210 HD
ENDBRANCH  12  14
ENDBRANCH  11  12
BRANCH  11  16
HETATM   16  C   UNL     1       3.161  11.889  89.890  1.00  0.00     0.398 A 
HETATM   17  O   UNL     1       2.447  12.829  89.543  1.00  0.00    -0.136 OA
HETATM   18  N   UNL     1       3.078  12.168  88.328  1.00  0.00     0.142 N 
HETATM   19  HN  UNL     1       2.590  12.883  87.866  1.00  0.00     0.338 HD
BRANCH  18  20
HETATM   20  S   UNL     1       3.659  10.988  87.878  1.00  0.00     0.076 SA
HETATM   21  H   UNL     1       2.926  10.184  87.400  1.00  0.00     0.136 HD
ENDBRANCH  18  20
ENDBRANCH  11  16
ENDBRANCH   9  11
ENDBRANCH   1   7
BRANCH   4  22
HETATM   22  C   UNL     1       8.458   5.639  92.134  1.00  0.00    -0.059 C 
HETATM   23  C   UNL     1       9.454   5.011  92.378  1.00  0.00    -0.059 C 
BRANCH  23  24
HETATM   24  C   UNL     1      10.638   4.262  92.667  1.00  0.00     0.042 A 
HETATM   25  C   UNL     1      11.350   4.513  93.840  1.00  0.00     0.008 A 
HETATM   26  C   UNL     1      12.506   3.785  94.121  1.00  0.00    -0.002 A 
HETATM   27  C   UNL     1      12.948   2.805  93.231  1.00  0.00     0.011 A 
HETATM   28  C   UNL     1      12.233   2.555  92.059  1.00  0.00    -0.002 A 
HETATM   29  C   UNL     1      11.078   3.284  91.778  1.00  0.00     0.008 A 
BRANCH  27  30
HETATM   30  C   UNL     1      14.182   2.026  93.534  1.00  0.00     0.277 C 
BRANCH  30  31
HETATM   31  N   UNL     1      15.270   2.873  94.019  1.00  0.00     0.147 N 
HETATM   32  C   UNL     1      16.574   2.327  93.615  1.00  0.00     0.283 C 
HETATM   33  C   UNL     1      17.693   3.233  94.123  1.00  0.00     0.178 C 
HETATM   34  O   UNL     1      17.528   4.559  93.616  1.00  0.00    -0.350 OA
HETATM   35  C   UNL     1      16.276   5.108  94.030  1.00  0.00     0.178 C 
HETATM   36  C   UNL     1      15.124   4.248  93.522  1.00  0.00     0.283 C 
ENDBRANCH  30  31
ENDBRANCH  27  30
ENDBRANCH  23  24
ENDBRANCH   4  22
TORSDOF 10
ENDMDL
