MODEL 1
REMARK VINA RESULT:      -7.5      0.000      0.000
REMARK  9 active torsions:
REMARK  status: ('A' for Active; 'I' for Inactive)
REMARK    1  A    between atoms: N_3  and  C_6 
REMARK    2  A    between atoms: C_6  and  C_9 
REMARK    3  A    between atoms: C_14  and  C_17 
REMARK       I    between atoms: N_26  and  C_15 
REMARK    4  A    between atoms: C_15  and  C_16 
REMARK    5  A    between atoms: C_20  and  C_23 
REMARK    6  A    between atoms: OG1_24  and  CB_28 
REMARK    7  A    between atoms: N_26  and  CA_27 
REMARK    8  A    between atoms: CA_27  and  CB_28 
REMARK    9  A    between atoms: CA_27  and  C_30 
ROOT
HETATM    1  O   UNK A   0       1.936   8.100  87.780  1.00  0.00    -0.388 OA
HETATM    2  N   UNK A   0       4.736   7.602  87.653  1.00  0.00     0.096 N 
HETATM    3  C   UNK A   0       4.202   8.969  87.732  1.00  0.00     0.299 C 
HETATM    4  C   UNK A   0       3.767   6.721  86.987  1.00  0.00     0.299 C 
HETATM    5  C   UNK A   0       2.858   8.958  88.456  1.00  0.00     0.198 C 
HETATM    6  C   UNK A   0       2.434   6.763  87.727  1.00  0.00     0.198 C 
ENDROOT
BRANCH   2   7
HETATM    7  C   UNK A   0       6.019   7.588  86.954  1.00  0.00     0.311 C 
BRANCH   7   8
HETATM    8  C   UNK A   0       7.105   6.974  87.771  1.00  0.00    -0.030 A 
HETATM    9  C   UNK A   0       6.895   6.714  89.126  1.00  0.00     0.010 A 
HETATM   10  C   UNK A   0       7.910   6.142  89.891  1.00  0.00     0.021 A 
HETATM   11  C   UNK A   0       9.134   5.828  89.302  1.00  0.00     0.018 A 
HETATM   12  C   UNK A   0       9.345   6.087  87.949  1.00  0.00     0.021 A 
HETATM   13  C   UNK A   0       8.330   6.660  87.183  1.00  0.00     0.010 A 
BRANCH  11  14
HETATM   14  C   UNK A   0      10.175   5.239  90.087  1.00  0.00    -0.061 C 
HETATM   15  C   UNK A   0      11.049   4.744  90.747  1.00  0.00    -0.061 C 
BRANCH  15  16
HETATM   16  C   UNK A   0      12.089   4.154  91.533  1.00  0.00     0.018 A 
HETATM   17  C   UNK A   0      13.342   3.922  90.966  1.00  0.00     0.022 A 
HETATM   18  C   UNK A   0      14.357   3.349  91.733  1.00  0.00     0.018 A 
HETATM   19  C   UNK A   0      14.096   3.023  93.048  1.00  0.00     0.032 A 
HETATM   20  C   UNK A   0      12.866   3.243  93.630  1.00  0.00     0.018 A 
HETATM   21  C   UNK A   0      11.850   3.815  92.864  1.00  0.00     0.022 A 
BRANCH  19  22
HETATM   22  C   UNK A   0      15.177   2.412  93.864  1.00  0.00     0.252 C 
HETATM   23  O   UNK A   0      16.321   2.849  93.769  1.00  0.00    -0.268 OA
ENDBRANCH  19  22
ENDBRANCH  15  16
ENDBRANCH  11  14
ENDBRANCH   7   8
ENDBRANCH   2   7
TORSDOF 9
ENDMDL
MODEL 2
REMARK VINA RESULT:      -7.1      1.077      1.543
REMARK  9 active torsions:
REMARK  status: ('A' for Active; 'I' for Inactive)
REMARK    1  A    between atoms: N_3  and  C_6 
REMARK    2  A    between atoms: C_6  and  C_9 
REMARK    3  A    between atoms: C_14  and  C_17 
REMARK       I    between atoms: N_26  and  C_15 
REMARK    4  A    between atoms: C_15  and  C_16 
REMARK    5  A    between atoms: C_20  and  C_23 
REMARK    6  A    between atoms: OG1_24  and  CB_28 
REMARK    7  A    between atoms: N_26  and  CA_27 
REMARK    8  A    between atoms: CA_27  and  CB_28 
REMARK    9  A    between atoms: CA_27  and  C_30 
ROOT
HETATM    1  O   UNK A   0       1.952   7.214  86.941  1.00  0.00    -0.388 OA
HETATM    2  N   UNK A   0       4.225   8.048  88.438  1.00  0.00     0.096 N 
HETATM    3  C   UNK A   0       3.033   8.899  88.313  1.00  0.00     0.299 C 
HETATM    4  C   UNK A   0       4.357   7.191  87.252  1.00  0.00     0.299 C 
HETATM    5  C   UNK A   0       1.796   8.029  88.105  1.00  0.00     0.198 C 
HETATM    6  C   UNK A   0       3.090   6.362  87.067  1.00  0.00     0.198 C 
ENDROOT
BRANCH   2   7
HETATM    7  C   UNK A   0       5.424   8.862  88.628  1.00  0.00     0.311 C 
BRANCH   7   8
HETATM    8  C   UNK A   0       6.556   8.080  89.202  1.00  0.00    -0.030 A 
HETATM    9  C   UNK A   0       7.795   8.074  88.560  1.00  0.00     0.010 A 
HETATM   10  C   UNK A   0       8.854   7.341  89.096  1.00  0.00     0.021 A 
HETATM   11  C   UNK A   0       8.674   6.617  90.274  1.00  0.00     0.018 A 
HETATM   12  C   UNK A   0       7.437   6.623  90.916  1.00  0.00     0.021 A 
HETATM   13  C   UNK A   0       6.378   7.355  90.381  1.00  0.00     0.010 A 
BRANCH  11  14
HETATM   14  C   UNK A   0       9.761   5.867  90.825  1.00  0.00    -0.061 C 
HETATM   15  C   UNK A   0      10.674   5.237  91.288  1.00  0.00    -0.061 C 
BRANCH  15  16
HETATM   16  C   UNK A   0      11.760   4.487  91.839  1.00  0.00     0.018 A 
HETATM   17  C   UNK A   0      12.846   4.141  91.034  1.00  0.00     0.022 A 
HETATM   18  C   UNK A   0      13.906   3.412  91.572  1.00  0.00     0.018 A 
HETATM   19  C   UNK A   0      13.857   3.046  92.901  1.00  0.00     0.032 A 
HETATM   20  C   UNK A   0      12.795   3.375  93.716  1.00  0.00     0.018 A 
HETATM   21  C   UNK A   0      11.734   4.104  93.180  1.00  0.00     0.022 A 
BRANCH  19  22
HETATM   22  C   UNK A   0      14.986   2.267  93.473  1.00  0.00     0.252 C 
HETATM   23  O   UNK A   0      16.132   2.695  93.353  1.00  0.00    -0.268 OA
ENDBRANCH  19  22
ENDBRANCH  15  16
ENDBRANCH  11  14
ENDBRANCH   7   8
ENDBRANCH   2   7
TORSDOF 9
ENDMDL
MODEL 3
REMARK VINA RESULT:      -6.9      1.536      1.939
REMARK  9 active torsions:
REMARK  status: ('A' for Active; 'I' for Inactive)
REMARK    1  A    between atoms: N_3  and  C_6 
REMARK    2  A    between atoms: C_6  and  C_9 
REMARK    3  A    between atoms: C_14  and  C_17 
REMARK       I    between atoms: N_26  and  C_15 
REMARK    4  A    between atoms: C_15  and  C_16 
REMARK    5  A    between atoms: C_20  and  C_23 
REMARK    6  A    between atoms: OG1_24  and  CB_28 
REMARK    7  A    between atoms: N_26  and  CA_27 
REMARK    8  A    between atoms: CA_27  and  CB_28 
REMARK    9  A    between atoms: CA_27  and  C_30 
ROOT
HETATM    1  O   UNK A   0       2.841  11.282  89.717  1.00  0.00    -0.388 OA
HETATM    2  N   UNK A   0       4.640   9.301  88.747  1.00  0.00     0.096 N 
HETATM    3  C   UNK A   0       3.809  10.096  87.833  1.00  0.00     0.299 C 
HETATM    4  C   UNK A   0       3.967   9.159  90.046  1.00  0.00     0.299 C 
HETATM    5  C   UNK A   0       3.502  11.454  88.462  1.00  0.00     0.198 C 
HETATM    6  C   UNK A   0       3.656  10.536  90.622  1.00  0.00     0.198 C 
ENDROOT
BRANCH   2   7
HETATM    7  C   UNK A   0       4.937   7.992  88.170  1.00  0.00     0.311 C 
BRANCH   7   8
HETATM    8  C   UNK A   0       6.144   7.362  88.779  1.00  0.00    -0.030 A 
HETATM    9  C   UNK A   0       6.023   6.165  89.485  1.00  0.00     0.010 A 
HETATM   10  C   UNK A   0       7.151   5.577  90.058  1.00  0.00     0.021 A 
HETATM   11  C   UNK A   0       8.398   6.185  89.922  1.00  0.00     0.018 A 
HETATM   12  C   UNK A   0       8.520   7.380  89.217  1.00  0.00     0.021 A 
HETATM   13  C   UNK A   0       7.392   7.969  88.645  1.00  0.00     0.010 A 
BRANCH  11  14
HETATM   14  C   UNK A   0       9.555   5.580  90.507  1.00  0.00    -0.061 C 
HETATM   15  C   UNK A   0      10.528   5.072  90.999  1.00  0.00    -0.061 C 
BRANCH  15  16
HETATM   16  C   UNK A   0      11.684   4.468  91.585  1.00  0.00     0.018 A 
HETATM   17  C   UNK A   0      12.819   4.239  90.808  1.00  0.00     0.022 A 
HETATM   18  C   UNK A   0      13.948   3.653  91.380  1.00  0.00     0.018 A 
HETATM   19  C   UNK A   0      13.916   3.309  92.715  1.00  0.00     0.032 A 
HETATM   20  C   UNK A   0      12.806   3.525  93.505  1.00  0.00     0.018 A 
HETATM   21  C   UNK A   0      11.677   4.111  92.933  1.00  0.00     0.022 A 
BRANCH  19  22
HETATM   22  C   UNK A   0      15.118   2.682  93.324  1.00  0.00     0.252 C 
HETATM   23  O   UNK A   0      15.976   3.400  93.832  1.00  0.00    -0.268 OA
ENDBRANCH  19  22
ENDBRANCH  15  16
ENDBRANCH  11  14
ENDBRANCH   7   8
ENDBRANCH   2   7
TORSDOF 9
ENDMDL
MODEL 4
REMARK VINA RESULT:      -6.9      1.521      2.166
REMARK  9 active torsions:
REMARK  status: ('A' for Active; 'I' for Inactive)
REMARK    1  A    between atoms: N_3  and  C_6 
REMARK    2  A    between atoms: C_6  and  C_9 
REMARK    3  A    between atoms: C_14  and  C_17 
REMARK       I    between atoms: N_26  and  C_15 
REMARK    4  A    between atoms: C_15  and  C_16 
REMARK    5  A    between atoms: C_20  and  C_23 
REMARK    6  A    between atoms: OG1_24  and  CB_28 
REMARK    7  A    between atoms: N_26  and  CA_27 
REMARK    8  A    between atoms: CA_27  and  CB_28 
REMARK    9  A    between atoms: CA_27  and  C_30 
ROOT
HETATM    1  O   UNK A   0       2.792  11.184  89.844  1.00  0.00    -0.388 OA
HETATM    2  N   UNK A   0       4.623   9.253  88.834  1.00  0.00     0.096 N 
HETATM    3  C   UNK A   0       3.809  10.083  87.935  1.00  0.00     0.299 C 
HETATM    4  C   UNK A   0       3.920   9.052  90.109  1.00  0.00     0.299 C 
HETATM    5  C   UNK A   0       3.482  11.411  88.614  1.00  0.00     0.198 C 
HETATM    6  C   UNK A   0       3.589  10.403  90.735  1.00  0.00     0.198 C 
ENDROOT
BRANCH   2   7
HETATM    7  C   UNK A   0       4.940   7.970  88.208  1.00  0.00     0.311 C 
BRANCH   7   8
HETATM    8  C   UNK A   0       6.152   7.335  88.798  1.00  0.00    -0.030 A 
HETATM    9  C   UNK A   0       6.036   6.140  89.509  1.00  0.00     0.010 A 
HETATM   10  C   UNK A   0       7.170   5.545  90.063  1.00  0.00     0.021 A 
HETATM   11  C   UNK A   0       8.419   6.145  89.904  1.00  0.00     0.018 A 
HETATM   12  C   UNK A   0       8.536   7.337  89.193  1.00  0.00     0.021 A 
HETATM   13  C   UNK A   0       7.403   7.933  88.640  1.00  0.00     0.010 A 
BRANCH  11  14
HETATM   14  C   UNK A   0       9.582   5.533  90.470  1.00  0.00    -0.061 C 
HETATM   15  C   UNK A   0      10.559   5.019  90.947  1.00  0.00    -0.061 C 
BRANCH  15  16
HETATM   16  C   UNK A   0      11.720   4.408  91.513  1.00  0.00     0.018 A 
HETATM   17  C   UNK A   0      11.684   3.920  92.819  1.00  0.00     0.022 A 
HETATM   18  C   UNK A   0      12.817   3.321  93.370  1.00  0.00     0.018 A 
HETATM   19  C   UNK A   0      13.959   3.222  92.603  1.00  0.00     0.032 A 
HETATM   20  C   UNK A   0      14.020   3.697  91.309  1.00  0.00     0.018 A 
HETATM   21  C   UNK A   0      12.888   4.297  90.758  1.00  0.00     0.022 A 
BRANCH  19  22
HETATM   22  C   UNK A   0      15.166   2.586  93.191  1.00  0.00     0.252 C 
HETATM   23  O   UNK A   0      16.002   3.290  93.753  1.00  0.00    -0.268 OA
ENDBRANCH  19  22
ENDBRANCH  15  16
ENDBRANCH  11  14
ENDBRANCH   7   8
ENDBRANCH   2   7
TORSDOF 9
ENDMDL
MODEL 5
REMARK VINA RESULT:      -6.6      3.922     10.480
REMARK  9 active torsions:
REMARK  status: ('A' for Active; 'I' for Inactive)
REMARK    1  A    between atoms: N_3  and  C_6 
REMARK    2  A    between atoms: C_6  and  C_9 
REMARK    3  A    between atoms: C_14  and  C_17 
REMARK       I    between atoms: N_26  and  C_15 
REMARK    4  A    between atoms: C_15  and  C_16 
REMARK    5  A    between atoms: C_20  and  C_23 
REMARK    6  A    between atoms: OG1_24  and  CB_28 
REMARK    7  A    between atoms: N_26  and  CA_27 
REMARK    8  A    between atoms: CA_27  and  CB_28 
REMARK    9  A    between atoms: CA_27  and  C_30 
ROOT
HETATM    1  O   UNK A   0      14.639   3.357  92.164  1.00  0.00    -0.388 OA
HETATM    2  N   UNK A   0      11.913   4.167  92.287  1.00  0.00     0.096 N 
HETATM    3  C   UNK A   0      12.512   3.328  93.333  1.00  0.00     0.299 C 
HETATM    4  C   UNK A   0      12.587   3.929  91.003  1.00  0.00     0.299 C 
HETATM    5  C   UNK A   0      14.011   3.605  93.423  1.00  0.00     0.198 C 
HETATM    6  C   UNK A   0      14.083   4.191  91.147  1.00  0.00     0.198 C 
ENDROOT
BRANCH   2   7
HETATM    7  C   UNK A   0      10.478   3.910  92.176  1.00  0.00     0.311 C 
BRANCH   7   8
HETATM    8  C   UNK A   0       9.698   5.151  91.898  1.00  0.00    -0.030 A 
HETATM    9  C   UNK A   0       8.864   5.214  90.782  1.00  0.00     0.010 A 
HETATM   10  C   UNK A   0       8.136   6.374  90.520  1.00  0.00     0.021 A 
HETATM   11  C   UNK A   0       8.241   7.470  91.376  1.00  0.00     0.018 A 
HETATM   12  C   UNK A   0       9.074   7.408  92.492  1.00  0.00     0.021 A 
HETATM   13  C   UNK A   0       9.803   6.248  92.753  1.00  0.00     0.010 A 
BRANCH  11  14
HETATM   14  C   UNK A   0       7.493   8.660  91.109  1.00  0.00    -0.061 C 
HETATM   15  C   UNK A   0       6.864   9.660  90.885  1.00  0.00    -0.061 C 
BRANCH  15  16
HETATM   16  C   UNK A   0       6.116  10.849  90.618  1.00  0.00     0.018 A 
HETATM   17  C   UNK A   0       5.252  11.360  91.587  1.00  0.00     0.022 A 
HETATM   18  C   UNK A   0       4.525  12.522  91.328  1.00  0.00     0.018 A 
HETATM   19  C   UNK A   0       4.679  13.146  90.108  1.00  0.00     0.032 A 
HETATM   20  C   UNK A   0       5.526  12.660  89.134  1.00  0.00     0.018 A 
HETATM   21  C   UNK A   0       6.253  11.498  89.392  1.00  0.00     0.022 A 
BRANCH  19  22
HETATM   22  C   UNK A   0       3.903  14.383  89.831  1.00  0.00     0.252 C 
HETATM   23  O   UNK A   0       4.491  15.460  89.771  1.00  0.00    -0.268 OA
ENDBRANCH  19  22
ENDBRANCH  15  16
ENDBRANCH  11  14
ENDBRANCH   7   8
ENDBRANCH   2   7
TORSDOF 9
ENDMDL
MODEL 6
REMARK VINA RESULT:      -6.3      2.500      3.250
REMARK  9 active torsions:
REMARK  status: ('A' for Active; 'I' for Inactive)
REMARK    1  A    between atoms: N_3  and  C_6 
REMARK    2  A    between atoms: C_6  and  C_9 
REMARK    3  A    between atoms: C_14  and  C_17 
REMARK       I    between atoms: N_26  and  C_15 
REMARK    4  A    between atoms: C_15  and  C_16 
REMARK    5  A    between atoms: C_20  and  C_23 
REMARK    6  A    between atoms: OG1_24  and  CB_28 
REMARK    7  A    between atoms: N_26  and  CA_27 
REMARK    8  A    between atoms: CA_27  and  CB_28 
REMARK    9  A    between atoms: CA_27  and  C_30 
ROOT
HETATM    1  O   UNK A   0       2.559  10.737  87.934  1.00  0.00    -0.388 OA
HETATM    2  N   UNK A   0       4.384   9.937  89.967  1.00  0.00     0.096 N 
HETATM    3  C   UNK A   0       3.124   9.215  89.738  1.00  0.00     0.299 C 
HETATM    4  C   UNK A   0       4.234  11.346  89.580  1.00  0.00     0.299 C 
HETATM    5  C   UNK A   0       2.705   9.358  88.277  1.00  0.00     0.198 C 
HETATM    6  C   UNK A   0       3.788  11.439  88.124  1.00  0.00     0.198 C 
ENDROOT
BRANCH   2   7
HETATM    7  C   UNK A   0       4.800   9.822  91.363  1.00  0.00     0.311 C 
BRANCH   7   8
HETATM    8  C   UNK A   0       5.970   8.916  91.535  1.00  0.00    -0.030 A 
HETATM    9  C   UNK A   0       7.266   9.424  91.435  1.00  0.00     0.010 A 
HETATM   10  C   UNK A   0       8.362   8.576  91.594  1.00  0.00     0.021 A 
HETATM   11  C   UNK A   0       8.162   7.221  91.854  1.00  0.00     0.018 A 
HETATM   12  C   UNK A   0       6.869   6.712  91.955  1.00  0.00     0.021 A 
HETATM   13  C   UNK A   0       5.772   7.559  91.795  1.00  0.00     0.010 A 
BRANCH  11  14
HETATM   14  C   UNK A   0       9.286   6.352  92.019  1.00  0.00    -0.061 C 
HETATM   15  C   UNK A   0      10.231   5.620  92.157  1.00  0.00    -0.061 C 
BRANCH  15  16
HETATM   16  C   UNK A   0      11.354   4.751  92.321  1.00  0.00     0.018 A 
HETATM   17  C   UNK A   0      11.689   4.278  93.590  1.00  0.00     0.022 A 
HETATM   18  C   UNK A   0      12.783   3.428  93.749  1.00  0.00     0.018 A 
HETATM   19  C   UNK A   0      13.517   3.070  92.638  1.00  0.00     0.032 A 
HETATM   20  C   UNK A   0      13.206   3.525  91.373  1.00  0.00     0.018 A 
HETATM   21  C   UNK A   0      12.112   4.375  91.213  1.00  0.00     0.022 A 
BRANCH  19  22
HETATM   22  C   UNK A   0      14.684   2.166  92.808  1.00  0.00     0.252 C 
HETATM   23  O   UNK A   0      15.174   2.024  93.925  1.00  0.00    -0.268 OA
ENDBRANCH  19  22
ENDBRANCH  15  16
ENDBRANCH  11  14
ENDBRANCH   7   8
ENDBRANCH   2   7
TORSDOF 9
ENDMDL
MODEL 7
REMARK VINA RESULT:      -6.2      1.605      2.226
REMARK  9 active torsions:
REMARK  status: ('A' for Active; 'I' for Inactive)
REMARK    1  A    between atoms: N_3  and  C_6 
REMARK    2  A    between atoms: C_6  and  C_9 
REMARK    3  A    between atoms: C_14  and  C_17 
REMARK       I    between atoms: N_26  and  C_15 
REMARK    4  A    between atoms: C_15  and  C_16 
REMARK    5  A    between atoms: C_20  and  C_23 
REMARK    6  A    between atoms: OG1_24  and  CB_28 
REMARK    7  A    between atoms: N_26  and  CA_27 
REMARK    8  A    between atoms: CA_27  and  CB_28 
REMARK    9  A    between atoms: CA_27  and  C_30 
ROOT
HETATM    1  O   UNK A   0       3.595   6.629  86.936  1.00  0.00    -0.388 OA
HETATM    2  N   UNK A   0       4.408   8.565  88.858  1.00  0.00     0.096 N 
HETATM    3  C   UNK A   0       5.389   7.821  88.055  1.00  0.00     0.299 C 
HETATM    4  C   UNK A   0       3.195   7.757  89.046  1.00  0.00     0.299 C 
HETATM    5  C   UNK A   0       4.766   7.419  86.721  1.00  0.00     0.198 C 
HETATM    6  C   UNK A   0       2.624   7.356  87.689  1.00  0.00     0.198 C 
ENDROOT
BRANCH   2   7
HETATM    7  C   UNK A   0       4.980   8.951  90.147  1.00  0.00     0.311 C 
BRANCH   7   8
HETATM    8  C   UNK A   0       6.196   8.159  90.489  1.00  0.00    -0.030 A 
HETATM    9  C   UNK A   0       6.066   6.922  91.122  1.00  0.00     0.010 A 
HETATM   10  C   UNK A   0       7.203   6.181  91.444  1.00  0.00     0.021 A 
HETATM   11  C   UNK A   0       8.469   6.676  91.131  1.00  0.00     0.018 A 
HETATM   12  C   UNK A   0       8.599   7.911  90.499  1.00  0.00     0.021 A 
HETATM   13  C   UNK A   0       7.463   8.653  90.177  1.00  0.00     0.010 A 
BRANCH  11  14
HETATM   14  C   UNK A   0       9.635   5.915  91.460  1.00  0.00    -0.061 C 
HETATM   15  C   UNK A   0      10.615   5.275  91.736  1.00  0.00    -0.061 C 
BRANCH  15  16
HETATM   16  C   UNK A   0      11.780   4.515  92.064  1.00  0.00     0.018 A 
HETATM   17  C   UNK A   0      11.915   3.961  93.337  1.00  0.00     0.022 A 
HETATM   18  C   UNK A   0      13.051   3.217  93.655  1.00  0.00     0.018 A 
HETATM   19  C   UNK A   0      14.025   3.043  92.695  1.00  0.00     0.032 A 
HETATM   20  C   UNK A   0      13.916   3.581  91.430  1.00  0.00     0.018 A 
HETATM   21  C   UNK A   0      12.780   4.325  91.110  1.00  0.00     0.022 A 
BRANCH  19  22
HETATM   22  C   UNK A   0      15.236   2.253  93.036  1.00  0.00     0.252 C 
HETATM   23  O   UNK A   0      15.932   2.601  93.986  1.00  0.00    -0.268 OA
ENDBRANCH  19  22
ENDBRANCH  15  16
ENDBRANCH  11  14
ENDBRANCH   7   8
ENDBRANCH   2   7
TORSDOF 9
ENDMDL
MODEL 8
REMARK VINA RESULT:      -6.2      3.682     10.183
REMARK  9 active torsions:
REMARK  status: ('A' for Active; 'I' for Inactive)
REMARK    1  A    between atoms: N_3  and  C_6 
REMARK    2  A    between atoms: C_6  and  C_9 
REMARK    3  A    between atoms: C_14  and  C_17 
REMARK       I    between atoms: N_26  and  C_15 
REMARK    4  A    between atoms: C_15  and  C_16 
REMARK    5  A    between atoms: C_20  and  C_23 
REMARK    6  A    between atoms: OG1_24  and  CB_28 
REMARK    7  A    between atoms: N_26  and  CA_27 
REMARK    8  A    between atoms: CA_27  and  CB_28 
REMARK    9  A    between atoms: CA_27  and  C_30 
ROOT
HETATM    1  O   UNK A   0      15.850   3.856  94.046  1.00  0.00    -0.388 OA
HETATM    2  N   UNK A   0      13.949   2.571  92.362  1.00  0.00     0.096 N 
HETATM    3  C   UNK A   0      14.120   4.030  92.352  1.00  0.00     0.299 C 
HETATM    4  C   UNK A   0      14.292   2.032  93.685  1.00  0.00     0.299 C 
HETATM    5  C   UNK A   0      15.549   4.386  92.753  1.00  0.00     0.198 C 
HETATM    6  C   UNK A   0      15.716   2.435  94.055  1.00  0.00     0.198 C 
ENDROOT
BRANCH   2   7
HETATM    7  C   UNK A   0      12.582   2.207  91.991  1.00  0.00     0.311 C 
BRANCH   7   8
HETATM    8  C   UNK A   0      11.750   3.397  91.652  1.00  0.00    -0.030 A 
HETATM    9  C   UNK A   0      11.047   4.065  92.655  1.00  0.00     0.010 A 
HETATM   10  C   UNK A   0      10.267   5.176  92.339  1.00  0.00     0.021 A 
HETATM   11  C   UNK A   0      10.192   5.621  91.019  1.00  0.00     0.018 A 
HETATM   12  C   UNK A   0      10.893   4.955  90.016  1.00  0.00     0.021 A 
HETATM   13  C   UNK A   0      11.673   3.843  90.332  1.00  0.00     0.010 A 
BRANCH  11  14
HETATM   14  C   UNK A   0       9.393   6.763  90.695  1.00  0.00    -0.061 C 
HETATM   15  C   UNK A   0       8.722   7.723  90.422  1.00  0.00    -0.061 C 
BRANCH  15  16
HETATM   16  C   UNK A   0       7.924   8.864  90.097  1.00  0.00     0.018 A 
HETATM   17  C   UNK A   0       6.546   8.834  90.312  1.00  0.00     0.022 A 
HETATM   18  C   UNK A   0       5.768   9.948  89.998  1.00  0.00     0.018 A 
HETATM   19  C   UNK A   0       6.384  11.066  89.476  1.00  0.00     0.032 A 
HETATM   20  C   UNK A   0       7.744  11.120  89.253  1.00  0.00     0.018 A 
HETATM   21  C   UNK A   0       8.523  10.006  89.567  1.00  0.00     0.022 A 
BRANCH  19  22
HETATM   22  C   UNK A   0       5.555  12.251  89.139  1.00  0.00     0.252 C 
HETATM   23  O   UNK A   0       6.013  13.112  88.391  1.00  0.00    -0.268 OA
ENDBRANCH  19  22
ENDBRANCH  15  16
ENDBRANCH  11  14
ENDBRANCH   7   8
ENDBRANCH   2   7
TORSDOF 9
ENDMDL
MODEL 9
REMARK VINA RESULT:      -6.1      4.743      9.978
REMARK  9 active torsions:
REMARK  status: ('A' for Active; 'I' for Inactive)
REMARK    1  A    between atoms: N_3  and  C_6 
REMARK    2  A    between atoms: C_6  and  C_9 
REMARK    3  A    between atoms: C_14  and  C_17 
REMARK       I    between atoms: N_26  and  C_15 
REMARK    4  A    between atoms: C_15  and  C_16 
REMARK    5  A    between atoms: C_20  and  C_23 
REMARK    6  A    between atoms: OG1_24  and  CB_28 
REMARK    7  A    between atoms: N_26  and  CA_27 
REMARK    8  A    between atoms: CA_27  and  CB_28 
REMARK    9  A    between atoms: CA_27  and  C_30 
ROOT
HETATM    1  O   UNK A   0      10.033   3.025  88.636  1.00  0.00    -0.388 OA
HETATM    2  N   UNK A   0       9.721   5.634  87.542  1.00  0.00     0.096 N 
HETATM    3  C   UNK A   0       8.814   5.123  88.579  1.00  0.00     0.299 C 
HETATM    4  C   UNK A   0      10.245   4.521  86.738  1.00  0.00     0.299 C 
HETATM    5  C   UNK A   0       9.543   4.098  89.444  1.00  0.00     0.198 C 
HETATM    6  C   UNK A   0      10.939   3.510  87.645  1.00  0.00     0.198 C 
ENDROOT
BRANCH   2   7
HETATM    7  C   UNK A   0       9.040   6.612  86.695  1.00  0.00     0.311 C 
BRANCH   7   8
HETATM    8  C   UNK A   0       8.303   7.636  87.489  1.00  0.00    -0.030 A 
HETATM    9  C   UNK A   0       6.916   7.548  87.623  1.00  0.00     0.010 A 
HETATM   10  C   UNK A   0       6.225   8.507  88.363  1.00  0.00     0.021 A 
HETATM   11  C   UNK A   0       6.921   9.551  88.971  1.00  0.00     0.018 A 
HETATM   12  C   UNK A   0       8.305   9.640  88.838  1.00  0.00     0.021 A 
HETATM   13  C   UNK A   0       8.997   8.682  88.097  1.00  0.00     0.010 A 
BRANCH  11  14
HETATM   14  C   UNK A   0       6.213  10.534  89.733  1.00  0.00    -0.061 C 
HETATM   15  C   UNK A   0       5.617  11.358  90.373  1.00  0.00    -0.061 C 
BRANCH  15  16
HETATM   16  C   UNK A   0       4.909  12.340  91.135  1.00  0.00     0.018 A 
HETATM   17  C   UNK A   0       4.563  13.559  90.551  1.00  0.00     0.022 A 
HETATM   18  C   UNK A   0       3.870  14.514  91.294  1.00  0.00     0.018 A 
HETATM   19  C   UNK A   0       3.538  14.230  92.602  1.00  0.00     0.032 A 
HETATM   20  C   UNK A   0       3.869  13.033  93.202  1.00  0.00     0.018 A 
HETATM   21  C   UNK A   0       4.562  12.077  92.460  1.00  0.00     0.022 A 
BRANCH  19  22
HETATM   22  C   UNK A   0       2.802  15.250  93.393  1.00  0.00     0.252 C 
HETATM   23  O   UNK A   0       1.588  15.365  93.241  1.00  0.00    -0.268 OA
ENDBRANCH  19  22
ENDBRANCH  15  16
ENDBRANCH  11  14
ENDBRANCH   7   8
ENDBRANCH   2   7
TORSDOF 9
ENDMDL
