MODEL 1
REMARK VINA RESULT:      -6.4      0.000      0.000
REMARK  12 active torsions:
REMARK  status: ('A' for Active; 'I' for Inactive)
REMARK    1  A    between atoms: O_2  and  C_16 
REMARK    2  A    between atoms: N_5  and  C_9 
REMARK    3  A    between atoms: N_6  and  C_13 
REMARK       I    between atoms: N_6  and  C_22 
REMARK    4  A    between atoms: C_9  and  C_12 
REMARK    5  A    between atoms: C_13  and  C_16 
REMARK    6  A    between atoms: C_13  and  C_21 
REMARK    7  A    between atoms: C_19  and  C_24 
REMARK    8  A    between atoms: C_21  and  C_33 
REMARK    9  A    between atoms: C_22  and  C_23 
REMARK   10  A    between atoms: C_27  and  C_30 
REMARK   11  A    between atoms: C_33  and  C_34 
REMARK   12  A    between atoms: C_34  and  C_35 
ROOT
HETATM    1  O   UNL     1      16.644   3.682  93.800  1.00  0.00    -0.350 OA
HETATM    2  N   UNL     1      14.064   3.041  92.785  1.00  0.00     0.147 N 
HETATM    3  C   UNL     1      15.082   2.004  93.004  1.00  0.00     0.283 C 
HETATM    4  C   UNL     1      14.710   4.326  92.485  1.00  0.00     0.283 C 
HETATM    5  C   UNL     1      16.026   2.436  94.124  1.00  0.00     0.178 C 
HETATM    6  C   UNL     1      15.662   4.703  93.616  1.00  0.00     0.178 C 
ENDROOT
BRANCH   2   7
HETATM    7  C   UNL     1      13.154   2.653  91.708  1.00  0.00     0.277 C 
BRANCH   7   8
HETATM    8  C   UNL     1      12.014   3.601  91.558  1.00  0.00     0.011 A 
HETATM    9  C   UNL     1      11.787   4.231  90.334  1.00  0.00    -0.002 A 
HETATM   10  C   UNL     1      10.722   5.120  90.193  1.00  0.00     0.008 A 
HETATM   11  C   UNL     1       9.883   5.378  91.276  1.00  0.00     0.042 A 
HETATM   12  C   UNL     1      10.108   4.750  92.500  1.00  0.00     0.008 A 
HETATM   13  C   UNL     1      11.174   3.861  92.641  1.00  0.00    -0.002 A 
BRANCH  11  14
HETATM   14  C   UNL     1       8.789   6.289  91.131  1.00  0.00    -0.059 C 
HETATM   15  C   UNL     1       7.870   7.054  91.009  1.00  0.00    -0.059 C 
BRANCH  15  16
HETATM   16  C   UNL     1       6.776   7.963  90.864  1.00  0.00     0.042 A 
HETATM   17  C   UNL     1       5.647   7.584  90.138  1.00  0.00     0.008 A 
HETATM   18  C   UNL     1       4.579   8.471  89.999  1.00  0.00     0.005 A 
HETATM   19  C   UNL     1       4.663   9.714  90.589  1.00  0.00     0.056 A 
HETATM   20  C   UNL     1       5.769  10.113  91.311  1.00  0.00     0.005 A 
HETATM   21  C   UNL     1       6.838   9.227  91.450  1.00  0.00     0.008 A 
BRANCH  19  22
HETATM   22  C   UNL     1       3.526  10.659  90.439  1.00  0.00     0.254 C 
HETATM   23  O   UNL     1       2.696  10.462  89.555  1.00  0.00    -0.268 OA
HETATM   24  N   UNL     1       3.479  11.704  91.351  1.00  0.00    -0.335 N 
HETATM   25  HN  UNL     1       4.188  11.788  92.071  1.00  0.00     0.164 HD
BRANCH  24  26
HETATM   26  C   UNL     1       2.426  12.687  91.351  1.00  0.00     0.166 C 
BRANCH  26  27
HETATM   27  C   UNL     1       1.611  12.684  92.650  1.00  0.00     0.138 C 
HETATM   28  C   UNL     1       1.407  11.280  93.208  1.00  0.00     0.034 C 
BRANCH  27  29
HETATM   29  O   UNL     1       2.273  13.481  93.631  1.00  0.00    -0.383 OA
HETATM   30  H   UNL     1       3.217  13.252  93.624  1.00  0.00     0.210 HD
ENDBRANCH  27  29
ENDBRANCH  26  27
BRANCH  26  31
HETATM   31  C   UNL     1       3.062  14.050  91.098  1.00  0.00     0.181 C 
HETATM   32  O   UNL     1       2.838  15.034  91.801  1.00  0.00    -0.294 OA
BRANCH  31  33
HETATM   33  C   UNL     1       4.674  13.948  90.965  1.00  0.00     0.138 C 
BRANCH  33  34
HETATM   34  C   UNL     1       4.876  14.475  89.671  1.00  0.00     0.208 C 
HETATM   35  O   UNL     1       5.263  15.620  89.617  1.00  0.00    -0.289 OA
BRANCH  34  36
HETATM   36  C   UNL     1       4.989  13.844  88.463  1.00  0.00     0.194 C 
HETATM   37  O   UNL     1       5.309  12.515  88.164  1.00  0.00    -0.185 OA
ENDBRANCH  34  36
ENDBRANCH  33  34
ENDBRANCH  31  33
ENDBRANCH  26  31
ENDBRANCH  24  26
ENDBRANCH  19  22
ENDBRANCH  15  16
ENDBRANCH  11  14
ENDBRANCH   7   8
ENDBRANCH   2   7
TORSDOF 12
ENDMDL
