MODEL 1
REMARK VINA RESULT:      -6.6      0.000      0.000
REMARK  14 active torsions:
REMARK  status: ('A' for Active; 'I' for Inactive)
REMARK    1  A    between atoms: O_2  and  C_18 
REMARK    2  A    between atoms: C_5  and  C_8 
REMARK    3  A    between atoms: C_5  and  O_35 
REMARK    4  A    between atoms: C_5  and  C_36 
REMARK    5  A    between atoms: N_6  and  C_11 
REMARK    6  A    between atoms: N_7  and  C_15 
REMARK       I    between atoms: N_7  and  C_24 
REMARK    7  A    between atoms: C_8  and  C_23 
REMARK    8  A    between atoms: C_11  and  C_14 
REMARK    9  A    between atoms: C_15  and  C_18 
REMARK   10  A    between atoms: C_15  and  C_23 
REMARK   11  A    between atoms: C_21  and  C_26 
REMARK   12  A    between atoms: C_24  and  C_25 
REMARK   13  A    between atoms: C_29  and  C_32 
REMARK   14  A    between atoms: C_36  and  O_39 
ROOT
HETATM    1  O   UNL     1      16.944   3.848  93.776  1.00  0.00    -0.350 OA
HETATM    2  N   UNL     1      14.382   2.855  93.034  1.00  0.00     0.147 N 
HETATM    3  C   UNL     1      15.558   1.976  93.095  1.00  0.00     0.283 C 
HETATM    4  C   UNL     1      14.796   4.228  92.715  1.00  0.00     0.283 C 
HETATM    5  C   UNL     1      16.554   2.516  94.118  1.00  0.00     0.178 C 
HETATM    6  C   UNL     1      15.810   4.715  93.745  1.00  0.00     0.178 C 
ENDROOT
BRANCH   2   7
HETATM    7  C   UNL     1      13.417   2.361  92.052  1.00  0.00     0.277 C 
BRANCH   7   8
HETATM    8  C   UNL     1      12.282   3.305  91.847  1.00  0.00     0.011 A 
HETATM    9  C   UNL     1      11.914   3.683  90.555  1.00  0.00    -0.002 A 
HETATM   10  C   UNL     1      10.853   4.568  90.363  1.00  0.00     0.008 A 
HETATM   11  C   UNL     1      10.159   5.072  91.462  1.00  0.00     0.042 A 
HETATM   12  C   UNL     1      10.525   4.695  92.753  1.00  0.00     0.008 A 
HETATM   13  C   UNL     1      11.586   3.811  92.946  1.00  0.00    -0.002 A 
BRANCH  11  14
HETATM   14  C   UNL     1       9.069   5.978  91.264  1.00  0.00    -0.059 C 
HETATM   15  C   UNL     1       8.153   6.738  91.099  1.00  0.00    -0.059 C 
BRANCH  15  16
HETATM   16  C   UNL     1       7.064   7.644  90.902  1.00  0.00     0.042 A 
HETATM   17  C   UNL     1       7.137   8.942  91.408  1.00  0.00     0.008 A 
HETATM   18  C   UNL     1       6.076   9.825  91.214  1.00  0.00     0.005 A 
HETATM   19  C   UNL     1       4.967   9.393  90.518  1.00  0.00     0.056 A 
HETATM   20  C   UNL     1       4.870   8.115  90.008  1.00  0.00     0.005 A 
HETATM   21  C   UNL     1       5.931   7.230  90.201  1.00  0.00     0.008 A 
BRANCH  19  22
HETATM   22  C   UNL     1       3.836  10.334  90.313  1.00  0.00     0.254 C 
HETATM   23  O   UNL     1       2.909  10.007  89.575  1.00  0.00    -0.268 OA
HETATM   24  N   UNL     1       3.908  11.532  91.010  1.00  0.00    -0.335 N 
HETATM   25  HN  UNL     1       4.693  11.723  91.621  1.00  0.00     0.164 HD
BRANCH  24  26
HETATM   26  C   UNL     1       2.877  12.536  90.934  1.00  0.00     0.169 C 
BRANCH  26  27
HETATM   27  C   UNL     1       1.947  12.526  92.154  1.00  0.00     0.138 C 
HETATM   28  C   UNL     1       2.527  11.737  93.323  1.00  0.00     0.034 C 
BRANCH  27  29
HETATM   29  O   UNL     1       1.700  13.866  92.577  1.00  0.00    -0.383 OA
HETATM   30  H   UNL     1       2.404  14.434  92.220  1.00  0.00     0.210 HD
ENDBRANCH  27  29
ENDBRANCH  26  27
BRANCH  26  31
HETATM   31  C   UNL     1       3.558  13.891  90.767  1.00  0.00     0.194 C 
HETATM   32  O   UNL     1       4.141  14.465  91.685  1.00  0.00    -0.289 OA
BRANCH  31  33
HETATM   33  C   UNL     1       3.406  14.395  89.499  1.00  0.00     0.053 C 
BRANCH  33  34
HETATM   34  C   UNL     1       4.548  14.358  88.686  1.00  0.00     0.220 C 
BRANCH  34  35
HETATM   35  O   UNL     1       5.515  14.744  89.370  1.00  0.00    -0.371 OA
HETATM   36  H   UNL     1       5.056  14.875  90.186  1.00  0.00     0.211 HD
ENDBRANCH  34  35
BRANCH  34  37
HETATM   37  C   UNL     1       4.778  13.101  88.101  1.00  0.00     0.185 C 
HETATM   38  O   UNL     1       6.047  13.416  88.304  1.00  0.00    -0.647 OA
BRANCH  37  39
HETATM   39  O   UNL     1       4.120  12.227  87.621  1.00  0.00    -0.774 OA
HETATM   40  H   UNL     1       3.766  11.490  88.408  1.00  0.00     0.167 HD
ENDBRANCH  37  39
ENDBRANCH  34  37
ENDBRANCH  33  34
ENDBRANCH  31  33
ENDBRANCH  26  31
ENDBRANCH  24  26
ENDBRANCH  19  22
ENDBRANCH  15  16
ENDBRANCH  11  14
ENDBRANCH   7   8
ENDBRANCH   2   7
TORSDOF 14
ENDMDL
MODEL 2
REMARK VINA RESULT:      -5.1      1.601      2.252
REMARK  14 active torsions:
REMARK  status: ('A' for Active; 'I' for Inactive)
REMARK    1  A    between atoms: O_2  and  C_18 
REMARK    2  A    between atoms: C_5  and  C_8 
REMARK    3  A    between atoms: C_5  and  O_35 
REMARK    4  A    between atoms: C_5  and  C_36 
REMARK    5  A    between atoms: N_6  and  C_11 
REMARK    6  A    between atoms: N_7  and  C_15 
REMARK       I    between atoms: N_7  and  C_24 
REMARK    7  A    between atoms: C_8  and  C_23 
REMARK    8  A    between atoms: C_11  and  C_14 
REMARK    9  A    between atoms: C_15  and  C_18 
REMARK   10  A    between atoms: C_15  and  C_23 
REMARK   11  A    between atoms: C_21  and  C_26 
REMARK   12  A    between atoms: C_24  and  C_25 
REMARK   13  A    between atoms: C_29  and  C_32 
REMARK   14  A    between atoms: C_36  and  O_39 
ROOT
HETATM    1  O   UNL     1      16.651   3.272  93.139  1.00  0.00    -0.350 OA
HETATM    2  N   UNL     1      13.824   3.012  93.345  1.00  0.00     0.147 N 
HETATM    3  C   UNL     1      14.722   1.887  93.640  1.00  0.00     0.283 C 
HETATM    4  C   UNL     1      14.444   3.904  92.356  1.00  0.00     0.283 C 
HETATM    5  C   UNL     1      16.071   2.415  94.124  1.00  0.00     0.178 C 
HETATM    6  C   UNL     1      15.798   4.384  92.868  1.00  0.00     0.178 C 
ENDROOT
BRANCH   2   7
HETATM    7  C   UNL     1      12.529   2.529  92.869  1.00  0.00     0.277 C 
BRANCH   7   8
HETATM    8  C   UNL     1      11.492   3.600  92.859  1.00  0.00     0.011 A 
HETATM    9  C   UNL     1      11.419   4.509  93.915  1.00  0.00    -0.002 A 
HETATM   10  C   UNL     1      10.448   5.510  93.908  1.00  0.00     0.008 A 
HETATM   11  C   UNL     1       9.553   5.604  92.842  1.00  0.00     0.042 A 
HETATM   12  C   UNL     1       9.626   4.698  91.786  1.00  0.00     0.008 A 
HETATM   13  C   UNL     1      10.596   3.695  91.794  1.00  0.00    -0.002 A 
BRANCH  11  14
HETATM   14  C   UNL     1       8.559   6.633  92.833  1.00  0.00    -0.059 C 
HETATM   15  C   UNL     1       7.723   7.497  92.826  1.00  0.00    -0.059 C 
BRANCH  15  16
HETATM   16  C   UNL     1       6.729   8.525  92.818  1.00  0.00     0.042 A 
HETATM   17  C   UNL     1       5.599   8.395  92.010  1.00  0.00     0.008 A 
HETATM   18  C   UNL     1       4.629   9.397  92.004  1.00  0.00     0.005 A 
HETATM   19  C   UNL     1       4.809  10.505  92.806  1.00  0.00     0.056 A 
HETATM   20  C   UNL     1       5.917  10.656  93.614  1.00  0.00     0.005 A 
HETATM   21  C   UNL     1       6.888   9.655  93.620  1.00  0.00     0.008 A 
BRANCH  19  22
HETATM   22  C   UNL     1       3.776  11.572  92.799  1.00  0.00     0.254 C 
HETATM   23  O   UNL     1       2.872  11.539  93.630  1.00  0.00    -0.268 OA
HETATM   24  N   UNL     1       3.934  12.564  91.840  1.00  0.00    -0.335 N 
HETATM   25  HN  UNL     1       4.720  12.540  91.202  1.00  0.00     0.164 HD
BRANCH  24  26
HETATM   26  C   UNL     1       3.029  13.679  91.721  1.00  0.00     0.169 C 
BRANCH  26  27
HETATM   27  C   UNL     1       3.338  14.803  92.718  1.00  0.00     0.138 C 
HETATM   28  C   UNL     1       2.104  15.250  93.494  1.00  0.00     0.034 C 
BRANCH  27  29
HETATM   29  O   UNL     1       4.332  14.361  93.643  1.00  0.00    -0.383 OA
HETATM   30  H   UNL     1       3.998  14.510  94.543  1.00  0.00     0.210 HD
ENDBRANCH  27  29
ENDBRANCH  26  27
BRANCH  26  31
HETATM   31  C   UNL     1       3.094  14.180  90.283  1.00  0.00     0.194 C 
HETATM   32  O   UNL     1       2.098  14.516  89.645  1.00  0.00    -0.289 OA
BRANCH  31  33
HETATM   33  C   UNL     1       4.375  14.172  89.787  1.00  0.00     0.053 C 
BRANCH  33  34
HETATM   34  C   UNL     1       4.575  13.415  88.624  1.00  0.00     0.220 C 
BRANCH  34  35
HETATM   35  O   UNL     1       5.786  13.472  88.337  1.00  0.00    -0.371 OA
HETATM   36  H   UNL     1       6.135  13.367  89.209  1.00  0.00     0.211 HD
ENDBRANCH  34  35
BRANCH  34  37
HETATM   37  C   UNL     1       4.114  12.092  88.731  1.00  0.00     0.185 C 
HETATM   38  O   UNL     1       5.389  11.800  88.523  1.00  0.00    -0.647 OA
BRANCH  37  39
HETATM   39  O   UNL     1       3.065  11.542  88.885  1.00  0.00    -0.774 OA
HETATM   40  H   UNL     1       3.114  10.453  88.569  1.00  0.00     0.167 HD
ENDBRANCH  37  39
ENDBRANCH  34  37
ENDBRANCH  33  34
ENDBRANCH  31  33
ENDBRANCH  26  31
ENDBRANCH  24  26
ENDBRANCH  19  22
ENDBRANCH  15  16
ENDBRANCH  11  14
ENDBRANCH   7   8
ENDBRANCH   2   7
TORSDOF 14
ENDMDL
MODEL 3
REMARK VINA RESULT:      -4.6      1.557      2.705
REMARK  14 active torsions:
REMARK  status: ('A' for Active; 'I' for Inactive)
REMARK    1  A    between atoms: O_2  and  C_18 
REMARK    2  A    between atoms: C_5  and  C_8 
REMARK    3  A    between atoms: C_5  and  O_35 
REMARK    4  A    between atoms: C_5  and  C_36 
REMARK    5  A    between atoms: N_6  and  C_11 
REMARK    6  A    between atoms: N_7  and  C_15 
REMARK       I    between atoms: N_7  and  C_24 
REMARK    7  A    between atoms: C_8  and  C_23 
REMARK    8  A    between atoms: C_11  and  C_14 
REMARK    9  A    between atoms: C_15  and  C_18 
REMARK   10  A    between atoms: C_15  and  C_23 
REMARK   11  A    between atoms: C_21  and  C_26 
REMARK   12  A    between atoms: C_24  and  C_25 
REMARK   13  A    between atoms: C_29  and  C_32 
REMARK   14  A    between atoms: C_36  and  O_39 
ROOT
HETATM    1  O   UNL     1      16.869   4.110  92.959  1.00  0.00    -0.350 OA
HETATM    2  N   UNL     1      14.671   2.303  93.028  1.00  0.00     0.147 N 
HETATM    3  C   UNL     1      15.545   2.405  91.851  1.00  0.00     0.283 C 
HETATM    4  C   UNL     1      14.632   3.589  93.738  1.00  0.00     0.283 C 
HETATM    5  C   UNL     1      16.939   2.855  92.280  1.00  0.00     0.178 C 
HETATM    6  C   UNL     1      16.046   4.012  94.122  1.00  0.00     0.178 C 
ENDROOT
BRANCH   2   7
HETATM    7  C   UNL     1      13.325   1.883  92.639  1.00  0.00     0.277 C 
BRANCH   7   8
HETATM    8  C   UNL     1      12.381   3.032  92.532  1.00  0.00     0.011 A 
HETATM    9  C   UNL     1      12.030   3.531  91.276  1.00  0.00    -0.002 A 
HETATM   10  C   UNL     1      11.149   4.606  91.175  1.00  0.00     0.008 A 
HETATM   11  C   UNL     1      10.616   5.181  92.328  1.00  0.00     0.042 A 
HETATM   12  C   UNL     1      10.965   4.684  93.582  1.00  0.00     0.008 A 
HETATM   13  C   UNL     1      11.847   3.608  93.684  1.00  0.00    -0.002 A 
BRANCH  11  14
HETATM   14  C   UNL     1       9.709   6.283  92.224  1.00  0.00    -0.059 C 
HETATM   15  C   UNL     1       8.947   7.209  92.137  1.00  0.00    -0.059 C 
BRANCH  15  16
HETATM   16  C   UNL     1       8.042   8.311  92.034  1.00  0.00     0.042 A 
HETATM   17  C   UNL     1       8.523   9.580  91.710  1.00  0.00     0.008 A 
HETATM   18  C   UNL     1       7.639  10.653  91.607  1.00  0.00     0.005 A 
HETATM   19  C   UNL     1       6.295  10.435  91.828  1.00  0.00     0.056 A 
HETATM   20  C   UNL     1       5.795   9.190  92.149  1.00  0.00     0.005 A 
HETATM   21  C   UNL     1       6.678   8.115  92.253  1.00  0.00     0.008 A 
BRANCH  19  22
HETATM   22  C   UNL     1       5.354  11.579  91.719  1.00  0.00     0.254 C 
HETATM   23  O   UNL     1       4.748  11.955  92.720  1.00  0.00    -0.268 OA
HETATM   24  N   UNL     1       5.251  12.165  90.465  1.00  0.00    -0.335 N 
HETATM   25  HN  UNL     1       5.802  11.816  89.690  1.00  0.00     0.164 HD
BRANCH  24  26
HETATM   26  C   UNL     1       4.399  13.298  90.206  1.00  0.00     0.169 C 
BRANCH  26  27
HETATM   27  C   UNL     1       4.990  14.259  89.166  1.00  0.00     0.138 C 
HETATM   28  C   UNL     1       5.323  15.625  89.756  1.00  0.00     0.034 C 
BRANCH  27  29
HETATM   29  O   UNL     1       6.177  13.692  88.612  1.00  0.00    -0.383 OA
HETATM   30  H   UNL     1       5.928  13.158  87.839  1.00  0.00     0.210 HD
ENDBRANCH  27  29
ENDBRANCH  26  27
BRANCH  26  31
HETATM   31  C   UNL     1       3.040  12.768  89.762  1.00  0.00     0.194 C 
HETATM   32  O   UNL     1       2.043  13.481  89.662  1.00  0.00    -0.289 OA
BRANCH  31  33
HETATM   33  C   UNL     1       3.062  11.414  89.530  1.00  0.00     0.053 C 
BRANCH  33  34
HETATM   34  C   UNL     1       3.152  11.026  88.185  1.00  0.00     0.220 C 
BRANCH  34  35
HETATM   35  O   UNL     1       3.830  11.883  87.588  1.00  0.00    -0.371 OA
HETATM   36  H   UNL     1       4.607  11.834  88.123  1.00  0.00     0.211 HD
ENDBRANCH  34  35
BRANCH  34  37
HETATM   37  C   UNL     1       3.657   9.727  88.010  1.00  0.00     0.185 C 
HETATM   38  O   UNL     1       2.444   9.374  88.405  1.00  0.00    -0.647 OA
BRANCH  37  39
HETATM   39  O   UNL     1       4.698   9.228  87.700  1.00  0.00    -0.774 OA
HETATM   40  H   UNL     1       4.547   8.218  87.207  1.00  0.00     0.167 HD
ENDBRANCH  37  39
ENDBRANCH  34  37
ENDBRANCH  33  34
ENDBRANCH  31  33
ENDBRANCH  26  31
ENDBRANCH  24  26
ENDBRANCH  19  22
ENDBRANCH  15  16
ENDBRANCH  11  14
ENDBRANCH   7   8
ENDBRANCH   2   7
TORSDOF 14
ENDMDL
MODEL 4
REMARK VINA RESULT:      -4.5      2.707     12.683
REMARK  14 active torsions:
REMARK  status: ('A' for Active; 'I' for Inactive)
REMARK    1  A    between atoms: O_2  and  C_18 
REMARK    2  A    between atoms: C_5  and  C_8 
REMARK    3  A    between atoms: C_5  and  O_35 
REMARK    4  A    between atoms: C_5  and  C_36 
REMARK    5  A    between atoms: N_6  and  C_11 
REMARK    6  A    between atoms: N_7  and  C_15 
REMARK       I    between atoms: N_7  and  C_24 
REMARK    7  A    between atoms: C_8  and  C_23 
REMARK    8  A    between atoms: C_11  and  C_14 
REMARK    9  A    between atoms: C_15  and  C_18 
REMARK   10  A    between atoms: C_15  and  C_23 
REMARK   11  A    between atoms: C_21  and  C_26 
REMARK   12  A    between atoms: C_24  and  C_25 
REMARK   13  A    between atoms: C_29  and  C_32 
REMARK   14  A    between atoms: C_36  and  O_39 
ROOT
HETATM    1  O   UNL     1       3.202  14.520  93.883  1.00  0.00    -0.350 OA
HETATM    2  N   UNL     1       2.834  14.516  91.061  1.00  0.00     0.147 N 
HETATM    3  C   UNL     1       1.941  13.763  91.952  1.00  0.00     0.283 C 
HETATM    4  C   UNL     1       4.170  14.626  91.661  1.00  0.00     0.283 C 
HETATM    5  C   UNL     1       1.891  14.436  93.322  1.00  0.00     0.178 C 
HETATM    6  C   UNL     1       4.068  15.277  93.037  1.00  0.00     0.178 C 
ENDROOT
BRANCH   2   7
HETATM    7  C   UNL     1       2.906  13.883  89.745  1.00  0.00     0.277 C 
BRANCH   7   8
HETATM    8  C   UNL     1       3.878  12.753  89.711  1.00  0.00     0.011 A 
HETATM    9  C   UNL     1       3.479  11.479  90.116  1.00  0.00    -0.002 A 
HETATM   10  C   UNL     1       4.387  10.421  90.086  1.00  0.00     0.008 A 
HETATM   11  C   UNL     1       5.694  10.638  89.650  1.00  0.00     0.042 A 
HETATM   12  C   UNL     1       6.094  11.910  89.245  1.00  0.00     0.008 A 
HETATM   13  C   UNL     1       5.185  12.968  89.275  1.00  0.00    -0.002 A 
BRANCH  11  14
HETATM   14  C   UNL     1       6.626   9.553  89.618  1.00  0.00    -0.059 C 
HETATM   15  C   UNL     1       7.409   8.641  89.592  1.00  0.00    -0.059 C 
BRANCH  15  16
HETATM   16  C   UNL     1       8.339   7.556  89.560  1.00  0.00     0.042 A 
HETATM   17  C   UNL     1       8.816   7.083  88.338  1.00  0.00     0.008 A 
HETATM   18  C   UNL     1       9.726   6.026  88.307  1.00  0.00     0.005 A 
HETATM   19  C   UNL     1      10.139   5.467  89.499  1.00  0.00     0.056 A 
HETATM   20  C   UNL     1       9.682   5.916  90.720  1.00  0.00     0.005 A 
HETATM   21  C   UNL     1       8.772   6.973  90.751  1.00  0.00     0.008 A 
BRANCH  19  22
HETATM   22  C   UNL     1      11.107   4.340  89.466  1.00  0.00     0.254 C 
HETATM   23  O   UNL     1      11.192   3.652  88.452  1.00  0.00    -0.268 OA
HETATM   24  N   UNL     1      11.876   4.166  90.608  1.00  0.00    -0.335 N 
HETATM   25  HN  UNL     1      11.768   4.789  91.399  1.00  0.00     0.164 HD
BRANCH  24  26
HETATM   26  C   UNL     1      12.874   3.133  90.720  1.00  0.00     0.169 C 
BRANCH  26  27
HETATM   27  C   UNL     1      14.304   3.688  90.737  1.00  0.00     0.138 C 
HETATM   28  C   UNL     1      15.120   3.238  89.531  1.00  0.00     0.034 C 
BRANCH  27  29
HETATM   29  O   UNL     1      14.261   5.115  90.762  1.00  0.00    -0.383 OA
HETATM   30  H   UNL     1      13.354   5.396  90.557  1.00  0.00     0.210 HD
ENDBRANCH  27  29
ENDBRANCH  26  27
BRANCH  26  31
HETATM   31  C   UNL     1      12.576   2.332  91.984  1.00  0.00     0.194 C 
HETATM   32  O   UNL     1      11.434   2.115  92.385  1.00  0.00    -0.289 OA
BRANCH  31  33
HETATM   33  C   UNL     1      13.722   1.926  92.624  1.00  0.00     0.053 C 
BRANCH  33  34
HETATM   34  C   UNL     1      13.977   2.534  93.861  1.00  0.00     0.220 C 
BRANCH  34  35
HETATM   35  O   UNL     1      15.207   2.504  94.053  1.00  0.00    -0.371 OA
HETATM   36  H   UNL     1      15.400   3.399  93.821  1.00  0.00     0.211 HD
ENDBRANCH  34  35
BRANCH  34  37
HETATM   37  C   UNL     1      13.452   3.833  93.966  1.00  0.00     0.185 C 
HETATM   38  O   UNL     1      14.726   4.163  94.115  1.00  0.00    -0.647 OA
BRANCH  37  39
HETATM   39  O   UNL     1      12.371   4.342  93.965  1.00  0.00    -0.774 OA
HETATM   40  H   UNL     1      11.570   3.623  93.607  1.00  0.00     0.167 HD
ENDBRANCH  37  39
ENDBRANCH  34  37
ENDBRANCH  33  34
ENDBRANCH  31  33
ENDBRANCH  26  31
ENDBRANCH  24  26
ENDBRANCH  19  22
ENDBRANCH  15  16
ENDBRANCH  11  14
ENDBRANCH   7   8
ENDBRANCH   2   7
TORSDOF 14
ENDMDL
