MODEL 1
REMARK VINA RESULT:      -7.0      0.000      0.000
REMARK  14 active torsions:
REMARK  status: ('A' for Active; 'I' for Inactive)
REMARK    1  A    between atoms: O_2  and  C_18 
REMARK    2  A    between atoms: C_5  and  C_8 
REMARK    3  A    between atoms: C_5  and  O_35 
REMARK    4  A    between atoms: C_5  and  C_36 
REMARK    5  A    between atoms: N_6  and  C_11 
REMARK    6  A    between atoms: N_7  and  C_15 
REMARK       I    between atoms: N_7  and  C_24 
REMARK    7  A    between atoms: C_8  and  C_23 
REMARK    8  A    between atoms: C_11  and  C_14 
REMARK    9  A    between atoms: C_15  and  C_18 
REMARK   10  A    between atoms: C_15  and  C_23 
REMARK   11  A    between atoms: C_21  and  C_26 
REMARK   12  A    between atoms: C_24  and  C_25 
REMARK   13  A    between atoms: C_29  and  C_32 
REMARK   14  A    between atoms: C_36  and  O_39 
ROOT
HETATM    1  O   UNL     1      16.314   4.190  93.971  1.00  0.00    -0.350 OA
HETATM    2  N   UNL     1      14.427   2.622  92.527  1.00  0.00     0.147 N 
HETATM    3  C   UNL     1      14.495   4.081  92.368  1.00  0.00     0.283 C 
HETATM    4  C   UNL     1      14.872   2.242  93.875  1.00  0.00     0.283 C 
HETATM    5  C   UNL     1      15.914   4.567  92.652  1.00  0.00     0.178 C 
HETATM    6  C   UNL     1      16.280   2.771  94.124  1.00  0.00     0.178 C 
ENDROOT
BRANCH   2   7
HETATM    7  C   UNL     1      13.072   2.136  92.270  1.00  0.00     0.277 C 
BRANCH   7   8
HETATM    8  C   UNL     1      12.056   3.224  92.338  1.00  0.00     0.011 A 
HETATM    9  C   UNL     1      11.890   3.950  93.518  1.00  0.00    -0.002 A 
HETATM   10  C   UNL     1      10.938   4.967  93.584  1.00  0.00     0.008 A 
HETATM   11  C   UNL     1      10.153   5.258  92.468  1.00  0.00     0.042 A 
HETATM   12  C   UNL     1      10.318   4.534  91.290  1.00  0.00     0.008 A 
HETATM   13  C   UNL     1      11.269   3.517  91.224  1.00  0.00    -0.002 A 
BRANCH  11  14
HETATM   14  C   UNL     1       9.178   6.303  92.535  1.00  0.00    -0.059 C 
HETATM   15  C   UNL     1       8.357   7.180  92.591  1.00  0.00    -0.059 C 
BRANCH  15  16
HETATM   16  C   UNL     1       7.383   8.224  92.659  1.00  0.00     0.042 A 
HETATM   17  C   UNL     1       7.645   9.375  93.402  1.00  0.00     0.008 A 
HETATM   18  C   UNL     1       6.695  10.394  93.466  1.00  0.00     0.005 A 
HETATM   19  C   UNL     1       5.506  10.241  92.785  1.00  0.00     0.056 A 
HETATM   20  C   UNL     1       5.222   9.112  92.043  1.00  0.00     0.005 A 
HETATM   21  C   UNL     1       6.172   8.092  91.979  1.00  0.00     0.008 A 
BRANCH  19  22
HETATM   22  C   UNL     1       4.493  11.326  92.854  1.00  0.00     0.254 C 
HETATM   23  O   UNL     1       3.791  11.427  93.857  1.00  0.00    -0.268 OA
HETATM   24  N   UNL     1       4.438  12.177  91.759  1.00  0.00    -0.335 N 
HETATM   25  HN  UNL     1       5.068  12.047  90.976  1.00  0.00     0.164 HD
BRANCH  24  26
HETATM   26  C   UNL     1       3.527  13.291  91.688  1.00  0.00     0.169 C 
BRANCH  26  27
HETATM   27  C   UNL     1       4.042  14.528  92.434  1.00  0.00     0.138 C 
HETATM   28  C   UNL     1       4.716  15.531  91.504  1.00  0.00     0.034 C 
BRANCH  27  29
HETATM   29  O   UNL     1       2.955  15.170  93.100  1.00  0.00    -0.383 OA
HETATM   30  H   UNL     1       2.500  14.509  93.648  1.00  0.00     0.210 HD
ENDBRANCH  27  29
ENDBRANCH  26  27
BRANCH  26  31
HETATM   31  C   UNL     1       3.278  13.595  90.214  1.00  0.00     0.194 C 
HETATM   32  O   UNL     1       2.338  14.285  89.822  1.00  0.00    -0.289 OA
BRANCH  31  33
HETATM   33  C   UNL     1       4.195  12.982  89.395  1.00  0.00     0.053 C 
BRANCH  33  34
HETATM   34  C   UNL     1       3.682  12.422  88.216  1.00  0.00     0.220 C 
BRANCH  34  35
HETATM   35  O   UNL     1       4.523  12.598  87.315  1.00  0.00    -0.371 OA
HETATM   36  H   UNL     1       5.170  13.062  87.825  1.00  0.00     0.211 HD
ENDBRANCH  34  35
BRANCH  34  37
HETATM   37  C   UNL     1       3.318  11.071  88.350  1.00  0.00     0.185 C 
HETATM   38  O   UNL     1       4.501  10.863  87.794  1.00  0.00    -0.647 OA
BRANCH  37  39
HETATM   39  O   UNL     1       2.370  10.456  88.737  1.00  0.00    -0.774 OA
HETATM   40  H   UNL     1       1.625  10.267  87.902  1.00  0.00     0.167 HD
ENDBRANCH  37  39
ENDBRANCH  34  37
ENDBRANCH  33  34
ENDBRANCH  31  33
ENDBRANCH  26  31
ENDBRANCH  24  26
ENDBRANCH  19  22
ENDBRANCH  15  16
ENDBRANCH  11  14
ENDBRANCH   7   8
ENDBRANCH   2   7
TORSDOF 14
ENDMDL
MODEL 2
REMARK VINA RESULT:      -6.3      2.872     12.994
REMARK  14 active torsions:
REMARK  status: ('A' for Active; 'I' for Inactive)
REMARK    1  A    between atoms: O_2  and  C_18 
REMARK    2  A    between atoms: C_5  and  C_8 
REMARK    3  A    between atoms: C_5  and  O_35 
REMARK    4  A    between atoms: C_5  and  C_36 
REMARK    5  A    between atoms: N_6  and  C_11 
REMARK    6  A    between atoms: N_7  and  C_15 
REMARK       I    between atoms: N_7  and  C_24 
REMARK    7  A    between atoms: C_8  and  C_23 
REMARK    8  A    between atoms: C_11  and  C_14 
REMARK    9  A    between atoms: C_15  and  C_18 
REMARK   10  A    between atoms: C_15  and  C_23 
REMARK   11  A    between atoms: C_21  and  C_26 
REMARK   12  A    between atoms: C_24  and  C_25 
REMARK   13  A    between atoms: C_29  and  C_32 
REMARK   14  A    between atoms: C_36  and  O_39 
ROOT
HETATM    1  O   UNL     1       2.808  15.065  94.066  1.00  0.00    -0.350 OA
HETATM    2  N   UNL     1       2.484  14.552  91.285  1.00  0.00     0.147 N 
HETATM    3  C   UNL     1       1.423  14.238  92.253  1.00  0.00     0.283 C 
HETATM    4  C   UNL     1       3.799  14.466  91.935  1.00  0.00     0.283 C 
HETATM    5  C   UNL     1       1.523  15.178  93.452  1.00  0.00     0.178 C 
HETATM    6  C   UNL     1       3.843  15.399  93.141  1.00  0.00     0.178 C 
ENDROOT
BRANCH   2   7
HETATM    7  C   UNL     1       2.414  13.657  90.132  1.00  0.00     0.277 C 
BRANCH   7   8
HETATM    8  C   UNL     1       3.408  12.549  90.212  1.00  0.00     0.011 A 
HETATM    9  C   UNL     1       4.560  12.589  89.425  1.00  0.00    -0.002 A 
HETATM   10  C   UNL     1       5.490  11.552  89.497  1.00  0.00     0.008 A 
HETATM   11  C   UNL     1       5.269  10.478  90.358  1.00  0.00     0.042 A 
HETATM   12  C   UNL     1       4.120  10.437  91.144  1.00  0.00     0.008 A 
HETATM   13  C   UNL     1       3.189  11.473  91.072  1.00  0.00    -0.002 A 
BRANCH  11  14
HETATM   14  C   UNL     1       6.225   9.415  90.433  1.00  0.00    -0.059 C 
HETATM   15  C   UNL     1       7.027   8.522  90.498  1.00  0.00    -0.059 C 
BRANCH  15  16
HETATM   16  C   UNL     1       7.981   7.460  90.573  1.00  0.00     0.042 A 
HETATM   17  C   UNL     1       8.907   7.281  89.545  1.00  0.00     0.008 A 
HETATM   18  C   UNL     1       9.840   6.247  89.621  1.00  0.00     0.005 A 
HETATM   19  C   UNL     1       9.826   5.415  90.721  1.00  0.00     0.056 A 
HETATM   20  C   UNL     1       8.921   5.571  91.750  1.00  0.00     0.005 A 
HETATM   21  C   UNL     1       7.988   6.605  91.675  1.00  0.00     0.008 A 
BRANCH  19  22
HETATM   22  C   UNL     1      10.818   4.312  90.800  1.00  0.00     0.254 C 
HETATM   23  O   UNL     1      10.618   3.279  90.166  1.00  0.00    -0.268 OA
HETATM   24  N   UNL     1      11.935   4.554  91.587  1.00  0.00    -0.335 N 
HETATM   25  HN  UNL     1      12.045   5.443  92.062  1.00  0.00     0.164 HD
BRANCH  24  26
HETATM   26  C   UNL     1      12.997   3.593  91.743  1.00  0.00     0.169 C 
BRANCH  26  27
HETATM   27  C   UNL     1      14.310   4.046  91.093  1.00  0.00     0.138 C 
HETATM   28  C   UNL     1      14.892   2.993  90.156  1.00  0.00     0.034 C 
BRANCH  27  29
HETATM   29  O   UNL     1      14.087   5.249  90.357  1.00  0.00    -0.383 OA
HETATM   30  H   UNL     1      14.636   5.221  89.555  1.00  0.00     0.210 HD
ENDBRANCH  27  29
ENDBRANCH  26  27
BRANCH  26  31
HETATM   31  C   UNL     1      13.177   3.337  93.236  1.00  0.00     0.194 C 
HETATM   32  O   UNL     1      12.332   2.768  93.925  1.00  0.00    -0.289 OA
BRANCH  31  33
HETATM   33  C   UNL     1      14.361   3.847  93.711  1.00  0.00     0.053 C 
BRANCH  33  34
HETATM   34  C   UNL     1      15.325   2.902  94.090  1.00  0.00     0.220 C 
BRANCH  34  35
HETATM   35  O   UNL     1      15.113   1.861  93.439  1.00  0.00    -0.371 OA
HETATM   36  H   UNL     1      15.980   1.490  93.495  1.00  0.00     0.211 HD
ENDBRANCH  34  35
BRANCH  34  37
HETATM   37  C   UNL     1      16.646   3.360  93.948  1.00  0.00     0.185 C 
HETATM   38  O   UNL     1      16.061   4.548  93.923  1.00  0.00    -0.647 OA
BRANCH  37  39
HETATM   39  O   UNL     1      17.733   2.876  93.851  1.00  0.00    -0.774 OA
HETATM   40  H   UNL     1      17.745   1.799  94.206  1.00  0.00     0.167 HD
ENDBRANCH  37  39
ENDBRANCH  34  37
ENDBRANCH  33  34
ENDBRANCH  31  33
ENDBRANCH  26  31
ENDBRANCH  24  26
ENDBRANCH  19  22
ENDBRANCH  15  16
ENDBRANCH  11  14
ENDBRANCH   7   8
ENDBRANCH   2   7
TORSDOF 14
ENDMDL
MODEL 3
REMARK VINA RESULT:      -5.4      3.152     12.311
REMARK  14 active torsions:
REMARK  status: ('A' for Active; 'I' for Inactive)
REMARK    1  A    between atoms: O_2  and  C_18 
REMARK    2  A    between atoms: C_5  and  C_8 
REMARK    3  A    between atoms: C_5  and  O_35 
REMARK    4  A    between atoms: C_5  and  C_36 
REMARK    5  A    between atoms: N_6  and  C_11 
REMARK    6  A    between atoms: N_7  and  C_15 
REMARK       I    between atoms: N_7  and  C_24 
REMARK    7  A    between atoms: C_8  and  C_23 
REMARK    8  A    between atoms: C_11  and  C_14 
REMARK    9  A    between atoms: C_15  and  C_18 
REMARK   10  A    between atoms: C_15  and  C_23 
REMARK   11  A    between atoms: C_21  and  C_26 
REMARK   12  A    between atoms: C_24  and  C_25 
REMARK   13  A    between atoms: C_29  and  C_32 
REMARK   14  A    between atoms: C_36  and  O_39 
ROOT
HETATM    1  O   UNL     1       3.116  14.768  94.116  1.00  0.00    -0.350 OA
HETATM    2  N   UNL     1       2.729  14.779  91.296  1.00  0.00     0.147 N 
HETATM    3  C   UNL     1       1.775  14.120  92.200  1.00  0.00     0.283 C 
HETATM    4  C   UNL     1       4.074  14.765  91.887  1.00  0.00     0.283 C 
HETATM    5  C   UNL     1       1.799  14.805  93.564  1.00  0.00     0.178 C 
HETATM    6  C   UNL     1       4.044  15.433  93.258  1.00  0.00     0.178 C 
ENDROOT
BRANCH   2   7
HETATM    7  C   UNL     1       2.731  14.132  89.985  1.00  0.00     0.277 C 
BRANCH   7   8
HETATM    8  C   UNL     1       3.708  13.009  89.907  1.00  0.00     0.011 A 
HETATM    9  C   UNL     1       4.928  13.191  89.255  1.00  0.00    -0.002 A 
HETATM   10  C   UNL     1       5.842  12.140  89.180  1.00  0.00     0.008 A 
HETATM   11  C   UNL     1       5.536  10.909  89.758  1.00  0.00     0.042 A 
HETATM   12  C   UNL     1       4.318  10.726  90.410  1.00  0.00     0.008 A 
HETATM   13  C   UNL     1       3.403  11.776  90.485  1.00  0.00    -0.002 A 
BRANCH  11  14
HETATM   14  C   UNL     1       6.474   9.831  89.683  1.00  0.00    -0.059 C 
HETATM   15  C   UNL     1       7.263   8.925  89.620  1.00  0.00    -0.059 C 
BRANCH  15  16
HETATM   16  C   UNL     1       8.200   7.848  89.544  1.00  0.00     0.042 A 
HETATM   17  C   UNL     1       9.546   8.113  89.293  1.00  0.00     0.008 A 
HETATM   18  C   UNL     1      10.461   7.063  89.222  1.00  0.00     0.005 A 
HETATM   19  C   UNL     1      10.009   5.772  89.403  1.00  0.00     0.056 A 
HETATM   20  C   UNL     1       8.684   5.484  89.651  1.00  0.00     0.005 A 
HETATM   21  C   UNL     1       7.768   6.534  89.723  1.00  0.00     0.008 A 
BRANCH  19  22
HETATM   22  C   UNL     1      10.984   4.653  89.325  1.00  0.00     0.254 C 
HETATM   23  O   UNL     1      11.071   4.005  88.285  1.00  0.00    -0.268 OA
HETATM   24  N   UNL     1      11.756   4.439  90.458  1.00  0.00    -0.335 N 
HETATM   25  HN  UNL     1      11.646   5.032  91.273  1.00  0.00     0.164 HD
BRANCH  24  26
HETATM   26  C   UNL     1      12.761   3.409  90.529  1.00  0.00     0.169 C 
BRANCH  26  27
HETATM   27  C   UNL     1      14.189   3.969  90.494  1.00  0.00     0.138 C 
HETATM   28  C   UNL     1      14.573   4.671  91.791  1.00  0.00     0.034 C 
BRANCH  27  29
HETATM   29  O   UNL     1      15.111   2.907  90.250  1.00  0.00    -0.383 OA
HETATM   30  H   UNL     1      15.987   3.185  90.569  1.00  0.00     0.210 HD
ENDBRANCH  27  29
ENDBRANCH  26  27
BRANCH  26  31
HETATM   31  C   UNL     1      12.513   2.603  91.800  1.00  0.00     0.194 C 
HETATM   32  O   UNL     1      13.358   1.862  92.299  1.00  0.00    -0.289 OA
BRANCH  31  33
HETATM   33  C   UNL     1      11.239   2.776  92.284  1.00  0.00     0.053 C 
BRANCH  33  34
HETATM   34  C   UNL     1      11.108   3.678  93.350  1.00  0.00     0.220 C 
BRANCH  34  35
HETATM   35  O   UNL     1      12.251   3.928  93.778  1.00  0.00    -0.371 OA
HETATM   36  H   UNL     1      12.013   4.160  94.663  1.00  0.00     0.211 HD
ENDBRANCH  34  35
BRANCH  34  37
HETATM   37  C   UNL     1      10.397   4.842  93.014  1.00  0.00     0.185 C 
HETATM   38  O   UNL     1       9.516   3.975  92.540  1.00  0.00    -0.647 OA
BRANCH  37  39
HETATM   39  O   UNL     1      10.565   6.022  93.092  1.00  0.00    -0.774 OA
HETATM   40  H   UNL     1      10.429   6.395  94.155  1.00  0.00     0.167 HD
ENDBRANCH  37  39
ENDBRANCH  34  37
ENDBRANCH  33  34
ENDBRANCH  31  33
ENDBRANCH  26  31
ENDBRANCH  24  26
ENDBRANCH  19  22
ENDBRANCH  15  16
ENDBRANCH  11  14
ENDBRANCH   7   8
ENDBRANCH   2   7
TORSDOF 14
ENDMDL
