MODEL 1
REMARK VINA RESULT:      -7.1      0.000      0.000
REMARK  9 active torsions:
REMARK  status: ('A' for Active; 'I' for Inactive)
REMARK    1  A    between atoms: O_2  and  C_17 
REMARK    2  A    between atoms: N_5  and  C_10 
REMARK    3  A    between atoms: N_6  and  C_14 
REMARK       I    between atoms: N_6  and  C_23 
REMARK       I    between atoms: N_7  and  C_22 
REMARK    4  A    between atoms: C_10  and  C_13 
REMARK    5  A    between atoms: C_14  and  C_17 
REMARK    6  A    between atoms: C_14  and  C_22 
REMARK    7  A    between atoms: C_20  and  C_25 
REMARK    8  A    between atoms: C_23  and  C_24 
REMARK    9  A    between atoms: C_28  and  C_31 
ROOT
HETATM    1  O   UNL     1      16.821   4.358  94.123  1.00  0.00    -0.388 OA
HETATM    2  N   UNL     1      14.896   2.759  92.767  1.00  0.00     0.096 N 
HETATM    3  C   UNL     1      14.813   4.226  92.766  1.00  0.00     0.299 C 
HETATM    4  C   UNL     1      15.556   2.292  93.994  1.00  0.00     0.299 C 
HETATM    5  C   UNL     1      16.209   4.823  92.918  1.00  0.00     0.198 C 
HETATM    6  C   UNL     1      16.934   2.935  94.118  1.00  0.00     0.198 C 
ENDROOT
BRANCH   2   7
HETATM    7  C   UNL     1      13.567   2.165  92.633  1.00  0.00     0.311 C 
BRANCH   7   8
HETATM    8  C   UNL     1      12.541   3.158  92.203  1.00  0.00    -0.030 A 
HETATM    9  C   UNL     1      12.462   3.541  90.864  1.00  0.00     0.010 A 
HETATM   10  C   UNL     1      11.505   4.472  90.461  1.00  0.00     0.021 A 
HETATM   11  C   UNL     1      10.626   5.017  91.396  1.00  0.00     0.018 A 
HETATM   12  C   UNL     1      10.705   4.635  92.734  1.00  0.00     0.021 A 
HETATM   13  C   UNL     1      11.662   3.705  93.138  1.00  0.00     0.010 A 
BRANCH  11  14
HETATM   14  C   UNL     1       9.643   5.970  90.982  1.00  0.00    -0.061 C 
HETATM   15  C   UNL     1       8.817   6.772  90.634  1.00  0.00    -0.061 C 
BRANCH  15  16
HETATM   16  C   UNL     1       7.835   7.725  90.220  1.00  0.00     0.018 A 
HETATM   17  C   UNL     1       7.503   7.841  88.870  1.00  0.00     0.022 A 
HETATM   18  C   UNL     1       6.543   8.768  88.466  1.00  0.00     0.018 A 
HETATM   19  C   UNL     1       5.936   9.558  89.420  1.00  0.00     0.032 A 
HETATM   20  C   UNL     1       6.247   9.463  90.761  1.00  0.00     0.018 A 
HETATM   21  C   UNL     1       7.207   8.536  91.166  1.00  0.00     0.022 A 
BRANCH  19  22
HETATM   22  C   UNL     1       4.915  10.548  88.989  1.00  0.00     0.252 C 
HETATM   23  O   UNL     1       4.129  10.247  88.095  1.00  0.00    -0.268 OA
HETATM   24  N   UNL     1       4.916  11.758  89.669  1.00  0.00    -0.342 N 
HETATM   25  H   UNL     1       5.581  11.926  90.415  1.00  0.00     0.163 HD
BRANCH  24  26
HETATM   26  C   UNL     1       3.973  12.809  89.383  1.00  0.00     0.199 C 
BRANCH  26  27
HETATM   27  C   UNL     1       3.429  13.479  90.652  1.00  0.00     0.145 C 
HETATM   28  C   UNL     1       2.491  12.569  91.437  1.00  0.00     0.042 C 
BRANCH  27  29
HETATM   29  O   UNL     1       4.517  13.861  91.493  1.00  0.00    -0.393 OA
HETATM   30  H   UNL     1       5.257  13.253  91.330  1.00  0.00     0.210 HD
ENDBRANCH  27  29
ENDBRANCH  26  27
BRANCH  26  31
HETATM   31  C   UNL     1       4.663  13.820  88.474  1.00  0.00     0.220 C 
HETATM   32  O   UNL     1       4.952  14.959  88.837  1.00  0.00    -0.278 OA
HETATM   33  N   UNL     1       4.880  13.320  87.213  1.00  0.00    -0.271 NA
HETATM   34  H   UNL     1       4.576  12.422  86.855  1.00  0.00     0.127 HD
HETATM   35  H   UNL     1       4.231  13.662  86.016  1.00  0.00     0.127 HD
ENDBRANCH  26  31
ENDBRANCH  24  26
ENDBRANCH  19  22
ENDBRANCH  15  16
ENDBRANCH  11  14
ENDBRANCH   7   8
ENDBRANCH   2   7
TORSDOF 9
ENDMDL
MODEL 2
REMARK VINA RESULT:      -6.7      1.917      2.994
REMARK  9 active torsions:
REMARK  status: ('A' for Active; 'I' for Inactive)
REMARK    1  A    between atoms: O_2  and  C_17 
REMARK    2  A    between atoms: N_5  and  C_10 
REMARK    3  A    between atoms: N_6  and  C_14 
REMARK       I    between atoms: N_6  and  C_23 
REMARK       I    between atoms: N_7  and  C_22 
REMARK    4  A    between atoms: C_10  and  C_13 
REMARK    5  A    between atoms: C_14  and  C_17 
REMARK    6  A    between atoms: C_14  and  C_22 
REMARK    7  A    between atoms: C_20  and  C_25 
REMARK    8  A    between atoms: C_23  and  C_24 
REMARK    9  A    between atoms: C_28  and  C_31 
ROOT
HETATM    1  O   UNL     1      16.171   3.973  94.122  1.00  0.00    -0.388 OA
HETATM    2  N   UNL     1      14.268   2.696  92.433  1.00  0.00     0.096 N 
HETATM    3  C   UNL     1      14.440   4.156  92.431  1.00  0.00     0.299 C 
HETATM    4  C   UNL     1      14.613   2.151  93.754  1.00  0.00     0.299 C 
HETATM    5  C   UNL     1      15.870   4.509  92.832  1.00  0.00     0.198 C 
HETATM    6  C   UNL     1      16.037   2.551  94.124  1.00  0.00     0.198 C 
ENDROOT
BRANCH   2   7
HETATM    7  C   UNL     1      12.901   2.335  92.062  1.00  0.00     0.311 C 
BRANCH   7   8
HETATM    8  C   UNL     1      11.964   3.491  92.151  1.00  0.00    -0.030 A 
HETATM    9  C   UNL     1      11.673   4.058  93.392  1.00  0.00     0.010 A 
HETATM   10  C   UNL     1      10.795   5.138  93.477  1.00  0.00     0.021 A 
HETATM   11  C   UNL     1      10.210   5.652  92.320  1.00  0.00     0.018 A 
HETATM   12  C   UNL     1      10.501   5.087  91.080  1.00  0.00     0.021 A 
HETATM   13  C   UNL     1      11.378   4.006  90.995  1.00  0.00     0.010 A 
BRANCH  11  14
HETATM   14  C   UNL     1       9.311   6.762  92.406  1.00  0.00    -0.061 C 
HETATM   15  C   UNL     1       8.555   7.694  92.480  1.00  0.00    -0.061 C 
BRANCH  15  16
HETATM   16  C   UNL     1       7.656   8.802  92.567  1.00  0.00     0.018 A 
HETATM   17  C   UNL     1       7.276   9.483  91.410  1.00  0.00     0.022 A 
HETATM   18  C   UNL     1       6.397  10.563  91.496  1.00  0.00     0.018 A 
HETATM   19  C   UNL     1       5.918  10.937  92.734  1.00  0.00     0.032 A 
HETATM   20  C   UNL     1       6.279  10.280  93.892  1.00  0.00     0.018 A 
HETATM   21  C   UNL     1       7.158   9.200  93.808  1.00  0.00     0.022 A 
BRANCH  19  22
HETATM   22  C   UNL     1       4.984  12.089  92.824  1.00  0.00     0.252 C 
HETATM   23  O   UNL     1       4.731  12.570  93.926  1.00  0.00    -0.268 OA
HETATM   24  N   UNL     1       4.476  12.556  91.620  1.00  0.00    -0.342 N 
HETATM   25  H   UNL     1       4.750  12.123  90.746  1.00  0.00     0.163 HD
BRANCH  24  26
HETATM   26  C   UNL     1       3.578  13.680  91.541  1.00  0.00     0.199 C 
BRANCH  26  27
HETATM   27  C   UNL     1       3.417  14.211  90.111  1.00  0.00     0.145 C 
HETATM   28  C   UNL     1       4.708  14.805  89.560  1.00  0.00     0.042 C 
BRANCH  27  29
HETATM   29  O   UNL     1       2.990  13.152  89.254  1.00  0.00    -0.393 OA
HETATM   30  H   UNL     1       2.028  13.224  89.137  1.00  0.00     0.210 HD
ENDBRANCH  27  29
ENDBRANCH  26  27
BRANCH  26  31
HETATM   31  C   UNL     1       2.238  13.247  92.126  1.00  0.00     0.220 C 
HETATM   32  O   UNL     1       1.571  12.324  91.663  1.00  0.00    -0.278 OA
HETATM   33  N   UNL     1       1.860  14.029  93.191  1.00  0.00    -0.271 NA
HETATM   34  H   UNL     1       2.339  14.850  93.541  1.00  0.00     0.127 HD
HETATM   35  H   UNL     1       0.839  14.991  93.246  1.00  0.00     0.127 HD
ENDBRANCH  26  31
ENDBRANCH  24  26
ENDBRANCH  19  22
ENDBRANCH  15  16
ENDBRANCH  11  14
ENDBRANCH   7   8
ENDBRANCH   2   7
TORSDOF 9
ENDMDL
MODEL 3
REMARK VINA RESULT:      -6.1      2.556     12.211
REMARK  9 active torsions:
REMARK  status: ('A' for Active; 'I' for Inactive)
REMARK    1  A    between atoms: O_2  and  C_17 
REMARK    2  A    between atoms: N_5  and  C_10 
REMARK    3  A    between atoms: N_6  and  C_14 
REMARK       I    between atoms: N_6  and  C_23 
REMARK       I    between atoms: N_7  and  C_22 
REMARK    4  A    between atoms: C_10  and  C_13 
REMARK    5  A    between atoms: C_14  and  C_17 
REMARK    6  A    between atoms: C_14  and  C_22 
REMARK    7  A    between atoms: C_20  and  C_25 
REMARK    8  A    between atoms: C_23  and  C_24 
REMARK    9  A    between atoms: C_28  and  C_31 
ROOT
HETATM    1  O   UNL     1       3.058  14.807  93.877  1.00  0.00    -0.388 OA
HETATM    2  N   UNL     1       2.810  14.713  91.043  1.00  0.00     0.096 N 
HETATM    3  C   UNL     1       1.873  13.998  91.919  1.00  0.00     0.299 C 
HETATM    4  C   UNL     1       4.121  14.832  91.697  1.00  0.00     0.299 C 
HETATM    5  C   UNL     1       1.771  14.716  93.263  1.00  0.00     0.198 C 
HETATM    6  C   UNL     1       3.966  15.529  93.044  1.00  0.00     0.198 C 
ENDROOT
BRANCH   2   7
HETATM    7  C   UNL     1       2.932  14.037  89.753  1.00  0.00     0.311 C 
BRANCH   7   8
HETATM    8  C   UNL     1       3.925  12.925  89.786  1.00  0.00    -0.030 A 
HETATM    9  C   UNL     1       3.611  11.730  90.435  1.00  0.00     0.010 A 
HETATM   10  C   UNL     1       4.539  10.690  90.469  1.00  0.00     0.021 A 
HETATM   11  C   UNL     1       5.780  10.844  89.852  1.00  0.00     0.018 A 
HETATM   12  C   UNL     1       6.095  12.037  89.204  1.00  0.00     0.021 A 
HETATM   13  C   UNL     1       5.167  13.077  89.170  1.00  0.00     0.010 A 
BRANCH  11  14
HETATM   14  C   UNL     1       6.732   9.776  89.885  1.00  0.00    -0.061 C 
HETATM   15  C   UNL     1       7.532   8.879  89.913  1.00  0.00    -0.061 C 
BRANCH  15  16
HETATM   16  C   UNL     1       8.483   7.812  89.947  1.00  0.00     0.018 A 
HETATM   17  C   UNL     1       9.040   7.337  88.759  1.00  0.00     0.022 A 
HETATM   18  C   UNL     1       9.969   6.298  88.793  1.00  0.00     0.018 A 
HETATM   19  C   UNL     1      10.322   5.758  90.012  1.00  0.00     0.032 A 
HETATM   20  C   UNL     1       9.786   6.210  91.200  1.00  0.00     0.018 A 
HETATM   21  C   UNL     1       8.856   7.249  91.168  1.00  0.00     0.022 A 
BRANCH  19  22
HETATM   22  C   UNL     1      11.311   4.650  90.047  1.00  0.00     0.252 C 
HETATM   23  O   UNL     1      11.444   3.933  89.058  1.00  0.00    -0.268 OA
HETATM   24  N   UNL     1      12.043   4.525  91.220  1.00  0.00    -0.342 N 
HETATM   25  H   UNL     1      11.896   5.170  91.987  1.00  0.00     0.163 HD
BRANCH  24  26
HETATM   26  C   UNL     1      13.056   3.516  91.398  1.00  0.00     0.199 C 
BRANCH  26  27
HETATM   27  C   UNL     1      14.356   4.077  91.988  1.00  0.00     0.145 C 
HETATM   28  C   UNL     1      15.358   2.983  92.340  1.00  0.00     0.042 C 
BRANCH  27  29
HETATM   29  O   UNL     1      14.957   4.972  91.053  1.00  0.00    -0.393 OA
HETATM   30  H   UNL     1      15.789   5.298  91.435  1.00  0.00     0.210 HD
ENDBRANCH  27  29
ENDBRANCH  26  27
BRANCH  26  31
HETATM   31  C   UNL     1      12.472   2.421  92.285  1.00  0.00     0.220 C 
HETATM   32  O   UNL     1      12.455   1.235  91.961  1.00  0.00    -0.278 OA
HETATM   33  N   UNL     1      11.943   2.923  93.449  1.00  0.00    -0.271 NA
HETATM   34  H   UNL     1      11.860   3.900  93.706  1.00  0.00     0.127 HD
HETATM   35  H   UNL     1      10.592   3.040  93.814  1.00  0.00     0.127 HD
ENDBRANCH  26  31
ENDBRANCH  24  26
ENDBRANCH  19  22
ENDBRANCH  15  16
ENDBRANCH  11  14
ENDBRANCH   7   8
ENDBRANCH   2   7
TORSDOF 9
ENDMDL
MODEL 4
REMARK VINA RESULT:      -5.9      1.655      2.121
REMARK  9 active torsions:
REMARK  status: ('A' for Active; 'I' for Inactive)
REMARK    1  A    between atoms: O_2  and  C_17 
REMARK    2  A    between atoms: N_5  and  C_10 
REMARK    3  A    between atoms: N_6  and  C_14 
REMARK       I    between atoms: N_6  and  C_23 
REMARK       I    between atoms: N_7  and  C_22 
REMARK    4  A    between atoms: C_10  and  C_13 
REMARK    5  A    between atoms: C_14  and  C_17 
REMARK    6  A    between atoms: C_14  and  C_22 
REMARK    7  A    between atoms: C_20  and  C_25 
REMARK    8  A    between atoms: C_23  and  C_24 
REMARK    9  A    between atoms: C_28  and  C_31 
ROOT
HETATM    1  O   UNL     1      16.436   2.735  93.345  1.00  0.00    -0.388 OA
HETATM    2  N   UNL     1      13.676   2.741  92.650  1.00  0.00     0.096 N 
HETATM    3  C   UNL     1      14.314   1.561  93.250  1.00  0.00     0.299 C 
HETATM    4  C   UNL     1      14.664   3.512  91.882  1.00  0.00     0.299 C 
HETATM    5  C   UNL     1      15.490   1.996  94.121  1.00  0.00     0.198 C 
HETATM    6  C   UNL     1      15.832   3.900  92.784  1.00  0.00     0.198 C 
ENDROOT
BRANCH   2   7
HETATM    7  C   UNL     1      12.552   2.347  91.803  1.00  0.00     0.311 C 
BRANCH   7   8
HETATM    8  C   UNL     1      11.510   3.410  91.711  1.00  0.00    -0.030 A 
HETATM    9  C   UNL     1      11.083   3.860  90.461  1.00  0.00     0.010 A 
HETATM   10  C   UNL     1      10.110   4.856  90.373  1.00  0.00     0.021 A 
HETATM   11  C   UNL     1       9.564   5.399  91.535  1.00  0.00     0.018 A 
HETATM   12  C   UNL     1       9.990   4.951  92.784  1.00  0.00     0.021 A 
HETATM   13  C   UNL     1      10.963   3.956  92.872  1.00  0.00     0.010 A 
BRANCH  11  14
HETATM   14  C   UNL     1       8.564   6.419  91.445  1.00  0.00    -0.061 C 
HETATM   15  C   UNL     1       7.724   7.276  91.370  1.00  0.00    -0.061 C 
BRANCH  15  16
HETATM   16  C   UNL     1       6.725   8.295  91.281  1.00  0.00     0.018 A 
HETATM   17  C   UNL     1       6.658   9.107  90.149  1.00  0.00     0.022 A 
HETATM   18  C   UNL     1       5.681  10.099  90.061  1.00  0.00     0.018 A 
HETATM   19  C   UNL     1       4.795  10.257  91.106  1.00  0.00     0.032 A 
HETATM   20  C   UNL     1       4.841   9.467  92.236  1.00  0.00     0.018 A 
HETATM   21  C   UNL     1       5.817   8.475  92.325  1.00  0.00     0.022 A 
BRANCH  19  22
HETATM   22  C   UNL     1       3.757  11.315  91.013  1.00  0.00     0.252 C 
HETATM   23  O   UNL     1       2.684  11.058  90.471  1.00  0.00    -0.268 OA
HETATM   24  N   UNL     1       4.082  12.538  91.583  1.00  0.00    -0.342 N 
HETATM   25  H   UNL     1       4.978  12.670  92.037  1.00  0.00     0.163 HD
BRANCH  24  26
HETATM   26  C   UNL     1       3.172  13.655  91.595  1.00  0.00     0.199 C 
BRANCH  26  27
HETATM   27  C   UNL     1       3.572  14.737  92.606  1.00  0.00     0.145 C 
HETATM   28  C   UNL     1       4.181  14.153  93.876  1.00  0.00     0.042 C 
BRANCH  27  29
HETATM   29  O   UNL     1       4.515  15.625  92.006  1.00  0.00    -0.393 OA
HETATM   30  H   UNL     1       5.017  15.130  91.337  1.00  0.00     0.210 HD
ENDBRANCH  27  29
ENDBRANCH  26  27
BRANCH  26  31
HETATM   31  C   UNL     1       3.105  14.217  90.179  1.00  0.00     0.220 C 
HETATM   32  O   UNL     1       4.097  14.609  89.567  1.00  0.00    -0.278 OA
HETATM   33  N   UNL     1       1.818  14.265  89.699  1.00  0.00    -0.271 NA
HETATM   34  H   UNL     1       0.973  14.035  90.208  1.00  0.00     0.127 HD
HETATM   35  H   UNL     1       1.008  15.392  89.489  1.00  0.00     0.127 HD
ENDBRANCH  26  31
ENDBRANCH  24  26
ENDBRANCH  19  22
ENDBRANCH  15  16
ENDBRANCH  11  14
ENDBRANCH   7   8
ENDBRANCH   2   7
TORSDOF 9
ENDMDL
MODEL 5
REMARK VINA RESULT:      -5.5      2.019      2.915
REMARK  9 active torsions:
REMARK  status: ('A' for Active; 'I' for Inactive)
REMARK    1  A    between atoms: O_2  and  C_17 
REMARK    2  A    between atoms: N_5  and  C_10 
REMARK    3  A    between atoms: N_6  and  C_14 
REMARK       I    between atoms: N_6  and  C_23 
REMARK       I    between atoms: N_7  and  C_22 
REMARK    4  A    between atoms: C_10  and  C_13 
REMARK    5  A    between atoms: C_14  and  C_17 
REMARK    6  A    between atoms: C_14  and  C_22 
REMARK    7  A    between atoms: C_20  and  C_25 
REMARK    8  A    between atoms: C_23  and  C_24 
REMARK    9  A    between atoms: C_28  and  C_31 
ROOT
HETATM    1  O   UNL     1      15.361   4.242  93.013  1.00  0.00    -0.388 OA
HETATM    2  N   UNL     1      13.138   2.683  92.158  1.00  0.00     0.096 N 
HETATM    3  C   UNL     1      13.436   3.990  91.557  1.00  0.00     0.299 C 
HETATM    4  C   UNL     1      13.611   2.650  93.549  1.00  0.00     0.299 C 
HETATM    5  C   UNL     1      14.933   4.273  91.650  1.00  0.00     0.198 C 
HETATM    6  C   UNL     1      15.103   2.964  93.597  1.00  0.00     0.198 C 
ENDROOT
BRANCH   2   7
HETATM    7  C   UNL     1      11.706   2.396  92.089  1.00  0.00     0.311 C 
BRANCH   7   8
HETATM    8  C   UNL     1      10.886   3.631  91.928  1.00  0.00    -0.030 A 
HETATM    9  C   UNL     1      10.132   3.819  90.769  1.00  0.00     0.010 A 
HETATM   10  C   UNL     1       9.367   4.975  90.616  1.00  0.00     0.021 A 
HETATM   11  C   UNL     1       9.354   5.940  91.622  1.00  0.00     0.018 A 
HETATM   12  C   UNL     1      10.106   5.753  92.780  1.00  0.00     0.021 A 
HETATM   13  C   UNL     1      10.873   4.597  92.933  1.00  0.00     0.010 A 
BRANCH  11  14
HETATM   14  C   UNL     1       8.567   7.125  91.466  1.00  0.00    -0.061 C 
HETATM   15  C   UNL     1       7.906   8.121  91.334  1.00  0.00    -0.061 C 
BRANCH  15  16
HETATM   16  C   UNL     1       7.119   9.304  91.177  1.00  0.00     0.018 A 
HETATM   17  C   UNL     1       6.457   9.851  92.276  1.00  0.00     0.022 A 
HETATM   18  C   UNL     1       5.692  11.008  92.123  1.00  0.00     0.018 A 
HETATM   19  C   UNL     1       5.607  11.590  90.876  1.00  0.00     0.032 A 
HETATM   20  C   UNL     1       6.252  11.069  89.774  1.00  0.00     0.018 A 
HETATM   21  C   UNL     1       7.017   9.912  89.926  1.00  0.00     0.022 A 
BRANCH  19  22
HETATM   22  C   UNL     1       4.790  12.821  90.713  1.00  0.00     0.252 C 
HETATM   23  O   UNL     1       4.641  13.298  89.591  1.00  0.00    -0.268 OA
HETATM   24  N   UNL     1       4.226  13.334  91.873  1.00  0.00    -0.342 N 
HETATM   25  H   UNL     1       4.373  12.872  92.763  1.00  0.00     0.163 HD
BRANCH  24  26
HETATM   26  C   UNL     1       3.389  14.507  91.875  1.00  0.00     0.199 C 
BRANCH  26  27
HETATM   27  C   UNL     1       1.911  14.183  91.622  1.00  0.00     0.145 C 
HETATM   28  C   UNL     1       1.572  14.125  90.137  1.00  0.00     0.042 C 
BRANCH  27  29
HETATM   29  O   UNL     1       1.589  12.927  92.220  1.00  0.00    -0.393 OA
HETATM   30  H   UNL     1       2.387  12.585  92.659  1.00  0.00     0.210 HD
ENDBRANCH  27  29
ENDBRANCH  26  27
BRANCH  26  31
HETATM   31  C   UNL     1       3.581  15.214  93.213  1.00  0.00     0.220 C 
HETATM   32  O   UNL     1       4.681  15.358  93.743  1.00  0.00    -0.278 OA
HETATM   33  N   UNL     1       2.389  15.625  93.758  1.00  0.00    -0.271 NA
HETATM   34  H   UNL     1       1.460  15.444  93.394  1.00  0.00     0.127 HD
HETATM   35  H   UNL     1       1.711  15.099  94.869  1.00  0.00     0.127 HD
ENDBRANCH  26  31
ENDBRANCH  24  26
ENDBRANCH  19  22
ENDBRANCH  15  16
ENDBRANCH  11  14
ENDBRANCH   7   8
ENDBRANCH   2   7
TORSDOF 9
ENDMDL
MODEL 6
REMARK VINA RESULT:      -5.1      1.961     12.278
REMARK  9 active torsions:
REMARK  status: ('A' for Active; 'I' for Inactive)
REMARK    1  A    between atoms: O_2  and  C_17 
REMARK    2  A    between atoms: N_5  and  C_10 
REMARK    3  A    between atoms: N_6  and  C_14 
REMARK       I    between atoms: N_6  and  C_23 
REMARK       I    between atoms: N_7  and  C_22 
REMARK    4  A    between atoms: C_10  and  C_13 
REMARK    5  A    between atoms: C_14  and  C_17 
REMARK    6  A    between atoms: C_14  and  C_22 
REMARK    7  A    between atoms: C_20  and  C_25 
REMARK    8  A    between atoms: C_23  and  C_24 
REMARK    9  A    between atoms: C_28  and  C_31 
ROOT
HETATM    1  O   UNL     1       5.553  14.407  88.282  1.00  0.00    -0.388 OA
HETATM    2  N   UNL     1       3.602  13.107  89.897  1.00  0.00     0.096 N 
HETATM    3  C   UNL     1       4.438  14.193  90.427  1.00  0.00     0.299 C 
HETATM    4  C   UNL     1       4.323  12.390  88.835  1.00  0.00     0.299 C 
HETATM    5  C   UNL     1       4.849  15.130  89.293  1.00  0.00     0.198 C 
HETATM    6  C   UNL     1       4.737  13.368  87.740  1.00  0.00     0.198 C 
ENDROOT
BRANCH   2   7
HETATM    7  C   UNL     1       3.205  12.191  90.964  1.00  0.00     0.311 C 
BRANCH   7   8
HETATM    8  C   UNL     1       4.253  11.171  91.257  1.00  0.00    -0.030 A 
HETATM    9  C   UNL     1       5.326  11.494  92.089  1.00  0.00     0.010 A 
HETATM   10  C   UNL     1       6.308  10.541  92.361  1.00  0.00     0.021 A 
HETATM   11  C   UNL     1       6.215   9.267  91.804  1.00  0.00     0.018 A 
HETATM   12  C   UNL     1       5.143   8.943  90.974  1.00  0.00     0.021 A 
HETATM   13  C   UNL     1       4.162   9.895  90.700  1.00  0.00     0.010 A 
BRANCH  11  14
HETATM   14  C   UNL     1       7.221   8.289  92.085  1.00  0.00    -0.061 C 
HETATM   15  C   UNL     1       8.066   7.468  92.323  1.00  0.00    -0.061 C 
BRANCH  15  16
HETATM   16  C   UNL     1       9.071   6.490  92.605  1.00  0.00     0.018 A 
HETATM   17  C   UNL     1       9.375   5.511  91.658  1.00  0.00     0.022 A 
HETATM   18  C   UNL     1      10.357   4.559  91.932  1.00  0.00     0.018 A 
HETATM   19  C   UNL     1      11.013   4.608  93.145  1.00  0.00     0.032 A 
HETATM   20  C   UNL     1      10.730   5.565  94.097  1.00  0.00     0.018 A 
HETATM   21  C   UNL     1       9.748   6.518  93.824  1.00  0.00     0.022 A 
BRANCH  19  22
HETATM   22  C   UNL     1      12.058   3.593  93.437  1.00  0.00     0.252 C 
HETATM   23  O   UNL     1      11.730   2.416  93.567  1.00  0.00    -0.268 OA
HETATM   24  N   UNL     1      13.360   4.066  93.518  1.00  0.00    -0.342 N 
HETATM   25  H   UNL     1      13.558   5.050  93.374  1.00  0.00     0.163 HD
BRANCH  24  26
HETATM   26  C   UNL     1      14.485   3.202  93.770  1.00  0.00     0.199 C 
BRANCH  26  27
HETATM   27  C   UNL     1      14.603   2.066  92.746  1.00  0.00     0.145 C 
HETATM   28  C   UNL     1      15.588   2.388  91.628  1.00  0.00     0.042 C 
BRANCH  27  29
HETATM   29  O   UNL     1      15.023   0.872  93.405  1.00  0.00    -0.393 OA
HETATM   30  H   UNL     1      15.936   0.678  93.132  1.00  0.00     0.210 HD
ENDBRANCH  27  29
ENDBRANCH  26  27
BRANCH  26  31
HETATM   31  C   UNL     1      15.741   4.066  93.786  1.00  0.00     0.220 C 
HETATM   32  O   UNL     1      15.735   5.263  93.502  1.00  0.00    -0.278 OA
HETATM   33  N   UNL     1      16.864   3.345  94.114  1.00  0.00    -0.271 NA
HETATM   34  H   UNL     1      16.919   2.344  94.267  1.00  0.00     0.127 HD
HETATM   35  H   UNL     1      17.925   2.957  93.281  1.00  0.00     0.127 HD
ENDBRANCH  26  31
ENDBRANCH  24  26
ENDBRANCH  19  22
ENDBRANCH  15  16
ENDBRANCH  11  14
ENDBRANCH   7   8
ENDBRANCH   2   7
TORSDOF 9
ENDMDL
MODEL 7
REMARK VINA RESULT:      -5.0      2.146     12.334
REMARK  9 active torsions:
REMARK  status: ('A' for Active; 'I' for Inactive)
REMARK    1  A    between atoms: O_2  and  C_17 
REMARK    2  A    between atoms: N_5  and  C_10 
REMARK    3  A    between atoms: N_6  and  C_14 
REMARK       I    between atoms: N_6  and  C_23 
REMARK       I    between atoms: N_7  and  C_22 
REMARK    4  A    between atoms: C_10  and  C_13 
REMARK    5  A    between atoms: C_14  and  C_17 
REMARK    6  A    between atoms: C_14  and  C_22 
REMARK    7  A    between atoms: C_20  and  C_25 
REMARK    8  A    between atoms: C_23  and  C_24 
REMARK    9  A    between atoms: C_28  and  C_31 
ROOT
HETATM    1  O   UNL     1       3.157  14.572  93.115  1.00  0.00    -0.388 OA
HETATM    2  N   UNL     1       3.073  13.501  90.480  1.00  0.00     0.096 N 
HETATM    3  C   UNL     1       2.079  13.123  91.494  1.00  0.00     0.299 C 
HETATM    4  C   UNL     1       4.345  13.852  91.127  1.00  0.00     0.299 C 
HETATM    5  C   UNL     1       1.907  14.260  92.498  1.00  0.00     0.198 C 
HETATM    6  C   UNL     1       4.119  14.970  92.139  1.00  0.00     0.198 C 
ENDROOT
BRANCH   2   7
HETATM    7  C   UNL     1       3.262  12.421  89.513  1.00  0.00     0.311 C 
BRANCH   7   8
HETATM    8  C   UNL     1       4.319  11.458  89.936  1.00  0.00    -0.030 A 
HETATM    9  C   UNL     1       5.624  11.603  89.463  1.00  0.00     0.010 A 
HETATM   10  C   UNL     1       6.612  10.701  89.857  1.00  0.00     0.021 A 
HETATM   11  C   UNL     1       6.296   9.657  90.726  1.00  0.00     0.018 A 
HETATM   12  C   UNL     1       4.994   9.511  91.199  1.00  0.00     0.021 A 
HETATM   13  C   UNL     1       4.005  10.412  90.804  1.00  0.00     0.010 A 
BRANCH  11  14
HETATM   14  C   UNL     1       7.311   8.734  91.131  1.00  0.00    -0.061 C 
HETATM   15  C   UNL     1       8.164   7.958  91.472  1.00  0.00    -0.061 C 
BRANCH  15  16
HETATM   16  C   UNL     1       9.179   7.036  91.877  1.00  0.00     0.018 A 
HETATM   17  C   UNL     1       9.604   7.008  93.206  1.00  0.00     0.022 A 
HETATM   18  C   UNL     1      10.592   6.107  93.602  1.00  0.00     0.018 A 
HETATM   19  C   UNL     1      11.132   5.254  92.662  1.00  0.00     0.032 A 
HETATM   20  C   UNL     1      10.729   5.262  91.343  1.00  0.00     0.018 A 
HETATM   21  C   UNL     1       9.741   6.163  90.946  1.00  0.00     0.022 A 
BRANCH  19  22
HETATM   22  C   UNL     1      12.185   4.295  93.084  1.00  0.00     0.252 C 
HETATM   23  O   UNL     1      12.024   3.641  94.112  1.00  0.00    -0.268 OA
HETATM   24  N   UNL     1      13.288   4.196  92.247  1.00  0.00    -0.342 N 
HETATM   25  H   UNL     1      13.341   4.751  91.401  1.00  0.00     0.163 HD
BRANCH  24  26
HETATM   26  C   UNL     1      14.381   3.294  92.507  1.00  0.00     0.199 C 
BRANCH  26  27
HETATM   27  C   UNL     1      15.203   3.696  93.738  1.00  0.00     0.145 C 
HETATM   28  C   UNL     1      16.526   2.944  93.829  1.00  0.00     0.042 C 
BRANCH  27  29
HETATM   29  O   UNL     1      15.468   5.098  93.697  1.00  0.00    -0.393 OA
HETATM   30  H   UNL     1      16.014   5.328  94.468  1.00  0.00     0.210 HD
ENDBRANCH  27  29
ENDBRANCH  26  27
BRANCH  26  31
HETATM   31  C   UNL     1      13.801   1.892  92.662  1.00  0.00     0.220 C 
HETATM   32  O   UNL     1      14.330   1.020  93.349  1.00  0.00    -0.278 OA
HETATM   33  N   UNL     1      12.657   1.718  91.921  1.00  0.00    -0.271 NA
HETATM   34  H   UNL     1      12.245   2.383  91.276  1.00  0.00     0.127 HD
HETATM   35  H   UNL     1      12.483   0.959  90.753  1.00  0.00     0.127 HD
ENDBRANCH  26  31
ENDBRANCH  24  26
ENDBRANCH  19  22
ENDBRANCH  15  16
ENDBRANCH  11  14
ENDBRANCH   7   8
ENDBRANCH   2   7
TORSDOF 9
ENDMDL
MODEL 8
REMARK VINA RESULT:      -4.7      1.944     12.400
REMARK  9 active torsions:
REMARK  status: ('A' for Active; 'I' for Inactive)
REMARK    1  A    between atoms: O_2  and  C_17 
REMARK    2  A    between atoms: N_5  and  C_10 
REMARK    3  A    between atoms: N_6  and  C_14 
REMARK       I    between atoms: N_6  and  C_23 
REMARK       I    between atoms: N_7  and  C_22 
REMARK    4  A    between atoms: C_10  and  C_13 
REMARK    5  A    between atoms: C_14  and  C_17 
REMARK    6  A    between atoms: C_14  and  C_22 
REMARK    7  A    between atoms: C_20  and  C_25 
REMARK    8  A    between atoms: C_23  and  C_24 
REMARK    9  A    between atoms: C_28  and  C_31 
ROOT
HETATM    1  O   UNL     1       2.178  13.856  92.160  1.00  0.00    -0.388 OA
HETATM    2  N   UNL     1       3.029  12.409  89.861  1.00  0.00     0.096 N 
HETATM    3  C   UNL     1       3.447  12.016  91.214  1.00  0.00     0.299 C 
HETATM    4  C   UNL     1       2.784  13.856  89.811  1.00  0.00     0.299 C 
HETATM    5  C   UNL     1       2.388  12.444  92.227  1.00  0.00     0.198 C 
HETATM    6  C   UNL     1       1.742  14.242  90.856  1.00  0.00     0.198 C 
ENDROOT
BRANCH   2   7
HETATM    7  C   UNL     1       4.035  12.017  88.875  1.00  0.00     0.311 C 
BRANCH   7   8
HETATM    8  C   UNL     1       5.020  11.043  89.425  1.00  0.00    -0.030 A 
HETATM    9  C   UNL     1       4.694   9.688  89.499  1.00  0.00     0.010 A 
HETATM   10  C   UNL     1       5.614   8.776  90.015  1.00  0.00     0.021 A 
HETATM   11  C   UNL     1       6.861   9.219  90.455  1.00  0.00     0.018 A 
HETATM   12  C   UNL     1       7.189  10.572  90.381  1.00  0.00     0.021 A 
HETATM   13  C   UNL     1       6.268  11.484  89.865  1.00  0.00     0.010 A 
BRANCH  11  14
HETATM   14  C   UNL     1       7.806   8.283  90.982  1.00  0.00    -0.061 C 
HETATM   15  C   UNL     1       8.601   7.498  91.426  1.00  0.00    -0.061 C 
BRANCH  15  16
HETATM   16  C   UNL     1       9.545   6.563  91.954  1.00  0.00     0.018 A 
HETATM   17  C   UNL     1      10.173   5.652  91.103  1.00  0.00     0.022 A 
HETATM   18  C   UNL     1      11.096   4.742  91.618  1.00  0.00     0.018 A 
HETATM   19  C   UNL     1      11.371   4.763  92.970  1.00  0.00     0.032 A 
HETATM   20  C   UNL     1      10.763   5.653  93.831  1.00  0.00     0.018 A 
HETATM   21  C   UNL     1       9.839   6.563  93.317  1.00  0.00     0.022 A 
BRANCH  19  22
HETATM   22  C   UNL     1      12.353   3.792  93.518  1.00  0.00     0.252 C 
HETATM   23  O   UNL     1      11.945   2.804  94.124  1.00  0.00    -0.268 OA
HETATM   24  N   UNL     1      13.689   4.075  93.273  1.00  0.00    -0.342 N 
HETATM   25  H   UNL     1      13.951   4.898  92.743  1.00  0.00     0.163 HD
BRANCH  24  26
HETATM   26  C   UNL     1      14.758   3.217  93.719  1.00  0.00     0.199 C 
BRANCH  26  27
HETATM   27  C   UNL     1      15.070   2.092  92.724  1.00  0.00     0.145 C 
HETATM   28  C   UNL     1      13.938   1.076  92.618  1.00  0.00     0.042 C 
BRANCH  27  29
HETATM   29  O   UNL     1      15.314   2.650  91.433  1.00  0.00    -0.393 OA
HETATM   30  H   UNL     1      15.871   2.031  90.933  1.00  0.00     0.210 HD
ENDBRANCH  27  29
ENDBRANCH  26  27
BRANCH  26  31
HETATM   31  C   UNL     1      15.983   4.091  93.970  1.00  0.00     0.220 C 
HETATM   32  O   UNL     1      15.918   5.311  94.109  1.00  0.00    -0.278 OA
HETATM   33  N   UNL     1      17.147   3.361  93.981  1.00  0.00    -0.271 NA
HETATM   34  H   UNL     1      17.246   2.373  93.782  1.00  0.00     0.127 HD
HETATM   35  H   UNL     1      18.168   3.335  93.018  1.00  0.00     0.127 HD
ENDBRANCH  26  31
ENDBRANCH  24  26
ENDBRANCH  19  22
ENDBRANCH  15  16
ENDBRANCH  11  14
ENDBRANCH   7   8
ENDBRANCH   2   7
TORSDOF 9
ENDMDL
