MODEL 1
REMARK VINA RESULT:      -7.5      0.000      0.000
REMARK  9 active torsions:
REMARK  status: ('A' for Active; 'I' for Inactive)
REMARK    1  A    between atoms: N_3  and  C_6 
REMARK    2  A    between atoms: C_6  and  C_9 
REMARK    3  A    between atoms: C_14  and  C_17 
REMARK       I    between atoms: N_26  and  C_15 
REMARK    4  A    between atoms: C_15  and  C_16 
REMARK    5  A    between atoms: C_20  and  C_23 
REMARK    6  A    between atoms: OG1_24  and  CB_28 
REMARK    7  A    between atoms: N_26  and  CA_27 
REMARK    8  A    between atoms: CA_27  and  CB_28 
REMARK    9  A    between atoms: CA_27  and  C_30 
ROOT
HETATM    1  O   UNK A   0       1.754   7.953  87.813  1.00  0.00    -0.388 OA
HETATM    2  N   UNK A   0       4.568   7.542  87.683  1.00  0.00     0.096 N 
HETATM    3  C   UNK A   0       3.993   8.891  87.780  1.00  0.00     0.299 C 
HETATM    4  C   UNK A   0       3.627   6.641  87.003  1.00  0.00     0.299 C 
HETATM    5  C   UNK A   0       2.649   8.829  88.502  1.00  0.00     0.198 C 
HETATM    6  C   UNK A   0       2.293   6.633  87.742  1.00  0.00     0.198 C 
ENDROOT
BRANCH   2   7
HETATM    7  C   UNK A   0       5.852   7.575  86.985  1.00  0.00     0.311 C 
BRANCH   7   8
HETATM    8  C   UNK A   0       6.951   6.966  87.787  1.00  0.00    -0.030 A 
HETATM    9  C   UNK A   0       8.210   6.781  87.216  1.00  0.00     0.010 A 
HETATM   10  C   UNK A   0       9.238   6.209  87.965  1.00  0.00     0.021 A 
HETATM   11  C   UNK A   0       9.007   5.825  89.286  1.00  0.00     0.018 A 
HETATM   12  C   UNK A   0       7.750   6.011  89.857  1.00  0.00     0.021 A 
HETATM   13  C   UNK A   0       6.722   6.582  89.109  1.00  0.00     0.010 A 
BRANCH  11  14
HETATM   14  C   UNK A   0      10.063   5.241  90.055  1.00  0.00    -0.061 C 
HETATM   15  C   UNK A   0      10.949   4.749  90.701  1.00  0.00    -0.061 C 
BRANCH  15  16
HETATM   16  C   UNK A   0      12.004   4.164  91.469  1.00  0.00     0.018 A 
HETATM   17  C   UNK A   0      11.771   3.776  92.789  1.00  0.00     0.022 A 
HETATM   18  C   UNK A   0      12.799   3.202  93.537  1.00  0.00     0.018 A 
HETATM   19  C   UNK A   0      14.035   3.030  92.950  1.00  0.00     0.032 A 
HETATM   20  C   UNK A   0      14.290   3.406  91.648  1.00  0.00     0.018 A 
HETATM   21  C   UNK A   0      13.263   3.980  90.899  1.00  0.00     0.022 A 
BRANCH  19  22
HETATM   22  C   UNK A   0      15.131   2.421  93.748  1.00  0.00     0.252 C 
HETATM   23  O   UNK A   0      16.285   2.801  93.570  1.00  0.00    -0.268 OA
ENDBRANCH  19  22
ENDBRANCH  15  16
ENDBRANCH  11  14
ENDBRANCH   7   8
ENDBRANCH   2   7
TORSDOF 9
ENDMDL
MODEL 2
REMARK VINA RESULT:      -7.5      0.152      1.019
REMARK  9 active torsions:
REMARK  status: ('A' for Active; 'I' for Inactive)
REMARK    1  A    between atoms: N_3  and  C_6 
REMARK    2  A    between atoms: C_6  and  C_9 
REMARK    3  A    between atoms: C_14  and  C_17 
REMARK       I    between atoms: N_26  and  C_15 
REMARK    4  A    between atoms: C_15  and  C_16 
REMARK    5  A    between atoms: C_20  and  C_23 
REMARK    6  A    between atoms: OG1_24  and  CB_28 
REMARK    7  A    between atoms: N_26  and  CA_27 
REMARK    8  A    between atoms: CA_27  and  CB_28 
REMARK    9  A    between atoms: CA_27  and  C_30 
ROOT
HETATM    1  O   UNK A   0       1.845   8.238  87.870  1.00  0.00    -0.388 OA
HETATM    2  N   UNK A   0       4.620   7.637  87.674  1.00  0.00     0.096 N 
HETATM    3  C   UNK A   0       4.139   9.023  87.766  1.00  0.00     0.299 C 
HETATM    4  C   UNK A   0       3.603   6.794  87.030  1.00  0.00     0.299 C 
HETATM    5  C   UNK A   0       2.814   9.060  88.523  1.00  0.00     0.198 C 
HETATM    6  C   UNK A   0       2.291   6.884  87.803  1.00  0.00     0.198 C 
ENDROOT
BRANCH   2   7
HETATM    7  C   UNK A   0       5.884   7.576  86.943  1.00  0.00     0.311 C 
BRANCH   7   8
HETATM    8  C   UNK A   0       6.980   6.971  87.752  1.00  0.00    -0.030 A 
HETATM    9  C   UNK A   0       6.748   6.614  89.081  1.00  0.00     0.010 A 
HETATM   10  C   UNK A   0       7.773   6.050  89.840  1.00  0.00     0.021 A 
HETATM   11  C   UNK A   0       9.029   5.841  89.270  1.00  0.00     0.018 A 
HETATM   12  C   UNK A   0       9.261   6.197  87.943  1.00  0.00     0.021 A 
HETATM   13  C   UNK A   0       8.237   6.762  87.184  1.00  0.00     0.010 A 
BRANCH  11  14
HETATM   14  C   UNK A   0      10.079   5.260  90.048  1.00  0.00    -0.061 C 
HETATM   15  C   UNK A   0      10.962   4.772  90.703  1.00  0.00    -0.061 C 
BRANCH  15  16
HETATM   16  C   UNK A   0      12.012   4.191  91.480  1.00  0.00     0.018 A 
HETATM   17  C   UNK A   0      11.778   3.832  92.808  1.00  0.00     0.022 A 
HETATM   18  C   UNK A   0      12.802   3.263  93.565  1.00  0.00     0.018 A 
HETATM   19  C   UNK A   0      14.034   3.064  92.978  1.00  0.00     0.032 A 
HETATM   20  C   UNK A   0      14.290   3.410  91.668  1.00  0.00     0.018 A 
HETATM   21  C   UNK A   0      13.267   3.980  90.910  1.00  0.00     0.022 A 
BRANCH  19  22
HETATM   22  C   UNK A   0      15.125   2.459  93.786  1.00  0.00     0.252 C 
HETATM   23  O   UNK A   0      16.191   3.059  93.899  1.00  0.00    -0.268 OA
ENDBRANCH  19  22
ENDBRANCH  15  16
ENDBRANCH  11  14
ENDBRANCH   7   8
ENDBRANCH   2   7
TORSDOF 9
ENDMDL
MODEL 3
REMARK VINA RESULT:      -7.5      0.161      1.433
REMARK  9 active torsions:
REMARK  status: ('A' for Active; 'I' for Inactive)
REMARK    1  A    between atoms: N_3  and  C_6 
REMARK    2  A    between atoms: C_6  and  C_9 
REMARK    3  A    between atoms: C_14  and  C_17 
REMARK       I    between atoms: N_26  and  C_15 
REMARK    4  A    between atoms: C_15  and  C_16 
REMARK    5  A    between atoms: C_20  and  C_23 
REMARK    6  A    between atoms: OG1_24  and  CB_28 
REMARK    7  A    between atoms: N_26  and  CA_27 
REMARK    8  A    between atoms: CA_27  and  CB_28 
REMARK    9  A    between atoms: CA_27  and  C_30 
ROOT
HETATM    1  O   UNK A   0       1.780   8.158  87.854  1.00  0.00    -0.388 OA
HETATM    2  N   UNK A   0       4.569   7.631  87.644  1.00  0.00     0.096 N 
HETATM    3  C   UNK A   0       4.052   9.003  87.746  1.00  0.00     0.299 C 
HETATM    4  C   UNK A   0       3.572   6.765  86.999  1.00  0.00     0.299 C 
HETATM    5  C   UNK A   0       2.729   9.001  88.509  1.00  0.00     0.198 C 
HETATM    6  C   UNK A   0       2.261   6.816  87.778  1.00  0.00     0.198 C 
ENDROOT
BRANCH   2   7
HETATM    7  C   UNK A   0       5.831   7.607  86.907  1.00  0.00     0.311 C 
BRANCH   7   8
HETATM    8  C   UNK A   0       6.939   6.998  87.698  1.00  0.00    -0.030 A 
HETATM    9  C   UNK A   0       6.746   6.693  89.046  1.00  0.00     0.010 A 
HETATM   10  C   UNK A   0       7.782   6.125  89.788  1.00  0.00     0.021 A 
HETATM   11  C   UNK A   0       9.009   5.860  89.180  1.00  0.00     0.018 A 
HETATM   12  C   UNK A   0       9.202   6.164  87.834  1.00  0.00     0.021 A 
HETATM   13  C   UNK A   0       8.167   6.733  87.092  1.00  0.00     0.010 A 
BRANCH  11  14
HETATM   14  C   UNK A   0      10.071   5.276  89.940  1.00  0.00    -0.061 C 
HETATM   15  C   UNK A   0      10.963   4.784  90.579  1.00  0.00    -0.061 C 
BRANCH  15  16
HETATM   16  C   UNK A   0      12.024   4.199  91.337  1.00  0.00     0.018 A 
HETATM   17  C   UNK A   0      13.278   4.013  90.753  1.00  0.00     0.022 A 
HETATM   18  C   UNK A   0      14.314   3.446  91.495  1.00  0.00     0.018 A 
HETATM   19  C   UNK A   0      14.074   3.077  92.802  1.00  0.00     0.032 A 
HETATM   20  C   UNK A   0      12.844   3.250  93.402  1.00  0.00     0.018 A 
HETATM   21  C   UNK A   0      11.807   3.818  92.661  1.00  0.00     0.022 A 
BRANCH  19  22
HETATM   22  C   UNK A   0      15.178   2.471  93.590  1.00  0.00     0.252 C 
HETATM   23  O   UNK A   0      16.215   3.107  93.758  1.00  0.00    -0.268 OA
ENDBRANCH  19  22
ENDBRANCH  15  16
ENDBRANCH  11  14
ENDBRANCH   7   8
ENDBRANCH   2   7
TORSDOF 9
ENDMDL
MODEL 4
REMARK VINA RESULT:      -6.9      1.534      2.319
REMARK  9 active torsions:
REMARK  status: ('A' for Active; 'I' for Inactive)
REMARK    1  A    between atoms: N_3  and  C_6 
REMARK    2  A    between atoms: C_6  and  C_9 
REMARK    3  A    between atoms: C_14  and  C_17 
REMARK       I    between atoms: N_26  and  C_15 
REMARK    4  A    between atoms: C_15  and  C_16 
REMARK    5  A    between atoms: C_20  and  C_23 
REMARK    6  A    between atoms: OG1_24  and  CB_28 
REMARK    7  A    between atoms: N_26  and  CA_27 
REMARK    8  A    between atoms: CA_27  and  CB_28 
REMARK    9  A    between atoms: CA_27  and  C_30 
ROOT
HETATM    1  O   UNK A   0       2.796  11.229  89.701  1.00  0.00    -0.388 OA
HETATM    2  N   UNK A   0       4.615   9.243  88.783  1.00  0.00     0.096 N 
HETATM    3  C   UNK A   0       3.854  10.079  87.845  1.00  0.00     0.299 C 
HETATM    4  C   UNK A   0       3.863   9.077  90.035  1.00  0.00     0.299 C 
HETATM    5  C   UNK A   0       3.534  11.423  88.493  1.00  0.00     0.198 C 
HETATM    6  C   UNK A   0       3.542  10.444  90.631  1.00  0.00     0.198 C 
ENDROOT
BRANCH   2   7
HETATM    7  C   UNK A   0       4.924   7.944  88.187  1.00  0.00     0.311 C 
BRANCH   7   8
HETATM    8  C   UNK A   0       6.140   7.320  88.782  1.00  0.00    -0.030 A 
HETATM    9  C   UNK A   0       6.030   6.135  89.510  1.00  0.00     0.010 A 
HETATM   10  C   UNK A   0       7.166   5.552  90.070  1.00  0.00     0.021 A 
HETATM   11  C   UNK A   0       8.413   6.153  89.899  1.00  0.00     0.018 A 
HETATM   12  C   UNK A   0       8.525   7.336  89.171  1.00  0.00     0.021 A 
HETATM   13  C   UNK A   0       7.388   7.920  88.612  1.00  0.00     0.010 A 
BRANCH  11  14
HETATM   14  C   UNK A   0       9.580   5.553  90.471  1.00  0.00    -0.061 C 
HETATM   15  C   UNK A   0      10.559   5.049  90.952  1.00  0.00    -0.061 C 
BRANCH  15  16
HETATM   16  C   UNK A   0      11.724   4.449  91.524  1.00  0.00     0.018 A 
HETATM   17  C   UNK A   0      12.876   4.289  90.752  1.00  0.00     0.022 A 
HETATM   18  C   UNK A   0      14.013   3.707  91.312  1.00  0.00     0.018 A 
HETATM   19  C   UNK A   0      13.974   3.298  92.628  1.00  0.00     0.032 A 
HETATM   20  C   UNK A   0      12.848   3.444  93.411  1.00  0.00     0.018 A 
HETATM   21  C   UNK A   0      11.710   4.027  92.853  1.00  0.00     0.022 A 
BRANCH  19  22
HETATM   22  C   UNK A   0      15.185   2.675  93.223  1.00  0.00     0.252 C 
HETATM   23  O   UNK A   0      16.023   3.391  93.764  1.00  0.00    -0.268 OA
ENDBRANCH  19  22
ENDBRANCH  15  16
ENDBRANCH  11  14
ENDBRANCH   7   8
ENDBRANCH   2   7
TORSDOF 9
ENDMDL
MODEL 5
REMARK VINA RESULT:      -6.9      1.575      1.955
REMARK  9 active torsions:
REMARK  status: ('A' for Active; 'I' for Inactive)
REMARK    1  A    between atoms: N_3  and  C_6 
REMARK    2  A    between atoms: C_6  and  C_9 
REMARK    3  A    between atoms: C_14  and  C_17 
REMARK       I    between atoms: N_26  and  C_15 
REMARK    4  A    between atoms: C_15  and  C_16 
REMARK    5  A    between atoms: C_20  and  C_23 
REMARK    6  A    between atoms: OG1_24  and  CB_28 
REMARK    7  A    between atoms: N_26  and  CA_27 
REMARK    8  A    between atoms: CA_27  and  CB_28 
REMARK    9  A    between atoms: CA_27  and  C_30 
ROOT
HETATM    1  O   UNK A   0       2.855  11.295  89.834  1.00  0.00    -0.388 OA
HETATM    2  N   UNK A   0       4.671   9.379  88.771  1.00  0.00     0.096 N 
HETATM    3  C   UNK A   0       3.865  10.241  87.896  1.00  0.00     0.299 C 
HETATM    4  C   UNK A   0       3.966   9.148  90.039  1.00  0.00     0.299 C 
HETATM    5  C   UNK A   0       3.547  11.551  88.611  1.00  0.00     0.198 C 
HETATM    6  C   UNK A   0       3.645  10.483  90.704  1.00  0.00     0.198 C 
ENDROOT
BRANCH   2   7
HETATM    7  C   UNK A   0       4.979   8.112  88.109  1.00  0.00     0.311 C 
BRANCH   7   8
HETATM    8  C   UNK A   0       6.176   7.442  88.693  1.00  0.00    -0.030 A 
HETATM    9  C   UNK A   0       7.448   7.972  88.472  1.00  0.00     0.010 A 
HETATM   10  C   UNK A   0       8.569   7.345  89.016  1.00  0.00     0.021 A 
HETATM   11  C   UNK A   0       8.417   6.190  89.782  1.00  0.00     0.018 A 
HETATM   12  C   UNK A   0       7.147   5.660  90.003  1.00  0.00     0.021 A 
HETATM   13  C   UNK A   0       6.026   6.286  89.459  1.00  0.00     0.010 A 
BRANCH  11  14
HETATM   14  C   UNK A   0       9.566   5.548  90.341  1.00  0.00    -0.061 C 
HETATM   15  C   UNK A   0      10.533   5.008  90.811  1.00  0.00    -0.061 C 
BRANCH  15  16
HETATM   16  C   UNK A   0      11.682   4.366  91.369  1.00  0.00     0.018 A 
HETATM   17  C   UNK A   0      11.601   3.763  92.625  1.00  0.00     0.022 A 
HETATM   18  C   UNK A   0      12.722   3.135  93.168  1.00  0.00     0.018 A 
HETATM   19  C   UNK A   0      13.896   3.124  92.445  1.00  0.00     0.032 A 
HETATM   20  C   UNK A   0      14.001   3.714  91.203  1.00  0.00     0.018 A 
HETATM   21  C   UNK A   0      12.882   4.342  90.658  1.00  0.00     0.022 A 
BRANCH  19  22
HETATM   22  C   UNK A   0      15.090   2.456  93.025  1.00  0.00     0.252 C 
HETATM   23  O   UNK A   0      15.511   2.825  94.119  1.00  0.00    -0.268 OA
ENDBRANCH  19  22
ENDBRANCH  15  16
ENDBRANCH  11  14
ENDBRANCH   7   8
ENDBRANCH   2   7
TORSDOF 9
ENDMDL
MODEL 6
REMARK VINA RESULT:      -6.7      3.621     10.379
REMARK  9 active torsions:
REMARK  status: ('A' for Active; 'I' for Inactive)
REMARK    1  A    between atoms: N_3  and  C_6 
REMARK    2  A    between atoms: C_6  and  C_9 
REMARK    3  A    between atoms: C_14  and  C_17 
REMARK       I    between atoms: N_26  and  C_15 
REMARK    4  A    between atoms: C_15  and  C_16 
REMARK    5  A    between atoms: C_20  and  C_23 
REMARK    6  A    between atoms: OG1_24  and  CB_28 
REMARK    7  A    between atoms: N_26  and  CA_27 
REMARK    8  A    between atoms: CA_27  and  CB_28 
REMARK    9  A    between atoms: CA_27  and  C_30 
ROOT
HETATM    1  O   UNK A   0      16.218   3.138  93.623  1.00  0.00    -0.388 OA
HETATM    2  N   UNK A   0      13.506   2.914  92.791  1.00  0.00     0.096 N 
HETATM    3  C   UNK A   0      14.313   1.727  93.102  1.00  0.00     0.299 C 
HETATM    4  C   UNK A   0      14.371   4.000  92.308  1.00  0.00     0.299 C 
HETATM    5  C   UNK A   0      15.389   2.087  94.124  1.00  0.00     0.198 C 
HETATM    6  C   UNK A   0      15.445   4.306  93.347  1.00  0.00     0.198 C 
ENDROOT
BRANCH   2   7
HETATM    7  C   UNK A   0      12.474   2.595  91.805  1.00  0.00     0.311 C 
BRANCH   7   8
HETATM    8  C   UNK A   0      11.616   3.770  91.480  1.00  0.00    -0.030 A 
HETATM    9  C   UNK A   0      10.958   4.456  92.501  1.00  0.00     0.010 A 
HETATM   10  C   UNK A   0      10.154   5.554  92.197  1.00  0.00     0.021 A 
HETATM   11  C   UNK A   0      10.009   5.966  90.873  1.00  0.00     0.018 A 
HETATM   12  C   UNK A   0      10.666   5.282  89.852  1.00  0.00     0.021 A 
HETATM   13  C   UNK A   0      11.470   4.183  90.155  1.00  0.00     0.010 A 
BRANCH  11  14
HETATM   14  C   UNK A   0       9.186   7.094  90.561  1.00  0.00    -0.061 C 
HETATM   15  C   UNK A   0       8.494   8.042  90.300  1.00  0.00    -0.061 C 
BRANCH  15  16
HETATM   16  C   UNK A   0       7.672   9.169  89.988  1.00  0.00     0.018 A 
HETATM   17  C   UNK A   0       6.302   9.127  90.253  1.00  0.00     0.022 A 
HETATM   18  C   UNK A   0       5.501  10.227  89.951  1.00  0.00     0.018 A 
HETATM   19  C   UNK A   0       6.085  11.345  89.393  1.00  0.00     0.032 A 
HETATM   20  C   UNK A   0       7.436  11.412  89.122  1.00  0.00     0.018 A 
HETATM   21  C   UNK A   0       8.239  10.312  89.423  1.00  0.00     0.022 A 
BRANCH  19  22
HETATM   22  C   UNK A   0       5.230  12.517  89.070  1.00  0.00     0.252 C 
HETATM   23  O   UNK A   0       5.058  12.828  87.894  1.00  0.00    -0.268 OA
ENDBRANCH  19  22
ENDBRANCH  15  16
ENDBRANCH  11  14
ENDBRANCH   7   8
ENDBRANCH   2   7
TORSDOF 9
ENDMDL
MODEL 7
REMARK VINA RESULT:      -6.6      3.993     10.413
REMARK  9 active torsions:
REMARK  status: ('A' for Active; 'I' for Inactive)
REMARK    1  A    between atoms: N_3  and  C_6 
REMARK    2  A    between atoms: C_6  and  C_9 
REMARK    3  A    between atoms: C_14  and  C_17 
REMARK       I    between atoms: N_26  and  C_15 
REMARK    4  A    between atoms: C_15  and  C_16 
REMARK    5  A    between atoms: C_20  and  C_23 
REMARK    6  A    between atoms: OG1_24  and  CB_28 
REMARK    7  A    between atoms: N_26  and  CA_27 
REMARK    8  A    between atoms: CA_27  and  CB_28 
REMARK    9  A    between atoms: CA_27  and  C_30 
ROOT
HETATM    1  O   UNK A   0      14.629   3.344  92.103  1.00  0.00    -0.388 OA
HETATM    2  N   UNK A   0      11.907   4.157  92.278  1.00  0.00     0.096 N 
HETATM    3  C   UNK A   0      12.517   3.292  93.297  1.00  0.00     0.299 C 
HETATM    4  C   UNK A   0      12.565   3.949  90.981  1.00  0.00     0.299 C 
HETATM    5  C   UNK A   0      14.017   3.563  93.375  1.00  0.00     0.198 C 
HETATM    6  C   UNK A   0      14.063   4.204  91.113  1.00  0.00     0.198 C 
ENDROOT
BRANCH   2   7
HETATM    7  C   UNK A   0      10.470   3.906  92.178  1.00  0.00     0.311 C 
BRANCH   7   8
HETATM    8  C   UNK A   0       9.696   5.148  91.893  1.00  0.00    -0.030 A 
HETATM    9  C   UNK A   0       8.811   5.184  90.814  1.00  0.00     0.010 A 
HETATM   10  C   UNK A   0       8.087   6.345  90.544  1.00  0.00     0.021 A 
HETATM   11  C   UNK A   0       8.247   7.469  91.354  1.00  0.00     0.018 A 
HETATM   12  C   UNK A   0       9.129   7.434  92.432  1.00  0.00     0.021 A 
HETATM   13  C   UNK A   0       9.854   6.273  92.702  1.00  0.00     0.010 A 
BRANCH  11  14
HETATM   14  C   UNK A   0       7.503   8.659  91.079  1.00  0.00    -0.061 C 
HETATM   15  C   UNK A   0       6.877   9.660  90.848  1.00  0.00    -0.061 C 
BRANCH  15  16
HETATM   16  C   UNK A   0       6.134  10.850  90.573  1.00  0.00     0.018 A 
HETATM   17  C   UNK A   0       5.251  11.356  91.527  1.00  0.00     0.022 A 
HETATM   18  C   UNK A   0       4.529  12.519  91.260  1.00  0.00     0.018 A 
HETATM   19  C   UNK A   0       4.706  13.149  90.046  1.00  0.00     0.032 A 
HETATM   20  C   UNK A   0       5.572  12.669  89.087  1.00  0.00     0.018 A 
HETATM   21  C   UNK A   0       6.295  11.506  89.353  1.00  0.00     0.022 A 
BRANCH  19  22
HETATM   22  C   UNK A   0       3.934  14.387  89.761  1.00  0.00     0.252 C 
HETATM   23  O   UNK A   0       4.520  15.467  89.738  1.00  0.00    -0.268 OA
ENDBRANCH  19  22
ENDBRANCH  15  16
ENDBRANCH  11  14
ENDBRANCH   7   8
ENDBRANCH   2   7
TORSDOF 9
ENDMDL
MODEL 8
REMARK VINA RESULT:      -6.4      2.164      2.972
REMARK  9 active torsions:
REMARK  status: ('A' for Active; 'I' for Inactive)
REMARK    1  A    between atoms: N_3  and  C_6 
REMARK    2  A    between atoms: C_6  and  C_9 
REMARK    3  A    between atoms: C_14  and  C_17 
REMARK       I    between atoms: N_26  and  C_15 
REMARK    4  A    between atoms: C_15  and  C_16 
REMARK    5  A    between atoms: C_20  and  C_23 
REMARK    6  A    between atoms: OG1_24  and  CB_28 
REMARK    7  A    between atoms: N_26  and  CA_27 
REMARK    8  A    between atoms: CA_27  and  CB_28 
REMARK    9  A    between atoms: CA_27  and  C_30 
ROOT
HETATM    1  O   UNK A   0       4.343  12.330  88.937  1.00  0.00    -0.388 OA
HETATM    2  N   UNK A   0       4.857   9.598  89.550  1.00  0.00     0.096 N 
HETATM    3  C   UNK A   0       3.616  10.015  88.882  1.00  0.00     0.299 C 
HETATM    4  C   UNK A   0       5.359  10.685  90.402  1.00  0.00     0.299 C 
HETATM    5  C   UNK A   0       3.864  11.291  88.081  1.00  0.00     0.198 C 
HETATM    6  C   UNK A   0       5.565  11.945  89.566  1.00  0.00     0.198 C 
ENDROOT
BRANCH   2   7
HETATM    7  C   UNK A   0       4.641   8.382  90.332  1.00  0.00     0.311 C 
BRANCH   7   8
HETATM    8  C   UNK A   0       5.915   7.675  90.647  1.00  0.00    -0.030 A 
HETATM    9  C   UNK A   0       6.946   7.646  89.707  1.00  0.00     0.010 A 
HETATM   10  C   UNK A   0       8.137   6.983  89.999  1.00  0.00     0.021 A 
HETATM   11  C   UNK A   0       8.298   6.351  91.232  1.00  0.00     0.018 A 
HETATM   12  C   UNK A   0       7.269   6.379  92.171  1.00  0.00     0.021 A 
HETATM   13  C   UNK A   0       6.077   7.042  91.879  1.00  0.00     0.010 A 
BRANCH  11  14
HETATM   14  C   UNK A   0       9.521   5.673  91.533  1.00  0.00    -0.061 C 
HETATM   15  C   UNK A   0      10.549   5.103  91.786  1.00  0.00    -0.061 C 
BRANCH  15  16
HETATM   16  C   UNK A   0      11.771   4.424  92.087  1.00  0.00     0.018 A 
HETATM   17  C   UNK A   0      12.783   4.354  91.129  1.00  0.00     0.022 A 
HETATM   18  C   UNK A   0      13.976   3.694  91.424  1.00  0.00     0.018 A 
HETATM   19  C   UNK A   0      14.131   3.121  92.669  1.00  0.00     0.032 A 
HETATM   20  C   UNK A   0      13.146   3.176  93.632  1.00  0.00     0.018 A 
HETATM   21  C   UNK A   0      11.952   3.836  93.339  1.00  0.00     0.022 A 
BRANCH  19  22
HETATM   22  C   UNK A   0      15.401   2.416  92.981  1.00  0.00     0.252 C 
HETATM   23  O   UNK A   0      16.302   3.028  93.551  1.00  0.00    -0.268 OA
ENDBRANCH  19  22
ENDBRANCH  15  16
ENDBRANCH  11  14
ENDBRANCH   7   8
ENDBRANCH   2   7
TORSDOF 9
ENDMDL
MODEL 9
REMARK VINA RESULT:      -6.4      4.902     10.261
REMARK  9 active torsions:
REMARK  status: ('A' for Active; 'I' for Inactive)
REMARK    1  A    between atoms: N_3  and  C_6 
REMARK    2  A    between atoms: C_6  and  C_9 
REMARK    3  A    between atoms: C_14  and  C_17 
REMARK       I    between atoms: N_26  and  C_15 
REMARK    4  A    between atoms: C_15  and  C_16 
REMARK    5  A    between atoms: C_20  and  C_23 
REMARK    6  A    between atoms: OG1_24  and  CB_28 
REMARK    7  A    between atoms: N_26  and  CA_27 
REMARK    8  A    between atoms: CA_27  and  CB_28 
REMARK    9  A    between atoms: CA_27  and  C_30 
ROOT
HETATM    1  O   UNK A   0      11.183   3.890  88.747  1.00  0.00    -0.388 OA
HETATM    2  N   UNK A   0       9.448   5.897  87.715  1.00  0.00     0.096 N 
HETATM    3  C   UNK A   0      10.112   4.927  86.832  1.00  0.00     0.299 C 
HETATM    4  C   UNK A   0      10.267   6.130  88.912  1.00  0.00     0.299 C 
HETATM    5  C   UNK A   0      10.379   3.632  87.594  1.00  0.00     0.198 C 
HETATM    6  C   UNK A   0      10.531   4.808  89.625  1.00  0.00     0.198 C 
ENDROOT
BRANCH   2   7
HETATM    7  C   UNK A   0       9.191   7.150  87.007  1.00  0.00     0.311 C 
BRANCH   7   8
HETATM    8  C   UNK A   0       8.377   8.102  87.816  1.00  0.00    -0.030 A 
HETATM    9  C   UNK A   0       8.945   9.294  88.269  1.00  0.00     0.010 A 
HETATM   10  C   UNK A   0       8.184  10.184  89.027  1.00  0.00     0.021 A 
HETATM   11  C   UNK A   0       6.857   9.883  89.329  1.00  0.00     0.018 A 
HETATM   12  C   UNK A   0       6.289   8.694  88.877  1.00  0.00     0.021 A 
HETATM   13  C   UNK A   0       7.049   7.803  88.120  1.00  0.00     0.010 A 
BRANCH  11  14
HETATM   14  C   UNK A   0       6.076  10.798  90.105  1.00  0.00    -0.061 C 
HETATM   15  C   UNK A   0       5.421  11.566  90.758  1.00  0.00    -0.061 C 
BRANCH  15  16
HETATM   16  C   UNK A   0       4.642  12.480  91.533  1.00  0.00     0.018 A 
HETATM   17  C   UNK A   0       4.021  13.566  90.914  1.00  0.00     0.022 A 
HETATM   18  C   UNK A   0       3.259  14.456  91.671  1.00  0.00     0.018 A 
HETATM   19  C   UNK A   0       3.134  14.241  93.027  1.00  0.00     0.032 A 
HETATM   20  C   UNK A   0       3.738  13.176  93.662  1.00  0.00     0.018 A 
HETATM   21  C   UNK A   0       4.501  12.285  92.907  1.00  0.00     0.022 A 
BRANCH  19  22
HETATM   22  C   UNK A   0       2.324  15.191  93.833  1.00  0.00     0.252 C 
HETATM   23  O   UNK A   0       1.272  15.625  93.369  1.00  0.00    -0.268 OA
ENDBRANCH  19  22
ENDBRANCH  15  16
ENDBRANCH  11  14
ENDBRANCH   7   8
ENDBRANCH   2   7
TORSDOF 9
ENDMDL
