MODEL 1
REMARK VINA RESULT:      -6.5      0.000      0.000
REMARK  14 active torsions:
REMARK  status: ('A' for Active; 'I' for Inactive)
REMARK    1  A    between atoms: O_2  and  C_18 
REMARK    2  A    between atoms: C_5  and  C_8 
REMARK    3  A    between atoms: C_5  and  O_35 
REMARK    4  A    between atoms: C_5  and  C_36 
REMARK    5  A    between atoms: N_6  and  C_11 
REMARK    6  A    between atoms: N_7  and  C_15 
REMARK       I    between atoms: N_7  and  C_24 
REMARK    7  A    between atoms: C_8  and  C_23 
REMARK    8  A    between atoms: C_11  and  C_14 
REMARK    9  A    between atoms: C_15  and  C_18 
REMARK   10  A    between atoms: C_15  and  C_23 
REMARK   11  A    between atoms: C_21  and  C_26 
REMARK   12  A    between atoms: C_24  and  C_25 
REMARK   13  A    between atoms: C_29  and  C_32 
REMARK   14  A    between atoms: C_36  and  O_39 
ROOT
HETATM    1  O   UNL     1      16.445   3.252  93.565  1.00  0.00    -0.350 OA
HETATM    2  N   UNL     1      13.730   2.871  92.801  1.00  0.00     0.147 N 
HETATM    3  C   UNL     1      14.599   1.735  93.141  1.00  0.00     0.283 C 
HETATM    4  C   UNL     1      14.534   3.974  92.258  1.00  0.00     0.283 C 
HETATM    5  C   UNL     1      15.677   2.185  94.124  1.00  0.00     0.178 C 
HETATM    6  C   UNL     1      15.612   4.372  93.260  1.00  0.00     0.178 C 
ENDROOT
BRANCH   2   7
HETATM    7  C   UNL     1      12.696   2.464  91.851  1.00  0.00     0.277 C 
BRANCH   7   8
HETATM    8  C   UNL     1      11.555   3.423  91.809  1.00  0.00     0.011 A 
HETATM    9  C   UNL     1      11.033   3.937  92.997  1.00  0.00    -0.002 A 
HETATM   10  C   UNL     1       9.964   4.832  92.959  1.00  0.00     0.008 A 
HETATM   11  C   UNL     1       9.420   5.215  91.734  1.00  0.00     0.042 A 
HETATM   12  C   UNL     1       9.940   4.703  90.547  1.00  0.00     0.008 A 
HETATM   13  C   UNL     1      11.008   3.807  90.585  1.00  0.00    -0.002 A 
BRANCH  11  14
HETATM   14  C   UNL     1       8.325   6.135  91.695  1.00  0.00    -0.059 C 
HETATM   15  C   UNL     1       7.405   6.908  91.663  1.00  0.00    -0.059 C 
BRANCH  15  16
HETATM   16  C   UNL     1       6.311   7.828  91.625  1.00  0.00     0.042 A 
HETATM   17  C   UNL     1       5.122   7.525  92.290  1.00  0.00     0.008 A 
HETATM   18  C   UNL     1       4.056   8.424  92.255  1.00  0.00     0.005 A 
HETATM   19  C   UNL     1       4.203   9.605  91.558  1.00  0.00     0.056 A 
HETATM   20  C   UNL     1       5.367   9.928  90.893  1.00  0.00     0.005 A 
HETATM   21  C   UNL     1       6.434   9.030  90.927  1.00  0.00     0.008 A 
BRANCH  19  22
HETATM   22  C   UNL     1       3.066  10.562  91.519  1.00  0.00     0.254 C 
HETATM   23  O   UNL     1       1.933  10.138  91.303  1.00  0.00    -0.268 OA
HETATM   24  N   UNL     1       3.382  11.891  91.762  1.00  0.00    -0.335 N 
HETATM   25  HN  UNL     1       4.338  12.164  91.958  1.00  0.00     0.164 HD
BRANCH  24  26
HETATM   26  C   UNL     1       2.387  12.933  91.782  1.00  0.00     0.169 C 
BRANCH  26  27
HETATM   27  C   UNL     1       2.331  13.674  93.124  1.00  0.00     0.138 C 
HETATM   28  C   UNL     1       3.596  13.479  93.952  1.00  0.00     0.034 C 
BRANCH  27  29
HETATM   29  O   UNL     1       2.140  15.069  92.892  1.00  0.00    -0.383 OA
HETATM   30  H   UNL     1       2.463  15.276  91.999  1.00  0.00     0.210 HD
ENDBRANCH  27  29
ENDBRANCH  26  27
BRANCH  26  31
HETATM   31  C   UNL     1       2.691  13.890  90.634  1.00  0.00     0.194 C 
HETATM   32  O   UNL     1       1.813  14.451  89.980  1.00  0.00    -0.289 OA
BRANCH  31  33
HETATM   33  C   UNL     1       4.039  14.011  90.402  1.00  0.00     0.053 C 
BRANCH  33  34
HETATM   34  C   UNL     1       4.405  14.344  89.090  1.00  0.00     0.220 C 
BRANCH  34  35
HETATM   35  O   UNL     1       5.312  15.196  89.153  1.00  0.00    -0.371 OA
HETATM   36  H   UNL     1       5.339  15.293  90.092  1.00  0.00     0.211 HD
ENDBRANCH  34  35
BRANCH  34  37
HETATM   37  C   UNL     1       4.770  13.233  88.311  1.00  0.00     0.185 C 
HETATM   38  O   UNL     1       5.645  13.038  89.286  1.00  0.00    -0.647 OA
BRANCH  37  39
HETATM   39  O   UNL     1       4.453  12.759  87.261  1.00  0.00    -0.774 OA
HETATM   40  H   UNL     1       3.824  11.825  87.397  1.00  0.00     0.167 HD
ENDBRANCH  37  39
ENDBRANCH  34  37
ENDBRANCH  33  34
ENDBRANCH  31  33
ENDBRANCH  26  31
ENDBRANCH  24  26
ENDBRANCH  19  22
ENDBRANCH  15  16
ENDBRANCH  11  14
ENDBRANCH   7   8
ENDBRANCH   2   7
TORSDOF 14
ENDMDL
MODEL 2
REMARK VINA RESULT:      -6.2      2.789      4.131
REMARK  14 active torsions:
REMARK  status: ('A' for Active; 'I' for Inactive)
REMARK    1  A    between atoms: O_2  and  C_18 
REMARK    2  A    between atoms: C_5  and  C_8 
REMARK    3  A    between atoms: C_5  and  O_35 
REMARK    4  A    between atoms: C_5  and  C_36 
REMARK    5  A    between atoms: N_6  and  C_11 
REMARK    6  A    between atoms: N_7  and  C_15 
REMARK       I    between atoms: N_7  and  C_24 
REMARK    7  A    between atoms: C_8  and  C_23 
REMARK    8  A    between atoms: C_11  and  C_14 
REMARK    9  A    between atoms: C_15  and  C_18 
REMARK   10  A    between atoms: C_15  and  C_23 
REMARK   11  A    between atoms: C_21  and  C_26 
REMARK   12  A    between atoms: C_24  and  C_25 
REMARK   13  A    between atoms: C_29  and  C_32 
REMARK   14  A    between atoms: C_36  and  O_39 
ROOT
HETATM    1  O   UNL     1      17.229   4.890  93.686  1.00  0.00    -0.350 OA
HETATM    2  N   UNL     1      15.293   2.804  93.730  1.00  0.00     0.147 N 
HETATM    3  C   UNL     1      16.678   2.558  93.305  1.00  0.00     0.283 C 
HETATM    4  C   UNL     1      14.918   4.195  93.441  1.00  0.00     0.283 C 
HETATM    5  C   UNL     1      17.614   3.549  93.993  1.00  0.00     0.178 C 
HETATM    6  C   UNL     1      15.894   5.147  94.124  1.00  0.00     0.178 C 
ENDROOT
BRANCH   2   7
HETATM    7  C   UNL     1      14.377   1.872  93.075  1.00  0.00     0.277 C 
BRANCH   7   8
HETATM    8  C   UNL     1      13.260   2.569  92.377  1.00  0.00     0.011 A 
HETATM    9  C   UNL     1      11.965   2.497  92.892  1.00  0.00    -0.002 A 
HETATM   10  C   UNL     1      10.918   3.148  92.239  1.00  0.00     0.008 A 
HETATM   11  C   UNL     1      11.167   3.871  91.073  1.00  0.00     0.042 A 
HETATM   12  C   UNL     1      12.460   3.944  90.558  1.00  0.00     0.008 A 
HETATM   13  C   UNL     1      13.507   3.293  91.211  1.00  0.00    -0.002 A 
BRANCH  11  14
HETATM   14  C   UNL     1      10.093   4.540  90.404  1.00  0.00    -0.059 C 
HETATM   15  C   UNL     1       9.191   5.103  89.843  1.00  0.00    -0.059 C 
BRANCH  15  16
HETATM   16  C   UNL     1       8.118   5.772  89.176  1.00  0.00     0.042 A 
HETATM   17  C   UNL     1       6.847   5.795  89.749  1.00  0.00     0.008 A 
HETATM   18  C   UNL     1       5.801   6.450  89.099  1.00  0.00     0.005 A 
HETATM   19  C   UNL     1       6.050   7.068  87.891  1.00  0.00     0.056 A 
HETATM   20  C   UNL     1       7.298   7.060  87.304  1.00  0.00     0.005 A 
HETATM   21  C   UNL     1       8.344   6.405  87.953  1.00  0.00     0.008 A 
BRANCH  19  22
HETATM   22  C   UNL     1       4.936   7.764  87.198  1.00  0.00     0.254 C 
HETATM   23  O   UNL     1       4.967   7.876  85.975  1.00  0.00    -0.268 OA
HETATM   24  N   UNL     1       3.908   8.225  88.009  1.00  0.00    -0.335 N 
HETATM   25  HN  UNL     1       3.939   8.074  89.011  1.00  0.00     0.164 HD
BRANCH  24  26
HETATM   26  C   UNL     1       2.747   8.897  87.484  1.00  0.00     0.169 C 
BRANCH  26  27
HETATM   27  C   UNL     1       1.440   8.162  87.803  1.00  0.00     0.138 C 
HETATM   28  C   UNL     1       1.469   6.702  87.366  1.00  0.00     0.034 C 
BRANCH  27  29
HETATM   29  O   UNL     1       1.190   8.220  89.208  1.00  0.00    -0.383 OA
HETATM   30  H   UNL     1       0.280   7.919  89.368  1.00  0.00     0.210 HD
ENDBRANCH  27  29
ENDBRANCH  26  27
BRANCH  26  31
HETATM   31  C   UNL     1       2.737  10.316  88.045  1.00  0.00     0.194 C 
HETATM   32  O   UNL     1       1.951  11.181  87.664  1.00  0.00    -0.289 OA
BRANCH  31  33
HETATM   33  C   UNL     1       3.722  10.510  88.983  1.00  0.00     0.053 C 
BRANCH  33  34
HETATM   34  C   UNL     1       4.539  11.633  88.786  1.00  0.00     0.220 C 
BRANCH  34  35
HETATM   35  O   UNL     1       4.717  11.764  87.560  1.00  0.00    -0.371 OA
HETATM   36  H   UNL     1       3.863  11.478  87.271  1.00  0.00     0.211 HD
ENDBRANCH  34  35
BRANCH  34  37
HETATM   37  C   UNL     1       4.035  12.802  89.380  1.00  0.00     0.185 C 
HETATM   38  O   UNL     1       5.096  12.671  90.162  1.00  0.00    -0.647 OA
BRANCH  37  39
HETATM   39  O   UNL     1       3.082  13.510  89.247  1.00  0.00    -0.774 OA
HETATM   40  H   UNL     1       2.308  13.327  90.056  1.00  0.00     0.167 HD
ENDBRANCH  37  39
ENDBRANCH  34  37
ENDBRANCH  33  34
ENDBRANCH  31  33
ENDBRANCH  26  31
ENDBRANCH  24  26
ENDBRANCH  19  22
ENDBRANCH  15  16
ENDBRANCH  11  14
ENDBRANCH   7   8
ENDBRANCH   2   7
TORSDOF 14
ENDMDL
MODEL 3
REMARK VINA RESULT:      -6.2      1.481      2.205
REMARK  14 active torsions:
REMARK  status: ('A' for Active; 'I' for Inactive)
REMARK    1  A    between atoms: O_2  and  C_18 
REMARK    2  A    between atoms: C_5  and  C_8 
REMARK    3  A    between atoms: C_5  and  O_35 
REMARK    4  A    between atoms: C_5  and  C_36 
REMARK    5  A    between atoms: N_6  and  C_11 
REMARK    6  A    between atoms: N_7  and  C_15 
REMARK       I    between atoms: N_7  and  C_24 
REMARK    7  A    between atoms: C_8  and  C_23 
REMARK    8  A    between atoms: C_11  and  C_14 
REMARK    9  A    between atoms: C_15  and  C_18 
REMARK   10  A    between atoms: C_15  and  C_23 
REMARK   11  A    between atoms: C_21  and  C_26 
REMARK   12  A    between atoms: C_24  and  C_25 
REMARK   13  A    between atoms: C_29  and  C_32 
REMARK   14  A    between atoms: C_36  and  O_39 
ROOT
HETATM    1  O   UNL     1      16.415   4.327  93.989  1.00  0.00    -0.350 OA
HETATM    2  N   UNL     1      14.469   2.723  92.670  1.00  0.00     0.147 N 
HETATM    3  C   UNL     1      14.462   4.188  92.555  1.00  0.00     0.283 C 
HETATM    4  C   UNL     1      15.051   2.322  93.959  1.00  0.00     0.283 C 
HETATM    5  C   UNL     1      15.880   4.726  92.726  1.00  0.00     0.178 C 
HETATM    6  C   UNL     1      16.454   2.904  94.097  1.00  0.00     0.178 C 
ENDROOT
BRANCH   2   7
HETATM    7  C   UNL     1      13.118   2.185  92.521  1.00  0.00     0.277 C 
BRANCH   7   8
HETATM    8  C   UNL     1      12.077   3.252  92.540  1.00  0.00     0.011 A 
HETATM    9  C   UNL     1      11.262   3.451  91.425  1.00  0.00    -0.002 A 
HETATM   10  C   UNL     1      10.289   4.450  91.441  1.00  0.00     0.008 A 
HETATM   11  C   UNL     1      10.131   5.249  92.573  1.00  0.00     0.042 A 
HETATM   12  C   UNL     1      10.944   5.052  93.687  1.00  0.00     0.008 A 
HETATM   13  C   UNL     1      11.917   4.053  93.671  1.00  0.00    -0.002 A 
BRANCH  11  14
HETATM   14  C   UNL     1       9.131   6.273  92.591  1.00  0.00    -0.059 C 
HETATM   15  C   UNL     1       8.291   7.133  92.606  1.00  0.00    -0.059 C 
BRANCH  15  16
HETATM   16  C   UNL     1       7.293   8.156  92.624  1.00  0.00     0.042 A 
HETATM   17  C   UNL     1       7.672   9.499  92.649  1.00  0.00     0.008 A 
HETATM   18  C   UNL     1       6.698  10.497  92.664  1.00  0.00     0.005 A 
HETATM   19  C   UNL     1       5.368  10.131  92.653  1.00  0.00     0.056 A 
HETATM   20  C   UNL     1       4.968   8.812  92.629  1.00  0.00     0.005 A 
HETATM   21  C   UNL     1       5.941   7.813  92.614  1.00  0.00     0.008 A 
BRANCH  19  22
HETATM   22  C   UNL     1       4.331  11.195  92.671  1.00  0.00     0.254 C 
HETATM   23  O   UNL     1       3.429  11.140  93.503  1.00  0.00    -0.268 OA
HETATM   24  N   UNL     1       4.483  12.208  91.734  1.00  0.00    -0.335 N 
HETATM   25  HN  UNL     1       5.268  12.201  91.094  1.00  0.00     0.164 HD
BRANCH  24  26
HETATM   26  C   UNL     1       3.573  13.322  91.642  1.00  0.00     0.169 C 
BRANCH  26  27
HETATM   27  C   UNL     1       4.098  14.577  92.352  1.00  0.00     0.138 C 
HETATM   28  C   UNL     1       4.952  15.449  91.440  1.00  0.00     0.034 C 
BRANCH  27  29
HETATM   29  O   UNL     1       2.997  15.348  92.833  1.00  0.00    -0.383 OA
HETATM   30  H   UNL     1       3.327  16.227  93.084  1.00  0.00     0.210 HD
ENDBRANCH  27  29
ENDBRANCH  26  27
BRANCH  26  31
HETATM   31  C   UNL     1       3.313  13.590  90.164  1.00  0.00     0.194 C 
HETATM   32  O   UNL     1       2.325  14.199  89.757  1.00  0.00    -0.289 OA
BRANCH  31  33
HETATM   33  C   UNL     1       4.281  13.040  89.358  1.00  0.00     0.053 C 
BRANCH  33  34
HETATM   34  C   UNL     1       3.815  12.327  88.245  1.00  0.00     0.220 C 
BRANCH  34  35
HETATM   35  O   UNL     1       4.386  12.782  87.236  1.00  0.00    -0.371 OA
HETATM   36  H   UNL     1       4.230  12.053  86.655  1.00  0.00     0.211 HD
ENDBRANCH  34  35
BRANCH  34  37
HETATM   37  C   UNL     1       3.974  10.935  88.365  1.00  0.00     0.185 C 
HETATM   38  O   UNL     1       2.748  10.914  87.865  1.00  0.00    -0.647 OA
BRANCH  37  39
HETATM   39  O   UNL     1       4.806  10.182  88.773  1.00  0.00    -0.774 OA
HETATM   40  H   UNL     1       4.951  10.285  89.894  1.00  0.00     0.167 HD
ENDBRANCH  37  39
ENDBRANCH  34  37
ENDBRANCH  33  34
ENDBRANCH  31  33
ENDBRANCH  26  31
ENDBRANCH  24  26
ENDBRANCH  19  22
ENDBRANCH  15  16
ENDBRANCH  11  14
ENDBRANCH   7   8
ENDBRANCH   2   7
TORSDOF 14
ENDMDL
MODEL 4
REMARK VINA RESULT:      -4.9      2.613     13.043
REMARK  14 active torsions:
REMARK  status: ('A' for Active; 'I' for Inactive)
REMARK    1  A    between atoms: O_2  and  C_18 
REMARK    2  A    between atoms: C_5  and  C_8 
REMARK    3  A    between atoms: C_5  and  O_35 
REMARK    4  A    between atoms: C_5  and  C_36 
REMARK    5  A    between atoms: N_6  and  C_11 
REMARK    6  A    between atoms: N_7  and  C_15 
REMARK       I    between atoms: N_7  and  C_24 
REMARK    7  A    between atoms: C_8  and  C_23 
REMARK    8  A    between atoms: C_11  and  C_14 
REMARK    9  A    between atoms: C_15  and  C_18 
REMARK   10  A    between atoms: C_15  and  C_23 
REMARK   11  A    between atoms: C_21  and  C_26 
REMARK   12  A    between atoms: C_24  and  C_25 
REMARK   13  A    between atoms: C_29  and  C_32 
REMARK   14  A    between atoms: C_36  and  O_39 
ROOT
HETATM    1  O   UNL     1       2.884  15.094  94.070  1.00  0.00    -0.350 OA
HETATM    2  N   UNL     1       2.651  14.537  91.288  1.00  0.00     0.147 N 
HETATM    3  C   UNL     1       1.510  14.380  92.201  1.00  0.00     0.283 C 
HETATM    4  C   UNL     1       3.910  14.316  92.013  1.00  0.00     0.283 C 
HETATM    5  C   UNL     1       1.657  15.338  93.381  1.00  0.00     0.178 C 
HETATM    6  C   UNL     1       4.000  15.274  93.197  1.00  0.00     0.178 C 
ENDROOT
BRANCH   2   7
HETATM    7  C   UNL     1       2.536  13.620  90.155  1.00  0.00     0.277 C 
BRANCH   7   8
HETATM    8  C   UNL     1       3.537  12.517  90.213  1.00  0.00     0.011 A 
HETATM    9  C   UNL     1       3.211  11.313  90.838  1.00  0.00    -0.002 A 
HETATM   10  C   UNL     1       4.148  10.281  90.895  1.00  0.00     0.008 A 
HETATM   11  C   UNL     1       5.409  10.453  90.325  1.00  0.00     0.042 A 
HETATM   12  C   UNL     1       5.736  11.655  89.701  1.00  0.00     0.008 A 
HETATM   13  C   UNL     1       4.800  12.688  89.644  1.00  0.00    -0.002 A 
BRANCH  11  14
HETATM   14  C   UNL     1       6.369   9.394  90.382  1.00  0.00    -0.059 C 
HETATM   15  C   UNL     1       7.176   8.503  90.429  1.00  0.00    -0.059 C 
BRANCH  15  16
HETATM   16  C   UNL     1       8.135   7.445  90.485  1.00  0.00     0.042 A 
HETATM   17  C   UNL     1       9.112   7.338  89.494  1.00  0.00     0.008 A 
HETATM   18  C   UNL     1      10.050   6.307  89.550  1.00  0.00     0.005 A 
HETATM   19  C   UNL     1       9.991   5.408  90.594  1.00  0.00     0.056 A 
HETATM   20  C   UNL     1       9.035   5.492  91.585  1.00  0.00     0.005 A 
HETATM   21  C   UNL     1       8.097   6.523  91.530  1.00  0.00     0.008 A 
BRANCH  19  22
HETATM   22  C   UNL     1      10.989   4.309  90.653  1.00  0.00     0.254 C 
HETATM   23  O   UNL     1      10.961   3.428  89.797  1.00  0.00    -0.268 OA
HETATM   24  N   UNL     1      11.913   4.381  91.685  1.00  0.00    -0.335 N 
HETATM   25  HN  UNL     1      11.890   5.153  92.341  1.00  0.00     0.164 HD
BRANCH  24  26
HETATM   26  C   UNL     1      12.958   3.404  91.861  1.00  0.00     0.169 C 
BRANCH  26  27
HETATM   27  C   UNL     1      14.264   3.799  91.160  1.00  0.00     0.138 C 
HETATM   28  C   UNL     1      14.359   3.242  89.744  1.00  0.00     0.034 C 
BRANCH  27  29
HETATM   29  O   UNL     1      14.365   5.222  91.106  1.00  0.00    -0.383 OA
HETATM   30  H   UNL     1      13.844   5.536  90.348  1.00  0.00     0.210 HD
ENDBRANCH  27  29
ENDBRANCH  26  27
BRANCH  26  31
HETATM   31  C   UNL     1      13.169   3.211  93.359  1.00  0.00     0.194 C 
HETATM   32  O   UNL     1      12.353   2.642  94.082  1.00  0.00    -0.289 OA
BRANCH  31  33
HETATM   33  C   UNL     1      14.342   3.778  93.795  1.00  0.00     0.053 C 
BRANCH  33  34
HETATM   34  C   UNL     1      15.367   2.880  94.124  1.00  0.00     0.220 C 
BRANCH  34  35
HETATM   35  O   UNL     1      15.172   1.830  93.485  1.00  0.00    -0.371 OA
HETATM   36  H   UNL     1      14.233   1.893  93.408  1.00  0.00     0.211 HD
ENDBRANCH  34  35
BRANCH  34  37
HETATM   37  C   UNL     1      16.656   3.401  93.914  1.00  0.00     0.185 C 
HETATM   38  O   UNL     1      16.009   4.556  93.879  1.00  0.00    -0.647 OA
BRANCH  37  39
HETATM   39  O   UNL     1      17.763   2.971  93.787  1.00  0.00    -0.774 OA
HETATM   40  H   UNL     1      18.369   3.586  93.051  1.00  0.00     0.167 HD
ENDBRANCH  37  39
ENDBRANCH  34  37
ENDBRANCH  33  34
ENDBRANCH  31  33
ENDBRANCH  26  31
ENDBRANCH  24  26
ENDBRANCH  19  22
ENDBRANCH  15  16
ENDBRANCH  11  14
ENDBRANCH   7   8
ENDBRANCH   2   7
TORSDOF 14
ENDMDL
MODEL 5
REMARK VINA RESULT:      -3.8      1.575      2.005
REMARK  14 active torsions:
REMARK  status: ('A' for Active; 'I' for Inactive)
REMARK    1  A    between atoms: O_2  and  C_18 
REMARK    2  A    between atoms: C_5  and  C_8 
REMARK    3  A    between atoms: C_5  and  O_35 
REMARK    4  A    between atoms: C_5  and  C_36 
REMARK    5  A    between atoms: N_6  and  C_11 
REMARK    6  A    between atoms: N_7  and  C_15 
REMARK       I    between atoms: N_7  and  C_24 
REMARK    7  A    between atoms: C_8  and  C_23 
REMARK    8  A    between atoms: C_11  and  C_14 
REMARK    9  A    between atoms: C_15  and  C_18 
REMARK   10  A    between atoms: C_15  and  C_23 
REMARK   11  A    between atoms: C_21  and  C_26 
REMARK   12  A    between atoms: C_24  and  C_25 
REMARK   13  A    between atoms: C_29  and  C_32 
REMARK   14  A    between atoms: C_36  and  O_39 
ROOT
HETATM    1  O   UNL     1      14.733   4.738  90.510  1.00  0.00    -0.350 OA
HETATM    2  N   UNL     1      13.334   2.919  92.194  1.00  0.00     0.147 N 
HETATM    3  C   UNL     1      12.812   3.299  90.874  1.00  0.00     0.283 C 
HETATM    4  C   UNL     1      14.145   4.012  92.748  1.00  0.00     0.283 C 
HETATM    5  C   UNL     1      13.969   3.669  89.948  1.00  0.00     0.178 C 
HETATM    6  C   UNL     1      15.269   4.365  91.780  1.00  0.00     0.178 C 
ENDROOT
BRANCH   2   7
HETATM    7  C   UNL     1      12.242   2.571  93.101  1.00  0.00     0.277 C 
BRANCH   7   8
HETATM    8  C   UNL     1      11.166   3.603  93.118  1.00  0.00     0.011 A 
HETATM    9  C   UNL     1      11.224   4.655  94.034  1.00  0.00    -0.002 A 
HETATM   10  C   UNL     1      10.217   5.620  94.052  1.00  0.00     0.008 A 
HETATM   11  C   UNL     1       9.155   5.534  93.153  1.00  0.00     0.042 A 
HETATM   12  C   UNL     1       9.096   4.485  92.238  1.00  0.00     0.008 A 
HETATM   13  C   UNL     1      10.102   3.519  92.220  1.00  0.00    -0.002 A 
BRANCH  11  14
HETATM   14  C   UNL     1       8.123   6.526  93.170  1.00  0.00    -0.059 C 
HETATM   15  C   UNL     1       7.257   7.359  93.185  1.00  0.00    -0.059 C 
BRANCH  15  16
HETATM   16  C   UNL     1       6.227   8.350  93.201  1.00  0.00     0.042 A 
HETATM   17  C   UNL     1       6.274   9.419  92.306  1.00  0.00     0.008 A 
HETATM   18  C   UNL     1       5.267  10.385  92.320  1.00  0.00     0.005 A 
HETATM   19  C   UNL     1       4.237  10.259  93.228  1.00  0.00     0.056 A 
HETATM   20  C   UNL     1       4.167   9.213  94.124  1.00  0.00     0.005 A 
HETATM   21  C   UNL     1       5.174   8.247  94.110  1.00  0.00     0.008 A 
BRANCH  19  22
HETATM   22  C   UNL     1       3.166  11.289  93.245  1.00  0.00     0.254 C 
HETATM   23  O   UNL     1       2.223  11.162  94.022  1.00  0.00    -0.268 OA
HETATM   24  N   UNL     1       3.334  12.355  92.372  1.00  0.00    -0.335 N 
HETATM   25  HN  UNL     1       4.152  12.406  91.776  1.00  0.00     0.164 HD
BRANCH  24  26
HETATM   26  C   UNL     1       2.394  13.445  92.288  1.00  0.00     0.169 C 
BRANCH  26  27
HETATM   27  C   UNL     1       2.739  14.600  93.236  1.00  0.00     0.138 C 
HETATM   28  C   UNL     1       4.047  15.290  92.864  1.00  0.00     0.034 C 
BRANCH  27  29
HETATM   29  O   UNL     1       1.686  15.563  93.218  1.00  0.00    -0.383 OA
HETATM   30  H   UNL     1       1.317  15.628  94.115  1.00  0.00     0.210 HD
ENDBRANCH  27  29
ENDBRANCH  26  27
BRANCH  26  31
HETATM   31  C   UNL     1       2.351  13.912  90.837  1.00  0.00     0.194 C 
HETATM   32  O   UNL     1       1.731  14.909  90.473  1.00  0.00    -0.289 OA
BRANCH  31  33
HETATM   33  C   UNL     1       3.046  13.073  90.001  1.00  0.00     0.053 C 
BRANCH  33  34
HETATM   34  C   UNL     1       4.184  13.622  89.392  1.00  0.00     0.220 C 
BRANCH  34  35
HETATM   35  O   UNL     1       5.124  13.546  90.206  1.00  0.00    -0.371 OA
HETATM   36  H   UNL     1       5.668  12.942  89.723  1.00  0.00     0.211 HD
ENDBRANCH  34  35
BRANCH  34  37
HETATM   37  C   UNL     1       4.498  13.031  88.156  1.00  0.00     0.185 C 
HETATM   38  O   UNL     1       4.981  14.234  87.886  1.00  0.00    -0.647 OA
BRANCH  37  39
HETATM   39  O   UNL     1       4.343  11.971  87.630  1.00  0.00    -0.774 OA
HETATM   40  H   UNL     1       3.535  11.362  88.145  1.00  0.00     0.167 HD
ENDBRANCH  37  39
ENDBRANCH  34  37
ENDBRANCH  33  34
ENDBRANCH  31  33
ENDBRANCH  26  31
ENDBRANCH  24  26
ENDBRANCH  19  22
ENDBRANCH  15  16
ENDBRANCH  11  14
ENDBRANCH   7   8
ENDBRANCH   2   7
TORSDOF 14
ENDMDL
