MODEL 1
REMARK VINA RESULT:      -7.1      0.000      0.000
REMARK  10 active torsions:
REMARK  status: ('A' for Active; 'I' for Inactive)
REMARK    1  A    between atoms: O_2  and  C_16 
REMARK    2  A    between atoms: N_5  and  C_9 
REMARK    3  A    between atoms: N_6  and  C_13 
REMARK       I    between atoms: N_6  and  C_22 
REMARK    4  A    between atoms: C_9  and  C_12 
REMARK    5  A    between atoms: C_13  and  C_16 
REMARK    6  A    between atoms: C_13  and  C_21 
REMARK    7  A    between atoms: C_19  and  C_24 
REMARK    8  A    between atoms: C_22  and  C_23 
REMARK    9  A    between atoms: C_27  and  C_30 
REMARK   10  A    between atoms: N_33  and  S_34 
ROOT
HETATM    1  C   UNL     1       5.801  11.022  89.629  1.00  0.00     0.056 A 
HETATM    2  C   UNL     1       5.277   9.872  90.182  1.00  0.00     0.005 A 
HETATM    3  C   UNL     1       7.143  11.155  89.340  1.00  0.00     0.005 A 
HETATM    4  C   UNL     1       7.495   8.917  90.177  1.00  0.00     0.042 A 
HETATM    5  C   UNL     1       6.134   8.807  90.460  1.00  0.00     0.008 A 
HETATM    6  C   UNL     1       8.000  10.090  89.617  1.00  0.00     0.008 A 
ENDROOT
BRANCH   1   7
HETATM    7  C   UNL     1       4.888  12.156  89.331  1.00  0.00     0.254 C 
HETATM    8  O   UNL     1       4.839  12.603  88.188  1.00  0.00    -0.268 OA
HETATM    9  N   UNL     1       4.123  12.616  90.394  1.00  0.00    -0.337 N 
HETATM   10  HN  UNL     1       4.198  12.181  91.306  1.00  0.00     0.164 HD
BRANCH   9  11
HETATM   11  C   UNL     1       3.174  13.692  90.259  1.00  0.00     0.172 C 
BRANCH  11  12
HETATM   12  C   UNL     1       1.950  13.522  91.167  1.00  0.00     0.136 C 
HETATM   13  C   UNL     1       2.085  12.332  92.111  1.00  0.00     0.034 C 
BRANCH  12  14
HETATM   14  O   UNL     1       1.760  14.707  91.939  1.00  0.00    -0.383 OA
HETATM   15  H   UNL     1       1.257  14.474  92.737  1.00  0.00     0.210 HD
ENDBRANCH  12  14
ENDBRANCH  11  12
BRANCH  11  16
HETATM   16  C   UNL     1       3.906  14.998  90.553  1.00  0.00     0.398 A 
HETATM   17  O   UNL     1       4.969  15.305  90.018  1.00  0.00    -0.136 OA
HETATM   18  N   UNL     1       5.020  15.608  91.506  1.00  0.00     0.142 N 
HETATM   19  HN  UNL     1       5.912  15.936  91.263  1.00  0.00     0.338 HD
BRANCH  18  20
HETATM   20  S   UNL     1       4.443  15.285  92.729  1.00  0.00     0.076 SA
HETATM   21  H   UNL     1       5.174  15.235  93.664  1.00  0.00     0.136 HD
ENDBRANCH  18  20
ENDBRANCH  11  16
ENDBRANCH   9  11
ENDBRANCH   1   7
BRANCH   4  22
HETATM   22  C   UNL     1       8.374   7.826  90.464  1.00  0.00    -0.059 C 
HETATM   23  C   UNL     1       9.113   6.909  90.706  1.00  0.00    -0.059 C 
BRANCH  23  24
HETATM   24  C   UNL     1       9.993   5.818  90.994  1.00  0.00     0.042 A 
HETATM   25  C   UNL     1      10.612   5.129  89.951  1.00  0.00     0.008 A 
HETATM   26  C   UNL     1      11.468   4.064  90.231  1.00  0.00    -0.002 A 
HETATM   27  C   UNL     1      11.706   3.691  91.555  1.00  0.00     0.011 A 
HETATM   28  C   UNL     1      11.087   4.382  92.596  1.00  0.00    -0.002 A 
HETATM   29  C   UNL     1      10.231   5.446  92.315  1.00  0.00     0.008 A 
BRANCH  27  30
HETATM   30  C   UNL     1      12.624   2.554  91.853  1.00  0.00     0.277 C 
BRANCH  30  31
HETATM   31  N   UNL     1      13.658   2.912  92.822  1.00  0.00     0.147 N 
HETATM   32  C   UNL     1      14.520   1.759  93.113  1.00  0.00     0.283 C 
HETATM   33  C   UNL     1      15.597   2.159  94.118  1.00  0.00     0.178 C 
HETATM   34  O   UNL     1      16.373   3.246  93.609  1.00  0.00    -0.350 OA
HETATM   35  C   UNL     1      15.546   4.382  93.353  1.00  0.00     0.178 C 
HETATM   36  C   UNL     1      14.468   4.035  92.331  1.00  0.00     0.283 C 
ENDBRANCH  30  31
ENDBRANCH  27  30
ENDBRANCH  23  24
ENDBRANCH   4  22
TORSDOF 10
ENDMDL
MODEL 2
REMARK VINA RESULT:      -7.1      1.283      1.458
REMARK  10 active torsions:
REMARK  status: ('A' for Active; 'I' for Inactive)
REMARK    1  A    between atoms: O_2  and  C_16 
REMARK    2  A    between atoms: N_5  and  C_9 
REMARK    3  A    between atoms: N_6  and  C_13 
REMARK       I    between atoms: N_6  and  C_22 
REMARK    4  A    between atoms: C_9  and  C_12 
REMARK    5  A    between atoms: C_13  and  C_16 
REMARK    6  A    between atoms: C_13  and  C_21 
REMARK    7  A    between atoms: C_19  and  C_24 
REMARK    8  A    between atoms: C_22  and  C_23 
REMARK    9  A    between atoms: C_27  and  C_30 
REMARK   10  A    between atoms: N_33  and  S_34 
ROOT
HETATM    1  C   UNL     1       4.830   9.730  90.388  1.00  0.00     0.056 A 
HETATM    2  C   UNL     1       4.567   8.400  90.132  1.00  0.00     0.005 A 
HETATM    3  C   UNL     1       6.060  10.163  90.838  1.00  0.00     0.005 A 
HETATM    4  C   UNL     1       6.830   7.874  90.791  1.00  0.00     0.042 A 
HETATM    5  C   UNL     1       5.577   7.461  90.335  1.00  0.00     0.008 A 
HETATM    6  C   UNL     1       7.071   9.225  91.042  1.00  0.00     0.008 A 
ENDROOT
BRANCH   1   7
HETATM    7  C   UNL     1       3.753  10.730  90.169  1.00  0.00     0.254 C 
HETATM    8  O   UNL     1       2.713  10.380  89.617  1.00  0.00    -0.268 OA
HETATM    9  N   UNL     1       4.008  12.010  90.640  1.00  0.00    -0.337 N 
HETATM   10  HN  UNL     1       4.882  12.220  91.109  1.00  0.00     0.164 HD
BRANCH   9  11
HETATM   11  C   UNL     1       3.053  13.083  90.525  1.00  0.00     0.172 C 
BRANCH  11  12
HETATM   12  C   UNL     1       2.705  13.716  91.878  1.00  0.00     0.136 C 
HETATM   13  C   UNL     1       1.202  13.873  92.080  1.00  0.00     0.034 C 
BRANCH  12  14
HETATM   14  O   UNL     1       3.233  12.911  92.931  1.00  0.00    -0.383 OA
HETATM   15  H   UNL     1       3.527  12.066  92.551  1.00  0.00     0.210 HD
ENDBRANCH  12  14
ENDBRANCH  11  12
BRANCH  11  16
HETATM   16  C   UNL     1       3.628  14.117  89.561  1.00  0.00     0.398 A 
HETATM   17  O   UNL     1       4.292  13.813  88.571  1.00  0.00    -0.136 OA
HETATM   18  N   UNL     1       4.937  14.979  89.303  1.00  0.00     0.142 N 
HETATM   19  HN  UNL     1       5.572  14.908  88.558  1.00  0.00     0.338 HD
BRANCH  18  20
HETATM   20  S   UNL     1       5.007  15.620  90.534  1.00  0.00     0.076 SA
HETATM   21  H   UNL     1       4.906  14.931  91.498  1.00  0.00     0.136 HD
ENDBRANCH  18  20
ENDBRANCH  11  16
ENDBRANCH   9  11
ENDBRANCH   1   7
BRANCH   4  22
HETATM   22  C   UNL     1       7.865   6.911  91.002  1.00  0.00    -0.059 C 
HETATM   23  C   UNL     1       8.736   6.101  91.180  1.00  0.00    -0.059 C 
BRANCH  23  24
HETATM   24  C   UNL     1       9.772   5.138  91.391  1.00  0.00     0.042 A 
HETATM   25  C   UNL     1      10.304   4.439  90.307  1.00  0.00     0.008 A 
HETATM   26  C   UNL     1      11.313   3.498  90.513  1.00  0.00    -0.002 A 
HETATM   27  C   UNL     1      11.791   3.259  91.802  1.00  0.00     0.011 A 
HETATM   28  C   UNL     1      11.259   3.959  92.884  1.00  0.00    -0.002 A 
HETATM   29  C   UNL     1      10.249   4.899  92.678  1.00  0.00     0.008 A 
BRANCH  27  30
HETATM   30  C   UNL     1      12.872   2.255  92.020  1.00  0.00     0.277 C 
BRANCH  30  31
HETATM   31  N   UNL     1      13.892   2.728  92.954  1.00  0.00     0.147 N 
HETATM   32  C   UNL     1      14.929   1.706  93.154  1.00  0.00     0.283 C 
HETATM   33  C   UNL     1      15.987   2.227  94.123  1.00  0.00     0.178 C 
HETATM   34  O   UNL     1      16.566   3.434  93.624  1.00  0.00    -0.350 OA
HETATM   35  C   UNL     1      15.570   4.443  93.456  1.00  0.00     0.178 C 
HETATM   36  C   UNL     1      14.501   3.976  92.473  1.00  0.00     0.283 C 
ENDBRANCH  30  31
ENDBRANCH  27  30
ENDBRANCH  23  24
ENDBRANCH   4  22
TORSDOF 10
ENDMDL
MODEL 3
REMARK VINA RESULT:      -6.6      1.235      1.639
REMARK  10 active torsions:
REMARK  status: ('A' for Active; 'I' for Inactive)
REMARK    1  A    between atoms: O_2  and  C_16 
REMARK    2  A    between atoms: N_5  and  C_9 
REMARK    3  A    between atoms: N_6  and  C_13 
REMARK       I    between atoms: N_6  and  C_22 
REMARK    4  A    between atoms: C_9  and  C_12 
REMARK    5  A    between atoms: C_13  and  C_16 
REMARK    6  A    between atoms: C_13  and  C_21 
REMARK    7  A    between atoms: C_19  and  C_24 
REMARK    8  A    between atoms: C_22  and  C_23 
REMARK    9  A    between atoms: C_27  and  C_30 
REMARK   10  A    between atoms: N_33  and  S_34 
ROOT
HETATM    1  C   UNL     1       4.623   9.842  90.444  1.00  0.00     0.056 A 
HETATM    2  C   UNL     1       5.109   9.584  91.708  1.00  0.00     0.005 A 
HETATM    3  C   UNL     1       5.128   9.223  89.320  1.00  0.00     0.005 A 
HETATM    4  C   UNL     1       6.678   8.026  90.734  1.00  0.00     0.042 A 
HETATM    5  C   UNL     1       6.149   8.666  91.856  1.00  0.00     0.008 A 
HETATM    6  C   UNL     1       6.168   8.305  89.466  1.00  0.00     0.008 A 
ENDROOT
BRANCH   1   7
HETATM    7  C   UNL     1       3.514  10.819  90.287  1.00  0.00     0.254 C 
HETATM    8  O   UNL     1       2.669  10.632  89.415  1.00  0.00    -0.268 OA
HETATM    9  N   UNL     1       3.508  11.881  91.181  1.00  0.00    -0.337 N 
HETATM   10  HN  UNL     1       4.226  11.957  91.892  1.00  0.00     0.164 HD
BRANCH   9  11
HETATM   11  C   UNL     1       2.486  12.897  91.172  1.00  0.00     0.172 C 
BRANCH  11  12
HETATM   12  C   UNL     1       2.074  13.336  92.583  1.00  0.00     0.136 C 
HETATM   13  C   UNL     1       3.156  13.057  93.620  1.00  0.00     0.034 C 
BRANCH  12  14
HETATM   14  O   UNL     1       1.783  14.734  92.581  1.00  0.00    -0.383 OA
HETATM   15  H   UNL     1       0.817  14.844  92.590  1.00  0.00     0.210 HD
ENDBRANCH  12  14
ENDBRANCH  11  12
BRANCH  11  16
HETATM   16  C   UNL     1       3.007  14.074  90.354  1.00  0.00     0.398 A 
HETATM   17  O   UNL     1       3.506  13.946  89.238  1.00  0.00    -0.136 OA
HETATM   18  N   UNL     1       4.333  14.904  90.079  1.00  0.00     0.142 N 
HETATM   19  HN  UNL     1       4.855  14.954  89.250  1.00  0.00     0.338 HD
BRANCH  18  20
HETATM   20  S   UNL     1       4.618  15.276  91.388  1.00  0.00     0.076 SA
HETATM   21  H   UNL     1       3.714  15.713  92.024  1.00  0.00     0.136 HD
ENDBRANCH  18  20
ENDBRANCH  11  16
ENDBRANCH   9  11
ENDBRANCH   1   7
BRANCH   4  22
HETATM   22  C   UNL     1       7.745   7.087  90.885  1.00  0.00    -0.059 C 
HETATM   23  C   UNL     1       8.643   6.298  91.013  1.00  0.00    -0.059 C 
BRANCH  23  24
HETATM   24  C   UNL     1       9.712   5.359  91.165  1.00  0.00     0.042 A 
HETATM   25  C   UNL     1      10.005   4.836  92.424  1.00  0.00     0.008 A 
HETATM   26  C   UNL     1      11.048   3.922  92.572  1.00  0.00    -0.002 A 
HETATM   27  C   UNL     1      11.795   3.529  91.461  1.00  0.00     0.011 A 
HETATM   28  C   UNL     1      11.500   4.053  90.202  1.00  0.00    -0.002 A 
HETATM   29  C   UNL     1      10.457   4.968  90.054  1.00  0.00     0.008 A 
BRANCH  27  30
HETATM   30  C   UNL     1      12.908   2.550  91.621  1.00  0.00     0.277 C 
BRANCH  30  31
HETATM   31  N   UNL     1      13.801   2.898  92.725  1.00  0.00     0.147 N 
HETATM   32  C   UNL     1      14.763   1.815  92.976  1.00  0.00     0.283 C 
HETATM   33  C   UNL     1      15.691   2.205  94.124  1.00  0.00     0.178 C 
HETATM   34  O   UNL     1      16.377   3.420  93.818  1.00  0.00    -0.350 OA
HETATM   35  C   UNL     1      15.449   4.485  93.603  1.00  0.00     0.178 C 
HETATM   36  C   UNL     1      14.516   4.151  92.444  1.00  0.00     0.283 C 
ENDBRANCH  30  31
ENDBRANCH  27  30
ENDBRANCH  23  24
ENDBRANCH   4  22
TORSDOF 10
ENDMDL
MODEL 4
REMARK VINA RESULT:      -6.3      1.395      2.014
REMARK  10 active torsions:
REMARK  status: ('A' for Active; 'I' for Inactive)
REMARK    1  A    between atoms: O_2  and  C_16 
REMARK    2  A    between atoms: N_5  and  C_9 
REMARK    3  A    between atoms: N_6  and  C_13 
REMARK       I    between atoms: N_6  and  C_22 
REMARK    4  A    between atoms: C_9  and  C_12 
REMARK    5  A    between atoms: C_13  and  C_16 
REMARK    6  A    between atoms: C_13  and  C_21 
REMARK    7  A    between atoms: C_19  and  C_24 
REMARK    8  A    between atoms: C_22  and  C_23 
REMARK    9  A    between atoms: C_27  and  C_30 
REMARK   10  A    between atoms: N_33  and  S_34 
ROOT
HETATM    1  C   UNL     1       5.417  10.657  90.795  1.00  0.00     0.056 A 
HETATM    2  C   UNL     1       5.062   9.571  91.567  1.00  0.00     0.005 A 
HETATM    3  C   UNL     1       6.654  10.760  90.193  1.00  0.00     0.005 A 
HETATM    4  C   UNL     1       7.244   8.621  91.149  1.00  0.00     0.042 A 
HETATM    5  C   UNL     1       5.986   8.541  91.747  1.00  0.00     0.008 A 
HETATM    6  C   UNL     1       7.578   9.730  90.372  1.00  0.00     0.008 A 
ENDROOT
BRANCH   1   7
HETATM    7  C   UNL     1       4.433  11.753  90.602  1.00  0.00     0.254 C 
HETATM    8  O   UNL     1       3.556  11.629  89.750  1.00  0.00    -0.268 OA
HETATM    9  N   UNL     1       4.572  12.850  91.441  1.00  0.00    -0.337 N 
HETATM   10  HN  UNL     1       5.306  12.871  92.140  1.00  0.00     0.164 HD
BRANCH   9  11
HETATM   11  C   UNL     1       3.681  13.981  91.393  1.00  0.00     0.172 C 
BRANCH  11  12
HETATM   12  C   UNL     1       3.843  14.810  90.113  1.00  0.00     0.136 C 
HETATM   13  C   UNL     1       5.290  15.216  89.859  1.00  0.00     0.034 C 
BRANCH  12  14
HETATM   14  O   UNL     1       3.369  14.060  88.995  1.00  0.00    -0.383 OA
HETATM   15  H   UNL     1       3.169  13.158  89.296  1.00  0.00     0.210 HD
ENDBRANCH  12  14
ENDBRANCH  11  12
BRANCH  11  16
HETATM   16  C   UNL     1       2.255  13.457  91.538  1.00  0.00     0.398 A 
HETATM   17  O   UNL     1       1.298  14.184  91.797  1.00  0.00    -0.136 OA
HETATM   18  N   UNL     1       1.238  12.914  92.630  1.00  0.00     0.142 N 
HETATM   19  HN  UNL     1       0.409  13.332  92.947  1.00  0.00     0.338 HD
BRANCH  18  20
HETATM   20  S   UNL     1       2.012  11.873  93.131  1.00  0.00     0.076 SA
HETATM   21  H   UNL     1       2.948  11.545  92.477  1.00  0.00     0.136 HD
ENDBRANCH  18  20
ENDBRANCH  11  16
ENDBRANCH   9  11
ENDBRANCH   1   7
BRANCH   4  22
HETATM   22  C   UNL     1       8.191   7.567  91.335  1.00  0.00    -0.059 C 
HETATM   23  C   UNL     1       8.988   6.680  91.492  1.00  0.00    -0.059 C 
BRANCH  23  24
HETATM   24  C   UNL     1       9.935   5.624  91.679  1.00  0.00     0.042 A 
HETATM   25  C   UNL     1      10.283   4.804  90.606  1.00  0.00     0.008 A 
HETATM   26  C   UNL     1      11.205   3.773  90.788  1.00  0.00    -0.002 A 
HETATM   27  C   UNL     1      11.780   3.565  92.042  1.00  0.00     0.011 A 
HETATM   28  C   UNL     1      11.431   4.387  93.114  1.00  0.00    -0.002 A 
HETATM   29  C   UNL     1      10.509   5.417  92.931  1.00  0.00     0.008 A 
BRANCH  27  30
HETATM   30  C   UNL     1      12.768   2.465  92.235  1.00  0.00     0.277 C 
BRANCH  30  31
HETATM   31  N   UNL     1      13.890   2.865  93.082  1.00  0.00     0.147 N 
HETATM   32  C   UNL     1      14.840   1.756  93.246  1.00  0.00     0.283 C 
HETATM   33  C   UNL     1      16.007   2.201  94.124  1.00  0.00     0.178 C 
HETATM   34  O   UNL     1      16.658   3.335  93.548  1.00  0.00    -0.350 OA
HETATM   35  C   UNL     1      15.749   4.428  93.414  1.00  0.00     0.178 C 
HETATM   36  C   UNL     1      14.576   4.037  92.521  1.00  0.00     0.283 C 
ENDBRANCH  30  31
ENDBRANCH  27  30
ENDBRANCH  23  24
ENDBRANCH   4  22
TORSDOF 10
ENDMDL
MODEL 5
REMARK VINA RESULT:      -6.0      1.751      2.352
REMARK  10 active torsions:
REMARK  status: ('A' for Active; 'I' for Inactive)
REMARK    1  A    between atoms: O_2  and  C_16 
REMARK    2  A    between atoms: N_5  and  C_9 
REMARK    3  A    between atoms: N_6  and  C_13 
REMARK       I    between atoms: N_6  and  C_22 
REMARK    4  A    between atoms: C_9  and  C_12 
REMARK    5  A    between atoms: C_13  and  C_16 
REMARK    6  A    between atoms: C_13  and  C_21 
REMARK    7  A    between atoms: C_19  and  C_24 
REMARK    8  A    between atoms: C_22  and  C_23 
REMARK    9  A    between atoms: C_27  and  C_30 
REMARK   10  A    between atoms: N_33  and  S_34 
ROOT
HETATM    1  C   UNL     1       5.167   8.888  90.495  1.00  0.00     0.056 A 
HETATM    2  C   UNL     1       6.339   9.414  90.996  1.00  0.00     0.005 A 
HETATM    3  C   UNL     1       5.017   7.542  90.232  1.00  0.00     0.005 A 
HETATM    4  C   UNL     1       7.285   7.191  90.987  1.00  0.00     0.042 A 
HETATM    5  C   UNL     1       7.411   8.557  91.245  1.00  0.00     0.008 A 
HETATM    6  C   UNL     1       6.088   6.684  90.481  1.00  0.00     0.008 A 
ENDROOT
BRANCH   1   7
HETATM    7  C   UNL     1       4.025   9.801  90.232  1.00  0.00     0.254 C 
HETATM    8  O   UNL     1       3.317   9.608  89.246  1.00  0.00    -0.268 OA
HETATM    9  N   UNL     1       3.830  10.814  91.160  1.00  0.00    -0.337 N 
HETATM   10  HN  UNL     1       4.441  10.897  91.965  1.00  0.00     0.164 HD
BRANCH   9  11
HETATM   11  C   UNL     1       2.752  11.764  91.057  1.00  0.00     0.172 C 
BRANCH  11  12
HETATM   12  C   UNL     1       1.860  11.789  92.305  1.00  0.00     0.136 C 
HETATM   13  C   UNL     1       1.619  10.396  92.877  1.00  0.00     0.034 C 
BRANCH  12  14
HETATM   14  O   UNL     1       2.466  12.603  93.308  1.00  0.00    -0.383 OA
HETATM   15  H   UNL     1       2.726  12.031  94.050  1.00  0.00     0.210 HD
ENDBRANCH  12  14
ENDBRANCH  11  12
BRANCH  11  16
HETATM   16  C   UNL     1       3.363  13.135  90.786  1.00  0.00     0.398 A 
HETATM   17  O   UNL     1       2.696  14.166  90.726  1.00  0.00    -0.136 OA
HETATM   18  N   UNL     1       3.708  14.125  89.593  1.00  0.00     0.142 N 
HETATM   19  HN  UNL     1       3.310  15.000  89.398  1.00  0.00     0.338 HD
BRANCH  18  20
HETATM   20  S   UNL     1       4.501  13.269  88.838  1.00  0.00     0.076 SA
HETATM   21  H   UNL     1       3.942  12.379  88.282  1.00  0.00     0.136 HD
ENDBRANCH  18  20
ENDBRANCH  11  16
ENDBRANCH   9  11
ENDBRANCH   1   7
BRANCH   4  22
HETATM   22  C   UNL     1       8.384   6.313  91.240  1.00  0.00    -0.059 C 
HETATM   23  C   UNL     1       9.308   5.574  91.453  1.00  0.00    -0.059 C 
BRANCH  23  24
HETATM   24  C   UNL     1      10.408   4.694  91.706  1.00  0.00     0.042 A 
HETATM   25  C   UNL     1      11.071   4.085  90.642  1.00  0.00     0.008 A 
HETATM   26  C   UNL     1      12.142   3.226  90.889  1.00  0.00    -0.002 A 
HETATM   27  C   UNL     1      12.550   2.978  92.200  1.00  0.00     0.011 A 
HETATM   28  C   UNL     1      11.885   3.590  93.263  1.00  0.00    -0.002 A 
HETATM   29  C   UNL     1      10.814   4.448  93.016  1.00  0.00     0.008 A 
BRANCH  27  30
HETATM   30  C   UNL     1      13.696   2.062  92.463  1.00  0.00     0.277 C 
BRANCH  30  31
HETATM   31  N   UNL     1      14.952   2.783  92.659  1.00  0.00     0.147 N 
HETATM   32  C   UNL     1      14.729   4.235  92.627  1.00  0.00     0.283 C 
HETATM   33  C   UNL     1      16.051   4.966  92.846  1.00  0.00     0.178 C 
HETATM   34  O   UNL     1      16.634   4.578  94.091  1.00  0.00    -0.350 OA
HETATM   35  C   UNL     1      16.883   3.172  94.118  1.00  0.00     0.178 C 
HETATM   36  C   UNL     1      15.582   2.398  93.930  1.00  0.00     0.283 C 
ENDBRANCH  30  31
ENDBRANCH  27  30
ENDBRANCH  23  24
ENDBRANCH   4  22
TORSDOF 10
ENDMDL
MODEL 6
REMARK VINA RESULT:      -5.7      2.118      3.117
REMARK  10 active torsions:
REMARK  status: ('A' for Active; 'I' for Inactive)
REMARK    1  A    between atoms: O_2  and  C_16 
REMARK    2  A    between atoms: N_5  and  C_9 
REMARK    3  A    between atoms: N_6  and  C_13 
REMARK       I    between atoms: N_6  and  C_22 
REMARK    4  A    between atoms: C_9  and  C_12 
REMARK    5  A    between atoms: C_13  and  C_16 
REMARK    6  A    between atoms: C_13  and  C_21 
REMARK    7  A    between atoms: C_19  and  C_24 
REMARK    8  A    between atoms: C_22  and  C_23 
REMARK    9  A    between atoms: C_27  and  C_30 
REMARK   10  A    between atoms: N_33  and  S_34 
ROOT
HETATM    1  C   UNL     1       5.917  10.772  92.758  1.00  0.00     0.056 A 
HETATM    2  C   UNL     1       6.876  10.758  91.767  1.00  0.00     0.005 A 
HETATM    3  C   UNL     1       5.812   9.764  93.694  1.00  0.00     0.005 A 
HETATM    4  C   UNL     1       7.683   8.657  92.642  1.00  0.00     0.042 A 
HETATM    5  C   UNL     1       7.769   9.689  91.707  1.00  0.00     0.008 A 
HETATM    6  C   UNL     1       6.705   8.694  93.635  1.00  0.00     0.008 A 
ENDROOT
BRANCH   1   7
HETATM    7  C   UNL     1       4.967  11.912  92.822  1.00  0.00     0.254 C 
HETATM    8  O   UNL     1       4.744  12.447  93.905  1.00  0.00    -0.268 OA
HETATM    9  N   UNL     1       4.409  12.307  91.614  1.00  0.00    -0.337 N 
HETATM   10  HN  UNL     1       4.659  11.833  90.754  1.00  0.00     0.164 HD
BRANCH   9  11
HETATM   11  C   UNL     1       3.489  13.412  91.509  1.00  0.00     0.172 C 
BRANCH  11  12
HETATM   12  C   UNL     1       3.392  13.970  90.084  1.00  0.00     0.136 C 
HETATM   13  C   UNL     1       4.686  14.635  89.628  1.00  0.00     0.034 C 
BRANCH  12  14
HETATM   14  O   UNL     1       3.071  12.914  89.178  1.00  0.00    -0.383 OA
HETATM   15  H   UNL     1       2.104  12.809  89.164  1.00  0.00     0.210 HD
ENDBRANCH  12  14
ENDBRANCH  11  12
BRANCH  11  16
HETATM   16  C   UNL     1       2.130  12.936  92.012  1.00  0.00     0.398 A 
HETATM   17  O   UNL     1       1.757  13.083  93.174  1.00  0.00    -0.136 OA
HETATM   18  N   UNL     1       1.427  11.681  92.687  1.00  0.00     0.142 N 
HETATM   19  HN  UNL     1       1.041  11.615  93.586  1.00  0.00     0.338 HD
BRANCH  18  20
HETATM   20  S   UNL     1       1.771  10.721  91.742  1.00  0.00     0.076 SA
HETATM   21  H   UNL     1       0.889  10.036  91.336  1.00  0.00     0.136 HD
ENDBRANCH  18  20
ENDBRANCH  11  16
ENDBRANCH   9  11
ENDBRANCH   1   7
BRANCH   4  22
HETATM   22  C   UNL     1       8.598   7.560  92.579  1.00  0.00    -0.059 C 
HETATM   23  C   UNL     1       9.367   6.637  92.526  1.00  0.00    -0.059 C 
BRANCH  23  24
HETATM   24  C   UNL     1      10.282   5.539  92.464  1.00  0.00     0.042 A 
HETATM   25  C   UNL     1      10.932   5.109  93.621  1.00  0.00     0.008 A 
HETATM   26  C   UNL     1      11.826   4.040  93.560  1.00  0.00    -0.002 A 
HETATM   27  C   UNL     1      12.068   3.401  92.343  1.00  0.00     0.011 A 
HETATM   28  C   UNL     1      11.416   3.833  91.188  1.00  0.00    -0.002 A 
HETATM   29  C   UNL     1      10.523   4.902  91.249  1.00  0.00     0.008 A 
BRANCH  27  30
HETATM   30  C   UNL     1      13.022   2.257  92.280  1.00  0.00     0.277 C 
BRANCH  30  31
HETATM   31  N   UNL     1      14.401   2.668  92.534  1.00  0.00     0.147 N 
HETATM   32  C   UNL     1      14.547   4.122  92.384  1.00  0.00     0.283 C 
HETATM   33  C   UNL     1      15.992   4.528  92.665  1.00  0.00     0.178 C 
HETATM   34  O   UNL     1      16.376   4.121  93.980  1.00  0.00    -0.350 OA
HETATM   35  C   UNL     1      16.267   2.705  94.124  1.00  0.00     0.178 C 
HETATM   36  C   UNL     1      14.830   2.255  93.878  1.00  0.00     0.283 C 
ENDBRANCH  30  31
ENDBRANCH  27  30
ENDBRANCH  23  24
ENDBRANCH   4  22
TORSDOF 10
ENDMDL
MODEL 7
REMARK VINA RESULT:      -5.7      3.670     12.445
REMARK  10 active torsions:
REMARK  status: ('A' for Active; 'I' for Inactive)
REMARK    1  A    between atoms: O_2  and  C_16 
REMARK    2  A    between atoms: N_5  and  C_9 
REMARK    3  A    between atoms: N_6  and  C_13 
REMARK       I    between atoms: N_6  and  C_22 
REMARK    4  A    between atoms: C_9  and  C_12 
REMARK    5  A    between atoms: C_13  and  C_16 
REMARK    6  A    between atoms: C_13  and  C_21 
REMARK    7  A    between atoms: C_19  and  C_24 
REMARK    8  A    between atoms: C_22  and  C_23 
REMARK    9  A    between atoms: C_27  and  C_30 
REMARK   10  A    between atoms: N_33  and  S_34 
ROOT
HETATM    1  C   UNL     1      10.268   5.775  90.004  1.00  0.00     0.056 A 
HETATM    2  C   UNL     1       9.582   6.071  91.163  1.00  0.00     0.005 A 
HETATM    3  C   UNL     1      10.055   6.462  88.827  1.00  0.00     0.005 A 
HETATM    4  C   UNL     1       8.406   7.809  89.968  1.00  0.00     0.042 A 
HETATM    5  C   UNL     1       8.640   7.099  91.146  1.00  0.00     0.008 A 
HETATM    6  C   UNL     1       9.113   7.491  88.808  1.00  0.00     0.008 A 
ENDROOT
BRANCH   1   7
HETATM    7  C   UNL     1      11.273   4.681  90.024  1.00  0.00     0.254 C 
HETATM    8  O   UNL     1      11.496   4.052  88.992  1.00  0.00    -0.268 OA
HETATM    9  N   UNL     1      11.916   4.468  91.235  1.00  0.00    -0.337 N 
HETATM   10  HN  UNL     1      11.698   5.044  92.040  1.00  0.00     0.164 HD
BRANCH   9  11
HETATM   11  C   UNL     1      12.932   3.461  91.407  1.00  0.00     0.172 C 
BRANCH  11  12
HETATM   12  C   UNL     1      14.339   3.974  91.076  1.00  0.00     0.136 C 
HETATM   13  C   UNL     1      15.132   2.992  90.222  1.00  0.00     0.034 C 
BRANCH  12  14
HETATM   14  O   UNL     1      14.242   5.218  90.382  1.00  0.00    -0.383 OA
HETATM   15  H   UNL     1      14.270   5.038  89.427  1.00  0.00     0.210 HD
ENDBRANCH  12  14
ENDBRANCH  11  12
BRANCH  11  16
HETATM   16  C   UNL     1      12.850   2.957  92.845  1.00  0.00     0.398 A 
HETATM   17  O   UNL     1      12.659   3.701  93.805  1.00  0.00    -0.136 OA
HETATM   18  N   UNL     1      13.757   2.699  94.123  1.00  0.00     0.142 N 
HETATM   19  HN  UNL     1      13.734   3.165  94.986  1.00  0.00     0.338 HD
BRANCH  18  20
HETATM   20  S   UNL     1      14.693   1.851  93.542  1.00  0.00     0.076 SA
HETATM   21  H   UNL     1      15.759   1.798  94.065  1.00  0.00     0.136 HD
ENDBRANCH  18  20
ENDBRANCH  11  16
ENDBRANCH   9  11
ENDBRANCH   1   7
BRANCH   4  22
HETATM   22  C   UNL     1       7.438   8.861  89.949  1.00  0.00    -0.059 C 
HETATM   23  C   UNL     1       6.624   9.746  89.933  1.00  0.00    -0.059 C 
BRANCH  23  24
HETATM   24  C   UNL     1       5.656  10.800  89.914  1.00  0.00     0.042 A 
HETATM   25  C   UNL     1       4.419  10.620  90.531  1.00  0.00     0.008 A 
HETATM   26  C   UNL     1       3.474  11.646  90.511  1.00  0.00    -0.002 A 
HETATM   27  C   UNL     1       3.769  12.852  89.875  1.00  0.00     0.011 A 
HETATM   28  C   UNL     1       5.007  13.031  89.258  1.00  0.00    -0.002 A 
HETATM   29  C   UNL     1       5.951  12.004  89.278  1.00  0.00     0.008 A 
BRANCH  27  30
HETATM   30  C   UNL     1       2.759  13.949  89.855  1.00  0.00     0.277 C 
BRANCH  30  31
HETATM   31  N   UNL     1       2.675  14.651  91.135  1.00  0.00     0.147 N 
HETATM   32  C   UNL     1       1.734  13.974  92.038  1.00  0.00     0.283 C 
HETATM   33  C   UNL     1       1.671  14.717  93.370  1.00  0.00     0.178 C 
HETATM   34  O   UNL     1       2.969  14.787  93.963  1.00  0.00    -0.350 OA
HETATM   35  C   UNL     1       3.882  15.471  93.104  1.00  0.00     0.178 C 
HETATM   36  C   UNL     1       3.998  14.747  91.766  1.00  0.00     0.283 C 
ENDBRANCH  30  31
ENDBRANCH  27  30
ENDBRANCH  23  24
ENDBRANCH   4  22
TORSDOF 10
ENDMDL
MODEL 8
REMARK VINA RESULT:      -5.4      2.452      3.241
REMARK  10 active torsions:
REMARK  status: ('A' for Active; 'I' for Inactive)
REMARK    1  A    between atoms: O_2  and  C_16 
REMARK    2  A    between atoms: N_5  and  C_9 
REMARK    3  A    between atoms: N_6  and  C_13 
REMARK       I    between atoms: N_6  and  C_22 
REMARK    4  A    between atoms: C_9  and  C_12 
REMARK    5  A    between atoms: C_13  and  C_16 
REMARK    6  A    between atoms: C_13  and  C_21 
REMARK    7  A    between atoms: C_19  and  C_24 
REMARK    8  A    between atoms: C_22  and  C_23 
REMARK    9  A    between atoms: C_27  and  C_30 
REMARK   10  A    between atoms: N_33  and  S_34 
ROOT
HETATM    1  C   UNL     1       6.253   7.898  88.213  1.00  0.00     0.056 A 
HETATM    2  C   UNL     1       7.440   7.713  87.535  1.00  0.00     0.005 A 
HETATM    3  C   UNL     1       6.034   7.371  89.469  1.00  0.00     0.005 A 
HETATM    4  C   UNL     1       8.255   6.424  89.408  1.00  0.00     0.042 A 
HETATM    5  C   UNL     1       8.453   6.968  88.139  1.00  0.00     0.008 A 
HETATM    6  C   UNL     1       7.046   6.626  90.074  1.00  0.00     0.008 A 
ENDROOT
BRANCH   1   7
HETATM    7  C   UNL     1       5.176   8.694  87.571  1.00  0.00     0.254 C 
HETATM    8  O   UNL     1       4.751   8.350  86.470  1.00  0.00    -0.268 OA
HETATM    9  N   UNL     1       4.705   9.778  88.297  1.00  0.00    -0.337 N 
HETATM   10  HN  UNL     1       5.087   9.987  89.213  1.00  0.00     0.164 HD
BRANCH   9  11
HETATM   11  C   UNL     1       3.646  10.631  87.820  1.00  0.00     0.172 C 
BRANCH  11  12
HETATM   12  C   UNL     1       2.267  10.218  88.348  1.00  0.00     0.136 C 
HETATM   13  C   UNL     1       1.609   9.146  87.486  1.00  0.00     0.034 C 
BRANCH  12  14
HETATM   14  O   UNL     1       2.394   9.726  89.682  1.00  0.00    -0.383 OA
HETATM   15  H   UNL     1       1.711  10.148  90.229  1.00  0.00     0.210 HD
ENDBRANCH  12  14
ENDBRANCH  11  12
BRANCH  11  16
HETATM   16  C   UNL     1       3.986  12.063  88.219  1.00  0.00     0.398 A 
HETATM   17  O   UNL     1       5.132  12.510  88.198  1.00  0.00    -0.136 OA
HETATM   18  N   UNL     1       4.424  12.931  89.476  1.00  0.00     0.142 N 
HETATM   19  HN  UNL     1       5.277  13.390  89.627  1.00  0.00     0.338 HD
BRANCH  18  20
HETATM   20  S   UNL     1       3.372  12.605  90.325  1.00  0.00     0.076 SA
HETATM   21  H   UNL     1       3.537  12.823  91.482  1.00  0.00     0.136 HD
ENDBRANCH  18  20
ENDBRANCH  11  16
ENDBRANCH   9  11
ENDBRANCH   1   7
BRANCH   4  22
HETATM   22  C   UNL     1       9.292   5.658  90.026  1.00  0.00    -0.059 C 
HETATM   23  C   UNL     1      10.163   5.013  90.546  1.00  0.00    -0.059 C 
BRANCH  23  24
HETATM   24  C   UNL     1      11.200   4.245  91.164  1.00  0.00     0.042 A 
HETATM   25  C   UNL     1      12.503   4.309  90.669  1.00  0.00     0.008 A 
HETATM   26  C   UNL     1      13.513   3.559  91.270  1.00  0.00    -0.002 A 
HETATM   27  C   UNL     1      13.221   2.747  92.367  1.00  0.00     0.011 A 
HETATM   28  C   UNL     1      11.918   2.685  92.860  1.00  0.00    -0.002 A 
HETATM   29  C   UNL     1      10.908   3.434  92.259  1.00  0.00     0.008 A 
BRANCH  27  30
HETATM   30  C   UNL     1      14.303   1.947  93.009  1.00  0.00     0.277 C 
BRANCH  30  31
HETATM   31  N   UNL     1      15.271   2.786  93.714  1.00  0.00     0.147 N 
HETATM   32  C   UNL     1      16.646   2.383  93.385  1.00  0.00     0.283 C 
HETATM   33  C   UNL     1      17.638   3.278  94.123  1.00  0.00     0.178 C 
HETATM   34  O   UNL     1      17.423   4.648  93.778  1.00  0.00    -0.350 OA
HETATM   35  C   UNL     1      16.099   5.056  94.124  1.00  0.00     0.178 C 
HETATM   36  C   UNL     1      15.071   4.204  93.387  1.00  0.00     0.283 C 
ENDBRANCH  30  31
ENDBRANCH  27  30
ENDBRANCH  23  24
ENDBRANCH   4  22
TORSDOF 10
ENDMDL
MODEL 9
REMARK VINA RESULT:      -5.3      1.071      1.528
REMARK  10 active torsions:
REMARK  status: ('A' for Active; 'I' for Inactive)
REMARK    1  A    between atoms: O_2  and  C_16 
REMARK    2  A    between atoms: N_5  and  C_9 
REMARK    3  A    between atoms: N_6  and  C_13 
REMARK       I    between atoms: N_6  and  C_22 
REMARK    4  A    between atoms: C_9  and  C_12 
REMARK    5  A    between atoms: C_13  and  C_16 
REMARK    6  A    between atoms: C_13  and  C_21 
REMARK    7  A    between atoms: C_19  and  C_24 
REMARK    8  A    between atoms: C_22  and  C_23 
REMARK    9  A    between atoms: C_27  and  C_30 
REMARK   10  A    between atoms: N_33  and  S_34 
ROOT
HETATM    1  C   UNL     1       5.020  10.816  89.903  1.00  0.00     0.056 A 
HETATM    2  C   UNL     1       4.582   9.561  89.536  1.00  0.00     0.005 A 
HETATM    3  C   UNL     1       6.257  11.026  90.475  1.00  0.00     0.005 A 
HETATM    4  C   UNL     1       6.674   8.652  90.329  1.00  0.00     0.042 A 
HETATM    5  C   UNL     1       5.418   8.466  89.751  1.00  0.00     0.008 A 
HETATM    6  C   UNL     1       7.094   9.932  90.691  1.00  0.00     0.008 A 
ENDROOT
BRANCH   1   7
HETATM    7  C   UNL     1       4.129  11.983  89.671  1.00  0.00     0.254 C 
HETATM    8  O   UNL     1       3.937  12.372  88.522  1.00  0.00    -0.268 OA
HETATM    9  N   UNL     1       3.551  12.541  90.803  1.00  0.00    -0.337 N 
HETATM   10  HN  UNL     1       3.736  12.150  91.719  1.00  0.00     0.164 HD
BRANCH   9  11
HETATM   11  C   UNL     1       2.646  13.660  90.740  1.00  0.00     0.172 C 
BRANCH  11  12
HETATM   12  C   UNL     1       1.447  13.508  91.684  1.00  0.00     0.136 C 
HETATM   13  C   UNL     1       1.463  12.184  92.440  1.00  0.00     0.034 C 
BRANCH  12  14
HETATM   14  O   UNL     1       1.442  14.580  92.627  1.00  0.00    -0.383 OA
HETATM   15  H   UNL     1       1.212  14.218  93.499  1.00  0.00     0.210 HD
ENDBRANCH  12  14
ENDBRANCH  11  12
BRANCH  11  16
HETATM   16  C   UNL     1       3.443  14.922  91.055  1.00  0.00     0.398 A 
HETATM   17  O   UNL     1       4.444  15.257  90.424  1.00  0.00    -0.136 OA
HETATM   18  N   UNL     1       4.679  15.425  91.917  1.00  0.00     0.142 N 
HETATM   19  HN  UNL     1       5.545  15.758  91.597  1.00  0.00     0.338 HD
BRANCH  18  20
HETATM   20  S   UNL     1       4.243  15.004  93.168  1.00  0.00     0.076 SA
HETATM   21  H   UNL     1       5.072  14.900  94.012  1.00  0.00     0.136 HD
ENDBRANCH  18  20
ENDBRANCH  11  16
ENDBRANCH   9  11
ENDBRANCH   1   7
BRANCH   4  22
HETATM   22  C   UNL     1       7.530   7.529  90.553  1.00  0.00    -0.059 C 
HETATM   23  C   UNL     1       8.250   6.584  90.740  1.00  0.00    -0.059 C 
BRANCH  23  24
HETATM   24  C   UNL     1       9.107   5.460  90.963  1.00  0.00     0.042 A 
HETATM   25  C   UNL     1       9.806   5.346  92.164  1.00  0.00     0.008 A 
HETATM   26  C   UNL     1      10.644   4.252  92.381  1.00  0.00    -0.002 A 
HETATM   27  C   UNL     1      10.779   3.271  91.397  1.00  0.00     0.011 A 
HETATM   28  C   UNL     1      10.078   3.387  90.197  1.00  0.00    -0.002 A 
HETATM   29  C   UNL     1       9.242   4.482  89.980  1.00  0.00     0.008 A 
BRANCH  27  30
HETATM   30  C   UNL     1      11.673   2.101  91.631  1.00  0.00     0.277 C 
BRANCH  30  31
HETATM   31  N   UNL     1      13.013   2.500  92.057  1.00  0.00     0.147 N 
HETATM   32  C   UNL     1      13.501   3.627  91.250  1.00  0.00     0.283 C 
HETATM   33  C   UNL     1      14.896   4.033  91.719  1.00  0.00     0.178 C 
HETATM   34  O   UNL     1      14.872   4.384  93.104  1.00  0.00    -0.350 OA
HETATM   35  C   UNL     1      14.428   3.283  93.898  1.00  0.00     0.178 C 
HETATM   36  C   UNL     1      13.024   2.859  93.482  1.00  0.00     0.283 C 
ENDBRANCH  30  31
ENDBRANCH  27  30
ENDBRANCH  23  24
ENDBRANCH   4  22
TORSDOF 10
ENDMDL
