MODEL 1
REMARK VINA RESULT:      -7.5      0.000      0.000
REMARK  9 active torsions:
REMARK  status: ('A' for Active; 'I' for Inactive)
REMARK    1  A    between atoms: N_3  and  C_6 
REMARK    2  A    between atoms: C_6  and  C_9 
REMARK    3  A    between atoms: C_14  and  C_17 
REMARK       I    between atoms: N_26  and  C_15 
REMARK    4  A    between atoms: C_15  and  C_16 
REMARK    5  A    between atoms: C_20  and  C_23 
REMARK    6  A    between atoms: OG1_24  and  CB_28 
REMARK    7  A    between atoms: N_26  and  CA_27 
REMARK    8  A    between atoms: CA_27  and  CB_28 
REMARK    9  A    between atoms: CA_27  and  C_30 
ROOT
HETATM    1  O   UNK A   0       1.807   8.022  87.857  1.00  0.00    -0.388 OA
HETATM    2  N   UNK A   0       4.606   7.538  87.683  1.00  0.00     0.096 N 
HETATM    3  C   UNK A   0       4.066   8.903  87.759  1.00  0.00     0.299 C 
HETATM    4  C   UNK A   0       3.631   6.645  87.042  1.00  0.00     0.299 C 
HETATM    5  C   UNK A   0       2.736   8.891  88.508  1.00  0.00     0.198 C 
HETATM    6  C   UNK A   0       2.311   6.687  87.807  1.00  0.00     0.198 C 
ENDROOT
BRANCH   2   7
HETATM    7  C   UNK A   0       5.877   7.524  86.959  1.00  0.00     0.311 C 
BRANCH   7   8
HETATM    8  C   UNK A   0       6.982   6.928  87.763  1.00  0.00    -0.030 A 
HETATM    9  C   UNK A   0       8.229   6.709  87.178  1.00  0.00     0.010 A 
HETATM   10  C   UNK A   0       9.263   6.150  87.928  1.00  0.00     0.021 A 
HETATM   11  C   UNK A   0       9.049   5.812  89.265  1.00  0.00     0.018 A 
HETATM   12  C   UNK A   0       7.804   6.031  89.850  1.00  0.00     0.021 A 
HETATM   13  C   UNK A   0       6.770   6.589  89.100  1.00  0.00     0.010 A 
BRANCH  11  14
HETATM   14  C   UNK A   0      10.111   5.240  90.035  1.00  0.00    -0.061 C 
HETATM   15  C   UNK A   0      11.003   4.760  90.682  1.00  0.00    -0.061 C 
BRANCH  15  16
HETATM   16  C   UNK A   0      12.064   4.190  91.453  1.00  0.00     0.018 A 
HETATM   17  C   UNK A   0      13.305   3.953  90.861  1.00  0.00     0.022 A 
HETATM   18  C   UNK A   0      14.340   3.399  91.613  1.00  0.00     0.018 A 
HETATM   19  C   UNK A   0      14.113   3.095  92.939  1.00  0.00     0.032 A 
HETATM   20  C   UNK A   0      12.895   3.319  93.547  1.00  0.00     0.018 A 
HETATM   21  C   UNK A   0      11.859   3.873  92.795  1.00  0.00     0.022 A 
BRANCH  19  22
HETATM   22  C   UNK A   0      15.216   2.503  93.740  1.00  0.00     0.252 C 
HETATM   23  O   UNK A   0      16.335   3.005  93.681  1.00  0.00    -0.268 OA
ENDBRANCH  19  22
ENDBRANCH  15  16
ENDBRANCH  11  14
ENDBRANCH   7   8
ENDBRANCH   2   7
TORSDOF 9
ENDMDL
