MODEL 1
REMARK VINA RESULT:      -7.6      0.000      0.000
REMARK  9 active torsions:
REMARK  status: ('A' for Active; 'I' for Inactive)
REMARK    1  A    between atoms: N_3  and  C_6 
REMARK    2  A    between atoms: C_6  and  C_9 
REMARK    3  A    between atoms: C_14  and  C_17 
REMARK       I    between atoms: N_26  and  C_15 
REMARK    4  A    between atoms: C_15  and  C_16 
REMARK    5  A    between atoms: C_20  and  C_23 
REMARK    6  A    between atoms: OG1_24  and  CB_28 
REMARK    7  A    between atoms: N_26  and  CA_27 
REMARK    8  A    between atoms: CA_27  and  CB_28 
REMARK    9  A    between atoms: CA_27  and  C_30 
ROOT
HETATM    1  O   UNK A   0       1.926   8.238  87.911  1.00  0.00    -0.388 OA
HETATM    2  N   UNK A   0       4.692   7.604  87.687  1.00  0.00     0.096 N 
HETATM    3  C   UNK A   0       4.228   8.996  87.768  1.00  0.00     0.299 C 
HETATM    4  C   UNK A   0       3.658   6.763  87.068  1.00  0.00     0.299 C 
HETATM    5  C   UNK A   0       2.913   9.057  88.541  1.00  0.00     0.198 C 
HETATM    6  C   UNK A   0       2.357   6.878  87.856  1.00  0.00     0.198 C 
ENDROOT
BRANCH   2   7
HETATM    7  C   UNK A   0       5.946   7.520  86.940  1.00  0.00     0.311 C 
BRANCH   7   8
HETATM    8  C   UNK A   0       7.050   6.927  87.748  1.00  0.00    -0.030 A 
HETATM    9  C   UNK A   0       6.836   6.607  89.090  1.00  0.00     0.010 A 
HETATM   10  C   UNK A   0       7.869   6.055  89.848  1.00  0.00     0.021 A 
HETATM   11  C   UNK A   0       9.113   5.821  89.263  1.00  0.00     0.018 A 
HETATM   12  C   UNK A   0       9.328   6.141  87.924  1.00  0.00     0.021 A 
HETATM   13  C   UNK A   0       8.296   6.694  87.166  1.00  0.00     0.010 A 
BRANCH  11  14
HETATM   14  C   UNK A   0      10.172   5.253  90.041  1.00  0.00    -0.061 C 
HETATM   15  C   UNK A   0      11.060   4.775  90.694  1.00  0.00    -0.061 C 
BRANCH  15  16
HETATM   16  C   UNK A   0      12.118   4.206  91.471  1.00  0.00     0.018 A 
HETATM   17  C   UNK A   0      11.903   3.890  92.813  1.00  0.00     0.022 A 
HETATM   18  C   UNK A   0      12.934   3.332  93.569  1.00  0.00     0.018 A 
HETATM   19  C   UNK A   0      14.154   3.103  92.968  1.00  0.00     0.032 A 
HETATM   20  C   UNK A   0      14.391   3.408  91.644  1.00  0.00     0.018 A 
HETATM   21  C   UNK A   0      13.361   3.965  90.886  1.00  0.00     0.022 A 
BRANCH  19  22
HETATM   22  C   UNK A   0      15.252   2.511  93.775  1.00  0.00     0.252 C 
HETATM   23  O   UNK A   0      16.396   2.936  93.634  1.00  0.00    -0.268 OA
ENDBRANCH  19  22
ENDBRANCH  15  16
ENDBRANCH  11  14
ENDBRANCH   7   8
ENDBRANCH   2   7
TORSDOF 9
ENDMDL
MODEL 2
REMARK VINA RESULT:      -7.5      0.144      1.018
REMARK  9 active torsions:
REMARK  status: ('A' for Active; 'I' for Inactive)
REMARK    1  A    between atoms: N_3  and  C_6 
REMARK    2  A    between atoms: C_6  and  C_9 
REMARK    3  A    between atoms: C_14  and  C_17 
REMARK       I    between atoms: N_26  and  C_15 
REMARK    4  A    between atoms: C_15  and  C_16 
REMARK    5  A    between atoms: C_20  and  C_23 
REMARK    6  A    between atoms: OG1_24  and  CB_28 
REMARK    7  A    between atoms: N_26  and  CA_27 
REMARK    8  A    between atoms: CA_27  and  CB_28 
REMARK    9  A    between atoms: CA_27  and  C_30 
ROOT
HETATM    1  O   UNK A   0       1.926   7.957  87.767  1.00  0.00    -0.388 OA
HETATM    2  N   UNK A   0       4.736   7.521  87.653  1.00  0.00     0.096 N 
HETATM    3  C   UNK A   0       4.172   8.876  87.732  1.00  0.00     0.299 C 
HETATM    4  C   UNK A   0       3.790   6.621  86.979  1.00  0.00     0.299 C 
HETATM    5  C   UNK A   0       2.825   8.833  88.450  1.00  0.00     0.198 C 
HETATM    6  C   UNK A   0       2.453   6.631  87.713  1.00  0.00     0.198 C 
ENDROOT
BRANCH   2   7
HETATM    7  C   UNK A   0       6.023   7.537  86.959  1.00  0.00     0.311 C 
BRANCH   7   8
HETATM    8  C   UNK A   0       7.115   6.931  87.775  1.00  0.00    -0.030 A 
HETATM    9  C   UNK A   0       6.896   6.633  89.120  1.00  0.00     0.010 A 
HETATM   10  C   UNK A   0       7.917   6.069  89.884  1.00  0.00     0.021 A 
HETATM   11  C   UNK A   0       9.155   5.801  89.302  1.00  0.00     0.018 A 
HETATM   12  C   UNK A   0       9.375   6.099  87.959  1.00  0.00     0.021 A 
HETATM   13  C   UNK A   0       8.354   6.664  87.194  1.00  0.00     0.010 A 
BRANCH  11  14
HETATM   14  C   UNK A   0      10.202   5.221  90.086  1.00  0.00    -0.061 C 
HETATM   15  C   UNK A   0      11.082   4.732  90.745  1.00  0.00    -0.061 C 
BRANCH  15  16
HETATM   16  C   UNK A   0      12.127   4.151  91.528  1.00  0.00     0.018 A 
HETATM   17  C   UNK A   0      13.385   3.939  90.963  1.00  0.00     0.022 A 
HETATM   18  C   UNK A   0      14.405   3.375  91.728  1.00  0.00     0.018 A 
HETATM   19  C   UNK A   0      14.146   3.036  93.039  1.00  0.00     0.032 A 
HETATM   20  C   UNK A   0      12.912   3.235  93.621  1.00  0.00     0.018 A 
HETATM   21  C   UNK A   0      11.890   3.799  92.857  1.00  0.00     0.022 A 
BRANCH  19  22
HETATM   22  C   UNK A   0      15.233   2.433  93.853  1.00  0.00     0.252 C 
HETATM   23  O   UNK A   0      16.399   2.743  93.621  1.00  0.00    -0.268 OA
ENDBRANCH  19  22
ENDBRANCH  15  16
ENDBRANCH  11  14
ENDBRANCH   7   8
ENDBRANCH   2   7
TORSDOF 9
ENDMDL
MODEL 3
REMARK VINA RESULT:      -6.9      1.511      2.173
REMARK  9 active torsions:
REMARK  status: ('A' for Active; 'I' for Inactive)
REMARK    1  A    between atoms: N_3  and  C_6 
REMARK    2  A    between atoms: C_6  and  C_9 
REMARK    3  A    between atoms: C_14  and  C_17 
REMARK       I    between atoms: N_26  and  C_15 
REMARK    4  A    between atoms: C_15  and  C_16 
REMARK    5  A    between atoms: C_20  and  C_23 
REMARK    6  A    between atoms: OG1_24  and  CB_28 
REMARK    7  A    between atoms: N_26  and  CA_27 
REMARK    8  A    between atoms: CA_27  and  CB_28 
REMARK    9  A    between atoms: CA_27  and  C_30 
ROOT
HETATM    1  O   UNK A   0       3.090  11.422  89.671  1.00  0.00    -0.388 OA
HETATM    2  N   UNK A   0       4.735   9.306  88.713  1.00  0.00     0.096 N 
HETATM    3  C   UNK A   0       3.821  10.033  87.820  1.00  0.00     0.299 C 
HETATM    4  C   UNK A   0       4.207   9.309  90.084  1.00  0.00     0.299 C 
HETATM    5  C   UNK A   0       3.611  11.453  88.341  1.00  0.00     0.198 C 
HETATM    6  C   UNK A   0       3.986  10.744  90.551  1.00  0.00     0.198 C 
ENDROOT
BRANCH   2   7
HETATM    7  C   UNK A   0       4.943   7.939  88.239  1.00  0.00     0.311 C 
BRANCH   7   8
HETATM    8  C   UNK A   0       6.158   7.311  88.832  1.00  0.00    -0.030 A 
HETATM    9  C   UNK A   0       6.047   6.122  89.553  1.00  0.00     0.010 A 
HETATM   10  C   UNK A   0       7.183   5.535  90.110  1.00  0.00     0.021 A 
HETATM   11  C   UNK A   0       8.430   6.136  89.943  1.00  0.00     0.018 A 
HETATM   12  C   UNK A   0       8.543   7.324  89.222  1.00  0.00     0.021 A 
HETATM   13  C   UNK A   0       7.407   7.911  88.666  1.00  0.00     0.010 A 
BRANCH  11  14
HETATM   14  C   UNK A   0       9.596   5.533  90.512  1.00  0.00    -0.061 C 
HETATM   15  C   UNK A   0      10.576   5.025  90.990  1.00  0.00    -0.061 C 
BRANCH  15  16
HETATM   16  C   UNK A   0      11.741   4.422  91.558  1.00  0.00     0.018 A 
HETATM   17  C   UNK A   0      12.901   4.293  90.793  1.00  0.00     0.022 A 
HETATM   18  C   UNK A   0      14.038   3.707  91.348  1.00  0.00     0.018 A 
HETATM   19  C   UNK A   0      13.991   3.265  92.654  1.00  0.00     0.032 A 
HETATM   20  C   UNK A   0      12.857   3.381  93.430  1.00  0.00     0.018 A 
HETATM   21  C   UNK A   0      11.718   3.966  92.876  1.00  0.00     0.022 A 
BRANCH  19  22
HETATM   22  C   UNK A   0      15.203   2.639  93.244  1.00  0.00     0.252 C 
HETATM   23  O   UNK A   0      16.105   3.358  93.664  1.00  0.00    -0.268 OA
ENDBRANCH  19  22
ENDBRANCH  15  16
ENDBRANCH  11  14
ENDBRANCH   7   8
ENDBRANCH   2   7
TORSDOF 9
ENDMDL
MODEL 4
REMARK VINA RESULT:      -6.6      3.892     10.398
REMARK  9 active torsions:
REMARK  status: ('A' for Active; 'I' for Inactive)
REMARK    1  A    between atoms: N_3  and  C_6 
REMARK    2  A    between atoms: C_6  and  C_9 
REMARK    3  A    between atoms: C_14  and  C_17 
REMARK       I    between atoms: N_26  and  C_15 
REMARK    4  A    between atoms: C_15  and  C_16 
REMARK    5  A    between atoms: C_20  and  C_23 
REMARK    6  A    between atoms: OG1_24  and  CB_28 
REMARK    7  A    between atoms: N_26  and  CA_27 
REMARK    8  A    between atoms: CA_27  and  CB_28 
REMARK    9  A    between atoms: CA_27  and  C_30 
ROOT
HETATM    1  O   UNK A   0      14.571   3.335  92.111  1.00  0.00    -0.388 OA
HETATM    2  N   UNK A   0      11.849   4.156  92.247  1.00  0.00     0.096 N 
HETATM    3  C   UNK A   0      12.437   3.273  93.264  1.00  0.00     0.299 C 
HETATM    4  C   UNK A   0      12.531   3.964  90.959  1.00  0.00     0.299 C 
HETATM    5  C   UNK A   0      13.936   3.538  93.375  1.00  0.00     0.198 C 
HETATM    6  C   UNK A   0      14.027   4.212  91.124  1.00  0.00     0.198 C 
ENDROOT
BRANCH   2   7
HETATM    7  C   UNK A   0      10.414   3.912  92.117  1.00  0.00     0.311 C 
BRANCH   7   8
HETATM    8  C   UNK A   0       9.649   5.160  91.832  1.00  0.00    -0.030 A 
HETATM    9  C   UNK A   0       9.992   6.349  92.478  1.00  0.00     0.010 A 
HETATM   10  C   UNK A   0       9.276   7.517  92.214  1.00  0.00     0.021 A 
HETATM   11  C   UNK A   0       8.219   7.495  91.304  1.00  0.00     0.018 A 
HETATM   12  C   UNK A   0       7.877   6.309  90.659  1.00  0.00     0.021 A 
HETATM   13  C   UNK A   0       8.592   5.141  90.923  1.00  0.00     0.010 A 
BRANCH  11  14
HETATM   14  C   UNK A   0       7.486   8.693  91.033  1.00  0.00    -0.061 C 
HETATM   15  C   UNK A   0       6.870   9.700  90.804  1.00  0.00    -0.061 C 
BRANCH  15  16
HETATM   16  C   UNK A   0       6.137  10.897  90.533  1.00  0.00     0.018 A 
HETATM   17  C   UNK A   0       5.259  11.408  91.490  1.00  0.00     0.022 A 
HETATM   18  C   UNK A   0       4.546  12.578  91.226  1.00  0.00     0.018 A 
HETATM   19  C   UNK A   0       4.727  13.210  90.014  1.00  0.00     0.032 A 
HETATM   20  C   UNK A   0       5.587  12.724  89.051  1.00  0.00     0.018 A 
HETATM   21  C   UNK A   0       6.301  11.555  89.314  1.00  0.00     0.022 A 
BRANCH  19  22
HETATM   22  C   UNK A   0       3.965  14.454  89.733  1.00  0.00     0.252 C 
HETATM   23  O   UNK A   0       4.529  15.540  89.843  1.00  0.00    -0.268 OA
ENDBRANCH  19  22
ENDBRANCH  15  16
ENDBRANCH  11  14
ENDBRANCH   7   8
ENDBRANCH   2   7
TORSDOF 9
ENDMDL
MODEL 5
REMARK VINA RESULT:      -6.5      3.670     10.344
REMARK  9 active torsions:
REMARK  status: ('A' for Active; 'I' for Inactive)
REMARK    1  A    between atoms: N_3  and  C_6 
REMARK    2  A    between atoms: C_6  and  C_9 
REMARK    3  A    between atoms: C_14  and  C_17 
REMARK       I    between atoms: N_26  and  C_15 
REMARK    4  A    between atoms: C_15  and  C_16 
REMARK    5  A    between atoms: C_20  and  C_23 
REMARK    6  A    between atoms: OG1_24  and  CB_28 
REMARK    7  A    between atoms: N_26  and  CA_27 
REMARK    8  A    between atoms: CA_27  and  CB_28 
REMARK    9  A    between atoms: CA_27  and  C_30 
ROOT
HETATM    1  O   UNK A   0      16.119   3.081  93.567  1.00  0.00    -0.388 OA
HETATM    2  N   UNK A   0      13.374   2.945  92.824  1.00  0.00     0.096 N 
HETATM    3  C   UNK A   0      14.144   1.735  93.147  1.00  0.00     0.299 C 
HETATM    4  C   UNK A   0      14.267   3.979  92.283  1.00  0.00     0.299 C 
HETATM    5  C   UNK A   0      15.265   2.081  94.124  1.00  0.00     0.198 C 
HETATM    6  C   UNK A   0      15.385   4.272  93.279  1.00  0.00     0.198 C 
ENDROOT
BRANCH   2   7
HETATM    7  C   UNK A   0      12.301   2.639  91.880  1.00  0.00     0.311 C 
BRANCH   7   8
HETATM    8  C   UNK A   0      11.465   3.833  91.565  1.00  0.00    -0.030 A 
HETATM    9  C   UNK A   0      11.325   4.256  90.243  1.00  0.00     0.010 A 
HETATM   10  C   UNK A   0      10.545   5.374  89.947  1.00  0.00     0.021 A 
HETATM   11  C   UNK A   0       9.903   6.066  90.973  1.00  0.00     0.018 A 
HETATM   12  C   UNK A   0      10.041   5.644  92.294  1.00  0.00     0.021 A 
HETATM   13  C   UNK A   0      10.822   4.527  92.590  1.00  0.00     0.010 A 
BRANCH  11  14
HETATM   14  C   UNK A   0       9.101   7.211  90.669  1.00  0.00    -0.061 C 
HETATM   15  C   UNK A   0       8.426   8.173  90.414  1.00  0.00    -0.061 C 
BRANCH  15  16
HETATM   16  C   UNK A   0       7.624   9.317  90.111  1.00  0.00     0.018 A 
HETATM   17  C   UNK A   0       6.370   9.465  90.704  1.00  0.00     0.022 A 
HETATM   18  C   UNK A   0       5.589  10.583  90.410  1.00  0.00     0.018 A 
HETATM   19  C   UNK A   0       6.079  11.526  89.532  1.00  0.00     0.032 A 
HETATM   20  C   UNK A   0       7.314  11.403  88.933  1.00  0.00     0.018 A 
HETATM   21  C   UNK A   0       8.096  10.285  89.225  1.00  0.00     0.022 A 
BRANCH  19  22
HETATM   22  C   UNK A   0       5.245  12.716  89.218  1.00  0.00     0.252 C 
HETATM   23  O   UNK A   0       5.084  13.042  88.045  1.00  0.00    -0.268 OA
ENDBRANCH  19  22
ENDBRANCH  15  16
ENDBRANCH  11  14
ENDBRANCH   7   8
ENDBRANCH   2   7
TORSDOF 9
ENDMDL
MODEL 6
REMARK VINA RESULT:      -6.4      2.102      2.973
REMARK  9 active torsions:
REMARK  status: ('A' for Active; 'I' for Inactive)
REMARK    1  A    between atoms: N_3  and  C_6 
REMARK    2  A    between atoms: C_6  and  C_9 
REMARK    3  A    between atoms: C_14  and  C_17 
REMARK       I    between atoms: N_26  and  C_15 
REMARK    4  A    between atoms: C_15  and  C_16 
REMARK    5  A    between atoms: C_20  and  C_23 
REMARK    6  A    between atoms: OG1_24  and  CB_28 
REMARK    7  A    between atoms: N_26  and  CA_27 
REMARK    8  A    between atoms: CA_27  and  CB_28 
REMARK    9  A    between atoms: CA_27  and  C_30 
ROOT
HETATM    1  O   UNK A   0       4.113  12.160  88.610  1.00  0.00    -0.388 OA
HETATM    2  N   UNK A   0       4.718   9.591  89.675  1.00  0.00     0.096 N 
HETATM    3  C   UNK A   0       3.448   9.857  88.985  1.00  0.00     0.299 C 
HETATM    4  C   UNK A   0       5.215  10.821  90.306  1.00  0.00     0.299 C 
HETATM    5  C   UNK A   0       3.637  10.977  87.965  1.00  0.00     0.198 C 
HETATM    6  C   UNK A   0       5.363  11.918  89.256  1.00  0.00     0.198 C 
ENDROOT
BRANCH   2   7
HETATM    7  C   UNK A   0       4.557   8.528  90.664  1.00  0.00     0.311 C 
BRANCH   7   8
HETATM    8  C   UNK A   0       5.832   7.804  90.933  1.00  0.00    -0.030 A 
HETATM    9  C   UNK A   0       6.657   7.429  89.872  1.00  0.00     0.010 A 
HETATM   10  C   UNK A   0       7.850   6.750  90.122  1.00  0.00     0.021 A 
HETATM   11  C   UNK A   0       8.217   6.449  91.433  1.00  0.00     0.018 A 
HETATM   12  C   UNK A   0       7.394   6.823  92.493  1.00  0.00     0.021 A 
HETATM   13  C   UNK A   0       6.202   7.501  92.244  1.00  0.00     0.010 A 
BRANCH  11  14
HETATM   14  C   UNK A   0       9.442   5.754  91.690  1.00  0.00    -0.061 C 
HETATM   15  C   UNK A   0      10.470   5.171  91.906  1.00  0.00    -0.061 C 
BRANCH  15  16
HETATM   16  C   UNK A   0      11.693   4.476  92.163  1.00  0.00     0.018 A 
HETATM   17  C   UNK A   0      11.906   3.877  93.405  1.00  0.00     0.022 A 
HETATM   18  C   UNK A   0      13.098   3.197  93.654  1.00  0.00     0.018 A 
HETATM   19  C   UNK A   0      14.049   3.131  92.658  1.00  0.00     0.032 A 
HETATM   20  C   UNK A   0      13.863   3.715  91.422  1.00  0.00     0.018 A 
HETATM   21  C   UNK A   0      12.671   4.395  91.172  1.00  0.00     0.022 A 
BRANCH  19  22
HETATM   22  C   UNK A   0      15.320   2.408  92.925  1.00  0.00     0.252 C 
HETATM   23  O   UNK A   0      16.233   2.994  93.501  1.00  0.00    -0.268 OA
ENDBRANCH  19  22
ENDBRANCH  15  16
ENDBRANCH  11  14
ENDBRANCH   7   8
ENDBRANCH   2   7
TORSDOF 9
ENDMDL
MODEL 7
REMARK VINA RESULT:      -6.4      1.056      1.491
REMARK  9 active torsions:
REMARK  status: ('A' for Active; 'I' for Inactive)
REMARK    1  A    between atoms: N_3  and  C_6 
REMARK    2  A    between atoms: C_6  and  C_9 
REMARK    3  A    between atoms: C_14  and  C_17 
REMARK       I    between atoms: N_26  and  C_15 
REMARK    4  A    between atoms: C_15  and  C_16 
REMARK    5  A    between atoms: C_20  and  C_23 
REMARK    6  A    between atoms: OG1_24  and  CB_28 
REMARK    7  A    between atoms: N_26  and  CA_27 
REMARK    8  A    between atoms: CA_27  and  CB_28 
REMARK    9  A    between atoms: CA_27  and  C_30 
ROOT
HETATM    1  O   UNK A   0       3.913   9.614  90.232  1.00  0.00    -0.388 OA
HETATM    2  N   UNK A   0       5.064   8.519  87.870  1.00  0.00     0.096 N 
HETATM    3  C   UNK A   0       3.796   8.011  88.414  1.00  0.00     0.299 C 
HETATM    4  C   UNK A   0       5.898   9.055  88.954  1.00  0.00     0.299 C 
HETATM    5  C   UNK A   0       3.081   9.121  89.181  1.00  0.00     0.198 C 
HETATM    6  C   UNK A   0       5.134  10.138  89.709  1.00  0.00     0.198 C 
ENDROOT
BRANCH   2   7
HETATM    7  C   UNK A   0       5.771   7.469  87.140  1.00  0.00     0.311 C 
BRANCH   7   8
HETATM    8  C   UNK A   0       6.891   6.883  87.931  1.00  0.00    -0.030 A 
HETATM    9  C   UNK A   0       6.619   6.169  89.098  1.00  0.00     0.010 A 
HETATM   10  C   UNK A   0       7.666   5.622  89.840  1.00  0.00     0.021 A 
HETATM   11  C   UNK A   0       8.983   5.787  89.413  1.00  0.00     0.018 A 
HETATM   12  C   UNK A   0       9.255   6.499  88.247  1.00  0.00     0.021 A 
HETATM   13  C   UNK A   0       8.209   7.047  87.505  1.00  0.00     0.010 A 
BRANCH  11  14
HETATM   14  C   UNK A   0      10.056   5.224  90.173  1.00  0.00    -0.061 C 
HETATM   15  C   UNK A   0      10.958   4.751  90.812  1.00  0.00    -0.061 C 
BRANCH  15  16
HETATM   16  C   UNK A   0      12.031   4.188  91.573  1.00  0.00     0.018 A 
HETATM   17  C   UNK A   0      11.828   3.837  92.907  1.00  0.00     0.022 A 
HETATM   18  C   UNK A   0      12.873   3.286  93.648  1.00  0.00     0.018 A 
HETATM   19  C   UNK A   0      14.096   3.097  93.038  1.00  0.00     0.032 A 
HETATM   20  C   UNK A   0      14.321   3.437  91.721  1.00  0.00     0.018 A 
HETATM   21  C   UNK A   0      13.277   3.988  90.979  1.00  0.00     0.022 A 
BRANCH  19  22
HETATM   22  C   UNK A   0      15.210   2.512  93.829  1.00  0.00     0.252 C 
HETATM   23  O   UNK A   0      16.349   2.944  93.671  1.00  0.00    -0.268 OA
ENDBRANCH  19  22
ENDBRANCH  15  16
ENDBRANCH  11  14
ENDBRANCH   7   8
ENDBRANCH   2   7
TORSDOF 9
ENDMDL
MODEL 8
REMARK VINA RESULT:      -6.3      3.284      4.259
REMARK  9 active torsions:
REMARK  status: ('A' for Active; 'I' for Inactive)
REMARK    1  A    between atoms: N_3  and  C_6 
REMARK    2  A    between atoms: C_6  and  C_9 
REMARK    3  A    between atoms: C_14  and  C_17 
REMARK       I    between atoms: N_26  and  C_15 
REMARK    4  A    between atoms: C_15  and  C_16 
REMARK    5  A    between atoms: C_20  and  C_23 
REMARK    6  A    between atoms: OG1_24  and  CB_28 
REMARK    7  A    between atoms: N_26  and  CA_27 
REMARK    8  A    between atoms: CA_27  and  CB_28 
REMARK    9  A    between atoms: CA_27  and  C_30 
ROOT
HETATM    1  O   UNK A   0       4.234  15.056  89.852  1.00  0.00    -0.388 OA
HETATM    2  N   UNK A   0       4.876  12.312  89.450  1.00  0.00     0.096 N 
HETATM    3  C   UNK A   0       4.898  13.277  88.341  1.00  0.00     0.299 C 
HETATM    4  C   UNK A   0       3.899  12.733  90.463  1.00  0.00     0.299 C 
HETATM    5  C   UNK A   0       5.205  14.673  88.876  1.00  0.00     0.198 C 
HETATM    6  C   UNK A   0       4.228  14.141  90.948  1.00  0.00     0.198 C 
ENDROOT
BRANCH   2   7
HETATM    7  C   UNK A   0       4.573  10.968  88.961  1.00  0.00     0.311 C 
BRANCH   7   8
HETATM    8  C   UNK A   0       5.608   9.972  89.360  1.00  0.00    -0.030 A 
HETATM    9  C   UNK A   0       5.372   8.610  89.173  1.00  0.00     0.010 A 
HETATM   10  C   UNK A   0       6.338   7.677  89.547  1.00  0.00     0.021 A 
HETATM   11  C   UNK A   0       7.541   8.107  90.106  1.00  0.00     0.018 A 
HETATM   12  C   UNK A   0       7.778   9.467  90.293  1.00  0.00     0.021 A 
HETATM   13  C   UNK A   0       6.812  10.400  89.920  1.00  0.00     0.010 A 
BRANCH  11  14
HETATM   14  C   UNK A   0       8.534   7.150  90.489  1.00  0.00    -0.061 C 
HETATM   15  C   UNK A   0       9.368   6.345  90.809  1.00  0.00    -0.061 C 
BRANCH  15  16
HETATM   16  C   UNK A   0      10.360   5.389  91.190  1.00  0.00     0.018 A 
HETATM   17  C   UNK A   0      11.117   4.743  90.212  1.00  0.00     0.022 A 
HETATM   18  C   UNK A   0      12.087   3.812  90.584  1.00  0.00     0.018 A 
HETATM   19  C   UNK A   0      12.278   3.549  91.925  1.00  0.00     0.032 A 
HETATM   20  C   UNK A   0      11.543   4.174  92.910  1.00  0.00     0.018 A 
HETATM   21  C   UNK A   0      10.573   5.104  92.539  1.00  0.00     0.022 A 
BRANCH  19  22
HETATM   22  C   UNK A   0      13.310   2.556  92.320  1.00  0.00     0.252 C 
HETATM   23  O   UNK A   0      13.935   2.723  93.365  1.00  0.00    -0.268 OA
ENDBRANCH  19  22
ENDBRANCH  15  16
ENDBRANCH  11  14
ENDBRANCH   7   8
ENDBRANCH   2   7
TORSDOF 9
ENDMDL
MODEL 9
REMARK VINA RESULT:      -6.2      4.776     10.240
REMARK  9 active torsions:
REMARK  status: ('A' for Active; 'I' for Inactive)
REMARK    1  A    between atoms: N_3  and  C_6 
REMARK    2  A    between atoms: C_6  and  C_9 
REMARK    3  A    between atoms: C_14  and  C_17 
REMARK       I    between atoms: N_26  and  C_15 
REMARK    4  A    between atoms: C_15  and  C_16 
REMARK    5  A    between atoms: C_20  and  C_23 
REMARK    6  A    between atoms: OG1_24  and  CB_28 
REMARK    7  A    between atoms: N_26  and  CA_27 
REMARK    8  A    between atoms: CA_27  and  CB_28 
REMARK    9  A    between atoms: CA_27  and  C_30 
ROOT
HETATM    1  O   UNK A   0      10.984   3.690  88.747  1.00  0.00    -0.388 OA
HETATM    2  N   UNK A   0       9.480   5.876  87.716  1.00  0.00     0.096 N 
HETATM    3  C   UNK A   0      10.170   4.932  86.827  1.00  0.00     0.299 C 
HETATM    4  C   UNK A   0      10.188   5.968  89.000  1.00  0.00     0.299 C 
HETATM    5  C   UNK A   0      10.284   3.570  87.507  1.00  0.00     0.198 C 
HETATM    6  C   UNK A   0      10.302   4.583  89.629  1.00  0.00     0.198 C 
ENDROOT
BRANCH   2   7
HETATM    7  C   UNK A   0       9.369   7.192  87.088  1.00  0.00     0.311 C 
BRANCH   7   8
HETATM    8  C   UNK A   0       8.527   8.131  87.883  1.00  0.00    -0.030 A 
HETATM    9  C   UNK A   0       9.036   9.375  88.258  1.00  0.00     0.010 A 
HETATM   10  C   UNK A   0       8.251  10.254  89.004  1.00  0.00     0.021 A 
HETATM   11  C   UNK A   0       6.956   9.889  89.371  1.00  0.00     0.018 A 
HETATM   12  C   UNK A   0       6.446   8.648  88.997  1.00  0.00     0.021 A 
HETATM   13  C   UNK A   0       7.232   7.768  88.252  1.00  0.00     0.010 A 
BRANCH  11  14
HETATM   14  C   UNK A   0       6.150  10.792  90.134  1.00  0.00    -0.061 C 
HETATM   15  C   UNK A   0       5.471  11.551  90.775  1.00  0.00    -0.061 C 
BRANCH  15  16
HETATM   16  C   UNK A   0       4.665  12.453  91.536  1.00  0.00     0.018 A 
HETATM   17  C   UNK A   0       4.210  12.081  92.802  1.00  0.00     0.022 A 
HETATM   18  C   UNK A   0       3.426  12.962  93.546  1.00  0.00     0.018 A 
HETATM   19  C   UNK A   0       3.114  14.193  93.009  1.00  0.00     0.032 A 
HETATM   20  C   UNK A   0       3.551  14.584  91.761  1.00  0.00     0.018 A 
HETATM   21  C   UNK A   0       4.335  13.704  91.016  1.00  0.00     0.022 A 
BRANCH  19  22
HETATM   22  C   UNK A   0       2.276  15.131  93.802  1.00  0.00     0.252 C 
HETATM   23  O   UNK A   0       1.256  15.595  93.299  1.00  0.00    -0.268 OA
ENDBRANCH  19  22
ENDBRANCH  15  16
ENDBRANCH  11  14
ENDBRANCH   7   8
ENDBRANCH   2   7
TORSDOF 9
ENDMDL
