MODEL 1
REMARK VINA RESULT:      -7.5      0.000      0.000
REMARK  9 active torsions:
REMARK  status: ('A' for Active; 'I' for Inactive)
REMARK    1  A    between atoms: N_3  and  C_6 
REMARK    2  A    between atoms: C_6  and  C_9 
REMARK    3  A    between atoms: C_14  and  C_17 
REMARK       I    between atoms: N_26  and  C_15 
REMARK    4  A    between atoms: C_15  and  C_16 
REMARK    5  A    between atoms: C_20  and  C_23 
REMARK    6  A    between atoms: OG1_24  and  CB_28 
REMARK    7  A    between atoms: N_26  and  CA_27 
REMARK    8  A    between atoms: CA_27  and  CB_28 
REMARK    9  A    between atoms: CA_27  and  C_30 
ROOT
HETATM    1  O   UNK A   0       1.885   8.168  87.852  1.00  0.00    -0.388 OA
HETATM    2  N   UNK A   0       4.667   7.593  87.673  1.00  0.00     0.096 N 
HETATM    3  C   UNK A   0       4.174   8.972  87.792  1.00  0.00     0.299 C 
HETATM    4  C   UNK A   0       3.664   6.756  86.999  1.00  0.00     0.299 C 
HETATM    5  C   UNK A   0       2.840   8.982  88.535  1.00  0.00     0.198 C 
HETATM    6  C   UNK A   0       2.343   6.818  87.759  1.00  0.00     0.198 C 
ENDROOT
BRANCH   2   7
HETATM    7  C   UNK A   0       5.940   7.558  86.955  1.00  0.00     0.311 C 
BRANCH   7   8
HETATM    8  C   UNK A   0       7.034   6.955  87.768  1.00  0.00    -0.030 A 
HETATM    9  C   UNK A   0       6.781   6.536  89.075  1.00  0.00     0.010 A 
HETATM   10  C   UNK A   0       7.805   5.973  89.837  1.00  0.00     0.021 A 
HETATM   11  C   UNK A   0       9.080   5.827  89.291  1.00  0.00     0.018 A 
HETATM   12  C   UNK A   0       9.333   6.245  87.986  1.00  0.00     0.021 A 
HETATM   13  C   UNK A   0       8.310   6.809  87.224  1.00  0.00     0.010 A 
BRANCH  11  14
HETATM   14  C   UNK A   0      10.129   5.248  90.072  1.00  0.00    -0.061 C 
HETATM   15  C   UNK A   0      11.011   4.762  90.728  1.00  0.00    -0.061 C 
BRANCH  15  16
HETATM   16  C   UNK A   0      12.060   4.183  91.510  1.00  0.00     0.018 A 
HETATM   17  C   UNK A   0      13.317   3.974  90.942  1.00  0.00     0.022 A 
HETATM   18  C   UNK A   0      14.340   3.412  91.706  1.00  0.00     0.018 A 
HETATM   19  C   UNK A   0      14.084   3.073  93.018  1.00  0.00     0.032 A 
HETATM   20  C   UNK A   0      12.850   3.269  93.601  1.00  0.00     0.018 A 
HETATM   21  C   UNK A   0      11.826   3.831  92.839  1.00  0.00     0.022 A 
BRANCH  19  22
HETATM   22  C   UNK A   0      15.174   2.472  93.830  1.00  0.00     0.252 C 
HETATM   23  O   UNK A   0      16.324   2.880  93.685  1.00  0.00    -0.268 OA
ENDBRANCH  19  22
ENDBRANCH  15  16
ENDBRANCH  11  14
ENDBRANCH   7   8
ENDBRANCH   2   7
TORSDOF 9
ENDMDL
MODEL 2
REMARK VINA RESULT:      -7.5      0.112      1.014
REMARK  9 active torsions:
REMARK  status: ('A' for Active; 'I' for Inactive)
REMARK    1  A    between atoms: N_3  and  C_6 
REMARK    2  A    between atoms: C_6  and  C_9 
REMARK    3  A    between atoms: C_14  and  C_17 
REMARK       I    between atoms: N_26  and  C_15 
REMARK    4  A    between atoms: C_15  and  C_16 
REMARK    5  A    between atoms: C_20  and  C_23 
REMARK    6  A    between atoms: OG1_24  and  CB_28 
REMARK    7  A    between atoms: N_26  and  CA_27 
REMARK    8  A    between atoms: CA_27  and  CB_28 
REMARK    9  A    between atoms: CA_27  and  C_30 
ROOT
HETATM    1  O   UNK A   0       1.824   8.133  87.939  1.00  0.00    -0.388 OA
HETATM    2  N   UNK A   0       4.611   7.585  87.753  1.00  0.00     0.096 N 
HETATM    3  C   UNK A   0       4.103   8.961  87.842  1.00  0.00     0.299 C 
HETATM    4  C   UNK A   0       3.612   6.721  87.107  1.00  0.00     0.299 C 
HETATM    5  C   UNK A   0       2.775   8.974  88.595  1.00  0.00     0.198 C 
HETATM    6  C   UNK A   0       2.296   6.787  87.875  1.00  0.00     0.198 C 
ENDROOT
BRANCH   2   7
HETATM    7  C   UNK A   0       5.878   7.547  87.026  1.00  0.00     0.311 C 
BRANCH   7   8
HETATM    8  C   UNK A   0       6.978   6.946  87.833  1.00  0.00    -0.030 A 
HETATM    9  C   UNK A   0       6.761   6.621  89.172  1.00  0.00     0.010 A 
HETATM   10  C   UNK A   0       7.790   6.060  89.929  1.00  0.00     0.021 A 
HETATM   11  C   UNK A   0       9.034   5.822  89.345  1.00  0.00     0.018 A 
HETATM   12  C   UNK A   0       9.251   6.146  88.007  1.00  0.00     0.021 A 
HETATM   13  C   UNK A   0       8.223   6.708  87.251  1.00  0.00     0.010 A 
BRANCH  11  14
HETATM   14  C   UNK A   0      10.088   5.245  90.121  1.00  0.00    -0.061 C 
HETATM   15  C   UNK A   0      10.975   4.760  90.773  1.00  0.00    -0.061 C 
BRANCH  15  16
HETATM   16  C   UNK A   0      12.028   4.183  91.548  1.00  0.00     0.018 A 
HETATM   17  C   UNK A   0      11.799   3.827  92.878  1.00  0.00     0.022 A 
HETATM   18  C   UNK A   0      12.827   3.262  93.634  1.00  0.00     0.018 A 
HETATM   19  C   UNK A   0      14.058   3.066  93.044  1.00  0.00     0.032 A 
HETATM   20  C   UNK A   0      14.309   3.410  91.732  1.00  0.00     0.018 A 
HETATM   21  C   UNK A   0      13.283   3.975  90.975  1.00  0.00     0.022 A 
BRANCH  19  22
HETATM   22  C   UNK A   0      15.152   2.465  93.850  1.00  0.00     0.252 C 
HETATM   23  O   UNK A   0      16.223   3.061  93.946  1.00  0.00    -0.268 OA
ENDBRANCH  19  22
ENDBRANCH  15  16
ENDBRANCH  11  14
ENDBRANCH   7   8
ENDBRANCH   2   7
TORSDOF 9
ENDMDL
MODEL 3
REMARK VINA RESULT:      -7.5      0.137      1.424
REMARK  9 active torsions:
REMARK  status: ('A' for Active; 'I' for Inactive)
REMARK    1  A    between atoms: N_3  and  C_6 
REMARK    2  A    between atoms: C_6  and  C_9 
REMARK    3  A    between atoms: C_14  and  C_17 
REMARK       I    between atoms: N_26  and  C_15 
REMARK    4  A    between atoms: C_15  and  C_16 
REMARK    5  A    between atoms: C_20  and  C_23 
REMARK    6  A    between atoms: OG1_24  and  CB_28 
REMARK    7  A    between atoms: N_26  and  CA_27 
REMARK    8  A    between atoms: CA_27  and  CB_28 
REMARK    9  A    between atoms: CA_27  and  C_30 
ROOT
HETATM    1  O   UNK A   0       1.937   8.087  87.811  1.00  0.00    -0.388 OA
HETATM    2  N   UNK A   0       4.736   7.585  87.685  1.00  0.00     0.096 N 
HETATM    3  C   UNK A   0       4.204   8.952  87.766  1.00  0.00     0.299 C 
HETATM    4  C   UNK A   0       3.766   6.706  87.016  1.00  0.00     0.299 C 
HETATM    5  C   UNK A   0       2.859   8.942  88.489  1.00  0.00     0.198 C 
HETATM    6  C   UNK A   0       2.432   6.749  87.755  1.00  0.00     0.198 C 
ENDROOT
BRANCH   2   7
HETATM    7  C   UNK A   0       6.020   7.569  86.986  1.00  0.00     0.311 C 
BRANCH   7   8
HETATM    8  C   UNK A   0       7.106   6.961  87.807  1.00  0.00    -0.030 A 
HETATM    9  C   UNK A   0       8.309   6.591  87.205  1.00  0.00     0.010 A 
HETATM   10  C   UNK A   0       9.325   6.020  87.972  1.00  0.00     0.021 A 
HETATM   11  C   UNK A   0       9.138   5.822  89.339  1.00  0.00     0.018 A 
HETATM   12  C   UNK A   0       7.937   6.192  89.941  1.00  0.00     0.021 A 
HETATM   13  C   UNK A   0       6.920   6.762  89.175  1.00  0.00     0.010 A 
BRANCH  11  14
HETATM   14  C   UNK A   0      10.181   5.238  90.126  1.00  0.00    -0.061 C 
HETATM   15  C   UNK A   0      11.058   4.748  90.786  1.00  0.00    -0.061 C 
BRANCH  15  16
HETATM   16  C   UNK A   0      12.100   4.166  91.572  1.00  0.00     0.018 A 
HETATM   17  C   UNK A   0      11.870   3.852  92.912  1.00  0.00     0.022 A 
HETATM   18  C   UNK A   0      12.886   3.282  93.678  1.00  0.00     0.018 A 
HETATM   19  C   UNK A   0      14.109   3.037  93.088  1.00  0.00     0.032 A 
HETATM   20  C   UNK A   0      14.362   3.339  91.766  1.00  0.00     0.018 A 
HETATM   21  C   UNK A   0      13.346   3.910  90.999  1.00  0.00     0.022 A 
BRANCH  19  22
HETATM   22  C   UNK A   0      15.192   2.431  93.905  1.00  0.00     0.252 C 
HETATM   23  O   UNK A   0      16.310   2.940  93.891  1.00  0.00    -0.268 OA
ENDBRANCH  19  22
ENDBRANCH  15  16
ENDBRANCH  11  14
ENDBRANCH   7   8
ENDBRANCH   2   7
TORSDOF 9
ENDMDL
MODEL 4
REMARK VINA RESULT:      -6.8      1.491      2.178
REMARK  9 active torsions:
REMARK  status: ('A' for Active; 'I' for Inactive)
REMARK    1  A    between atoms: N_3  and  C_6 
REMARK    2  A    between atoms: C_6  and  C_9 
REMARK    3  A    between atoms: C_14  and  C_17 
REMARK       I    between atoms: N_26  and  C_15 
REMARK    4  A    between atoms: C_15  and  C_16 
REMARK    5  A    between atoms: C_20  and  C_23 
REMARK    6  A    between atoms: OG1_24  and  CB_28 
REMARK    7  A    between atoms: N_26  and  CA_27 
REMARK    8  A    between atoms: CA_27  and  CB_28 
REMARK    9  A    between atoms: CA_27  and  C_30 
ROOT
HETATM    1  O   UNK A   0       3.072  11.438  89.596  1.00  0.00    -0.388 OA
HETATM    2  N   UNK A   0       4.651   9.246  88.698  1.00  0.00     0.096 N 
HETATM    3  C   UNK A   0       3.757   9.973  87.786  1.00  0.00     0.299 C 
HETATM    4  C   UNK A   0       4.128   9.306  90.070  1.00  0.00     0.299 C 
HETATM    5  C   UNK A   0       3.590  11.413  88.264  1.00  0.00     0.198 C 
HETATM    6  C   UNK A   0       3.951  10.761  90.494  1.00  0.00     0.198 C 
ENDROOT
BRANCH   2   7
HETATM    7  C   UNK A   0       4.817   7.860  88.265  1.00  0.00     0.311 C 
BRANCH   7   8
HETATM    8  C   UNK A   0       6.047   7.233  88.826  1.00  0.00    -0.030 A 
HETATM    9  C   UNK A   0       5.942   6.129  89.673  1.00  0.00     0.010 A 
HETATM   10  C   UNK A   0       7.093   5.543  90.200  1.00  0.00     0.021 A 
HETATM   11  C   UNK A   0       8.348   6.060  89.879  1.00  0.00     0.018 A 
HETATM   12  C   UNK A   0       8.453   7.162  89.033  1.00  0.00     0.021 A 
HETATM   13  C   UNK A   0       7.303   7.749  88.506  1.00  0.00     0.010 A 
BRANCH  11  14
HETATM   14  C   UNK A   0       9.528   5.457  90.418  1.00  0.00    -0.061 C 
HETATM   15  C   UNK A   0      10.520   4.951  90.872  1.00  0.00    -0.061 C 
BRANCH  15  16
HETATM   16  C   UNK A   0      11.699   4.349  91.411  1.00  0.00     0.018 A 
HETATM   17  C   UNK A   0      11.683   3.823  92.704  1.00  0.00     0.022 A 
HETATM   18  C   UNK A   0      12.833   3.233  93.229  1.00  0.00     0.018 A 
HETATM   19  C   UNK A   0      13.970   3.181  92.451  1.00  0.00     0.032 A 
HETATM   20  C   UNK A   0      14.011   3.693  91.171  1.00  0.00     0.018 A 
HETATM   21  C   UNK A   0      12.862   4.284  90.645  1.00  0.00     0.022 A 
BRANCH  19  22
HETATM   22  C   UNK A   0      15.195   2.553  93.012  1.00  0.00     0.252 C 
HETATM   23  O   UNK A   0      16.014   3.256  93.599  1.00  0.00    -0.268 OA
ENDBRANCH  19  22
ENDBRANCH  15  16
ENDBRANCH  11  14
ENDBRANCH   7   8
ENDBRANCH   2   7
TORSDOF 9
ENDMDL
MODEL 5
REMARK VINA RESULT:      -6.7      1.355      1.675
REMARK  9 active torsions:
REMARK  status: ('A' for Active; 'I' for Inactive)
REMARK    1  A    between atoms: N_3  and  C_6 
REMARK    2  A    between atoms: C_6  and  C_9 
REMARK    3  A    between atoms: C_14  and  C_17 
REMARK       I    between atoms: N_26  and  C_15 
REMARK    4  A    between atoms: C_15  and  C_16 
REMARK    5  A    between atoms: C_20  and  C_23 
REMARK    6  A    between atoms: OG1_24  and  CB_28 
REMARK    7  A    between atoms: N_26  and  CA_27 
REMARK    8  A    between atoms: CA_27  and  CB_28 
REMARK    9  A    between atoms: CA_27  and  C_30 
ROOT
HETATM    1  O   UNK A   0       4.307  11.330  89.106  1.00  0.00    -0.388 OA
HETATM    2  N   UNK A   0       4.924   8.576  88.729  1.00  0.00     0.096 N 
HETATM    3  C   UNK A   0       5.955   9.548  89.118  1.00  0.00     0.299 C 
HETATM    4  C   UNK A   0       3.874   9.243  87.946  1.00  0.00     0.299 C 
HETATM    5  C   UNK A   0       5.317  10.697  89.895  1.00  0.00     0.198 C 
HETATM    6  C   UNK A   0       3.285  10.399  88.749  1.00  0.00     0.198 C 
ENDROOT
BRANCH   2   7
HETATM    7  C   UNK A   0       5.512   7.472  87.973  1.00  0.00     0.311 C 
BRANCH   7   8
HETATM    8  C   UNK A   0       6.692   6.877  88.663  1.00  0.00    -0.030 A 
HETATM    9  C   UNK A   0       6.521   6.182  89.861  1.00  0.00     0.010 A 
HETATM   10  C   UNK A   0       7.625   5.627  90.509  1.00  0.00     0.021 A 
HETATM   11  C   UNK A   0       8.898   5.765  89.957  1.00  0.00     0.018 A 
HETATM   12  C   UNK A   0       9.070   6.459  88.761  1.00  0.00     0.021 A 
HETATM   13  C   UNK A   0       7.967   7.015  88.114  1.00  0.00     0.010 A 
BRANCH  11  14
HETATM   14  C   UNK A   0      10.030   5.194  90.621  1.00  0.00    -0.061 C 
HETATM   15  C   UNK A   0      10.980   4.714  91.179  1.00  0.00    -0.061 C 
BRANCH  15  16
HETATM   16  C   UNK A   0      12.111   4.142  91.842  1.00  0.00     0.018 A 
HETATM   17  C   UNK A   0      13.300   3.939  91.142  1.00  0.00     0.022 A 
HETATM   18  C   UNK A   0      14.403   3.384  91.790  1.00  0.00     0.018 A 
HETATM   19  C   UNK A   0      14.293   3.046  93.122  1.00  0.00     0.032 A 
HETATM   20  C   UNK A   0      13.129   3.237  93.837  1.00  0.00     0.018 A 
HETATM   21  C   UNK A   0      12.025   3.792  93.190  1.00  0.00     0.022 A 
BRANCH  19  22
HETATM   22  C   UNK A   0      15.468   2.453  93.812  1.00  0.00     0.252 C 
HETATM   23  O   UNK A   0      16.554   3.025  93.746  1.00  0.00    -0.268 OA
ENDBRANCH  19  22
ENDBRANCH  15  16
ENDBRANCH  11  14
ENDBRANCH   7   8
ENDBRANCH   2   7
TORSDOF 9
ENDMDL
MODEL 6
REMARK VINA RESULT:      -6.7      3.549     10.358
REMARK  9 active torsions:
REMARK  status: ('A' for Active; 'I' for Inactive)
REMARK    1  A    between atoms: N_3  and  C_6 
REMARK    2  A    between atoms: C_6  and  C_9 
REMARK    3  A    between atoms: C_14  and  C_17 
REMARK       I    between atoms: N_26  and  C_15 
REMARK    4  A    between atoms: C_15  and  C_16 
REMARK    5  A    between atoms: C_20  and  C_23 
REMARK    6  A    between atoms: OG1_24  and  CB_28 
REMARK    7  A    between atoms: N_26  and  CA_27 
REMARK    8  A    between atoms: CA_27  and  CB_28 
REMARK    9  A    between atoms: CA_27  and  C_30 
ROOT
HETATM    1  O   UNK A   0      16.229   3.130  93.609  1.00  0.00    -0.388 OA
HETATM    2  N   UNK A   0      13.507   2.903  92.806  1.00  0.00     0.096 N 
HETATM    3  C   UNK A   0      14.318   1.717  93.116  1.00  0.00     0.299 C 
HETATM    4  C   UNK A   0      14.368   3.986  92.309  1.00  0.00     0.299 C 
HETATM    5  C   UNK A   0      15.404   2.083  94.124  1.00  0.00     0.198 C 
HETATM    6  C   UNK A   0      15.453   4.297  93.335  1.00  0.00     0.198 C 
ENDROOT
BRANCH   2   7
HETATM    7  C   UNK A   0      12.466   2.579  91.833  1.00  0.00     0.311 C 
BRANCH   7   8
HETATM    8  C   UNK A   0      11.610   3.755  91.503  1.00  0.00    -0.030 A 
HETATM    9  C   UNK A   0      10.978   4.465  92.525  1.00  0.00     0.010 A 
HETATM   10  C   UNK A   0      10.176   5.563  92.217  1.00  0.00     0.021 A 
HETATM   11  C   UNK A   0      10.009   5.953  90.888  1.00  0.00     0.018 A 
HETATM   12  C   UNK A   0      10.640   5.245  89.868  1.00  0.00     0.021 A 
HETATM   13  C   UNK A   0      11.441   4.145  90.175  1.00  0.00     0.010 A 
BRANCH  11  14
HETATM   14  C   UNK A   0       9.188   7.081  90.573  1.00  0.00    -0.061 C 
HETATM   15  C   UNK A   0       8.497   8.029  90.308  1.00  0.00    -0.061 C 
BRANCH  15  16
HETATM   16  C   UNK A   0       7.676   9.157  89.994  1.00  0.00     0.018 A 
HETATM   17  C   UNK A   0       6.300   9.100  90.217  1.00  0.00     0.022 A 
HETATM   18  C   UNK A   0       5.500  10.202  89.913  1.00  0.00     0.018 A 
HETATM   19  C   UNK A   0       6.093  11.333  89.394  1.00  0.00     0.032 A 
HETATM   20  C   UNK A   0       7.450  11.414  89.163  1.00  0.00     0.018 A 
HETATM   21  C   UNK A   0       8.252  10.313  89.467  1.00  0.00     0.022 A 
BRANCH  19  22
HETATM   22  C   UNK A   0       5.240  12.506  89.068  1.00  0.00     0.252 C 
HETATM   23  O   UNK A   0       4.966  12.740  87.893  1.00  0.00    -0.268 OA
ENDBRANCH  19  22
ENDBRANCH  15  16
ENDBRANCH  11  14
ENDBRANCH   7   8
ENDBRANCH   2   7
TORSDOF 9
ENDMDL
MODEL 7
REMARK VINA RESULT:      -6.6      3.932     10.448
REMARK  9 active torsions:
REMARK  status: ('A' for Active; 'I' for Inactive)
REMARK    1  A    between atoms: N_3  and  C_6 
REMARK    2  A    between atoms: C_6  and  C_9 
REMARK    3  A    between atoms: C_14  and  C_17 
REMARK       I    between atoms: N_26  and  C_15 
REMARK    4  A    between atoms: C_15  and  C_16 
REMARK    5  A    between atoms: C_20  and  C_23 
REMARK    6  A    between atoms: OG1_24  and  CB_28 
REMARK    7  A    between atoms: N_26  and  CA_27 
REMARK    8  A    between atoms: CA_27  and  CB_28 
REMARK    9  A    between atoms: CA_27  and  C_30 
ROOT
HETATM    1  O   UNK A   0      14.581   3.361  91.999  1.00  0.00    -0.388 OA
HETATM    2  N   UNK A   0      11.865   4.170  92.269  1.00  0.00     0.096 N 
HETATM    3  C   UNK A   0      12.495   3.260  93.236  1.00  0.00     0.299 C 
HETATM    4  C   UNK A   0      12.494   4.017  90.950  1.00  0.00     0.299 C 
HETATM    5  C   UNK A   0      13.998   3.525  93.293  1.00  0.00     0.198 C 
HETATM    6  C   UNK A   0      13.996   4.264  91.061  1.00  0.00     0.198 C 
ENDROOT
BRANCH   2   7
HETATM    7  C   UNK A   0      10.426   3.926  92.190  1.00  0.00     0.311 C 
BRANCH   7   8
HETATM    8  C   UNK A   0       9.654   5.168  91.902  1.00  0.00    -0.030 A 
HETATM    9  C   UNK A   0       9.859   6.311  92.676  1.00  0.00     0.010 A 
HETATM   10  C   UNK A   0       9.135   7.473  92.408  1.00  0.00     0.021 A 
HETATM   11  C   UNK A   0       8.210   7.492  91.365  1.00  0.00     0.018 A 
HETATM   12  C   UNK A   0       8.006   6.352  90.591  1.00  0.00     0.021 A 
HETATM   13  C   UNK A   0       8.728   5.189  90.859  1.00  0.00     0.010 A 
BRANCH  11  14
HETATM   14  C   UNK A   0       7.470   8.685  91.089  1.00  0.00    -0.061 C 
HETATM   15  C   UNK A   0       6.849   9.688  90.856  1.00  0.00    -0.061 C 
BRANCH  15  16
HETATM   16  C   UNK A   0       6.109  10.879  90.580  1.00  0.00     0.018 A 
HETATM   17  C   UNK A   0       5.235  11.395  91.538  1.00  0.00     0.022 A 
HETATM   18  C   UNK A   0       4.515  12.559  91.269  1.00  0.00     0.018 A 
HETATM   19  C   UNK A   0       4.685  13.181  90.050  1.00  0.00     0.032 A 
HETATM   20  C   UNK A   0       5.542  12.692  89.087  1.00  0.00     0.018 A 
HETATM   21  C   UNK A   0       6.263  11.528  89.355  1.00  0.00     0.022 A 
BRANCH  19  22
HETATM   22  C   UNK A   0       3.917  14.420  89.763  1.00  0.00     0.252 C 
HETATM   23  O   UNK A   0       4.505  15.499  89.739  1.00  0.00    -0.268 OA
ENDBRANCH  19  22
ENDBRANCH  15  16
ENDBRANCH  11  14
ENDBRANCH   7   8
ENDBRANCH   2   7
TORSDOF 9
ENDMDL
MODEL 8
REMARK VINA RESULT:      -6.6      3.931     10.406
REMARK  9 active torsions:
REMARK  status: ('A' for Active; 'I' for Inactive)
REMARK    1  A    between atoms: N_3  and  C_6 
REMARK    2  A    between atoms: C_6  and  C_9 
REMARK    3  A    between atoms: C_14  and  C_17 
REMARK       I    between atoms: N_26  and  C_15 
REMARK    4  A    between atoms: C_15  and  C_16 
REMARK    5  A    between atoms: C_20  and  C_23 
REMARK    6  A    between atoms: OG1_24  and  CB_28 
REMARK    7  A    between atoms: N_26  and  CA_27 
REMARK    8  A    between atoms: CA_27  and  CB_28 
REMARK    9  A    between atoms: CA_27  and  C_30 
ROOT
HETATM    1  O   UNK A   0      14.685   3.396  92.140  1.00  0.00    -0.388 OA
HETATM    2  N   UNK A   0      11.956   4.200  92.239  1.00  0.00     0.096 N 
HETATM    3  C   UNK A   0      12.541   3.340  93.277  1.00  0.00     0.299 C 
HETATM    4  C   UNK A   0      12.650   3.990  90.961  1.00  0.00     0.299 C 
HETATM    5  C   UNK A   0      14.038   3.617  93.395  1.00  0.00     0.198 C 
HETATM    6  C   UNK A   0      14.143   4.251  91.133  1.00  0.00     0.198 C 
ENDROOT
BRANCH   2   7
HETATM    7  C   UNK A   0      10.524   3.944  92.101  1.00  0.00     0.311 C 
BRANCH   7   8
HETATM    8  C   UNK A   0       9.748   5.186  91.823  1.00  0.00    -0.030 A 
HETATM    9  C   UNK A   0       9.819   6.264  92.707  1.00  0.00     0.010 A 
HETATM   10  C   UNK A   0       9.092   7.426  92.448  1.00  0.00     0.021 A 
HETATM   11  C   UNK A   0       8.298   7.511  91.305  1.00  0.00     0.018 A 
HETATM   12  C   UNK A   0       8.227   6.436  90.422  1.00  0.00     0.021 A 
HETATM   13  C   UNK A   0       8.953   5.273  90.681  1.00  0.00     0.010 A 
BRANCH  11  14
HETATM   14  C   UNK A   0       7.554   8.704  91.039  1.00  0.00    -0.061 C 
HETATM   15  C   UNK A   0       6.930   9.707  90.815  1.00  0.00    -0.061 C 
BRANCH  15  16
HETATM   16  C   UNK A   0       6.187  10.899  90.549  1.00  0.00     0.018 A 
HETATM   17  C   UNK A   0       6.368  11.577  89.343  1.00  0.00     0.022 A 
HETATM   18  C   UNK A   0       5.641  12.739  89.082  1.00  0.00     0.018 A 
HETATM   19  C   UNK A   0       4.750  13.195  90.031  1.00  0.00     0.032 A 
HETATM   20  C   UNK A   0       4.554  12.543  91.230  1.00  0.00     0.018 A 
HETATM   21  C   UNK A   0       5.280  11.381  91.492  1.00  0.00     0.022 A 
BRANCH  19  22
HETATM   22  C   UNK A   0       3.978  14.434  89.753  1.00  0.00     0.252 C 
HETATM   23  O   UNK A   0       4.582  15.479  89.525  1.00  0.00    -0.268 OA
ENDBRANCH  19  22
ENDBRANCH  15  16
ENDBRANCH  11  14
ENDBRANCH   7   8
ENDBRANCH   2   7
TORSDOF 9
ENDMDL
MODEL 9
REMARK VINA RESULT:      -6.5      1.433      2.155
REMARK  9 active torsions:
REMARK  status: ('A' for Active; 'I' for Inactive)
REMARK    1  A    between atoms: N_3  and  C_6 
REMARK    2  A    between atoms: C_6  and  C_9 
REMARK    3  A    between atoms: C_14  and  C_17 
REMARK       I    between atoms: N_26  and  C_15 
REMARK    4  A    between atoms: C_15  and  C_16 
REMARK    5  A    between atoms: C_20  and  C_23 
REMARK    6  A    between atoms: OG1_24  and  CB_28 
REMARK    7  A    between atoms: N_26  and  CA_27 
REMARK    8  A    between atoms: CA_27  and  CB_28 
REMARK    9  A    between atoms: CA_27  and  C_30 
ROOT
HETATM    1  O   UNK A   0       1.649   9.185  90.663  1.00  0.00    -0.388 OA
HETATM    2  N   UNK A   0       4.149   8.138  89.794  1.00  0.00     0.096 N 
HETATM    3  C   UNK A   0       3.921   9.585  89.910  1.00  0.00     0.299 C 
HETATM    4  C   UNK A   0       2.884   7.451  89.500  1.00  0.00     0.299 C 
HETATM    5  C   UNK A   0       2.868   9.858  90.981  1.00  0.00     0.198 C 
HETATM    6  C   UNK A   0       1.855   7.774  90.579  1.00  0.00     0.198 C 
ENDROOT
BRANCH   2   7
HETATM    7  C   UNK A   0       5.147   7.852  88.766  1.00  0.00     0.311 C 
BRANCH   7   8
HETATM    8  C   UNK A   0       6.372   7.212  89.325  1.00  0.00    -0.030 A 
HETATM    9  C   UNK A   0       7.461   6.947  88.494  1.00  0.00     0.010 A 
HETATM   10  C   UNK A   0       8.607   6.347  89.016  1.00  0.00     0.021 A 
HETATM   11  C   UNK A   0       8.663   6.012  90.369  1.00  0.00     0.018 A 
HETATM   12  C   UNK A   0       7.576   6.276  91.199  1.00  0.00     0.021 A 
HETATM   13  C   UNK A   0       6.430   6.876  90.678  1.00  0.00     0.010 A 
BRANCH  11  14
HETATM   14  C   UNK A   0       9.839   5.398  90.904  1.00  0.00    -0.061 C 
HETATM   15  C   UNK A   0      10.827   4.882  91.355  1.00  0.00    -0.061 C 
BRANCH  15  16
HETATM   16  C   UNK A   0      12.002   4.268  91.891  1.00  0.00     0.018 A 
HETATM   17  C   UNK A   0      11.987   3.748  93.186  1.00  0.00     0.022 A 
HETATM   18  C   UNK A   0      13.132   3.147  93.707  1.00  0.00     0.018 A 
HETATM   19  C   UNK A   0      14.265   3.077  92.923  1.00  0.00     0.032 A 
HETATM   20  C   UNK A   0      14.305   3.583  91.641  1.00  0.00     0.018 A 
HETATM   21  C   UNK A   0      13.160   4.186  91.118  1.00  0.00     0.022 A 
BRANCH  19  22
HETATM   22  C   UNK A   0      15.485   2.438  93.480  1.00  0.00     0.252 C 
HETATM   23  O   UNK A   0      16.449   3.140  93.773  1.00  0.00    -0.268 OA
ENDBRANCH  19  22
ENDBRANCH  15  16
ENDBRANCH  11  14
ENDBRANCH   7   8
ENDBRANCH   2   7
TORSDOF 9
ENDMDL
