MODEL 1
REMARK VINA RESULT:      -7.5      0.000      0.000
REMARK  9 active torsions:
REMARK  status: ('A' for Active; 'I' for Inactive)
REMARK    1  A    between atoms: N_3  and  C_6 
REMARK    2  A    between atoms: C_6  and  C_9 
REMARK    3  A    between atoms: C_14  and  C_17 
REMARK       I    between atoms: N_26  and  C_15 
REMARK    4  A    between atoms: C_15  and  C_16 
REMARK    5  A    between atoms: C_20  and  C_23 
REMARK    6  A    between atoms: OG1_24  and  CB_28 
REMARK    7  A    between atoms: N_26  and  CA_27 
REMARK    8  A    between atoms: CA_27  and  CB_28 
REMARK    9  A    between atoms: CA_27  and  C_30 
ROOT
HETATM    1  O   UNK A   0       1.921   8.035  87.781  1.00  0.00    -0.388 OA
HETATM    2  N   UNK A   0       4.725   7.564  87.660  1.00  0.00     0.096 N 
HETATM    3  C   UNK A   0       4.178   8.925  87.742  1.00  0.00     0.299 C 
HETATM    4  C   UNK A   0       3.767   6.676  86.987  1.00  0.00     0.299 C 
HETATM    5  C   UNK A   0       2.833   8.899  88.463  1.00  0.00     0.198 C 
HETATM    6  C   UNK A   0       2.432   6.702  87.724  1.00  0.00     0.198 C 
ENDROOT
BRANCH   2   7
HETATM    7  C   UNK A   0       6.011   7.564  86.963  1.00  0.00     0.311 C 
BRANCH   7   8
HETATM    8  C   UNK A   0       7.100   6.957  87.780  1.00  0.00    -0.030 A 
HETATM    9  C   UNK A   0       6.873   6.646  89.122  1.00  0.00     0.010 A 
HETATM   10  C   UNK A   0       7.892   6.080  89.888  1.00  0.00     0.021 A 
HETATM   11  C   UNK A   0       9.136   5.823  89.312  1.00  0.00     0.018 A 
HETATM   12  C   UNK A   0       9.363   6.133  87.973  1.00  0.00     0.021 A 
HETATM   13  C   UNK A   0       8.345   6.700  87.206  1.00  0.00     0.010 A 
BRANCH  11  14
HETATM   14  C   UNK A   0      10.180   5.241  90.097  1.00  0.00    -0.061 C 
HETATM   15  C   UNK A   0      11.058   4.750  90.757  1.00  0.00    -0.061 C 
BRANCH  15  16
HETATM   16  C   UNK A   0      12.102   4.168  91.541  1.00  0.00     0.018 A 
HETATM   17  C   UNK A   0      13.352   3.929  90.969  1.00  0.00     0.022 A 
HETATM   18  C   UNK A   0      14.371   3.364  91.736  1.00  0.00     0.018 A 
HETATM   19  C   UNK A   0      14.118   3.052  93.055  1.00  0.00     0.032 A 
HETATM   20  C   UNK A   0      12.892   3.278  93.643  1.00  0.00     0.018 A 
HETATM   21  C   UNK A   0      11.872   3.843  92.878  1.00  0.00     0.022 A 
BRANCH  19  22
HETATM   22  C   UNK A   0      15.204   2.448  93.870  1.00  0.00     0.252 C 
HETATM   23  O   UNK A   0      16.355   2.853  93.731  1.00  0.00    -0.268 OA
ENDBRANCH  19  22
ENDBRANCH  15  16
ENDBRANCH  11  14
ENDBRANCH   7   8
ENDBRANCH   2   7
TORSDOF 9
ENDMDL
MODEL 2
REMARK VINA RESULT:      -7.5      0.208      1.028
REMARK  9 active torsions:
REMARK  status: ('A' for Active; 'I' for Inactive)
REMARK    1  A    between atoms: N_3  and  C_6 
REMARK    2  A    between atoms: C_6  and  C_9 
REMARK    3  A    between atoms: C_14  and  C_17 
REMARK       I    between atoms: N_26  and  C_15 
REMARK    4  A    between atoms: C_15  and  C_16 
REMARK    5  A    between atoms: C_20  and  C_23 
REMARK    6  A    between atoms: OG1_24  and  CB_28 
REMARK    7  A    between atoms: N_26  and  CA_27 
REMARK    8  A    between atoms: CA_27  and  CB_28 
REMARK    9  A    between atoms: CA_27  and  C_30 
ROOT
HETATM    1  O   UNK A   0       1.739   8.158  87.959  1.00  0.00    -0.388 OA
HETATM    2  N   UNK A   0       4.522   7.601  87.743  1.00  0.00     0.096 N 
HETATM    3  C   UNK A   0       4.023   8.976  87.886  1.00  0.00     0.299 C 
HETATM    4  C   UNK A   0       3.517   6.768  87.068  1.00  0.00     0.299 C 
HETATM    5  C   UNK A   0       2.697   8.968  88.643  1.00  0.00     0.198 C 
HETATM    6  C   UNK A   0       2.204   6.813  87.842  1.00  0.00     0.198 C 
ENDROOT
BRANCH   2   7
HETATM    7  C   UNK A   0       5.788   7.584  87.011  1.00  0.00     0.311 C 
BRANCH   7   8
HETATM    8  C   UNK A   0       6.894   6.976  87.804  1.00  0.00    -0.030 A 
HETATM    9  C   UNK A   0       8.151   6.799  87.224  1.00  0.00     0.010 A 
HETATM   10  C   UNK A   0       9.186   6.229  87.965  1.00  0.00     0.021 A 
HETATM   11  C   UNK A   0       8.965   5.839  89.285  1.00  0.00     0.018 A 
HETATM   12  C   UNK A   0       7.711   6.016  89.865  1.00  0.00     0.021 A 
HETATM   13  C   UNK A   0       6.675   6.585  89.125  1.00  0.00     0.010 A 
BRANCH  11  14
HETATM   14  C   UNK A   0      10.028   5.256  90.045  1.00  0.00    -0.061 C 
HETATM   15  C   UNK A   0      10.921   4.766  90.685  1.00  0.00    -0.061 C 
BRANCH  15  16
HETATM   16  C   UNK A   0      11.982   4.183  91.444  1.00  0.00     0.018 A 
HETATM   17  C   UNK A   0      13.239   4.009  90.864  1.00  0.00     0.022 A 
HETATM   18  C   UNK A   0      14.276   3.442  91.606  1.00  0.00     0.018 A 
HETATM   19  C   UNK A   0      14.033   3.064  92.909  1.00  0.00     0.032 A 
HETATM   20  C   UNK A   0      12.800   3.225  93.505  1.00  0.00     0.018 A 
HETATM   21  C   UNK A   0      11.762   3.791  92.764  1.00  0.00     0.022 A 
BRANCH  19  22
HETATM   22  C   UNK A   0      15.137   2.458  93.699  1.00  0.00     0.252 C 
HETATM   23  O   UNK A   0      16.291   2.831  93.500  1.00  0.00    -0.268 OA
ENDBRANCH  19  22
ENDBRANCH  15  16
ENDBRANCH  11  14
ENDBRANCH   7   8
ENDBRANCH   2   7
TORSDOF 9
ENDMDL
MODEL 3
REMARK VINA RESULT:      -7.1      1.037      1.137
REMARK  9 active torsions:
REMARK  status: ('A' for Active; 'I' for Inactive)
REMARK    1  A    between atoms: N_3  and  C_6 
REMARK    2  A    between atoms: C_6  and  C_9 
REMARK    3  A    between atoms: C_14  and  C_17 
REMARK       I    between atoms: N_26  and  C_15 
REMARK    4  A    between atoms: C_15  and  C_16 
REMARK    5  A    between atoms: C_20  and  C_23 
REMARK    6  A    between atoms: OG1_24  and  CB_28 
REMARK    7  A    between atoms: N_26  and  CA_27 
REMARK    8  A    between atoms: CA_27  and  CB_28 
REMARK    9  A    between atoms: CA_27  and  C_30 
ROOT
HETATM    1  O   UNK A   0       1.811   7.121  86.892  1.00  0.00    -0.388 OA
HETATM    2  N   UNK A   0       4.124   7.974  88.315  1.00  0.00     0.096 N 
HETATM    3  C   UNK A   0       2.931   8.825  88.208  1.00  0.00     0.299 C 
HETATM    4  C   UNK A   0       4.224   7.097  87.140  1.00  0.00     0.299 C 
HETATM    5  C   UNK A   0       1.688   7.954  88.046  1.00  0.00     0.198 C 
HETATM    6  C   UNK A   0       2.951   6.268  87.002  1.00  0.00     0.198 C 
ENDROOT
BRANCH   2   7
HETATM    7  C   UNK A   0       5.330   8.788  88.461  1.00  0.00     0.311 C 
BRANCH   7   8
HETATM    8  C   UNK A   0       6.469   8.018  89.038  1.00  0.00    -0.030 A 
HETATM    9  C   UNK A   0       6.308   7.335  90.244  1.00  0.00     0.010 A 
HETATM   10  C   UNK A   0       7.373   6.616  90.786  1.00  0.00     0.021 A 
HETATM   11  C   UNK A   0       8.598   6.579  90.120  1.00  0.00     0.018 A 
HETATM   12  C   UNK A   0       8.760   7.260  88.915  1.00  0.00     0.021 A 
HETATM   13  C   UNK A   0       7.695   7.980  88.373  1.00  0.00     0.010 A 
BRANCH  11  14
HETATM   14  C   UNK A   0       9.690   5.840  90.675  1.00  0.00    -0.061 C 
HETATM   15  C   UNK A   0      10.609   5.219  91.141  1.00  0.00    -0.061 C 
BRANCH  15  16
HETATM   16  C   UNK A   0      11.700   4.481  91.696  1.00  0.00     0.018 A 
HETATM   17  C   UNK A   0      12.806   4.172  90.903  1.00  0.00     0.022 A 
HETATM   18  C   UNK A   0      13.872   3.455  91.446  1.00  0.00     0.018 A 
HETATM   19  C   UNK A   0      13.809   3.063  92.767  1.00  0.00     0.032 A 
HETATM   20  C   UNK A   0      12.727   3.356  93.570  1.00  0.00     0.018 A 
HETATM   21  C   UNK A   0      11.661   4.074  93.029  1.00  0.00     0.022 A 
BRANCH  19  22
HETATM   22  C   UNK A   0      14.944   2.297  93.343  1.00  0.00     0.252 C 
HETATM   23  O   UNK A   0      15.920   2.906  93.777  1.00  0.00    -0.268 OA
ENDBRANCH  19  22
ENDBRANCH  15  16
ENDBRANCH  11  14
ENDBRANCH   7   8
ENDBRANCH   2   7
TORSDOF 9
ENDMDL
MODEL 4
REMARK VINA RESULT:      -6.9      1.519      2.142
REMARK  9 active torsions:
REMARK  status: ('A' for Active; 'I' for Inactive)
REMARK    1  A    between atoms: N_3  and  C_6 
REMARK    2  A    between atoms: C_6  and  C_9 
REMARK    3  A    between atoms: C_14  and  C_17 
REMARK       I    between atoms: N_26  and  C_15 
REMARK    4  A    between atoms: C_15  and  C_16 
REMARK    5  A    between atoms: C_20  and  C_23 
REMARK    6  A    between atoms: OG1_24  and  CB_28 
REMARK    7  A    between atoms: N_26  and  CA_27 
REMARK    8  A    between atoms: CA_27  and  CB_28 
REMARK    9  A    between atoms: CA_27  and  C_30 
ROOT
HETATM    1  O   UNK A   0       2.829  11.171  89.710  1.00  0.00    -0.388 OA
HETATM    2  N   UNK A   0       4.698   9.265  88.723  1.00  0.00     0.096 N 
HETATM    3  C   UNK A   0       3.876  10.077  87.814  1.00  0.00     0.299 C 
HETATM    4  C   UNK A   0       3.990   9.060  89.994  1.00  0.00     0.299 C 
HETATM    5  C   UNK A   0       3.523  11.403  88.483  1.00  0.00     0.198 C 
HETATM    6  C   UNK A   0       3.633  10.408  90.611  1.00  0.00     0.198 C 
ENDROOT
BRANCH   2   7
HETATM    7  C   UNK A   0       5.040   7.984  88.106  1.00  0.00     0.311 C 
BRANCH   7   8
HETATM    8  C   UNK A   0       6.236   7.353  88.733  1.00  0.00    -0.030 A 
HETATM    9  C   UNK A   0       6.102   6.160  89.443  1.00  0.00     0.010 A 
HETATM   10  C   UNK A   0       7.221   5.570  90.032  1.00  0.00     0.021 A 
HETATM   11  C   UNK A   0       8.472   6.173  89.908  1.00  0.00     0.018 A 
HETATM   12  C   UNK A   0       8.607   7.364  89.198  1.00  0.00     0.021 A 
HETATM   13  C   UNK A   0       7.489   7.955  88.610  1.00  0.00     0.010 A 
BRANCH  11  14
HETATM   14  C   UNK A   0       9.620   5.566  90.510  1.00  0.00    -0.061 C 
HETATM   15  C   UNK A   0      10.584   5.056  91.016  1.00  0.00    -0.061 C 
BRANCH  15  16
HETATM   16  C   UNK A   0      11.731   4.449  91.617  1.00  0.00     0.018 A 
HETATM   17  C   UNK A   0      11.697   4.077  92.961  1.00  0.00     0.022 A 
HETATM   18  C   UNK A   0      12.816   3.483  93.546  1.00  0.00     0.018 A 
HETATM   19  C   UNK A   0      13.940   3.273  92.775  1.00  0.00     0.032 A 
HETATM   20  C   UNK A   0      13.997   3.633  91.445  1.00  0.00     0.018 A 
HETATM   21  C   UNK A   0      12.880   4.227  90.859  1.00  0.00     0.022 A 
BRANCH  19  22
HETATM   22  C   UNK A   0      15.131   2.642  93.400  1.00  0.00     0.252 C 
HETATM   23  O   UNK A   0      15.957   3.352  93.969  1.00  0.00    -0.268 OA
ENDBRANCH  19  22
ENDBRANCH  15  16
ENDBRANCH  11  14
ENDBRANCH   7   8
ENDBRANCH   2   7
TORSDOF 9
ENDMDL
MODEL 5
REMARK VINA RESULT:      -6.9      1.561      2.116
REMARK  9 active torsions:
REMARK  status: ('A' for Active; 'I' for Inactive)
REMARK    1  A    between atoms: N_3  and  C_6 
REMARK    2  A    between atoms: C_6  and  C_9 
REMARK    3  A    between atoms: C_14  and  C_17 
REMARK       I    between atoms: N_26  and  C_15 
REMARK    4  A    between atoms: C_15  and  C_16 
REMARK    5  A    between atoms: C_20  and  C_23 
REMARK    6  A    between atoms: OG1_24  and  CB_28 
REMARK    7  A    between atoms: N_26  and  CA_27 
REMARK    8  A    between atoms: CA_27  and  CB_28 
REMARK    9  A    between atoms: CA_27  and  C_30 
ROOT
HETATM    1  O   UNK A   0       2.770  11.197  89.725  1.00  0.00    -0.388 OA
HETATM    2  N   UNK A   0       4.603   9.242  88.764  1.00  0.00     0.096 N 
HETATM    3  C   UNK A   0       3.789  10.049  87.844  1.00  0.00     0.299 C 
HETATM    4  C   UNK A   0       3.899   9.074  90.043  1.00  0.00     0.299 C 
HETATM    5  C   UNK A   0       3.460  11.394  88.489  1.00  0.00     0.198 C 
HETATM    6  C   UNK A   0       3.568  10.439  90.635  1.00  0.00     0.198 C 
ENDROOT
BRANCH   2   7
HETATM    7  C   UNK A   0       4.920   7.944  88.171  1.00  0.00     0.311 C 
BRANCH   7   8
HETATM    8  C   UNK A   0       6.128   7.320  88.783  1.00  0.00    -0.030 A 
HETATM    9  C   UNK A   0       7.378   7.919  88.625  1.00  0.00     0.010 A 
HETATM   10  C   UNK A   0       8.508   7.335  89.196  1.00  0.00     0.021 A 
HETATM   11  C   UNK A   0       8.387   6.153  89.926  1.00  0.00     0.018 A 
HETATM   12  C   UNK A   0       7.140   5.554  90.085  1.00  0.00     0.021 A 
HETATM   13  C   UNK A   0       6.009   6.137  89.514  1.00  0.00     0.010 A 
BRANCH  11  14
HETATM   14  C   UNK A   0       9.547   5.555  90.514  1.00  0.00    -0.061 C 
HETATM   15  C   UNK A   0      10.521   5.052  91.007  1.00  0.00    -0.061 C 
BRANCH  15  16
HETATM   16  C   UNK A   0      11.680   4.455  91.593  1.00  0.00     0.018 A 
HETATM   17  C   UNK A   0      12.793   4.170  90.801  1.00  0.00     0.022 A 
HETATM   18  C   UNK A   0      13.925   3.590  91.374  1.00  0.00     0.018 A 
HETATM   19  C   UNK A   0      13.919   3.308  92.724  1.00  0.00     0.032 A 
HETATM   20  C   UNK A   0      12.832   3.579  93.528  1.00  0.00     0.018 A 
HETATM   21  C   UNK A   0      11.699   4.160  92.956  1.00  0.00     0.022 A 
BRANCH  19  22
HETATM   22  C   UNK A   0      15.124   2.688  93.334  1.00  0.00     0.252 C 
HETATM   23  O   UNK A   0      14.986   1.751  94.115  1.00  0.00    -0.268 OA
ENDBRANCH  19  22
ENDBRANCH  15  16
ENDBRANCH  11  14
ENDBRANCH   7   8
ENDBRANCH   2   7
TORSDOF 9
ENDMDL
MODEL 6
REMARK VINA RESULT:      -6.7      1.537      1.908
REMARK  9 active torsions:
REMARK  status: ('A' for Active; 'I' for Inactive)
REMARK    1  A    between atoms: N_3  and  C_6 
REMARK    2  A    between atoms: C_6  and  C_9 
REMARK    3  A    between atoms: C_14  and  C_17 
REMARK       I    between atoms: N_26  and  C_15 
REMARK    4  A    between atoms: C_15  and  C_16 
REMARK    5  A    between atoms: C_20  and  C_23 
REMARK    6  A    between atoms: OG1_24  and  CB_28 
REMARK    7  A    between atoms: N_26  and  CA_27 
REMARK    8  A    between atoms: CA_27  and  CB_28 
REMARK    9  A    between atoms: CA_27  and  C_30 
ROOT
HETATM    1  O   UNK A   0       5.006  11.505  88.696  1.00  0.00    -0.388 OA
HETATM    2  N   UNK A   0       5.131   8.662  88.787  1.00  0.00     0.096 N 
HETATM    3  C   UNK A   0       6.324   9.491  89.009  1.00  0.00     0.299 C 
HETATM    4  C   UNK A   0       4.189   9.363  87.903  1.00  0.00     0.299 C 
HETATM    5  C   UNK A   0       5.914  10.845  89.581  1.00  0.00     0.198 C 
HETATM    6  C   UNK A   0       3.830  10.720  88.500  1.00  0.00     0.198 C 
ENDROOT
BRANCH   2   7
HETATM    7  C   UNK A   0       5.500   7.363  88.228  1.00  0.00     0.311 C 
BRANCH   7   8
HETATM    8  C   UNK A   0       6.695   6.775  88.898  1.00  0.00    -0.030 A 
HETATM    9  C   UNK A   0       6.614   6.357  90.227  1.00  0.00     0.010 A 
HETATM   10  C   UNK A   0       7.732   5.809  90.855  1.00  0.00     0.021 A 
HETATM   11  C   UNK A   0       8.930   5.678  90.154  1.00  0.00     0.018 A 
HETATM   12  C   UNK A   0       9.012   6.095  88.827  1.00  0.00     0.021 A 
HETATM   13  C   UNK A   0       7.894   6.644  88.198  1.00  0.00     0.010 A 
BRANCH  11  14
HETATM   14  C   UNK A   0      10.076   5.114  90.798  1.00  0.00    -0.061 C 
HETATM   15  C   UNK A   0      11.040   4.639  91.339  1.00  0.00    -0.061 C 
BRANCH  15  16
HETATM   16  C   UNK A   0      12.186   4.076  91.981  1.00  0.00     0.018 A 
HETATM   17  C   UNK A   0      13.386   3.951  91.281  1.00  0.00     0.022 A 
HETATM   18  C   UNK A   0      14.504   3.403  91.909  1.00  0.00     0.018 A 
HETATM   19  C   UNK A   0      14.398   2.994  93.222  1.00  0.00     0.032 A 
HETATM   20  C   UNK A   0      13.223   3.107  93.935  1.00  0.00     0.018 A 
HETATM   21  C   UNK A   0      12.104   3.654  93.308  1.00  0.00     0.022 A 
BRANCH  19  22
HETATM   22  C   UNK A   0      15.590   2.409  93.890  1.00  0.00     0.252 C 
HETATM   23  O   UNK A   0      16.693   2.917  93.701  1.00  0.00    -0.268 OA
ENDBRANCH  19  22
ENDBRANCH  15  16
ENDBRANCH  11  14
ENDBRANCH   7   8
ENDBRANCH   2   7
TORSDOF 9
ENDMDL
MODEL 7
REMARK VINA RESULT:      -6.6      3.553     10.309
REMARK  9 active torsions:
REMARK  status: ('A' for Active; 'I' for Inactive)
REMARK    1  A    between atoms: N_3  and  C_6 
REMARK    2  A    between atoms: C_6  and  C_9 
REMARK    3  A    between atoms: C_14  and  C_17 
REMARK       I    between atoms: N_26  and  C_15 
REMARK    4  A    between atoms: C_15  and  C_16 
REMARK    5  A    between atoms: C_20  and  C_23 
REMARK    6  A    between atoms: OG1_24  and  CB_28 
REMARK    7  A    between atoms: N_26  and  CA_27 
REMARK    8  A    between atoms: CA_27  and  CB_28 
REMARK    9  A    between atoms: CA_27  and  C_30 
ROOT
HETATM    1  O   UNK A   0      16.090   3.056  93.642  1.00  0.00    -0.388 OA
HETATM    2  N   UNK A   0      13.424   2.994  92.648  1.00  0.00     0.096 N 
HETATM    3  C   UNK A   0      14.123   1.765  93.049  1.00  0.00     0.299 C 
HETATM    4  C   UNK A   0      14.393   3.996  92.186  1.00  0.00     0.299 C 
HETATM    5  C   UNK A   0      15.158   2.086  94.124  1.00  0.00     0.198 C 
HETATM    6  C   UNK A   0      15.422   4.265  93.280  1.00  0.00     0.198 C 
ENDROOT
BRANCH   2   7
HETATM    7  C   UNK A   0      12.434   2.711  91.611  1.00  0.00     0.311 C 
BRANCH   7   8
HETATM    8  C   UNK A   0      11.573   3.890  91.311  1.00  0.00    -0.030 A 
HETATM    9  C   UNK A   0      10.944   4.576  92.351  1.00  0.00     0.010 A 
HETATM   10  C   UNK A   0      10.137   5.679  92.071  1.00  0.00     0.021 A 
HETATM   11  C   UNK A   0       9.960   6.096  90.752  1.00  0.00     0.018 A 
HETATM   12  C   UNK A   0      10.587   5.412  89.713  1.00  0.00     0.021 A 
HETATM   13  C   UNK A   0      11.394   4.309  89.992  1.00  0.00     0.010 A 
BRANCH  11  14
HETATM   14  C   UNK A   0       9.133   7.228  90.466  1.00  0.00    -0.061 C 
HETATM   15  C   UNK A   0       8.438   8.179  90.225  1.00  0.00    -0.061 C 
BRANCH  15  16
HETATM   16  C   UNK A   0       7.611   9.310  89.940  1.00  0.00     0.018 A 
HETATM   17  C   UNK A   0       8.155  10.428  89.306  1.00  0.00     0.022 A 
HETATM   18  C   UNK A   0       7.348  11.530  89.025  1.00  0.00     0.018 A 
HETATM   19  C   UNK A   0       6.017  11.490  89.383  1.00  0.00     0.032 A 
HETATM   20  C   UNK A   0       5.456  10.397  90.010  1.00  0.00     0.018 A 
HETATM   21  C   UNK A   0       6.262   9.294  90.292  1.00  0.00     0.022 A 
BRANCH  19  22
HETATM   22  C   UNK A   0       5.158  12.665  89.086  1.00  0.00     0.252 C 
HETATM   23  O   UNK A   0       4.854  12.907  87.920  1.00  0.00    -0.268 OA
ENDBRANCH  19  22
ENDBRANCH  15  16
ENDBRANCH  11  14
ENDBRANCH   7   8
ENDBRANCH   2   7
TORSDOF 9
ENDMDL
MODEL 8
REMARK VINA RESULT:      -6.6      3.946     10.392
REMARK  9 active torsions:
REMARK  status: ('A' for Active; 'I' for Inactive)
REMARK    1  A    between atoms: N_3  and  C_6 
REMARK    2  A    between atoms: C_6  and  C_9 
REMARK    3  A    between atoms: C_14  and  C_17 
REMARK       I    between atoms: N_26  and  C_15 
REMARK    4  A    between atoms: C_15  and  C_16 
REMARK    5  A    between atoms: C_20  and  C_23 
REMARK    6  A    between atoms: OG1_24  and  CB_28 
REMARK    7  A    between atoms: N_26  and  CA_27 
REMARK    8  A    between atoms: CA_27  and  CB_28 
REMARK    9  A    between atoms: CA_27  and  C_30 
ROOT
HETATM    1  O   UNK A   0      14.534   3.295  92.146  1.00  0.00    -0.388 OA
HETATM    2  N   UNK A   0      11.821   4.157  92.198  1.00  0.00     0.096 N 
HETATM    3  C   UNK A   0      12.386   3.333  93.276  1.00  0.00     0.299 C 
HETATM    4  C   UNK A   0      12.515   3.876  90.934  1.00  0.00     0.299 C 
HETATM    5  C   UNK A   0      13.888   3.586  93.387  1.00  0.00     0.198 C 
HETATM    6  C   UNK A   0      14.012   4.114  91.099  1.00  0.00     0.198 C 
ENDROOT
BRANCH   2   7
HETATM    7  C   UNK A   0      10.384   3.923  92.067  1.00  0.00     0.311 C 
BRANCH   7   8
HETATM    8  C   UNK A   0       9.629   5.176  91.779  1.00  0.00    -0.030 A 
HETATM    9  C   UNK A   0       9.831   6.308  92.569  1.00  0.00     0.010 A 
HETATM   10  C   UNK A   0       9.123   7.480  92.302  1.00  0.00     0.021 A 
HETATM   11  C   UNK A   0       8.216   7.519  91.243  1.00  0.00     0.018 A 
HETATM   12  C   UNK A   0       8.014   6.390  90.453  1.00  0.00     0.021 A 
HETATM   13  C   UNK A   0       8.721   5.217  90.721  1.00  0.00     0.010 A 
BRANCH  11  14
HETATM   14  C   UNK A   0       7.492   8.722  90.968  1.00  0.00    -0.061 C 
HETATM   15  C   UNK A   0       6.883   9.733  90.738  1.00  0.00    -0.061 C 
BRANCH  15  16
HETATM   16  C   UNK A   0       6.160  10.936  90.462  1.00  0.00     0.018 A 
HETATM   17  C   UNK A   0       6.344  11.596  89.247  1.00  0.00     0.022 A 
HETATM   18  C   UNK A   0       5.636  12.767  88.978  1.00  0.00     0.018 A 
HETATM   19  C   UNK A   0       4.762  13.252  89.928  1.00  0.00     0.032 A 
HETATM   20  C   UNK A   0       4.564  12.618  91.137  1.00  0.00     0.018 A 
HETATM   21  C   UNK A   0       5.271  11.446  91.408  1.00  0.00     0.022 A 
BRANCH  19  22
HETATM   22  C   UNK A   0       4.010  14.501  89.642  1.00  0.00     0.252 C 
HETATM   23  O   UNK A   0       4.611  15.572  89.624  1.00  0.00    -0.268 OA
ENDBRANCH  19  22
ENDBRANCH  15  16
ENDBRANCH  11  14
ENDBRANCH   7   8
ENDBRANCH   2   7
TORSDOF 9
ENDMDL
MODEL 9
REMARK VINA RESULT:      -6.3      1.910      2.813
REMARK  9 active torsions:
REMARK  status: ('A' for Active; 'I' for Inactive)
REMARK    1  A    between atoms: N_3  and  C_6 
REMARK    2  A    between atoms: C_6  and  C_9 
REMARK    3  A    between atoms: C_14  and  C_17 
REMARK       I    between atoms: N_26  and  C_15 
REMARK    4  A    between atoms: C_15  and  C_16 
REMARK    5  A    between atoms: C_20  and  C_23 
REMARK    6  A    between atoms: OG1_24  and  CB_28 
REMARK    7  A    between atoms: N_26  and  CA_27 
REMARK    8  A    between atoms: CA_27  and  CB_28 
REMARK    9  A    between atoms: CA_27  and  C_30 
ROOT
HETATM    1  O   UNK A   0       2.526   9.932  88.095  1.00  0.00    -0.388 OA
HETATM    2  N   UNK A   0       3.959   8.405  90.023  1.00  0.00     0.096 N 
HETATM    3  C   UNK A   0       2.674   7.944  89.479  1.00  0.00     0.299 C 
HETATM    4  C   UNK A   0       4.012   9.874  90.011  1.00  0.00     0.299 C 
HETATM    5  C   UNK A   0       2.477   8.504  88.073  1.00  0.00     0.198 C 
HETATM    6  C   UNK A   0       3.784  10.389  88.593  1.00  0.00     0.198 C 
ENDROOT
BRANCH   2   7
HETATM    7  C   UNK A   0       4.164   7.889  91.375  1.00  0.00     0.311 C 
BRANCH   7   8
HETATM    8  C   UNK A   0       5.503   7.256  91.545  1.00  0.00    -0.030 A 
HETATM    9  C   UNK A   0       6.308   7.022  90.430  1.00  0.00     0.010 A 
HETATM   10  C   UNK A   0       7.560   6.427  90.587  1.00  0.00     0.021 A 
HETATM   11  C   UNK A   0       8.007   6.070  91.859  1.00  0.00     0.018 A 
HETATM   12  C   UNK A   0       7.203   6.305  92.973  1.00  0.00     0.021 A 
HETATM   13  C   UNK A   0       5.951   6.898  92.816  1.00  0.00     0.010 A 
BRANCH  11  14
HETATM   14  C   UNK A   0       9.292   5.463  92.020  1.00  0.00    -0.061 C 
HETATM   15  C   UNK A   0      10.372   4.952  92.157  1.00  0.00    -0.061 C 
BRANCH  15  16
HETATM   16  C   UNK A   0      11.656   4.344  92.318  1.00  0.00     0.018 A 
HETATM   17  C   UNK A   0      12.533   4.271  91.235  1.00  0.00     0.022 A 
HETATM   18  C   UNK A   0      13.786   3.680  91.393  1.00  0.00     0.018 A 
HETATM   19  C   UNK A   0      14.135   3.178  92.629  1.00  0.00     0.032 A 
HETATM   20  C   UNK A   0      13.287   3.238  93.715  1.00  0.00     0.018 A 
HETATM   21  C   UNK A   0      12.033   3.828  93.558  1.00  0.00     0.022 A 
BRANCH  19  22
HETATM   22  C   UNK A   0      15.470   2.547  92.797  1.00  0.00     0.252 C 
HETATM   23  O   UNK A   0      16.244   2.996  93.639  1.00  0.00    -0.268 OA
ENDBRANCH  19  22
ENDBRANCH  15  16
ENDBRANCH  11  14
ENDBRANCH   7   8
ENDBRANCH   2   7
TORSDOF 9
ENDMDL
