MODEL 1
REMARK VINA RESULT:      -7.2      0.000      0.000
REMARK  9 active torsions:
REMARK  status: ('A' for Active; 'I' for Inactive)
REMARK    1  A    between atoms: O_2  and  C_17 
REMARK    2  A    between atoms: N_5  and  C_10 
REMARK    3  A    between atoms: N_6  and  C_14 
REMARK       I    between atoms: N_6  and  C_23 
REMARK       I    between atoms: N_7  and  C_22 
REMARK    4  A    between atoms: C_10  and  C_13 
REMARK    5  A    between atoms: C_14  and  C_17 
REMARK    6  A    between atoms: C_14  and  C_22 
REMARK    7  A    between atoms: C_20  and  C_25 
REMARK    8  A    between atoms: C_23  and  C_24 
REMARK    9  A    between atoms: C_28  and  C_31 
ROOT
HETATM    1  O   UNL     1      16.263   3.018  93.711  1.00  0.00    -0.388 OA
HETATM    2  N   UNL     1      13.584   2.590  92.849  1.00  0.00     0.096 N 
HETATM    3  C   UNL     1      14.509   1.469  93.066  1.00  0.00     0.299 C 
HETATM    4  C   UNL     1      14.333   3.794  92.462  1.00  0.00     0.299 C 
HETATM    5  C   UNL     1      15.546   1.851  94.119  1.00  0.00     0.198 C 
HETATM    6  C   UNL     1      15.374   4.121  93.528  1.00  0.00     0.198 C 
ENDROOT
BRANCH   2   7
HETATM    7  C   UNL     1      12.587   2.250  91.835  1.00  0.00     0.311 C 
BRANCH   7   8
HETATM    8  C   UNL     1      11.682   3.393  91.523  1.00  0.00    -0.030 A 
HETATM    9  C   UNL     1      10.693   3.767  92.433  1.00  0.00     0.010 A 
HETATM   10  C   UNL     1       9.844   4.834  92.141  1.00  0.00     0.021 A 
HETATM   11  C   UNL     1       9.986   5.528  90.940  1.00  0.00     0.018 A 
HETATM   12  C   UNL     1      10.973   5.156  90.030  1.00  0.00     0.021 A 
HETATM   13  C   UNL     1      11.822   4.088  90.321  1.00  0.00     0.010 A 
BRANCH  11  14
HETATM   14  C   UNL     1       9.116   6.624  90.642  1.00  0.00    -0.061 C 
HETATM   15  C   UNL     1       8.385   7.545  90.390  1.00  0.00    -0.061 C 
BRANCH  15  16
HETATM   16  C   UNL     1       7.516   8.640  90.091  1.00  0.00     0.018 A 
HETATM   17  C   UNL     1       8.038   9.927  89.957  1.00  0.00     0.022 A 
HETATM   18  C   UNL     1       7.190  10.995  89.663  1.00  0.00     0.018 A 
HETATM   19  C   UNL     1       5.841  10.752  89.509  1.00  0.00     0.032 A 
HETATM   20  C   UNL     1       5.301   9.489  89.637  1.00  0.00     0.018 A 
HETATM   21  C   UNL     1       6.148   8.421  89.931  1.00  0.00     0.022 A 
BRANCH  19  22
HETATM   22  C   UNL     1       4.938  11.890  89.197  1.00  0.00     0.252 C 
HETATM   23  O   UNL     1       4.545  12.046  88.043  1.00  0.00    -0.268 OA
HETATM   24  N   UNL     1       4.580  12.694  90.270  1.00  0.00    -0.342 N 
HETATM   25  H   UNL     1       4.924  12.489  91.201  1.00  0.00     0.163 HD
BRANCH  24  26
HETATM   26  C   UNL     1       3.693  13.821  90.134  1.00  0.00     0.199 C 
BRANCH  26  27
HETATM   27  C   UNL     1       2.477  13.736  91.065  1.00  0.00     0.145 C 
HETATM   28  C   UNL     1       2.551  12.544  92.013  1.00  0.00     0.042 C 
BRANCH  27  29
HETATM   29  O   UNL     1       2.380  14.935  91.833  1.00  0.00    -0.393 OA
HETATM   30  H   UNL     1       2.642  14.733  92.747  1.00  0.00     0.210 HD
ENDBRANCH  27  29
ENDBRANCH  26  27
BRANCH  26  31
HETATM   31  C   UNL     1       4.503  15.087  90.394  1.00  0.00     0.220 C 
HETATM   32  O   UNL     1       4.645  15.572  91.515  1.00  0.00    -0.278 OA
HETATM   33  N   UNL     1       5.012  15.625  89.237  1.00  0.00    -0.271 NA
HETATM   34  H   UNL     1       4.841  15.302  88.292  1.00  0.00     0.127 HD
HETATM   35  H   UNL     1       4.614  16.795  88.572  1.00  0.00     0.127 HD
ENDBRANCH  26  31
ENDBRANCH  24  26
ENDBRANCH  19  22
ENDBRANCH  15  16
ENDBRANCH  11  14
ENDBRANCH   7   8
ENDBRANCH   2   7
TORSDOF 9
ENDMDL
