MODEL 1
REMARK VINA RESULT:      -7.5      0.000      0.000
REMARK  9 active torsions:
REMARK  status: ('A' for Active; 'I' for Inactive)
REMARK    1  A    between atoms: N_3  and  C_6 
REMARK    2  A    between atoms: C_6  and  C_9 
REMARK    3  A    between atoms: C_14  and  C_17 
REMARK       I    between atoms: N_26  and  C_15 
REMARK    4  A    between atoms: C_15  and  C_16 
REMARK    5  A    between atoms: C_20  and  C_23 
REMARK    6  A    between atoms: OG1_24  and  CB_28 
REMARK    7  A    between atoms: N_26  and  CA_27 
REMARK    8  A    between atoms: CA_27  and  CB_28 
REMARK    9  A    between atoms: CA_27  and  C_30 
ROOT
HETATM    1  O   UNK A   0       1.851   7.971  87.809  1.00  0.00    -0.388 OA
HETATM    2  N   UNK A   0       4.661   7.536  87.681  1.00  0.00     0.096 N 
HETATM    3  C   UNK A   0       4.097   8.890  87.769  1.00  0.00     0.299 C 
HETATM    4  C   UNK A   0       3.713   6.638  87.008  1.00  0.00     0.299 C 
HETATM    5  C   UNK A   0       2.752   8.844  88.492  1.00  0.00     0.198 C 
HETATM    6  C   UNK A   0       2.379   6.645  87.746  1.00  0.00     0.198 C 
ENDROOT
BRANCH   2   7
HETATM    7  C   UNK A   0       5.945   7.555  86.983  1.00  0.00     0.311 C 
BRANCH   7   8
HETATM    8  C   UNK A   0       7.042   6.955  87.795  1.00  0.00    -0.030 A 
HETATM    9  C   UNK A   0       8.293   6.733  87.218  1.00  0.00     0.010 A 
HETATM   10  C   UNK A   0       9.320   6.169  87.976  1.00  0.00     0.021 A 
HETATM   11  C   UNK A   0       9.095   5.830  89.310  1.00  0.00     0.018 A 
HETATM   12  C   UNK A   0       7.846   6.052  89.887  1.00  0.00     0.021 A 
HETATM   13  C   UNK A   0       6.819   6.615  89.129  1.00  0.00     0.010 A 
BRANCH  11  14
HETATM   14  C   UNK A   0      10.148   5.254  90.088  1.00  0.00    -0.061 C 
HETATM   15  C   UNK A   0      11.034   4.771  90.742  1.00  0.00    -0.061 C 
BRANCH  15  16
HETATM   16  C   UNK A   0      12.087   4.196  91.520  1.00  0.00     0.018 A 
HETATM   17  C   UNK A   0      11.854   3.833  92.846  1.00  0.00     0.022 A 
HETATM   18  C   UNK A   0      12.881   3.270  93.604  1.00  0.00     0.018 A 
HETATM   19  C   UNK A   0      14.115   3.081  93.019  1.00  0.00     0.032 A 
HETATM   20  C   UNK A   0      14.371   3.432  91.710  1.00  0.00     0.018 A 
HETATM   21  C   UNK A   0      13.345   3.995  90.951  1.00  0.00     0.022 A 
BRANCH  19  22
HETATM   22  C   UNK A   0      15.209   2.483  93.828  1.00  0.00     0.252 C 
HETATM   23  O   UNK A   0      16.364   2.862  93.649  1.00  0.00    -0.268 OA
ENDBRANCH  19  22
ENDBRANCH  15  16
ENDBRANCH  11  14
ENDBRANCH   7   8
ENDBRANCH   2   7
TORSDOF 9
ENDMDL
MODEL 2
REMARK VINA RESULT:      -7.5      0.142      1.431
REMARK  9 active torsions:
REMARK  status: ('A' for Active; 'I' for Inactive)
REMARK    1  A    between atoms: N_3  and  C_6 
REMARK    2  A    between atoms: C_6  and  C_9 
REMARK    3  A    between atoms: C_14  and  C_17 
REMARK       I    between atoms: N_26  and  C_15 
REMARK    4  A    between atoms: C_15  and  C_16 
REMARK    5  A    between atoms: C_20  and  C_23 
REMARK    6  A    between atoms: OG1_24  and  CB_28 
REMARK    7  A    between atoms: N_26  and  CA_27 
REMARK    8  A    between atoms: CA_27  and  CB_28 
REMARK    9  A    between atoms: CA_27  and  C_30 
ROOT
HETATM    1  O   UNK A   0       1.909   8.281  87.844  1.00  0.00    -0.388 OA
HETATM    2  N   UNK A   0       4.684   7.670  87.660  1.00  0.00     0.096 N 
HETATM    3  C   UNK A   0       4.207   9.057  87.753  1.00  0.00     0.299 C 
HETATM    4  C   UNK A   0       3.667   6.831  87.011  1.00  0.00     0.299 C 
HETATM    5  C   UNK A   0       2.878   9.098  88.503  1.00  0.00     0.198 C 
HETATM    6  C   UNK A   0       2.352   6.925  87.777  1.00  0.00     0.198 C 
ENDROOT
BRANCH   2   7
HETATM    7  C   UNK A   0       5.951   7.606  86.935  1.00  0.00     0.311 C 
BRANCH   7   8
HETATM    8  C   UNK A   0       7.041   6.995  87.749  1.00  0.00    -0.030 A 
HETATM    9  C   UNK A   0       6.834   6.732  89.104  1.00  0.00     0.010 A 
HETATM   10  C   UNK A   0       7.853   6.162  89.867  1.00  0.00     0.021 A 
HETATM   11  C   UNK A   0       9.078   5.856  89.275  1.00  0.00     0.018 A 
HETATM   12  C   UNK A   0       9.285   6.118  87.922  1.00  0.00     0.021 A 
HETATM   13  C   UNK A   0       8.267   6.688  87.159  1.00  0.00     0.010 A 
BRANCH  11  14
HETATM   14  C   UNK A   0      10.123   5.270  90.057  1.00  0.00    -0.061 C 
HETATM   15  C   UNK A   0      11.001   4.777  90.714  1.00  0.00    -0.061 C 
BRANCH  15  16
HETATM   16  C   UNK A   0      12.046   4.193  91.496  1.00  0.00     0.018 A 
HETATM   17  C   UNK A   0      13.307   3.991  90.934  1.00  0.00     0.022 A 
HETATM   18  C   UNK A   0      14.326   3.423  91.698  1.00  0.00     0.018 A 
HETATM   19  C   UNK A   0      14.063   3.070  93.005  1.00  0.00     0.032 A 
HETATM   20  C   UNK A   0      12.825   3.259  93.583  1.00  0.00     0.018 A 
HETATM   21  C   UNK A   0      11.804   3.827  92.820  1.00  0.00     0.022 A 
BRANCH  19  22
HETATM   22  C   UNK A   0      15.149   2.464  93.817  1.00  0.00     0.252 C 
HETATM   23  O   UNK A   0      16.276   2.950  93.771  1.00  0.00    -0.268 OA
ENDBRANCH  19  22
ENDBRANCH  15  16
ENDBRANCH  11  14
ENDBRANCH   7   8
ENDBRANCH   2   7
TORSDOF 9
ENDMDL
MODEL 3
REMARK VINA RESULT:      -7.0      1.464      2.063
REMARK  9 active torsions:
REMARK  status: ('A' for Active; 'I' for Inactive)
REMARK    1  A    between atoms: N_3  and  C_6 
REMARK    2  A    between atoms: C_6  and  C_9 
REMARK    3  A    between atoms: C_14  and  C_17 
REMARK       I    between atoms: N_26  and  C_15 
REMARK    4  A    between atoms: C_15  and  C_16 
REMARK    5  A    between atoms: C_20  and  C_23 
REMARK    6  A    between atoms: OG1_24  and  CB_28 
REMARK    7  A    between atoms: N_26  and  CA_27 
REMARK    8  A    between atoms: CA_27  and  CB_28 
REMARK    9  A    between atoms: CA_27  and  C_30 
ROOT
HETATM    1  O   UNK A   0       4.875  11.137  88.680  1.00  0.00    -0.388 OA
HETATM    2  N   UNK A   0       5.260   8.317  88.652  1.00  0.00     0.096 N 
HETATM    3  C   UNK A   0       6.372   9.241  88.915  1.00  0.00     0.299 C 
HETATM    4  C   UNK A   0       4.259   8.964  87.794  1.00  0.00     0.299 C 
HETATM    5  C   UNK A   0       5.838  10.527  89.541  1.00  0.00     0.198 C 
HETATM    6  C   UNK A   0       3.776  10.256  88.445  1.00  0.00     0.198 C 
ENDROOT
BRANCH   2   7
HETATM    7  C   UNK A   0       5.747   7.081  88.042  1.00  0.00     0.311 C 
BRANCH   7   8
HETATM    8  C   UNK A   0       6.935   6.527  88.752  1.00  0.00    -0.030 A 
HETATM    9  C   UNK A   0       8.194   6.587  88.153  1.00  0.00     0.010 A 
HETATM   10  C   UNK A   0       9.307   6.067  88.814  1.00  0.00     0.021 A 
HETATM   11  C   UNK A   0       9.160   5.490  90.075  1.00  0.00     0.018 A 
HETATM   12  C   UNK A   0       7.903   5.430  90.674  1.00  0.00     0.021 A 
HETATM   13  C   UNK A   0       6.790   5.949  90.013  1.00  0.00     0.010 A 
BRANCH  11  14
HETATM   14  C   UNK A   0      10.301   4.959  90.755  1.00  0.00    -0.061 C 
HETATM   15  C   UNK A   0      11.261   4.513  91.326  1.00  0.00    -0.061 C 
BRANCH  15  16
HETATM   16  C   UNK A   0      12.401   3.983  92.006  1.00  0.00     0.018 A 
HETATM   17  C   UNK A   0      13.602   3.806  91.317  1.00  0.00     0.022 A 
HETATM   18  C   UNK A   0      14.715   3.291  91.982  1.00  0.00     0.018 A 
HETATM   19  C   UNK A   0      14.604   2.967  93.317  1.00  0.00     0.032 A 
HETATM   20  C   UNK A   0      13.429   3.132  94.020  1.00  0.00     0.018 A 
HETATM   21  C   UNK A   0      12.314   3.647  93.357  1.00  0.00     0.022 A 
BRANCH  19  22
HETATM   22  C   UNK A   0      15.790   2.417  94.024  1.00  0.00     0.252 C 
HETATM   23  O   UNK A   0      16.910   2.814  93.714  1.00  0.00    -0.268 OA
ENDBRANCH  19  22
ENDBRANCH  15  16
ENDBRANCH  11  14
ENDBRANCH   7   8
ENDBRANCH   2   7
TORSDOF 9
ENDMDL
MODEL 4
REMARK VINA RESULT:      -6.9      1.585      2.364
REMARK  9 active torsions:
REMARK  status: ('A' for Active; 'I' for Inactive)
REMARK    1  A    between atoms: N_3  and  C_6 
REMARK    2  A    between atoms: C_6  and  C_9 
REMARK    3  A    between atoms: C_14  and  C_17 
REMARK       I    between atoms: N_26  and  C_15 
REMARK    4  A    between atoms: C_15  and  C_16 
REMARK    5  A    between atoms: C_20  and  C_23 
REMARK    6  A    between atoms: OG1_24  and  CB_28 
REMARK    7  A    between atoms: N_26  and  CA_27 
REMARK    8  A    between atoms: CA_27  and  CB_28 
REMARK    9  A    between atoms: CA_27  and  C_30 
ROOT
HETATM    1  O   UNK A   0       2.824  11.260  89.911  1.00  0.00    -0.388 OA
HETATM    2  N   UNK A   0       4.661   9.379  88.821  1.00  0.00     0.096 N 
HETATM    3  C   UNK A   0       3.824  10.223  87.957  1.00  0.00     0.299 C 
HETATM    4  C   UNK A   0       3.981   9.137  90.100  1.00  0.00     0.299 C 
HETATM    5  C   UNK A   0       3.491  11.528  88.676  1.00  0.00     0.198 C 
HETATM    6  C   UNK A   0       3.645  10.466  90.768  1.00  0.00     0.198 C 
ENDROOT
BRANCH   2   7
HETATM    7  C   UNK A   0       4.983   8.118  88.156  1.00  0.00     0.311 C 
BRANCH   7   8
HETATM    8  C   UNK A   0       6.179   7.452  88.748  1.00  0.00    -0.030 A 
HETATM    9  C   UNK A   0       6.034   6.250  89.442  1.00  0.00     0.010 A 
HETATM   10  C   UNK A   0       7.152   5.628  89.999  1.00  0.00     0.021 A 
HETATM   11  C   UNK A   0       8.413   6.207  89.860  1.00  0.00     0.018 A 
HETATM   12  C   UNK A   0       8.558   7.407  89.167  1.00  0.00     0.021 A 
HETATM   13  C   UNK A   0       7.441   8.030  88.611  1.00  0.00     0.010 A 
BRANCH  11  14
HETATM   14  C   UNK A   0       9.559   5.567  90.429  1.00  0.00    -0.061 C 
HETATM   15  C   UNK A   0      10.522   5.030  90.908  1.00  0.00    -0.061 C 
BRANCH  15  16
HETATM   16  C   UNK A   0      11.667   4.391  91.477  1.00  0.00     0.018 A 
HETATM   17  C   UNK A   0      12.845   4.284  90.737  1.00  0.00     0.022 A 
HETATM   18  C   UNK A   0      13.963   3.663  91.294  1.00  0.00     0.018 A 
HETATM   19  C   UNK A   0      13.879   3.165  92.577  1.00  0.00     0.032 A 
HETATM   20  C   UNK A   0      12.726   3.258  93.329  1.00  0.00     0.018 A 
HETATM   21  C   UNK A   0      11.608   3.879  92.773  1.00  0.00     0.022 A 
BRANCH  19  22
HETATM   22  C   UNK A   0      15.069   2.501  93.170  1.00  0.00     0.252 C 
HETATM   23  O   UNK A   0      15.743   3.108  93.999  1.00  0.00    -0.268 OA
ENDBRANCH  19  22
ENDBRANCH  15  16
ENDBRANCH  11  14
ENDBRANCH   7   8
ENDBRANCH   2   7
TORSDOF 9
ENDMDL
MODEL 5
REMARK VINA RESULT:      -6.6      3.992     10.453
REMARK  9 active torsions:
REMARK  status: ('A' for Active; 'I' for Inactive)
REMARK    1  A    between atoms: N_3  and  C_6 
REMARK    2  A    between atoms: C_6  and  C_9 
REMARK    3  A    between atoms: C_14  and  C_17 
REMARK       I    between atoms: N_26  and  C_15 
REMARK    4  A    between atoms: C_15  and  C_16 
REMARK    5  A    between atoms: C_20  and  C_23 
REMARK    6  A    between atoms: OG1_24  and  CB_28 
REMARK    7  A    between atoms: N_26  and  CA_27 
REMARK    8  A    between atoms: CA_27  and  CB_28 
REMARK    9  A    between atoms: CA_27  and  C_30 
ROOT
HETATM    1  O   UNK A   0      14.519   3.304  92.096  1.00  0.00    -0.388 OA
HETATM    2  N   UNK A   0      11.815   4.173  92.277  1.00  0.00     0.096 N 
HETATM    3  C   UNK A   0      12.428   3.351  93.328  1.00  0.00     0.299 C 
HETATM    4  C   UNK A   0      12.445   3.886  90.981  1.00  0.00     0.299 C 
HETATM    5  C   UNK A   0      13.934   3.599  93.366  1.00  0.00     0.198 C 
HETATM    6  C   UNK A   0      13.949   4.121  91.073  1.00  0.00     0.198 C 
ENDROOT
BRANCH   2   7
HETATM    7  C   UNK A   0      10.372   3.943  92.215  1.00  0.00     0.311 C 
BRANCH   7   8
HETATM    8  C   UNK A   0       9.610   5.190  91.923  1.00  0.00    -0.030 A 
HETATM    9  C   UNK A   0       8.660   5.202  90.901  1.00  0.00     0.010 A 
HETATM   10  C   UNK A   0       7.948   6.369  90.624  1.00  0.00     0.021 A 
HETATM   11  C   UNK A   0       8.184   7.522  91.372  1.00  0.00     0.018 A 
HETATM   12  C   UNK A   0       9.132   7.511  92.393  1.00  0.00     0.021 A 
HETATM   13  C   UNK A   0       9.845   6.345  92.669  1.00  0.00     0.010 A 
BRANCH  11  14
HETATM   14  C   UNK A   0       7.452   8.719  91.090  1.00  0.00    -0.061 C 
HETATM   15  C   UNK A   0       6.837   9.724  90.853  1.00  0.00    -0.061 C 
BRANCH  15  16
HETATM   16  C   UNK A   0       6.105  10.920  90.571  1.00  0.00     0.018 A 
HETATM   17  C   UNK A   0       6.254  11.552  89.336  1.00  0.00     0.022 A 
HETATM   18  C   UNK A   0       5.538  12.717  89.060  1.00  0.00     0.018 A 
HETATM   19  C   UNK A   0       4.690  13.222  90.022  1.00  0.00     0.032 A 
HETATM   20  C   UNK A   0       4.525  12.616  91.250  1.00  0.00     0.018 A 
HETATM   21  C   UNK A   0       5.241  11.451  91.528  1.00  0.00     0.022 A 
BRANCH  19  22
HETATM   22  C   UNK A   0       3.929  14.464  89.728  1.00  0.00     0.252 C 
HETATM   23  O   UNK A   0       4.511  15.545  89.757  1.00  0.00    -0.268 OA
ENDBRANCH  19  22
ENDBRANCH  15  16
ENDBRANCH  11  14
ENDBRANCH   7   8
ENDBRANCH   2   7
TORSDOF 9
ENDMDL
MODEL 6
REMARK VINA RESULT:      -6.6      4.001     10.408
REMARK  9 active torsions:
REMARK  status: ('A' for Active; 'I' for Inactive)
REMARK    1  A    between atoms: N_3  and  C_6 
REMARK    2  A    between atoms: C_6  and  C_9 
REMARK    3  A    between atoms: C_14  and  C_17 
REMARK       I    between atoms: N_26  and  C_15 
REMARK    4  A    between atoms: C_15  and  C_16 
REMARK    5  A    between atoms: C_20  and  C_23 
REMARK    6  A    between atoms: OG1_24  and  CB_28 
REMARK    7  A    between atoms: N_26  and  CA_27 
REMARK    8  A    between atoms: CA_27  and  CB_28 
REMARK    9  A    between atoms: CA_27  and  C_30 
ROOT
HETATM    1  O   UNK A   0      14.530   3.361  92.002  1.00  0.00    -0.388 OA
HETATM    2  N   UNK A   0      11.826   4.195  92.313  1.00  0.00     0.096 N 
HETATM    3  C   UNK A   0      12.463   3.280  93.271  1.00  0.00     0.299 C 
HETATM    4  C   UNK A   0      12.433   4.034  90.985  1.00  0.00     0.299 C 
HETATM    5  C   UNK A   0      13.969   3.533  93.304  1.00  0.00     0.198 C 
HETATM    6  C   UNK A   0      13.938   4.267  91.071  1.00  0.00     0.198 C 
ENDROOT
BRANCH   2   7
HETATM    7  C   UNK A   0      10.384   3.963  92.257  1.00  0.00     0.311 C 
BRANCH   7   8
HETATM    8  C   UNK A   0       9.621   5.208  91.956  1.00  0.00    -0.030 A 
HETATM    9  C   UNK A   0       8.663   5.209  90.941  1.00  0.00     0.010 A 
HETATM   10  C   UNK A   0       7.950   6.374  90.657  1.00  0.00     0.021 A 
HETATM   11  C   UNK A   0       8.193   7.535  91.390  1.00  0.00     0.018 A 
HETATM   12  C   UNK A   0       9.148   7.535  92.404  1.00  0.00     0.021 A 
HETATM   13  C   UNK A   0       9.862   6.371  92.688  1.00  0.00     0.010 A 
BRANCH  11  14
HETATM   14  C   UNK A   0       7.459   8.729  91.100  1.00  0.00    -0.061 C 
HETATM   15  C   UNK A   0       6.842   9.732  90.856  1.00  0.00    -0.061 C 
BRANCH  15  16
HETATM   16  C   UNK A   0       6.109  10.925  90.568  1.00  0.00     0.018 A 
HETATM   17  C   UNK A   0       5.242  11.458  91.522  1.00  0.00     0.022 A 
HETATM   18  C   UNK A   0       4.529  12.623  91.241  1.00  0.00     0.018 A 
HETATM   19  C   UNK A   0       4.699  13.229  90.014  1.00  0.00     0.032 A 
HETATM   20  C   UNK A   0       5.550  12.722  89.054  1.00  0.00     0.018 A 
HETATM   21  C   UNK A   0       6.263  11.557  89.334  1.00  0.00     0.022 A 
BRANCH  19  22
HETATM   22  C   UNK A   0       3.938  14.470  89.714  1.00  0.00     0.252 C 
HETATM   23  O   UNK A   0       4.505  15.557  89.801  1.00  0.00    -0.268 OA
ENDBRANCH  19  22
ENDBRANCH  15  16
ENDBRANCH  11  14
ENDBRANCH   7   8
ENDBRANCH   2   7
TORSDOF 9
ENDMDL
MODEL 7
REMARK VINA RESULT:      -6.5      3.836     10.321
REMARK  9 active torsions:
REMARK  status: ('A' for Active; 'I' for Inactive)
REMARK    1  A    between atoms: N_3  and  C_6 
REMARK    2  A    between atoms: C_6  and  C_9 
REMARK    3  A    between atoms: C_14  and  C_17 
REMARK       I    between atoms: N_26  and  C_15 
REMARK    4  A    between atoms: C_15  and  C_16 
REMARK    5  A    between atoms: C_20  and  C_23 
REMARK    6  A    between atoms: OG1_24  and  CB_28 
REMARK    7  A    between atoms: N_26  and  CA_27 
REMARK    8  A    between atoms: CA_27  and  CB_28 
REMARK    9  A    between atoms: CA_27  and  C_30 
ROOT
HETATM    1  O   UNK A   0      14.271   3.055  92.763  1.00  0.00    -0.388 OA
HETATM    2  N   UNK A   0      11.976   4.085  91.431  1.00  0.00     0.096 N 
HETATM    3  C   UNK A   0      11.877   2.962  92.374  1.00  0.00     0.299 C 
HETATM    4  C   UNK A   0      13.302   4.096  90.798  1.00  0.00     0.299 C 
HETATM    5  C   UNK A   0      12.996   3.056  93.408  1.00  0.00     0.198 C 
HETATM    6  C   UNK A   0      14.386   4.162  91.868  1.00  0.00     0.198 C 
ENDROOT
BRANCH   2   7
HETATM    7  C   UNK A   0      10.919   4.010  90.424  1.00  0.00     0.311 C 
BRANCH   7   8
HETATM    8  C   UNK A   0      10.097   5.252  90.369  1.00  0.00    -0.030 A 
HETATM    9  C   UNK A   0      10.196   6.105  89.269  1.00  0.00     0.010 A 
HETATM   10  C   UNK A   0       9.429   7.269  89.217  1.00  0.00     0.021 A 
HETATM   11  C   UNK A   0       8.562   7.578  90.265  1.00  0.00     0.018 A 
HETATM   12  C   UNK A   0       8.462   6.727  91.364  1.00  0.00     0.021 A 
HETATM   13  C   UNK A   0       9.230   5.564  91.416  1.00  0.00     0.010 A 
BRANCH  11  14
HETATM   14  C   UNK A   0       7.774   8.771  90.211  1.00  0.00    -0.061 C 
HETATM   15  C   UNK A   0       7.112   9.774  90.165  1.00  0.00    -0.061 C 
BRANCH  15  16
HETATM   16  C   UNK A   0       6.324  10.965  90.110  1.00  0.00     0.018 A 
HETATM   17  C   UNK A   0       6.404  11.802  88.997  1.00  0.00     0.022 A 
HETATM   18  C   UNK A   0       5.633  12.964  88.943  1.00  0.00     0.018 A 
HETATM   19  C   UNK A   0       4.800  13.261  90.001  1.00  0.00     0.032 A 
HETATM   20  C   UNK A   0       4.703  12.450  91.112  1.00  0.00     0.018 A 
HETATM   21  C   UNK A   0       5.474  11.289  91.168  1.00  0.00     0.022 A 
BRANCH  19  22
HETATM   22  C   UNK A   0       3.980  14.499  89.943  1.00  0.00     0.252 C 
HETATM   23  O   UNK A   0       4.511  15.555  89.606  1.00  0.00    -0.268 OA
ENDBRANCH  19  22
ENDBRANCH  15  16
ENDBRANCH  11  14
ENDBRANCH   7   8
ENDBRANCH   2   7
TORSDOF 9
ENDMDL
MODEL 8
REMARK VINA RESULT:      -6.4      4.937     10.316
REMARK  9 active torsions:
REMARK  status: ('A' for Active; 'I' for Inactive)
REMARK    1  A    between atoms: N_3  and  C_6 
REMARK    2  A    between atoms: C_6  and  C_9 
REMARK    3  A    between atoms: C_14  and  C_17 
REMARK       I    between atoms: N_26  and  C_15 
REMARK    4  A    between atoms: C_15  and  C_16 
REMARK    5  A    between atoms: C_20  and  C_23 
REMARK    6  A    between atoms: OG1_24  and  CB_28 
REMARK    7  A    between atoms: N_26  and  CA_27 
REMARK    8  A    between atoms: CA_27  and  CB_28 
REMARK    9  A    between atoms: CA_27  and  C_30 
ROOT
HETATM    1  O   UNK A   0      11.257   4.024  89.004  1.00  0.00    -0.388 OA
HETATM    2  N   UNK A   0       9.458   5.935  87.903  1.00  0.00     0.096 N 
HETATM    3  C   UNK A   0      10.100   4.913  87.065  1.00  0.00     0.299 C 
HETATM    4  C   UNK A   0      10.319   6.261  89.048  1.00  0.00     0.299 C 
HETATM    5  C   UNK A   0      10.413   3.677  87.905  1.00  0.00     0.198 C 
HETATM    6  C   UNK A   0      10.627   4.995  89.841  1.00  0.00     0.198 C 
ENDROOT
BRANCH   2   7
HETATM    7  C   UNK A   0       9.159   7.133  87.120  1.00  0.00     0.311 C 
BRANCH   7   8
HETATM    8  C   UNK A   0       8.358   8.128  87.888  1.00  0.00    -0.030 A 
HETATM    9  C   UNK A   0       8.940   9.332  88.287  1.00  0.00     0.010 A 
HETATM   10  C   UNK A   0       8.192  10.263  89.008  1.00  0.00     0.021 A 
HETATM   11  C   UNK A   0       6.862   9.990  89.327  1.00  0.00     0.018 A 
HETATM   12  C   UNK A   0       6.280   8.788  88.929  1.00  0.00     0.021 A 
HETATM   13  C   UNK A   0       7.027   7.857  88.209  1.00  0.00     0.010 A 
BRANCH  11  14
HETATM   14  C   UNK A   0       6.095  10.946  90.065  1.00  0.00    -0.061 C 
HETATM   15  C   UNK A   0       5.449  11.749  90.685  1.00  0.00    -0.061 C 
BRANCH  15  16
HETATM   16  C   UNK A   0       4.681  12.704  91.422  1.00  0.00     0.018 A 
HETATM   17  C   UNK A   0       4.059  12.327  92.613  1.00  0.00     0.022 A 
HETATM   18  C   UNK A   0       3.313  13.259  93.333  1.00  0.00     0.018 A 
HETATM   19  C   UNK A   0       3.206  14.546  92.848  1.00  0.00     0.032 A 
HETATM   20  C   UNK A   0       3.811  14.943  91.674  1.00  0.00     0.018 A 
HETATM   21  C   UNK A   0       4.557  14.011  90.953  1.00  0.00     0.022 A 
BRANCH  19  22
HETATM   22  C   UNK A   0       2.409  15.538  93.616  1.00  0.00     0.252 C 
HETATM   23  O   UNK A   0       1.191  15.580  93.459  1.00  0.00    -0.268 OA
ENDBRANCH  19  22
ENDBRANCH  15  16
ENDBRANCH  11  14
ENDBRANCH   7   8
ENDBRANCH   2   7
TORSDOF 9
ENDMDL
MODEL 9
REMARK VINA RESULT:      -6.3      3.208      4.054
REMARK  9 active torsions:
REMARK  status: ('A' for Active; 'I' for Inactive)
REMARK    1  A    between atoms: N_3  and  C_6 
REMARK    2  A    between atoms: C_6  and  C_9 
REMARK    3  A    between atoms: C_14  and  C_17 
REMARK       I    between atoms: N_26  and  C_15 
REMARK    4  A    between atoms: C_15  and  C_16 
REMARK    5  A    between atoms: C_20  and  C_23 
REMARK    6  A    between atoms: OG1_24  and  CB_28 
REMARK    7  A    between atoms: N_26  and  CA_27 
REMARK    8  A    between atoms: CA_27  and  CB_28 
REMARK    9  A    between atoms: CA_27  and  C_30 
ROOT
HETATM    1  O   UNK A   0       4.032  14.623  90.130  1.00  0.00    -0.388 OA
HETATM    2  N   UNK A   0       4.927  12.007  89.453  1.00  0.00     0.096 N 
HETATM    3  C   UNK A   0       4.760  13.050  88.431  1.00  0.00     0.299 C 
HETATM    4  C   UNK A   0       3.993  12.237  90.564  1.00  0.00     0.299 C 
HETATM    5  C   UNK A   0       4.959  14.427  89.060  1.00  0.00     0.198 C 
HETATM    6  C   UNK A   0       4.209  13.632  91.142  1.00  0.00     0.198 C 
ENDROOT
BRANCH   2   7
HETATM    7  C   UNK A   0       4.729  10.679  88.874  1.00  0.00     0.311 C 
BRANCH   7   8
HETATM    8  C   UNK A   0       5.773   9.709  89.311  1.00  0.00    -0.030 A 
HETATM    9  C   UNK A   0       7.059  10.158  89.615  1.00  0.00     0.010 A 
HETATM   10  C   UNK A   0       8.037   9.251  90.022  1.00  0.00     0.021 A 
HETATM   11  C   UNK A   0       7.728   7.895  90.126  1.00  0.00     0.018 A 
HETATM   12  C   UNK A   0       6.445   7.445  89.823  1.00  0.00     0.021 A 
HETATM   13  C   UNK A   0       5.467   8.352  89.416  1.00  0.00     0.010 A 
BRANCH  11  14
HETATM   14  C   UNK A   0       8.731   6.965  90.545  1.00  0.00    -0.061 C 
HETATM   15  C   UNK A   0       9.574   6.183  90.898  1.00  0.00    -0.061 C 
BRANCH  15  16
HETATM   16  C   UNK A   0      10.576   5.254  91.318  1.00  0.00     0.018 A 
HETATM   17  C   UNK A   0      11.419   4.665  90.375  1.00  0.00     0.022 A 
HETATM   18  C   UNK A   0      12.398   3.760  90.785  1.00  0.00     0.018 A 
HETATM   19  C   UNK A   0      12.513   3.465  92.127  1.00  0.00     0.032 A 
HETATM   20  C   UNK A   0      11.692   4.034  93.079  1.00  0.00     0.018 A 
HETATM   21  C   UNK A   0      10.712   4.939  92.670  1.00  0.00     0.022 A 
BRANCH  19  22
HETATM   22  C   UNK A   0      13.555   2.500  92.563  1.00  0.00     0.252 C 
HETATM   23  O   UNK A   0      14.006   2.578  93.704  1.00  0.00    -0.268 OA
ENDBRANCH  19  22
ENDBRANCH  15  16
ENDBRANCH  11  14
ENDBRANCH   7   8
ENDBRANCH   2   7
TORSDOF 9
ENDMDL
