MODEL 1
REMARK VINA RESULT:      -6.9      0.000      0.000
REMARK  10 active torsions:
REMARK  status: ('A' for Active; 'I' for Inactive)
REMARK    1  A    between atoms: O_2  and  C_18 
REMARK    2  A    between atoms: O_5  and  N_8 
REMARK    3  A    between atoms: N_6  and  C_11 
REMARK    4  A    between atoms: N_7  and  C_15 
REMARK       I    between atoms: N_7  and  C_24 
REMARK       I    between atoms: N_8  and  C_23 
REMARK    5  A    between atoms: C_11  and  C_14 
REMARK    6  A    between atoms: C_15  and  C_18 
REMARK    7  A    between atoms: C_15  and  C_23 
REMARK    8  A    between atoms: C_21  and  C_26 
REMARK    9  A    between atoms: C_24  and  C_25 
REMARK   10  A    between atoms: C_29  and  C_32 
ROOT
HETATM    1  O   UNK     0      16.423   4.350  93.970  0.00  0.00    -0.388 OA
HETATM    2  N   UNK     0      14.638   2.536  92.696  0.00  0.00     0.096 N 
HETATM    3  C   UNK     0      14.499   3.990  92.536  0.00  0.00     0.299 C 
HETATM    4  C   UNK     0      15.247   2.228  93.997  0.00  0.00     0.299 C 
HETATM    5  C   UNK     0      15.861   4.660  92.694  0.00  0.00     0.198 C 
HETATM    6  C   UNK     0      16.591   2.940  94.121  0.00  0.00     0.198 C 
ENDROOT
BRANCH   2   7
HETATM    7  C   UNK     0      13.342   1.873  92.560  0.00  0.00     0.311 C 
BRANCH   7   8
HETATM    8  C   UNK     0      12.246   2.831  92.238  0.00  0.00    -0.030 A 
HETATM    9  C   UNK     0      11.777   2.938  90.928  0.00  0.00     0.010 A 
HETATM   10  C   UNK     0      10.753   3.835  90.626  0.00  0.00     0.021 A 
HETATM   11  C   UNK     0      10.197   4.623  91.633  0.00  0.00     0.018 A 
HETATM   12  C   UNK     0      10.665   4.517  92.941  0.00  0.00     0.021 A 
HETATM   13  C   UNK     0      11.690   3.621  93.244  0.00  0.00     0.010 A 
BRANCH  11  14
HETATM   14  C   UNK     0       9.145   5.542  91.323  0.00  0.00    -0.061 C 
HETATM   15  C   UNK     0       8.261   6.314  91.062  0.00  0.00    -0.061 C 
BRANCH  15  16
HETATM   16  C   UNK     0       7.212   7.233  90.752  0.00  0.00     0.018 A 
HETATM   17  C   UNK     0       6.996   7.625  89.430  0.00  0.00     0.022 A 
HETATM   18  C   UNK     0       5.970   8.520  89.127  0.00  0.00     0.018 A 
HETATM   19  C   UNK     0       5.183   9.003  90.151  0.00  0.00     0.032 A 
HETATM   20  C   UNK     0       5.375   8.632  91.466  0.00  0.00     0.018 A 
HETATM   21  C   UNK     0       6.402   7.738  91.769  0.00  0.00     0.022 A 
BRANCH  19  22
HETATM   22  C   UNK     0       4.091   9.958  89.828  0.00  0.00     0.252 C 
HETATM   23  O   UNK     0       3.021   9.526  89.408  0.00  0.00    -0.268 OA
HETATM   24  N   UNK     0       4.369  11.299  90.056  0.00  0.00    -0.341 N 
HETATM   25  H   UNK     0       5.269  11.580  90.428  0.00  0.00     0.163 HD
BRANCH  24  26
HETATM   26  C   UNK     0       3.406  12.342  89.815  0.00  0.00     0.207 C 
BRANCH  26  27
HETATM   27  C   UNK     0       2.938  13.028  91.105  0.00  0.00     0.146 C 
HETATM   28  C   UNK     0       2.304  12.052  92.089  0.00  0.00     0.042 C 
BRANCH  27  29
HETATM   29  O   UNK     0       4.049  13.666  91.735  0.00  0.00    -0.393 OA
HETATM   30  H   UNK     0       4.274  13.163  92.536  0.00  0.00     0.210 HD
ENDBRANCH  27  29
ENDBRANCH  26  27
BRANCH  26  31
HETATM   31  C   UNK     0       4.034  13.343  88.851  0.00  0.00     0.266 C 
HETATM   32  O   UNK     0       4.221  14.524  89.139  0.00  0.00    -0.269 OA
HETATM   33  N   UNK     0       4.323  12.779  87.632  0.00  0.00    -0.236 N 
HETATM   34  H   UNK     0       4.102  11.837  87.332  0.00  0.00     0.197 HD
BRANCH  33  35
HETATM   35  O   UNK     0       4.870  13.644  86.674  0.00  0.00    -0.287 OA
HETATM   36  H   UNK     0       5.700  13.178  86.472  0.00  0.00     0.244 HD
ENDBRANCH  33  35
ENDBRANCH  26  31
ENDBRANCH  24  26
ENDBRANCH  19  22
ENDBRANCH  15  16
ENDBRANCH  11  14
ENDBRANCH   7   8
ENDBRANCH   2   7
TORSDOF 10
ENDMDL
