MODEL 1
REMARK VINA RESULT:      -6.7      0.000      0.000
REMARK  9 active torsions:
REMARK  status: ('A' for Active; 'I' for Inactive)
REMARK    1  A    between atoms: O_2  and  C_17 
REMARK    2  A    between atoms: N_5  and  C_10 
REMARK    3  A    between atoms: N_6  and  C_14 
REMARK       I    between atoms: N_6  and  C_23 
REMARK       I    between atoms: N_7  and  C_22 
REMARK    4  A    between atoms: C_10  and  C_13 
REMARK    5  A    between atoms: C_14  and  C_17 
REMARK    6  A    between atoms: C_14  and  C_22 
REMARK    7  A    between atoms: C_20  and  C_25 
REMARK    8  A    between atoms: C_23  and  C_24 
REMARK    9  A    between atoms: C_28  and  C_31 
ROOT
HETATM    1  O   UNL     1      16.033   4.237  94.028  1.00  0.00    -0.388 OA
HETATM    2  N   UNL     1      14.322   2.710  92.342  1.00  0.00     0.096 N 
HETATM    3  C   UNL     1      14.387   4.175  92.245  1.00  0.00     0.299 C 
HETATM    4  C   UNL     1      14.632   2.282  93.713  1.00  0.00     0.299 C 
HETATM    5  C   UNL     1      15.764   4.662  92.691  1.00  0.00     0.198 C 
HETATM    6  C   UNL     1      16.001   2.813  94.124  1.00  0.00     0.198 C 
ENDROOT
BRANCH   2   7
HETATM    7  C   UNL     1      13.007   2.223  91.929  1.00  0.00     0.311 C 
BRANCH   7   8
HETATM    8  C   UNL     1      12.064   3.332  91.612  1.00  0.00    -0.030 A 
HETATM    9  C   UNL     1      11.264   3.876  92.617  1.00  0.00     0.010 A 
HETATM   10  C   UNL     1      10.379   4.913  92.321  1.00  0.00     0.021 A 
HETATM   11  C   UNL     1      10.297   5.407  91.019  1.00  0.00     0.018 A 
HETATM   12  C   UNL     1      11.095   4.865  90.014  1.00  0.00     0.021 A 
HETATM   13  C   UNL     1      11.979   3.827  90.310  1.00  0.00     0.010 A 
BRANCH  11  14
HETATM   14  C   UNL     1       9.391   6.472  90.716  1.00  0.00    -0.061 C 
HETATM   15  C   UNL     1       8.630   7.367  90.460  1.00  0.00    -0.061 C 
BRANCH  15  16
HETATM   16  C   UNL     1       7.725   8.431  90.156  1.00  0.00     0.018 A 
HETATM   17  C   UNL     1       6.457   8.143  89.649  1.00  0.00     0.022 A 
HETATM   18  C   UNL     1       5.573   9.181  89.355  1.00  0.00     0.018 A 
HETATM   19  C   UNL     1       5.976  10.482  89.574  1.00  0.00     0.032 A 
HETATM   20  C   UNL     1       7.223  10.792  90.073  1.00  0.00     0.018 A 
HETATM   21  C   UNL     1       8.108   9.755  90.368  1.00  0.00     0.022 A 
BRANCH  19  22
HETATM   22  C   UNL     1       5.034  11.588  89.259  1.00  0.00     0.252 C 
HETATM   23  O   UNL     1       4.521  11.638  88.144  1.00  0.00    -0.268 OA
HETATM   24  N   UNL     1       4.786  12.486  90.287  1.00  0.00    -0.342 N 
HETATM   25  H   UNL     1       5.228  12.367  91.190  1.00  0.00     0.163 HD
BRANCH  24  26
HETATM   26  C   UNL     1       3.879  13.597  90.143  1.00  0.00     0.199 C 
BRANCH  26  27
HETATM   27  C   UNL     1       2.552  13.378  90.881  1.00  0.00     0.145 C 
HETATM   28  C   UNL     1       2.681  12.389  92.034  1.00  0.00     0.042 C 
BRANCH  27  29
HETATM   29  O   UNL     1       2.078  14.625  91.391  1.00  0.00    -0.393 OA
HETATM   30  H   UNL     1       2.456  14.755  92.277  1.00  0.00     0.210 HD
ENDBRANCH  27  29
ENDBRANCH  26  27
BRANCH  26  31
HETATM   31  C   UNL     1       4.592  14.848  90.644  1.00  0.00     0.220 C 
HETATM   32  O   UNL     1       4.691  15.131  91.836  1.00  0.00    -0.278 OA
HETATM   33  N   UNL     1       5.065  15.623  89.613  1.00  0.00    -0.271 NA
HETATM   34  H   UNL     1       4.923  15.467  88.622  1.00  0.00     0.127 HD
HETATM   35  H   UNL     1       4.585  16.864  89.163  1.00  0.00     0.127 HD
ENDBRANCH  26  31
ENDBRANCH  24  26
ENDBRANCH  19  22
ENDBRANCH  15  16
ENDBRANCH  11  14
ENDBRANCH   7   8
ENDBRANCH   2   7
TORSDOF 9
ENDMDL
MODEL 2
REMARK VINA RESULT:      -6.6      1.360      1.829
REMARK  9 active torsions:
REMARK  status: ('A' for Active; 'I' for Inactive)
REMARK    1  A    between atoms: O_2  and  C_17 
REMARK    2  A    between atoms: N_5  and  C_10 
REMARK    3  A    between atoms: N_6  and  C_14 
REMARK       I    between atoms: N_6  and  C_23 
REMARK       I    between atoms: N_7  and  C_22 
REMARK    4  A    between atoms: C_10  and  C_13 
REMARK    5  A    between atoms: C_14  and  C_17 
REMARK    6  A    between atoms: C_14  and  C_22 
REMARK    7  A    between atoms: C_20  and  C_25 
REMARK    8  A    between atoms: C_23  and  C_24 
REMARK    9  A    between atoms: C_28  and  C_31 
ROOT
HETATM    1  O   UNL     1      16.716   3.444  93.807  1.00  0.00    -0.388 OA
HETATM    2  N   UNL     1      14.066   2.896  92.924  1.00  0.00     0.096 N 
HETATM    3  C   UNL     1      15.070   1.831  93.046  1.00  0.00     0.299 C 
HETATM    4  C   UNL     1      14.725   4.177  92.632  1.00  0.00     0.299 C 
HETATM    5  C   UNL     1      16.088   2.200  94.123  1.00  0.00     0.198 C 
HETATM    6  C   UNL     1      15.750   4.491  93.716  1.00  0.00     0.198 C 
ENDROOT
BRANCH   2   7
HETATM    7  C   UNL     1      13.086   2.568  91.890  1.00  0.00     0.311 C 
BRANCH   7   8
HETATM    8  C   UNL     1      12.033   3.614  91.753  1.00  0.00    -0.030 A 
HETATM    9  C   UNL     1      11.803   4.213  90.514  1.00  0.00     0.010 A 
HETATM   10  C   UNL     1      10.820   5.194  90.385  1.00  0.00     0.021 A 
HETATM   11  C   UNL     1      10.065   5.573  91.494  1.00  0.00     0.018 A 
HETATM   12  C   UNL     1      10.293   4.976  92.732  1.00  0.00     0.021 A 
HETATM   13  C   UNL     1      11.277   3.996  92.862  1.00  0.00     0.010 A 
BRANCH  11  14
HETATM   14  C   UNL     1       9.055   6.577  91.361  1.00  0.00    -0.061 C 
HETATM   15  C   UNL     1       8.206   7.422  91.250  1.00  0.00    -0.061 C 
BRANCH  15  16
HETATM   16  C   UNL     1       7.197   8.426  91.116  1.00  0.00     0.018 A 
HETATM   17  C   UNL     1       6.612   8.664  89.873  1.00  0.00     0.022 A 
HETATM   18  C   UNL     1       5.625   9.642  89.744  1.00  0.00     0.018 A 
HETATM   19  C   UNL     1       5.247  10.358  90.859  1.00  0.00     0.032 A 
HETATM   20  C   UNL     1       5.810  10.142  92.099  1.00  0.00     0.018 A 
HETATM   21  C   UNL     1       6.797   9.165  92.230  1.00  0.00     0.022 A 
BRANCH  19  22
HETATM   22  C   UNL     1       4.197  11.401  90.721  1.00  0.00     0.252 C 
HETATM   23  O   UNL     1       3.384  11.316  89.804  1.00  0.00    -0.268 OA
HETATM   24  N   UNL     1       4.206  12.404  91.681  1.00  0.00    -0.342 N 
HETATM   25  H   UNL     1       4.894  12.396  92.424  1.00  0.00     0.163 HD
BRANCH  24  26
HETATM   26  C   UNL     1       3.239  13.472  91.695  1.00  0.00     0.199 C 
BRANCH  26  27
HETATM   27  C   UNL     1       3.051  14.083  93.090  1.00  0.00     0.145 C 
HETATM   28  C   UNL     1       4.284  13.918  93.970  1.00  0.00     0.042 C 
BRANCH  27  29
HETATM   29  O   UNL     1       2.753  15.473  92.965  1.00  0.00    -0.393 OA
HETATM   30  H   UNL     1       3.452  15.888  92.431  1.00  0.00     0.210 HD
ENDBRANCH  27  29
ENDBRANCH  26  27
BRANCH  26  31
HETATM   31  C   UNL     1       3.689  14.522  90.685  1.00  0.00     0.220 C 
HETATM   32  O   UNL     1       4.522  15.388  90.946  1.00  0.00    -0.278 OA
HETATM   33  N   UNL     1       3.030  14.405  89.486  1.00  0.00    -0.271 NA
HETATM   34  H   UNL     1       2.277  13.762  89.268  1.00  0.00     0.127 HD
HETATM   35  H   UNL     1       2.044  15.246  88.947  1.00  0.00     0.127 HD
ENDBRANCH  26  31
ENDBRANCH  24  26
ENDBRANCH  19  22
ENDBRANCH  15  16
ENDBRANCH  11  14
ENDBRANCH   7   8
ENDBRANCH   2   7
TORSDOF 9
ENDMDL
MODEL 3
REMARK VINA RESULT:      -6.5      1.484      2.282
REMARK  9 active torsions:
REMARK  status: ('A' for Active; 'I' for Inactive)
REMARK    1  A    between atoms: O_2  and  C_17 
REMARK    2  A    between atoms: N_5  and  C_10 
REMARK    3  A    between atoms: N_6  and  C_14 
REMARK       I    between atoms: N_6  and  C_23 
REMARK       I    between atoms: N_7  and  C_22 
REMARK    4  A    between atoms: C_10  and  C_13 
REMARK    5  A    between atoms: C_14  and  C_17 
REMARK    6  A    between atoms: C_14  and  C_22 
REMARK    7  A    between atoms: C_20  and  C_25 
REMARK    8  A    between atoms: C_23  and  C_24 
REMARK    9  A    between atoms: C_28  and  C_31 
ROOT
HETATM    1  O   UNL     1      16.567   3.240  93.731  1.00  0.00    -0.388 OA
HETATM    2  N   UNL     1      13.866   2.902  92.898  1.00  0.00     0.096 N 
HETATM    3  C   UNL     1      14.764   1.753  93.078  1.00  0.00     0.299 C 
HETATM    4  C   UNL     1      14.642   4.094  92.527  1.00  0.00     0.299 C 
HETATM    5  C   UNL     1      15.825   2.084  94.124  1.00  0.00     0.198 C 
HETATM    6  C   UNL     1      15.705   4.370  93.584  1.00  0.00     0.198 C 
ENDROOT
BRANCH   2   7
HETATM    7  C   UNL     1      12.847   2.611  91.892  1.00  0.00     0.311 C 
BRANCH   7   8
HETATM    8  C   UNL     1      11.827   3.693  91.787  1.00  0.00    -0.030 A 
HETATM    9  C   UNL     1      11.450   4.176  90.533  1.00  0.00     0.010 A 
HETATM   10  C   UNL     1      10.498   5.189  90.433  1.00  0.00     0.021 A 
HETATM   11  C   UNL     1       9.920   5.718  91.587  1.00  0.00     0.018 A 
HETATM   12  C   UNL     1      10.295   5.236  92.840  1.00  0.00     0.021 A 
HETATM   13  C   UNL     1      11.248   4.223  92.940  1.00  0.00     0.010 A 
BRANCH  11  14
HETATM   14  C   UNL     1       8.941   6.756  91.485  1.00  0.00    -0.061 C 
HETATM   15  C   UNL     1       8.119   7.629  91.398  1.00  0.00    -0.061 C 
BRANCH  15  16
HETATM   16  C   UNL     1       7.140   8.666  91.295  1.00  0.00     0.018 A 
HETATM   17  C   UNL     1       5.983   8.611  92.072  1.00  0.00     0.022 A 
HETATM   18  C   UNL     1       5.029   9.625  91.974  1.00  0.00     0.018 A 
HETATM   19  C   UNL     1       5.255  10.670  91.102  1.00  0.00     0.032 A 
HETATM   20  C   UNL     1       6.390  10.746  90.323  1.00  0.00     0.018 A 
HETATM   21  C   UNL     1       7.344   9.734  90.421  1.00  0.00     0.022 A 
BRANCH  19  22
HETATM   22  C   UNL     1       4.238  11.748  90.996  1.00  0.00     0.252 C 
HETATM   23  O   UNL     1       3.124  11.480  90.554  1.00  0.00    -0.268 OA
HETATM   24  N   UNL     1       4.633  13.002  91.440  1.00  0.00    -0.342 N 
HETATM   25  H   UNL     1       5.563  13.143  91.817  1.00  0.00     0.163 HD
BRANCH  24  26
HETATM   26  C   UNL     1       3.753  14.143  91.424  1.00  0.00     0.199 C 
BRANCH  26  27
HETATM   27  C   UNL     1       3.545  14.713  90.015  1.00  0.00     0.145 C 
HETATM   28  C   UNL     1       4.860  14.959  89.285  1.00  0.00     0.042 C 
BRANCH  27  29
HETATM   29  O   UNL     1       2.750  13.809  89.248  1.00  0.00    -0.393 OA
HETATM   30  H   UNL     1       2.599  13.009  89.780  1.00  0.00     0.210 HD
ENDBRANCH  27  29
ENDBRANCH  26  27
BRANCH  26  31
HETATM   31  C   UNL     1       2.430  13.719  92.053  1.00  0.00     0.220 C 
HETATM   32  O   UNL     1       1.336  14.021  91.579  1.00  0.00    -0.278 OA
HETATM   33  N   UNL     1       2.611  13.006  93.213  1.00  0.00    -0.271 NA
HETATM   34  H   UNL     1       3.491  12.817  93.678  1.00  0.00     0.127 HD
HETATM   35  H   UNL     1       2.363  13.412  94.534  1.00  0.00     0.127 HD
ENDBRANCH  26  31
ENDBRANCH  24  26
ENDBRANCH  19  22
ENDBRANCH  15  16
ENDBRANCH  11  14
ENDBRANCH   7   8
ENDBRANCH   2   7
TORSDOF 9
ENDMDL
MODEL 4
REMARK VINA RESULT:      -6.2      2.340     12.223
REMARK  9 active torsions:
REMARK  status: ('A' for Active; 'I' for Inactive)
REMARK    1  A    between atoms: O_2  and  C_17 
REMARK    2  A    between atoms: N_5  and  C_10 
REMARK    3  A    between atoms: N_6  and  C_14 
REMARK       I    between atoms: N_6  and  C_23 
REMARK       I    between atoms: N_7  and  C_22 
REMARK    4  A    between atoms: C_10  and  C_13 
REMARK    5  A    between atoms: C_14  and  C_17 
REMARK    6  A    between atoms: C_14  and  C_22 
REMARK    7  A    between atoms: C_20  and  C_25 
REMARK    8  A    between atoms: C_23  and  C_24 
REMARK    9  A    between atoms: C_28  and  C_31 
ROOT
HETATM    1  O   UNL     1       2.882  14.760  94.105  1.00  0.00    -0.388 OA
HETATM    2  N   UNL     1       2.594  14.681  91.275  1.00  0.00     0.096 N 
HETATM    3  C   UNL     1       1.654  13.982  92.162  1.00  0.00     0.299 C 
HETATM    4  C   UNL     1       3.916  14.770  91.911  1.00  0.00     0.299 C 
HETATM    5  C   UNL     1       1.585  14.697  93.508  1.00  0.00     0.198 C 
HETATM    6  C   UNL     1       3.794  15.465  93.263  1.00  0.00     0.198 C 
ENDROOT
BRANCH   2   7
HETATM    7  C   UNL     1       2.685  14.006  89.981  1.00  0.00     0.311 C 
BRANCH   7   8
HETATM    8  C   UNL     1       3.695  12.910  89.981  1.00  0.00    -0.030 A 
HETATM    9  C   UNL     1       3.435  11.724  90.668  1.00  0.00     0.010 A 
HETATM   10  C   UNL     1       4.381  10.698  90.671  1.00  0.00     0.021 A 
HETATM   11  C   UNL     1       5.584  10.859  89.985  1.00  0.00     0.018 A 
HETATM   12  C   UNL     1       5.845  12.043  89.299  1.00  0.00     0.021 A 
HETATM   13  C   UNL     1       4.900  13.069  89.296  1.00  0.00     0.010 A 
BRANCH  11  14
HETATM   14  C   UNL     1       6.553   9.806  89.987  1.00  0.00    -0.061 C 
HETATM   15  C   UNL     1       7.368   8.922  89.987  1.00  0.00    -0.061 C 
BRANCH  15  16
HETATM   16  C   UNL     1       8.336   7.870  89.989  1.00  0.00     0.018 A 
HETATM   17  C   UNL     1       8.692   7.253  91.189  1.00  0.00     0.022 A 
HETATM   18  C   UNL     1       9.635   6.225  91.190  1.00  0.00     0.018 A 
HETATM   19  C   UNL     1      10.200   5.838  89.993  1.00  0.00     0.032 A 
HETATM   20  C   UNL     1       9.866   6.433  88.794  1.00  0.00     0.018 A 
HETATM   21  C   UNL     1       8.923   7.461  88.792  1.00  0.00     0.022 A 
BRANCH  19  22
HETATM   22  C   UNL     1      11.206   4.744  89.995  1.00  0.00     0.252 C 
HETATM   23  O   UNL     1      11.423   4.127  88.955  1.00  0.00    -0.268 OA
HETATM   24  N   UNL     1      11.856   4.518  91.201  1.00  0.00    -0.342 N 
HETATM   25  H   UNL     1      11.642   5.085  92.013  1.00  0.00     0.163 HD
BRANCH  24  26
HETATM   26  C   UNL     1      12.873   3.510  91.356  1.00  0.00     0.199 C 
BRANCH  26  27
HETATM   27  C   UNL     1      14.182   4.070  91.927  1.00  0.00     0.145 C 
HETATM   28  C   UNL     1      15.170   2.973  92.307  1.00  0.00     0.042 C 
BRANCH  27  29
HETATM   29  O   UNL     1      14.792   4.931  90.966  1.00  0.00    -0.393 OA
HETATM   30  H   UNL     1      15.430   4.410  90.451  1.00  0.00     0.210 HD
ENDBRANCH  27  29
ENDBRANCH  26  27
BRANCH  26  31
HETATM   31  C   UNL     1      12.306   2.409  92.246  1.00  0.00     0.220 C 
HETATM   32  O   UNL     1      12.107   1.262  91.849  1.00  0.00    -0.278 OA
HETATM   33  N   UNL     1      12.015   2.862  93.510  1.00  0.00    -0.271 NA
HETATM   34  H   UNL     1      12.082   3.817  93.843  1.00  0.00     0.127 HD
HETATM   35  H   UNL     1      10.755   3.083  94.088  1.00  0.00     0.127 HD
ENDBRANCH  26  31
ENDBRANCH  24  26
ENDBRANCH  19  22
ENDBRANCH  15  16
ENDBRANCH  11  14
ENDBRANCH   7   8
ENDBRANCH   2   7
TORSDOF 9
ENDMDL
MODEL 5
REMARK VINA RESULT:      -5.0      1.935     12.238
REMARK  9 active torsions:
REMARK  status: ('A' for Active; 'I' for Inactive)
REMARK    1  A    between atoms: O_2  and  C_17 
REMARK    2  A    between atoms: N_5  and  C_10 
REMARK    3  A    between atoms: N_6  and  C_14 
REMARK       I    between atoms: N_6  and  C_23 
REMARK       I    between atoms: N_7  and  C_22 
REMARK    4  A    between atoms: C_10  and  C_13 
REMARK    5  A    between atoms: C_14  and  C_17 
REMARK    6  A    between atoms: C_14  and  C_22 
REMARK    7  A    between atoms: C_20  and  C_25 
REMARK    8  A    between atoms: C_23  and  C_24 
REMARK    9  A    between atoms: C_28  and  C_31 
ROOT
HETATM    1  O   UNL     1       5.658  14.718  88.648  1.00  0.00    -0.388 OA
HETATM    2  N   UNL     1       3.564  13.022  89.567  1.00  0.00     0.096 N 
HETATM    3  C   UNL     1       4.225  13.981  90.463  1.00  0.00     0.299 C 
HETATM    4  C   UNL     1       4.495  12.593  88.514  1.00  0.00     0.299 C 
HETATM    5  C   UNL     1       4.750  15.166  89.656  1.00  0.00     0.198 C 
HETATM    6  C   UNL     1       5.014  13.809  87.754  1.00  0.00     0.198 C 
ENDROOT
BRANCH   2   7
HETATM    7  C   UNL     1       3.062  11.872  90.317  1.00  0.00     0.311 C 
BRANCH   7   8
HETATM    8  C   UNL     1       4.142  10.902  90.660  1.00  0.00    -0.030 A 
HETATM    9  C   UNL     1       3.917   9.532  90.520  1.00  0.00     0.010 A 
HETATM   10  C   UNL     1       4.925   8.624  90.842  1.00  0.00     0.021 A 
HETATM   11  C   UNL     1       6.158   9.086  91.301  1.00  0.00     0.018 A 
HETATM   12  C   UNL     1       6.384  10.454  91.440  1.00  0.00     0.021 A 
HETATM   13  C   UNL     1       5.376  11.363  91.119  1.00  0.00     0.010 A 
BRANCH  11  14
HETATM   14  C   UNL     1       7.193   8.155  91.629  1.00  0.00    -0.061 C 
HETATM   15  C   UNL     1       8.063   7.371  91.904  1.00  0.00    -0.061 C 
BRANCH  15  16
HETATM   16  C   UNL     1       9.097   6.440  92.231  1.00  0.00     0.018 A 
HETATM   17  C   UNL     1       9.561   6.347  93.544  1.00  0.00     0.022 A 
HETATM   18  C   UNL     1      10.568   5.436  93.863  1.00  0.00     0.018 A 
HETATM   19  C   UNL     1      11.088   4.640  92.864  1.00  0.00     0.032 A 
HETATM   20  C   UNL     1      10.647   4.713  91.560  1.00  0.00     0.018 A 
HETATM   21  C   UNL     1       9.640   5.623  91.239  1.00  0.00     0.022 A 
BRANCH  19  22
HETATM   22  C   UNL     1      12.163   3.671  93.204  1.00  0.00     0.252 C 
HETATM   23  O   UNL     1      11.858   2.524  93.521  1.00  0.00    -0.268 OA
HETATM   24  N   UNL     1      13.463   4.148  93.111  1.00  0.00    -0.342 N 
HETATM   25  H   UNL     1      13.639   5.102  92.817  1.00  0.00     0.163 HD
BRANCH  24  26
HETATM   26  C   UNL     1      14.613   3.324  93.384  1.00  0.00     0.199 C 
BRANCH  26  27
HETATM   27  C   UNL     1      15.020   2.457  92.187  1.00  0.00     0.145 C 
HETATM   28  C   UNL     1      14.600   3.067  90.854  1.00  0.00     0.042 C 
BRANCH  27  29
HETATM   29  O   UNL     1      16.436   2.276  92.188  1.00  0.00    -0.393 OA
HETATM   30  H   UNL     1      16.677   1.755  91.403  1.00  0.00     0.210 HD
ENDBRANCH  27  29
ENDBRANCH  26  27
BRANCH  26  31
HETATM   31  C   UNL     1      15.751   4.242  93.817  1.00  0.00     0.220 C 
HETATM   32  O   UNL     1      15.649   5.467  93.847  1.00  0.00    -0.278 OA
HETATM   33  N   UNL     1      16.893   3.543  94.124  1.00  0.00    -0.271 NA
HETATM   34  H   UNL     1      17.039   2.545  94.024  1.00  0.00     0.127 HD
HETATM   35  H   UNL     1      18.093   3.471  93.398  1.00  0.00     0.127 HD
ENDBRANCH  26  31
ENDBRANCH  24  26
ENDBRANCH  19  22
ENDBRANCH  15  16
ENDBRANCH  11  14
ENDBRANCH   7   8
ENDBRANCH   2   7
TORSDOF 9
ENDMDL
MODEL 6
REMARK VINA RESULT:      -5.0      2.182     12.598
REMARK  9 active torsions:
REMARK  status: ('A' for Active; 'I' for Inactive)
REMARK    1  A    between atoms: O_2  and  C_17 
REMARK    2  A    between atoms: N_5  and  C_10 
REMARK    3  A    between atoms: N_6  and  C_14 
REMARK       I    between atoms: N_6  and  C_23 
REMARK       I    between atoms: N_7  and  C_22 
REMARK    4  A    between atoms: C_10  and  C_13 
REMARK    5  A    between atoms: C_14  and  C_17 
REMARK    6  A    between atoms: C_14  and  C_22 
REMARK    7  A    between atoms: C_20  and  C_25 
REMARK    8  A    between atoms: C_23  and  C_24 
REMARK    9  A    between atoms: C_28  and  C_31 
ROOT
HETATM    1  O   UNL     1       1.553  14.985  92.855  1.00  0.00    -0.388 OA
HETATM    2  N   UNL     1       2.903  12.754  91.712  1.00  0.00     0.096 N 
HETATM    3  C   UNL     1       3.260  14.133  91.354  1.00  0.00     0.299 C 
HETATM    4  C   UNL     1       1.484  12.683  92.091  1.00  0.00     0.299 C 
HETATM    5  C   UNL     1       2.939  15.069  92.516  1.00  0.00     0.198 C 
HETATM    6  C   UNL     1       1.205  13.653  93.234  1.00  0.00     0.198 C 
ENDROOT
BRANCH   2   7
HETATM    7  C   UNL     1       3.192  11.841  90.608  1.00  0.00     0.311 C 
BRANCH   7   8
HETATM    8  C   UNL     1       4.277  10.874  90.940  1.00  0.00    -0.030 A 
HETATM    9  C   UNL     1       4.165   9.539  90.548  1.00  0.00     0.010 A 
HETATM   10  C   UNL     1       5.178   8.633  90.860  1.00  0.00     0.021 A 
HETATM   11  C   UNL     1       6.304   9.063  91.563  1.00  0.00     0.018 A 
HETATM   12  C   UNL     1       6.417  10.395  91.955  1.00  0.00     0.021 A 
HETATM   13  C   UNL     1       5.403  11.301  91.643  1.00  0.00     0.010 A 
BRANCH  11  14
HETATM   14  C   UNL     1       7.345   8.134  91.881  1.00  0.00    -0.061 C 
HETATM   15  C   UNL     1       8.219   7.352  92.148  1.00  0.00    -0.061 C 
BRANCH  15  16
HETATM   16  C   UNL     1       9.259   6.424  92.465  1.00  0.00     0.018 A 
HETATM   17  C   UNL     1       9.751   5.566  91.481  1.00  0.00     0.022 A 
HETATM   18  C   UNL     1      10.767   4.663  91.790  1.00  0.00     0.018 A 
HETATM   19  C   UNL     1      11.270   4.638  93.074  1.00  0.00     0.032 A 
HETATM   20  C   UNL     1      10.801   5.476  94.064  1.00  0.00     0.018 A 
HETATM   21  C   UNL     1       9.784   6.380  93.756  1.00  0.00     0.022 A 
BRANCH  19  22
HETATM   22  C   UNL     1      12.352   3.674  93.404  1.00  0.00     0.252 C 
HETATM   23  O   UNL     1      12.056   2.518  93.696  1.00  0.00    -0.268 OA
HETATM   24  N   UNL     1      13.648   4.166  93.329  1.00  0.00    -0.342 N 
HETATM   25  H   UNL     1      13.817   5.127  93.055  1.00  0.00     0.163 HD
BRANCH  24  26
HETATM   26  C   UNL     1      14.804   3.348  93.595  1.00  0.00     0.199 C 
BRANCH  26  27
HETATM   27  C   UNL     1      15.077   2.326  92.484  1.00  0.00     0.145 C 
HETATM   28  C   UNL     1      14.607   2.811  91.117  1.00  0.00     0.042 C 
BRANCH  27  29
HETATM   29  O   UNL     1      16.476   2.051  92.422  1.00  0.00    -0.393 OA
HETATM   30  H   UNL     1      16.592   1.122  92.162  1.00  0.00     0.210 HD
ENDBRANCH  27  29
ENDBRANCH  26  27
BRANCH  26  31
HETATM   31  C   UNL     1      15.995   4.278  93.798  1.00  0.00     0.220 C 
HETATM   32  O   UNL     1      15.927   5.497  93.649  1.00  0.00    -0.278 OA
HETATM   33  N   UNL     1      17.140   3.592  94.124  1.00  0.00    -0.271 NA
HETATM   34  H   UNL     1      17.252   2.585  94.168  1.00  0.00     0.127 HD
HETATM   35  H   UNL     1      18.277   3.367  93.332  1.00  0.00     0.127 HD
ENDBRANCH  26  31
ENDBRANCH  24  26
ENDBRANCH  19  22
ENDBRANCH  15  16
ENDBRANCH  11  14
ENDBRANCH   7   8
ENDBRANCH   2   7
TORSDOF 9
ENDMDL
MODEL 7
REMARK VINA RESULT:      -4.9      1.711     12.427
REMARK  9 active torsions:
REMARK  status: ('A' for Active; 'I' for Inactive)
REMARK    1  A    between atoms: O_2  and  C_17 
REMARK    2  A    between atoms: N_5  and  C_10 
REMARK    3  A    between atoms: N_6  and  C_14 
REMARK       I    between atoms: N_6  and  C_23 
REMARK       I    between atoms: N_7  and  C_22 
REMARK    4  A    between atoms: C_10  and  C_13 
REMARK    5  A    between atoms: C_14  and  C_17 
REMARK    6  A    between atoms: C_14  and  C_22 
REMARK    7  A    between atoms: C_20  and  C_25 
REMARK    8  A    between atoms: C_23  and  C_24 
REMARK    9  A    between atoms: C_28  and  C_31 
ROOT
HETATM    1  O   UNL     1       2.412  13.315  92.161  1.00  0.00    -0.388 OA
HETATM    2  N   UNL     1       3.006  12.231  89.597  1.00  0.00     0.096 N 
HETATM    3  C   UNL     1       3.111  11.419  90.817  1.00  0.00     0.299 C 
HETATM    4  C   UNL     1       3.254  13.645  89.910  1.00  0.00     0.299 C 
HETATM    5  C   UNL     1       2.140  11.942  91.872  1.00  0.00     0.198 C 
HETATM    6  C   UNL     1       2.281  14.116  90.986  1.00  0.00     0.198 C 
ENDROOT
BRANCH   2   7
HETATM    7  C   UNL     1       3.936  11.754  88.576  1.00  0.00     0.311 C 
BRANCH   7   8
HETATM    8  C   UNL     1       4.922  10.776  89.118  1.00  0.00    -0.030 A 
HETATM    9  C   UNL     1       6.045  11.230  89.810  1.00  0.00     0.010 A 
HETATM   10  C   UNL     1       6.970  10.317  90.316  1.00  0.00     0.021 A 
HETATM   11  C   UNL     1       6.769   8.949  90.132  1.00  0.00     0.018 A 
HETATM   12  C   UNL     1       5.648   8.494  89.441  1.00  0.00     0.021 A 
HETATM   13  C   UNL     1       4.724   9.407  88.934  1.00  0.00     0.010 A 
BRANCH  11  14
HETATM   14  C   UNL     1       7.717   8.012  90.653  1.00  0.00    -0.061 C 
HETATM   15  C   UNL     1       8.513   7.225  91.091  1.00  0.00    -0.061 C 
BRANCH  15  16
HETATM   16  C   UNL     1       9.459   6.288  91.612  1.00  0.00     0.018 A 
HETATM   17  C   UNL     1       9.971   6.459  92.899  1.00  0.00     0.022 A 
HETATM   18  C   UNL     1      10.892   5.544  93.408  1.00  0.00     0.018 A 
HETATM   19  C   UNL     1      11.279   4.479  92.621  1.00  0.00     0.032 A 
HETATM   20  C   UNL     1      10.788   4.289  91.347  1.00  0.00     0.018 A 
HETATM   21  C   UNL     1       9.867   5.203  90.836  1.00  0.00     0.022 A 
BRANCH  19  22
HETATM   22  C   UNL     1      12.262   3.505  93.164  1.00  0.00     0.252 C 
HETATM   23  O   UNL     1      11.922   2.336  93.323  1.00  0.00    -0.268 OA
HETATM   24  N   UNL     1      13.529   4.006  93.433  1.00  0.00    -0.342 N 
HETATM   25  H   UNL     1      13.744   4.979  93.253  1.00  0.00     0.163 HD
BRANCH  24  26
HETATM   26  C   UNL     1      14.596   3.181  93.939  1.00  0.00     0.199 C 
BRANCH  26  27
HETATM   27  C   UNL     1      14.768   1.879  93.147  1.00  0.00     0.145 C 
HETATM   28  C   UNL     1      15.838   1.990  92.066  1.00  0.00     0.042 C 
BRANCH  27  29
HETATM   29  O   UNL     1      15.117   0.821  94.038  1.00  0.00    -0.393 OA
HETATM   30  H   UNL     1      15.827   0.298  93.628  1.00  0.00     0.210 HD
ENDBRANCH  27  29
ENDBRANCH  26  27
BRANCH  26  31
HETATM   31  C   UNL     1      15.875   4.013  93.923  1.00  0.00     0.220 C 
HETATM   32  O   UNL     1      15.882   5.226  93.723  1.00  0.00    -0.278 OA
HETATM   33  N   UNL     1      16.997   3.244  94.116  1.00  0.00    -0.271 NA
HETATM   34  H   UNL     1      17.035   2.235  94.194  1.00  0.00     0.127 HD
HETATM   35  H   UNL     1      17.984   2.893  93.182  1.00  0.00     0.127 HD
ENDBRANCH  26  31
ENDBRANCH  24  26
ENDBRANCH  19  22
ENDBRANCH  15  16
ENDBRANCH  11  14
ENDBRANCH   7   8
ENDBRANCH   2   7
TORSDOF 9
ENDMDL
MODEL 8
REMARK VINA RESULT:      -4.7      2.220      2.909
REMARK  9 active torsions:
REMARK  status: ('A' for Active; 'I' for Inactive)
REMARK    1  A    between atoms: O_2  and  C_17 
REMARK    2  A    between atoms: N_5  and  C_10 
REMARK    3  A    between atoms: N_6  and  C_14 
REMARK       I    between atoms: N_6  and  C_23 
REMARK       I    between atoms: N_7  and  C_22 
REMARK    4  A    between atoms: C_10  and  C_13 
REMARK    5  A    between atoms: C_14  and  C_17 
REMARK    6  A    between atoms: C_14  and  C_22 
REMARK    7  A    between atoms: C_20  and  C_25 
REMARK    8  A    between atoms: C_23  and  C_24 
REMARK    9  A    between atoms: C_28  and  C_31 
ROOT
HETATM    1  O   UNL     1      17.036   3.979  93.775  1.00  0.00    -0.388 OA
HETATM    2  N   UNL     1      14.357   3.026  93.648  1.00  0.00     0.096 N 
HETATM    3  C   UNL     1      15.497   2.159  93.318  1.00  0.00     0.299 C 
HETATM    4  C   UNL     1      14.689   4.427  93.357  1.00  0.00     0.299 C 
HETATM    5  C   UNL     1      16.734   2.617  94.085  1.00  0.00     0.198 C 
HETATM    6  C   UNL     1      15.945   4.832  94.122  1.00  0.00     0.198 C 
ENDROOT
BRANCH   2   7
HETATM    7  C   UNL     1      13.162   2.611  92.916  1.00  0.00     0.311 C 
BRANCH   7   8
HETATM    8  C   UNL     1      12.129   3.684  92.861  1.00  0.00    -0.030 A 
HETATM    9  C   UNL     1      11.657   4.258  94.042  1.00  0.00     0.010 A 
HETATM   10  C   UNL     1      10.688   5.260  93.992  1.00  0.00     0.021 A 
HETATM   11  C   UNL     1      10.194   5.690  92.761  1.00  0.00     0.018 A 
HETATM   12  C   UNL     1      10.665   5.119  91.581  1.00  0.00     0.021 A 
HETATM   13  C   UNL     1      11.633   4.115  91.630  1.00  0.00     0.010 A 
BRANCH  11  14
HETATM   14  C   UNL     1       9.202   6.720  92.710  1.00  0.00    -0.061 C 
HETATM   15  C   UNL     1       8.368   7.585  92.667  1.00  0.00    -0.061 C 
BRANCH  15  16
HETATM   16  C   UNL     1       7.377   8.614  92.617  1.00  0.00     0.018 A 
HETATM   17  C   UNL     1       7.569   9.727  91.797  1.00  0.00     0.022 A 
HETATM   18  C   UNL     1       6.600  10.729  91.746  1.00  0.00     0.018 A 
HETATM   19  C   UNL     1       5.463  10.597  92.515  1.00  0.00     0.032 A 
HETATM   20  C   UNL     1       5.250   9.508  93.334  1.00  0.00     0.018 A 
HETATM   21  C   UNL     1       6.218   8.505  93.385  1.00  0.00     0.022 A 
BRANCH  19  22
HETATM   22  C   UNL     1       4.432  11.666  92.462  1.00  0.00     0.252 C 
HETATM   23  O   UNL     1       4.183  12.206  91.387  1.00  0.00    -0.268 OA
HETATM   24  N   UNL     1       3.799  11.960  93.661  1.00  0.00    -0.342 N 
HETATM   25  H   UNL     1       4.040  11.455  94.506  1.00  0.00     0.163 HD
BRANCH  24  26
HETATM   26  C   UNL     1       2.762  12.955  93.767  1.00  0.00     0.199 C 
BRANCH  26  27
HETATM   27  C   UNL     1       3.286  14.383  93.572  1.00  0.00     0.145 C 
HETATM   28  C   UNL     1       4.695  14.568  94.124  1.00  0.00     0.042 C 
BRANCH  27  29
HETATM   29  O   UNL     1       3.287  14.705  92.181  1.00  0.00    -0.393 OA
HETATM   30  H   UNL     1       3.088  13.896  91.681  1.00  0.00     0.210 HD
ENDBRANCH  27  29
ENDBRANCH  26  27
BRANCH  26  31
HETATM   31  C   UNL     1       1.684  12.614  92.742  1.00  0.00     0.220 C 
HETATM   32  O   UNL     1       1.189  13.450  91.989  1.00  0.00    -0.278 OA
HETATM   33  N   UNL     1       1.317  11.292  92.795  1.00  0.00    -0.271 NA
HETATM   34  H   UNL     1       1.639  10.599  93.460  1.00  0.00     0.127 HD
HETATM   35  H   UNL     1       0.121  10.737  93.276  1.00  0.00     0.127 HD
ENDBRANCH  26  31
ENDBRANCH  24  26
ENDBRANCH  19  22
ENDBRANCH  15  16
ENDBRANCH  11  14
ENDBRANCH   7   8
ENDBRANCH   2   7
TORSDOF 9
ENDMDL
MODEL 9
REMARK VINA RESULT:      -4.6      2.173     12.328
REMARK  9 active torsions:
REMARK  status: ('A' for Active; 'I' for Inactive)
REMARK    1  A    between atoms: O_2  and  C_17 
REMARK    2  A    between atoms: N_5  and  C_10 
REMARK    3  A    between atoms: N_6  and  C_14 
REMARK       I    between atoms: N_6  and  C_23 
REMARK       I    between atoms: N_7  and  C_22 
REMARK    4  A    between atoms: C_10  and  C_13 
REMARK    5  A    between atoms: C_14  and  C_17 
REMARK    6  A    between atoms: C_14  and  C_22 
REMARK    7  A    between atoms: C_20  and  C_25 
REMARK    8  A    between atoms: C_23  and  C_24 
REMARK    9  A    between atoms: C_28  and  C_31 
ROOT
HETATM    1  O   UNL     1       1.723  12.254  93.664  1.00  0.00    -0.388 OA
HETATM    2  N   UNL     1       2.741  12.515  91.018  1.00  0.00     0.096 N 
HETATM    3  C   UNL     1       2.345  11.209  91.563  1.00  0.00     0.299 C 
HETATM    4  C   UNL     1       3.186  13.399  92.104  1.00  0.00     0.299 C 
HETATM    5  C   UNL     1       1.258  11.397  92.619  1.00  0.00     0.198 C 
HETATM    6  C   UNL     1       2.081  13.536  93.146  1.00  0.00     0.198 C 
ENDROOT
BRANCH   2   7
HETATM    7  C   UNL     1       3.789  12.359  90.012  1.00  0.00     0.311 C 
BRANCH   7   8
HETATM    8  C   UNL     1       4.805  11.340  90.402  1.00  0.00    -0.030 A 
HETATM    9  C   UNL     1       5.489  11.466  91.612  1.00  0.00     0.010 A 
HETATM   10  C   UNL     1       6.441  10.515  91.978  1.00  0.00     0.021 A 
HETATM   11  C   UNL     1       6.706   9.436  91.135  1.00  0.00     0.018 A 
HETATM   12  C   UNL     1       6.023   9.308  89.927  1.00  0.00     0.021 A 
HETATM   13  C   UNL     1       5.072  10.260  89.560  1.00  0.00     0.010 A 
BRANCH  11  14
HETATM   14  C   UNL     1       7.681   8.458  91.511  1.00  0.00    -0.061 C 
HETATM   15  C   UNL     1       8.500   7.637  91.828  1.00  0.00    -0.061 C 
BRANCH  15  16
HETATM   16  C   UNL     1       9.473   6.659  92.203  1.00  0.00     0.018 A 
HETATM   17  C   UNL     1      10.025   5.818  91.236  1.00  0.00     0.022 A 
HETATM   18  C   UNL     1      10.976   4.867  91.603  1.00  0.00     0.018 A 
HETATM   19  C   UNL     1      11.355   4.778  92.926  1.00  0.00     0.032 A 
HETATM   20  C   UNL     1      10.825   5.597  93.900  1.00  0.00     0.018 A 
HETATM   21  C   UNL     1       9.873   6.549  93.535  1.00  0.00     0.022 A 
BRANCH  19  22
HETATM   22  C   UNL     1      12.368   3.763  93.316  1.00  0.00     0.252 C 
HETATM   23  O   UNL     1      12.001   2.620  93.580  1.00  0.00    -0.268 OA
HETATM   24  N   UNL     1      13.687   4.193  93.327  1.00  0.00    -0.342 N 
HETATM   25  H   UNL     1      13.918   5.146  93.073  1.00  0.00     0.163 HD
BRANCH  24  26
HETATM   26  C   UNL     1      14.785   3.321  93.660  1.00  0.00     0.199 C 
BRANCH  26  27
HETATM   27  C   UNL     1      15.097   2.309  92.550  1.00  0.00     0.145 C 
HETATM   28  C   UNL     1      14.366   0.985  92.745  1.00  0.00     0.042 C 
BRANCH  27  29
HETATM   29  O   UNL     1      14.729   2.859  91.286  1.00  0.00    -0.393 OA
HETATM   30  H   UNL     1      15.504   3.315  90.915  1.00  0.00     0.210 HD
ENDBRANCH  27  29
ENDBRANCH  26  27
BRANCH  26  31
HETATM   31  C   UNL     1      15.996   4.194  93.971  1.00  0.00     0.220 C 
HETATM   32  O   UNL     1      15.937   5.420  94.043  1.00  0.00    -0.278 OA
HETATM   33  N   UNL     1      17.145   3.455  94.118  1.00  0.00    -0.271 NA
HETATM   34  H   UNL     1      17.246   2.456  93.978  1.00  0.00     0.127 HD
HETATM   35  H   UNL     1      18.243   3.368  93.249  1.00  0.00     0.127 HD
ENDBRANCH  26  31
ENDBRANCH  24  26
ENDBRANCH  19  22
ENDBRANCH  15  16
ENDBRANCH  11  14
ENDBRANCH   7   8
ENDBRANCH   2   7
TORSDOF 9
ENDMDL
