MODEL 1
REMARK VINA RESULT:      -7.6      0.000      0.000
REMARK  9 active torsions:
REMARK  status: ('A' for Active; 'I' for Inactive)
REMARK    1  A    between atoms: N_3  and  C_6 
REMARK    2  A    between atoms: C_6  and  C_9 
REMARK    3  A    between atoms: C_14  and  C_17 
REMARK       I    between atoms: N_26  and  C_15 
REMARK    4  A    between atoms: C_15  and  C_16 
REMARK    5  A    between atoms: C_20  and  C_23 
REMARK    6  A    between atoms: OG1_24  and  CB_28 
REMARK    7  A    between atoms: N_26  and  CA_27 
REMARK    8  A    between atoms: CA_27  and  CB_28 
REMARK    9  A    between atoms: CA_27  and  C_30 
ROOT
HETATM    1  O   UNK A   0       1.906   8.149  87.861  1.00  0.00    -0.388 OA
HETATM    2  N   UNK A   0       4.687   7.566  87.686  1.00  0.00     0.096 N 
HETATM    3  C   UNK A   0       4.199   8.945  87.827  1.00  0.00     0.299 C 
HETATM    4  C   UNK A   0       3.684   6.746  86.992  1.00  0.00     0.299 C 
HETATM    5  C   UNK A   0       2.862   8.947  88.563  1.00  0.00     0.198 C 
HETATM    6  C   UNK A   0       2.359   6.800  87.747  1.00  0.00     0.198 C 
ENDROOT
BRANCH   2   7
HETATM    7  C   UNK A   0       5.963   7.539  86.973  1.00  0.00     0.311 C 
BRANCH   7   8
HETATM    8  C   UNK A   0       7.055   6.933  87.787  1.00  0.00    -0.030 A 
HETATM    9  C   UNK A   0       8.283   6.636  87.194  1.00  0.00     0.010 A 
HETATM   10  C   UNK A   0       9.305   6.067  87.954  1.00  0.00     0.021 A 
HETATM   11  C   UNK A   0       9.099   5.797  89.306  1.00  0.00     0.018 A 
HETATM   12  C   UNK A   0       7.873   6.093  89.899  1.00  0.00     0.021 A 
HETATM   13  C   UNK A   0       6.851   6.662  89.140  1.00  0.00     0.010 A 
BRANCH  11  14
HETATM   14  C   UNK A   0      10.148   5.216  90.086  1.00  0.00    -0.061 C 
HETATM   15  C   UNK A   0      11.029   4.727  90.742  1.00  0.00    -0.061 C 
BRANCH  15  16
HETATM   16  C   UNK A   0      12.077   4.146  91.522  1.00  0.00     0.018 A 
HETATM   17  C   UNK A   0      13.339   3.954  90.960  1.00  0.00     0.022 A 
HETATM   18  C   UNK A   0      14.362   3.389  91.722  1.00  0.00     0.018 A 
HETATM   19  C   UNK A   0      14.100   3.030  93.028  1.00  0.00     0.032 A 
HETATM   20  C   UNK A   0      12.861   3.209  93.606  1.00  0.00     0.018 A 
HETATM   21  C   UNK A   0      11.838   3.774  92.845  1.00  0.00     0.022 A 
BRANCH  19  22
HETATM   22  C   UNK A   0      15.190   2.427  93.839  1.00  0.00     0.252 C 
HETATM   23  O   UNK A   0      16.345   2.809  93.670  1.00  0.00    -0.268 OA
ENDBRANCH  19  22
ENDBRANCH  15  16
ENDBRANCH  11  14
ENDBRANCH   7   8
ENDBRANCH   2   7
TORSDOF 9
ENDMDL
MODEL 2
REMARK VINA RESULT:      -7.5      0.064      1.426
REMARK  9 active torsions:
REMARK  status: ('A' for Active; 'I' for Inactive)
REMARK    1  A    between atoms: N_3  and  C_6 
REMARK    2  A    between atoms: C_6  and  C_9 
REMARK    3  A    between atoms: C_14  and  C_17 
REMARK       I    between atoms: N_26  and  C_15 
REMARK    4  A    between atoms: C_15  and  C_16 
REMARK    5  A    between atoms: C_20  and  C_23 
REMARK    6  A    between atoms: OG1_24  and  CB_28 
REMARK    7  A    between atoms: N_26  and  CA_27 
REMARK    8  A    between atoms: CA_27  and  CB_28 
REMARK    9  A    between atoms: CA_27  and  C_30 
ROOT
HETATM    1  O   UNK A   0       1.887   8.049  87.807  1.00  0.00    -0.388 OA
HETATM    2  N   UNK A   0       4.689   7.563  87.670  1.00  0.00     0.096 N 
HETATM    3  C   UNK A   0       4.149   8.927  87.772  1.00  0.00     0.299 C 
HETATM    4  C   UNK A   0       3.723   6.690  86.989  1.00  0.00     0.299 C 
HETATM    5  C   UNK A   0       2.806   8.898  88.496  1.00  0.00     0.198 C 
HETATM    6  C   UNK A   0       2.390   6.714  87.730  1.00  0.00     0.198 C 
ENDROOT
BRANCH   2   7
HETATM    7  C   UNK A   0       5.972   7.565  86.970  1.00  0.00     0.311 C 
BRANCH   7   8
HETATM    8  C   UNK A   0       7.064   6.958  87.784  1.00  0.00    -0.030 A 
HETATM    9  C   UNK A   0       6.835   6.629  89.120  1.00  0.00     0.010 A 
HETATM   10  C   UNK A   0       7.857   6.063  89.883  1.00  0.00     0.021 A 
HETATM   11  C   UNK A   0       9.105   5.825  89.308  1.00  0.00     0.018 A 
HETATM   12  C   UNK A   0       9.334   6.153  87.973  1.00  0.00     0.021 A 
HETATM   13  C   UNK A   0       8.313   6.720  87.211  1.00  0.00     0.010 A 
BRANCH  11  14
HETATM   14  C   UNK A   0      10.152   5.242  90.090  1.00  0.00    -0.061 C 
HETATM   15  C   UNK A   0      11.032   4.752  90.746  1.00  0.00    -0.061 C 
BRANCH  15  16
HETATM   16  C   UNK A   0      12.079   4.171  91.527  1.00  0.00     0.018 A 
HETATM   17  C   UNK A   0      11.847   3.831  92.860  1.00  0.00     0.022 A 
HETATM   18  C   UNK A   0      12.868   3.261  93.621  1.00  0.00     0.018 A 
HETATM   19  C   UNK A   0      14.096   3.043  93.032  1.00  0.00     0.032 A 
HETATM   20  C   UNK A   0      14.350   3.370  91.717  1.00  0.00     0.018 A 
HETATM   21  C   UNK A   0      13.330   3.940  90.955  1.00  0.00     0.022 A 
BRANCH  19  22
HETATM   22  C   UNK A   0      15.184   2.438  93.844  1.00  0.00     0.252 C 
HETATM   23  O   UNK A   0      16.318   2.902  93.768  1.00  0.00    -0.268 OA
ENDBRANCH  19  22
ENDBRANCH  15  16
ENDBRANCH  11  14
ENDBRANCH   7   8
ENDBRANCH   2   7
TORSDOF 9
ENDMDL
MODEL 3
REMARK VINA RESULT:      -6.9      1.492      2.279
REMARK  9 active torsions:
REMARK  status: ('A' for Active; 'I' for Inactive)
REMARK    1  A    between atoms: N_3  and  C_6 
REMARK    2  A    between atoms: C_6  and  C_9 
REMARK    3  A    between atoms: C_14  and  C_17 
REMARK       I    between atoms: N_26  and  C_15 
REMARK    4  A    between atoms: C_15  and  C_16 
REMARK    5  A    between atoms: C_20  and  C_23 
REMARK    6  A    between atoms: OG1_24  and  CB_28 
REMARK    7  A    between atoms: N_26  and  CA_27 
REMARK    8  A    between atoms: CA_27  and  CB_28 
REMARK    9  A    between atoms: CA_27  and  C_30 
ROOT
HETATM    1  O   UNK A   0       2.735  11.223  89.633  1.00  0.00    -0.388 OA
HETATM    2  N   UNK A   0       4.569   9.243  88.727  1.00  0.00     0.096 N 
HETATM    3  C   UNK A   0       3.809  10.075  87.784  1.00  0.00     0.299 C 
HETATM    4  C   UNK A   0       3.810   9.075  89.974  1.00  0.00     0.299 C 
HETATM    5  C   UNK A   0       3.479  11.419  88.429  1.00  0.00     0.198 C 
HETATM    6  C   UNK A   0       3.480  10.441  90.568  1.00  0.00     0.198 C 
ENDROOT
BRANCH   2   7
HETATM    7  C   UNK A   0       4.886   7.946  88.133  1.00  0.00     0.311 C 
BRANCH   7   8
HETATM    8  C   UNK A   0       6.101   7.327  88.737  1.00  0.00    -0.030 A 
HETATM    9  C   UNK A   0       5.980   6.180  89.523  1.00  0.00     0.010 A 
HETATM   10  C   UNK A   0       7.115   5.601  90.090  1.00  0.00     0.021 A 
HETATM   11  C   UNK A   0       8.370   6.168  89.869  1.00  0.00     0.018 A 
HETATM   12  C   UNK A   0       8.492   7.313  89.084  1.00  0.00     0.021 A 
HETATM   13  C   UNK A   0       7.357   7.892  88.517  1.00  0.00     0.010 A 
BRANCH  11  14
HETATM   14  C   UNK A   0       9.535   5.573  90.450  1.00  0.00    -0.061 C 
HETATM   15  C   UNK A   0      10.513   5.073  90.938  1.00  0.00    -0.061 C 
BRANCH  15  16
HETATM   16  C   UNK A   0      11.676   4.477  91.518  1.00  0.00     0.018 A 
HETATM   17  C   UNK A   0      11.653   4.054  92.847  1.00  0.00     0.022 A 
HETATM   18  C   UNK A   0      12.787   3.471  93.412  1.00  0.00     0.018 A 
HETATM   19  C   UNK A   0      13.917   3.323  92.636  1.00  0.00     0.032 A 
HETATM   20  C   UNK A   0      13.966   3.733  91.320  1.00  0.00     0.018 A 
HETATM   21  C   UNK A   0      12.832   4.317  90.754  1.00  0.00     0.022 A 
BRANCH  19  22
HETATM   22  C   UNK A   0      15.126   2.703  93.238  1.00  0.00     0.252 C 
HETATM   23  O   UNK A   0      16.025   3.427  93.660  1.00  0.00    -0.268 OA
ENDBRANCH  19  22
ENDBRANCH  15  16
ENDBRANCH  11  14
ENDBRANCH   7   8
ENDBRANCH   2   7
TORSDOF 9
ENDMDL
MODEL 4
REMARK VINA RESULT:      -6.6      3.912     10.472
REMARK  9 active torsions:
REMARK  status: ('A' for Active; 'I' for Inactive)
REMARK    1  A    between atoms: N_3  and  C_6 
REMARK    2  A    between atoms: C_6  and  C_9 
REMARK    3  A    between atoms: C_14  and  C_17 
REMARK       I    between atoms: N_26  and  C_15 
REMARK    4  A    between atoms: C_15  and  C_16 
REMARK    5  A    between atoms: C_20  and  C_23 
REMARK    6  A    between atoms: OG1_24  and  CB_28 
REMARK    7  A    between atoms: N_26  and  CA_27 
REMARK    8  A    between atoms: CA_27  and  CB_28 
REMARK    9  A    between atoms: CA_27  and  C_30 
ROOT
HETATM    1  O   UNK A   0      14.594   3.368  92.140  1.00  0.00    -0.388 OA
HETATM    2  N   UNK A   0      11.873   4.186  92.308  1.00  0.00     0.096 N 
HETATM    3  C   UNK A   0      12.484   3.333  93.338  1.00  0.00     0.299 C 
HETATM    4  C   UNK A   0      12.530   3.960  91.013  1.00  0.00     0.299 C 
HETATM    5  C   UNK A   0      13.984   3.604  93.411  1.00  0.00     0.198 C 
HETATM    6  C   UNK A   0      14.028   4.215  91.140  1.00  0.00     0.198 C 
ENDROOT
BRANCH   2   7
HETATM    7  C   UNK A   0      10.436   3.935  92.214  1.00  0.00     0.311 C 
BRANCH   7   8
HETATM    8  C   UNK A   0       9.661   5.176  91.927  1.00  0.00    -0.030 A 
HETATM    9  C   UNK A   0       8.636   5.154  90.981  1.00  0.00     0.010 A 
HETATM   10  C   UNK A   0       7.911   6.314  90.710  1.00  0.00     0.021 A 
HETATM   11  C   UNK A   0       8.210   7.496  91.388  1.00  0.00     0.018 A 
HETATM   12  C   UNK A   0       9.234   7.519  92.334  1.00  0.00     0.021 A 
HETATM   13  C   UNK A   0       9.959   6.359  92.604  1.00  0.00     0.010 A 
BRANCH  11  14
HETATM   14  C   UNK A   0       7.466   8.686  91.112  1.00  0.00    -0.061 C 
HETATM   15  C   UNK A   0       6.839   9.685  90.880  1.00  0.00    -0.061 C 
BRANCH  15  16
HETATM   16  C   UNK A   0       6.094  10.874  90.606  1.00  0.00     0.018 A 
HETATM   17  C   UNK A   0       5.239  11.400  91.575  1.00  0.00     0.022 A 
HETATM   18  C   UNK A   0       4.514  12.562  91.307  1.00  0.00     0.018 A 
HETATM   19  C   UNK A   0       4.661  13.171  90.079  1.00  0.00     0.032 A 
HETATM   20  C   UNK A   0       5.500  12.671  89.104  1.00  0.00     0.018 A 
HETATM   21  C   UNK A   0       6.225  11.509  89.371  1.00  0.00     0.022 A 
BRANCH  19  22
HETATM   22  C   UNK A   0       3.888  14.407  89.794  1.00  0.00     0.252 C 
HETATM   23  O   UNK A   0       4.472  15.488  89.767  1.00  0.00    -0.268 OA
ENDBRANCH  19  22
ENDBRANCH  15  16
ENDBRANCH  11  14
ENDBRANCH   7   8
ENDBRANCH   2   7
TORSDOF 9
ENDMDL
MODEL 5
REMARK VINA RESULT:      -6.6      3.920     10.443
REMARK  9 active torsions:
REMARK  status: ('A' for Active; 'I' for Inactive)
REMARK    1  A    between atoms: N_3  and  C_6 
REMARK    2  A    between atoms: C_6  and  C_9 
REMARK    3  A    between atoms: C_14  and  C_17 
REMARK       I    between atoms: N_26  and  C_15 
REMARK    4  A    between atoms: C_15  and  C_16 
REMARK    5  A    between atoms: C_20  and  C_23 
REMARK    6  A    between atoms: OG1_24  and  CB_28 
REMARK    7  A    between atoms: N_26  and  CA_27 
REMARK    8  A    between atoms: CA_27  and  CB_28 
REMARK    9  A    between atoms: CA_27  and  C_30 
ROOT
HETATM    1  O   UNK A   0      14.650   3.413  92.104  1.00  0.00    -0.388 OA
HETATM    2  N   UNK A   0      11.927   4.216  92.320  1.00  0.00     0.096 N 
HETATM    3  C   UNK A   0      12.550   3.338  93.320  1.00  0.00     0.299 C 
HETATM    4  C   UNK A   0      12.572   4.028  91.013  1.00  0.00     0.299 C 
HETATM    5  C   UNK A   0      14.051   3.613  93.386  1.00  0.00     0.198 C 
HETATM    6  C   UNK A   0      14.071   4.285  91.133  1.00  0.00     0.198 C 
ENDROOT
BRANCH   2   7
HETATM    7  C   UNK A   0      10.490   3.963  92.232  1.00  0.00     0.311 C 
BRANCH   7   8
HETATM    8  C   UNK A   0       9.712   5.200  91.937  1.00  0.00    -0.030 A 
HETATM    9  C   UNK A   0       9.929   6.355  92.690  1.00  0.00     0.010 A 
HETATM   10  C   UNK A   0       9.200   7.512  92.416  1.00  0.00     0.021 A 
HETATM   11  C   UNK A   0       8.257   7.514  91.389  1.00  0.00     0.018 A 
HETATM   12  C   UNK A   0       8.040   6.362  90.637  1.00  0.00     0.021 A 
HETATM   13  C   UNK A   0       8.768   5.204  90.911  1.00  0.00     0.010 A 
BRANCH  11  14
HETATM   14  C   UNK A   0       7.511   8.702  91.107  1.00  0.00    -0.061 C 
HETATM   15  C   UNK A   0       6.885   9.701  90.869  1.00  0.00    -0.061 C 
BRANCH  15  16
HETATM   16  C   UNK A   0       6.139  10.888  90.587  1.00  0.00     0.018 A 
HETATM   17  C   UNK A   0       6.297  11.533  89.360  1.00  0.00     0.022 A 
HETATM   18  C   UNK A   0       5.567  12.690  89.084  1.00  0.00     0.018 A 
HETATM   19  C   UNK A   0       4.697  13.173  90.038  1.00  0.00     0.032 A 
HETATM   20  C   UNK A   0       4.523  12.553  91.258  1.00  0.00     0.018 A 
HETATM   21  C   UNK A   0       5.253  11.397  91.535  1.00  0.00     0.022 A 
BRANCH  19  22
HETATM   22  C   UNK A   0       3.921  14.406  89.743  1.00  0.00     0.252 C 
HETATM   23  O   UNK A   0       4.494  15.493  89.757  1.00  0.00    -0.268 OA
ENDBRANCH  19  22
ENDBRANCH  15  16
ENDBRANCH  11  14
ENDBRANCH   7   8
ENDBRANCH   2   7
TORSDOF 9
ENDMDL
MODEL 6
REMARK VINA RESULT:      -6.4      1.820      2.504
REMARK  9 active torsions:
REMARK  status: ('A' for Active; 'I' for Inactive)
REMARK    1  A    between atoms: N_3  and  C_6 
REMARK    2  A    between atoms: C_6  and  C_9 
REMARK    3  A    between atoms: C_14  and  C_17 
REMARK       I    between atoms: N_26  and  C_15 
REMARK    4  A    between atoms: C_15  and  C_16 
REMARK    5  A    between atoms: C_20  and  C_23 
REMARK    6  A    between atoms: OG1_24  and  CB_28 
REMARK    7  A    between atoms: N_26  and  CA_27 
REMARK    8  A    between atoms: CA_27  and  CB_28 
REMARK    9  A    between atoms: CA_27  and  C_30 
ROOT
HETATM    1  O   UNK A   0       2.532   9.465  87.798  1.00  0.00    -0.388 OA
HETATM    2  N   UNK A   0       4.050   8.198  89.845  1.00  0.00     0.096 N 
HETATM    3  C   UNK A   0       2.757   7.658  89.402  1.00  0.00     0.299 C 
HETATM    4  C   UNK A   0       4.078   9.655  89.657  1.00  0.00     0.299 C 
HETATM    5  C   UNK A   0       2.507   8.044  87.947  1.00  0.00     0.198 C 
HETATM    6  C   UNK A   0       3.797   9.994  88.197  1.00  0.00     0.198 C 
ENDROOT
BRANCH   2   7
HETATM    7  C   UNK A   0       4.306   7.848  91.241  1.00  0.00     0.311 C 
BRANCH   7   8
HETATM    8  C   UNK A   0       5.642   7.214  91.433  1.00  0.00    -0.030 A 
HETATM    9  C   UNK A   0       6.205   6.453  90.407  1.00  0.00     0.010 A 
HETATM   10  C   UNK A   0       7.453   5.857  90.585  1.00  0.00     0.021 A 
HETATM   11  C   UNK A   0       8.138   6.023  91.789  1.00  0.00     0.018 A 
HETATM   12  C   UNK A   0       7.577   6.783  92.813  1.00  0.00     0.021 A 
HETATM   13  C   UNK A   0       6.328   7.378  92.635  1.00  0.00     0.010 A 
BRANCH  11  14
HETATM   14  C   UNK A   0       9.419   5.414  91.971  1.00  0.00    -0.061 C 
HETATM   15  C   UNK A   0      10.496   4.901  92.123  1.00  0.00    -0.061 C 
BRANCH  15  16
HETATM   16  C   UNK A   0      11.777   4.292  92.304  1.00  0.00     0.018 A 
HETATM   17  C   UNK A   0      12.707   4.303  91.264  1.00  0.00     0.022 A 
HETATM   18  C   UNK A   0      13.957   3.711  91.443  1.00  0.00     0.018 A 
HETATM   19  C   UNK A   0      14.250   3.123  92.655  1.00  0.00     0.032 A 
HETATM   20  C   UNK A   0      13.348   3.098  93.698  1.00  0.00     0.018 A 
HETATM   21  C   UNK A   0      12.097   3.689  93.521  1.00  0.00     0.022 A 
BRANCH  19  22
HETATM   22  C   UNK A   0      15.581   2.491  92.843  1.00  0.00     0.252 C 
HETATM   23  O   UNK A   0      16.240   2.766  93.843  1.00  0.00    -0.268 OA
ENDBRANCH  19  22
ENDBRANCH  15  16
ENDBRANCH  11  14
ENDBRANCH   7   8
ENDBRANCH   2   7
TORSDOF 9
ENDMDL
MODEL 7
REMARK VINA RESULT:      -6.3      1.570      2.219
REMARK  9 active torsions:
REMARK  status: ('A' for Active; 'I' for Inactive)
REMARK    1  A    between atoms: N_3  and  C_6 
REMARK    2  A    between atoms: C_6  and  C_9 
REMARK    3  A    between atoms: C_14  and  C_17 
REMARK       I    between atoms: N_26  and  C_15 
REMARK    4  A    between atoms: C_15  and  C_16 
REMARK    5  A    between atoms: C_20  and  C_23 
REMARK    6  A    between atoms: OG1_24  and  CB_28 
REMARK    7  A    between atoms: N_26  and  CA_27 
REMARK    8  A    between atoms: CA_27  and  CB_28 
REMARK    9  A    between atoms: CA_27  and  C_30 
ROOT
HETATM    1  O   UNK A   0       1.688   7.008  86.632  1.00  0.00    -0.388 OA
HETATM    2  N   UNK A   0       3.538   7.938  88.584  1.00  0.00     0.096 N 
HETATM    3  C   UNK A   0       2.359   8.729  88.206  1.00  0.00     0.299 C 
HETATM    4  C   UNK A   0       3.968   7.103  87.454  1.00  0.00     0.299 C 
HETATM    5  C   UNK A   0       1.243   7.799  87.735  1.00  0.00     0.198 C 
HETATM    6  C   UNK A   0       2.815   6.213  87.000  1.00  0.00     0.198 C 
ENDROOT
BRANCH   2   7
HETATM    7  C   UNK A   0       4.624   8.809  89.029  1.00  0.00     0.311 C 
BRANCH   7   8
HETATM    8  C   UNK A   0       5.768   8.044  89.604  1.00  0.00    -0.030 A 
HETATM    9  C   UNK A   0       5.534   7.061  90.566  1.00  0.00     0.010 A 
HETATM   10  C   UNK A   0       6.603   6.346  91.106  1.00  0.00     0.021 A 
HETATM   11  C   UNK A   0       7.904   6.612  90.681  1.00  0.00     0.018 A 
HETATM   12  C   UNK A   0       8.139   7.593  89.719  1.00  0.00     0.021 A 
HETATM   13  C   UNK A   0       7.070   8.309  89.180  1.00  0.00     0.010 A 
BRANCH  11  14
HETATM   14  C   UNK A   0       9.001   5.877  91.233  1.00  0.00    -0.061 C 
HETATM   15  C   UNK A   0       9.922   5.259  91.697  1.00  0.00    -0.061 C 
BRANCH  15  16
HETATM   16  C   UNK A   0      11.017   4.524  92.249  1.00  0.00     0.018 A 
HETATM   17  C   UNK A   0      11.376   4.707  93.585  1.00  0.00     0.022 A 
HETATM   18  C   UNK A   0      12.442   3.988  94.124  1.00  0.00     0.018 A 
HETATM   19  C   UNK A   0      13.125   3.102  93.317  1.00  0.00     0.032 A 
HETATM   20  C   UNK A   0      12.790   2.904  91.994  1.00  0.00     0.018 A 
HETATM   21  C   UNK A   0      11.723   3.623  91.453  1.00  0.00     0.022 A 
BRANCH  19  22
HETATM   22  C   UNK A   0      14.262   2.337  93.891  1.00  0.00     0.252 C 
HETATM   23  O   UNK A   0      14.859   1.529  93.184  1.00  0.00    -0.268 OA
ENDBRANCH  19  22
ENDBRANCH  15  16
ENDBRANCH  11  14
ENDBRANCH   7   8
ENDBRANCH   2   7
TORSDOF 9
ENDMDL
MODEL 8
REMARK VINA RESULT:      -6.2      3.132      4.222
REMARK  9 active torsions:
REMARK  status: ('A' for Active; 'I' for Inactive)
REMARK    1  A    between atoms: N_3  and  C_6 
REMARK    2  A    between atoms: C_6  and  C_9 
REMARK    3  A    between atoms: C_14  and  C_17 
REMARK       I    between atoms: N_26  and  C_15 
REMARK    4  A    between atoms: C_15  and  C_16 
REMARK    5  A    between atoms: C_20  and  C_23 
REMARK    6  A    between atoms: OG1_24  and  CB_28 
REMARK    7  A    between atoms: N_26  and  CA_27 
REMARK    8  A    between atoms: CA_27  and  CB_28 
REMARK    9  A    between atoms: CA_27  and  C_30 
ROOT
HETATM    1  O   UNK A   0       4.011  14.908  89.529  1.00  0.00    -0.388 OA
HETATM    2  N   UNK A   0       4.537  12.114  89.394  1.00  0.00     0.096 N 
HETATM    3  C   UNK A   0       5.002  13.035  88.347  1.00  0.00     0.299 C 
HETATM    4  C   UNK A   0       3.312  12.637  90.016  1.00  0.00     0.299 C 
HETATM    5  C   UNK A   0       5.220  14.425  88.940  1.00  0.00     0.198 C 
HETATM    6  C   UNK A   0       3.569  14.035  90.569  1.00  0.00     0.198 C 
ENDROOT
BRANCH   2   7
HETATM    7  C   UNK A   0       4.312  10.778  88.846  1.00  0.00     0.311 C 
BRANCH   7   8
HETATM    8  C   UNK A   0       5.378   9.814  89.242  1.00  0.00    -0.030 A 
HETATM    9  C   UNK A   0       6.150  10.059  90.378  1.00  0.00     0.010 A 
HETATM   10  C   UNK A   0       7.149   9.159  90.749  1.00  0.00     0.021 A 
HETATM   11  C   UNK A   0       7.374   8.014  89.985  1.00  0.00     0.018 A 
HETATM   12  C   UNK A   0       6.603   7.769  88.851  1.00  0.00     0.021 A 
HETATM   13  C   UNK A   0       5.604   8.669  88.479  1.00  0.00     0.010 A 
BRANCH  11  14
HETATM   14  C   UNK A   0       8.397   7.090  90.367  1.00  0.00    -0.061 C 
HETATM   15  C   UNK A   0       9.258   6.314  90.688  1.00  0.00    -0.061 C 
BRANCH  15  16
HETATM   16  C   UNK A   0      10.280   5.391  91.071  1.00  0.00     0.018 A 
HETATM   17  C   UNK A   0      10.470   5.081  92.418  1.00  0.00     0.022 A 
HETATM   18  C   UNK A   0      11.466   4.178  92.790  1.00  0.00     0.018 A 
HETATM   19  C   UNK A   0      12.247   3.605  91.809  1.00  0.00     0.032 A 
HETATM   20  C   UNK A   0      12.079   3.895  90.471  1.00  0.00     0.018 A 
HETATM   21  C   UNK A   0      11.084   4.798  90.097  1.00  0.00     0.022 A 
BRANCH  19  22
HETATM   22  C   UNK A   0      13.309   2.645  92.207  1.00  0.00     0.252 C 
HETATM   23  O   UNK A   0      14.470   3.036  92.293  1.00  0.00    -0.268 OA
ENDBRANCH  19  22
ENDBRANCH  15  16
ENDBRANCH  11  14
ENDBRANCH   7   8
ENDBRANCH   2   7
TORSDOF 9
ENDMDL
MODEL 9
REMARK VINA RESULT:      -6.1      2.789     10.443
REMARK  9 active torsions:
REMARK  status: ('A' for Active; 'I' for Inactive)
REMARK    1  A    between atoms: N_3  and  C_6 
REMARK    2  A    between atoms: C_6  and  C_9 
REMARK    3  A    between atoms: C_14  and  C_17 
REMARK       I    between atoms: N_26  and  C_15 
REMARK    4  A    between atoms: C_15  and  C_16 
REMARK    5  A    between atoms: C_20  and  C_23 
REMARK    6  A    between atoms: OG1_24  and  CB_28 
REMARK    7  A    between atoms: N_26  and  CA_27 
REMARK    8  A    between atoms: CA_27  and  CB_28 
REMARK    9  A    between atoms: CA_27  and  C_30 
ROOT
HETATM    1  O   UNK A   0      15.392   2.579  92.244  1.00  0.00    -0.388 OA
HETATM    2  N   UNK A   0      12.840   3.519  93.087  1.00  0.00     0.096 N 
HETATM    3  C   UNK A   0      13.622   4.230  92.066  1.00  0.00     0.299 C 
HETATM    4  C   UNK A   0      13.741   2.810  94.007  1.00  0.00     0.299 C 
HETATM    5  C   UNK A   0      14.523   3.246  91.326  1.00  0.00     0.198 C 
HETATM    6  C   UNK A   0      14.639   1.860  93.222  1.00  0.00     0.198 C 
ENDROOT
BRANCH   2   7
HETATM    7  C   UNK A   0      11.977   4.445  93.817  1.00  0.00     0.311 C 
BRANCH   7   8
HETATM    8  C   UNK A   0      10.766   4.828  93.036  1.00  0.00    -0.030 A 
HETATM    9  C   UNK A   0      10.305   3.997  92.014  1.00  0.00     0.010 A 
HETATM   10  C   UNK A   0       9.174   4.354  91.281  1.00  0.00     0.021 A 
HETATM   11  C   UNK A   0       8.502   5.542  91.572  1.00  0.00     0.018 A 
HETATM   12  C   UNK A   0       8.961   6.372  92.592  1.00  0.00     0.021 A 
HETATM   13  C   UNK A   0      10.093   6.015  93.325  1.00  0.00     0.010 A 
BRANCH  11  14
HETATM   14  C   UNK A   0       7.340   5.907  90.821  1.00  0.00    -0.061 C 
HETATM   15  C   UNK A   0       6.364   6.214  90.191  1.00  0.00    -0.061 C 
BRANCH  15  16
HETATM   16  C   UNK A   0       5.202   6.579  89.441  1.00  0.00     0.018 A 
HETATM   17  C   UNK A   0       4.049   7.000  90.105  1.00  0.00     0.022 A 
HETATM   18  C   UNK A   0       2.917   7.358  89.373  1.00  0.00     0.018 A 
HETATM   19  C   UNK A   0       2.963   7.288  87.996  1.00  0.00     0.032 A 
HETATM   20  C   UNK A   0       4.090   6.875  87.317  1.00  0.00     0.018 A 
HETATM   21  C   UNK A   0       5.223   6.516  88.048  1.00  0.00     0.022 A 
BRANCH  19  22
HETATM   22  C   UNK A   0       1.756   7.668  87.218  1.00  0.00     0.252 C 
HETATM   23  O   UNK A   0       1.241   6.843  86.467  1.00  0.00    -0.268 OA
ENDBRANCH  19  22
ENDBRANCH  15  16
ENDBRANCH  11  14
ENDBRANCH   7   8
ENDBRANCH   2   7
TORSDOF 9
ENDMDL
