MODEL 1
REMARK VINA RESULT:      -6.6      0.000      0.000
REMARK  11 active torsions:
REMARK  status: ('A' for Active; 'I' for Inactive)
REMARK    1  A    between atoms: O_2  and  C_18 
REMARK    2  A    between atoms: O_5  and  P_8 
REMARK    3  A    between atoms: N_6  and  C_11 
REMARK    4  A    between atoms: N_7  and  C_15 
REMARK       I    between atoms: N_7  and  C_24 
REMARK    5  A    between atoms: P_8  and  C_23 
REMARK    6  A    between atoms: C_11  and  C_14 
REMARK    7  A    between atoms: C_15  and  C_18 
REMARK    8  A    between atoms: C_15  and  C_23 
REMARK    9  A    between atoms: C_21  and  C_26 
REMARK   10  A    between atoms: C_24  and  C_25 
REMARK   11  A    between atoms: C_29  and  C_32 
ROOT
HETATM    1  O   UNL     1      17.088   4.201  93.868  1.00  0.00     0.000 OA
HETATM    2  N   UNL     1      14.618   2.909  93.293  1.00  0.00     0.000 N 
HETATM    3  C   UNL     1      15.903   2.218  93.123  1.00  0.00     0.000 C 
HETATM    4  C   UNL     1      14.793   4.355  93.096  1.00  0.00     0.000 C 
HETATM    5  C   UNL     1      16.933   2.798  94.090  1.00  0.00     0.000 C 
HETATM    6  C   UNL     1      15.849   4.884  94.061  1.00  0.00     0.000 C 
ENDROOT
BRANCH   2   7
HETATM    7  C   UNL     1      13.618   2.376  92.369  1.00  0.00     0.000 C 
BRANCH   7   8
HETATM    8  C   UNL     1      12.524   3.351  92.091  1.00  0.00     0.000 A 
HETATM    9  C   UNL     1      12.326   3.824  90.794  1.00  0.00     0.000 A 
HETATM   10  C   UNL     1      11.305   4.738  90.533  1.00  0.00     0.000 A 
HETATM   11  C   UNL     1      10.481   5.175  91.570  1.00  0.00     0.000 A 
HETATM   12  C   UNL     1      10.677   4.702  92.866  1.00  0.00     0.000 A 
HETATM   13  C   UNL     1      11.699   3.789  93.127  1.00  0.00     0.000 A 
BRANCH  11  14
HETATM   14  C   UNL     1       9.432   6.110  91.302  1.00  0.00     0.000 C 
HETATM   15  C   UNL     1       8.550   6.895  91.077  1.00  0.00     0.000 C 
BRANCH  15  16
HETATM   16  C   UNL     1       7.501   7.830  90.811  1.00  0.00     0.000 A 
HETATM   17  C   UNL     1       6.935   7.897  89.537  1.00  0.00     0.000 A 
HETATM   18  C   UNL     1       5.910   8.807  89.278  1.00  0.00     0.000 A 
HETATM   19  C   UNL     1       5.473   9.627  90.297  1.00  0.00     0.000 A 
HETATM   20  C   UNL     1       6.016   9.580  91.564  1.00  0.00     0.000 A 
HETATM   21  C   UNL     1       7.042   8.671  91.824  1.00  0.00     0.000 A 
BRANCH  19  22
HETATM   22  C   UNL     1       4.383  10.598  90.019  1.00  0.00     0.000 C 
HETATM   23  O   UNL     1       3.301  10.183  89.611  1.00  0.00     0.000 OA
HETATM   24  N   UNL     1       4.675  11.930  90.274  1.00  0.00     0.000 N 
HETATM   25  HN  UNL     1       5.584  12.196  90.635  1.00  0.00     0.000 HD
BRANCH  24  26
HETATM   26  C   UNL     1       3.715  12.986  90.079  1.00  0.00     0.000 C 
BRANCH  26  27
HETATM   27  C   UNL     1       3.101  13.482  91.394  1.00  0.00     0.000 C 
HETATM   28  C   UNL     1       2.115  12.484  91.991  1.00  0.00     0.000 C 
BRANCH  27  29
HETATM   29  O   UNL     1       4.139  13.730  92.341  1.00  0.00     0.000 OA
HETATM   30  H   UNL     1       3.729  14.005  93.178  1.00  0.00     0.000 HD
ENDBRANCH  27  29
ENDBRANCH  26  27
BRANCH  26  31
HETATM   31  C   UNL     1       4.412  14.118  89.331  1.00  0.00     0.000 C 
HETATM   32  O   UNL     1       4.227  15.306  89.590  1.00  0.00     0.000 OA
BRANCH  31  33
HETATM   33  P   UNL     1       5.226  13.653  88.327  1.00  0.00     0.000 P 
HETATM   34  H   UNL     1       6.002  14.706  87.889  1.00  0.00     0.000 HD
BRANCH  33  35
HETATM   35  O   UNL     1       4.571  13.110  87.213  1.00  0.00     0.000 OA
HETATM   36  H   UNL     1       4.254  13.922  86.784  1.00  0.00     0.000 HD
ENDBRANCH  33  35
ENDBRANCH  31  33
ENDBRANCH  26  31
ENDBRANCH  24  26
ENDBRANCH  19  22
ENDBRANCH  15  16
ENDBRANCH  11  14
ENDBRANCH   7   8
ENDBRANCH   2   7
TORSDOF 11
ENDMDL
MODEL 2
REMARK VINA RESULT:      -6.4      1.767      2.927
REMARK  11 active torsions:
REMARK  status: ('A' for Active; 'I' for Inactive)
REMARK    1  A    between atoms: O_2  and  C_18 
REMARK    2  A    between atoms: O_5  and  P_8 
REMARK    3  A    between atoms: N_6  and  C_11 
REMARK    4  A    between atoms: N_7  and  C_15 
REMARK       I    between atoms: N_7  and  C_24 
REMARK    5  A    between atoms: P_8  and  C_23 
REMARK    6  A    between atoms: C_11  and  C_14 
REMARK    7  A    between atoms: C_15  and  C_18 
REMARK    8  A    between atoms: C_15  and  C_23 
REMARK    9  A    between atoms: C_21  and  C_26 
REMARK   10  A    between atoms: C_24  and  C_25 
REMARK   11  A    between atoms: C_29  and  C_32 
ROOT
HETATM    1  O   UNL     1      16.250   3.973  94.124  1.00  0.00     0.000 OA
HETATM    2  N   UNL     1      14.244   2.707  92.550  1.00  0.00     0.000 N 
HETATM    3  C   UNL     1      14.370   4.170  92.603  1.00  0.00     0.000 C 
HETATM    4  C   UNL     1      14.722   2.116  93.808  1.00  0.00     0.000 C 
HETATM    5  C   UNL     1      15.818   4.555  92.893  1.00  0.00     0.000 C 
HETATM    6  C   UNL     1      16.161   2.548  94.070  1.00  0.00     0.000 C 
ENDROOT
BRANCH   2   7
HETATM    7  C   UNL     1      12.861   2.315  92.284  1.00  0.00     0.000 C 
BRANCH   7   8
HETATM    8  C   UNL     1      11.923   3.472  92.338  1.00  0.00     0.000 A 
HETATM    9  C   UNL     1      11.742   4.167  93.534  1.00  0.00     0.000 A 
HETATM   10  C   UNL     1      10.862   5.248  93.586  1.00  0.00     0.000 A 
HETATM   11  C   UNL     1      10.166   5.635  92.442  1.00  0.00     0.000 A 
HETATM   12  C   UNL     1      10.347   4.942  91.246  1.00  0.00     0.000 A 
HETATM   13  C   UNL     1      11.225   3.861  91.194  1.00  0.00     0.000 A 
BRANCH  11  14
HETATM   14  C   UNL     1       9.266   6.746  92.495  1.00  0.00     0.000 C 
HETATM   15  C   UNL     1       8.508   7.679  92.540  1.00  0.00     0.000 C 
BRANCH  15  16
HETATM   16  C   UNL     1       7.609   8.789  92.594  1.00  0.00     0.000 A 
HETATM   17  C   UNL     1       6.833   9.111  91.480  1.00  0.00     0.000 A 
HETATM   18  C   UNL     1       5.954  10.192  91.534  1.00  0.00     0.000 A 
HETATM   19  C   UNL     1       5.868  10.925  92.699  1.00  0.00     0.000 A 
HETATM   20  C   UNL     1       6.624  10.626  93.813  1.00  0.00     0.000 A 
HETATM   21  C   UNL     1       7.504   9.546  93.761  1.00  0.00     0.000 A 
BRANCH  19  22
HETATM   22  C   UNL     1       4.932  12.078  92.755  1.00  0.00     0.000 C 
HETATM   23  O   UNL     1       4.667  12.583  93.843  1.00  0.00     0.000 OA
HETATM   24  N   UNL     1       4.438  12.519  91.536  1.00  0.00     0.000 N 
HETATM   25  HN  UNL     1       4.721  12.069  90.674  1.00  0.00     0.000 HD
BRANCH  24  26
HETATM   26  C   UNL     1       3.540  13.641  91.423  1.00  0.00     0.000 C 
BRANCH  26  27
HETATM   27  C   UNL     1       3.533  14.256  90.018  1.00  0.00     0.000 C 
HETATM   28  C   UNL     1       4.932  14.612  89.529  1.00  0.00     0.000 C 
BRANCH  27  29
HETATM   29  O   UNL     1       2.939  13.340  89.099  1.00  0.00     0.000 OA
HETATM   30  H   UNL     1       2.004  13.582  88.987  1.00  0.00     0.000 HD
ENDBRANCH  27  29
ENDBRANCH  26  27
BRANCH  26  31
HETATM   31  C   UNL     1       2.149  13.166  91.828  1.00  0.00     0.000 C 
HETATM   32  O   UNL     1       1.700  12.065  91.516  1.00  0.00     0.000 OA
BRANCH  31  33
HETATM   33  P   UNL     1       1.460  14.121  92.537  1.00  0.00     0.000 P 
HETATM   34  H   UNL     1       0.603  14.760  91.664  1.00  0.00     0.000 HD
BRANCH  33  35
HETATM   35  O   UNL     1       2.245  15.100  93.163  1.00  0.00     0.000 OA
HETATM   36  H   UNL     1       1.767  15.194  94.005  1.00  0.00     0.000 HD
ENDBRANCH  33  35
ENDBRANCH  31  33
ENDBRANCH  26  31
ENDBRANCH  24  26
ENDBRANCH  19  22
ENDBRANCH  15  16
ENDBRANCH  11  14
ENDBRANCH   7   8
ENDBRANCH   2   7
TORSDOF 11
ENDMDL
MODEL 3
REMARK VINA RESULT:      -5.9      1.354      1.775
REMARK  11 active torsions:
REMARK  status: ('A' for Active; 'I' for Inactive)
REMARK    1  A    between atoms: O_2  and  C_18 
REMARK    2  A    between atoms: O_5  and  P_8 
REMARK    3  A    between atoms: N_6  and  C_11 
REMARK    4  A    between atoms: N_7  and  C_15 
REMARK       I    between atoms: N_7  and  C_24 
REMARK    5  A    between atoms: P_8  and  C_23 
REMARK    6  A    between atoms: C_11  and  C_14 
REMARK    7  A    between atoms: C_15  and  C_18 
REMARK    8  A    between atoms: C_15  and  C_23 
REMARK    9  A    between atoms: C_21  and  C_26 
REMARK   10  A    between atoms: C_24  and  C_25 
REMARK   11  A    between atoms: C_29  and  C_32 
ROOT
HETATM    1  O   UNL     1      16.389   2.933  93.972  1.00  0.00     0.000 OA
HETATM    2  N   UNL     1      13.887   2.965  92.616  1.00  0.00     0.000 N 
HETATM    3  C   UNL     1      14.605   1.709  92.871  1.00  0.00     0.000 C 
HETATM    4  C   UNL     1      14.842   4.076  92.495  1.00  0.00     0.000 C 
HETATM    5  C   UNL     1      15.466   1.852  94.124  1.00  0.00     0.000 C 
HETATM    6  C   UNL     1      15.697   4.163  93.754  1.00  0.00     0.000 C 
ENDROOT
BRANCH   2   7
HETATM    7  C   UNL     1      13.063   2.855  91.413  1.00  0.00     0.000 C 
BRANCH   7   8
HETATM    8  C   UNL     1      11.951   3.848  91.393  1.00  0.00     0.000 A 
HETATM    9  C   UNL     1      11.418   4.321  92.593  1.00  0.00     0.000 A 
HETATM   10  C   UNL     1      10.376   5.248  92.576  1.00  0.00     0.000 A 
HETATM   11  C   UNL     1       9.870   5.703  91.359  1.00  0.00     0.000 A 
HETATM   12  C   UNL     1      10.402   5.232  90.160  1.00  0.00     0.000 A 
HETATM   13  C   UNL     1      11.443   4.304  90.177  1.00  0.00     0.000 A 
BRANCH  11  14
HETATM   14  C   UNL     1       8.803   6.656  91.341  1.00  0.00     0.000 C 
HETATM   15  C   UNL     1       7.906   7.457  91.326  1.00  0.00     0.000 C 
BRANCH  15  16
HETATM   16  C   UNL     1       6.840   8.409  91.310  1.00  0.00     0.000 A 
HETATM   17  C   UNL     1       5.539   7.993  91.024  1.00  0.00     0.000 A 
HETATM   18  C   UNL     1       4.498   8.922  91.010  1.00  0.00     0.000 A 
HETATM   19  C   UNL     1       4.781  10.244  91.283  1.00  0.00     0.000 A 
HETATM   20  C   UNL     1       6.058  10.680  91.568  1.00  0.00     0.000 A 
HETATM   21  C   UNL     1       7.100   9.752  91.582  1.00  0.00     0.000 A 
BRANCH  19  22
HETATM   22  C   UNL     1       3.673  11.234  91.266  1.00  0.00     0.000 C 
HETATM   23  O   UNL     1       2.545  10.866  90.945  1.00  0.00     0.000 OA
HETATM   24  N   UNL     1       4.005  12.525  91.650  1.00  0.00     0.000 N 
HETATM   25  HN  UNL     1       4.953  12.750  91.927  1.00  0.00     0.000 HD
BRANCH  24  26
HETATM   26  C   UNL     1       3.036  13.590  91.709  1.00  0.00     0.000 C 
BRANCH  26  27
HETATM   27  C   UNL     1       3.184  14.458  92.965  1.00  0.00     0.000 C 
HETATM   28  C   UNL     1       1.911  14.491  93.804  1.00  0.00     0.000 C 
BRANCH  27  29
HETATM   29  O   UNL     1       4.255  13.961  93.766  1.00  0.00     0.000 OA
HETATM   30  H   UNL     1       4.294  12.996  93.657  1.00  0.00     0.000 HD
ENDBRANCH  27  29
ENDBRANCH  26  27
BRANCH  26  31
HETATM   31  C   UNL     1       3.182  14.423  90.439  1.00  0.00     0.000 C 
HETATM   32  O   UNL     1       2.320  14.465  89.563  1.00  0.00     0.000 OA
BRANCH  31  33
HETATM   33  P   UNL     1       4.390  15.075  90.382  1.00  0.00     0.000 P 
HETATM   34  H   UNL     1       4.140  16.408  90.129  1.00  0.00     0.000 HD
BRANCH  33  35
HETATM   35  O   UNL     1       5.286  14.614  89.407  1.00  0.00     0.000 OA
HETATM   36  H   UNL     1       4.784  14.814  88.599  1.00  0.00     0.000 HD
ENDBRANCH  33  35
ENDBRANCH  31  33
ENDBRANCH  26  31
ENDBRANCH  24  26
ENDBRANCH  19  22
ENDBRANCH  15  16
ENDBRANCH  11  14
ENDBRANCH   7   8
ENDBRANCH   2   7
TORSDOF 11
ENDMDL
MODEL 4
REMARK VINA RESULT:      -5.7      1.681      2.124
REMARK  11 active torsions:
REMARK  status: ('A' for Active; 'I' for Inactive)
REMARK    1  A    between atoms: O_2  and  C_18 
REMARK    2  A    between atoms: O_5  and  P_8 
REMARK    3  A    between atoms: N_6  and  C_11 
REMARK    4  A    between atoms: N_7  and  C_15 
REMARK       I    between atoms: N_7  and  C_24 
REMARK    5  A    between atoms: P_8  and  C_23 
REMARK    6  A    between atoms: C_11  and  C_14 
REMARK    7  A    between atoms: C_15  and  C_18 
REMARK    8  A    between atoms: C_15  and  C_23 
REMARK    9  A    between atoms: C_21  and  C_26 
REMARK   10  A    between atoms: C_24  and  C_25 
REMARK   11  A    between atoms: C_29  and  C_32 
ROOT
HETATM    1  O   UNL     1      16.423   3.977  94.077  1.00  0.00     0.000 OA
HETATM    2  N   UNL     1      14.467   2.563  92.567  1.00  0.00     0.000 N 
HETATM    3  C   UNL     1      14.563   4.029  92.518  1.00  0.00     0.000 C 
HETATM    4  C   UNL     1      14.936   2.071  93.869  1.00  0.00     0.000 C 
HETATM    5  C   UNL     1      15.999   4.463  92.802  1.00  0.00     0.000 C 
HETATM    6  C   UNL     1      16.362   2.551  94.121  1.00  0.00     0.000 C 
ENDROOT
BRANCH   2   7
HETATM    7  C   UNL     1      13.096   2.125  92.309  1.00  0.00     0.000 C 
BRANCH   7   8
HETATM    8  C   UNL     1      12.121   3.251  92.364  1.00  0.00     0.000 A 
HETATM    9  C   UNL     1      11.498   3.691  91.195  1.00  0.00     0.000 A 
HETATM   10  C   UNL     1      10.586   4.745  91.245  1.00  0.00     0.000 A 
HETATM   11  C   UNL     1      10.297   5.358  92.464  1.00  0.00     0.000 A 
HETATM   12  C   UNL     1      10.918   4.920  93.631  1.00  0.00     0.000 A 
HETATM   13  C   UNL     1      11.830   3.866  93.582  1.00  0.00     0.000 A 
BRANCH  11  14
HETATM   14  C   UNL     1       9.360   6.438  92.515  1.00  0.00     0.000 C 
HETATM   15  C   UNL     1       8.573   7.346  92.557  1.00  0.00     0.000 C 
BRANCH  15  16
HETATM   16  C   UNL     1       7.636   8.425  92.608  1.00  0.00     0.000 A 
HETATM   17  C   UNL     1       6.280   8.161  92.801  1.00  0.00     0.000 A 
HETATM   18  C   UNL     1       5.366   9.214  92.853  1.00  0.00     0.000 A 
HETATM   19  C   UNL     1       5.829  10.506  92.713  1.00  0.00     0.000 A 
HETATM   20  C   UNL     1       7.165  10.792  92.521  1.00  0.00     0.000 A 
HETATM   21  C   UNL     1       8.079   9.740  92.468  1.00  0.00     0.000 A 
BRANCH  19  22
HETATM   22  C   UNL     1       4.856  11.627  92.767  1.00  0.00     0.000 C 
HETATM   23  O   UNL     1       4.384  11.960  93.851  1.00  0.00     0.000 OA
HETATM   24  N   UNL     1       4.568  12.241  91.556  1.00  0.00     0.000 N 
HETATM   25  HN  UNL     1       5.016  11.928  90.703  1.00  0.00     0.000 HD
BRANCH  24  26
HETATM   26  C   UNL     1       3.663  13.357  91.448  1.00  0.00     0.000 C 
BRANCH  26  27
HETATM   27  C   UNL     1       4.287  14.675  91.922  1.00  0.00     0.000 C 
HETATM   28  C   UNL     1       4.819  15.518  90.768  1.00  0.00     0.000 C 
BRANCH  27  29
HETATM   29  O   UNL     1       3.313  15.434  92.639  1.00  0.00     0.000 OA
HETATM   30  H   UNL     1       3.739  16.243  92.968  1.00  0.00     0.000 HD
ENDBRANCH  27  29
ENDBRANCH  26  27
BRANCH  26  31
HETATM   31  C   UNL     1       3.209  13.450  89.995  1.00  0.00     0.000 C 
HETATM   32  O   UNL     1       2.377  14.266  89.604  1.00  0.00     0.000 OA
BRANCH  31  33
HETATM   33  P   UNL     1       3.806  12.499  89.203  1.00  0.00     0.000 P 
HETATM   34  H   UNL     1       5.070  12.264  89.704  1.00  0.00     0.000 HD
BRANCH  33  35
HETATM   35  O   UNL     1       3.936  12.829  87.846  1.00  0.00     0.000 OA
HETATM   36  H   UNL     1       3.842  13.796  87.892  1.00  0.00     0.000 HD
ENDBRANCH  33  35
ENDBRANCH  31  33
ENDBRANCH  26  31
ENDBRANCH  24  26
ENDBRANCH  19  22
ENDBRANCH  15  16
ENDBRANCH  11  14
ENDBRANCH   7   8
ENDBRANCH   2   7
TORSDOF 11
ENDMDL
MODEL 5
REMARK VINA RESULT:      -5.3      1.715      2.505
REMARK  11 active torsions:
REMARK  status: ('A' for Active; 'I' for Inactive)
REMARK    1  A    between atoms: O_2  and  C_18 
REMARK    2  A    between atoms: O_5  and  P_8 
REMARK    3  A    between atoms: N_6  and  C_11 
REMARK    4  A    between atoms: N_7  and  C_15 
REMARK       I    between atoms: N_7  and  C_24 
REMARK    5  A    between atoms: P_8  and  C_23 
REMARK    6  A    between atoms: C_11  and  C_14 
REMARK    7  A    between atoms: C_15  and  C_18 
REMARK    8  A    between atoms: C_15  and  C_23 
REMARK    9  A    between atoms: C_21  and  C_26 
REMARK   10  A    between atoms: C_24  and  C_25 
REMARK   11  A    between atoms: C_29  and  C_32 
ROOT
HETATM    1  O   UNL     1      15.614   4.284  93.649  1.00  0.00     0.000 OA
HETATM    2  N   UNL     1      13.777   2.585  92.291  1.00  0.00     0.000 N 
HETATM    3  C   UNL     1      13.975   3.984  91.885  1.00  0.00     0.000 C 
HETATM    4  C   UNL     1      14.044   2.437  93.729  1.00  0.00     0.000 C 
HETATM    5  C   UNL     1      15.389   4.432  92.246  1.00  0.00     0.000 C 
HETATM    6  C   UNL     1      15.454   2.922  94.047  1.00  0.00     0.000 C 
ENDROOT
BRANCH   2   7
HETATM    7  C   UNL     1      12.425   2.137  91.964  1.00  0.00     0.000 C 
BRANCH   7   8
HETATM    8  C   UNL     1      11.465   3.271  91.843  1.00  0.00     0.000 A 
HETATM    9  C   UNL     1      10.937   3.606  90.596  1.00  0.00     0.000 A 
HETATM   10  C   UNL     1      10.040   4.668  90.481  1.00  0.00     0.000 A 
HETATM   11  C   UNL     1       9.670   5.393  91.613  1.00  0.00     0.000 A 
HETATM   12  C   UNL     1      10.196   5.058  92.859  1.00  0.00     0.000 A 
HETATM   13  C   UNL     1      11.094   3.997  92.975  1.00  0.00     0.000 A 
BRANCH  11  14
HETATM   14  C   UNL     1       8.748   6.481  91.496  1.00  0.00     0.000 C 
HETATM   15  C   UNL     1       7.973   7.395  91.397  1.00  0.00     0.000 C 
BRANCH  15  16
HETATM   16  C   UNL     1       7.052   8.482  91.281  1.00  0.00     0.000 A 
HETATM   17  C   UNL     1       5.867   8.317  90.563  1.00  0.00     0.000 A 
HETATM   18  C   UNL     1       4.968   9.377  90.452  1.00  0.00     0.000 A 
HETATM   19  C   UNL     1       5.273  10.577  91.060  1.00  0.00     0.000 A 
HETATM   20  C   UNL     1       6.437  10.765  91.774  1.00  0.00     0.000 A 
HETATM   21  C   UNL     1       7.338   9.706  91.886  1.00  0.00     0.000 A 
BRANCH  19  22
HETATM   22  C   UNL     1       4.315  11.707  90.939  1.00  0.00     0.000 C 
HETATM   23  O   UNL     1       3.251  11.531  90.350  1.00  0.00     0.000 OA
HETATM   24  N   UNL     1       4.700  12.897  91.540  1.00  0.00     0.000 N 
HETATM   25  HN  UNL     1       5.584  12.961  92.031  1.00  0.00     0.000 HD
BRANCH  24  26
HETATM   26  C   UNL     1       3.870  14.075  91.530  1.00  0.00     0.000 C 
BRANCH  26  27
HETATM   27  C   UNL     1       3.676  14.653  90.122  1.00  0.00     0.000 C 
HETATM   28  C   UNL     1       4.999  14.917  89.412  1.00  0.00     0.000 C 
BRANCH  27  29
HETATM   29  O   UNL     1       2.902  13.747  89.337  1.00  0.00     0.000 OA
HETATM   30  H   UNL     1       3.407  12.922  89.236  1.00  0.00     0.000 HD
ENDBRANCH  27  29
ENDBRANCH  26  27
BRANCH  26  31
HETATM   31  C   UNL     1       2.534  13.708  92.168  1.00  0.00     0.000 C 
HETATM   32  O   UNL     1       1.469  13.737  91.554  1.00  0.00     0.000 OA
BRANCH  31  33
HETATM   33  P   UNL     1       2.664  13.387  93.497  1.00  0.00     0.000 P 
HETATM   34  H   UNL     1       3.813  13.991  93.968  1.00  0.00     0.000 HD
BRANCH  33  35
HETATM   35  O   UNL     1       2.747  12.019  93.789  1.00  0.00     0.000 OA
HETATM   36  H   UNL     1       1.869  11.724  93.494  1.00  0.00     0.000 HD
ENDBRANCH  33  35
ENDBRANCH  31  33
ENDBRANCH  26  31
ENDBRANCH  24  26
ENDBRANCH  19  22
ENDBRANCH  15  16
ENDBRANCH  11  14
ENDBRANCH   7   8
ENDBRANCH   2   7
TORSDOF 11
ENDMDL
MODEL 6
REMARK VINA RESULT:      -4.3      3.607     12.313
REMARK  11 active torsions:
REMARK  status: ('A' for Active; 'I' for Inactive)
REMARK    1  A    between atoms: O_2  and  C_18 
REMARK    2  A    between atoms: O_5  and  P_8 
REMARK    3  A    between atoms: N_6  and  C_11 
REMARK    4  A    between atoms: N_7  and  C_15 
REMARK       I    between atoms: N_7  and  C_24 
REMARK    5  A    between atoms: P_8  and  C_23 
REMARK    6  A    between atoms: C_11  and  C_14 
REMARK    7  A    between atoms: C_15  and  C_18 
REMARK    8  A    between atoms: C_15  and  C_23 
REMARK    9  A    between atoms: C_21  and  C_26 
REMARK   10  A    between atoms: C_24  and  C_25 
REMARK   11  A    between atoms: C_29  and  C_32 
ROOT
HETATM    1  O   UNL     1       2.097  13.808  94.124  1.00  0.00     0.000 OA
HETATM    2  N   UNL     1       2.089  13.457  91.299  1.00  0.00     0.000 N 
HETATM    3  C   UNL     1       2.340  12.333  92.212  1.00  0.00     0.000 C 
HETATM    4  C   UNL     1       2.531  14.715  91.916  1.00  0.00     0.000 C 
HETATM    5  C   UNL     1       1.640  12.584  93.546  1.00  0.00     0.000 C 
HETATM    6  C   UNL     1       1.828  14.910  93.256  1.00  0.00     0.000 C 
ENDROOT
BRANCH   2   7
HETATM    7  C   UNL     1       2.759  13.243  90.018  1.00  0.00     0.000 C 
BRANCH   7   8
HETATM    8  C   UNL     1       3.734  12.116  90.069  1.00  0.00     0.000 A 
HETATM    9  C   UNL     1       3.300  10.808  89.852  1.00  0.00     0.000 A 
HETATM   10  C   UNL     1       4.211   9.753  89.901  1.00  0.00     0.000 A 
HETATM   11  C   UNL     1       5.556  10.007  90.165  1.00  0.00     0.000 A 
HETATM   12  C   UNL     1       5.992  11.313  90.382  1.00  0.00     0.000 A 
HETATM   13  C   UNL     1       5.081  12.368  90.333  1.00  0.00     0.000 A 
BRANCH  11  14
HETATM   14  C   UNL     1       6.491   8.925  90.214  1.00  0.00     0.000 C 
HETATM   15  C   UNL     1       7.276   8.015  90.255  1.00  0.00     0.000 C 
BRANCH  15  16
HETATM   16  C   UNL     1       8.210   6.934  90.303  1.00  0.00     0.000 A 
HETATM   17  C   UNL     1       9.195   6.820  89.323  1.00  0.00     0.000 A 
HETATM   18  C   UNL     1      10.107   5.766  89.372  1.00  0.00     0.000 A 
HETATM   19  C   UNL     1      10.014   4.851  90.399  1.00  0.00     0.000 A 
HETATM   20  C   UNL     1       9.049   4.941  91.381  1.00  0.00     0.000 A 
HETATM   21  C   UNL     1       8.136   5.995  91.332  1.00  0.00     0.000 A 
BRANCH  19  22
HETATM   22  C   UNL     1      10.985   3.727  90.450  1.00  0.00     0.000 C 
HETATM   23  O   UNL     1      10.897   2.820  89.626  1.00  0.00     0.000 OA
HETATM   24  N   UNL     1      11.957   3.807  91.438  1.00  0.00     0.000 N 
HETATM   25  HN  UNL     1      11.983   4.599  92.069  1.00  0.00     0.000 HD
BRANCH  24  26
HETATM   26  C   UNL     1      12.982   2.808  91.600  1.00  0.00     0.000 C 
BRANCH  26  27
HETATM   27  C   UNL     1      14.328   3.237  91.003  1.00  0.00     0.000 C 
HETATM   28  C   UNL     1      14.400   4.738  90.744  1.00  0.00     0.000 C 
BRANCH  27  29
HETATM   29  O   UNL     1      15.383   2.870  91.892  1.00  0.00     0.000 OA
HETATM   30  H   UNL     1      16.205   3.281  91.576  1.00  0.00     0.000 HD
ENDBRANCH  27  29
ENDBRANCH  26  27
BRANCH  26  31
HETATM   31  C   UNL     1      13.107   2.505  93.090  1.00  0.00     0.000 C 
HETATM   32  O   UNL     1      13.776   1.572  93.530  1.00  0.00     0.000 OA
BRANCH  31  33
HETATM   33  P   UNL     1      12.362   3.366  93.858  1.00  0.00     0.000 P 
HETATM   34  H   UNL     1      11.099   3.441  93.306  1.00  0.00     0.000 HD
BRANCH  33  35
HETATM   35  O   UNL     1      12.860   4.672  93.970  1.00  0.00     0.000 OA
HETATM   36  H   UNL     1      13.536   4.542  94.656  1.00  0.00     0.000 HD
ENDBRANCH  33  35
ENDBRANCH  31  33
ENDBRANCH  26  31
ENDBRANCH  24  26
ENDBRANCH  19  22
ENDBRANCH  15  16
ENDBRANCH  11  14
ENDBRANCH   7   8
ENDBRANCH   2   7
TORSDOF 11
ENDMDL
MODEL 7
REMARK VINA RESULT:      -4.1      3.629     12.511
REMARK  11 active torsions:
REMARK  status: ('A' for Active; 'I' for Inactive)
REMARK    1  A    between atoms: O_2  and  C_18 
REMARK    2  A    between atoms: O_5  and  P_8 
REMARK    3  A    between atoms: N_6  and  C_11 
REMARK    4  A    between atoms: N_7  and  C_15 
REMARK       I    between atoms: N_7  and  C_24 
REMARK    5  A    between atoms: P_8  and  C_23 
REMARK    6  A    between atoms: C_11  and  C_14 
REMARK    7  A    between atoms: C_15  and  C_18 
REMARK    8  A    between atoms: C_15  and  C_23 
REMARK    9  A    between atoms: C_21  and  C_26 
REMARK   10  A    between atoms: C_24  and  C_25 
REMARK   11  A    between atoms: C_29  and  C_32 
ROOT
HETATM    1  O   UNL     1       3.882  14.470  90.073  1.00  0.00     0.000 OA
HETATM    2  N   UNL     1       2.874  13.615  92.593  1.00  0.00     0.000 N 
HETATM    3  C   UNL     1       4.032  14.514  92.495  1.00  0.00     0.000 C 
HETATM    4  C   UNL     1       2.801  12.755  91.404  1.00  0.00     0.000 C 
HETATM    5  C   UNL     1       3.943  15.333  91.210  1.00  0.00     0.000 C 
HETATM    6  C   UNL     1       2.742  13.614  90.146  1.00  0.00     0.000 C 
ENDROOT
BRANCH   2   7
HETATM    7  C   UNL     1       2.944  12.812  93.813  1.00  0.00     0.000 C 
BRANCH   7   8
HETATM    8  C   UNL     1       3.983  11.746  93.732  1.00  0.00     0.000 A 
HETATM    9  C   UNL     1       5.304  12.033  94.081  1.00  0.00     0.000 A 
HETATM   10  C   UNL     1       6.277  11.037  94.003  1.00  0.00     0.000 A 
HETATM   11  C   UNL     1       5.930   9.755  93.579  1.00  0.00     0.000 A 
HETATM   12  C   UNL     1       4.611   9.468  93.230  1.00  0.00     0.000 A 
HETATM   13  C   UNL     1       3.638  10.463  93.307  1.00  0.00     0.000 A 
BRANCH  11  14
HETATM   14  C   UNL     1       6.928   8.733  93.501  1.00  0.00     0.000 C 
HETATM   15  C   UNL     1       7.767   7.874  93.437  1.00  0.00     0.000 C 
BRANCH  15  16
HETATM   16  C   UNL     1       8.765   6.853  93.360  1.00  0.00     0.000 A 
HETATM   17  C   UNL     1       8.499   5.670  92.670  1.00  0.00     0.000 A 
HETATM   18  C   UNL     1       9.473   4.675  92.593  1.00  0.00     0.000 A 
HETATM   19  C   UNL     1      10.690   4.884  93.207  1.00  0.00     0.000 A 
HETATM   20  C   UNL     1      10.977   6.044  93.896  1.00  0.00     0.000 A 
HETATM   21  C   UNL     1      10.003   7.040  93.974  1.00  0.00     0.000 A 
BRANCH  19  22
HETATM   22  C   UNL     1      11.726   3.823  93.127  1.00  0.00     0.000 C 
HETATM   23  O   UNL     1      11.380   2.644  93.139  1.00  0.00     0.000 OA
HETATM   24  N   UNL     1      13.039   4.262  93.016  1.00  0.00     0.000 N 
HETATM   25  HN  UNL     1      13.247   5.253  92.987  1.00  0.00     0.000 HD
BRANCH  24  26
HETATM   26  C   UNL     1      14.153   3.355  92.905  1.00  0.00     0.000 C 
BRANCH  26  27
HETATM   27  C   UNL     1      14.274   2.733  91.508  1.00  0.00     0.000 C 
HETATM   28  C   UNL     1      13.698   3.630  90.417  1.00  0.00     0.000 C 
BRANCH  27  29
HETATM   29  O   UNL     1      15.647   2.474  91.218  1.00  0.00     0.000 OA
HETATM   30  H   UNL     1      15.901   1.645  91.658  1.00  0.00     0.000 HD
ENDBRANCH  27  29
ENDBRANCH  26  27
BRANCH  26  31
HETATM   31  C   UNL     1      15.416   4.121  93.282  1.00  0.00     0.000 C 
HETATM   32  O   UNL     1      15.677   5.240  92.845  1.00  0.00     0.000 OA
BRANCH  31  33
HETATM   33  P   UNL     1      16.228   3.400  94.124  1.00  0.00     0.000 P 
HETATM   34  H   UNL     1      16.910   4.295  94.923  1.00  0.00     0.000 HD
BRANCH  33  35
HETATM   35  O   UNL     1      17.174   2.574  93.500  1.00  0.00     0.000 OA
HETATM   36  H   UNL     1      16.610   1.822  93.250  1.00  0.00     0.000 HD
ENDBRANCH  33  35
ENDBRANCH  31  33
ENDBRANCH  26  31
ENDBRANCH  24  26
ENDBRANCH  19  22
ENDBRANCH  15  16
ENDBRANCH  11  14
ENDBRANCH   7   8
ENDBRANCH   2   7
TORSDOF 11
ENDMDL
MODEL 8
REMARK VINA RESULT:      -3.9      3.420     12.413
REMARK  11 active torsions:
REMARK  status: ('A' for Active; 'I' for Inactive)
REMARK    1  A    between atoms: O_2  and  C_18 
REMARK    2  A    between atoms: O_5  and  P_8 
REMARK    3  A    between atoms: N_6  and  C_11 
REMARK    4  A    between atoms: N_7  and  C_15 
REMARK       I    between atoms: N_7  and  C_24 
REMARK    5  A    between atoms: P_8  and  C_23 
REMARK    6  A    between atoms: C_11  and  C_14 
REMARK    7  A    between atoms: C_15  and  C_18 
REMARK    8  A    between atoms: C_15  and  C_23 
REMARK    9  A    between atoms: C_21  and  C_26 
REMARK   10  A    between atoms: C_24  and  C_25 
REMARK   11  A    between atoms: C_29  and  C_32 
ROOT
HETATM    1  O   UNL     1       5.336  14.575  88.578  1.00  0.00     0.000 OA
HETATM    2  N   UNL     1       3.431  12.977  89.965  1.00  0.00     0.000 N 
HETATM    3  C   UNL     1       3.995  14.195  90.565  1.00  0.00     0.000 C 
HETATM    4  C   UNL     1       4.397  12.384  89.029  1.00  0.00     0.000 C 
HETATM    5  C   UNL     1       4.392  15.177  89.466  1.00  0.00     0.000 C 
HETATM    6  C   UNL     1       4.785  13.408  87.967  1.00  0.00     0.000 C 
ENDROOT
BRANCH   2   7
HETATM    7  C   UNL     1       3.054  12.017  91.000  1.00  0.00     0.000 C 
BRANCH   7   8
HETATM    8  C   UNL     1       4.123  11.012  91.260  1.00  0.00     0.000 A 
HETATM    9  C   UNL     1       4.431  10.055  90.291  1.00  0.00     0.000 A 
HETATM   10  C   UNL     1       5.430   9.113  90.535  1.00  0.00     0.000 A 
HETATM   11  C   UNL     1       6.123   9.129  91.745  1.00  0.00     0.000 A 
HETATM   12  C   UNL     1       5.817  10.084  92.712  1.00  0.00     0.000 A 
HETATM   13  C   UNL     1       4.817  11.026  92.470  1.00  0.00     0.000 A 
BRANCH  11  14
HETATM   14  C   UNL     1       7.149   8.164  91.993  1.00  0.00     0.000 C 
HETATM   15  C   UNL     1       8.012   7.353  92.203  1.00  0.00     0.000 C 
BRANCH  15  16
HETATM   16  C   UNL     1       9.037   6.388  92.451  1.00  0.00     0.000 A 
HETATM   17  C   UNL     1       9.339   5.428  91.485  1.00  0.00     0.000 A 
HETATM   18  C   UNL     1      10.341   4.488  91.727  1.00  0.00     0.000 A 
HETATM   19  C   UNL     1      11.018   4.530  92.927  1.00  0.00     0.000 A 
HETATM   20  C   UNL     1      10.738   5.468  93.898  1.00  0.00     0.000 A 
HETATM   21  C   UNL     1       9.736   6.408  93.658  1.00  0.00     0.000 A 
BRANCH  19  22
HETATM   22  C   UNL     1      12.084   3.527  93.185  1.00  0.00     0.000 C 
HETATM   23  O   UNL     1      11.780   2.341  93.284  1.00  0.00     0.000 OA
HETATM   24  N   UNL     1      13.377   4.023  93.272  1.00  0.00     0.000 N 
HETATM   25  HN  UNL     1      13.555   5.014  93.155  1.00  0.00     0.000 HD
BRANCH  24  26
HETATM   26  C   UNL     1      14.520   3.175  93.494  1.00  0.00     0.000 C 
BRANCH  26  27
HETATM   27  C   UNL     1      14.756   2.184  92.347  1.00  0.00     0.000 C 
HETATM   28  C   UNL     1      14.347   0.761  92.710  1.00  0.00     0.000 C 
BRANCH  27  29
HETATM   29  O   UNL     1      14.018   2.600  91.198  1.00  0.00     0.000 OA
HETATM   30  H   UNL     1      14.569   2.451  90.411  1.00  0.00     0.000 HD
ENDBRANCH  27  29
ENDBRANCH  26  27
BRANCH  26  31
HETATM   31  C   UNL     1      15.733   4.074  93.709  1.00  0.00     0.000 C 
HETATM   32  O   UNL     1      15.716   5.285  93.496  1.00  0.00     0.000 OA
BRANCH  31  33
HETATM   33  P   UNL     1      16.836   3.368  94.123  1.00  0.00     0.000 P 
HETATM   34  H   UNL     1      17.002   3.596  95.474  1.00  0.00     0.000 HD
BRANCH  33  35
HETATM   35  O   UNL     1      18.042   3.687  93.483  1.00  0.00     0.000 OA
HETATM   36  H   UNL     1      18.679   3.420  94.167  1.00  0.00     0.000 HD
ENDBRANCH  33  35
ENDBRANCH  31  33
ENDBRANCH  26  31
ENDBRANCH  24  26
ENDBRANCH  19  22
ENDBRANCH  15  16
ENDBRANCH  11  14
ENDBRANCH   7   8
ENDBRANCH   2   7
TORSDOF 11
ENDMDL
MODEL 9
REMARK VINA RESULT:      -3.6      1.899      2.614
REMARK  11 active torsions:
REMARK  status: ('A' for Active; 'I' for Inactive)
REMARK    1  A    between atoms: O_2  and  C_18 
REMARK    2  A    between atoms: O_5  and  P_8 
REMARK    3  A    between atoms: N_6  and  C_11 
REMARK    4  A    between atoms: N_7  and  C_15 
REMARK       I    between atoms: N_7  and  C_24 
REMARK    5  A    between atoms: P_8  and  C_23 
REMARK    6  A    between atoms: C_11  and  C_14 
REMARK    7  A    between atoms: C_15  and  C_18 
REMARK    8  A    between atoms: C_15  and  C_23 
REMARK    9  A    between atoms: C_21  and  C_26 
REMARK   10  A    between atoms: C_24  and  C_25 
REMARK   11  A    between atoms: C_29  and  C_32 
ROOT
HETATM    1  O   UNL     1      15.789   2.815  91.008  1.00  0.00     0.000 OA
HETATM    2  N   UNL     1      13.585   3.112  92.784  1.00  0.00     0.000 N 
HETATM    3  C   UNL     1      14.644   2.124  93.033  1.00  0.00     0.000 C 
HETATM    4  C   UNL     1      13.446   3.348  91.340  1.00  0.00     0.000 C 
HETATM    5  C   UNL     1      15.953   2.603  92.411  1.00  0.00     0.000 C 
HETATM    6  C   UNL     1      14.782   3.796  90.758  1.00  0.00     0.000 C 
ENDROOT
BRANCH   2   7
HETATM    7  C   UNL     1      12.317   2.669  93.362  1.00  0.00     0.000 C 
BRANCH   7   8
HETATM    8  C   UNL     1      11.257   3.713  93.275  1.00  0.00     0.000 A 
HETATM    9  C   UNL     1      11.298   4.820  94.124  1.00  0.00     0.000 A 
HETATM   10  C   UNL     1      10.305   5.796  94.045  1.00  0.00     0.000 A 
HETATM   11  C   UNL     1       9.274   5.666  93.115  1.00  0.00     0.000 A 
HETATM   12  C   UNL     1       9.232   4.562  92.267  1.00  0.00     0.000 A 
HETATM   13  C   UNL     1      10.224   3.585  92.346  1.00  0.00     0.000 A 
BRANCH  11  14
HETATM   14  C   UNL     1       8.257   6.669  93.032  1.00  0.00     0.000 C 
HETATM   15  C   UNL     1       7.402   7.512  92.963  1.00  0.00     0.000 C 
BRANCH  15  16
HETATM   16  C   UNL     1       6.386   8.515  92.881  1.00  0.00     0.000 A 
HETATM   17  C   UNL     1       6.217   9.422  93.927  1.00  0.00     0.000 A 
HETATM   18  C   UNL     1       5.228  10.402  93.846  1.00  0.00     0.000 A 
HETATM   19  C   UNL     1       4.430  10.453  92.722  1.00  0.00     0.000 A 
HETATM   20  C   UNL     1       4.577   9.567  91.675  1.00  0.00     0.000 A 
HETATM   21  C   UNL     1       5.566   8.586  91.755  1.00  0.00     0.000 A 
BRANCH  19  22
HETATM   22  C   UNL     1       3.375  11.495  92.636  1.00  0.00     0.000 C 
HETATM   23  O   UNL     1       2.312  11.322  93.227  1.00  0.00     0.000 OA
HETATM   24  N   UNL     1       3.694  12.624  91.895  1.00  0.00     0.000 N 
HETATM   25  HN  UNL     1       4.603  12.709  91.455  1.00  0.00     0.000 HD
BRANCH  24  26
HETATM   26  C   UNL     1       2.786  13.732  91.739  1.00  0.00     0.000 C 
BRANCH  26  27
HETATM   27  C   UNL     1       3.156  14.931  92.620  1.00  0.00     0.000 C 
HETATM   28  C   UNL     1       2.119  15.201  93.705  1.00  0.00     0.000 C 
BRANCH  27  29
HETATM   29  O   UNL     1       4.422  14.698  93.237  1.00  0.00     0.000 OA
HETATM   30  H   UNL     1       4.701  15.517  93.680  1.00  0.00     0.000 HD
ENDBRANCH  27  29
ENDBRANCH  26  27
BRANCH  26  31
HETATM   31  C   UNL     1       2.767  14.114  90.262  1.00  0.00     0.000 C 
HETATM   32  O   UNL     1       1.759  14.524  89.690  1.00  0.00     0.000 OA
BRANCH  31  33
HETATM   33  P   UNL     1       3.983  13.909  89.657  1.00  0.00     0.000 P 
HETATM   34  H   UNL     1       4.357  15.090  89.048  1.00  0.00     0.000 HD
BRANCH  33  35
HETATM   35  O   UNL     1       4.019  12.895  88.689  1.00  0.00     0.000 OA
HETATM   36  H   UNL     1       3.630  13.364  87.931  1.00  0.00     0.000 HD
ENDBRANCH  33  35
ENDBRANCH  31  33
ENDBRANCH  26  31
ENDBRANCH  24  26
ENDBRANCH  19  22
ENDBRANCH  15  16
ENDBRANCH  11  14
ENDBRANCH   7   8
ENDBRANCH   2   7
TORSDOF 11
ENDMDL
