MODEL 1
REMARK VINA RESULT:      -7.6      0.000      0.000
REMARK  9 active torsions:
REMARK  status: ('A' for Active; 'I' for Inactive)
REMARK    1  A    between atoms: N_3  and  C_6 
REMARK    2  A    between atoms: C_6  and  C_9 
REMARK    3  A    between atoms: C_14  and  C_17 
REMARK       I    between atoms: N_26  and  C_15 
REMARK    4  A    between atoms: C_15  and  C_16 
REMARK    5  A    between atoms: C_20  and  C_23 
REMARK    6  A    between atoms: OG1_24  and  CB_28 
REMARK    7  A    between atoms: N_26  and  CA_27 
REMARK    8  A    between atoms: CA_27  and  CB_28 
REMARK    9  A    between atoms: CA_27  and  C_30 
ROOT
HETATM    1  O   UNK A   0       2.029   8.177  87.895  1.00  0.00    -0.388 OA
HETATM    2  N   UNK A   0       4.801   7.561  87.710  1.00  0.00     0.096 N 
HETATM    3  C   UNK A   0       4.329   8.947  87.829  1.00  0.00     0.299 C 
HETATM    4  C   UNK A   0       3.785   6.738  87.040  1.00  0.00     0.299 C 
HETATM    5  C   UNK A   0       2.998   8.978  88.575  1.00  0.00     0.198 C 
HETATM    6  C   UNK A   0       2.467   6.821  87.803  1.00  0.00     0.198 C 
ENDROOT
BRANCH   2   7
HETATM    7  C   UNK A   0       6.072   7.506  86.989  1.00  0.00     0.311 C 
BRANCH   7   8
HETATM    8  C   UNK A   0       7.164   6.905  87.807  1.00  0.00    -0.030 A 
HETATM    9  C   UNK A   0       6.946   6.615  89.154  1.00  0.00     0.010 A 
HETATM   10  C   UNK A   0       7.968   6.054  89.921  1.00  0.00     0.021 A 
HETATM   11  C   UNK A   0       9.205   5.781  89.338  1.00  0.00     0.018 A 
HETATM   12  C   UNK A   0       9.423   6.069  87.993  1.00  0.00     0.021 A 
HETATM   13  C   UNK A   0       8.402   6.631  87.226  1.00  0.00     0.010 A 
BRANCH  11  14
HETATM   14  C   UNK A   0      10.252   5.204  90.124  1.00  0.00    -0.061 C 
HETATM   15  C   UNK A   0      11.132   4.718  90.784  1.00  0.00    -0.061 C 
BRANCH  15  16
HETATM   16  C   UNK A   0      12.179   4.140  91.568  1.00  0.00     0.018 A 
HETATM   17  C   UNK A   0      13.430   3.908  90.997  1.00  0.00     0.022 A 
HETATM   18  C   UNK A   0      14.452   3.347  91.763  1.00  0.00     0.018 A 
HETATM   19  C   UNK A   0      14.200   3.032  93.082  1.00  0.00     0.032 A 
HETATM   20  C   UNK A   0      12.972   3.252  93.670  1.00  0.00     0.018 A 
HETATM   21  C   UNK A   0      11.949   3.812  92.905  1.00  0.00     0.022 A 
BRANCH  19  22
HETATM   22  C   UNK A   0      15.288   2.433  93.897  1.00  0.00     0.252 C 
HETATM   23  O   UNK A   0      16.419   2.908  93.830  1.00  0.00    -0.268 OA
ENDBRANCH  19  22
ENDBRANCH  15  16
ENDBRANCH  11  14
ENDBRANCH   7   8
ENDBRANCH   2   7
TORSDOF 9
ENDMDL
MODEL 2
REMARK VINA RESULT:      -7.5      0.243      1.445
REMARK  9 active torsions:
REMARK  status: ('A' for Active; 'I' for Inactive)
REMARK    1  A    between atoms: N_3  and  C_6 
REMARK    2  A    between atoms: C_6  and  C_9 
REMARK    3  A    between atoms: C_14  and  C_17 
REMARK       I    between atoms: N_26  and  C_15 
REMARK    4  A    between atoms: C_15  and  C_16 
REMARK    5  A    between atoms: C_20  and  C_23 
REMARK    6  A    between atoms: OG1_24  and  CB_28 
REMARK    7  A    between atoms: N_26  and  CA_27 
REMARK    8  A    between atoms: CA_27  and  CB_28 
REMARK    9  A    between atoms: CA_27  and  C_30 
ROOT
HETATM    1  O   UNK A   0       1.743   7.986  87.949  1.00  0.00    -0.388 OA
HETATM    2  N   UNK A   0       4.539   7.489  87.753  1.00  0.00     0.096 N 
HETATM    3  C   UNK A   0       4.008   8.854  87.872  1.00  0.00     0.299 C 
HETATM    4  C   UNK A   0       3.556   6.623  87.089  1.00  0.00     0.299 C 
HETATM    5  C   UNK A   0       2.679   8.828  88.623  1.00  0.00     0.198 C 
HETATM    6  C   UNK A   0       2.238   6.650  87.857  1.00  0.00     0.198 C 
ENDROOT
BRANCH   2   7
HETATM    7  C   UNK A   0       5.807   7.489  87.027  1.00  0.00     0.311 C 
BRANCH   7   8
HETATM    8  C   UNK A   0       6.920   6.902  87.827  1.00  0.00    -0.030 A 
HETATM    9  C   UNK A   0       8.152   6.645  87.224  1.00  0.00     0.010 A 
HETATM   10  C   UNK A   0       9.192   6.093  87.971  1.00  0.00     0.021 A 
HETATM   11  C   UNK A   0       9.001   5.802  89.321  1.00  0.00     0.018 A 
HETATM   12  C   UNK A   0       7.772   6.058  89.925  1.00  0.00     0.021 A 
HETATM   13  C   UNK A   0       6.731   6.609  89.178  1.00  0.00     0.010 A 
BRANCH  11  14
HETATM   14  C   UNK A   0      10.070   5.238  90.088  1.00  0.00    -0.061 C 
HETATM   15  C   UNK A   0      10.968   4.766  90.733  1.00  0.00    -0.061 C 
BRANCH  15  16
HETATM   16  C   UNK A   0      12.036   4.203  91.500  1.00  0.00     0.018 A 
HETATM   17  C   UNK A   0      11.832   3.874  92.840  1.00  0.00     0.022 A 
HETATM   18  C   UNK A   0      12.873   3.323  93.587  1.00  0.00     0.018 A 
HETATM   19  C   UNK A   0      14.092   3.113  92.979  1.00  0.00     0.032 A 
HETATM   20  C   UNK A   0      14.319   3.430  91.656  1.00  0.00     0.018 A 
HETATM   21  C   UNK A   0      13.279   3.982  90.907  1.00  0.00     0.022 A 
BRANCH  19  22
HETATM   22  C   UNK A   0      15.201   2.527  93.776  1.00  0.00     0.252 C 
HETATM   23  O   UNK A   0      16.233   3.175  93.933  1.00  0.00    -0.268 OA
ENDBRANCH  19  22
ENDBRANCH  15  16
ENDBRANCH  11  14
ENDBRANCH   7   8
ENDBRANCH   2   7
TORSDOF 9
ENDMDL
MODEL 3
REMARK VINA RESULT:      -7.5      0.134      1.016
REMARK  9 active torsions:
REMARK  status: ('A' for Active; 'I' for Inactive)
REMARK    1  A    between atoms: N_3  and  C_6 
REMARK    2  A    between atoms: C_6  and  C_9 
REMARK    3  A    between atoms: C_14  and  C_17 
REMARK       I    between atoms: N_26  and  C_15 
REMARK    4  A    between atoms: C_15  and  C_16 
REMARK    5  A    between atoms: C_20  and  C_23 
REMARK    6  A    between atoms: OG1_24  and  CB_28 
REMARK    7  A    between atoms: N_26  and  CA_27 
REMARK    8  A    between atoms: CA_27  and  CB_28 
REMARK    9  A    between atoms: CA_27  and  C_30 
ROOT
HETATM    1  O   UNK A   0       1.919   8.235  88.014  1.00  0.00    -0.388 OA
HETATM    2  N   UNK A   0       4.696   7.645  87.803  1.00  0.00     0.096 N 
HETATM    3  C   UNK A   0       4.209   9.029  87.885  1.00  0.00     0.299 C 
HETATM    4  C   UNK A   0       3.679   6.789  87.177  1.00  0.00     0.299 C 
HETATM    5  C   UNK A   0       2.889   9.068  88.651  1.00  0.00     0.198 C 
HETATM    6  C   UNK A   0       2.372   6.882  87.959  1.00  0.00     0.198 C 
ENDROOT
BRANCH   2   7
HETATM    7  C   UNK A   0       5.955   7.582  87.063  1.00  0.00     0.311 C 
BRANCH   7   8
HETATM    8  C   UNK A   0       7.055   6.973  87.864  1.00  0.00    -0.030 A 
HETATM    9  C   UNK A   0       8.276   6.676  87.258  1.00  0.00     0.010 A 
HETATM   10  C   UNK A   0       9.305   6.104  88.006  1.00  0.00     0.021 A 
HETATM   11  C   UNK A   0       9.113   5.831  89.360  1.00  0.00     0.018 A 
HETATM   12  C   UNK A   0       7.894   6.127  89.967  1.00  0.00     0.021 A 
HETATM   13  C   UNK A   0       6.865   6.699  89.219  1.00  0.00     0.010 A 
BRANCH  11  14
HETATM   14  C   UNK A   0      10.169   5.246  90.128  1.00  0.00    -0.061 C 
HETATM   15  C   UNK A   0      11.057   4.755  90.773  1.00  0.00    -0.061 C 
BRANCH  15  16
HETATM   16  C   UNK A   0      12.113   4.171  91.540  1.00  0.00     0.018 A 
HETATM   17  C   UNK A   0      13.369   3.981  90.965  1.00  0.00     0.022 A 
HETATM   18  C   UNK A   0      14.399   3.414  91.715  1.00  0.00     0.018 A 
HETATM   19  C   UNK A   0      14.151   3.050  93.022  1.00  0.00     0.032 A 
HETATM   20  C   UNK A   0      12.917   3.227  93.613  1.00  0.00     0.018 A 
HETATM   21  C   UNK A   0      11.886   3.794  92.864  1.00  0.00     0.022 A 
BRANCH  19  22
HETATM   22  C   UNK A   0      15.248   2.444  93.820  1.00  0.00     0.252 C 
HETATM   23  O   UNK A   0      16.306   3.056  93.946  1.00  0.00    -0.268 OA
ENDBRANCH  19  22
ENDBRANCH  15  16
ENDBRANCH  11  14
ENDBRANCH   7   8
ENDBRANCH   2   7
TORSDOF 9
ENDMDL
MODEL 4
REMARK VINA RESULT:      -7.5      0.455      1.105
REMARK  9 active torsions:
REMARK  status: ('A' for Active; 'I' for Inactive)
REMARK    1  A    between atoms: N_3  and  C_6 
REMARK    2  A    between atoms: C_6  and  C_9 
REMARK    3  A    between atoms: C_14  and  C_17 
REMARK       I    between atoms: N_26  and  C_15 
REMARK    4  A    between atoms: C_15  and  C_16 
REMARK    5  A    between atoms: C_20  and  C_23 
REMARK    6  A    between atoms: OG1_24  and  CB_28 
REMARK    7  A    between atoms: N_26  and  CA_27 
REMARK    8  A    between atoms: CA_27  and  CB_28 
REMARK    9  A    between atoms: CA_27  and  C_30 
ROOT
HETATM    1  O   UNK A   0       1.914   8.878  88.392  1.00  0.00    -0.388 OA
HETATM    2  N   UNK A   0       4.523   7.836  87.939  1.00  0.00     0.096 N 
HETATM    3  C   UNK A   0       4.290   9.278  88.099  1.00  0.00     0.299 C 
HETATM    4  C   UNK A   0       3.329   7.192  87.374  1.00  0.00     0.299 C 
HETATM    5  C   UNK A   0       3.058   9.508  88.971  1.00  0.00     0.198 C 
HETATM    6  C   UNK A   0       2.121   7.471  88.262  1.00  0.00     0.198 C 
ENDROOT
BRANCH   2   7
HETATM    7  C   UNK A   0       5.693   7.591  87.097  1.00  0.00     0.311 C 
BRANCH   7   8
HETATM    8  C   UNK A   0       6.824   6.988  87.858  1.00  0.00    -0.030 A 
HETATM    9  C   UNK A   0       6.615   6.502  89.150  1.00  0.00     0.010 A 
HETATM   10  C   UNK A   0       7.673   5.940  89.863  1.00  0.00     0.021 A 
HETATM   11  C   UNK A   0       8.939   5.860  89.284  1.00  0.00     0.018 A 
HETATM   12  C   UNK A   0       9.149   6.344  87.995  1.00  0.00     0.021 A 
HETATM   13  C   UNK A   0       8.092   6.908  87.281  1.00  0.00     0.010 A 
BRANCH  11  14
HETATM   14  C   UNK A   0      10.023   5.281  90.016  1.00  0.00    -0.061 C 
HETATM   15  C   UNK A   0      10.935   4.794  90.631  1.00  0.00    -0.061 C 
BRANCH  15  16
HETATM   16  C   UNK A   0      12.018   4.215  91.362  1.00  0.00     0.018 A 
HETATM   17  C   UNK A   0      11.832   3.823  92.688  1.00  0.00     0.022 A 
HETATM   18  C   UNK A   0      12.888   3.255  93.401  1.00  0.00     0.018 A 
HETATM   19  C   UNK A   0      14.105   3.091  92.772  1.00  0.00     0.032 A 
HETATM   20  C   UNK A   0      14.314   3.471  91.463  1.00  0.00     0.018 A 
HETATM   21  C   UNK A   0      13.258   4.039  90.750  1.00  0.00     0.022 A 
BRANCH  19  22
HETATM   22  C   UNK A   0      15.230   2.488  93.533  1.00  0.00     0.252 C 
HETATM   23  O   UNK A   0      16.180   3.195  93.859  1.00  0.00    -0.268 OA
ENDBRANCH  19  22
ENDBRANCH  15  16
ENDBRANCH  11  14
ENDBRANCH   7   8
ENDBRANCH   2   7
TORSDOF 9
ENDMDL
MODEL 5
REMARK VINA RESULT:      -6.8      1.594      2.296
REMARK  9 active torsions:
REMARK  status: ('A' for Active; 'I' for Inactive)
REMARK    1  A    between atoms: N_3  and  C_6 
REMARK    2  A    between atoms: C_6  and  C_9 
REMARK    3  A    between atoms: C_14  and  C_17 
REMARK       I    between atoms: N_26  and  C_15 
REMARK    4  A    between atoms: C_15  and  C_16 
REMARK    5  A    between atoms: C_20  and  C_23 
REMARK    6  A    between atoms: OG1_24  and  CB_28 
REMARK    7  A    between atoms: N_26  and  CA_27 
REMARK    8  A    between atoms: CA_27  and  CB_28 
REMARK    9  A    between atoms: CA_27  and  C_30 
ROOT
HETATM    1  O   UNK A   0       3.122  11.619  89.702  1.00  0.00    -0.388 OA
HETATM    2  N   UNK A   0       4.691   9.438  88.763  1.00  0.00     0.096 N 
HETATM    3  C   UNK A   0       3.801  10.186  87.865  1.00  0.00     0.299 C 
HETATM    4  C   UNK A   0       4.167   9.474  90.135  1.00  0.00     0.299 C 
HETATM    5  C   UNK A   0       3.641  11.618  88.370  1.00  0.00     0.198 C 
HETATM    6  C   UNK A   0       3.997  10.920  90.587  1.00  0.00     0.198 C 
ENDROOT
BRANCH   2   7
HETATM    7  C   UNK A   0       4.851   8.060  88.303  1.00  0.00     0.311 C 
BRANCH   7   8
HETATM    8  C   UNK A   0       6.073   7.413  88.862  1.00  0.00    -0.030 A 
HETATM    9  C   UNK A   0       5.968   6.206  89.555  1.00  0.00     0.010 A 
HETATM   10  C   UNK A   0       7.110   5.602  90.079  1.00  0.00     0.021 A 
HETATM   11  C   UNK A   0       8.357   6.202  89.908  1.00  0.00     0.018 A 
HETATM   12  C   UNK A   0       8.463   7.407  89.216  1.00  0.00     0.021 A 
HETATM   13  C   UNK A   0       7.321   8.012  88.692  1.00  0.00     0.010 A 
BRANCH  11  14
HETATM   14  C   UNK A   0       9.529   5.581  90.445  1.00  0.00    -0.061 C 
HETATM   15  C   UNK A   0      10.514   5.058  90.894  1.00  0.00    -0.061 C 
BRANCH  15  16
HETATM   16  C   UNK A   0      11.685   4.438  91.430  1.00  0.00     0.018 A 
HETATM   17  C   UNK A   0      11.673   3.931  92.730  1.00  0.00     0.022 A 
HETATM   18  C   UNK A   0      12.815   3.323  93.251  1.00  0.00     0.018 A 
HETATM   19  C   UNK A   0      13.942   3.235  92.461  1.00  0.00     0.032 A 
HETATM   20  C   UNK A   0      13.980   3.728  91.174  1.00  0.00     0.018 A 
HETATM   21  C   UNK A   0      12.838   4.336  90.652  1.00  0.00     0.022 A 
BRANCH  19  22
HETATM   22  C   UNK A   0      15.159   2.589  93.017  1.00  0.00     0.252 C 
HETATM   23  O   UNK A   0      15.937   3.257  93.694  1.00  0.00    -0.268 OA
ENDBRANCH  19  22
ENDBRANCH  15  16
ENDBRANCH  11  14
ENDBRANCH   7   8
ENDBRANCH   2   7
TORSDOF 9
ENDMDL
MODEL 6
REMARK VINA RESULT:      -6.6      3.847     10.457
REMARK  9 active torsions:
REMARK  status: ('A' for Active; 'I' for Inactive)
REMARK    1  A    between atoms: N_3  and  C_6 
REMARK    2  A    between atoms: C_6  and  C_9 
REMARK    3  A    between atoms: C_14  and  C_17 
REMARK       I    between atoms: N_26  and  C_15 
REMARK    4  A    between atoms: C_15  and  C_16 
REMARK    5  A    between atoms: C_20  and  C_23 
REMARK    6  A    between atoms: OG1_24  and  CB_28 
REMARK    7  A    between atoms: N_26  and  CA_27 
REMARK    8  A    between atoms: CA_27  and  CB_28 
REMARK    9  A    between atoms: CA_27  and  C_30 
ROOT
HETATM    1  O   UNK A   0      14.645   3.389  92.222  1.00  0.00    -0.388 OA
HETATM    2  N   UNK A   0      11.914   4.187  92.123  1.00  0.00     0.096 N 
HETATM    3  C   UNK A   0      12.422   3.320  93.194  1.00  0.00     0.299 C 
HETATM    4  C   UNK A   0      12.702   3.988  90.898  1.00  0.00     0.299 C 
HETATM    5  C   UNK A   0      13.905   3.599  93.426  1.00  0.00     0.198 C 
HETATM    6  C   UNK A   0      14.177   4.251  91.183  1.00  0.00     0.198 C 
ENDROOT
BRANCH   2   7
HETATM    7  C   UNK A   0      10.497   3.929  91.876  1.00  0.00     0.311 C 
BRANCH   7   8
HETATM    8  C   UNK A   0       9.729   5.179  91.611  1.00  0.00    -0.030 A 
HETATM    9  C   UNK A   0       8.884   5.256  90.503  1.00  0.00     0.010 A 
HETATM   10  C   UNK A   0       8.168   6.426  90.252  1.00  0.00     0.021 A 
HETATM   11  C   UNK A   0       8.295   7.518  91.110  1.00  0.00     0.018 A 
HETATM   12  C   UNK A   0       9.138   7.442  92.217  1.00  0.00     0.021 A 
HETATM   13  C   UNK A   0       9.856   6.273  92.468  1.00  0.00     0.010 A 
BRANCH  11  14
HETATM   14  C   UNK A   0       7.558   8.717  90.854  1.00  0.00    -0.061 C 
HETATM   15  C   UNK A   0       6.940   9.725  90.639  1.00  0.00    -0.061 C 
BRANCH  15  16
HETATM   16  C   UNK A   0       6.204  10.924  90.382  1.00  0.00     0.018 A 
HETATM   17  C   UNK A   0       5.286  11.392  91.322  1.00  0.00     0.022 A 
HETATM   18  C   UNK A   0       4.569  12.563  91.072  1.00  0.00     0.018 A 
HETATM   19  C   UNK A   0       4.788  13.239  89.890  1.00  0.00     0.032 A 
HETATM   20  C   UNK A   0       5.689  12.796  88.945  1.00  0.00     0.018 A 
HETATM   21  C   UNK A   0       6.406  11.625  89.193  1.00  0.00     0.022 A 
BRANCH  19  22
HETATM   22  C   UNK A   0       4.023  14.485  89.624  1.00  0.00     0.252 C 
HETATM   23  O   UNK A   0       4.579  15.571  89.764  1.00  0.00    -0.268 OA
ENDBRANCH  19  22
ENDBRANCH  15  16
ENDBRANCH  11  14
ENDBRANCH   7   8
ENDBRANCH   2   7
TORSDOF 9
ENDMDL
MODEL 7
REMARK VINA RESULT:      -6.6      3.895     10.461
REMARK  9 active torsions:
REMARK  status: ('A' for Active; 'I' for Inactive)
REMARK    1  A    between atoms: N_3  and  C_6 
REMARK    2  A    between atoms: C_6  and  C_9 
REMARK    3  A    between atoms: C_14  and  C_17 
REMARK       I    between atoms: N_26  and  C_15 
REMARK    4  A    between atoms: C_15  and  C_16 
REMARK    5  A    between atoms: C_20  and  C_23 
REMARK    6  A    between atoms: OG1_24  and  CB_28 
REMARK    7  A    between atoms: N_26  and  CA_27 
REMARK    8  A    between atoms: CA_27  and  CB_28 
REMARK    9  A    between atoms: CA_27  and  C_30 
ROOT
HETATM    1  O   UNK A   0      14.520   3.327  92.096  1.00  0.00    -0.388 OA
HETATM    2  N   UNK A   0      11.819   4.202  92.295  1.00  0.00     0.096 N 
HETATM    3  C   UNK A   0      12.436   3.370  93.338  1.00  0.00     0.299 C 
HETATM    4  C   UNK A   0      12.443   3.922  90.995  1.00  0.00     0.299 C 
HETATM    5  C   UNK A   0      13.943   3.615  93.371  1.00  0.00     0.198 C 
HETATM    6  C   UNK A   0      13.948   4.153  91.082  1.00  0.00     0.198 C 
ENDROOT
BRANCH   2   7
HETATM    7  C   UNK A   0      10.376   3.976  92.239  1.00  0.00     0.311 C 
BRANCH   7   8
HETATM    8  C   UNK A   0       9.618   5.221  91.927  1.00  0.00    -0.030 A 
HETATM    9  C   UNK A   0       9.852   6.382  92.665  1.00  0.00     0.010 A 
HETATM   10  C   UNK A   0       9.142   7.547  92.375  1.00  0.00     0.021 A 
HETATM   11  C   UNK A   0       8.200   7.550  91.347  1.00  0.00     0.018 A 
HETATM   12  C   UNK A   0       7.965   6.392  90.610  1.00  0.00     0.021 A 
HETATM   13  C   UNK A   0       8.675   5.226  90.900  1.00  0.00     0.010 A 
BRANCH  11  14
HETATM   14  C   UNK A   0       7.473   8.746  91.049  1.00  0.00    -0.061 C 
HETATM   15  C   UNK A   0       6.861   9.751  90.798  1.00  0.00    -0.061 C 
BRANCH  15  16
HETATM   16  C   UNK A   0       6.134  10.945  90.501  1.00  0.00     0.018 A 
HETATM   17  C   UNK A   0       5.271  11.490  91.452  1.00  0.00     0.022 A 
HETATM   18  C   UNK A   0       4.564  12.657  91.163  1.00  0.00     0.018 A 
HETATM   19  C   UNK A   0       4.737  13.253  89.931  1.00  0.00     0.032 A 
HETATM   20  C   UNK A   0       5.583  12.734  88.974  1.00  0.00     0.018 A 
HETATM   21  C   UNK A   0       6.291  11.567  89.262  1.00  0.00     0.022 A 
BRANCH  19  22
HETATM   22  C   UNK A   0       3.982  14.496  89.623  1.00  0.00     0.252 C 
HETATM   23  O   UNK A   0       4.573  15.573  89.624  1.00  0.00    -0.268 OA
ENDBRANCH  19  22
ENDBRANCH  15  16
ENDBRANCH  11  14
ENDBRANCH   7   8
ENDBRANCH   2   7
TORSDOF 9
ENDMDL
MODEL 8
REMARK VINA RESULT:      -6.6      3.613     10.362
REMARK  9 active torsions:
REMARK  status: ('A' for Active; 'I' for Inactive)
REMARK    1  A    between atoms: N_3  and  C_6 
REMARK    2  A    between atoms: C_6  and  C_9 
REMARK    3  A    between atoms: C_14  and  C_17 
REMARK       I    between atoms: N_26  and  C_15 
REMARK    4  A    between atoms: C_15  and  C_16 
REMARK    5  A    between atoms: C_20  and  C_23 
REMARK    6  A    between atoms: OG1_24  and  CB_28 
REMARK    7  A    between atoms: N_26  and  CA_27 
REMARK    8  A    between atoms: CA_27  and  CB_28 
REMARK    9  A    between atoms: CA_27  and  C_30 
ROOT
HETATM    1  O   UNK A   0      16.221   3.114  93.646  1.00  0.00    -0.388 OA
HETATM    2  N   UNK A   0      13.509   2.886  92.812  1.00  0.00     0.096 N 
HETATM    3  C   UNK A   0      14.327   1.699  93.096  1.00  0.00     0.299 C 
HETATM    4  C   UNK A   0      14.364   3.989  92.353  1.00  0.00     0.299 C 
HETATM    5  C   UNK A   0      15.402   2.045  94.124  1.00  0.00     0.198 C 
HETATM    6  C   UNK A   0      15.437   4.281  93.397  1.00  0.00     0.198 C 
ENDROOT
BRANCH   2   7
HETATM    7  C   UNK A   0      12.478   2.579  91.821  1.00  0.00     0.311 C 
BRANCH   7   8
HETATM    8  C   UNK A   0      11.629   3.761  91.500  1.00  0.00    -0.030 A 
HETATM    9  C   UNK A   0      11.453   4.152  90.172  1.00  0.00     0.010 A 
HETATM   10  C   UNK A   0      10.661   5.259  89.871  1.00  0.00     0.021 A 
HETATM   11  C   UNK A   0      10.044   5.974  90.897  1.00  0.00     0.018 A 
HETATM   12  C   UNK A   0      10.219   5.585  92.223  1.00  0.00     0.021 A 
HETATM   13  C   UNK A   0      11.012   4.478  92.525  1.00  0.00     0.010 A 
BRANCH  11  14
HETATM   14  C   UNK A   0       9.229   7.109  90.587  1.00  0.00    -0.061 C 
HETATM   15  C   UNK A   0       8.545   8.063  90.327  1.00  0.00    -0.061 C 
BRANCH  15  16
HETATM   16  C   UNK A   0       7.732   9.197  90.018  1.00  0.00     0.018 A 
HETATM   17  C   UNK A   0       6.368   9.179  90.314  1.00  0.00     0.022 A 
HETATM   18  C   UNK A   0       5.576  10.287  90.014  1.00  0.00     0.018 A 
HETATM   19  C   UNK A   0       6.163  11.387  89.427  1.00  0.00     0.032 A 
HETATM   20  C   UNK A   0       7.508  11.430  89.124  1.00  0.00     0.018 A 
HETATM   21  C   UNK A   0       8.302  10.323  89.423  1.00  0.00     0.022 A 
BRANCH  19  22
HETATM   22  C   UNK A   0       5.318  12.567  89.106  1.00  0.00     0.252 C 
HETATM   23  O   UNK A   0       5.803  13.496  88.466  1.00  0.00    -0.268 OA
ENDBRANCH  19  22
ENDBRANCH  15  16
ENDBRANCH  11  14
ENDBRANCH   7   8
ENDBRANCH   2   7
TORSDOF 9
ENDMDL
MODEL 9
REMARK VINA RESULT:      -6.3      3.462      4.431
REMARK  9 active torsions:
REMARK  status: ('A' for Active; 'I' for Inactive)
REMARK    1  A    between atoms: N_3  and  C_6 
REMARK    2  A    between atoms: C_6  and  C_9 
REMARK    3  A    between atoms: C_14  and  C_17 
REMARK       I    between atoms: N_26  and  C_15 
REMARK    4  A    between atoms: C_15  and  C_16 
REMARK    5  A    between atoms: C_20  and  C_23 
REMARK    6  A    between atoms: OG1_24  and  CB_28 
REMARK    7  A    between atoms: N_26  and  CA_27 
REMARK    8  A    between atoms: CA_27  and  CB_28 
REMARK    9  A    between atoms: CA_27  and  C_30 
ROOT
HETATM    1  O   UNK A   0       4.347  15.304  90.058  1.00  0.00    -0.388 OA
HETATM    2  N   UNK A   0       4.945  12.572  89.528  1.00  0.00     0.096 N 
HETATM    3  C   UNK A   0       4.946  13.580  88.459  1.00  0.00     0.299 C 
HETATM    4  C   UNK A   0       4.002  12.962  90.586  1.00  0.00     0.299 C 
HETATM    5  C   UNK A   0       5.285  14.950  89.040  1.00  0.00     0.198 C 
HETATM    6  C   UNK A   0       4.362  14.346  91.116  1.00  0.00     0.198 C 
ENDROOT
BRANCH   2   7
HETATM    7  C   UNK A   0       4.612  11.252  88.996  1.00  0.00     0.311 C 
BRANCH   7   8
HETATM    8  C   UNK A   0       5.613  10.216  89.378  1.00  0.00    -0.030 A 
HETATM    9  C   UNK A   0       6.865  10.602  89.858  1.00  0.00     0.010 A 
HETATM   10  C   UNK A   0       7.804   9.633  90.214  1.00  0.00     0.021 A 
HETATM   11  C   UNK A   0       7.490   8.280  90.091  1.00  0.00     0.018 A 
HETATM   12  C   UNK A   0       6.240   7.894  89.611  1.00  0.00     0.021 A 
HETATM   13  C   UNK A   0       5.301   8.862  89.255  1.00  0.00     0.010 A 
BRANCH  11  14
HETATM   14  C   UNK A   0       8.452   7.287  90.457  1.00  0.00    -0.061 C 
HETATM   15  C   UNK A   0       9.260   6.452  90.765  1.00  0.00    -0.061 C 
BRANCH  15  16
HETATM   16  C   UNK A   0      10.222   5.460  91.131  1.00  0.00     0.018 A 
HETATM   17  C   UNK A   0      10.869   4.719  90.141  1.00  0.00     0.022 A 
HETATM   18  C   UNK A   0      11.810   3.753  90.498  1.00  0.00     0.018 A 
HETATM   19  C   UNK A   0      12.083   3.549  91.835  1.00  0.00     0.032 A 
HETATM   20  C   UNK A   0      11.456   4.268  92.832  1.00  0.00     0.018 A 
HETATM   21  C   UNK A   0      10.516   5.235  92.476  1.00  0.00     0.022 A 
BRANCH  19  22
HETATM   22  C   UNK A   0      13.083   2.519  92.215  1.00  0.00     0.252 C 
HETATM   23  O   UNK A   0      13.756   2.681  93.229  1.00  0.00    -0.268 OA
ENDBRANCH  19  22
ENDBRANCH  15  16
ENDBRANCH  11  14
ENDBRANCH   7   8
ENDBRANCH   2   7
TORSDOF 9
ENDMDL
