MODEL 1
REMARK VINA RESULT:      -6.3      0.000      0.000
REMARK  12 active torsions:
REMARK  status: ('A' for Active; 'I' for Inactive)
REMARK    1  A    between atoms: O_2  and  C_16 
REMARK    2  A    between atoms: N_5  and  C_9 
REMARK    3  A    between atoms: N_6  and  C_13 
REMARK       I    between atoms: N_6  and  C_22 
REMARK    4  A    between atoms: C_9  and  C_12 
REMARK    5  A    between atoms: C_13  and  C_16 
REMARK    6  A    between atoms: C_13  and  C_21 
REMARK    7  A    between atoms: C_19  and  C_24 
REMARK    8  A    between atoms: C_21  and  C_33 
REMARK    9  A    between atoms: C_22  and  C_23 
REMARK   10  A    between atoms: C_27  and  C_30 
REMARK   11  A    between atoms: C_33  and  C_34 
REMARK   12  A    between atoms: C_34  and  C_35 
ROOT
HETATM    1  O   UNL     1      16.817   3.739  93.862  1.00  0.00    -0.350 OA
HETATM    2  N   UNL     1      14.259   3.121  92.777  1.00  0.00     0.147 N 
HETATM    3  C   UNL     1      15.283   2.085  92.968  1.00  0.00     0.283 C 
HETATM    4  C   UNL     1      14.898   4.424  92.545  1.00  0.00     0.283 C 
HETATM    5  C   UNL     1      16.204   2.475  94.121  1.00  0.00     0.178 C 
HETATM    6  C   UNL     1      15.828   4.759  93.706  1.00  0.00     0.178 C 
ENDROOT
BRANCH   2   7
HETATM    7  C   UNL     1      13.370   2.774  91.670  1.00  0.00     0.277 C 
BRANCH   7   8
HETATM    8  C   UNL     1      12.178   3.665  91.597  1.00  0.00     0.011 A 
HETATM    9  C   UNL     1      11.706   4.096  90.356  1.00  0.00    -0.002 A 
HETATM   10  C   UNL     1      10.591   4.932  90.287  1.00  0.00     0.008 A 
HETATM   11  C   UNL     1       9.949   5.335  91.457  1.00  0.00     0.042 A 
HETATM   12  C   UNL     1      10.419   4.905  92.696  1.00  0.00     0.008 A 
HETATM   13  C   UNL     1      11.534   4.070  92.766  1.00  0.00    -0.002 A 
BRANCH  11  14
HETATM   14  C   UNL     1       8.805   6.191  91.385  1.00  0.00    -0.059 C 
HETATM   15  C   UNL     1       7.844   6.911  91.325  1.00  0.00    -0.059 C 
BRANCH  15  16
HETATM   16  C   UNL     1       6.700   7.767  91.253  1.00  0.00     0.042 A 
HETATM   17  C   UNL     1       6.648   8.926  92.027  1.00  0.00     0.008 A 
HETATM   18  C   UNL     1       5.534   9.762  91.954  1.00  0.00     0.005 A 
HETATM   19  C   UNL     1       4.499   9.421  91.109  1.00  0.00     0.056 A 
HETATM   20  C   UNL     1       4.526   8.281  90.334  1.00  0.00     0.005 A 
HETATM   21  C   UNL     1       5.640   7.444  90.406  1.00  0.00     0.008 A 
BRANCH  19  22
HETATM   22  C   UNL     1       3.311  10.311  91.033  1.00  0.00     0.254 C 
HETATM   23  O   UNL     1       2.248   9.858  90.618  1.00  0.00    -0.268 OA
HETATM   24  N   UNL     1       3.499  11.614  91.473  1.00  0.00    -0.335 N 
HETATM   25  HN  UNL     1       4.401  11.911  91.827  1.00  0.00     0.164 HD
BRANCH  24  26
HETATM   26  C   UNL     1       2.438  12.589  91.485  1.00  0.00     0.166 C 
BRANCH  26  27
HETATM   27  C   UNL     1       2.208  13.199  92.873  1.00  0.00     0.138 C 
HETATM   28  C   UNL     1       3.504  13.370  93.658  1.00  0.00     0.034 C 
BRANCH  27  29
HETATM   29  O   UNL     1       1.578  14.472  92.737  1.00  0.00    -0.383 OA
HETATM   30  H   UNL     1       1.332  14.592  91.804  1.00  0.00     0.210 HD
ENDBRANCH  27  29
ENDBRANCH  26  27
BRANCH  26  31
HETATM   31  C   UNL     1       2.781  13.663  90.457  1.00  0.00     0.181 C 
HETATM   32  O   UNL     1       2.092  14.666  90.282  1.00  0.00    -0.294 OA
BRANCH  31  33
HETATM   33  C   UNL     1       4.307  14.184  90.618  1.00  0.00     0.138 C 
BRANCH  33  34
HETATM   34  C   UNL     1       4.711  14.269  89.267  1.00  0.00     0.208 C 
HETATM   35  O   UNL     1       5.003  15.372  88.866  1.00  0.00    -0.289 OA
BRANCH  34  36
HETATM   36  C   UNL     1       5.107  13.291  88.396  1.00  0.00     0.194 C 
HETATM   37  O   UNL     1       5.041  11.898  88.510  1.00  0.00    -0.185 OA
ENDBRANCH  34  36
ENDBRANCH  33  34
ENDBRANCH  31  33
ENDBRANCH  26  31
ENDBRANCH  24  26
ENDBRANCH  19  22
ENDBRANCH  15  16
ENDBRANCH  11  14
ENDBRANCH   7   8
ENDBRANCH   2   7
TORSDOF 12
ENDMDL
