MODEL 1
REMARK VINA RESULT:      -6.8      0.000      0.000
REMARK  11 active torsions:
REMARK  status: ('A' for Active; 'I' for Inactive)
REMARK    1  A    between atoms: O_2  and  C_18 
REMARK    2  A    between atoms: O_5  and  P_8 
REMARK    3  A    between atoms: N_6  and  C_11 
REMARK    4  A    between atoms: N_7  and  C_15 
REMARK       I    between atoms: N_7  and  C_24 
REMARK    5  A    between atoms: P_8  and  C_23 
REMARK    6  A    between atoms: C_11  and  C_14 
REMARK    7  A    between atoms: C_15  and  C_18 
REMARK    8  A    between atoms: C_15  and  C_23 
REMARK    9  A    between atoms: C_21  and  C_26 
REMARK   10  A    between atoms: C_24  and  C_25 
REMARK   11  A    between atoms: C_29  and  C_32 
ROOT
HETATM    1  O   UNL     1      16.451   4.370  94.006  1.00  0.00     0.000 OA
HETATM    2  N   UNL     1      14.559   2.702  92.685  1.00  0.00     0.000 N 
HETATM    3  C   UNL     1      14.513   4.166  92.559  1.00  0.00     0.000 C 
HETATM    4  C   UNL     1      15.143   2.327  93.980  1.00  0.00     0.000 C 
HETATM    5  C   UNL     1      15.915   4.744  92.736  1.00  0.00     0.000 C 
HETATM    6  C   UNL     1      16.529   2.949  94.124  1.00  0.00     0.000 C 
ENDROOT
BRANCH   2   7
HETATM    7  C   UNL     1      13.225   2.127  92.530  1.00  0.00     0.000 C 
BRANCH   7   8
HETATM    8  C   UNL     1      12.199   3.154  92.190  1.00  0.00     0.000 A 
HETATM    9  C   UNL     1      11.735   3.267  90.879  1.00  0.00     0.000 A 
HETATM   10  C   UNL     1      10.777   4.229  90.558  1.00  0.00     0.000 A 
HETATM   11  C   UNL     1      10.283   5.076  91.550  1.00  0.00     0.000 A 
HETATM   12  C   UNL     1      10.745   4.964  92.859  1.00  0.00     0.000 A 
HETATM   13  C   UNL     1      11.704   4.002  93.180  1.00  0.00     0.000 A 
BRANCH  11  14
HETATM   14  C   UNL     1       9.299   6.061  91.222  1.00  0.00     0.000 C 
HETATM   15  C   UNL     1       8.472   6.889  90.945  1.00  0.00     0.000 C 
BRANCH  15  16
HETATM   16  C   UNL     1       7.488   7.873  90.618  1.00  0.00     0.000 A 
HETATM   17  C   UNL     1       7.885   9.131  90.163  1.00  0.00     0.000 A 
HETATM   18  C   UNL     1       6.925  10.090  89.841  1.00  0.00     0.000 A 
HETATM   19  C   UNL     1       5.590   9.770  89.980  1.00  0.00     0.000 A 
HETATM   20  C   UNL     1       5.172   8.535  90.428  1.00  0.00     0.000 A 
HETATM   21  C   UNL     1       6.131   7.575  90.750  1.00  0.00     0.000 A 
BRANCH  19  22
HETATM   22  C   UNL     1       4.568  10.793  89.639  1.00  0.00     0.000 C 
HETATM   23  O   UNL     1       3.572  10.457  89.003  1.00  0.00     0.000 OA
HETATM   24  N   UNL     1       4.816  12.078  90.101  1.00  0.00     0.000 N 
HETATM   25  HN  UNL     1       5.649  12.277  90.643  1.00  0.00     0.000 HD
BRANCH  24  26
HETATM   26  C   UNL     1       3.908  13.173  89.872  1.00  0.00     0.000 C 
BRANCH  26  27
HETATM   27  C   UNL     1       3.211  13.644  91.155  1.00  0.00     0.000 C 
HETATM   28  C   UNL     1       2.391  12.540  91.813  1.00  0.00     0.000 C 
BRANCH  27  29
HETATM   29  O   UNL     1       4.188  14.113  92.084  1.00  0.00     0.000 OA
HETATM   30  H   UNL     1       4.266  15.077  91.985  1.00  0.00     0.000 HD
ENDBRANCH  27  29
ENDBRANCH  26  27
BRANCH  26  31
HETATM   31  C   UNL     1       4.697  14.305  89.222  1.00  0.00     0.000 C 
HETATM   32  O   UNL     1       4.828  15.413  89.739  1.00  0.00     0.000 OA
BRANCH  31  33
HETATM   33  P   UNL     1       5.198  13.949  87.993  1.00  0.00     0.000 P 
HETATM   34  H   UNL     1       5.217  15.079  87.201  1.00  0.00     0.000 HD
BRANCH  33  35
HETATM   35  O   UNL     1       4.484  12.956  87.308  1.00  0.00     0.000 OA
HETATM   36  H   UNL     1       4.234  12.378  88.049  1.00  0.00     0.000 HD
ENDBRANCH  33  35
ENDBRANCH  31  33
ENDBRANCH  26  31
ENDBRANCH  24  26
ENDBRANCH  19  22
ENDBRANCH  15  16
ENDBRANCH  11  14
ENDBRANCH   7   8
ENDBRANCH   2   7
TORSDOF 11
ENDMDL
