MODEL 1
REMARK VINA RESULT:      -7.5      0.000      0.000
REMARK  9 active torsions:
REMARK  status: ('A' for Active; 'I' for Inactive)
REMARK    1  A    between atoms: N_3  and  C_6 
REMARK    2  A    between atoms: C_6  and  C_9 
REMARK    3  A    between atoms: C_14  and  C_17 
REMARK       I    between atoms: N_26  and  C_15 
REMARK    4  A    between atoms: C_15  and  C_16 
REMARK    5  A    between atoms: C_20  and  C_23 
REMARK    6  A    between atoms: OG1_24  and  CB_28 
REMARK    7  A    between atoms: N_26  and  CA_27 
REMARK    8  A    between atoms: CA_27  and  CB_28 
REMARK    9  A    between atoms: CA_27  and  C_30 
ROOT
HETATM    1  O   UNK A   0       1.861   8.326  87.959  1.00  0.00    -0.388 OA
HETATM    2  N   UNK A   0       4.605   7.613  87.709  1.00  0.00     0.096 N 
HETATM    3  C   UNK A   0       4.181   9.018  87.795  1.00  0.00     0.299 C 
HETATM    4  C   UNK A   0       3.542   6.803  87.099  1.00  0.00     0.299 C 
HETATM    5  C   UNK A   0       2.875   9.116  88.581  1.00  0.00     0.198 C 
HETATM    6  C   UNK A   0       2.252   6.954  87.899  1.00  0.00     0.198 C 
ENDROOT
BRANCH   2   7
HETATM    7  C   UNK A   0       5.850   7.494  86.952  1.00  0.00     0.311 C 
BRANCH   7   8
HETATM    8  C   UNK A   0       6.954   6.906  87.762  1.00  0.00    -0.030 A 
HETATM    9  C   UNK A   0       6.729   6.552  89.093  1.00  0.00     0.010 A 
HETATM   10  C   UNK A   0       7.762   6.005  89.853  1.00  0.00     0.021 A 
HETATM   11  C   UNK A   0       9.019   5.809  89.282  1.00  0.00     0.018 A 
HETATM   12  C   UNK A   0       9.245   6.162  87.953  1.00  0.00     0.021 A 
HETATM   13  C   UNK A   0       8.212   6.710  87.193  1.00  0.00     0.010 A 
BRANCH  11  14
HETATM   14  C   UNK A   0      10.078   5.245  90.061  1.00  0.00    -0.061 C 
HETATM   15  C   UNK A   0      10.968   4.771  90.715  1.00  0.00    -0.061 C 
BRANCH  15  16
HETATM   16  C   UNK A   0      12.027   4.207  91.493  1.00  0.00     0.018 A 
HETATM   17  C   UNK A   0      11.814   3.892  92.836  1.00  0.00     0.022 A 
HETATM   18  C   UNK A   0      12.846   3.340  93.594  1.00  0.00     0.018 A 
HETATM   19  C   UNK A   0      14.067   3.115  92.993  1.00  0.00     0.032 A 
HETATM   20  C   UNK A   0      14.304   3.419  91.669  1.00  0.00     0.018 A 
HETATM   21  C   UNK A   0      13.272   3.971  90.910  1.00  0.00     0.022 A 
BRANCH  19  22
HETATM   22  C   UNK A   0      15.168   2.529  93.802  1.00  0.00     0.252 C 
HETATM   23  O   UNK A   0      16.321   2.903  93.605  1.00  0.00    -0.268 OA
ENDBRANCH  19  22
ENDBRANCH  15  16
ENDBRANCH  11  14
ENDBRANCH   7   8
ENDBRANCH   2   7
TORSDOF 9
ENDMDL
MODEL 2
REMARK VINA RESULT:      -7.5      0.228      1.031
REMARK  9 active torsions:
REMARK  status: ('A' for Active; 'I' for Inactive)
REMARK    1  A    between atoms: N_3  and  C_6 
REMARK    2  A    between atoms: C_6  and  C_9 
REMARK    3  A    between atoms: C_14  and  C_17 
REMARK       I    between atoms: N_26  and  C_15 
REMARK    4  A    between atoms: C_15  and  C_16 
REMARK    5  A    between atoms: C_20  and  C_23 
REMARK    6  A    between atoms: OG1_24  and  CB_28 
REMARK    7  A    between atoms: N_26  and  CA_27 
REMARK    8  A    between atoms: CA_27  and  CB_28 
REMARK    9  A    between atoms: CA_27  and  C_30 
ROOT
HETATM    1  O   UNK A   0       1.995   8.032  87.791  1.00  0.00    -0.388 OA
HETATM    2  N   UNK A   0       4.795   7.535  87.666  1.00  0.00     0.096 N 
HETATM    3  C   UNK A   0       4.260   8.902  87.751  1.00  0.00     0.299 C 
HETATM    4  C   UNK A   0       3.827   6.657  86.993  1.00  0.00     0.299 C 
HETATM    5  C   UNK A   0       2.915   8.886  88.473  1.00  0.00     0.198 C 
HETATM    6  C   UNK A   0       2.493   6.695  87.731  1.00  0.00     0.198 C 
ENDROOT
BRANCH   2   7
HETATM    7  C   UNK A   0       6.079   7.525  86.968  1.00  0.00     0.311 C 
BRANCH   7   8
HETATM    8  C   UNK A   0       7.167   6.924  87.791  1.00  0.00    -0.030 A 
HETATM    9  C   UNK A   0       8.392   6.606  87.201  1.00  0.00     0.010 A 
HETATM   10  C   UNK A   0       9.410   6.042  87.970  1.00  0.00     0.021 A 
HETATM   11  C   UNK A   0       9.204   5.799  89.327  1.00  0.00     0.018 A 
HETATM   12  C   UNK A   0       7.982   6.116  89.917  1.00  0.00     0.021 A 
HETATM   13  C   UNK A   0       6.963   6.679  89.149  1.00  0.00     0.010 A 
BRANCH  11  14
HETATM   14  C   UNK A   0      10.250   5.222  90.116  1.00  0.00    -0.061 C 
HETATM   15  C   UNK A   0      11.129   4.738  90.778  1.00  0.00    -0.061 C 
BRANCH  15  16
HETATM   16  C   UNK A   0      12.174   4.162  91.566  1.00  0.00     0.018 A 
HETATM   17  C   UNK A   0      11.926   3.794  92.889  1.00  0.00     0.022 A 
HETATM   18  C   UNK A   0      12.946   3.231  93.656  1.00  0.00     0.018 A 
HETATM   19  C   UNK A   0      14.187   3.047  93.085  1.00  0.00     0.032 A 
HETATM   20  C   UNK A   0      14.457   3.403  91.780  1.00  0.00     0.018 A 
HETATM   21  C   UNK A   0      13.439   3.967  91.011  1.00  0.00     0.022 A 
BRANCH  19  22
HETATM   22  C   UNK A   0      15.273   2.448  93.904  1.00  0.00     0.252 C 
HETATM   23  O   UNK A   0      16.431   2.815  93.724  1.00  0.00    -0.268 OA
ENDBRANCH  19  22
ENDBRANCH  15  16
ENDBRANCH  11  14
ENDBRANCH   7   8
ENDBRANCH   2   7
TORSDOF 9
ENDMDL
MODEL 3
REMARK VINA RESULT:      -7.5      0.143      1.017
REMARK  9 active torsions:
REMARK  status: ('A' for Active; 'I' for Inactive)
REMARK    1  A    between atoms: N_3  and  C_6 
REMARK    2  A    between atoms: C_6  and  C_9 
REMARK    3  A    between atoms: C_14  and  C_17 
REMARK       I    between atoms: N_26  and  C_15 
REMARK    4  A    between atoms: C_15  and  C_16 
REMARK    5  A    between atoms: C_20  and  C_23 
REMARK    6  A    between atoms: OG1_24  and  CB_28 
REMARK    7  A    between atoms: N_26  and  CA_27 
REMARK    8  A    between atoms: CA_27  and  CB_28 
REMARK    9  A    between atoms: CA_27  and  C_30 
ROOT
HETATM    1  O   UNK A   0       1.903   8.095  87.893  1.00  0.00    -0.388 OA
HETATM    2  N   UNK A   0       4.678   7.496  87.697  1.00  0.00     0.096 N 
HETATM    3  C   UNK A   0       4.199   8.877  87.849  1.00  0.00     0.299 C 
HETATM    4  C   UNK A   0       3.666   6.686  87.005  1.00  0.00     0.299 C 
HETATM    5  C   UNK A   0       2.867   8.883  88.593  1.00  0.00     0.198 C 
HETATM    6  C   UNK A   0       2.347   6.743  87.768  1.00  0.00     0.198 C 
ENDROOT
BRANCH   2   7
HETATM    7  C   UNK A   0       5.950   7.466  86.977  1.00  0.00     0.311 C 
BRANCH   7   8
HETATM    8  C   UNK A   0       7.049   6.870  87.789  1.00  0.00    -0.030 A 
HETATM    9  C   UNK A   0       6.822   6.527  89.122  1.00  0.00     0.010 A 
HETATM   10  C   UNK A   0       7.850   5.972  89.884  1.00  0.00     0.021 A 
HETATM   11  C   UNK A   0       9.104   5.759  89.312  1.00  0.00     0.018 A 
HETATM   12  C   UNK A   0       9.331   6.101  87.981  1.00  0.00     0.021 A 
HETATM   13  C   UNK A   0       8.304   6.657  87.219  1.00  0.00     0.010 A 
BRANCH  11  14
HETATM   14  C   UNK A   0      10.158   5.187  90.093  1.00  0.00    -0.061 C 
HETATM   15  C   UNK A   0      11.043   4.707  90.749  1.00  0.00    -0.061 C 
BRANCH  15  16
HETATM   16  C   UNK A   0      12.097   4.135  91.529  1.00  0.00     0.018 A 
HETATM   17  C   UNK A   0      13.358   3.947  90.963  1.00  0.00     0.022 A 
HETATM   18  C   UNK A   0      14.387   3.393  91.725  1.00  0.00     0.018 A 
HETATM   19  C   UNK A   0      14.131   3.040  93.033  1.00  0.00     0.032 A 
HETATM   20  C   UNK A   0      12.893   3.215  93.615  1.00  0.00     0.018 A 
HETATM   21  C   UNK A   0      11.864   3.769  92.854  1.00  0.00     0.022 A 
BRANCH  19  22
HETATM   22  C   UNK A   0      15.227   2.447  93.844  1.00  0.00     0.252 C 
HETATM   23  O   UNK A   0      16.378   2.842  93.676  1.00  0.00    -0.268 OA
ENDBRANCH  19  22
ENDBRANCH  15  16
ENDBRANCH  11  14
ENDBRANCH   7   8
ENDBRANCH   2   7
TORSDOF 9
ENDMDL
MODEL 4
REMARK VINA RESULT:      -7.0      1.392      1.968
REMARK  9 active torsions:
REMARK  status: ('A' for Active; 'I' for Inactive)
REMARK    1  A    between atoms: N_3  and  C_6 
REMARK    2  A    between atoms: C_6  and  C_9 
REMARK    3  A    between atoms: C_14  and  C_17 
REMARK       I    between atoms: N_26  and  C_15 
REMARK    4  A    between atoms: C_15  and  C_16 
REMARK    5  A    between atoms: C_20  and  C_23 
REMARK    6  A    between atoms: OG1_24  and  CB_28 
REMARK    7  A    between atoms: N_26  and  CA_27 
REMARK    8  A    between atoms: CA_27  and  CB_28 
REMARK    9  A    between atoms: CA_27  and  C_30 
ROOT
HETATM    1  O   UNK A   0       4.810  11.098  88.674  1.00  0.00    -0.388 OA
HETATM    2  N   UNK A   0       5.342   8.303  88.583  1.00  0.00     0.096 N 
HETATM    3  C   UNK A   0       6.407   9.279  88.856  1.00  0.00     0.299 C 
HETATM    4  C   UNK A   0       4.301   8.915  87.747  1.00  0.00     0.299 C 
HETATM    5  C   UNK A   0       5.812  10.522  89.514  1.00  0.00     0.198 C 
HETATM    6  C   UNK A   0       3.756  10.165  88.429  1.00  0.00     0.198 C 
ENDROOT
BRANCH   2   7
HETATM    7  C   UNK A   0       5.888   7.108  87.943  1.00  0.00     0.311 C 
BRANCH   7   8
HETATM    8  C   UNK A   0       7.066   6.559  88.673  1.00  0.00    -0.030 A 
HETATM    9  C   UNK A   0       8.335   6.624  88.097  1.00  0.00     0.010 A 
HETATM   10  C   UNK A   0       9.438   6.109  88.779  1.00  0.00     0.021 A 
HETATM   11  C   UNK A   0       9.271   5.532  90.037  1.00  0.00     0.018 A 
HETATM   12  C   UNK A   0       8.004   5.468  90.614  1.00  0.00     0.021 A 
HETATM   13  C   UNK A   0       6.901   5.982  89.932  1.00  0.00     0.010 A 
BRANCH  11  14
HETATM   14  C   UNK A   0      10.402   5.006  90.738  1.00  0.00    -0.061 C 
HETATM   15  C   UNK A   0      11.353   4.564  91.326  1.00  0.00    -0.061 C 
BRANCH  15  16
HETATM   16  C   UNK A   0      12.483   4.037  92.026  1.00  0.00     0.018 A 
HETATM   17  C   UNK A   0      12.376   3.715  93.379  1.00  0.00     0.022 A 
HETATM   18  C   UNK A   0      13.479   3.199  94.060  1.00  0.00     0.018 A 
HETATM   19  C   UNK A   0      14.661   3.016  93.374  1.00  0.00     0.032 A 
HETATM   20  C   UNK A   0      14.792   3.327  92.037  1.00  0.00     0.018 A 
HETATM   21  C   UNK A   0      13.690   3.843  91.354  1.00  0.00     0.022 A 
BRANCH  19  22
HETATM   22  C   UNK A   0      15.835   2.468  94.101  1.00  0.00     0.252 C 
HETATM   23  O   UNK A   0      16.966   2.773  93.730  1.00  0.00    -0.268 OA
ENDBRANCH  19  22
ENDBRANCH  15  16
ENDBRANCH  11  14
ENDBRANCH   7   8
ENDBRANCH   2   7
TORSDOF 9
ENDMDL
MODEL 5
REMARK VINA RESULT:      -6.6      3.879     10.451
REMARK  9 active torsions:
REMARK  status: ('A' for Active; 'I' for Inactive)
REMARK    1  A    between atoms: N_3  and  C_6 
REMARK    2  A    between atoms: C_6  and  C_9 
REMARK    3  A    between atoms: C_14  and  C_17 
REMARK       I    between atoms: N_26  and  C_15 
REMARK    4  A    between atoms: C_15  and  C_16 
REMARK    5  A    between atoms: C_20  and  C_23 
REMARK    6  A    between atoms: OG1_24  and  CB_28 
REMARK    7  A    between atoms: N_26  and  CA_27 
REMARK    8  A    between atoms: CA_27  and  CB_28 
REMARK    9  A    between atoms: CA_27  and  C_30 
ROOT
HETATM    1  O   UNK A   0      14.642   3.335  92.108  1.00  0.00    -0.388 OA
HETATM    2  N   UNK A   0      11.928   4.173  92.297  1.00  0.00     0.096 N 
HETATM    3  C   UNK A   0      12.552   3.350  93.342  1.00  0.00     0.299 C 
HETATM    4  C   UNK A   0      12.561   3.902  90.998  1.00  0.00     0.299 C 
HETATM    5  C   UNK A   0      14.055   3.616  93.381  1.00  0.00     0.198 C 
HETATM    6  C   UNK A   0      14.063   4.153  91.091  1.00  0.00     0.198 C 
ENDROOT
BRANCH   2   7
HETATM    7  C   UNK A   0      10.489   3.927  92.235  1.00  0.00     0.311 C 
BRANCH   7   8
HETATM    8  C   UNK A   0       9.713   5.165  91.937  1.00  0.00    -0.030 A 
HETATM    9  C   UNK A   0       9.909   6.312  92.709  1.00  0.00     0.010 A 
HETATM   10  C   UNK A   0       9.182   7.470  92.433  1.00  0.00     0.021 A 
HETATM   11  C   UNK A   0       8.263   7.482  91.385  1.00  0.00     0.018 A 
HETATM   12  C   UNK A   0       8.067   6.338  90.614  1.00  0.00     0.021 A 
HETATM   13  C   UNK A   0       8.793   5.179  90.890  1.00  0.00     0.010 A 
BRANCH  11  14
HETATM   14  C   UNK A   0       7.519   8.671  91.100  1.00  0.00    -0.061 C 
HETATM   15  C   UNK A   0       6.895   9.670  90.862  1.00  0.00    -0.061 C 
BRANCH  15  16
HETATM   16  C   UNK A   0       6.153  10.859  90.577  1.00  0.00     0.018 A 
HETATM   17  C   UNK A   0       6.309  11.499  89.347  1.00  0.00     0.022 A 
HETATM   18  C   UNK A   0       5.582  12.657  89.069  1.00  0.00     0.018 A 
HETATM   19  C   UNK A   0       4.716  13.147  90.024  1.00  0.00     0.032 A 
HETATM   20  C   UNK A   0       4.545  12.532  91.246  1.00  0.00     0.018 A 
HETATM   21  C   UNK A   0       5.271  11.375  91.526  1.00  0.00     0.022 A 
BRANCH  19  22
HETATM   22  C   UNK A   0       3.944  14.381  89.727  1.00  0.00     0.252 C 
HETATM   23  O   UNK A   0       4.504  15.472  89.804  1.00  0.00    -0.268 OA
ENDBRANCH  19  22
ENDBRANCH  15  16
ENDBRANCH  11  14
ENDBRANCH   7   8
ENDBRANCH   2   7
TORSDOF 9
ENDMDL
MODEL 6
REMARK VINA RESULT:      -6.6      1.675      2.058
REMARK  9 active torsions:
REMARK  status: ('A' for Active; 'I' for Inactive)
REMARK    1  A    between atoms: N_3  and  C_6 
REMARK    2  A    between atoms: C_6  and  C_9 
REMARK    3  A    between atoms: C_14  and  C_17 
REMARK       I    between atoms: N_26  and  C_15 
REMARK    4  A    between atoms: C_15  and  C_16 
REMARK    5  A    between atoms: C_20  and  C_23 
REMARK    6  A    between atoms: OG1_24  and  CB_28 
REMARK    7  A    between atoms: N_26  and  CA_27 
REMARK    8  A    between atoms: CA_27  and  CB_28 
REMARK    9  A    between atoms: CA_27  and  C_30 
ROOT
HETATM    1  O   UNK A   0       2.729  11.614  90.001  1.00  0.00    -0.388 OA
HETATM    2  N   UNK A   0       4.526   9.596  89.105  1.00  0.00     0.096 N 
HETATM    3  C   UNK A   0       3.991  10.611  88.186  1.00  0.00     0.299 C 
HETATM    4  C   UNK A   0       3.568   9.346  90.191  1.00  0.00     0.299 C 
HETATM    5  C   UNK A   0       3.668  11.888  88.959  1.00  0.00     0.198 C 
HETATM    6  C   UNK A   0       3.254  10.651  90.915  1.00  0.00     0.198 C 
ENDROOT
BRANCH   2   7
HETATM    7  C   UNK A   0       4.833   8.360  88.387  1.00  0.00     0.311 C 
BRANCH   7   8
HETATM    8  C   UNK A   0       6.015   7.651  88.957  1.00  0.00    -0.030 A 
HETATM    9  C   UNK A   0       5.842   6.450  89.645  1.00  0.00     0.010 A 
HETATM   10  C   UNK A   0       6.946   5.788  90.180  1.00  0.00     0.021 A 
HETATM   11  C   UNK A   0       8.223   6.326  90.025  1.00  0.00     0.018 A 
HETATM   12  C   UNK A   0       8.397   7.525  89.337  1.00  0.00     0.021 A 
HETATM   13  C   UNK A   0       7.293   8.188  88.803  1.00  0.00     0.010 A 
BRANCH  11  14
HETATM   14  C   UNK A   0       9.357   5.645  90.572  1.00  0.00    -0.061 C 
HETATM   15  C   UNK A   0      10.309   5.073  91.032  1.00  0.00    -0.061 C 
BRANCH  15  16
HETATM   16  C   UNK A   0      11.441   4.392  91.578  1.00  0.00     0.018 A 
HETATM   17  C   UNK A   0      11.441   4.007  92.920  1.00  0.00     0.022 A 
HETATM   18  C   UNK A   0      12.545   3.340  93.452  1.00  0.00     0.018 A 
HETATM   19  C   UNK A   0      13.621   3.073  92.632  1.00  0.00     0.032 A 
HETATM   20  C   UNK A   0      13.645   3.442  91.304  1.00  0.00     0.018 A 
HETATM   21  C   UNK A   0      12.542   4.109  90.770  1.00  0.00     0.022 A 
BRANCH  19  22
HETATM   22  C   UNK A   0      14.797   2.364  93.200  1.00  0.00     0.252 C 
HETATM   23  O   UNK A   0      15.899   2.906  93.164  1.00  0.00    -0.268 OA
ENDBRANCH  19  22
ENDBRANCH  15  16
ENDBRANCH  11  14
ENDBRANCH   7   8
ENDBRANCH   2   7
TORSDOF 9
ENDMDL
MODEL 7
REMARK VINA RESULT:      -6.6      3.890     10.397
REMARK  9 active torsions:
REMARK  status: ('A' for Active; 'I' for Inactive)
REMARK    1  A    between atoms: N_3  and  C_6 
REMARK    2  A    between atoms: C_6  and  C_9 
REMARK    3  A    between atoms: C_14  and  C_17 
REMARK       I    between atoms: N_26  and  C_15 
REMARK    4  A    between atoms: C_15  and  C_16 
REMARK    5  A    between atoms: C_20  and  C_23 
REMARK    6  A    between atoms: OG1_24  and  CB_28 
REMARK    7  A    between atoms: N_26  and  CA_27 
REMARK    8  A    between atoms: CA_27  and  CB_28 
REMARK    9  A    between atoms: CA_27  and  C_30 
ROOT
HETATM    1  O   UNK A   0      14.598   3.374  92.167  1.00  0.00    -0.388 OA
HETATM    2  N   UNK A   0      11.871   4.190  92.222  1.00  0.00     0.096 N 
HETATM    3  C   UNK A   0      12.440   3.342  93.278  1.00  0.00     0.299 C 
HETATM    4  C   UNK A   0      12.579   3.958  90.955  1.00  0.00     0.299 C 
HETATM    5  C   UNK A   0      13.937   3.615  93.411  1.00  0.00     0.198 C 
HETATM    6  C   UNK A   0      14.071   4.216  91.141  1.00  0.00     0.198 C 
ENDROOT
BRANCH   2   7
HETATM    7  C   UNK A   0      10.439   3.937  92.070  1.00  0.00     0.311 C 
BRANCH   7   8
HETATM    8  C   UNK A   0       9.668   5.184  91.799  1.00  0.00    -0.030 A 
HETATM    9  C   UNK A   0       9.803   6.284  92.646  1.00  0.00     0.010 A 
HETATM   10  C   UNK A   0       9.081   7.450  92.394  1.00  0.00     0.021 A 
HETATM   11  C   UNK A   0       8.225   7.516  91.295  1.00  0.00     0.018 A 
HETATM   12  C   UNK A   0       8.090   6.417  90.448  1.00  0.00     0.021 A 
HETATM   13  C   UNK A   0       8.812   5.251  90.700  1.00  0.00     0.010 A 
BRANCH  11  14
HETATM   14  C   UNK A   0       7.486   8.713  91.035  1.00  0.00    -0.061 C 
HETATM   15  C   UNK A   0       6.864   9.719  90.818  1.00  0.00    -0.061 C 
BRANCH  15  16
HETATM   16  C   UNK A   0       6.126  10.916  90.559  1.00  0.00     0.018 A 
HETATM   17  C   UNK A   0       5.257  11.421  91.526  1.00  0.00     0.022 A 
HETATM   18  C   UNK A   0       4.539  12.590  91.274  1.00  0.00     0.018 A 
HETATM   19  C   UNK A   0       4.706  13.227  90.062  1.00  0.00     0.032 A 
HETATM   20  C   UNK A   0       5.559  12.747  89.090  1.00  0.00     0.018 A 
HETATM   21  C   UNK A   0       6.277  11.578  89.341  1.00  0.00     0.022 A 
BRANCH  19  22
HETATM   22  C   UNK A   0       3.940  14.471  89.793  1.00  0.00     0.252 C 
HETATM   23  O   UNK A   0       4.538  15.542  89.726  1.00  0.00    -0.268 OA
ENDBRANCH  19  22
ENDBRANCH  15  16
ENDBRANCH  11  14
ENDBRANCH   7   8
ENDBRANCH   2   7
TORSDOF 9
ENDMDL
MODEL 8
REMARK VINA RESULT:      -6.5      3.179     10.326
REMARK  9 active torsions:
REMARK  status: ('A' for Active; 'I' for Inactive)
REMARK    1  A    between atoms: N_3  and  C_6 
REMARK    2  A    between atoms: C_6  and  C_9 
REMARK    3  A    between atoms: C_14  and  C_17 
REMARK       I    between atoms: N_26  and  C_15 
REMARK    4  A    between atoms: C_15  and  C_16 
REMARK    5  A    between atoms: C_20  and  C_23 
REMARK    6  A    between atoms: OG1_24  and  CB_28 
REMARK    7  A    between atoms: N_26  and  CA_27 
REMARK    8  A    between atoms: CA_27  and  CB_28 
REMARK    9  A    between atoms: CA_27  and  C_30 
ROOT
HETATM    1  O   UNK A   0      16.238   3.300  93.619  1.00  0.00    -0.388 OA
HETATM    2  N   UNK A   0      13.566   2.856  92.744  1.00  0.00     0.096 N 
HETATM    3  C   UNK A   0      14.456   1.740  93.091  1.00  0.00     0.299 C 
HETATM    4  C   UNK A   0      14.355   3.996  92.257  1.00  0.00     0.299 C 
HETATM    5  C   UNK A   0      15.482   2.198  94.124  1.00  0.00     0.198 C 
HETATM    6  C   UNK A   0      15.383   4.401  93.309  1.00  0.00     0.198 C 
ENDROOT
BRANCH   2   7
HETATM    7  C   UNK A   0      12.580   2.443  91.747  1.00  0.00     0.311 C 
BRANCH   7   8
HETATM    8  C   UNK A   0      11.621   3.533  91.410  1.00  0.00    -0.030 A 
HETATM    9  C   UNK A   0      10.913   4.176  92.425  1.00  0.00     0.010 A 
HETATM   10  C   UNK A   0      10.014   5.195  92.111  1.00  0.00     0.021 A 
HETATM   11  C   UNK A   0       9.824   5.571  90.782  1.00  0.00     0.018 A 
HETATM   12  C   UNK A   0      10.531   4.929  89.767  1.00  0.00     0.021 A 
HETATM   13  C   UNK A   0      11.430   3.910  90.080  1.00  0.00     0.010 A 
BRANCH  11  14
HETATM   14  C   UNK A   0       8.903   6.617  90.460  1.00  0.00    -0.061 C 
HETATM   15  C   UNK A   0       8.130   7.497  90.189  1.00  0.00    -0.061 C 
BRANCH  15  16
HETATM   16  C   UNK A   0       7.210   8.543  89.866  1.00  0.00     0.018 A 
HETATM   17  C   UNK A   0       5.963   8.230  89.323  1.00  0.00     0.022 A 
HETATM   18  C   UNK A   0       5.065   9.250  89.011  1.00  0.00     0.018 A 
HETATM   19  C   UNK A   0       5.432  10.558  89.249  1.00  0.00     0.032 A 
HETATM   20  C   UNK A   0       6.658  10.893  89.785  1.00  0.00     0.018 A 
HETATM   21  C   UNK A   0       7.557   9.874  90.097  1.00  0.00     0.022 A 
BRANCH  19  22
HETATM   22  C   UNK A   0       4.475  11.645  88.914  1.00  0.00     0.252 C 
HETATM   23  O   UNK A   0       4.572  12.217  87.831  1.00  0.00    -0.268 OA
ENDBRANCH  19  22
ENDBRANCH  15  16
ENDBRANCH  11  14
ENDBRANCH   7   8
ENDBRANCH   2   7
TORSDOF 9
ENDMDL
MODEL 9
REMARK VINA RESULT:      -6.4      3.744     10.265
REMARK  9 active torsions:
REMARK  status: ('A' for Active; 'I' for Inactive)
REMARK    1  A    between atoms: N_3  and  C_6 
REMARK    2  A    between atoms: C_6  and  C_9 
REMARK    3  A    between atoms: C_14  and  C_17 
REMARK       I    between atoms: N_26  and  C_15 
REMARK    4  A    between atoms: C_15  and  C_16 
REMARK    5  A    between atoms: C_20  and  C_23 
REMARK    6  A    between atoms: OG1_24  and  CB_28 
REMARK    7  A    between atoms: N_26  and  CA_27 
REMARK    8  A    between atoms: CA_27  and  CB_28 
REMARK    9  A    between atoms: CA_27  and  C_30 
ROOT
HETATM    1  O   UNK A   0      14.303   2.918  92.507  1.00  0.00    -0.388 OA
HETATM    2  N   UNK A   0      12.062   3.997  91.124  1.00  0.00     0.096 N 
HETATM    3  C   UNK A   0      11.983   2.708  91.824  1.00  0.00     0.299 C 
HETATM    4  C   UNK A   0      13.437   4.239  90.667  1.00  0.00     0.299 C 
HETATM    5  C   UNK A   0      12.975   2.688  92.984  1.00  0.00     0.198 C 
HETATM    6  C   UNK A   0      14.395   4.183  91.853  1.00  0.00     0.198 C 
ENDROOT
BRANCH   2   7
HETATM    7  C   UNK A   0      11.127   4.034  90.001  1.00  0.00     0.311 C 
BRANCH   7   8
HETATM    8  C   UNK A   0      10.286   5.266  90.002  1.00  0.00    -0.030 A 
HETATM    9  C   UNK A   0       9.783   5.766  88.800  1.00  0.00     0.010 A 
HETATM   10  C   UNK A   0       8.998   6.920  88.800  1.00  0.00     0.021 A 
HETATM   11  C   UNK A   0       8.716   7.570  90.000  1.00  0.00     0.018 A 
HETATM   12  C   UNK A   0       9.218   7.071  91.201  1.00  0.00     0.021 A 
HETATM   13  C   UNK A   0      10.003   5.918  91.202  1.00  0.00     0.010 A 
BRANCH  11  14
HETATM   14  C   UNK A   0       7.910   8.752  90.000  1.00  0.00    -0.061 C 
HETATM   15  C   UNK A   0       7.232   9.745  89.999  1.00  0.00    -0.061 C 
BRANCH  15  16
HETATM   16  C   UNK A   0       6.425  10.926  89.998  1.00  0.00     0.018 A 
HETATM   17  C   UNK A   0       5.524  11.154  91.038  1.00  0.00     0.022 A 
HETATM   18  C   UNK A   0       4.739  12.307  91.038  1.00  0.00     0.018 A 
HETATM   19  C   UNK A   0       4.873  13.205  90.000  1.00  0.00     0.032 A 
HETATM   20  C   UNK A   0       5.757  13.002  88.960  1.00  0.00     0.018 A 
HETATM   21  C   UNK A   0       6.542  11.849  88.959  1.00  0.00     0.022 A 
BRANCH  19  22
HETATM   22  C   UNK A   0       4.036  14.433  89.999  1.00  0.00     0.252 C 
HETATM   23  O   UNK A   0       4.549  15.509  89.705  1.00  0.00    -0.268 OA
ENDBRANCH  19  22
ENDBRANCH  15  16
ENDBRANCH  11  14
ENDBRANCH   7   8
ENDBRANCH   2   7
TORSDOF 9
ENDMDL
