MODEL 1
REMARK VINA RESULT:      -6.9      0.000      0.000
REMARK  9 active torsions:
REMARK  status: ('A' for Active; 'I' for Inactive)
REMARK    1  A    between atoms: O_2  and  C_17 
REMARK    2  A    between atoms: N_5  and  C_10 
REMARK    3  A    between atoms: N_6  and  C_14 
REMARK       I    between atoms: N_6  and  C_23 
REMARK       I    between atoms: N_7  and  C_22 
REMARK    4  A    between atoms: C_10  and  C_13 
REMARK    5  A    between atoms: C_14  and  C_17 
REMARK    6  A    between atoms: C_14  and  C_22 
REMARK    7  A    between atoms: C_20  and  C_25 
REMARK    8  A    between atoms: C_23  and  C_24 
REMARK    9  A    between atoms: C_28  and  C_31 
ROOT
HETATM    1  O   UNL     1      16.688   3.415  93.691  1.00  0.00    -0.388 OA
HETATM    2  N   UNL     1      14.006   2.774  92.986  1.00  0.00     0.096 N 
HETATM    3  C   UNL     1      15.032   1.732  93.128  1.00  0.00     0.299 C 
HETATM    4  C   UNL     1      14.628   4.040  92.574  1.00  0.00     0.299 C 
HETATM    5  C   UNL     1      16.097   2.187  94.123  1.00  0.00     0.198 C 
HETATM    6  C   UNL     1      15.702   4.441  93.580  1.00  0.00     0.198 C 
ENDROOT
BRANCH   2   7
HETATM    7  C   UNL     1      12.980   2.364  92.029  1.00  0.00     0.311 C 
BRANCH   7   8
HETATM    8  C   UNL     1      12.033   3.468  91.702  1.00  0.00    -0.030 A 
HETATM    9  C   UNL     1      11.389   4.159  92.729  1.00  0.00     0.010 A 
HETATM   10  C   UNL     1      10.501   5.191  92.425  1.00  0.00     0.021 A 
HETATM   11  C   UNL     1      10.260   5.532  91.094  1.00  0.00     0.018 A 
HETATM   12  C   UNL     1      10.903   4.843  90.068  1.00  0.00     0.021 A 
HETATM   13  C   UNL     1      11.790   3.810  90.372  1.00  0.00     0.010 A 
BRANCH  11  14
HETATM   14  C   UNL     1       9.350   6.592  90.782  1.00  0.00    -0.061 C 
HETATM   15  C   UNL     1       8.586   7.482  90.520  1.00  0.00    -0.061 C 
BRANCH  15  16
HETATM   16  C   UNL     1       7.677   8.541  90.209  1.00  0.00     0.018 A 
HETATM   17  C   UNL     1       8.127   9.862  90.187  1.00  0.00     0.022 A 
HETATM   18  C   UNL     1       7.240  10.894  89.881  1.00  0.00     0.018 A 
HETATM   19  C   UNL     1       5.926  10.583  89.602  1.00  0.00     0.032 A 
HETATM   20  C   UNL     1       5.457   9.287  89.617  1.00  0.00     0.018 A 
HETATM   21  C   UNL     1       6.342   8.253  89.924  1.00  0.00     0.022 A 
BRANCH  19  22
HETATM   22  C   UNL     1       4.981  11.684  89.278  1.00  0.00     0.252 C 
HETATM   23  O   UNL     1       4.609  11.832  88.117  1.00  0.00    -0.268 OA
HETATM   24  N   UNL     1       4.565  12.463  90.349  1.00  0.00    -0.342 N 
HETATM   25  H   UNL     1       4.896  12.265  91.286  1.00  0.00     0.163 HD
BRANCH  24  26
HETATM   26  C   UNL     1       3.633  13.552  90.199  1.00  0.00     0.199 C 
BRANCH  26  27
HETATM   27  C   UNL     1       2.586  13.594  91.319  1.00  0.00     0.145 C 
HETATM   28  C   UNL     1       3.185  13.304  92.691  1.00  0.00     0.042 C 
BRANCH  27  29
HETATM   29  O   UNL     1       1.967  14.880  91.346  1.00  0.00    -0.393 OA
HETATM   30  H   UNL     1       1.521  15.022  90.494  1.00  0.00     0.210 HD
ENDBRANCH  27  29
ENDBRANCH  26  27
BRANCH  26  31
HETATM   31  C   UNL     1       4.435  14.847  90.141  1.00  0.00     0.220 C 
HETATM   32  O   UNL     1       4.584  15.587  91.112  1.00  0.00    -0.278 OA
HETATM   33  N   UNL     1       4.928  15.097  88.883  1.00  0.00    -0.271 NA
HETATM   34  H   UNL     1       4.750  14.558  88.044  1.00  0.00     0.127 HD
HETATM   35  H   UNL     1       4.513  16.073  87.963  1.00  0.00     0.127 HD
ENDBRANCH  26  31
ENDBRANCH  24  26
ENDBRANCH  19  22
ENDBRANCH  15  16
ENDBRANCH  11  14
ENDBRANCH   7   8
ENDBRANCH   2   7
TORSDOF 9
ENDMDL
MODEL 2
REMARK VINA RESULT:      -6.4      2.001      2.783
REMARK  9 active torsions:
REMARK  status: ('A' for Active; 'I' for Inactive)
REMARK    1  A    between atoms: O_2  and  C_17 
REMARK    2  A    between atoms: N_5  and  C_10 
REMARK    3  A    between atoms: N_6  and  C_14 
REMARK       I    between atoms: N_6  and  C_23 
REMARK       I    between atoms: N_7  and  C_22 
REMARK    4  A    between atoms: C_10  and  C_13 
REMARK    5  A    between atoms: C_14  and  C_17 
REMARK    6  A    between atoms: C_14  and  C_22 
REMARK    7  A    between atoms: C_20  and  C_25 
REMARK    8  A    between atoms: C_23  and  C_24 
REMARK    9  A    between atoms: C_28  and  C_31 
ROOT
HETATM    1  O   UNL     1      16.695   2.981  93.679  1.00  0.00    -0.388 OA
HETATM    2  N   UNL     1      13.902   2.868  93.144  1.00  0.00     0.096 N 
HETATM    3  C   UNL     1      14.724   1.651  93.194  1.00  0.00     0.299 C 
HETATM    4  C   UNL     1      14.721   4.012  92.718  1.00  0.00     0.299 C 
HETATM    5  C   UNL     1      15.915   1.869  94.124  1.00  0.00     0.198 C 
HETATM    6  C   UNL     1      15.912   4.174  93.658  1.00  0.00     0.198 C 
ENDROOT
BRANCH   2   7
HETATM    7  C   UNL     1      12.760   2.685  92.250  1.00  0.00     0.311 C 
BRANCH   7   8
HETATM    8  C   UNL     1      11.796   3.821  92.320  1.00  0.00    -0.030 A 
HETATM    9  C   UNL     1      11.380   4.454  91.149  1.00  0.00     0.010 A 
HETATM   10  C   UNL     1      10.480   5.517  91.213  1.00  0.00     0.021 A 
HETATM   11  C   UNL     1       9.996   5.946  92.449  1.00  0.00     0.018 A 
HETATM   12  C   UNL     1      10.411   5.314  93.619  1.00  0.00     0.021 A 
HETATM   13  C   UNL     1      11.311   4.251  93.555  1.00  0.00     0.010 A 
BRANCH  11  14
HETATM   14  C   UNL     1       9.071   7.036  92.514  1.00  0.00    -0.061 C 
HETATM   15  C   UNL     1       8.294   7.952  92.569  1.00  0.00    -0.061 C 
BRANCH  15  16
HETATM   16  C   UNL     1       7.369   9.040  92.634  1.00  0.00     0.018 A 
HETATM   17  C   UNL     1       6.510   9.289  91.563  1.00  0.00     0.022 A 
HETATM   18  C   UNL     1       5.607  10.350  91.628  1.00  0.00     0.018 A 
HETATM   19  C   UNL     1       5.581  11.136  92.760  1.00  0.00     0.032 A 
HETATM   20  C   UNL     1       6.420  10.911  93.832  1.00  0.00     0.018 A 
HETATM   21  C   UNL     1       7.325   9.851  93.768  1.00  0.00     0.022 A 
BRANCH  19  22
HETATM   22  C   UNL     1       4.620  12.267  92.828  1.00  0.00     0.252 C 
HETATM   23  O   UNL     1       4.144  12.586  93.915  1.00  0.00    -0.268 OA
HETATM   24  N   UNL     1       4.347  12.906  91.626  1.00  0.00    -0.342 N 
HETATM   25  H   UNL     1       4.797  12.602  90.771  1.00  0.00     0.163 HD
BRANCH  24  26
HETATM   26  C   UNL     1       3.455  14.033  91.533  1.00  0.00     0.199 C 
BRANCH  26  27
HETATM   27  C   UNL     1       3.336  14.579  90.104  1.00  0.00     0.145 C 
HETATM   28  C   UNL     1       4.692  14.900  89.487  1.00  0.00     0.042 C 
BRANCH  27  29
HETATM   29  O   UNL     1       2.667  13.622  89.282  1.00  0.00    -0.393 OA
HETATM   30  H   UNL     1       2.913  12.733  89.588  1.00  0.00     0.210 HD
ENDBRANCH  27  29
ENDBRANCH  26  27
BRANCH  26  31
HETATM   31  C   UNL     1       2.097  13.600  92.076  1.00  0.00     0.220 C 
HETATM   32  O   UNL     1       1.467  12.647  91.620  1.00  0.00    -0.278 OA
HETATM   33  N   UNL     1       1.659  14.416  93.090  1.00  0.00    -0.271 NA
HETATM   34  H   UNL     1       2.109  15.258  93.428  1.00  0.00     0.127 HD
HETATM   35  H   UNL     1       0.621  15.360  93.063  1.00  0.00     0.127 HD
ENDBRANCH  26  31
ENDBRANCH  24  26
ENDBRANCH  19  22
ENDBRANCH  15  16
ENDBRANCH  11  14
ENDBRANCH   7   8
ENDBRANCH   2   7
TORSDOF 9
ENDMDL
MODEL 3
REMARK VINA RESULT:      -5.3      2.008     12.461
REMARK  9 active torsions:
REMARK  status: ('A' for Active; 'I' for Inactive)
REMARK    1  A    between atoms: O_2  and  C_17 
REMARK    2  A    between atoms: N_5  and  C_10 
REMARK    3  A    between atoms: N_6  and  C_14 
REMARK       I    between atoms: N_6  and  C_23 
REMARK       I    between atoms: N_7  and  C_22 
REMARK    4  A    between atoms: C_10  and  C_13 
REMARK    5  A    between atoms: C_14  and  C_17 
REMARK    6  A    between atoms: C_14  and  C_22 
REMARK    7  A    between atoms: C_20  and  C_25 
REMARK    8  A    between atoms: C_23  and  C_24 
REMARK    9  A    between atoms: C_28  and  C_31 
ROOT
HETATM    1  O   UNL     1       5.422  14.632  88.642  1.00  0.00    -0.388 OA
HETATM    2  N   UNL     1       3.615  13.161  90.277  1.00  0.00     0.096 N 
HETATM    3  C   UNL     1       4.250  14.398  90.754  1.00  0.00     0.299 C 
HETATM    4  C   UNL     1       4.486  12.493  89.300  1.00  0.00     0.299 C 
HETATM    5  C   UNL     1       4.568  15.306  89.568  1.00  0.00     0.198 C 
HETATM    6  C   UNL     1       4.800  13.444  88.150  1.00  0.00     0.198 C 
ENDROOT
BRANCH   2   7
HETATM    7  C   UNL     1       3.310  12.271  91.396  1.00  0.00     0.311 C 
BRANCH   7   8
HETATM    8  C   UNL     1       4.375  11.251  91.617  1.00  0.00    -0.030 A 
HETATM    9  C   UNL     1       5.371  11.478  92.566  1.00  0.00     0.010 A 
HETATM   10  C   UNL     1       6.369  10.525  92.772  1.00  0.00     0.021 A 
HETATM   11  C   UNL     1       6.368   9.345  92.029  1.00  0.00     0.018 A 
HETATM   12  C   UNL     1       5.373   9.117  91.081  1.00  0.00     0.021 A 
HETATM   13  C   UNL     1       4.376  10.070  90.874  1.00  0.00     0.010 A 
BRANCH  11  14
HETATM   14  C   UNL     1       7.390   8.367  92.242  1.00  0.00    -0.061 C 
HETATM   15  C   UNL     1       8.249   7.545  92.421  1.00  0.00    -0.061 C 
BRANCH  15  16
HETATM   16  C   UNL     1       9.270   6.567  92.634  1.00  0.00     0.018 A 
HETATM   17  C   UNL     1       9.869   6.447  93.888  1.00  0.00     0.022 A 
HETATM   18  C   UNL     1      10.863   5.491  94.096  1.00  0.00     0.018 A 
HETATM   19  C   UNL     1      11.234   4.676  93.048  1.00  0.00     0.032 A 
HETATM   20  C   UNL     1      10.657   4.775  91.799  1.00  0.00     0.018 A 
HETATM   21  C   UNL     1       9.663   5.731  91.589  1.00  0.00     0.022 A 
BRANCH  19  22
HETATM   22  C   UNL     1      12.295   3.659  93.269  1.00  0.00     0.252 C 
HETATM   23  O   UNL     1      11.988   2.470  93.298  1.00  0.00    -0.268 OA
HETATM   24  N   UNL     1      13.587   4.147  93.406  1.00  0.00    -0.342 N 
HETATM   25  H   UNL     1      13.768   5.143  93.346  1.00  0.00     0.163 HD
BRANCH  24  26
HETATM   26  C   UNL     1      14.725   3.286  93.602  1.00  0.00     0.199 C 
BRANCH  26  27
HETATM   27  C   UNL     1      15.000   2.381  92.394  1.00  0.00     0.145 C 
HETATM   28  C   UNL     1      14.642   3.050  91.071  1.00  0.00     0.042 C 
BRANCH  27  29
HETATM   29  O   UNL     1      16.380   2.020  92.373  1.00  0.00    -0.393 OA
HETATM   30  H   UNL     1      16.480   1.229  91.816  1.00  0.00     0.210 HD
ENDBRANCH  27  29
ENDBRANCH  26  27
BRANCH  26  31
HETATM   31  C   UNL     1      15.928   4.168  93.920  1.00  0.00     0.220 C 
HETATM   32  O   UNL     1      15.868   5.396  93.950  1.00  0.00    -0.278 OA
HETATM   33  N   UNL     1      17.071   3.433  94.124  1.00  0.00    -0.271 NA
HETATM   34  H   UNL     1      17.174   2.431  94.019  1.00  0.00     0.127 HD
HETATM   35  H   UNL     1      18.194   3.319  93.290  1.00  0.00     0.127 HD
ENDBRANCH  26  31
ENDBRANCH  24  26
ENDBRANCH  19  22
ENDBRANCH  15  16
ENDBRANCH  11  14
ENDBRANCH   7   8
ENDBRANCH   2   7
TORSDOF 9
ENDMDL
MODEL 4
REMARK VINA RESULT:      -4.6      1.712      2.322
REMARK  9 active torsions:
REMARK  status: ('A' for Active; 'I' for Inactive)
REMARK    1  A    between atoms: O_2  and  C_17 
REMARK    2  A    between atoms: N_5  and  C_10 
REMARK    3  A    between atoms: N_6  and  C_14 
REMARK       I    between atoms: N_6  and  C_23 
REMARK       I    between atoms: N_7  and  C_22 
REMARK    4  A    between atoms: C_10  and  C_13 
REMARK    5  A    between atoms: C_14  and  C_17 
REMARK    6  A    between atoms: C_14  and  C_22 
REMARK    7  A    between atoms: C_20  and  C_25 
REMARK    8  A    between atoms: C_23  and  C_24 
REMARK    9  A    between atoms: C_28  and  C_31 
ROOT
HETATM    1  O   UNL     1      15.235   2.566  94.075  1.00  0.00    -0.388 OA
HETATM    2  N   UNL     1      13.084   2.902  92.242  1.00  0.00     0.096 N 
HETATM    3  C   UNL     1      13.042   3.485  93.590  1.00  0.00     0.299 C 
HETATM    4  C   UNL     1      13.909   1.686  92.245  1.00  0.00     0.299 C 
HETATM    5  C   UNL     1      14.462   3.767  94.076  1.00  0.00     0.198 C 
HETATM    6  C   UNL     1      15.307   2.009  92.762  1.00  0.00     0.198 C 
ENDROOT
BRANCH   2   7
HETATM    7  C   UNL     1      11.735   2.613  91.760  1.00  0.00     0.311 C 
BRANCH   7   8
HETATM    8  C   UNL     1      10.901   3.843  91.635  1.00  0.00    -0.030 A 
HETATM    9  C   UNL     1      10.723   4.439  90.386  1.00  0.00     0.010 A 
HETATM   10  C   UNL     1       9.945   5.591  90.268  1.00  0.00     0.021 A 
HETATM   11  C   UNL     1       9.345   6.145  91.399  1.00  0.00     0.018 A 
HETATM   12  C   UNL     1       9.522   5.550  92.646  1.00  0.00     0.021 A 
HETATM   13  C   UNL     1      10.300   4.399  92.765  1.00  0.00     0.010 A 
BRANCH  11  14
HETATM   14  C   UNL     1       8.545   7.325  91.277  1.00  0.00    -0.061 C 
HETATM   15  C   UNL     1       7.874   8.317  91.176  1.00  0.00    -0.061 C 
BRANCH  15  16
HETATM   16  C   UNL     1       7.076   9.497  91.055  1.00  0.00     0.018 A 
HETATM   17  C   UNL     1       7.059  10.206  89.853  1.00  0.00     0.022 A 
HETATM   18  C   UNL     1       6.278  11.356  89.735  1.00  0.00     0.018 A 
HETATM   19  C   UNL     1       5.532  11.770  90.818  1.00  0.00     0.032 A 
HETATM   20  C   UNL     1       5.532  11.087  92.016  1.00  0.00     0.018 A 
HETATM   21  C   UNL     1       6.312   9.937  92.136  1.00  0.00     0.022 A 
BRANCH  19  22
HETATM   22  C   UNL     1       4.702  12.996  90.692  1.00  0.00     0.252 C 
HETATM   23  O   UNL     1       4.560  13.513  89.586  1.00  0.00    -0.268 OA
HETATM   24  N   UNL     1       4.116  13.457  91.862  1.00  0.00    -0.342 N 
HETATM   25  H   UNL     1       4.257  12.963  92.736  1.00  0.00     0.163 HD
BRANCH  24  26
HETATM   26  C   UNL     1       3.265  14.619  91.898  1.00  0.00     0.199 C 
BRANCH  26  27
HETATM   27  C   UNL     1       1.790  14.282  91.642  1.00  0.00     0.145 C 
HETATM   28  C   UNL     1       1.486  14.079  90.162  1.00  0.00     0.042 C 
BRANCH  27  29
HETATM   29  O   UNL     1       1.441  13.096  92.354  1.00  0.00    -0.393 OA
HETATM   30  H   UNL     1       0.485  12.949  92.251  1.00  0.00     0.210 HD
ENDBRANCH  27  29
ENDBRANCH  26  27
BRANCH  26  31
HETATM   31  C   UNL     1       3.452  15.293  93.254  1.00  0.00     0.220 C 
HETATM   32  O   UNL     1       2.515  15.568  94.000  1.00  0.00    -0.278 OA
HETATM   33  N   UNL     1       4.770  15.582  93.511  1.00  0.00    -0.271 NA
HETATM   34  H   UNL     1       5.554  15.451  92.883  1.00  0.00     0.127 HD
HETATM   35  H   UNL     1       5.400  16.836  93.528  1.00  0.00     0.127 HD
ENDBRANCH  26  31
ENDBRANCH  24  26
ENDBRANCH  19  22
ENDBRANCH  15  16
ENDBRANCH  11  14
ENDBRANCH   7   8
ENDBRANCH   2   7
TORSDOF 9
ENDMDL
MODEL 5
REMARK VINA RESULT:      -4.5      1.775     12.519
REMARK  9 active torsions:
REMARK  status: ('A' for Active; 'I' for Inactive)
REMARK    1  A    between atoms: O_2  and  C_17 
REMARK    2  A    between atoms: N_5  and  C_10 
REMARK    3  A    between atoms: N_6  and  C_14 
REMARK       I    between atoms: N_6  and  C_23 
REMARK       I    between atoms: N_7  and  C_22 
REMARK    4  A    between atoms: C_10  and  C_13 
REMARK    5  A    between atoms: C_14  and  C_17 
REMARK    6  A    between atoms: C_14  and  C_22 
REMARK    7  A    between atoms: C_20  and  C_25 
REMARK    8  A    between atoms: C_23  and  C_24 
REMARK    9  A    between atoms: C_28  and  C_31 
ROOT
HETATM    1  O   UNL     1       2.150  13.516  92.317  1.00  0.00    -0.388 OA
HETATM    2  N   UNL     1       2.992  12.308  89.881  1.00  0.00     0.096 N 
HETATM    3  C   UNL     1       3.312  11.711  91.185  1.00  0.00     0.299 C 
HETATM    4  C   UNL     1       2.865  13.766  90.013  1.00  0.00     0.299 C 
HETATM    5  C   UNL     1       2.243  12.094  92.205  1.00  0.00     0.198 C 
HETATM    6  C   UNL     1       1.809  14.102  91.060  1.00  0.00     0.198 C 
ENDROOT
BRANCH   2   7
HETATM    7  C   UNL     1       4.009  11.962  88.890  1.00  0.00     0.311 C 
BRANCH   7   8
HETATM    8  C   UNL     1       5.012  10.994  89.419  1.00  0.00    -0.030 A 
HETATM    9  C   UNL     1       5.109   9.718  88.862  1.00  0.00     0.010 A 
HETATM   10  C   UNL     1       6.045   8.811  89.358  1.00  0.00     0.021 A 
HETATM   11  C   UNL     1       6.885   9.181  90.408  1.00  0.00     0.018 A 
HETATM   12  C   UNL     1       6.789  10.455  90.964  1.00  0.00     0.021 A 
HETATM   13  C   UNL     1       5.852  11.362  90.469  1.00  0.00     0.010 A 
BRANCH  11  14
HETATM   14  C   UNL     1       7.847   8.251  90.915  1.00  0.00    -0.061 C 
HETATM   15  C   UNL     1       8.656   7.470  91.340  1.00  0.00    -0.061 C 
BRANCH  15  16
HETATM   16  C   UNL     1       9.618   6.541  91.846  1.00  0.00     0.018 A 
HETATM   17  C   UNL     1       9.940   6.543  93.204  1.00  0.00     0.022 A 
HETATM   18  C   UNL     1      10.877   5.635  93.698  1.00  0.00     0.018 A 
HETATM   19  C   UNL     1      11.469   4.746  92.825  1.00  0.00     0.032 A 
HETATM   20  C   UNL     1      11.168   4.725  91.480  1.00  0.00     0.018 A 
HETATM   21  C   UNL     1      10.231   5.632  90.984  1.00  0.00     0.022 A 
BRANCH  19  22
HETATM   22  C   UNL     1      12.468   3.781  93.352  1.00  0.00     0.252 C 
HETATM   23  O   UNL     1      12.093   2.669  93.716  1.00  0.00    -0.268 OA
HETATM   24  N   UNL     1      13.785   4.217  93.368  1.00  0.00    -0.342 N 
HETATM   25  H   UNL     1      14.024   5.141  93.028  1.00  0.00     0.163 HD
BRANCH  24  26
HETATM   26  C   UNL     1      14.871   3.388  93.827  1.00  0.00     0.199 C 
BRANCH  26  27
HETATM   27  C   UNL     1      15.139   2.195  92.901  1.00  0.00     0.145 C 
HETATM   28  C   UNL     1      14.631   0.880  93.481  1.00  0.00     0.042 C 
BRANCH  27  29
HETATM   29  O   UNL     1      14.510   2.419  91.639  1.00  0.00    -0.393 OA
HETATM   30  H   UNL     1      14.755   3.308  91.330  1.00  0.00     0.210 HD
ENDBRANCH  27  29
ENDBRANCH  26  27
BRANCH  26  31
HETATM   31  C   UNL     1      16.106   4.272  93.964  1.00  0.00     0.220 C 
HETATM   32  O   UNL     1      16.062   5.500  93.901  1.00  0.00    -0.278 OA
HETATM   33  N   UNL     1      17.256   3.537  94.123  1.00  0.00    -0.271 NA
HETATM   34  H   UNL     1      17.340   2.528  94.089  1.00  0.00     0.127 HD
HETATM   35  H   UNL     1      18.298   3.339  93.203  1.00  0.00     0.127 HD
ENDBRANCH  26  31
ENDBRANCH  24  26
ENDBRANCH  19  22
ENDBRANCH  15  16
ENDBRANCH  11  14
ENDBRANCH   7   8
ENDBRANCH   2   7
TORSDOF 9
ENDMDL
