MODEL 1
REMARK VINA RESULT:      -7.0      0.000      0.000
REMARK  10 active torsions:
REMARK  status: ('A' for Active; 'I' for Inactive)
REMARK    1  A    between atoms: O_2  and  C_16 
REMARK    2  A    between atoms: N_5  and  C_9 
REMARK    3  A    between atoms: N_6  and  C_13 
REMARK       I    between atoms: N_6  and  C_22 
REMARK    4  A    between atoms: C_9  and  C_12 
REMARK    5  A    between atoms: C_13  and  C_16 
REMARK    6  A    between atoms: C_13  and  C_21 
REMARK    7  A    between atoms: C_19  and  C_24 
REMARK    8  A    between atoms: C_22  and  C_23 
REMARK    9  A    between atoms: C_27  and  C_30 
REMARK   10  A    between atoms: N_33  and  S_34 
ROOT
HETATM    1  C   UNL     1       5.660  10.878  89.459  1.00  0.00     0.056 A 
HETATM    2  C   UNL     1       5.157   9.595  89.520  1.00  0.00     0.005 A 
HETATM    3  C   UNL     1       6.992  11.157  89.679  1.00  0.00     0.005 A 
HETATM    4  C   UNL     1       7.377   8.800  90.042  1.00  0.00     0.042 A 
HETATM    5  C   UNL     1       6.024   8.544  89.816  1.00  0.00     0.008 A 
HETATM    6  C   UNL     1       7.861  10.106  89.974  1.00  0.00     0.008 A 
ENDROOT
BRANCH   1   7
HETATM    7  C   UNL     1       4.735  11.997  89.143  1.00  0.00     0.254 C 
HETATM    8  O   UNL     1       4.486  12.255  87.968  1.00  0.00    -0.268 OA
HETATM    9  N   UNL     1       4.194  12.665  90.232  1.00  0.00    -0.337 N 
HETATM   10  HN  UNL     1       4.427  12.380  91.176  1.00  0.00     0.164 HD
BRANCH   9  11
HETATM   11  C   UNL     1       3.263  13.756  90.089  1.00  0.00     0.172 C 
BRANCH  11  12
HETATM   12  C   UNL     1       1.990  13.563  90.922  1.00  0.00     0.136 C 
HETATM   13  C   UNL     1       2.152  12.493  91.996  1.00  0.00     0.034 C 
BRANCH  12  14
HETATM   14  O   UNL     1       1.636  14.797  91.546  1.00  0.00    -0.383 OA
HETATM   15  H   UNL     1       0.944  15.221  91.011  1.00  0.00     0.210 HD
ENDBRANCH  12  14
ENDBRANCH  11  12
BRANCH  11  16
HETATM   16  C   UNL     1       3.989  15.041  90.475  1.00  0.00     0.398 A 
HETATM   17  O   UNL     1       5.125  15.310  90.090  1.00  0.00    -0.136 OA
HETATM   18  N   UNL     1       4.980  15.625  91.570  1.00  0.00     0.142 N 
HETATM   19  HN  UNL     1       5.907  15.923  91.450  1.00  0.00     0.338 HD
BRANCH  18  20
HETATM   20  S   UNL     1       4.230  15.331  92.703  1.00  0.00     0.076 SA
HETATM   21  H   UNL     1       4.714  15.618  93.750  1.00  0.00     0.136 HD
ENDBRANCH  18  20
ENDBRANCH  11  16
ENDBRANCH   9  11
ENDBRANCH   1   7
BRANCH   4  22
HETATM   22  C   UNL     1       8.266   7.723  90.348  1.00  0.00    -0.059 C 
HETATM   23  C   UNL     1       9.013   6.817  90.604  1.00  0.00    -0.059 C 
BRANCH  23  24
HETATM   24  C   UNL     1       9.903   5.738  90.909  1.00  0.00     0.042 A 
HETATM   25  C   UNL     1      10.759   5.243  89.926  1.00  0.00     0.008 A 
HETATM   26  C   UNL     1      11.625   4.191  90.222  1.00  0.00    -0.002 A 
HETATM   27  C   UNL     1      11.635   3.635  91.502  1.00  0.00     0.011 A 
HETATM   28  C   UNL     1      10.778   4.132  92.485  1.00  0.00    -0.002 A 
HETATM   29  C   UNL     1       9.912   5.184  92.188  1.00  0.00     0.008 A 
BRANCH  27  30
HETATM   30  C   UNL     1      12.563   2.512  91.819  1.00  0.00     0.277 C 
BRANCH  30  31
HETATM   31  N   UNL     1      13.580   2.889  92.798  1.00  0.00     0.147 N 
HETATM   32  C   UNL     1      14.454   1.748  93.106  1.00  0.00     0.283 C 
HETATM   33  C   UNL     1      15.514   2.167  94.121  1.00  0.00     0.178 C 
HETATM   34  O   UNL     1      16.281   3.261  93.616  1.00  0.00    -0.350 OA
HETATM   35  C   UNL     1      15.444   4.385  93.343  1.00  0.00     0.178 C 
HETATM   36  C   UNL     1      14.382   4.019  92.310  1.00  0.00     0.283 C 
ENDBRANCH  30  31
ENDBRANCH  27  30
ENDBRANCH  23  24
ENDBRANCH   4  22
TORSDOF 10
ENDMDL
