MODEL 1
REMARK VINA RESULT:      -7.5      0.000      0.000
REMARK  9 active torsions:
REMARK  status: ('A' for Active; 'I' for Inactive)
REMARK    1  A    between atoms: N_3  and  C_6 
REMARK    2  A    between atoms: C_6  and  C_9 
REMARK    3  A    between atoms: C_14  and  C_17 
REMARK       I    between atoms: N_26  and  C_15 
REMARK    4  A    between atoms: C_15  and  C_16 
REMARK    5  A    between atoms: C_20  and  C_23 
REMARK    6  A    between atoms: OG1_24  and  CB_28 
REMARK    7  A    between atoms: N_26  and  CA_27 
REMARK    8  A    between atoms: CA_27  and  CB_28 
REMARK    9  A    between atoms: CA_27  and  C_30 
ROOT
HETATM    1  O   UNK A   0       1.724   8.079  87.929  1.00  0.00    -0.388 OA
HETATM    2  N   UNK A   0       4.515   7.555  87.731  1.00  0.00     0.096 N 
HETATM    3  C   UNK A   0       4.000   8.919  87.915  1.00  0.00     0.299 C 
HETATM    4  C   UNK A   0       3.526   6.738  87.014  1.00  0.00     0.299 C 
HETATM    5  C   UNK A   0       2.665   8.873  88.654  1.00  0.00     0.198 C 
HETATM    6  C   UNK A   0       2.203   6.743  87.772  1.00  0.00     0.198 C 
ENDROOT
BRANCH   2   7
HETATM    7  C   UNK A   0       5.789   7.575  87.015  1.00  0.00     0.311 C 
BRANCH   7   8
HETATM    8  C   UNK A   0       6.896   6.968  87.809  1.00  0.00    -0.030 A 
HETATM    9  C   UNK A   0       8.158   6.810  87.237  1.00  0.00     0.010 A 
HETATM   10  C   UNK A   0       9.193   6.240  87.978  1.00  0.00     0.021 A 
HETATM   11  C   UNK A   0       8.966   5.832  89.291  1.00  0.00     0.018 A 
HETATM   12  C   UNK A   0       7.706   5.990  89.864  1.00  0.00     0.021 A 
HETATM   13  C   UNK A   0       6.670   6.558  89.123  1.00  0.00     0.010 A 
BRANCH  11  14
HETATM   14  C   UNK A   0      10.029   5.249  90.052  1.00  0.00    -0.061 C 
HETATM   15  C   UNK A   0      10.922   4.760  90.692  1.00  0.00    -0.061 C 
BRANCH  15  16
HETATM   16  C   UNK A   0      11.983   4.179  91.453  1.00  0.00     0.018 A 
HETATM   17  C   UNK A   0      13.242   4.008  90.875  1.00  0.00     0.022 A 
HETATM   18  C   UNK A   0      14.278   3.443  91.619  1.00  0.00     0.018 A 
HETATM   19  C   UNK A   0      14.033   3.063  92.922  1.00  0.00     0.032 A 
HETATM   20  C   UNK A   0      12.799   3.221  93.515  1.00  0.00     0.018 A 
HETATM   21  C   UNK A   0      11.761   3.786  92.772  1.00  0.00     0.022 A 
BRANCH  19  22
HETATM   22  C   UNK A   0      15.137   2.460  93.712  1.00  0.00     0.252 C 
HETATM   23  O   UNK A   0      16.291   2.830  93.511  1.00  0.00    -0.268 OA
ENDBRANCH  19  22
ENDBRANCH  15  16
ENDBRANCH  11  14
ENDBRANCH   7   8
ENDBRANCH   2   7
TORSDOF 9
ENDMDL
MODEL 2
REMARK VINA RESULT:      -7.5      0.127      1.430
REMARK  9 active torsions:
REMARK  status: ('A' for Active; 'I' for Inactive)
REMARK    1  A    between atoms: N_3  and  C_6 
REMARK    2  A    between atoms: C_6  and  C_9 
REMARK    3  A    between atoms: C_14  and  C_17 
REMARK       I    between atoms: N_26  and  C_15 
REMARK    4  A    between atoms: C_15  and  C_16 
REMARK    5  A    between atoms: C_20  and  C_23 
REMARK    6  A    between atoms: OG1_24  and  CB_28 
REMARK    7  A    between atoms: N_26  and  CA_27 
REMARK    8  A    between atoms: CA_27  and  CB_28 
REMARK    9  A    between atoms: CA_27  and  C_30 
ROOT
HETATM    1  O   UNK A   0       1.773   8.059  87.847  1.00  0.00    -0.388 OA
HETATM    2  N   UNK A   0       4.575   7.586  87.683  1.00  0.00     0.096 N 
HETATM    3  C   UNK A   0       4.030   8.948  87.771  1.00  0.00     0.299 C 
HETATM    4  C   UNK A   0       3.606   6.697  87.028  1.00  0.00     0.299 C 
HETATM    5  C   UNK A   0       2.695   8.924  88.512  1.00  0.00     0.198 C 
HETATM    6  C   UNK A   0       2.282   6.726  87.785  1.00  0.00     0.198 C 
ENDROOT
BRANCH   2   7
HETATM    7  C   UNK A   0       5.850   7.583  86.967  1.00  0.00     0.311 C 
BRANCH   7   8
HETATM    8  C   UNK A   0       6.951   6.979  87.770  1.00  0.00    -0.030 A 
HETATM    9  C   UNK A   0       6.734   6.643  89.107  1.00  0.00     0.010 A 
HETATM   10  C   UNK A   0       7.765   6.080  89.860  1.00  0.00     0.021 A 
HETATM   11  C   UNK A   0       9.010   5.852  89.275  1.00  0.00     0.018 A 
HETATM   12  C   UNK A   0       9.227   6.187  87.940  1.00  0.00     0.021 A 
HETATM   13  C   UNK A   0       8.197   6.751  87.187  1.00  0.00     0.010 A 
BRANCH  11  14
HETATM   14  C   UNK A   0      10.066   5.272  90.047  1.00  0.00    -0.061 C 
HETATM   15  C   UNK A   0      10.954   4.785  90.695  1.00  0.00    -0.061 C 
BRANCH  15  16
HETATM   16  C   UNK A   0      12.009   4.207  91.467  1.00  0.00     0.018 A 
HETATM   17  C   UNK A   0      11.784   3.850  92.797  1.00  0.00     0.022 A 
HETATM   18  C   UNK A   0      12.813   3.283  93.549  1.00  0.00     0.018 A 
HETATM   19  C   UNK A   0      14.042   3.085  92.955  1.00  0.00     0.032 A 
HETATM   20  C   UNK A   0      14.289   3.429  91.643  1.00  0.00     0.018 A 
HETATM   21  C   UNK A   0      13.261   3.996  90.890  1.00  0.00     0.022 A 
BRANCH  19  22
HETATM   22  C   UNK A   0      15.138   2.482  93.757  1.00  0.00     0.252 C 
HETATM   23  O   UNK A   0      16.195   3.096  93.885  1.00  0.00    -0.268 OA
ENDBRANCH  19  22
ENDBRANCH  15  16
ENDBRANCH  11  14
ENDBRANCH   7   8
ENDBRANCH   2   7
TORSDOF 9
ENDMDL
MODEL 3
REMARK VINA RESULT:      -7.5      0.393      1.081
REMARK  9 active torsions:
REMARK  status: ('A' for Active; 'I' for Inactive)
REMARK    1  A    between atoms: N_3  and  C_6 
REMARK    2  A    between atoms: C_6  and  C_9 
REMARK    3  A    between atoms: C_14  and  C_17 
REMARK       I    between atoms: N_26  and  C_15 
REMARK    4  A    between atoms: C_15  and  C_16 
REMARK    5  A    between atoms: C_20  and  C_23 
REMARK    6  A    between atoms: OG1_24  and  CB_28 
REMARK    7  A    between atoms: N_26  and  CA_27 
REMARK    8  A    between atoms: CA_27  and  CB_28 
REMARK    9  A    between atoms: CA_27  and  C_30 
ROOT
HETATM    1  O   UNK A   0       1.894   8.866  88.392  1.00  0.00    -0.388 OA
HETATM    2  N   UNK A   0       4.498   7.808  87.938  1.00  0.00     0.096 N 
HETATM    3  C   UNK A   0       4.272   9.252  88.098  1.00  0.00     0.299 C 
HETATM    4  C   UNK A   0       3.300   7.171  87.374  1.00  0.00     0.299 C 
HETATM    5  C   UNK A   0       3.042   9.489  88.971  1.00  0.00     0.198 C 
HETATM    6  C   UNK A   0       2.094   7.458  88.263  1.00  0.00     0.198 C 
ENDROOT
BRANCH   2   7
HETATM    7  C   UNK A   0       5.666   7.557  87.096  1.00  0.00     0.311 C 
BRANCH   7   8
HETATM    8  C   UNK A   0       6.798   6.960  87.859  1.00  0.00    -0.030 A 
HETATM    9  C   UNK A   0       8.073   6.915  87.293  1.00  0.00     0.010 A 
HETATM   10  C   UNK A   0       9.133   6.354  88.006  1.00  0.00     0.021 A 
HETATM   11  C   UNK A   0       8.918   5.841  89.284  1.00  0.00     0.018 A 
HETATM   12  C   UNK A   0       7.646   5.886  89.851  1.00  0.00     0.021 A 
HETATM   13  C   UNK A   0       6.586   6.445  89.138  1.00  0.00     0.010 A 
BRANCH  11  14
HETATM   14  C   UNK A   0      10.006   5.268  90.016  1.00  0.00    -0.061 C 
HETATM   15  C   UNK A   0      10.921   4.786  90.630  1.00  0.00    -0.061 C 
BRANCH  15  16
HETATM   16  C   UNK A   0      12.008   4.213  91.360  1.00  0.00     0.018 A 
HETATM   17  C   UNK A   0      11.824   3.811  92.683  1.00  0.00     0.022 A 
HETATM   18  C   UNK A   0      12.884   3.250  93.395  1.00  0.00     0.018 A 
HETATM   19  C   UNK A   0      14.104   3.103  92.768  1.00  0.00     0.032 A 
HETATM   20  C   UNK A   0      14.312   3.493  91.461  1.00  0.00     0.018 A 
HETATM   21  C   UNK A   0      13.252   4.055  90.749  1.00  0.00     0.022 A 
BRANCH  19  22
HETATM   22  C   UNK A   0      15.234   2.507  93.526  1.00  0.00     0.252 C 
HETATM   23  O   UNK A   0      16.158   3.229  93.892  1.00  0.00    -0.268 OA
ENDBRANCH  19  22
ENDBRANCH  15  16
ENDBRANCH  11  14
ENDBRANCH   7   8
ENDBRANCH   2   7
TORSDOF 9
ENDMDL
MODEL 4
REMARK VINA RESULT:      -7.1      1.031      1.504
REMARK  9 active torsions:
REMARK  status: ('A' for Active; 'I' for Inactive)
REMARK    1  A    between atoms: N_3  and  C_6 
REMARK    2  A    between atoms: C_6  and  C_9 
REMARK    3  A    between atoms: C_14  and  C_17 
REMARK       I    between atoms: N_26  and  C_15 
REMARK    4  A    between atoms: C_15  and  C_16 
REMARK    5  A    between atoms: C_20  and  C_23 
REMARK    6  A    between atoms: OG1_24  and  CB_28 
REMARK    7  A    between atoms: N_26  and  CA_27 
REMARK    8  A    between atoms: CA_27  and  CB_28 
REMARK    9  A    between atoms: CA_27  and  C_30 
ROOT
HETATM    1  O   UNK A   0       1.972   7.116  86.933  1.00  0.00    -0.388 OA
HETATM    2  N   UNK A   0       4.237   7.944  88.445  1.00  0.00     0.096 N 
HETATM    3  C   UNK A   0       3.026   8.773  88.359  1.00  0.00     0.299 C 
HETATM    4  C   UNK A   0       4.380   7.134  87.228  1.00  0.00     0.299 C 
HETATM    5  C   UNK A   0       1.807   7.884  88.127  1.00  0.00     0.198 C 
HETATM    6  C   UNK A   0       3.130   6.285  87.022  1.00  0.00     0.198 C 
ENDROOT
BRANCH   2   7
HETATM    7  C   UNK A   0       5.420   8.777  88.658  1.00  0.00     0.311 C 
BRANCH   7   8
HETATM    8  C   UNK A   0       6.565   8.004  89.218  1.00  0.00    -0.030 A 
HETATM    9  C   UNK A   0       6.389   7.232  90.367  1.00  0.00     0.010 A 
HETATM   10  C   UNK A   0       7.460   6.511  90.893  1.00  0.00     0.021 A 
HETATM   11  C   UNK A   0       8.706   6.560  90.269  1.00  0.00     0.018 A 
HETATM   12  C   UNK A   0       8.883   7.330  89.122  1.00  0.00     0.021 A 
HETATM   13  C   UNK A   0       7.812   8.053  88.596  1.00  0.00     0.010 A 
BRANCH  11  14
HETATM   14  C   UNK A   0       9.804   5.818  90.808  1.00  0.00    -0.061 C 
HETATM   15  C   UNK A   0      10.727   5.195  91.262  1.00  0.00    -0.061 C 
BRANCH  15  16
HETATM   16  C   UNK A   0      11.824   4.453  91.801  1.00  0.00     0.018 A 
HETATM   17  C   UNK A   0      12.949   4.203  91.014  1.00  0.00     0.022 A 
HETATM   18  C   UNK A   0      14.020   3.481  91.541  1.00  0.00     0.018 A 
HETATM   19  C   UNK A   0      13.943   3.027  92.841  1.00  0.00     0.032 A 
HETATM   20  C   UNK A   0      12.842   3.261  93.638  1.00  0.00     0.018 A 
HETATM   21  C   UNK A   0      11.770   3.982  93.113  1.00  0.00     0.022 A 
BRANCH  19  22
HETATM   22  C   UNK A   0      15.083   2.257  93.401  1.00  0.00     0.252 C 
HETATM   23  O   UNK A   0      16.092   2.857  93.763  1.00  0.00    -0.268 OA
ENDBRANCH  19  22
ENDBRANCH  15  16
ENDBRANCH  11  14
ENDBRANCH   7   8
ENDBRANCH   2   7
TORSDOF 9
ENDMDL
MODEL 5
REMARK VINA RESULT:      -6.9      0.995      1.532
REMARK  9 active torsions:
REMARK  status: ('A' for Active; 'I' for Inactive)
REMARK    1  A    between atoms: N_3  and  C_6 
REMARK    2  A    between atoms: C_6  and  C_9 
REMARK    3  A    between atoms: C_14  and  C_17 
REMARK       I    between atoms: N_26  and  C_15 
REMARK    4  A    between atoms: C_15  and  C_16 
REMARK    5  A    between atoms: C_20  and  C_23 
REMARK    6  A    between atoms: OG1_24  and  CB_28 
REMARK    7  A    between atoms: N_26  and  CA_27 
REMARK    8  A    between atoms: CA_27  and  CB_28 
REMARK    9  A    between atoms: CA_27  and  C_30 
ROOT
HETATM    1  O   UNK A   0       2.467   9.966  89.092  1.00  0.00    -0.388 OA
HETATM    2  N   UNK A   0       4.638   8.190  88.605  1.00  0.00     0.096 N 
HETATM    3  C   UNK A   0       4.428   9.390  87.783  1.00  0.00     0.299 C 
HETATM    4  C   UNK A   0       3.352   7.707  89.129  1.00  0.00     0.299 C 
HETATM    5  C   UNK A   0       3.715  10.461  88.605  1.00  0.00     0.198 C 
HETATM    6  C   UNK A   0       2.665   8.817  89.918  1.00  0.00     0.198 C 
ENDROOT
BRANCH   2   7
HETATM    7  C   UNK A   0       5.310   7.146  87.835  1.00  0.00     0.311 C 
BRANCH   7   8
HETATM    8  C   UNK A   0       6.509   6.605  88.536  1.00  0.00    -0.030 A 
HETATM    9  C   UNK A   0       6.356   5.864  89.708  1.00  0.00     0.010 A 
HETATM   10  C   UNK A   0       7.477   5.360  90.366  1.00  0.00     0.021 A 
HETATM   11  C   UNK A   0       8.752   5.595  89.851  1.00  0.00     0.018 A 
HETATM   12  C   UNK A   0       8.906   6.335  88.680  1.00  0.00     0.021 A 
HETATM   13  C   UNK A   0       7.785   6.840  88.022  1.00  0.00     0.010 A 
BRANCH  11  14
HETATM   14  C   UNK A   0       9.902   5.076  90.525  1.00  0.00    -0.061 C 
HETATM   15  C   UNK A   0      10.869   4.640  91.091  1.00  0.00    -0.061 C 
BRANCH  15  16
HETATM   16  C   UNK A   0      12.019   4.122  91.765  1.00  0.00     0.018 A 
HETATM   17  C   UNK A   0      13.227   3.991  91.080  1.00  0.00     0.022 A 
HETATM   18  C   UNK A   0      14.349   3.488  91.738  1.00  0.00     0.018 A 
HETATM   19  C   UNK A   0      14.238   3.129  93.066  1.00  0.00     0.032 A 
HETATM   20  C   UNK A   0      13.055   3.250  93.764  1.00  0.00     0.018 A 
HETATM   21  C   UNK A   0      11.932   3.752  93.107  1.00  0.00     0.022 A 
BRANCH  19  22
HETATM   22  C   UNK A   0      15.433   2.592  93.766  1.00  0.00     0.252 C 
HETATM   23  O   UNK A   0      16.501   3.193  93.677  1.00  0.00    -0.268 OA
ENDBRANCH  19  22
ENDBRANCH  15  16
ENDBRANCH  11  14
ENDBRANCH   7   8
ENDBRANCH   2   7
TORSDOF 9
ENDMDL
MODEL 6
REMARK VINA RESULT:      -6.9      1.557      2.365
REMARK  9 active torsions:
REMARK  status: ('A' for Active; 'I' for Inactive)
REMARK    1  A    between atoms: N_3  and  C_6 
REMARK    2  A    between atoms: C_6  and  C_9 
REMARK    3  A    between atoms: C_14  and  C_17 
REMARK       I    between atoms: N_26  and  C_15 
REMARK    4  A    between atoms: C_15  and  C_16 
REMARK    5  A    between atoms: C_20  and  C_23 
REMARK    6  A    between atoms: OG1_24  and  CB_28 
REMARK    7  A    between atoms: N_26  and  CA_27 
REMARK    8  A    between atoms: CA_27  and  CB_28 
REMARK    9  A    between atoms: CA_27  and  C_30 
ROOT
HETATM    1  O   UNK A   0       3.047  11.438  89.717  1.00  0.00    -0.388 OA
HETATM    2  N   UNK A   0       4.704   9.319  88.788  1.00  0.00     0.096 N 
HETATM    3  C   UNK A   0       3.842  10.077  87.872  1.00  0.00     0.299 C 
HETATM    4  C   UNK A   0       4.116   9.301  90.134  1.00  0.00     0.299 C 
HETATM    5  C   UNK A   0       3.627  11.489  88.412  1.00  0.00     0.198 C 
HETATM    6  C   UNK A   0       3.895  10.729  90.622  1.00  0.00     0.198 C 
ENDROOT
BRANCH   2   7
HETATM    7  C   UNK A   0       4.915   7.959  88.294  1.00  0.00     0.311 C 
BRANCH   7   8
HETATM    8  C   UNK A   0       6.136   7.328  88.872  1.00  0.00    -0.030 A 
HETATM    9  C   UNK A   0       6.036   6.116  89.557  1.00  0.00     0.010 A 
HETATM   10  C   UNK A   0       7.177   5.526  90.099  1.00  0.00     0.021 A 
HETATM   11  C   UNK A   0       8.418   6.146  89.954  1.00  0.00     0.018 A 
HETATM   12  C   UNK A   0       8.519   7.356  89.270  1.00  0.00     0.021 A 
HETATM   13  C   UNK A   0       7.378   7.947  88.728  1.00  0.00     0.010 A 
BRANCH  11  14
HETATM   14  C   UNK A   0       9.589   5.539  90.509  1.00  0.00    -0.061 C 
HETATM   15  C   UNK A   0      10.573   5.030  90.976  1.00  0.00    -0.061 C 
BRANCH  15  16
HETATM   16  C   UNK A   0      11.742   4.423  91.531  1.00  0.00     0.018 A 
HETATM   17  C   UNK A   0      11.731   3.967  92.849  1.00  0.00     0.022 A 
HETATM   18  C   UNK A   0      12.872   3.372  93.389  1.00  0.00     0.018 A 
HETATM   19  C   UNK A   0      13.996   3.247  92.600  1.00  0.00     0.032 A 
HETATM   20  C   UNK A   0      14.032   3.690  91.294  1.00  0.00     0.018 A 
HETATM   21  C   UNK A   0      12.892   4.285  90.753  1.00  0.00     0.022 A 
BRANCH  19  22
HETATM   22  C   UNK A   0      15.211   2.615  93.177  1.00  0.00     0.252 C 
HETATM   23  O   UNK A   0      16.024   3.315  93.775  1.00  0.00    -0.268 OA
ENDBRANCH  19  22
ENDBRANCH  15  16
ENDBRANCH  11  14
ENDBRANCH   7   8
ENDBRANCH   2   7
TORSDOF 9
ENDMDL
MODEL 7
REMARK VINA RESULT:      -6.6      3.940     10.454
REMARK  9 active torsions:
REMARK  status: ('A' for Active; 'I' for Inactive)
REMARK    1  A    between atoms: N_3  and  C_6 
REMARK    2  A    between atoms: C_6  and  C_9 
REMARK    3  A    between atoms: C_14  and  C_17 
REMARK       I    between atoms: N_26  and  C_15 
REMARK    4  A    between atoms: C_15  and  C_16 
REMARK    5  A    between atoms: C_20  and  C_23 
REMARK    6  A    between atoms: OG1_24  and  CB_28 
REMARK    7  A    between atoms: N_26  and  CA_27 
REMARK    8  A    between atoms: CA_27  and  CB_28 
REMARK    9  A    between atoms: CA_27  and  C_30 
ROOT
HETATM    1  O   UNK A   0      14.683   3.414  92.134  1.00  0.00    -0.388 OA
HETATM    2  N   UNK A   0      11.949   4.204  92.198  1.00  0.00     0.096 N 
HETATM    3  C   UNK A   0      12.518   3.322  93.227  1.00  0.00     0.299 C 
HETATM    4  C   UNK A   0      12.669   4.027  90.929  1.00  0.00     0.299 C 
HETATM    5  C   UNK A   0      14.010   3.602  93.381  1.00  0.00     0.198 C 
HETATM    6  C   UNK A   0      14.157   4.290  91.137  1.00  0.00     0.198 C 
ENDROOT
BRANCH   2   7
HETATM    7  C   UNK A   0      10.521   3.945  92.026  1.00  0.00     0.311 C 
BRANCH   7   8
HETATM    8  C   UNK A   0       9.748   5.188  91.744  1.00  0.00    -0.030 A 
HETATM    9  C   UNK A   0       8.866   5.230  90.663  1.00  0.00     0.010 A 
HETATM   10  C   UNK A   0       8.144   6.393  90.397  1.00  0.00     0.021 A 
HETATM   11  C   UNK A   0       8.303   7.513  91.212  1.00  0.00     0.018 A 
HETATM   12  C   UNK A   0       9.184   7.473  92.291  1.00  0.00     0.021 A 
HETATM   13  C   UNK A   0       9.906   6.310  92.558  1.00  0.00     0.010 A 
BRANCH  11  14
HETATM   14  C   UNK A   0       7.561   8.706  90.940  1.00  0.00    -0.061 C 
HETATM   15  C   UNK A   0       6.938   9.709  90.711  1.00  0.00    -0.061 C 
BRANCH  15  16
HETATM   16  C   UNK A   0       6.197  10.900  90.439  1.00  0.00     0.018 A 
HETATM   17  C   UNK A   0       5.285  11.383  91.377  1.00  0.00     0.022 A 
HETATM   18  C   UNK A   0       4.564  12.548  91.112  1.00  0.00     0.018 A 
HETATM   19  C   UNK A   0       4.772  13.203  89.916  1.00  0.00     0.032 A 
HETATM   20  C   UNK A   0       5.667  12.746  88.972  1.00  0.00     0.018 A 
HETATM   21  C   UNK A   0       6.389  11.581  89.236  1.00  0.00     0.022 A 
BRANCH  19  22
HETATM   22  C   UNK A   0       4.002  14.442  89.634  1.00  0.00     0.252 C 
HETATM   23  O   UNK A   0       4.586  15.523  89.628  1.00  0.00    -0.268 OA
ENDBRANCH  19  22
ENDBRANCH  15  16
ENDBRANCH  11  14
ENDBRANCH   7   8
ENDBRANCH   2   7
TORSDOF 9
ENDMDL
MODEL 8
REMARK VINA RESULT:      -6.5      1.751      2.767
REMARK  9 active torsions:
REMARK  status: ('A' for Active; 'I' for Inactive)
REMARK    1  A    between atoms: N_3  and  C_6 
REMARK    2  A    between atoms: C_6  and  C_9 
REMARK    3  A    between atoms: C_14  and  C_17 
REMARK       I    between atoms: N_26  and  C_15 
REMARK    4  A    between atoms: C_15  and  C_16 
REMARK    5  A    between atoms: C_20  and  C_23 
REMARK    6  A    between atoms: OG1_24  and  CB_28 
REMARK    7  A    between atoms: N_26  and  CA_27 
REMARK    8  A    between atoms: CA_27  and  CB_28 
REMARK    9  A    between atoms: CA_27  and  C_30 
ROOT
HETATM    1  O   UNK A   0       3.824  10.778  88.494  1.00  0.00    -0.388 OA
HETATM    2  N   UNK A   0       4.748   8.298  89.541  1.00  0.00     0.096 N 
HETATM    3  C   UNK A   0       3.549   8.375  88.695  1.00  0.00     0.299 C 
HETATM    4  C   UNK A   0       4.927   9.557  90.276  1.00  0.00     0.299 C 
HETATM    5  C   UNK A   0       3.659   9.569  87.750  1.00  0.00     0.198 C 
HETATM    6  C   UNK A   0       5.004  10.723  89.296  1.00  0.00     0.198 C 
ENDROOT
BRANCH   2   7
HETATM    7  C   UNK A   0       4.659   7.166  90.463  1.00  0.00     0.311 C 
BRANCH   7   8
HETATM    8  C   UNK A   0       5.998   6.609  90.809  1.00  0.00    -0.030 A 
HETATM    9  C   UNK A   0       6.503   6.760  92.101  1.00  0.00     0.010 A 
HETATM   10  C   UNK A   0       7.756   6.241  92.425  1.00  0.00     0.021 A 
HETATM   11  C   UNK A   0       8.503   5.570  91.457  1.00  0.00     0.018 A 
HETATM   12  C   UNK A   0       8.000   5.419  90.167  1.00  0.00     0.021 A 
HETATM   13  C   UNK A   0       6.747   5.938  89.842  1.00  0.00     0.010 A 
BRANCH  11  14
HETATM   14  C   UNK A   0       9.788   5.036  91.791  1.00  0.00    -0.061 C 
HETATM   15  C   UNK A   0      10.868   4.587  92.070  1.00  0.00    -0.061 C 
BRANCH  15  16
HETATM   16  C   UNK A   0      12.152   4.054  92.403  1.00  0.00     0.018 A 
HETATM   17  C   UNK A   0      12.384   3.543  93.680  1.00  0.00     0.022 A 
HETATM   18  C   UNK A   0      13.637   3.021  94.003  1.00  0.00     0.018 A 
HETATM   19  C   UNK A   0      14.627   3.020  93.043  1.00  0.00     0.032 A 
HETATM   20  C   UNK A   0      14.422   3.519  91.774  1.00  0.00     0.018 A 
HETATM   21  C   UNK A   0      13.171   4.042  91.450  1.00  0.00     0.022 A 
BRANCH  19  22
HETATM   22  C   UNK A   0      15.961   2.465  93.389  1.00  0.00     0.252 C 
HETATM   23  O   UNK A   0      16.788   3.189  93.940  1.00  0.00    -0.268 OA
ENDBRANCH  19  22
ENDBRANCH  15  16
ENDBRANCH  11  14
ENDBRANCH   7   8
ENDBRANCH   2   7
TORSDOF 9
ENDMDL
MODEL 9
REMARK VINA RESULT:      -6.2      2.997      3.883
REMARK  9 active torsions:
REMARK  status: ('A' for Active; 'I' for Inactive)
REMARK    1  A    between atoms: N_3  and  C_6 
REMARK    2  A    between atoms: C_6  and  C_9 
REMARK    3  A    between atoms: C_14  and  C_17 
REMARK       I    between atoms: N_26  and  C_15 
REMARK    4  A    between atoms: C_15  and  C_16 
REMARK    5  A    between atoms: C_20  and  C_23 
REMARK    6  A    between atoms: OG1_24  and  CB_28 
REMARK    7  A    between atoms: N_26  and  CA_27 
REMARK    8  A    between atoms: CA_27  and  CB_28 
REMARK    9  A    between atoms: CA_27  and  C_30 
ROOT
HETATM    1  O   UNK A   0       4.047  14.487  89.569  1.00  0.00    -0.388 OA
HETATM    2  N   UNK A   0       4.818  11.763  89.272  1.00  0.00     0.096 N 
HETATM    3  C   UNK A   0       4.738  12.669  88.117  1.00  0.00     0.299 C 
HETATM    4  C   UNK A   0       3.865  12.184  90.309  1.00  0.00     0.299 C 
HETATM    5  C   UNK A   0       4.993  14.105  88.569  1.00  0.00     0.198 C 
HETATM    6  C   UNK A   0       4.140  13.630  90.708  1.00  0.00     0.198 C 
ENDROOT
BRANCH   2   7
HETATM    7  C   UNK A   0       4.566  10.382  88.864  1.00  0.00     0.311 C 
BRANCH   7   8
HETATM    8  C   UNK A   0       5.644   9.453  89.308  1.00  0.00    -0.030 A 
HETATM    9  C   UNK A   0       5.415   8.077  89.322  1.00  0.00     0.010 A 
HETATM   10  C   UNK A   0       6.422   7.207  89.740  1.00  0.00     0.021 A 
HETATM   11  C   UNK A   0       7.658   7.714  90.141  1.00  0.00     0.018 A 
HETATM   12  C   UNK A   0       7.887   9.088  90.127  1.00  0.00     0.021 A 
HETATM   13  C   UNK A   0       6.880   9.958  89.711  1.00  0.00     0.010 A 
BRANCH  11  14
HETATM   14  C   UNK A   0       8.692   6.821  90.567  1.00  0.00    -0.061 C 
HETATM   15  C   UNK A   0       9.561   6.071  90.925  1.00  0.00    -0.061 C 
BRANCH  15  16
HETATM   16  C   UNK A   0      10.595   5.179  91.350  1.00  0.00     0.018 A 
HETATM   17  C   UNK A   0      10.759   4.902  92.707  1.00  0.00     0.022 A 
HETATM   18  C   UNK A   0      11.766   4.030  93.122  1.00  0.00     0.018 A 
HETATM   19  C   UNK A   0      12.584   3.456  92.172  1.00  0.00     0.032 A 
HETATM   20  C   UNK A   0      12.442   3.714  90.825  1.00  0.00     0.018 A 
HETATM   21  C   UNK A   0      11.435   4.586  90.409  1.00  0.00     0.022 A 
BRANCH  19  22
HETATM   22  C   UNK A   0      13.658   2.528  92.614  1.00  0.00     0.252 C 
HETATM   23  O   UNK A   0      14.434   2.887  93.496  1.00  0.00    -0.268 OA
ENDBRANCH  19  22
ENDBRANCH  15  16
ENDBRANCH  11  14
ENDBRANCH   7   8
ENDBRANCH   2   7
TORSDOF 9
ENDMDL
