MODEL 1
REMARK VINA RESULT:      -7.6      0.000      0.000
REMARK  9 active torsions:
REMARK  status: ('A' for Active; 'I' for Inactive)
REMARK    1  A    between atoms: N_3  and  C_6 
REMARK    2  A    between atoms: C_6  and  C_9 
REMARK    3  A    between atoms: C_14  and  C_17 
REMARK       I    between atoms: N_26  and  C_15 
REMARK    4  A    between atoms: C_15  and  C_16 
REMARK    5  A    between atoms: C_20  and  C_23 
REMARK    6  A    between atoms: OG1_24  and  CB_28 
REMARK    7  A    between atoms: N_26  and  CA_27 
REMARK    8  A    between atoms: CA_27  and  CB_28 
REMARK    9  A    between atoms: CA_27  and  C_30 
ROOT
HETATM    1  O   UNK A   0       1.926   8.238  87.911  1.00  0.00    -0.388 OA
HETATM    2  N   UNK A   0       4.692   7.604  87.687  1.00  0.00     0.096 N 
HETATM    3  C   UNK A   0       4.228   8.996  87.768  1.00  0.00     0.299 C 
HETATM    4  C   UNK A   0       3.658   6.763  87.068  1.00  0.00     0.299 C 
HETATM    5  C   UNK A   0       2.913   9.057  88.541  1.00  0.00     0.198 C 
HETATM    6  C   UNK A   0       2.357   6.878  87.856  1.00  0.00     0.198 C 
ENDROOT
BRANCH   2   7
HETATM    7  C   UNK A   0       5.946   7.520  86.940  1.00  0.00     0.311 C 
BRANCH   7   8
HETATM    8  C   UNK A   0       7.050   6.927  87.748  1.00  0.00    -0.030 A 
HETATM    9  C   UNK A   0       6.836   6.607  89.090  1.00  0.00     0.010 A 
HETATM   10  C   UNK A   0       7.869   6.055  89.848  1.00  0.00     0.021 A 
HETATM   11  C   UNK A   0       9.113   5.821  89.263  1.00  0.00     0.018 A 
HETATM   12  C   UNK A   0       9.328   6.141  87.924  1.00  0.00     0.021 A 
HETATM   13  C   UNK A   0       8.296   6.694  87.166  1.00  0.00     0.010 A 
BRANCH  11  14
HETATM   14  C   UNK A   0      10.172   5.253  90.041  1.00  0.00    -0.061 C 
HETATM   15  C   UNK A   0      11.060   4.775  90.694  1.00  0.00    -0.061 C 
BRANCH  15  16
HETATM   16  C   UNK A   0      12.118   4.206  91.471  1.00  0.00     0.018 A 
HETATM   17  C   UNK A   0      11.903   3.890  92.813  1.00  0.00     0.022 A 
HETATM   18  C   UNK A   0      12.934   3.332  93.569  1.00  0.00     0.018 A 
HETATM   19  C   UNK A   0      14.154   3.103  92.968  1.00  0.00     0.032 A 
HETATM   20  C   UNK A   0      14.391   3.408  91.644  1.00  0.00     0.018 A 
HETATM   21  C   UNK A   0      13.361   3.965  90.886  1.00  0.00     0.022 A 
BRANCH  19  22
HETATM   22  C   UNK A   0      15.252   2.511  93.775  1.00  0.00     0.252 C 
HETATM   23  O   UNK A   0      16.396   2.936  93.634  1.00  0.00    -0.268 OA
ENDBRANCH  19  22
ENDBRANCH  15  16
ENDBRANCH  11  14
ENDBRANCH   7   8
ENDBRANCH   2   7
TORSDOF 9
ENDMDL
