MODEL 1
REMARK VINA RESULT:      -7.1      0.000      0.000
REMARK  9 active torsions:
REMARK  status: ('A' for Active; 'I' for Inactive)
REMARK    1  A    between atoms: O_2  and  C_17 
REMARK    2  A    between atoms: N_5  and  C_10 
REMARK    3  A    between atoms: N_6  and  C_14 
REMARK       I    between atoms: N_6  and  C_23 
REMARK       I    between atoms: N_7  and  C_22 
REMARK    4  A    between atoms: C_10  and  C_13 
REMARK    5  A    between atoms: C_14  and  C_17 
REMARK    6  A    between atoms: C_14  and  C_22 
REMARK    7  A    between atoms: C_20  and  C_25 
REMARK    8  A    between atoms: C_23  and  C_24 
REMARK    9  A    between atoms: C_28  and  C_31 
ROOT
HETATM    1  O   UNL     1      16.697   3.527  93.717  1.00  0.00    -0.388 OA
HETATM    2  N   UNL     1      14.000   2.849  93.109  1.00  0.00     0.096 N 
HETATM    3  C   UNL     1      15.056   1.828  93.161  1.00  0.00     0.299 C 
HETATM    4  C   UNL     1      14.572   4.146  92.722  1.00  0.00     0.299 C 
HETATM    5  C   UNL     1      16.155   2.269  94.124  1.00  0.00     0.198 C 
HETATM    6  C   UNL     1      15.682   4.533  93.694  1.00  0.00     0.198 C 
ENDROOT
BRANCH   2   7
HETATM    7  C   UNL     1      12.940   2.452  92.184  1.00  0.00     0.311 C 
BRANCH   7   8
HETATM    8  C   UNL     1      12.022   3.579  91.855  1.00  0.00    -0.030 A 
HETATM    9  C   UNL     1      11.346   4.247  92.876  1.00  0.00     0.010 A 
HETATM   10  C   UNL     1      10.484   5.300  92.569  1.00  0.00     0.021 A 
HETATM   11  C   UNL     1      10.301   5.685  91.241  1.00  0.00     0.018 A 
HETATM   12  C   UNL     1      10.975   5.018  90.221  1.00  0.00     0.021 A 
HETATM   13  C   UNL     1      11.836   3.965  90.527  1.00  0.00     0.010 A 
BRANCH  11  14
HETATM   14  C   UNL     1       9.418   6.767  90.927  1.00  0.00    -0.061 C 
HETATM   15  C   UNL     1       8.677   7.676  90.664  1.00  0.00    -0.061 C 
BRANCH  15  16
HETATM   16  C   UNL     1       7.796   8.757  90.350  1.00  0.00     0.018 A 
HETATM   17  C   UNL     1       6.477   8.736  90.805  1.00  0.00     0.022 A 
HETATM   18  C   UNL     1       5.619   9.793  90.501  1.00  0.00     0.018 A 
HETATM   19  C   UNL     1       6.098  10.846  89.750  1.00  0.00     0.032 A 
HETATM   20  C   UNL     1       7.396  10.890  89.288  1.00  0.00     0.018 A 
HETATM   21  C   UNL     1       8.256   9.834  89.591  1.00  0.00     0.022 A 
BRANCH  19  22
HETATM   22  C   UNL     1       5.182  11.970  89.425  1.00  0.00     0.252 C 
HETATM   23  O   UNL     1       4.962  12.243  88.247  1.00  0.00    -0.268 OA
HETATM   24  N   UNL     1       4.614  12.625  90.509  1.00  0.00    -0.342 N 
HETATM   25  H   UNL     1       4.823  12.327  91.454  1.00  0.00     0.163 HD
BRANCH  24  26
HETATM   26  C   UNL     1       3.688  13.718  90.356  1.00  0.00     0.199 C 
BRANCH  26  27
HETATM   27  C   UNL     1       2.448  13.574  91.247  1.00  0.00     0.145 C 
HETATM   28  C   UNL     1       2.701  12.688  92.462  1.00  0.00     0.042 C 
BRANCH  27  29
HETATM   29  O   UNL     1       2.028  14.863  91.693  1.00  0.00    -0.393 OA
HETATM   30  H   UNL     1       2.774  15.479  91.592  1.00  0.00     0.210 HD
ENDBRANCH  27  29
ENDBRANCH  26  27
BRANCH  26  31
HETATM   31  C   UNL     1       4.440  15.010  90.657  1.00  0.00     0.220 C 
HETATM   32  O   UNL     1       4.580  15.454  91.795  1.00  0.00    -0.278 OA
HETATM   33  N   UNL     1       4.896  15.623  89.515  1.00  0.00    -0.271 NA
HETATM   34  H   UNL     1       4.721  15.333  88.560  1.00  0.00     0.127 HD
HETATM   35  H   UNL     1       4.426  16.799  88.910  1.00  0.00     0.127 HD
ENDBRANCH  26  31
ENDBRANCH  24  26
ENDBRANCH  19  22
ENDBRANCH  15  16
ENDBRANCH  11  14
ENDBRANCH   7   8
ENDBRANCH   2   7
TORSDOF 9
ENDMDL
