MODEL 1
REMARK VINA RESULT:      -6.6      0.000      0.000
REMARK  11 active torsions:
REMARK  status: ('A' for Active; 'I' for Inactive)
REMARK    1  A    between atoms: O_2  and  C_18 
REMARK    2  A    between atoms: O_5  and  P_8 
REMARK    3  A    between atoms: N_6  and  C_11 
REMARK    4  A    between atoms: N_7  and  C_15 
REMARK       I    between atoms: N_7  and  C_24 
REMARK    5  A    between atoms: P_8  and  C_23 
REMARK    6  A    between atoms: C_11  and  C_14 
REMARK    7  A    between atoms: C_15  and  C_18 
REMARK    8  A    between atoms: C_15  and  C_23 
REMARK    9  A    between atoms: C_21  and  C_26 
REMARK   10  A    between atoms: C_24  and  C_25 
REMARK   11  A    between atoms: C_29  and  C_32 
ROOT
HETATM    1  O   UNL     1      16.674   4.455  94.123  1.00  0.00     0.000 OA
HETATM    2  N   UNL     1      14.991   2.813  92.519  1.00  0.00     0.000 N 
HETATM    3  C   UNL     1      14.862   4.277  92.519  1.00  0.00     0.000 C 
HETATM    4  C   UNL     1      15.502   2.354  93.818  1.00  0.00     0.000 C 
HETATM    5  C   UNL     1      16.208   4.915  92.853  1.00  0.00     0.000 C 
HETATM    6  C   UNL     1      16.831   3.036  94.122  1.00  0.00     0.000 C 
ENDROOT
BRANCH   2   7
HETATM    7  C   UNL     1      13.709   2.181  92.211  1.00  0.00     0.000 C 
BRANCH   7   8
HETATM    8  C   UNL     1      12.633   3.178  91.944  1.00  0.00     0.000 A 
HETATM    9  C   UNL     1      11.865   3.673  92.998  1.00  0.00     0.000 A 
HETATM   10  C   UNL     1      10.857   4.604  92.748  1.00  0.00     0.000 A 
HETATM   11  C   UNL     1      10.619   5.041  91.445  1.00  0.00     0.000 A 
HETATM   12  C   UNL     1      11.386   4.547  90.392  1.00  0.00     0.000 A 
HETATM   13  C   UNL     1      12.394   3.615  90.641  1.00  0.00     0.000 A 
BRANCH  11  14
HETATM   14  C   UNL     1       9.587   5.997  91.190  1.00  0.00     0.000 C 
HETATM   15  C   UNL     1       8.719   6.802  90.976  1.00  0.00     0.000 C 
BRANCH  15  16
HETATM   16  C   UNL     1       7.687   7.758  90.721  1.00  0.00     0.000 A 
HETATM   17  C   UNL     1       7.631   8.937  91.465  1.00  0.00     0.000 A 
HETATM   18  C   UNL     1       6.626   9.871  91.214  1.00  0.00     0.000 A 
HETATM   19  C   UNL     1       5.702   9.607  90.225  1.00  0.00     0.000 A 
HETATM   20  C   UNL     1       5.736   8.450  89.476  1.00  0.00     0.000 A 
HETATM   21  C   UNL     1       6.740   7.514  89.726  1.00  0.00     0.000 A 
BRANCH  19  22
HETATM   22  C   UNL     1       4.631  10.602  89.960  1.00  0.00     0.000 C 
HETATM   23  O   UNL     1       3.525  10.210  89.596  1.00  0.00     0.000 OA
HETATM   24  N   UNL     1       4.969  11.931  90.174  1.00  0.00     0.000 N 
HETATM   25  HN  UNL     1       5.896  12.178  90.499  1.00  0.00     0.000 HD
BRANCH  24  26
HETATM   26  C   UNL     1       4.033  13.010  89.984  1.00  0.00     0.000 C 
BRANCH  26  27
HETATM   27  C   UNL     1       3.359  13.448  91.290  1.00  0.00     0.000 C 
HETATM   28  C   UNL     1       2.345  12.428  91.795  1.00  0.00     0.000 C 
BRANCH  27  29
HETATM   29  O   UNL     1       4.353  13.651  92.295  1.00  0.00     0.000 OA
HETATM   30  H   UNL     1       4.287  12.925  92.939  1.00  0.00     0.000 HD
ENDBRANCH  27  29
ENDBRANCH  26  27
BRANCH  26  31
HETATM   31  C   UNL     1       4.781  14.167  89.330  1.00  0.00     0.000 C 
HETATM   32  O   UNL     1       4.862  15.284  89.837  1.00  0.00     0.000 OA
BRANCH  31  33
HETATM   33  P   UNL     1       5.309  13.820  88.110  1.00  0.00     0.000 P 
HETATM   34  H   UNL     1       5.378  14.962  87.339  1.00  0.00     0.000 HD
BRANCH  33  35
HETATM   35  O   UNL     1       4.593  12.855  87.387  1.00  0.00     0.000 OA
HETATM   36  H   UNL     1       4.614  12.115  88.016  1.00  0.00     0.000 HD
ENDBRANCH  33  35
ENDBRANCH  31  33
ENDBRANCH  26  31
ENDBRANCH  24  26
ENDBRANCH  19  22
ENDBRANCH  15  16
ENDBRANCH  11  14
ENDBRANCH   7   8
ENDBRANCH   2   7
TORSDOF 11
ENDMDL
