MODEL 1
REMARK VINA RESULT:      -7.1      0.000      0.000
REMARK  9 active torsions:
REMARK  status: ('A' for Active; 'I' for Inactive)
REMARK    1  A    between atoms: O_2  and  C_17 
REMARK    2  A    between atoms: N_5  and  C_10 
REMARK    3  A    between atoms: N_6  and  C_14 
REMARK       I    between atoms: N_6  and  C_23 
REMARK       I    between atoms: N_7  and  C_22 
REMARK    4  A    between atoms: C_10  and  C_13 
REMARK    5  A    between atoms: C_14  and  C_17 
REMARK    6  A    between atoms: C_14  and  C_22 
REMARK    7  A    between atoms: C_20  and  C_25 
REMARK    8  A    between atoms: C_23  and  C_24 
REMARK    9  A    between atoms: C_28  and  C_31 
ROOT
HETATM    1  O   UNL     1      15.958   3.927  94.124  1.00  0.00    -0.388 OA
HETATM    2  N   UNL     1      14.150   2.623  92.353  1.00  0.00     0.096 N 
HETATM    3  C   UNL     1      14.180   4.087  92.479  1.00  0.00     0.299 C 
HETATM    4  C   UNL     1      14.574   2.001  93.615  1.00  0.00     0.299 C 
HETATM    5  C   UNL     1      15.578   4.542  92.891  1.00  0.00     0.198 C 
HETATM    6  C   UNL     1      15.961   2.505  94.001  1.00  0.00     0.198 C 
ENDROOT
BRANCH   2   7
HETATM    7  C   UNL     1      12.817   2.164  91.969  1.00  0.00     0.311 C 
BRANCH   7   8
HETATM    8  C   UNL     1      11.900   3.293  91.641  1.00  0.00    -0.030 A 
HETATM    9  C   UNL     1      11.058   3.814  92.624  1.00  0.00     0.010 A 
HETATM   10  C   UNL     1      10.198   4.869  92.318  1.00  0.00     0.021 A 
HETATM   11  C   UNL     1      10.182   5.402  91.030  1.00  0.00     0.018 A 
HETATM   12  C   UNL     1      11.023   4.883  90.047  1.00  0.00     0.021 A 
HETATM   13  C   UNL     1      11.882   3.828  90.353  1.00  0.00     0.010 A 
BRANCH  11  14
HETATM   14  C   UNL     1       9.302   6.486  90.716  1.00  0.00    -0.061 C 
HETATM   15  C   UNL     1       8.563   7.397  90.452  1.00  0.00    -0.061 C 
BRANCH  15  16
HETATM   16  C   UNL     1       7.683   8.479  90.138  1.00  0.00     0.018 A 
HETATM   17  C   UNL     1       8.160   9.790  90.150  1.00  0.00     0.022 A 
HETATM   18  C   UNL     1       7.302  10.845  89.840  1.00  0.00     0.018 A 
HETATM   19  C   UNL     1       5.988  10.567  89.526  1.00  0.00     0.032 A 
HETATM   20  C   UNL     1       5.493   9.280  89.509  1.00  0.00     0.018 A 
HETATM   21  C   UNL     1       6.350   8.224  89.818  1.00  0.00     0.022 A 
BRANCH  19  22
HETATM   22  C   UNL     1       5.075  11.692  89.199  1.00  0.00     0.252 C 
HETATM   23  O   UNL     1       4.556  11.739  88.086  1.00  0.00    -0.268 OA
HETATM   24  N   UNL     1       4.855  12.612  90.215  1.00  0.00    -0.342 N 
HETATM   25  H   UNL     1       5.299  12.495  91.118  1.00  0.00     0.163 HD
BRANCH  24  26
HETATM   26  C   UNL     1       3.977  13.744  90.059  1.00  0.00     0.199 C 
BRANCH  26  27
HETATM   27  C   UNL     1       3.253  14.116  91.359  1.00  0.00     0.145 C 
HETATM   28  C   UNL     1       1.781  13.721  91.342  1.00  0.00     0.042 C 
BRANCH  27  29
HETATM   29  O   UNL     1       3.892  13.474  92.462  1.00  0.00    -0.393 OA
HETATM   30  H   UNL     1       3.382  12.678  92.688  1.00  0.00     0.210 HD
ENDBRANCH  27  29
ENDBRANCH  26  27
BRANCH  26  31
HETATM   31  C   UNL     1       4.808  14.910  89.534  1.00  0.00     0.220 C 
HETATM   32  O   UNL     1       4.946  15.147  88.335  1.00  0.00    -0.278 OA
HETATM   33  N   UNL     1       5.401  15.623  90.547  1.00  0.00    -0.271 NA
HETATM   34  H   UNL     1       5.382  15.402  91.536  1.00  0.00     0.127 HD
HETATM   35  H   UNL     1       6.758  15.662  90.906  1.00  0.00     0.127 HD
ENDBRANCH  26  31
ENDBRANCH  24  26
ENDBRANCH  19  22
ENDBRANCH  15  16
ENDBRANCH  11  14
ENDBRANCH   7   8
ENDBRANCH   2   7
TORSDOF 9
ENDMDL
