MODEL 1
REMARK VINA RESULT:      -6.4      0.000      0.000
REMARK  14 active torsions:
REMARK  status: ('A' for Active; 'I' for Inactive)
REMARK    1  A    between atoms: O_2  and  C_18 
REMARK    2  A    between atoms: C_5  and  C_8 
REMARK    3  A    between atoms: C_5  and  O_35 
REMARK    4  A    between atoms: C_5  and  C_36 
REMARK    5  A    between atoms: N_6  and  C_11 
REMARK    6  A    between atoms: N_7  and  C_15 
REMARK       I    between atoms: N_7  and  C_24 
REMARK    7  A    between atoms: C_8  and  C_23 
REMARK    8  A    between atoms: C_11  and  C_14 
REMARK    9  A    between atoms: C_15  and  C_18 
REMARK   10  A    between atoms: C_15  and  C_23 
REMARK   11  A    between atoms: C_21  and  C_26 
REMARK   12  A    between atoms: C_24  and  C_25 
REMARK   13  A    between atoms: C_29  and  C_32 
REMARK   14  A    between atoms: C_36  and  O_39 
ROOT
HETATM    1  O   UNL     1      17.199   3.790  93.672  1.00  0.00    -0.350 OA
HETATM    2  N   UNL     1      14.497   3.042  93.180  1.00  0.00     0.147 N 
HETATM    3  C   UNL     1      15.591   2.063  93.107  1.00  0.00     0.283 C 
HETATM    4  C   UNL     1      14.998   4.381  92.843  1.00  0.00     0.283 C 
HETATM    5  C   UNL     1      16.729   2.489  94.030  1.00  0.00     0.178 C 
HETATM    6  C   UNL     1      16.150   4.753  93.771  1.00  0.00     0.178 C 
ENDROOT
BRANCH   2   7
HETATM    7  C   UNL     1      13.399   2.659  92.295  1.00  0.00     0.277 C 
BRANCH   7   8
HETATM    8  C   UNL     1      12.314   3.680  92.262  1.00  0.00     0.011 A 
HETATM    9  C   UNL     1      11.652   4.031  93.439  1.00  0.00    -0.002 A 
HETATM   10  C   UNL     1      10.635   4.985  93.410  1.00  0.00     0.008 A 
HETATM   11  C   UNL     1      10.281   5.588  92.203  1.00  0.00     0.042 A 
HETATM   12  C   UNL     1      10.941   5.238  91.027  1.00  0.00     0.008 A 
HETATM   13  C   UNL     1      11.958   4.284  91.056  1.00  0.00    -0.002 A 
BRANCH  11  14
HETATM   14  C   UNL     1       9.239   6.568  92.173  1.00  0.00    -0.059 C 
HETATM   15  C   UNL     1       8.363   7.391  92.148  1.00  0.00    -0.059 C 
BRANCH  15  16
HETATM   16  C   UNL     1       7.321   8.370  92.119  1.00  0.00     0.042 A 
HETATM   17  C   UNL     1       7.568   9.663  92.580  1.00  0.00     0.008 A 
HETATM   18  C   UNL     1       6.553  10.619  92.549  1.00  0.00     0.005 A 
HETATM   19  C   UNL     1       5.315  10.261  92.057  1.00  0.00     0.056 A 
HETATM   20  C   UNL     1       5.046   8.990  91.596  1.00  0.00     0.005 A 
HETATM   21  C   UNL     1       6.061   8.033  91.627  1.00  0.00     0.008 A 
BRANCH  19  22
HETATM   22  C   UNL     1       4.233  11.279  92.026  1.00  0.00     0.254 C 
HETATM   23  O   UNL     1       3.088  10.947  92.325  1.00  0.00    -0.268 OA
HETATM   24  N   UNL     1       4.619  12.566  91.676  1.00  0.00    -0.335 N 
HETATM   25  HN  UNL     1       5.588  12.771  91.466  1.00  0.00     0.164 HD
BRANCH  24  26
HETATM   26  C   UNL     1       3.690  13.666  91.624  1.00  0.00     0.169 C 
BRANCH  26  27
HETATM   27  C   UNL     1       3.555  14.392  92.969  1.00  0.00     0.138 C 
HETATM   28  C   UNL     1       2.269  14.028  93.702  1.00  0.00     0.034 C 
BRANCH  27  29
HETATM   29  O   UNL     1       4.669  14.069  93.800  1.00  0.00    -0.383 OA
HETATM   30  H   UNL     1       5.039  14.897  94.149  1.00  0.00     0.210 HD
ENDBRANCH  27  29
ENDBRANCH  26  27
BRANCH  26  31
HETATM   31  C   UNL     1       4.155  14.617  90.526  1.00  0.00     0.194 C 
HETATM   32  O   UNL     1       4.823  15.625  90.750  1.00  0.00    -0.289 OA
BRANCH  31  33
HETATM   33  C   UNL     1       3.709  14.233  89.284  1.00  0.00     0.053 C 
BRANCH  33  34
HETATM   34  C   UNL     1       4.678  13.687  88.430  1.00  0.00     0.220 C 
BRANCH  34  35
HETATM   35  O   UNL     1       5.796  13.903  88.935  1.00  0.00    -0.371 OA
HETATM   36  H   UNL     1       6.296  13.955  88.135  1.00  0.00     0.211 HD
ENDBRANCH  34  35
BRANCH  34  37
HETATM   37  C   UNL     1       4.473  12.325  88.149  1.00  0.00     0.185 C 
HETATM   38  O   UNL     1       5.636  12.187  88.767  1.00  0.00    -0.647 OA
BRANCH  37  39
HETATM   39  O   UNL     1       3.657  11.663  87.582  1.00  0.00    -0.774 OA
HETATM   40  H   UNL     1       3.592  11.931  86.482  1.00  0.00     0.167 HD
ENDBRANCH  37  39
ENDBRANCH  34  37
ENDBRANCH  33  34
ENDBRANCH  31  33
ENDBRANCH  26  31
ENDBRANCH  24  26
ENDBRANCH  19  22
ENDBRANCH  15  16
ENDBRANCH  11  14
ENDBRANCH   7   8
ENDBRANCH   2   7
TORSDOF 14
ENDMDL
