MODEL 1
REMARK VINA RESULT:      -7.6      0.000      0.000
REMARK  9 active torsions:
REMARK  status: ('A' for Active; 'I' for Inactive)
REMARK    1  A    between atoms: N_3  and  C_6 
REMARK    2  A    between atoms: C_6  and  C_9 
REMARK    3  A    between atoms: C_14  and  C_17 
REMARK       I    between atoms: N_26  and  C_15 
REMARK    4  A    between atoms: C_15  and  C_16 
REMARK    5  A    between atoms: C_20  and  C_23 
REMARK    6  A    between atoms: OG1_24  and  CB_28 
REMARK    7  A    between atoms: N_26  and  CA_27 
REMARK    8  A    between atoms: CA_27  and  CB_28 
REMARK    9  A    between atoms: CA_27  and  C_30 
ROOT
HETATM    1  O   UNK A   0       1.914   8.194  87.934  1.00  0.00    -0.388 OA
HETATM    2  N   UNK A   0       4.695   7.619  87.739  1.00  0.00     0.096 N 
HETATM    3  C   UNK A   0       4.198   9.001  87.786  1.00  0.00     0.299 C 
HETATM    4  C   UNK A   0       3.684   6.741  87.134  1.00  0.00     0.299 C 
HETATM    5  C   UNK A   0       2.877   9.050  88.551  1.00  0.00     0.198 C 
HETATM    6  C   UNK A   0       2.377   6.843  87.912  1.00  0.00     0.198 C 
ENDROOT
BRANCH   2   7
HETATM    7  C   UNK A   0       5.955   7.548  87.002  1.00  0.00     0.311 C 
BRANCH   7   8
HETATM    8  C   UNK A   0       7.052   6.943  87.810  1.00  0.00    -0.030 A 
HETATM    9  C   UNK A   0       6.860   6.694  89.170  1.00  0.00     0.010 A 
HETATM   10  C   UNK A   0       7.887   6.131  89.927  1.00  0.00     0.021 A 
HETATM   11  C   UNK A   0       9.104   5.815  89.324  1.00  0.00     0.018 A 
HETATM   12  C   UNK A   0       9.297   6.063  87.967  1.00  0.00     0.021 A 
HETATM   13  C   UNK A   0       8.271   6.627  87.209  1.00  0.00     0.010 A 
BRANCH  11  14
HETATM   14  C   UNK A   0      10.156   5.235  90.101  1.00  0.00    -0.061 C 
HETATM   15  C   UNK A   0      11.041   4.748  90.754  1.00  0.00    -0.061 C 
BRANCH  15  16
HETATM   16  C   UNK A   0      12.092   4.169  91.531  1.00  0.00     0.018 A 
HETATM   17  C   UNK A   0      13.349   3.967  90.961  1.00  0.00     0.022 A 
HETATM   18  C   UNK A   0      14.376   3.405  91.720  1.00  0.00     0.018 A 
HETATM   19  C   UNK A   0      14.122   3.058  93.031  1.00  0.00     0.032 A 
HETATM   20  C   UNK A   0      12.888   3.247  93.617  1.00  0.00     0.018 A 
HETATM   21  C   UNK A   0      11.861   3.810  92.859  1.00  0.00     0.022 A 
BRANCH  19  22
HETATM   22  C   UNK A   0      15.215   2.457  93.838  1.00  0.00     0.252 C 
HETATM   23  O   UNK A   0      16.359   2.887  93.714  1.00  0.00    -0.268 OA
ENDBRANCH  19  22
ENDBRANCH  15  16
ENDBRANCH  11  14
ENDBRANCH   7   8
ENDBRANCH   2   7
TORSDOF 9
ENDMDL
