MODEL 1
REMARK VINA RESULT:      -7.1      0.000      0.000
REMARK  10 active torsions:
REMARK  status: ('A' for Active; 'I' for Inactive)
REMARK    1  A    between atoms: O_2  and  C_16 
REMARK    2  A    between atoms: N_5  and  C_9 
REMARK    3  A    between atoms: N_6  and  C_13 
REMARK       I    between atoms: N_6  and  C_22 
REMARK    4  A    between atoms: C_9  and  C_12 
REMARK    5  A    between atoms: C_13  and  C_16 
REMARK    6  A    between atoms: C_13  and  C_21 
REMARK    7  A    between atoms: C_19  and  C_24 
REMARK    8  A    between atoms: C_22  and  C_23 
REMARK    9  A    between atoms: C_27  and  C_30 
REMARK   10  A    between atoms: N_33  and  S_34 
ROOT
HETATM    1  C   UNL     1       5.801  11.022  89.629  1.00  0.00     0.056 A 
HETATM    2  C   UNL     1       5.277   9.872  90.182  1.00  0.00     0.005 A 
HETATM    3  C   UNL     1       7.143  11.155  89.340  1.00  0.00     0.005 A 
HETATM    4  C   UNL     1       7.495   8.917  90.177  1.00  0.00     0.042 A 
HETATM    5  C   UNL     1       6.134   8.807  90.460  1.00  0.00     0.008 A 
HETATM    6  C   UNL     1       8.000  10.090  89.617  1.00  0.00     0.008 A 
ENDROOT
BRANCH   1   7
HETATM    7  C   UNL     1       4.888  12.156  89.331  1.00  0.00     0.254 C 
HETATM    8  O   UNL     1       4.839  12.603  88.188  1.00  0.00    -0.268 OA
HETATM    9  N   UNL     1       4.123  12.616  90.394  1.00  0.00    -0.337 N 
HETATM   10  HN  UNL     1       4.198  12.181  91.306  1.00  0.00     0.164 HD
BRANCH   9  11
HETATM   11  C   UNL     1       3.174  13.692  90.259  1.00  0.00     0.172 C 
BRANCH  11  12
HETATM   12  C   UNL     1       1.950  13.522  91.167  1.00  0.00     0.136 C 
HETATM   13  C   UNL     1       2.085  12.332  92.111  1.00  0.00     0.034 C 
BRANCH  12  14
HETATM   14  O   UNL     1       1.760  14.707  91.939  1.00  0.00    -0.383 OA
HETATM   15  H   UNL     1       1.257  14.474  92.737  1.00  0.00     0.210 HD
ENDBRANCH  12  14
ENDBRANCH  11  12
BRANCH  11  16
HETATM   16  C   UNL     1       3.906  14.998  90.553  1.00  0.00     0.398 A 
HETATM   17  O   UNL     1       4.969  15.305  90.018  1.00  0.00    -0.136 OA
HETATM   18  N   UNL     1       5.020  15.608  91.506  1.00  0.00     0.142 N 
HETATM   19  HN  UNL     1       5.912  15.936  91.263  1.00  0.00     0.338 HD
BRANCH  18  20
HETATM   20  S   UNL     1       4.443  15.285  92.729  1.00  0.00     0.076 SA
HETATM   21  H   UNL     1       5.174  15.235  93.664  1.00  0.00     0.136 HD
ENDBRANCH  18  20
ENDBRANCH  11  16
ENDBRANCH   9  11
ENDBRANCH   1   7
BRANCH   4  22
HETATM   22  C   UNL     1       8.374   7.826  90.464  1.00  0.00    -0.059 C 
HETATM   23  C   UNL     1       9.113   6.909  90.706  1.00  0.00    -0.059 C 
BRANCH  23  24
HETATM   24  C   UNL     1       9.993   5.818  90.994  1.00  0.00     0.042 A 
HETATM   25  C   UNL     1      10.612   5.129  89.951  1.00  0.00     0.008 A 
HETATM   26  C   UNL     1      11.468   4.064  90.231  1.00  0.00    -0.002 A 
HETATM   27  C   UNL     1      11.706   3.691  91.555  1.00  0.00     0.011 A 
HETATM   28  C   UNL     1      11.087   4.382  92.596  1.00  0.00    -0.002 A 
HETATM   29  C   UNL     1      10.231   5.446  92.315  1.00  0.00     0.008 A 
BRANCH  27  30
HETATM   30  C   UNL     1      12.624   2.554  91.853  1.00  0.00     0.277 C 
BRANCH  30  31
HETATM   31  N   UNL     1      13.658   2.912  92.822  1.00  0.00     0.147 N 
HETATM   32  C   UNL     1      14.520   1.759  93.113  1.00  0.00     0.283 C 
HETATM   33  C   UNL     1      15.597   2.159  94.118  1.00  0.00     0.178 C 
HETATM   34  O   UNL     1      16.373   3.246  93.609  1.00  0.00    -0.350 OA
HETATM   35  C   UNL     1      15.546   4.382  93.353  1.00  0.00     0.178 C 
HETATM   36  C   UNL     1      14.468   4.035  92.331  1.00  0.00     0.283 C 
ENDBRANCH  30  31
ENDBRANCH  27  30
ENDBRANCH  23  24
ENDBRANCH   4  22
TORSDOF 10
ENDMDL
