MODEL 1
REMARK VINA RESULT:      -7.6      0.000      0.000
REMARK  9 active torsions:
REMARK  status: ('A' for Active; 'I' for Inactive)
REMARK    1  A    between atoms: N_3  and  C_6 
REMARK    2  A    between atoms: C_6  and  C_9 
REMARK    3  A    between atoms: C_14  and  C_17 
REMARK       I    between atoms: N_26  and  C_15 
REMARK    4  A    between atoms: C_15  and  C_16 
REMARK    5  A    between atoms: C_20  and  C_23 
REMARK    6  A    between atoms: OG1_24  and  CB_28 
REMARK    7  A    between atoms: N_26  and  CA_27 
REMARK    8  A    between atoms: CA_27  and  CB_28 
REMARK    9  A    between atoms: CA_27  and  C_30 
ROOT
HETATM    1  O   UNK A   0       1.947   8.184  87.845  1.00  0.00    -0.388 OA
HETATM    2  N   UNK A   0       4.730   7.608  87.677  1.00  0.00     0.096 N 
HETATM    3  C   UNK A   0       4.236   8.989  87.775  1.00  0.00     0.299 C 
HETATM    4  C   UNK A   0       3.728   6.761  87.015  1.00  0.00     0.299 C 
HETATM    5  C   UNK A   0       2.902   9.009  88.517  1.00  0.00     0.198 C 
HETATM    6  C   UNK A   0       2.406   6.834  87.773  1.00  0.00     0.198 C 
ENDROOT
BRANCH   2   7
HETATM    7  C   UNK A   0       6.003   7.563  86.961  1.00  0.00     0.311 C 
BRANCH   7   8
HETATM    8  C   UNK A   0       7.092   6.951  87.774  1.00  0.00    -0.030 A 
HETATM    9  C   UNK A   0       6.863   6.625  89.112  1.00  0.00     0.010 A 
HETATM   10  C   UNK A   0       7.881   6.054  89.875  1.00  0.00     0.021 A 
HETATM   11  C   UNK A   0       9.127   5.807  89.299  1.00  0.00     0.018 A 
HETATM   12  C   UNK A   0       9.357   6.132  87.964  1.00  0.00     0.021 A 
HETATM   13  C   UNK A   0       8.339   6.704  87.201  1.00  0.00     0.010 A 
BRANCH  11  14
HETATM   14  C   UNK A   0      10.171   5.219  90.082  1.00  0.00    -0.061 C 
HETATM   15  C   UNK A   0      11.048   4.725  90.739  1.00  0.00    -0.061 C 
BRANCH  15  16
HETATM   16  C   UNK A   0      12.091   4.137  91.520  1.00  0.00     0.018 A 
HETATM   17  C   UNK A   0      13.343   3.905  90.949  1.00  0.00     0.022 A 
HETATM   18  C   UNK A   0      14.361   3.334  91.712  1.00  0.00     0.018 A 
HETATM   19  C   UNK A   0      14.106   3.008  93.027  1.00  0.00     0.032 A 
HETATM   20  C   UNK A   0      12.878   3.227  93.615  1.00  0.00     0.018 A 
HETATM   21  C   UNK A   0      11.858   3.798  92.853  1.00  0.00     0.022 A 
BRANCH  19  22
HETATM   22  C   UNK A   0      15.191   2.398  93.839  1.00  0.00     0.252 C 
HETATM   23  O   UNK A   0      16.335   2.835  93.737  1.00  0.00    -0.268 OA
ENDBRANCH  19  22
ENDBRANCH  15  16
ENDBRANCH  11  14
ENDBRANCH   7   8
ENDBRANCH   2   7
TORSDOF 9
ENDMDL
MODEL 2
REMARK VINA RESULT:      -7.5      0.086      1.011
REMARK  9 active torsions:
REMARK  status: ('A' for Active; 'I' for Inactive)
REMARK    1  A    between atoms: N_3  and  C_6 
REMARK    2  A    between atoms: C_6  and  C_9 
REMARK    3  A    between atoms: C_14  and  C_17 
REMARK       I    between atoms: N_26  and  C_15 
REMARK    4  A    between atoms: C_15  and  C_16 
REMARK    5  A    between atoms: C_20  and  C_23 
REMARK    6  A    between atoms: OG1_24  and  CB_28 
REMARK    7  A    between atoms: N_26  and  CA_27 
REMARK    8  A    between atoms: CA_27  and  CB_28 
REMARK    9  A    between atoms: CA_27  and  C_30 
ROOT
HETATM    1  O   UNK A   0       1.876   8.024  87.814  1.00  0.00    -0.388 OA
HETATM    2  N   UNK A   0       4.674   7.523  87.670  1.00  0.00     0.096 N 
HETATM    3  C   UNK A   0       4.143   8.889  87.770  1.00  0.00     0.299 C 
HETATM    4  C   UNK A   0       3.702   6.652  86.995  1.00  0.00     0.299 C 
HETATM    5  C   UNK A   0       2.801   8.871  88.498  1.00  0.00     0.198 C 
HETATM    6  C   UNK A   0       2.371   6.686  87.741  1.00  0.00     0.198 C 
ENDROOT
BRANCH   2   7
HETATM    7  C   UNK A   0       5.955   7.516  86.966  1.00  0.00     0.311 C 
BRANCH   7   8
HETATM    8  C   UNK A   0       7.049   6.915  87.782  1.00  0.00    -0.030 A 
HETATM    9  C   UNK A   0       8.284   6.640  87.195  1.00  0.00     0.010 A 
HETATM   10  C   UNK A   0       9.308   6.076  87.957  1.00  0.00     0.021 A 
HETATM   11  C   UNK A   0       9.095   5.790  89.305  1.00  0.00     0.018 A 
HETATM   12  C   UNK A   0       7.862   6.065  89.892  1.00  0.00     0.021 A 
HETATM   13  C   UNK A   0       6.838   6.628  89.130  1.00  0.00     0.010 A 
BRANCH  11  14
HETATM   14  C   UNK A   0      10.146   5.214  90.087  1.00  0.00    -0.061 C 
HETATM   15  C   UNK A   0      11.028   4.729  90.745  1.00  0.00    -0.061 C 
BRANCH  15  16
HETATM   16  C   UNK A   0      12.077   4.152  91.526  1.00  0.00     0.018 A 
HETATM   17  C   UNK A   0      13.339   3.959  90.963  1.00  0.00     0.022 A 
HETATM   18  C   UNK A   0      14.363   3.399  91.726  1.00  0.00     0.018 A 
HETATM   19  C   UNK A   0      14.104   3.045  93.034  1.00  0.00     0.032 A 
HETATM   20  C   UNK A   0      12.865   3.226  93.613  1.00  0.00     0.018 A 
HETATM   21  C   UNK A   0      11.840   3.786  92.851  1.00  0.00     0.022 A 
BRANCH  19  22
HETATM   22  C   UNK A   0      15.195   2.447  93.846  1.00  0.00     0.252 C 
HETATM   23  O   UNK A   0      16.352   2.813  93.658  1.00  0.00    -0.268 OA
ENDBRANCH  19  22
ENDBRANCH  15  16
ENDBRANCH  11  14
ENDBRANCH   7   8
ENDBRANCH   2   7
TORSDOF 9
ENDMDL
MODEL 3
REMARK VINA RESULT:      -6.9      1.409      1.997
REMARK  9 active torsions:
REMARK  status: ('A' for Active; 'I' for Inactive)
REMARK    1  A    between atoms: N_3  and  C_6 
REMARK    2  A    between atoms: C_6  and  C_9 
REMARK    3  A    between atoms: C_14  and  C_17 
REMARK       I    between atoms: N_26  and  C_15 
REMARK    4  A    between atoms: C_15  and  C_16 
REMARK    5  A    between atoms: C_20  and  C_23 
REMARK    6  A    between atoms: OG1_24  and  CB_28 
REMARK    7  A    between atoms: N_26  and  CA_27 
REMARK    8  A    between atoms: CA_27  and  CB_28 
REMARK    9  A    between atoms: CA_27  and  C_30 
ROOT
HETATM    1  O   UNK A   0       4.835  11.138  88.689  1.00  0.00    -0.388 OA
HETATM    2  N   UNK A   0       5.277   8.326  88.676  1.00  0.00     0.096 N 
HETATM    3  C   UNK A   0       6.378   9.276  88.893  1.00  0.00     0.299 C 
HETATM    4  C   UNK A   0       4.236   8.944  87.844  1.00  0.00     0.299 C 
HETATM    5  C   UNK A   0       5.838  10.557  89.524  1.00  0.00     0.198 C 
HETATM    6  C   UNK A   0       3.747  10.233  88.499  1.00  0.00     0.198 C 
ENDROOT
BRANCH   2   7
HETATM    7  C   UNK A   0       5.770   7.094  88.063  1.00  0.00     0.311 C 
BRANCH   7   8
HETATM    8  C   UNK A   0       6.960   6.543  88.772  1.00  0.00    -0.030 A 
HETATM    9  C   UNK A   0       6.837   6.081  90.083  1.00  0.00     0.010 A 
HETATM   10  C   UNK A   0       7.949   5.566  90.748  1.00  0.00     0.021 A 
HETATM   11  C   UNK A   0       9.184   5.512  90.101  1.00  0.00     0.018 A 
HETATM   12  C   UNK A   0       9.308   5.973  88.792  1.00  0.00     0.021 A 
HETATM   13  C   UNK A   0       8.195   6.488  88.127  1.00  0.00     0.010 A 
BRANCH  11  14
HETATM   14  C   UNK A   0      10.324   4.983  90.783  1.00  0.00    -0.061 C 
HETATM   15  C   UNK A   0      11.283   4.537  91.357  1.00  0.00    -0.061 C 
BRANCH  15  16
HETATM   16  C   UNK A   0      12.422   4.007  92.039  1.00  0.00     0.018 A 
HETATM   17  C   UNK A   0      12.324   3.646  93.383  1.00  0.00     0.022 A 
HETATM   18  C   UNK A   0      13.436   3.127  94.047  1.00  0.00     0.018 A 
HETATM   19  C   UNK A   0      14.618   2.979  93.352  1.00  0.00     0.032 A 
HETATM   20  C   UNK A   0      14.740   3.328  92.024  1.00  0.00     0.018 A 
HETATM   21  C   UNK A   0      13.630   3.848  91.359  1.00  0.00     0.022 A 
BRANCH  19  22
HETATM   22  C   UNK A   0      15.802   2.427  94.061  1.00  0.00     0.252 C 
HETATM   23  O   UNK A   0      16.925   2.800  93.731  1.00  0.00    -0.268 OA
ENDBRANCH  19  22
ENDBRANCH  15  16
ENDBRANCH  11  14
ENDBRANCH   7   8
ENDBRANCH   2   7
TORSDOF 9
ENDMDL
MODEL 4
REMARK VINA RESULT:      -6.8      1.567      2.251
REMARK  9 active torsions:
REMARK  status: ('A' for Active; 'I' for Inactive)
REMARK    1  A    between atoms: N_3  and  C_6 
REMARK    2  A    between atoms: C_6  and  C_9 
REMARK    3  A    between atoms: C_14  and  C_17 
REMARK       I    between atoms: N_26  and  C_15 
REMARK    4  A    between atoms: C_15  and  C_16 
REMARK    5  A    between atoms: C_20  and  C_23 
REMARK    6  A    between atoms: OG1_24  and  CB_28 
REMARK    7  A    between atoms: N_26  and  CA_27 
REMARK    8  A    between atoms: CA_27  and  CB_28 
REMARK    9  A    between atoms: CA_27  and  C_30 
ROOT
HETATM    1  O   UNK A   0       2.959  11.620  89.507  1.00  0.00    -0.388 OA
HETATM    2  N   UNK A   0       4.525   9.332  88.862  1.00  0.00     0.096 N 
HETATM    3  C   UNK A   0       3.818  10.096  87.825  1.00  0.00     0.299 C 
HETATM    4  C   UNK A   0       3.810   9.439  90.141  1.00  0.00     0.299 C 
HETATM    5  C   UNK A   0       3.665  11.549  88.267  1.00  0.00     0.198 C 
HETATM    6  C   UNK A   0       3.656  10.906  90.528  1.00  0.00     0.198 C 
ENDROOT
BRANCH   2   7
HETATM    7  C   UNK A   0       4.674   7.934  88.464  1.00  0.00     0.311 C 
BRANCH   7   8
HETATM    8  C   UNK A   0       5.917   7.317  89.009  1.00  0.00    -0.030 A 
HETATM    9  C   UNK A   0       7.163   7.718  88.527  1.00  0.00     0.010 A 
HETATM   10  C   UNK A   0       8.327   7.140  89.035  1.00  0.00     0.021 A 
HETATM   11  C   UNK A   0       8.243   6.164  90.027  1.00  0.00     0.018 A 
HETATM   12  C   UNK A   0       6.999   5.763  90.510  1.00  0.00     0.021 A 
HETATM   13  C   UNK A   0       5.835   6.340  90.001  1.00  0.00     0.010 A 
BRANCH  11  14
HETATM   14  C   UNK A   0       9.437   5.573  90.549  1.00  0.00    -0.061 C 
HETATM   15  C   UNK A   0      10.440   5.076  90.988  1.00  0.00    -0.061 C 
BRANCH  15  16
HETATM   16  C   UNK A   0      11.633   4.486  91.510  1.00  0.00     0.018 A 
HETATM   17  C   UNK A   0      12.727   4.268  90.671  1.00  0.00     0.022 A 
HETATM   18  C   UNK A   0      13.891   3.695  91.182  1.00  0.00     0.018 A 
HETATM   19  C   UNK A   0      13.937   3.355  92.518  1.00  0.00     0.032 A 
HETATM   20  C   UNK A   0      12.870   3.560  93.367  1.00  0.00     0.018 A 
HETATM   21  C   UNK A   0      11.705   4.133  92.857  1.00  0.00     0.022 A 
BRANCH  19  22
HETATM   22  C   UNK A   0      15.178   2.742  93.060  1.00  0.00     0.252 C 
HETATM   23  O   UNK A   0      15.128   2.129  94.123  1.00  0.00    -0.268 OA
ENDBRANCH  19  22
ENDBRANCH  15  16
ENDBRANCH  11  14
ENDBRANCH   7   8
ENDBRANCH   2   7
TORSDOF 9
ENDMDL
MODEL 5
REMARK VINA RESULT:      -6.6      3.915     10.484
REMARK  9 active torsions:
REMARK  status: ('A' for Active; 'I' for Inactive)
REMARK    1  A    between atoms: N_3  and  C_6 
REMARK    2  A    between atoms: C_6  and  C_9 
REMARK    3  A    between atoms: C_14  and  C_17 
REMARK       I    between atoms: N_26  and  C_15 
REMARK    4  A    between atoms: C_15  and  C_16 
REMARK    5  A    between atoms: C_20  and  C_23 
REMARK    6  A    between atoms: OG1_24  and  CB_28 
REMARK    7  A    between atoms: N_26  and  CA_27 
REMARK    8  A    between atoms: CA_27  and  CB_28 
REMARK    9  A    between atoms: CA_27  and  C_30 
ROOT
HETATM    1  O   UNK A   0      14.580   3.359  92.132  1.00  0.00    -0.388 OA
HETATM    2  N   UNK A   0      11.861   4.185  92.306  1.00  0.00     0.096 N 
HETATM    3  C   UNK A   0      12.471   3.329  93.333  1.00  0.00     0.299 C 
HETATM    4  C   UNK A   0      12.515   3.959  91.009  1.00  0.00     0.299 C 
HETATM    5  C   UNK A   0      13.973   3.596  93.403  1.00  0.00     0.198 C 
HETATM    6  C   UNK A   0      14.014   4.210  91.134  1.00  0.00     0.198 C 
ENDROOT
BRANCH   2   7
HETATM    7  C   UNK A   0      10.424   3.938  92.214  1.00  0.00     0.311 C 
BRANCH   7   8
HETATM    8  C   UNK A   0       9.651   5.181  91.929  1.00  0.00    -0.030 A 
HETATM    9  C   UNK A   0       8.669   5.179  90.938  1.00  0.00     0.010 A 
HETATM   10  C   UNK A   0       7.947   6.342  90.670  1.00  0.00     0.021 A 
HETATM   11  C   UNK A   0       8.206   7.505  91.394  1.00  0.00     0.018 A 
HETATM   12  C   UNK A   0       9.187   7.508  92.384  1.00  0.00     0.021 A 
HETATM   13  C   UNK A   0       9.909   6.346  92.652  1.00  0.00     0.010 A 
BRANCH  11  14
HETATM   14  C   UNK A   0       7.464   8.697  91.120  1.00  0.00    -0.061 C 
HETATM   15  C   UNK A   0       6.840   9.699  90.889  1.00  0.00    -0.061 C 
BRANCH  15  16
HETATM   16  C   UNK A   0       6.098  10.890  90.615  1.00  0.00     0.018 A 
HETATM   17  C   UNK A   0       5.266  11.432  91.595  1.00  0.00     0.022 A 
HETATM   18  C   UNK A   0       4.544  12.596  91.328  1.00  0.00     0.018 A 
HETATM   19  C   UNK A   0       4.670  13.190  90.090  1.00  0.00     0.032 A 
HETATM   20  C   UNK A   0       5.486  12.673  89.106  1.00  0.00     0.018 A 
HETATM   21  C   UNK A   0       6.208  11.510  89.371  1.00  0.00     0.022 A 
BRANCH  19  22
HETATM   22  C   UNK A   0       3.900  14.428  89.806  1.00  0.00     0.252 C 
HETATM   23  O   UNK A   0       4.491  15.503  89.749  1.00  0.00    -0.268 OA
ENDBRANCH  19  22
ENDBRANCH  15  16
ENDBRANCH  11  14
ENDBRANCH   7   8
ENDBRANCH   2   7
TORSDOF 9
ENDMDL
MODEL 6
REMARK VINA RESULT:      -6.4      4.853     10.394
REMARK  9 active torsions:
REMARK  status: ('A' for Active; 'I' for Inactive)
REMARK    1  A    between atoms: N_3  and  C_6 
REMARK    2  A    between atoms: C_6  and  C_9 
REMARK    3  A    between atoms: C_14  and  C_17 
REMARK       I    between atoms: N_26  and  C_15 
REMARK    4  A    between atoms: C_15  and  C_16 
REMARK    5  A    between atoms: C_20  and  C_23 
REMARK    6  A    between atoms: OG1_24  and  CB_28 
REMARK    7  A    between atoms: N_26  and  CA_27 
REMARK    8  A    between atoms: CA_27  and  CB_28 
REMARK    9  A    between atoms: CA_27  and  C_30 
ROOT
HETATM    1  O   UNK A   0      11.296   4.089  89.016  1.00  0.00    -0.388 OA
HETATM    2  N   UNK A   0       9.422   5.932  87.923  1.00  0.00     0.096 N 
HETATM    3  C   UNK A   0      10.072   4.911  87.089  1.00  0.00     0.299 C 
HETATM    4  C   UNK A   0      10.301   6.301  89.042  1.00  0.00     0.299 C 
HETATM    5  C   UNK A   0      10.436   3.700  87.944  1.00  0.00     0.198 C 
HETATM    6  C   UNK A   0      10.660   5.059  89.850  1.00  0.00     0.198 C 
ENDROOT
BRANCH   2   7
HETATM    7  C   UNK A   0       9.074   7.106  87.126  1.00  0.00     0.311 C 
BRANCH   7   8
HETATM    8  C   UNK A   0       8.284   8.105  87.901  1.00  0.00    -0.030 A 
HETATM    9  C   UNK A   0       8.876   9.305  88.297  1.00  0.00     0.010 A 
HETATM   10  C   UNK A   0       8.139  10.239  89.024  1.00  0.00     0.021 A 
HETATM   11  C   UNK A   0       6.810   9.974  89.354  1.00  0.00     0.018 A 
HETATM   12  C   UNK A   0       6.218   8.776  88.959  1.00  0.00     0.021 A 
HETATM   13  C   UNK A   0       6.955   7.841  88.232  1.00  0.00     0.010 A 
BRANCH  11  14
HETATM   14  C   UNK A   0       6.053  10.933  90.098  1.00  0.00    -0.061 C 
HETATM   15  C   UNK A   0       5.418  11.740  90.724  1.00  0.00    -0.061 C 
BRANCH  15  16
HETATM   16  C   UNK A   0       4.662  12.699  91.467  1.00  0.00     0.018 A 
HETATM   17  C   UNK A   0       4.115  12.349  92.702  1.00  0.00     0.022 A 
HETATM   18  C   UNK A   0       3.380  13.286  93.428  1.00  0.00     0.018 A 
HETATM   19  C   UNK A   0       3.209  14.551  92.904  1.00  0.00     0.032 A 
HETATM   20  C   UNK A   0       3.740  14.921  91.686  1.00  0.00     0.018 A 
HETATM   21  C   UNK A   0       4.475  13.985  90.959  1.00  0.00     0.022 A 
BRANCH  19  22
HETATM   22  C   UNK A   0       2.424  15.548  93.678  1.00  0.00     0.252 C 
HETATM   23  O   UNK A   0       1.211  15.622  93.502  1.00  0.00    -0.268 OA
ENDBRANCH  19  22
ENDBRANCH  15  16
ENDBRANCH  11  14
ENDBRANCH   7   8
ENDBRANCH   2   7
TORSDOF 9
ENDMDL
MODEL 7
REMARK VINA RESULT:      -6.3      1.614      2.156
REMARK  9 active torsions:
REMARK  status: ('A' for Active; 'I' for Inactive)
REMARK    1  A    between atoms: N_3  and  C_6 
REMARK    2  A    between atoms: C_6  and  C_9 
REMARK    3  A    between atoms: C_14  and  C_17 
REMARK       I    between atoms: N_26  and  C_15 
REMARK    4  A    between atoms: C_15  and  C_16 
REMARK    5  A    between atoms: C_20  and  C_23 
REMARK    6  A    between atoms: OG1_24  and  CB_28 
REMARK    7  A    between atoms: N_26  and  CA_27 
REMARK    8  A    between atoms: CA_27  and  CB_28 
REMARK    9  A    between atoms: CA_27  and  C_30 
ROOT
HETATM    1  O   UNK A   0       3.916   6.831  86.699  1.00  0.00    -0.388 OA
HETATM    2  N   UNK A   0       4.482   8.588  88.866  1.00  0.00     0.096 N 
HETATM    3  C   UNK A   0       5.553   8.041  88.021  1.00  0.00     0.299 C 
HETATM    4  C   UNK A   0       3.348   7.654  88.909  1.00  0.00     0.299 C 
HETATM    5  C   UNK A   0       5.011   7.747  86.625  1.00  0.00     0.198 C 
HETATM    6  C   UNK A   0       2.858   7.369  87.493  1.00  0.00     0.198 C 
ENDROOT
BRANCH   2   7
HETATM    7  C   UNK A   0       4.976   8.868  90.213  1.00  0.00     0.311 C 
BRANCH   7   8
HETATM    8  C   UNK A   0       6.200   8.083  90.543  1.00  0.00    -0.030 A 
HETATM    9  C   UNK A   0       7.460   8.668  90.409  1.00  0.00     0.010 A 
HETATM   10  C   UNK A   0       8.606   7.934  90.715  1.00  0.00     0.021 A 
HETATM   11  C   UNK A   0       8.491   6.616  91.157  1.00  0.00     0.018 A 
HETATM   12  C   UNK A   0       7.234   6.031  91.291  1.00  0.00     0.021 A 
HETATM   13  C   UNK A   0       6.088   6.764  90.985  1.00  0.00     0.010 A 
BRANCH  11  14
HETATM   14  C   UNK A   0       9.666   5.864  91.473  1.00  0.00    -0.061 C 
HETATM   15  C   UNK A   0      10.654   5.232  91.740  1.00  0.00    -0.061 C 
BRANCH  15  16
HETATM   16  C   UNK A   0      11.828   4.480  92.056  1.00  0.00     0.018 A 
HETATM   17  C   UNK A   0      12.820   4.299  91.092  1.00  0.00     0.022 A 
HETATM   18  C   UNK A   0      13.966   3.567  91.402  1.00  0.00     0.018 A 
HETATM   19  C   UNK A   0      14.095   3.035  92.668  1.00  0.00     0.032 A 
HETATM   20  C   UNK A   0      13.129   3.200  93.638  1.00  0.00     0.018 A 
HETATM   21  C   UNK A   0      11.982   3.931  93.329  1.00  0.00     0.022 A 
BRANCH  19  22
HETATM   22  C   UNK A   0      15.316   2.254  92.997  1.00  0.00     0.252 C 
HETATM   23  O   UNK A   0      16.137   2.726  93.779  1.00  0.00    -0.268 OA
ENDBRANCH  19  22
ENDBRANCH  15  16
ENDBRANCH  11  14
ENDBRANCH   7   8
ENDBRANCH   2   7
TORSDOF 9
ENDMDL
MODEL 8
REMARK VINA RESULT:      -6.3      1.916      2.946
REMARK  9 active torsions:
REMARK  status: ('A' for Active; 'I' for Inactive)
REMARK    1  A    between atoms: N_3  and  C_6 
REMARK    2  A    between atoms: C_6  and  C_9 
REMARK    3  A    between atoms: C_14  and  C_17 
REMARK       I    between atoms: N_26  and  C_15 
REMARK    4  A    between atoms: C_15  and  C_16 
REMARK    5  A    between atoms: C_20  and  C_23 
REMARK    6  A    between atoms: OG1_24  and  CB_28 
REMARK    7  A    between atoms: N_26  and  CA_27 
REMARK    8  A    between atoms: CA_27  and  CB_28 
REMARK    9  A    between atoms: CA_27  and  C_30 
ROOT
HETATM    1  O   UNK A   0       2.269  10.017  87.858  1.00  0.00    -0.388 OA
HETATM    2  N   UNK A   0       3.694   8.536  89.828  1.00  0.00     0.096 N 
HETATM    3  C   UNK A   0       2.370   8.109  89.355  1.00  0.00     0.299 C 
HETATM    4  C   UNK A   0       3.818   9.997  89.725  1.00  0.00     0.299 C 
HETATM    5  C   UNK A   0       2.151   8.594  87.924  1.00  0.00     0.198 C 
HETATM    6  C   UNK A   0       3.565  10.438  88.287  1.00  0.00     0.198 C 
ENDROOT
BRANCH   2   7
HETATM    7  C   UNK A   0       3.921   8.091  91.202  1.00  0.00     0.311 C 
BRANCH   7   8
HETATM    8  C   UNK A   0       5.252   7.441  91.376  1.00  0.00    -0.030 A 
HETATM    9  C   UNK A   0       5.870   6.819  90.291  1.00  0.00     0.010 A 
HETATM   10  C   UNK A   0       7.113   6.209  90.453  1.00  0.00     0.021 A 
HETATM   11  C   UNK A   0       7.739   6.224  91.699  1.00  0.00     0.018 A 
HETATM   12  C   UNK A   0       7.123   6.846  92.783  1.00  0.00     0.021 A 
HETATM   13  C   UNK A   0       5.879   7.455  92.621  1.00  0.00     0.010 A 
BRANCH  11  14
HETATM   14  C   UNK A   0       9.016   5.600  91.864  1.00  0.00    -0.061 C 
HETATM   15  C   UNK A   0      10.089   5.075  92.003  1.00  0.00    -0.061 C 
BRANCH  15  16
HETATM   16  C   UNK A   0      11.365   4.451  92.167  1.00  0.00     0.018 A 
HETATM   17  C   UNK A   0      11.771   4.018  93.430  1.00  0.00     0.022 A 
HETATM   18  C   UNK A   0      13.015   3.407  93.589  1.00  0.00     0.018 A 
HETATM   19  C   UNK A   0      13.823   3.242  92.484  1.00  0.00     0.032 A 
HETATM   20  C   UNK A   0      13.445   3.663  91.226  1.00  0.00     0.018 A 
HETATM   21  C   UNK A   0      12.202   4.274  91.065  1.00  0.00     0.022 A 
BRANCH  19  22
HETATM   22  C   UNK A   0      15.149   2.593  92.655  1.00  0.00     0.252 C 
HETATM   23  O   UNK A   0      15.894   2.979  93.552  1.00  0.00    -0.268 OA
ENDBRANCH  19  22
ENDBRANCH  15  16
ENDBRANCH  11  14
ENDBRANCH   7   8
ENDBRANCH   2   7
TORSDOF 9
ENDMDL
MODEL 9
REMARK VINA RESULT:      -6.1      2.790     10.439
REMARK  9 active torsions:
REMARK  status: ('A' for Active; 'I' for Inactive)
REMARK    1  A    between atoms: N_3  and  C_6 
REMARK    2  A    between atoms: C_6  and  C_9 
REMARK    3  A    between atoms: C_14  and  C_17 
REMARK       I    between atoms: N_26  and  C_15 
REMARK    4  A    between atoms: C_15  and  C_16 
REMARK    5  A    between atoms: C_20  and  C_23 
REMARK    6  A    between atoms: OG1_24  and  CB_28 
REMARK    7  A    between atoms: N_26  and  CA_27 
REMARK    8  A    between atoms: CA_27  and  CB_28 
REMARK    9  A    between atoms: CA_27  and  C_30 
ROOT
HETATM    1  O   UNK A   0      15.331   2.695  92.188  1.00  0.00    -0.388 OA
HETATM    2  N   UNK A   0      12.778   3.618  93.044  1.00  0.00     0.096 N 
HETATM    3  C   UNK A   0      13.540   4.323  92.004  1.00  0.00     0.299 C 
HETATM    4  C   UNK A   0      13.696   2.933  93.964  1.00  0.00     0.299 C 
HETATM    5  C   UNK A   0      14.445   3.337  91.269  1.00  0.00     0.198 C 
HETATM    6  C   UNK A   0      14.597   1.982  93.184  1.00  0.00     0.198 C 
ENDROOT
BRANCH   2   7
HETATM    7  C   UNK A   0      11.911   4.545  93.768  1.00  0.00     0.311 C 
BRANCH   7   8
HETATM    8  C   UNK A   0      10.696   4.915  92.987  1.00  0.00    -0.030 A 
HETATM    9  C   UNK A   0      10.035   6.115  93.253  1.00  0.00     0.010 A 
HETATM   10  C   UNK A   0       8.898   6.461  92.525  1.00  0.00     0.021 A 
HETATM   11  C   UNK A   0       8.422   5.608  91.529  1.00  0.00     0.018 A 
HETATM   12  C   UNK A   0       9.081   4.410  91.263  1.00  0.00     0.021 A 
HETATM   13  C   UNK A   0      10.218   4.063  91.991  1.00  0.00     0.010 A 
BRANCH  11  14
HETATM   14  C   UNK A   0       7.256   5.965  90.781  1.00  0.00    -0.061 C 
HETATM   15  C   UNK A   0       6.276   6.265  90.152  1.00  0.00    -0.061 C 
BRANCH  15  16
HETATM   16  C   UNK A   0       5.112   6.621  89.403  1.00  0.00     0.018 A 
HETATM   17  C   UNK A   0       3.987   7.122  90.060  1.00  0.00     0.022 A 
HETATM   18  C   UNK A   0       2.852   7.472  89.329  1.00  0.00     0.018 A 
HETATM   19  C   UNK A   0       2.867   7.315  87.959  1.00  0.00     0.032 A 
HETATM   20  C   UNK A   0       3.965   6.822  87.286  1.00  0.00     0.018 A 
HETATM   21  C   UNK A   0       5.101   6.471  88.016  1.00  0.00     0.022 A 
BRANCH  19  22
HETATM   22  C   UNK A   0       1.657   7.686  87.181  1.00  0.00     0.252 C 
HETATM   23  O   UNK A   0       1.190   6.883  86.377  1.00  0.00    -0.268 OA
ENDBRANCH  19  22
ENDBRANCH  15  16
ENDBRANCH  11  14
ENDBRANCH   7   8
ENDBRANCH   2   7
TORSDOF 9
ENDMDL
