MODEL 1
REMARK VINA RESULT:      -7.1      0.000      0.000
REMARK  10 active torsions:
REMARK  status: ('A' for Active; 'I' for Inactive)
REMARK    1  A    between atoms: O_2  and  C_16 
REMARK    2  A    between atoms: N_5  and  C_9 
REMARK    3  A    between atoms: N_6  and  C_13 
REMARK       I    between atoms: N_6  and  C_22 
REMARK    4  A    between atoms: C_9  and  C_12 
REMARK    5  A    between atoms: C_13  and  C_16 
REMARK    6  A    between atoms: C_13  and  C_21 
REMARK    7  A    between atoms: C_19  and  C_24 
REMARK    8  A    between atoms: C_22  and  C_23 
REMARK    9  A    between atoms: C_27  and  C_30 
REMARK   10  A    between atoms: N_33  and  S_34 
ROOT
HETATM    1  C   UNL     1       5.680  10.962  89.540  1.00  0.00     0.056 A 
HETATM    2  C   UNL     1       5.145   9.710  89.758  1.00  0.00     0.005 A 
HETATM    3  C   UNL     1       7.038  11.202  89.591  1.00  0.00     0.005 A 
HETATM    4  C   UNL     1       7.382   8.866  90.101  1.00  0.00     0.042 A 
HETATM    5  C   UNL     1       6.005   8.649  90.043  1.00  0.00     0.008 A 
HETATM    6  C   UNL     1       7.899  10.142  89.875  1.00  0.00     0.008 A 
ENDROOT
BRANCH   1   7
HETATM    7  C   UNL     1       4.764  12.091  89.235  1.00  0.00     0.254 C 
HETATM    8  O   UNL     1       4.636  12.463  88.071  1.00  0.00    -0.268 OA
HETATM    9  N   UNL     1       4.088  12.635  90.319  1.00  0.00    -0.337 N 
HETATM   10  HN  UNL     1       4.225  12.259  91.250  1.00  0.00     0.164 HD
BRANCH   9  11
HETATM   11  C   UNL     1       3.147  13.717  90.182  1.00  0.00     0.172 C 
BRANCH  11  12
HETATM   12  C   UNL     1       1.910  13.545  91.072  1.00  0.00     0.136 C 
HETATM   13  C   UNL     1       2.059  12.395  92.062  1.00  0.00     0.034 C 
BRANCH  12  14
HETATM   14  O   UNL     1       1.670  14.752  91.795  1.00  0.00    -0.383 OA
HETATM   15  H   UNL     1       1.326  14.517  92.674  1.00  0.00     0.210 HD
ENDBRANCH  12  14
ENDBRANCH  11  12
BRANCH  11  16
HETATM   16  C   UNL     1       3.881  15.016  90.499  1.00  0.00     0.398 A 
HETATM   17  O   UNL     1       4.981  15.296  90.026  1.00  0.00    -0.136 OA
HETATM   18  N   UNL     1       4.946  15.624  91.509  1.00  0.00     0.142 N 
HETATM   19  HN  UNL     1       5.857  15.933  91.316  1.00  0.00     0.338 HD
BRANCH  18  20
HETATM   20  S   UNL     1       4.290  15.331  92.700  1.00  0.00     0.076 SA
HETATM   21  H   UNL     1       3.342  15.998  92.962  1.00  0.00     0.136 HD
ENDBRANCH  18  20
ENDBRANCH  11  16
ENDBRANCH   9  11
ENDBRANCH   1   7
BRANCH   4  22
HETATM   22  C   UNL     1       8.264   7.780  90.395  1.00  0.00    -0.059 C 
HETATM   23  C   UNL     1       9.005   6.866  90.642  1.00  0.00    -0.059 C 
BRANCH  23  24
HETATM   24  C   UNL     1       9.888   5.779  90.935  1.00  0.00     0.042 A 
HETATM   25  C   UNL     1      10.528   5.102  89.897  1.00  0.00     0.008 A 
HETATM   26  C   UNL     1      11.387   4.041  90.183  1.00  0.00    -0.002 A 
HETATM   27  C   UNL     1      11.607   3.659  91.507  1.00  0.00     0.011 A 
HETATM   28  C   UNL     1      10.967   4.337  92.544  1.00  0.00    -0.002 A 
HETATM   29  C   UNL     1      10.107   5.398  92.257  1.00  0.00     0.008 A 
BRANCH  27  30
HETATM   30  C   UNL     1      12.528   2.526  91.811  1.00  0.00     0.277 C 
BRANCH  30  31
HETATM   31  N   UNL     1      13.548   2.886  92.794  1.00  0.00     0.147 N 
HETATM   32  C   UNL     1      14.405   1.733  93.101  1.00  0.00     0.283 C 
HETATM   33  C   UNL     1      15.468   2.135  94.120  1.00  0.00     0.178 C 
HETATM   34  O   UNL     1      16.252   3.220  93.619  1.00  0.00    -0.350 OA
HETATM   35  C   UNL     1      15.430   4.356  93.348  1.00  0.00     0.178 C 
HETATM   36  C   UNL     1      14.366   4.007  92.312  1.00  0.00     0.283 C 
ENDBRANCH  30  31
ENDBRANCH  27  30
ENDBRANCH  23  24
ENDBRANCH   4  22
TORSDOF 10
ENDMDL
