MODEL 1
REMARK VINA RESULT:      -7.2      0.000      0.000
REMARK  9 active torsions:
REMARK  status: ('A' for Active; 'I' for Inactive)
REMARK    1  A    between atoms: O_2  and  C_17 
REMARK    2  A    between atoms: N_5  and  C_10 
REMARK    3  A    between atoms: N_6  and  C_14 
REMARK       I    between atoms: N_6  and  C_23 
REMARK       I    between atoms: N_7  and  C_22 
REMARK    4  A    between atoms: C_10  and  C_13 
REMARK    5  A    between atoms: C_14  and  C_17 
REMARK    6  A    between atoms: C_14  and  C_22 
REMARK    7  A    between atoms: C_20  and  C_25 
REMARK    8  A    between atoms: C_23  and  C_24 
REMARK    9  A    between atoms: C_28  and  C_31 
ROOT
HETATM    1  O   UNL     1      17.019   4.223  93.849  1.00  0.00    -0.388 OA
HETATM    2  N   UNL     1      14.657   2.701  93.391  1.00  0.00     0.096 N 
HETATM    3  C   UNL     1      15.992   2.141  93.140  1.00  0.00     0.299 C 
HETATM    4  C   UNL     1      14.680   4.159  93.208  1.00  0.00     0.299 C 
HETATM    5  C   UNL     1      17.014   2.809  94.056  1.00  0.00     0.198 C 
HETATM    6  C   UNL     1      15.732   4.779  94.121  1.00  0.00     0.198 C 
ENDROOT
BRANCH   2   7
HETATM    7  C   UNL     1      13.663   2.082  92.516  1.00  0.00     0.311 C 
BRANCH   7   8
HETATM    8  C   UNL     1      12.625   3.051  92.062  1.00  0.00    -0.030 A 
HETATM    9  C   UNL     1      11.532   3.337  92.883  1.00  0.00     0.010 A 
HETATM   10  C   UNL     1      10.559   4.241  92.458  1.00  0.00     0.021 A 
HETATM   11  C   UNL     1      10.680   4.861  91.215  1.00  0.00     0.018 A 
HETATM   12  C   UNL     1      11.770   4.577  90.395  1.00  0.00     0.021 A 
HETATM   13  C   UNL     1      12.743   3.672  90.819  1.00  0.00     0.010 A 
BRANCH  11  14
HETATM   14  C   UNL     1       9.683   5.790  90.780  1.00  0.00    -0.061 C 
HETATM   15  C   UNL     1       8.844   6.571  90.415  1.00  0.00    -0.061 C 
BRANCH  15  16
HETATM   16  C   UNL     1       7.847   7.499  89.982  1.00  0.00     0.018 A 
HETATM   17  C   UNL     1       8.205   8.811  89.669  1.00  0.00     0.022 A 
HETATM   18  C   UNL     1       7.233   9.715  89.244  1.00  0.00     0.018 A 
HETATM   19  C   UNL     1       5.925   9.289  89.140  1.00  0.00     0.032 A 
HETATM   20  C   UNL     1       5.546   7.998  89.443  1.00  0.00     0.018 A 
HETATM   21  C   UNL     1       6.517   7.092  89.869  1.00  0.00     0.022 A 
BRANCH  19  22
HETATM   22  C   UNL     1       4.889  10.254  88.688  1.00  0.00     0.252 C 
HETATM   23  O   UNL     1       4.132   9.936  87.775  1.00  0.00    -0.268 OA
HETATM   24  N   UNL     1       4.844  11.461  89.371  1.00  0.00    -0.342 N 
HETATM   25  H   UNL     1       5.486  11.644  90.133  1.00  0.00     0.163 HD
BRANCH  24  26
HETATM   26  C   UNL     1       3.881  12.488  89.067  1.00  0.00     0.199 C 
BRANCH  26  27
HETATM   27  C   UNL     1       3.082  12.936  90.298  1.00  0.00     0.145 C 
HETATM   28  C   UNL     1       3.938  13.002  91.558  1.00  0.00     0.042 C 
BRANCH  27  29
HETATM   29  O   UNL     1       2.513  14.223  90.056  1.00  0.00    -0.393 OA
HETATM   30  H   UNL     1       2.414  14.677  90.909  1.00  0.00     0.210 HD
ENDBRANCH  27  29
ENDBRANCH  26  27
BRANCH  26  31
HETATM   31  C   UNL     1       4.630  13.658  88.438  1.00  0.00     0.220 C 
HETATM   32  O   UNL     1       4.884  14.696  89.046  1.00  0.00    -0.278 OA
HETATM   33  N   UNL     1       4.944  13.425  87.121  1.00  0.00    -0.271 NA
HETATM   34  H   UNL     1       4.674  12.621  86.565  1.00  0.00     0.127 HD
HETATM   35  H   UNL     1       4.384  14.009  85.974  1.00  0.00     0.127 HD
ENDBRANCH  26  31
ENDBRANCH  24  26
ENDBRANCH  19  22
ENDBRANCH  15  16
ENDBRANCH  11  14
ENDBRANCH   7   8
ENDBRANCH   2   7
TORSDOF 9
ENDMDL
MODEL 2
REMARK VINA RESULT:      -7.2      1.455      1.913
REMARK  9 active torsions:
REMARK  status: ('A' for Active; 'I' for Inactive)
REMARK    1  A    between atoms: O_2  and  C_17 
REMARK    2  A    between atoms: N_5  and  C_10 
REMARK    3  A    between atoms: N_6  and  C_14 
REMARK       I    between atoms: N_6  and  C_23 
REMARK       I    between atoms: N_7  and  C_22 
REMARK    4  A    between atoms: C_10  and  C_13 
REMARK    5  A    between atoms: C_14  and  C_17 
REMARK    6  A    between atoms: C_14  and  C_22 
REMARK    7  A    between atoms: C_20  and  C_25 
REMARK    8  A    between atoms: C_23  and  C_24 
REMARK    9  A    between atoms: C_28  and  C_31 
ROOT
HETATM    1  O   UNL     1      16.070   3.985  94.124  1.00  0.00    -0.388 OA
HETATM    2  N   UNL     1      14.271   2.648  92.369  1.00  0.00     0.096 N 
HETATM    3  C   UNL     1      14.353   4.114  92.413  1.00  0.00     0.299 C 
HETATM    4  C   UNL     1      14.630   2.084  93.678  1.00  0.00     0.299 C 
HETATM    5  C   UNL     1      15.754   4.541  92.846  1.00  0.00     0.198 C 
HETATM    6  C   UNL     1      16.022   2.558  94.082  1.00  0.00     0.198 C 
ENDROOT
BRANCH   2   7
HETATM    7  C   UNL     1      12.933   2.216  91.967  1.00  0.00     0.311 C 
BRANCH   7   8
HETATM    8  C   UNL     1      12.028   3.365  91.680  1.00  0.00    -0.030 A 
HETATM    9  C   UNL     1      11.846   3.797  90.365  1.00  0.00     0.010 A 
HETATM   10  C   UNL     1      11.001   4.874  90.096  1.00  0.00     0.021 A 
HETATM   11  C   UNL     1      10.337   5.516  91.140  1.00  0.00     0.018 A 
HETATM   12  C   UNL     1      10.518   5.085  92.453  1.00  0.00     0.021 A 
HETATM   13  C   UNL     1      11.364   4.010  92.723  1.00  0.00     0.010 A 
BRANCH  11  14
HETATM   14  C   UNL     1       9.469   6.619  90.864  1.00  0.00    -0.061 C 
HETATM   15  C   UNL     1       8.738   7.546  90.632  1.00  0.00    -0.061 C 
BRANCH  15  16
HETATM   16  C   UNL     1       7.871   8.648  90.356  1.00  0.00     0.018 A 
HETATM   17  C   UNL     1       8.400   9.852  89.891  1.00  0.00     0.022 A 
HETATM   18  C   UNL     1       7.553  10.926  89.619  1.00  0.00     0.018 A 
HETATM   19  C   UNL     1       6.197  10.773  89.818  1.00  0.00     0.032 A 
HETATM   20  C   UNL     1       5.649   9.593  90.277  1.00  0.00     0.018 A 
HETATM   21  C   UNL     1       6.495   8.518  90.549  1.00  0.00     0.022 A 
BRANCH  19  22
HETATM   22  C   UNL     1       5.296  11.918  89.530  1.00  0.00     0.252 C 
HETATM   23  O   UNL     1       5.111  12.258  88.364  1.00  0.00    -0.268 OA
HETATM   24  N   UNL     1       4.699  12.514  90.633  1.00  0.00    -0.342 N 
HETATM   25  H   UNL     1       4.879  12.162  91.566  1.00  0.00     0.163 HD
BRANCH  24  26
HETATM   26  C   UNL     1       3.781  13.619  90.516  1.00  0.00     0.199 C 
BRANCH  26  27
HETATM   27  C   UNL     1       2.656  13.569  91.556  1.00  0.00     0.145 C 
HETATM   28  C   UNL     1       3.154  13.155  92.937  1.00  0.00     0.042 C 
BRANCH  27  29
HETATM   29  O   UNL     1       2.037  14.851  91.653  1.00  0.00    -0.393 OA
HETATM   30  H   UNL     1       2.557  15.481  91.125  1.00  0.00     0.210 HD
ENDBRANCH  27  29
ENDBRANCH  26  27
BRANCH  26  31
HETATM   31  C   UNL     1       4.588  14.908  90.633  1.00  0.00     0.220 C 
HETATM   32  O   UNL     1       4.776  15.485  91.702  1.00  0.00    -0.278 OA
HETATM   33  N   UNL     1       5.034  15.353  89.412  1.00  0.00    -0.271 NA
HETATM   34  H   UNL     1       4.823  14.953  88.506  1.00  0.00     0.127 HD
HETATM   35  H   UNL     1       4.591  16.462  88.673  1.00  0.00     0.127 HD
ENDBRANCH  26  31
ENDBRANCH  24  26
ENDBRANCH  19  22
ENDBRANCH  15  16
ENDBRANCH  11  14
ENDBRANCH   7   8
ENDBRANCH   2   7
TORSDOF 9
ENDMDL
MODEL 3
REMARK VINA RESULT:      -6.1      2.650     12.276
REMARK  9 active torsions:
REMARK  status: ('A' for Active; 'I' for Inactive)
REMARK    1  A    between atoms: O_2  and  C_17 
REMARK    2  A    between atoms: N_5  and  C_10 
REMARK    3  A    between atoms: N_6  and  C_14 
REMARK       I    between atoms: N_6  and  C_23 
REMARK       I    between atoms: N_7  and  C_22 
REMARK    4  A    between atoms: C_10  and  C_13 
REMARK    5  A    between atoms: C_14  and  C_17 
REMARK    6  A    between atoms: C_14  and  C_22 
REMARK    7  A    between atoms: C_20  and  C_25 
REMARK    8  A    between atoms: C_23  and  C_24 
REMARK    9  A    between atoms: C_28  and  C_31 
ROOT
HETATM    1  O   UNL     1       2.800  14.425  93.835  1.00  0.00    -0.388 OA
HETATM    2  N   UNL     1       2.821  14.624  90.996  1.00  0.00     0.096 N 
HETATM    3  C   UNL     1       1.912  13.705  91.695  1.00  0.00     0.299 C 
HETATM    4  C   UNL     1       4.041  14.825  91.790  1.00  0.00     0.299 C 
HETATM    5  C   UNL     1       1.596  14.248  93.086  1.00  0.00     0.198 C 
HETATM    6  C   UNL     1       3.676  15.341  93.178  1.00  0.00     0.198 C 
ENDROOT
BRANCH   2   7
HETATM    7  C   UNL     1       3.146  14.117  89.664  1.00  0.00     0.311 C 
BRANCH   7   8
HETATM    8  C   UNL     1       4.128  12.996  89.706  1.00  0.00    -0.030 A 
HETATM    9  C   UNL     1       5.358  13.122  89.059  1.00  0.00     0.010 A 
HETATM   10  C   UNL     1       6.276  12.073  89.096  1.00  0.00     0.021 A 
HETATM   11  C   UNL     1       5.965  10.899  89.782  1.00  0.00     0.018 A 
HETATM   12  C   UNL     1       4.738  10.773  90.430  1.00  0.00     0.021 A 
HETATM   13  C   UNL     1       3.819  11.821  90.392  1.00  0.00     0.010 A 
BRANCH  11  14
HETATM   14  C   UNL     1       6.908   9.824  89.822  1.00  0.00    -0.061 C 
HETATM   15  C   UNL     1       7.700   8.920  89.855  1.00  0.00    -0.061 C 
BRANCH  15  16
HETATM   16  C   UNL     1       8.643   7.846  89.894  1.00  0.00     0.018 A 
HETATM   17  C   UNL     1       8.787   7.088  91.056  1.00  0.00     0.022 A 
HETATM   18  C   UNL     1       9.705   6.038  91.093  1.00  0.00     0.018 A 
HETATM   19  C   UNL     1      10.457   5.770  89.969  1.00  0.00     0.032 A 
HETATM   20  C   UNL     1      10.333   6.505  88.808  1.00  0.00     0.018 A 
HETATM   21  C   UNL     1       9.416   7.555  88.770  1.00  0.00     0.022 A 
BRANCH  19  22
HETATM   22  C   UNL     1      11.436   4.653  90.009  1.00  0.00     0.252 C 
HETATM   23  O   UNL     1      11.593   3.957  89.009  1.00  0.00    -0.268 OA
HETATM   24  N   UNL     1      12.131   4.496  91.200  1.00  0.00    -0.342 N 
HETATM   25  H   UNL     1      11.966   5.126  91.977  1.00  0.00     0.163 HD
BRANCH  24  26
HETATM   26  C   UNL     1      13.130   3.475  91.387  1.00  0.00     0.199 C 
BRANCH  26  27
HETATM   27  C   UNL     1      14.340   3.968  92.190  1.00  0.00     0.145 C 
HETATM   28  C   UNL     1      14.005   4.218  93.656  1.00  0.00     0.042 C 
BRANCH  27  29
HETATM   29  O   UNL     1      15.390   3.004  92.112  1.00  0.00    -0.393 OA
HETATM   30  H   UNL     1      14.989   2.127  91.987  1.00  0.00     0.210 HD
ENDBRANCH  27  29
ENDBRANCH  26  27
BRANCH  26  31
HETATM   31  C   UNL     1      12.459   2.286  92.068  1.00  0.00     0.220 C 
HETATM   32  O   UNL     1      13.035   1.219  92.272  1.00  0.00    -0.278 OA
HETATM   33  N   UNL     1      11.146   2.541  92.382  1.00  0.00    -0.271 NA
HETATM   34  H   UNL     1      10.617   3.373  92.149  1.00  0.00     0.127 HD
HETATM   35  H   UNL     1       9.990   2.020  91.780  1.00  0.00     0.127 HD
ENDBRANCH  26  31
ENDBRANCH  24  26
ENDBRANCH  19  22
ENDBRANCH  15  16
ENDBRANCH  11  14
ENDBRANCH   7   8
ENDBRANCH   2   7
TORSDOF 9
ENDMDL
MODEL 4
REMARK VINA RESULT:      -5.8      2.146     12.347
REMARK  9 active torsions:
REMARK  status: ('A' for Active; 'I' for Inactive)
REMARK    1  A    between atoms: O_2  and  C_17 
REMARK    2  A    between atoms: N_5  and  C_10 
REMARK    3  A    between atoms: N_6  and  C_14 
REMARK       I    between atoms: N_6  and  C_23 
REMARK       I    between atoms: N_7  and  C_22 
REMARK    4  A    between atoms: C_10  and  C_13 
REMARK    5  A    between atoms: C_14  and  C_17 
REMARK    6  A    between atoms: C_14  and  C_22 
REMARK    7  A    between atoms: C_20  and  C_25 
REMARK    8  A    between atoms: C_23  and  C_24 
REMARK    9  A    between atoms: C_28  and  C_31 
ROOT
HETATM    1  O   UNL     1       5.501  14.877  88.969  1.00  0.00    -0.388 OA
HETATM    2  N   UNL     1       3.569  13.366  90.413  1.00  0.00     0.096 N 
HETATM    3  C   UNL     1       4.300  14.476  91.039  1.00  0.00     0.299 C 
HETATM    4  C   UNL     1       4.388  12.757  89.356  1.00  0.00     0.299 C 
HETATM    5  C   UNL     1       4.699  15.497  89.976  1.00  0.00     0.198 C 
HETATM    6  C   UNL     1       4.786  13.817  88.334  1.00  0.00     0.198 C 
ENDROOT
BRANCH   2   7
HETATM    7  C   UNL     1       3.185  12.370  91.412  1.00  0.00     0.311 C 
BRANCH   7   8
HETATM    8  C   UNL     1       4.248  11.349  91.634  1.00  0.00    -0.030 A 
HETATM    9  C   UNL     1       4.254  10.175  90.880  1.00  0.00     0.010 A 
HETATM   10  C   UNL     1       5.247   9.218  91.088  1.00  0.00     0.021 A 
HETATM   11  C   UNL     1       6.235   9.437  92.048  1.00  0.00     0.018 A 
HETATM   12  C   UNL     1       6.229  10.609  92.801  1.00  0.00     0.021 A 
HETATM   13  C   UNL     1       5.236  11.566  92.594  1.00  0.00     0.010 A 
BRANCH  11  14
HETATM   14  C   UNL     1       7.254   8.456  92.260  1.00  0.00    -0.061 C 
HETATM   15  C   UNL     1       8.112   7.632  92.438  1.00  0.00    -0.061 C 
BRANCH  15  16
HETATM   16  C   UNL     1       9.132   6.652  92.650  1.00  0.00     0.018 A 
HETATM   17  C   UNL     1       9.573   5.865  91.586  1.00  0.00     0.022 A 
HETATM   18  C   UNL     1      10.570   4.911  91.792  1.00  0.00     0.018 A 
HETATM   19  C   UNL     1      11.103   4.767  93.056  1.00  0.00     0.032 A 
HETATM   20  C   UNL     1      10.683   5.532  94.124  1.00  0.00     0.018 A 
HETATM   21  C   UNL     1       9.686   6.486  93.919  1.00  0.00     0.022 A 
BRANCH  19  22
HETATM   22  C   UNL     1      12.163   3.750  93.276  1.00  0.00     0.252 C 
HETATM   23  O   UNL     1      11.842   2.577  93.450  1.00  0.00    -0.268 OA
HETATM   24  N   UNL     1      13.470   4.216  93.241  1.00  0.00    -0.342 N 
HETATM   25  H   UNL     1      13.660   5.196  93.067  1.00  0.00     0.163 HD
BRANCH  24  26
HETATM   26  C   UNL     1      14.608   3.349  93.412  1.00  0.00     0.199 C 
BRANCH  26  27
HETATM   27  C   UNL     1      14.895   2.494  92.172  1.00  0.00     0.145 C 
HETATM   28  C   UNL     1      14.415   3.154  90.884  1.00  0.00     0.042 C 
BRANCH  27  29
HETATM   29  O   UNL     1      16.298   2.252  92.073  1.00  0.00    -0.393 OA
HETATM   30  H   UNL     1      16.432   1.451  91.538  1.00  0.00     0.210 HD
ENDBRANCH  27  29
ENDBRANCH  26  27
BRANCH  26  31
HETATM   31  C   UNL     1      15.806   4.220  93.775  1.00  0.00     0.220 C 
HETATM   32  O   UNL     1      15.783   5.448  93.722  1.00  0.00    -0.278 OA
HETATM   33  N   UNL     1      16.905   3.471  94.124  1.00  0.00    -0.271 NA
HETATM   34  H   UNL     1      16.986   2.462  94.092  1.00  0.00     0.127 HD
HETATM   35  H   UNL     1      18.090   3.273  93.399  1.00  0.00     0.127 HD
ENDBRANCH  26  31
ENDBRANCH  24  26
ENDBRANCH  19  22
ENDBRANCH  15  16
ENDBRANCH  11  14
ENDBRANCH   7   8
ENDBRANCH   2   7
TORSDOF 9
ENDMDL
MODEL 5
REMARK VINA RESULT:      -4.9      2.622     12.426
REMARK  9 active torsions:
REMARK  status: ('A' for Active; 'I' for Inactive)
REMARK    1  A    between atoms: O_2  and  C_17 
REMARK    2  A    between atoms: N_5  and  C_10 
REMARK    3  A    between atoms: N_6  and  C_14 
REMARK       I    between atoms: N_6  and  C_23 
REMARK       I    between atoms: N_7  and  C_22 
REMARK    4  A    between atoms: C_10  and  C_13 
REMARK    5  A    between atoms: C_14  and  C_17 
REMARK    6  A    between atoms: C_14  and  C_22 
REMARK    7  A    between atoms: C_20  and  C_25 
REMARK    8  A    between atoms: C_23  and  C_24 
REMARK    9  A    between atoms: C_28  and  C_31 
ROOT
HETATM    1  O   UNL     1       3.462  14.290  89.429  1.00  0.00    -0.388 OA
HETATM    2  N   UNL     1       3.162  13.787  92.215  1.00  0.00     0.096 N 
HETATM    3  C   UNL     1       4.468  13.673  91.550  1.00  0.00     0.299 C 
HETATM    4  C   UNL     1       2.084  13.494  91.260  1.00  0.00     0.299 C 
HETATM    5  C   UNL     1       4.516  14.604  90.342  1.00  0.00     0.198 C 
HETATM    6  C   UNL     1       2.188  14.428  90.059  1.00  0.00     0.198 C 
ENDROOT
BRANCH   2   7
HETATM    7  C   UNL     1       3.089  12.894  93.370  1.00  0.00     0.311 C 
BRANCH   7   8
HETATM    8  C   UNL     1       4.099  11.800  93.307  1.00  0.00    -0.030 A 
HETATM    9  C   UNL     1       5.286  11.904  94.033  1.00  0.00     0.010 A 
HETATM   10  C   UNL     1       6.233  10.882  93.973  1.00  0.00     0.021 A 
HETATM   11  C   UNL     1       5.991   9.755  93.188  1.00  0.00     0.018 A 
HETATM   12  C   UNL     1       4.806   9.649  92.463  1.00  0.00     0.021 A 
HETATM   13  C   UNL     1       3.860  10.672  92.522  1.00  0.00     0.010 A 
BRANCH  11  14
HETATM   14  C   UNL     1       6.962   8.705  93.128  1.00  0.00    -0.061 C 
HETATM   15  C   UNL     1       7.777   7.823  93.077  1.00  0.00    -0.061 C 
BRANCH  15  16
HETATM   16  C   UNL     1       8.747   6.775  93.016  1.00  0.00     0.018 A 
HETATM   17  C   UNL     1       9.945   6.892  93.723  1.00  0.00     0.022 A 
HETATM   18  C   UNL     1      10.890   5.868  93.667  1.00  0.00     0.018 A 
HETATM   19  C   UNL     1      10.617   4.750  92.906  1.00  0.00     0.032 A 
HETATM   20  C   UNL     1       9.442   4.611  92.198  1.00  0.00     0.018 A 
HETATM   21  C   UNL     1       8.496   5.634  92.254  1.00  0.00     0.022 A 
BRANCH  19  22
HETATM   22  C   UNL     1      11.625   3.661  92.844  1.00  0.00     0.252 C 
HETATM   23  O   UNL     1      11.252   2.510  92.630  1.00  0.00    -0.268 OA
HETATM   24  N   UNL     1      12.948   4.045  93.015  1.00  0.00    -0.342 N 
HETATM   25  H   UNL     1      13.183   5.020  93.164  1.00  0.00     0.163 HD
BRANCH  24  26
HETATM   26  C   UNL     1      14.041   3.109  92.958  1.00  0.00     0.199 C 
BRANCH  26  27
HETATM   27  C   UNL     1      14.355   2.649  91.528  1.00  0.00     0.145 C 
HETATM   28  C   UNL     1      14.168   3.762  90.503  1.00  0.00     0.042 C 
BRANCH  27  29
HETATM   29  O   UNL     1      15.701   2.180  91.462  1.00  0.00    -0.393 OA
HETATM   30  H   UNL     1      16.197   2.759  90.859  1.00  0.00     0.210 HD
ENDBRANCH  27  29
ENDBRANCH  26  27
BRANCH  26  31
HETATM   31  C   UNL     1      15.254   3.769  93.606  1.00  0.00     0.220 C 
HETATM   32  O   UNL     1      15.425   4.986  93.623  1.00  0.00    -0.278 OA
HETATM   33  N   UNL     1      16.132   2.847  94.124  1.00  0.00    -0.271 NA
HETATM   34  H   UNL     1      16.067   1.839  94.049  1.00  0.00     0.127 HD
HETATM   35  H   UNL     1      17.399   2.485  93.642  1.00  0.00     0.127 HD
ENDBRANCH  26  31
ENDBRANCH  24  26
ENDBRANCH  19  22
ENDBRANCH  15  16
ENDBRANCH  11  14
ENDBRANCH   7   8
ENDBRANCH   2   7
TORSDOF 9
ENDMDL
MODEL 6
REMARK VINA RESULT:      -4.8      1.543      2.214
REMARK  9 active torsions:
REMARK  status: ('A' for Active; 'I' for Inactive)
REMARK    1  A    between atoms: O_2  and  C_17 
REMARK    2  A    between atoms: N_5  and  C_10 
REMARK    3  A    between atoms: N_6  and  C_14 
REMARK       I    between atoms: N_6  and  C_23 
REMARK       I    between atoms: N_7  and  C_22 
REMARK    4  A    between atoms: C_10  and  C_13 
REMARK    5  A    between atoms: C_14  and  C_17 
REMARK    6  A    between atoms: C_14  and  C_22 
REMARK    7  A    between atoms: C_20  and  C_25 
REMARK    8  A    between atoms: C_23  and  C_24 
REMARK    9  A    between atoms: C_28  and  C_31 
ROOT
HETATM    1  O   UNL     1      17.521   4.729  93.676  1.00  0.00    -0.388 OA
HETATM    2  N   UNL     1      15.363   2.876  93.775  1.00  0.00     0.096 N 
HETATM    3  C   UNL     1      16.706   2.468  93.339  1.00  0.00     0.299 C 
HETATM    4  C   UNL     1      15.143   4.296  93.468  1.00  0.00     0.299 C 
HETATM    5  C   UNL     1      17.756   3.358  94.000  1.00  0.00     0.198 C 
HETATM    6  C   UNL     1      16.229   5.142  94.124  1.00  0.00     0.198 C 
ENDROOT
BRANCH   2   7
HETATM    7  C   UNL     1      14.339   2.043  93.146  1.00  0.00     0.311 C 
BRANCH   7   8
HETATM    8  C   UNL     1      13.244   2.852  92.539  1.00  0.00    -0.030 A 
HETATM    9  C   UNL     1      12.029   2.994  93.210  1.00  0.00     0.010 A 
HETATM   10  C   UNL     1      11.002   3.749  92.642  1.00  0.00     0.021 A 
HETATM   11  C   UNL     1      11.192   4.362  91.404  1.00  0.00     0.018 A 
HETATM   12  C   UNL     1      12.405   4.220  90.733  1.00  0.00     0.021 A 
HETATM   13  C   UNL     1      13.431   3.465  91.300  1.00  0.00     0.010 A 
BRANCH  11  14
HETATM   14  C   UNL     1      10.140   5.137  90.822  1.00  0.00    -0.061 C 
HETATM   15  C   UNL     1       9.256   5.789  90.333  1.00  0.00    -0.061 C 
BRANCH  15  16
HETATM   16  C   UNL     1       8.204   6.563  89.751  1.00  0.00     0.018 A 
HETATM   17  C   UNL     1       8.148   7.939  89.973  1.00  0.00     0.022 A 
HETATM   18  C   UNL     1       7.123   8.695  89.403  1.00  0.00     0.018 A 
HETATM   19  C   UNL     1       6.179   8.058  88.625  1.00  0.00     0.032 A 
HETATM   20  C   UNL     1       6.212   6.700  88.392  1.00  0.00     0.018 A 
HETATM   21  C   UNL     1       7.236   5.943  88.961  1.00  0.00     0.022 A 
BRANCH  19  22
HETATM   22  C   UNL     1       5.086   8.863  88.021  1.00  0.00     0.252 C 
HETATM   23  O   UNL     1       4.941   8.857  86.801  1.00  0.00    -0.268 OA
HETATM   24  N   UNL     1       4.279   9.558  88.910  1.00  0.00    -0.342 N 
HETATM   25  H   UNL     1       4.443   9.496  89.908  1.00  0.00     0.163 HD
BRANCH  24  26
HETATM   26  C   UNL     1       3.164  10.363  88.480  1.00  0.00     0.199 C 
BRANCH  26  27
HETATM   27  C   UNL     1       1.822   9.629  88.595  1.00  0.00     0.145 C 
HETATM   28  C   UNL     1       1.665   8.532  87.548  1.00  0.00     0.042 C 
BRANCH  27  29
HETATM   29  O   UNL     1       1.705   9.050  89.895  1.00  0.00    -0.393 OA
HETATM   30  H   UNL     1       0.816   9.244  90.236  1.00  0.00     0.210 HD
ENDBRANCH  27  29
ENDBRANCH  26  27
BRANCH  26  31
HETATM   31  C   UNL     1       3.168  11.645  89.307  1.00  0.00     0.220 C 
HETATM   32  O   UNL     1       3.084  12.765  88.807  1.00  0.00    -0.278 OA
HETATM   33  N   UNL     1       3.313  11.395  90.650  1.00  0.00    -0.271 NA
HETATM   34  H   UNL     1       3.474  10.495  91.086  1.00  0.00     0.127 HD
HETATM   35  H   UNL     1       4.431  11.635  91.465  1.00  0.00     0.127 HD
ENDBRANCH  26  31
ENDBRANCH  24  26
ENDBRANCH  19  22
ENDBRANCH  15  16
ENDBRANCH  11  14
ENDBRANCH   7   8
ENDBRANCH   2   7
TORSDOF 9
ENDMDL
