MODEL 1
REMARK VINA RESULT:      -5.8      0.000      0.000
REMARK  12 active torsions:
REMARK  status: ('A' for Active; 'I' for Inactive)
REMARK    1  A    between atoms: O_2  and  C_16 
REMARK    2  A    between atoms: N_5  and  C_9 
REMARK    3  A    between atoms: N_6  and  C_13 
REMARK       I    between atoms: N_6  and  C_22 
REMARK    4  A    between atoms: C_9  and  C_12 
REMARK    5  A    between atoms: C_13  and  C_16 
REMARK    6  A    between atoms: C_13  and  C_21 
REMARK    7  A    between atoms: C_19  and  C_24 
REMARK    8  A    between atoms: C_21  and  C_33 
REMARK    9  A    between atoms: C_22  and  C_23 
REMARK   10  A    between atoms: C_27  and  C_30 
REMARK   11  A    between atoms: C_33  and  C_34 
REMARK   12  A    between atoms: C_34  and  C_35 
ROOT
HETATM    1  O   UNL     1      16.432   2.924  94.052  1.00  0.00    -0.350 OA
HETATM    2  N   UNL     1      14.043   3.028  92.507  1.00  0.00     0.147 N 
HETATM    3  C   UNL     1      14.709   1.753  92.807  1.00  0.00     0.283 C 
HETATM    4  C   UNL     1      15.032   4.115  92.468  1.00  0.00     0.283 C 
HETATM    5  C   UNL     1      15.474   1.867  94.123  1.00  0.00     0.178 C 
HETATM    6  C   UNL     1      15.790   4.173  93.790  1.00  0.00     0.178 C 
ENDROOT
BRANCH   2   7
HETATM    7  C   UNL     1      13.312   2.946  91.244  1.00  0.00     0.277 C 
BRANCH   7   8
HETATM    8  C   UNL     1      12.109   3.827  91.225  1.00  0.00     0.011 A 
HETATM    9  C   UNL     1      11.436   4.112  92.414  1.00  0.00    -0.002 A 
HETATM   10  C   UNL     1      10.310   4.934  92.397  1.00  0.00     0.008 A 
HETATM   11  C   UNL     1       9.858   5.472  91.193  1.00  0.00     0.042 A 
HETATM   12  C   UNL     1      10.530   5.188  90.005  1.00  0.00     0.008 A 
HETATM   13  C   UNL     1      11.656   4.365  90.021  1.00  0.00    -0.002 A 
BRANCH  11  14
HETATM   14  C   UNL     1       8.704   6.317  91.176  1.00  0.00    -0.059 C 
HETATM   15  C   UNL     1       7.734   7.028  91.163  1.00  0.00    -0.059 C 
BRANCH  15  16
HETATM   16  C   UNL     1       6.581   7.873  91.147  1.00  0.00     0.042 A 
HETATM   17  C   UNL     1       5.593   7.684  90.180  1.00  0.00     0.008 A 
HETATM   18  C   UNL     1       4.467   8.507  90.166  1.00  0.00     0.005 A 
HETATM   19  C   UNL     1       4.354   9.499  91.118  1.00  0.00     0.056 A 
HETATM   20  C   UNL     1       5.317   9.706  92.083  1.00  0.00     0.005 A 
HETATM   21  C   UNL     1       6.444   8.883  92.098  1.00  0.00     0.008 A 
BRANCH  19  22
HETATM   22  C   UNL     1       3.155  10.376  91.101  1.00  0.00     0.254 C 
HETATM   23  O   UNL     1       2.067   9.900  90.785  1.00  0.00    -0.268 OA
HETATM   24  N   UNL     1       3.362  11.696  91.479  1.00  0.00    -0.335 N 
HETATM   25  HN  UNL     1       4.285  12.012  91.752  1.00  0.00     0.164 HD
BRANCH  24  26
HETATM   26  C   UNL     1       2.295  12.663  91.537  1.00  0.00     0.166 C 
BRANCH  26  27
HETATM   27  C   UNL     1       1.970  13.102  92.970  1.00  0.00     0.138 C 
HETATM   28  C   UNL     1       2.035  11.948  93.964  1.00  0.00     0.034 C 
BRANCH  27  29
HETATM   29  O   UNL     1       2.886  14.117  93.377  1.00  0.00    -0.383 OA
HETATM   30  H   UNL     1       3.765  13.893  93.027  1.00  0.00     0.210 HD
ENDBRANCH  27  29
ENDBRANCH  26  27
BRANCH  26  31
HETATM   31  C   UNL     1       2.696  13.851  90.669  1.00  0.00     0.181 C 
HETATM   32  O   UNL     1       2.147  14.949  90.742  1.00  0.00    -0.294 OA
BRANCH  31  33
HETATM   33  C   UNL     1       4.290  14.138  90.740  1.00  0.00     0.138 C 
BRANCH  33  34
HETATM   34  C   UNL     1       4.609  14.250  89.369  1.00  0.00     0.208 C 
HETATM   35  O   UNL     1       4.937  15.350  88.986  1.00  0.00    -0.289 OA
BRANCH  34  36
HETATM   36  C   UNL     1       4.893  13.284  88.442  1.00  0.00     0.194 C 
HETATM   37  O   UNL     1       4.512  11.939  88.392  1.00  0.00    -0.185 OA
ENDBRANCH  34  36
ENDBRANCH  33  34
ENDBRANCH  31  33
ENDBRANCH  26  31
ENDBRANCH  24  26
ENDBRANCH  19  22
ENDBRANCH  15  16
ENDBRANCH  11  14
ENDBRANCH   7   8
ENDBRANCH   2   7
TORSDOF 12
ENDMDL
MODEL 2
REMARK VINA RESULT:      -5.7      1.335      1.939
REMARK  12 active torsions:
REMARK  status: ('A' for Active; 'I' for Inactive)
REMARK    1  A    between atoms: O_2  and  C_16 
REMARK    2  A    between atoms: N_5  and  C_9 
REMARK    3  A    between atoms: N_6  and  C_13 
REMARK       I    between atoms: N_6  and  C_22 
REMARK    4  A    between atoms: C_9  and  C_12 
REMARK    5  A    between atoms: C_13  and  C_16 
REMARK    6  A    between atoms: C_13  and  C_21 
REMARK    7  A    between atoms: C_19  and  C_24 
REMARK    8  A    between atoms: C_21  and  C_33 
REMARK    9  A    between atoms: C_22  and  C_23 
REMARK   10  A    between atoms: C_27  and  C_30 
REMARK   11  A    between atoms: C_33  and  C_34 
REMARK   12  A    between atoms: C_34  and  C_35 
ROOT
HETATM    1  O   UNL     1      17.293   4.163  93.799  1.00  0.00    -0.350 OA
HETATM    2  N   UNL     1      14.729   2.939  93.631  1.00  0.00     0.147 N 
HETATM    3  C   UNL     1      15.959   2.189  93.337  1.00  0.00     0.283 C 
HETATM    4  C   UNL     1      14.922   4.363  93.326  1.00  0.00     0.283 C 
HETATM    5  C   UNL     1      17.126   2.782  94.123  1.00  0.00     0.178 C 
HETATM    6  C   UNL     1      16.113   4.904  94.111  1.00  0.00     0.178 C 
ENDROOT
BRANCH   2   7
HETATM    7  C   UNL     1      13.599   2.395  92.880  1.00  0.00     0.277 C 
BRANCH   7   8
HETATM    8  C   UNL     1      12.475   3.367  92.762  1.00  0.00     0.011 A 
HETATM    9  C   UNL     1      11.846   3.557  91.531  1.00  0.00    -0.002 A 
HETATM   10  C   UNL     1      10.796   4.468  91.419  1.00  0.00     0.008 A 
HETATM   11  C   UNL     1      10.374   5.186  92.537  1.00  0.00     0.042 A 
HETATM   12  C   UNL     1      11.001   4.996  93.767  1.00  0.00     0.008 A 
HETATM   13  C   UNL     1      12.052   4.086  93.880  1.00  0.00    -0.002 A 
BRANCH  11  14
HETATM   14  C   UNL     1       9.295   6.119  92.422  1.00  0.00    -0.059 C 
HETATM   15  C   UNL     1       8.389   6.903  92.326  1.00  0.00    -0.059 C 
BRANCH  15  16
HETATM   16  C   UNL     1       7.311   7.835  92.211  1.00  0.00     0.042 A 
HETATM   17  C   UNL     1       7.011   8.688  93.274  1.00  0.00     0.008 A 
HETATM   18  C   UNL     1       5.961   9.599  93.160  1.00  0.00     0.005 A 
HETATM   19  C   UNL     1       5.237   9.639  91.987  1.00  0.00     0.056 A 
HETATM   20  C   UNL     1       5.514   8.807  90.922  1.00  0.00     0.005 A 
HETATM   21  C   UNL     1       6.563   7.895  91.035  1.00  0.00     0.008 A 
BRANCH  19  22
HETATM   22  C   UNL     1       4.118  10.609  91.867  1.00  0.00     0.254 C 
HETATM   23  O   UNL     1       2.961  10.196  91.888  1.00  0.00    -0.268 OA
HETATM   24  N   UNL     1       4.480  11.945  91.762  1.00  0.00    -0.335 N 
HETATM   25  HN  UNL     1       5.456  12.214  91.776  1.00  0.00     0.164 HD
BRANCH  24  26
HETATM   26  C   UNL     1       3.509  13.006  91.663  1.00  0.00     0.166 C 
BRANCH  26  27
HETATM   27  C   UNL     1       3.588  13.993  92.834  1.00  0.00     0.138 C 
HETATM   28  C   UNL     1       2.236  14.214  93.502  1.00  0.00     0.034 C 
BRANCH  27  29
HETATM   29  O   UNL     1       4.512  13.507  93.807  1.00  0.00    -0.383 OA
HETATM   30  H   UNL     1       4.157  13.704  94.690  1.00  0.00     0.210 HD
ENDBRANCH  27  29
ENDBRANCH  26  27
BRANCH  26  31
HETATM   31  C   UNL     1       3.725  13.711  90.328  1.00  0.00     0.181 C 
HETATM   32  O   UNL     1       3.735  14.935  90.211  1.00  0.00    -0.294 OA
BRANCH  31  33
HETATM   33  C   UNL     1       5.054  13.174  89.570  1.00  0.00     0.138 C 
BRANCH  33  34
HETATM   34  C   UNL     1       4.511  12.739  88.341  1.00  0.00     0.208 C 
HETATM   35  O   UNL     1       4.872  13.341  87.357  1.00  0.00    -0.289 OA
BRANCH  34  36
HETATM   36  C   UNL     1       3.868  11.576  88.018  1.00  0.00     0.194 C 
HETATM   37  O   UNL     1       2.640  11.069  88.457  1.00  0.00    -0.185 OA
ENDBRANCH  34  36
ENDBRANCH  33  34
ENDBRANCH  31  33
ENDBRANCH  26  31
ENDBRANCH  24  26
ENDBRANCH  19  22
ENDBRANCH  15  16
ENDBRANCH  11  14
ENDBRANCH   7   8
ENDBRANCH   2   7
TORSDOF 12
ENDMDL
MODEL 3
REMARK VINA RESULT:      -5.7      0.899      1.390
REMARK  12 active torsions:
REMARK  status: ('A' for Active; 'I' for Inactive)
REMARK    1  A    between atoms: O_2  and  C_16 
REMARK    2  A    between atoms: N_5  and  C_9 
REMARK    3  A    between atoms: N_6  and  C_13 
REMARK       I    between atoms: N_6  and  C_22 
REMARK    4  A    between atoms: C_9  and  C_12 
REMARK    5  A    between atoms: C_13  and  C_16 
REMARK    6  A    between atoms: C_13  and  C_21 
REMARK    7  A    between atoms: C_19  and  C_24 
REMARK    8  A    between atoms: C_21  and  C_33 
REMARK    9  A    between atoms: C_22  and  C_23 
REMARK   10  A    between atoms: C_27  and  C_30 
REMARK   11  A    between atoms: C_33  and  C_34 
REMARK   12  A    between atoms: C_34  and  C_35 
ROOT
HETATM    1  O   UNL     1      15.815   4.353  93.956  1.00  0.00    -0.350 OA
HETATM    2  N   UNL     1      14.201   2.612  92.386  1.00  0.00     0.147 N 
HETATM    3  C   UNL     1      14.093   4.073  92.270  1.00  0.00     0.283 C 
HETATM    4  C   UNL     1      14.633   2.245  93.742  1.00  0.00     0.283 C 
HETATM    5  C   UNL     1      15.427   4.721  92.631  1.00  0.00     0.178 C 
HETATM    6  C   UNL     1      15.953   2.936  94.069  1.00  0.00     0.178 C 
ENDROOT
BRANCH   2   7
HETATM    7  C   UNL     1      12.930   1.970  92.054  1.00  0.00     0.277 C 
BRANCH   7   8
HETATM    8  C   UNL     1      11.822   2.955  91.894  1.00  0.00     0.011 A 
HETATM    9  C   UNL     1      11.297   3.601  93.014  1.00  0.00    -0.002 A 
HETATM   10  C   UNL     1      10.259   4.520  92.865  1.00  0.00     0.008 A 
HETATM   11  C   UNL     1       9.748   4.794  91.597  1.00  0.00     0.042 A 
HETATM   12  C   UNL     1      10.272   4.150  90.478  1.00  0.00     0.008 A 
HETATM   13  C   UNL     1      11.309   3.230  90.626  1.00  0.00    -0.002 A 
BRANCH  11  14
HETATM   14  C   UNL     1       8.684   5.739  91.445  1.00  0.00    -0.059 C 
HETATM   15  C   UNL     1       7.790   6.533  91.316  1.00  0.00    -0.059 C 
BRANCH  15  16
HETATM   16  C   UNL     1       6.726   7.476  91.164  1.00  0.00     0.042 A 
HETATM   17  C   UNL     1       6.169   8.084  92.289  1.00  0.00     0.008 A 
HETATM   18  C   UNL     1       5.133   9.007  92.140  1.00  0.00     0.005 A 
HETATM   19  C   UNL     1       4.679   9.300  90.871  1.00  0.00     0.056 A 
HETATM   20  C   UNL     1       5.213   8.712  89.744  1.00  0.00     0.005 A 
HETATM   21  C   UNL     1       6.249   7.790  89.891  1.00  0.00     0.008 A 
BRANCH  19  22
HETATM   22  C   UNL     1       3.575  10.282  90.714  1.00  0.00     0.254 C 
HETATM   23  O   UNL     1       2.677  10.049  89.908  1.00  0.00    -0.268 OA
HETATM   24  N   UNL     1       3.636  11.402  91.530  1.00  0.00    -0.335 N 
HETATM   25  HN  UNL     1       4.396  11.515  92.191  1.00  0.00     0.164 HD
BRANCH  24  26
HETATM   26  C   UNL     1       2.627  12.431  91.512  1.00  0.00     0.166 C 
BRANCH  26  27
HETATM   27  C   UNL     1       2.459  13.122  92.871  1.00  0.00     0.138 C 
HETATM   28  C   UNL     1       3.641  12.874  93.802  1.00  0.00     0.034 C 
BRANCH  27  29
HETATM   29  O   UNL     1       2.309  14.528  92.676  1.00  0.00    -0.383 OA
HETATM   30  H   UNL     1       1.652  14.670  91.974  1.00  0.00     0.210 HD
ENDBRANCH  27  29
ENDBRANCH  26  27
BRANCH  26  31
HETATM   31  C   UNL     1       3.002  13.432  90.424  1.00  0.00     0.181 C 
HETATM   32  O   UNL     1       2.254  14.338  90.061  1.00  0.00    -0.294 OA
BRANCH  31  33
HETATM   33  C   UNL     1       4.442  14.120  90.709  1.00  0.00     0.138 C 
BRANCH  33  34
HETATM   34  C   UNL     1       4.924  14.300  89.394  1.00  0.00     0.208 C 
HETATM   35  O   UNL     1       5.183  15.437  89.072  1.00  0.00    -0.289 OA
BRANCH  34  36
HETATM   36  C   UNL     1       5.426  13.393  88.501  1.00  0.00     0.194 C 
HETATM   37  O   UNL     1       6.004  12.137  88.716  1.00  0.00    -0.185 OA
ENDBRANCH  34  36
ENDBRANCH  33  34
ENDBRANCH  31  33
ENDBRANCH  26  31
ENDBRANCH  24  26
ENDBRANCH  19  22
ENDBRANCH  15  16
ENDBRANCH  11  14
ENDBRANCH   7   8
ENDBRANCH   2   7
TORSDOF 12
ENDMDL
MODEL 4
REMARK VINA RESULT:      -5.5      2.336      3.890
REMARK  12 active torsions:
REMARK  status: ('A' for Active; 'I' for Inactive)
REMARK    1  A    between atoms: O_2  and  C_16 
REMARK    2  A    between atoms: N_5  and  C_9 
REMARK    3  A    between atoms: N_6  and  C_13 
REMARK       I    between atoms: N_6  and  C_22 
REMARK    4  A    between atoms: C_9  and  C_12 
REMARK    5  A    between atoms: C_13  and  C_16 
REMARK    6  A    between atoms: C_13  and  C_21 
REMARK    7  A    between atoms: C_19  and  C_24 
REMARK    8  A    between atoms: C_21  and  C_33 
REMARK    9  A    between atoms: C_22  and  C_23 
REMARK   10  A    between atoms: C_27  and  C_30 
REMARK   11  A    between atoms: C_33  and  C_34 
REMARK   12  A    between atoms: C_34  and  C_35 
ROOT
HETATM    1  O   UNL     1      17.128   4.795  93.369  1.00  0.00    -0.350 OA
HETATM    2  N   UNL     1      15.333   2.595  93.580  1.00  0.00     0.147 N 
HETATM    3  C   UNL     1      16.592   2.490  92.829  1.00  0.00     0.283 C 
HETATM    4  C   UNL     1      14.850   3.983  93.561  1.00  0.00     0.283 C 
HETATM    5  C   UNL     1      17.623   3.455  93.410  1.00  0.00     0.178 C 
HETATM    6  C   UNL     1      15.921   4.912  94.123  1.00  0.00     0.178 C 
ENDROOT
BRANCH   2   7
HETATM    7  C   UNL     1      14.327   1.686  93.034  1.00  0.00     0.277 C 
BRANCH   7   8
HETATM    8  C   UNL     1      13.222   2.411  92.344  1.00  0.00     0.011 A 
HETATM    9  C   UNL     1      13.498   3.200  91.227  1.00  0.00    -0.002 A 
HETATM   10  C   UNL     1      12.465   3.881  90.582  1.00  0.00     0.008 A 
HETATM   11  C   UNL     1      11.157   3.770  91.053  1.00  0.00     0.042 A 
HETATM   12  C   UNL     1      10.881   2.982  92.168  1.00  0.00     0.008 A 
HETATM   13  C   UNL     1      11.913   2.302  92.814  1.00  0.00    -0.002 A 
BRANCH  11  14
HETATM   14  C   UNL     1      10.098   4.466  90.389  1.00  0.00    -0.059 C 
HETATM   15  C   UNL     1       9.208   5.051  89.832  1.00  0.00    -0.059 C 
BRANCH  15  16
HETATM   16  C   UNL     1       8.150   5.748  89.169  1.00  0.00     0.042 A 
HETATM   17  C   UNL     1       6.871   5.766  89.727  1.00  0.00     0.008 A 
HETATM   18  C   UNL     1       5.840   6.447  89.081  1.00  0.00     0.005 A 
HETATM   19  C   UNL     1       6.109   7.095  87.894  1.00  0.00     0.056 A 
HETATM   20  C   UNL     1       7.364   7.092  87.322  1.00  0.00     0.005 A 
HETATM   21  C   UNL     1       8.397   6.410  87.967  1.00  0.00     0.008 A 
BRANCH  19  22
HETATM   22  C   UNL     1       5.010   7.819  87.205  1.00  0.00     0.254 C 
HETATM   23  O   UNL     1       4.878   7.694  85.990  1.00  0.00    -0.268 OA
HETATM   24  N   UNL     1       4.182   8.582  88.017  1.00  0.00    -0.335 N 
HETATM   25  HN  UNL     1       4.337   8.617  89.018  1.00  0.00     0.164 HD
BRANCH  24  26
HETATM   26  C   UNL     1       3.058   9.322  87.502  1.00  0.00     0.166 C 
BRANCH  26  27
HETATM   27  C   UNL     1       1.710   8.724  87.924  1.00  0.00     0.138 C 
HETATM   28  C   UNL     1       1.579   7.253  87.545  1.00  0.00     0.034 C 
BRANCH  27  29
HETATM   29  O   UNL     1       1.551   8.855  89.336  1.00  0.00    -0.383 OA
HETATM   30  H   UNL     1       0.791   8.314  89.609  1.00  0.00     0.210 HD
ENDBRANCH  27  29
ENDBRANCH  26  27
BRANCH  26  31
HETATM   31  C   UNL     1       3.196  10.766  87.973  1.00  0.00     0.181 C 
HETATM   32  O   UNL     1       2.244  11.541  88.044  1.00  0.00    -0.294 OA
BRANCH  31  33
HETATM   33  C   UNL     1       3.967  10.865  89.395  1.00  0.00     0.138 C 
BRANCH  33  34
HETATM   34  C   UNL     1       4.584  12.131  89.285  1.00  0.00     0.208 C 
HETATM   35  O   UNL     1       5.354  12.269  88.363  1.00  0.00    -0.289 OA
BRANCH  34  36
HETATM   36  C   UNL     1       4.260  13.328  89.860  1.00  0.00     0.194 C 
HETATM   37  O   UNL     1       3.595  14.438  89.326  1.00  0.00    -0.185 OA
ENDBRANCH  34  36
ENDBRANCH  33  34
ENDBRANCH  31  33
ENDBRANCH  26  31
ENDBRANCH  24  26
ENDBRANCH  19  22
ENDBRANCH  15  16
ENDBRANCH  11  14
ENDBRANCH   7   8
ENDBRANCH   2   7
TORSDOF 12
ENDMDL
MODEL 5
REMARK VINA RESULT:      -4.6      1.618      3.080
REMARK  12 active torsions:
REMARK  status: ('A' for Active; 'I' for Inactive)
REMARK    1  A    between atoms: O_2  and  C_16 
REMARK    2  A    between atoms: N_5  and  C_9 
REMARK    3  A    between atoms: N_6  and  C_13 
REMARK       I    between atoms: N_6  and  C_22 
REMARK    4  A    between atoms: C_9  and  C_12 
REMARK    5  A    between atoms: C_13  and  C_16 
REMARK    6  A    between atoms: C_13  and  C_21 
REMARK    7  A    between atoms: C_19  and  C_24 
REMARK    8  A    between atoms: C_21  and  C_33 
REMARK    9  A    between atoms: C_22  and  C_23 
REMARK   10  A    between atoms: C_27  and  C_30 
REMARK   11  A    between atoms: C_33  and  C_34 
REMARK   12  A    between atoms: C_34  and  C_35 
ROOT
HETATM    1  O   UNL     1      16.625   3.907  94.083  1.00  0.00    -0.350 OA
HETATM    2  N   UNL     1      14.596   2.552  92.617  1.00  0.00     0.147 N 
HETATM    3  C   UNL     1      14.681   4.019  92.635  1.00  0.00     0.283 C 
HETATM    4  C   UNL     1      15.140   2.001  93.865  1.00  0.00     0.283 C 
HETATM    5  C   UNL     1      16.128   4.451  92.859  1.00  0.00     0.178 C 
HETATM    6  C   UNL     1      16.575   2.480  94.061  1.00  0.00     0.178 C 
ENDROOT
BRANCH   2   7
HETATM    7  C   UNL     1      13.216   2.116  92.414  1.00  0.00     0.277 C 
BRANCH   7   8
HETATM    8  C   UNL     1      12.306   3.248  92.076  1.00  0.00     0.011 A 
HETATM    9  C   UNL     1      12.088   3.592  90.741  1.00  0.00    -0.002 A 
HETATM   10  C   UNL     1      11.239   4.652  90.424  1.00  0.00     0.008 A 
HETATM   11  C   UNL     1      10.607   5.366  91.442  1.00  0.00     0.042 A 
HETATM   12  C   UNL     1      10.824   5.023  92.775  1.00  0.00     0.008 A 
HETATM   13  C   UNL     1      11.673   3.964  93.092  1.00  0.00    -0.002 A 
BRANCH  11  14
HETATM   14  C   UNL     1       9.734   6.452  91.116  1.00  0.00    -0.059 C 
HETATM   15  C   UNL     1       9.002   7.366  90.843  1.00  0.00    -0.059 C 
BRANCH  15  16
HETATM   16  C   UNL     1       8.130   8.451  90.517  1.00  0.00     0.042 A 
HETATM   17  C   UNL     1       8.504   9.760  90.825  1.00  0.00     0.008 A 
HETATM   18  C   UNL     1       7.655  10.819  90.504  1.00  0.00     0.005 A 
HETATM   19  C   UNL     1       6.453  10.547  89.884  1.00  0.00     0.056 A 
HETATM   20  C   UNL     1       6.061   9.262  89.571  1.00  0.00     0.005 A 
HETATM   21  C   UNL     1       6.909   8.202  89.891  1.00  0.00     0.008 A 
BRANCH  19  22
HETATM   22  C   UNL     1       5.548  11.676  89.545  1.00  0.00     0.254 C 
HETATM   23  O   UNL     1       5.242  11.867  88.371  1.00  0.00    -0.268 OA
HETATM   24  N   UNL     1       5.090  12.430  90.616  1.00  0.00    -0.335 N 
HETATM   25  HN  UNL     1       5.366  12.198  91.563  1.00  0.00     0.164 HD
BRANCH  24  26
HETATM   26  C   UNL     1       4.188  13.542  90.452  1.00  0.00     0.166 C 
BRANCH  26  27
HETATM   27  C   UNL     1       2.736  13.100  90.231  1.00  0.00     0.138 C 
HETATM   28  C   UNL     1       1.808  14.272  89.933  1.00  0.00     0.034 C 
BRANCH  27  29
HETATM   29  O   UNL     1       2.678  12.175  89.145  1.00  0.00    -0.383 OA
HETATM   30  H   UNL     1       2.346  12.645  88.362  1.00  0.00     0.210 HD
ENDBRANCH  27  29
ENDBRANCH  26  27
BRANCH  26  31
HETATM   31  C   UNL     1       4.315  14.431  91.684  1.00  0.00     0.181 C 
HETATM   32  O   UNL     1       4.619  15.621  91.622  1.00  0.00    -0.294 OA
BRANCH  31  33
HETATM   33  C   UNL     1       2.998  14.349  92.625  1.00  0.00     0.138 C 
BRANCH  33  34
HETATM   34  C   UNL     1       3.345  13.288  93.490  1.00  0.00     0.208 C 
HETATM   35  O   UNL     1       2.445  12.546  93.810  1.00  0.00    -0.289 OA
BRANCH  34  36
HETATM   36  C   UNL     1       4.570  12.770  93.812  1.00  0.00     0.194 C 
HETATM   37  O   UNL     1       5.043  11.455  93.739  1.00  0.00    -0.185 OA
ENDBRANCH  34  36
ENDBRANCH  33  34
ENDBRANCH  31  33
ENDBRANCH  26  31
ENDBRANCH  24  26
ENDBRANCH  19  22
ENDBRANCH  15  16
ENDBRANCH  11  14
ENDBRANCH   7   8
ENDBRANCH   2   7
TORSDOF 12
ENDMDL
MODEL 6
REMARK VINA RESULT:      -3.6      2.356     12.762
REMARK  12 active torsions:
REMARK  status: ('A' for Active; 'I' for Inactive)
REMARK    1  A    between atoms: O_2  and  C_16 
REMARK    2  A    between atoms: N_5  and  C_9 
REMARK    3  A    between atoms: N_6  and  C_13 
REMARK       I    between atoms: N_6  and  C_22 
REMARK    4  A    between atoms: C_9  and  C_12 
REMARK    5  A    between atoms: C_13  and  C_16 
REMARK    6  A    between atoms: C_13  and  C_21 
REMARK    7  A    between atoms: C_19  and  C_24 
REMARK    8  A    between atoms: C_21  and  C_33 
REMARK    9  A    between atoms: C_22  and  C_23 
REMARK   10  A    between atoms: C_27  and  C_30 
REMARK   11  A    between atoms: C_33  and  C_34 
REMARK   12  A    between atoms: C_34  and  C_35 
ROOT
HETATM    1  O   UNL     1       2.940  14.895  94.023  1.00  0.00    -0.350 OA
HETATM    2  N   UNL     1       2.731  14.614  91.198  1.00  0.00     0.147 N 
HETATM    3  C   UNL     1       1.723  14.045  92.103  1.00  0.00     0.283 C 
HETATM    4  C   UNL     1       4.037  14.671  91.871  1.00  0.00     0.283 C 
HETATM    5  C   UNL     1       1.660  14.866  93.389  1.00  0.00     0.178 C 
HETATM    6  C   UNL     1       3.920  15.475  93.161  1.00  0.00     0.178 C 
ENDROOT
BRANCH   2   7
HETATM    7  C   UNL     1       2.816  13.837  89.963  1.00  0.00     0.277 C 
BRANCH   7   8
HETATM    8  C   UNL     1       3.789  12.712  90.066  1.00  0.00     0.011 A 
HETATM    9  C   UNL     1       3.443  11.554  90.763  1.00  0.00    -0.002 A 
HETATM   10  C   UNL     1       4.353  10.501  90.862  1.00  0.00     0.008 A 
HETATM   11  C   UNL     1       5.607  10.607  90.261  1.00  0.00     0.042 A 
HETATM   12  C   UNL     1       5.953  11.762  89.564  1.00  0.00     0.008 A 
HETATM   13  C   UNL     1       5.044  12.815  89.465  1.00  0.00    -0.002 A 
BRANCH  11  14
HETATM   14  C   UNL     1       6.540   9.526  90.360  1.00  0.00    -0.059 C 
HETATM   15  C   UNL     1       7.324   8.619  90.443  1.00  0.00    -0.059 C 
BRANCH  15  16
HETATM   16  C   UNL     1       8.256   7.539  90.543  1.00  0.00     0.042 A 
HETATM   17  C   UNL     1       8.110   6.583  91.549  1.00  0.00     0.008 A 
HETATM   18  C   UNL     1       9.018   5.529  91.644  1.00  0.00     0.005 A 
HETATM   19  C   UNL     1      10.051   5.454  90.733  1.00  0.00     0.056 A 
HETATM   20  C   UNL     1      10.217   6.386  89.731  1.00  0.00     0.005 A 
HETATM   21  C   UNL     1       9.310   7.441  89.634  1.00  0.00     0.008 A 
BRANCH  19  22
HETATM   22  C   UNL     1      11.019   4.331  90.837  1.00  0.00     0.254 C 
HETATM   23  O   UNL     1      11.072   3.500  89.933  1.00  0.00    -0.268 OA
HETATM   24  N   UNL     1      11.825   4.326  91.967  1.00  0.00    -0.335 N 
HETATM   25  HN  UNL     1      11.741   5.060  92.660  1.00  0.00     0.164 HD
BRANCH  24  26
HETATM   26  C   UNL     1      12.828   3.318  92.199  1.00  0.00     0.166 C 
BRANCH  26  27
HETATM   27  C   UNL     1      12.336   1.903  91.869  1.00  0.00     0.138 C 
HETATM   28  C   UNL     1      13.242   0.821  92.445  1.00  0.00     0.034 C 
BRANCH  27  29
HETATM   29  O   UNL     1      11.016   1.725  92.383  1.00  0.00    -0.383 OA
HETATM   30  H   UNL     1      11.086   1.466  93.318  1.00  0.00     0.210 HD
ENDBRANCH  27  29
ENDBRANCH  26  27
BRANCH  26  31
HETATM   31  C   UNL     1      14.056   3.685  91.372  1.00  0.00     0.181 C 
HETATM   32  O   UNL     1      14.336   4.842  91.066  1.00  0.00    -0.294 OA
BRANCH  31  33
HETATM   33  C   UNL     1      15.410   3.039  91.987  1.00  0.00     0.138 C 
BRANCH  33  34
HETATM   34  C   UNL     1      15.286   3.389  93.349  1.00  0.00     0.208 C 
HETATM   35  O   UNL     1      15.142   2.471  94.124  1.00  0.00    -0.289 OA
BRANCH  34  36
HETATM   36  C   UNL     1      15.583   4.557  93.996  1.00  0.00     0.194 C 
HETATM   37  O   UNL     1      16.530   5.543  93.695  1.00  0.00    -0.185 OA
ENDBRANCH  34  36
ENDBRANCH  33  34
ENDBRANCH  31  33
ENDBRANCH  26  31
ENDBRANCH  24  26
ENDBRANCH  19  22
ENDBRANCH  15  16
ENDBRANCH  11  14
ENDBRANCH   7   8
ENDBRANCH   2   7
TORSDOF 12
ENDMDL
MODEL 7
REMARK VINA RESULT:      -3.1      1.590      3.175
REMARK  12 active torsions:
REMARK  status: ('A' for Active; 'I' for Inactive)
REMARK    1  A    between atoms: O_2  and  C_16 
REMARK    2  A    between atoms: N_5  and  C_9 
REMARK    3  A    between atoms: N_6  and  C_13 
REMARK       I    between atoms: N_6  and  C_22 
REMARK    4  A    between atoms: C_9  and  C_12 
REMARK    5  A    between atoms: C_13  and  C_16 
REMARK    6  A    between atoms: C_13  and  C_21 
REMARK    7  A    between atoms: C_19  and  C_24 
REMARK    8  A    between atoms: C_21  and  C_33 
REMARK    9  A    between atoms: C_22  and  C_23 
REMARK   10  A    between atoms: C_27  and  C_30 
REMARK   11  A    between atoms: C_33  and  C_34 
REMARK   12  A    between atoms: C_34  and  C_35 
ROOT
HETATM    1  O   UNL     1      16.813   4.013  92.995  1.00  0.00    -0.350 OA
HETATM    2  N   UNL     1      14.598   2.240  93.231  1.00  0.00     0.147 N 
HETATM    3  C   UNL     1      15.524   2.165  92.092  1.00  0.00     0.283 C 
HETATM    4  C   UNL     1      14.539   3.616  93.742  1.00  0.00     0.283 C 
HETATM    5  C   UNL     1      16.902   2.671  92.511  1.00  0.00     0.178 C 
HETATM    6  C   UNL     1      15.939   4.088  94.122  1.00  0.00     0.178 C 
ENDROOT
BRANCH   2   7
HETATM    7  C   UNL     1      13.268   1.769  92.848  1.00  0.00     0.277 C 
BRANCH   7   8
HETATM    8  C   UNL     1      12.360   2.886  92.460  1.00  0.00     0.011 A 
HETATM    9  C   UNL     1      12.105   3.139  91.112  1.00  0.00    -0.002 A 
HETATM   10  C   UNL     1      11.258   4.186  90.747  1.00  0.00     0.008 A 
HETATM   11  C   UNL     1      10.665   4.977  91.730  1.00  0.00     0.042 A 
HETATM   12  C   UNL     1      10.919   4.725  93.077  1.00  0.00     0.008 A 
HETATM   13  C   UNL     1      11.767   3.679  93.442  1.00  0.00    -0.002 A 
BRANCH  11  14
HETATM   14  C   UNL     1       9.794   6.049  91.356  1.00  0.00    -0.059 C 
HETATM   15  C   UNL     1       9.063   6.950  91.041  1.00  0.00    -0.059 C 
BRANCH  15  16
HETATM   16  C   UNL     1       8.194   8.021  90.666  1.00  0.00     0.042 A 
HETATM   17  C   UNL     1       6.862   7.757  90.346  1.00  0.00     0.008 A 
HETATM   18  C   UNL     1       6.013   8.802  89.983  1.00  0.00     0.005 A 
HETATM   19  C   UNL     1       6.514  10.087  89.949  1.00  0.00     0.056 A 
HETATM   20  C   UNL     1       7.826  10.374  90.261  1.00  0.00     0.005 A 
HETATM   21  C   UNL     1       8.676   9.329  90.624  1.00  0.00     0.008 A 
BRANCH  19  22
HETATM   22  C   UNL     1       5.610  11.200  89.560  1.00  0.00     0.254 C 
HETATM   23  O   UNL     1       5.124  11.212  88.432  1.00  0.00    -0.268 OA
HETATM   24  N   UNL     1       5.360  12.151  90.540  1.00  0.00    -0.335 N 
HETATM   25  HN  UNL     1       5.777  12.062  91.459  1.00  0.00     0.164 HD
BRANCH  24  26
HETATM   26  C   UNL     1       4.486  13.276  90.324  1.00  0.00     0.166 C 
BRANCH  26  27
HETATM   27  C   UNL     1       4.816  14.046  89.038  1.00  0.00     0.138 C 
HETATM   28  C   UNL     1       4.724  15.556  89.222  1.00  0.00     0.034 C 
BRANCH  27  29
HETATM   29  O   UNL     1       6.134  13.710  88.606  1.00  0.00    -0.383 OA
HETATM   30  H   UNL     1       6.131  13.653  87.636  1.00  0.00     0.210 HD
ENDBRANCH  27  29
ENDBRANCH  26  27
BRANCH  26  31
HETATM   31  C   UNL     1       3.053  12.756  90.307  1.00  0.00     0.181 C 
HETATM   32  O   UNL     1       2.665  11.886  89.529  1.00  0.00    -0.294 OA
BRANCH  31  33
HETATM   33  C   UNL     1       2.562  12.295  91.782  1.00  0.00     0.138 C 
BRANCH  33  34
HETATM   34  C   UNL     1       2.944  10.935  91.785  1.00  0.00     0.208 C 
HETATM   35  O   UNL     1       3.742  10.609  92.633  1.00  0.00    -0.289 OA
BRANCH  34  36
HETATM   36  C   UNL     1       2.366   9.850  91.186  1.00  0.00     0.194 C 
HETATM   37  O   UNL     1       1.235   9.111  91.551  1.00  0.00    -0.185 OA
ENDBRANCH  34  36
ENDBRANCH  33  34
ENDBRANCH  31  33
ENDBRANCH  26  31
ENDBRANCH  24  26
ENDBRANCH  19  22
ENDBRANCH  15  16
ENDBRANCH  11  14
ENDBRANCH   7   8
ENDBRANCH   2   7
TORSDOF 12
ENDMDL
MODEL 8
REMARK VINA RESULT:      -3.0      2.362     12.797
REMARK  12 active torsions:
REMARK  status: ('A' for Active; 'I' for Inactive)
REMARK    1  A    between atoms: O_2  and  C_16 
REMARK    2  A    between atoms: N_5  and  C_9 
REMARK    3  A    between atoms: N_6  and  C_13 
REMARK       I    between atoms: N_6  and  C_22 
REMARK    4  A    between atoms: C_9  and  C_12 
REMARK    5  A    between atoms: C_13  and  C_16 
REMARK    6  A    between atoms: C_13  and  C_21 
REMARK    7  A    between atoms: C_19  and  C_24 
REMARK    8  A    between atoms: C_21  and  C_33 
REMARK    9  A    between atoms: C_22  and  C_23 
REMARK   10  A    between atoms: C_27  and  C_30 
REMARK   11  A    between atoms: C_33  and  C_34 
REMARK   12  A    between atoms: C_34  and  C_35 
ROOT
HETATM    1  O   UNL     1       1.861  15.535  93.360  1.00  0.00    -0.350 OA
HETATM    2  N   UNL     1       2.697  13.226  91.920  1.00  0.00     0.147 N 
HETATM    3  C   UNL     1       3.386  14.516  91.770  1.00  0.00     0.283 C 
HETATM    4  C   UNL     1       1.287  13.446  92.269  1.00  0.00     0.283 C 
HETATM    5  C   UNL     1       3.242  15.331  93.053  1.00  0.00     0.178 C 
HETATM    6  C   UNL     1       1.192  14.286  93.538  1.00  0.00     0.178 C 
ENDROOT
BRANCH   2   7
HETATM    7  C   UNL     1       2.813  12.432  90.698  1.00  0.00     0.277 C 
BRANCH   7   8
HETATM    8  C   UNL     1       3.975  11.498  90.736  1.00  0.00     0.011 A 
HETATM    9  C   UNL     1       3.879  10.296  91.438  1.00  0.00    -0.002 A 
HETATM   10  C   UNL     1       4.966   9.423  91.475  1.00  0.00     0.008 A 
HETATM   11  C   UNL     1       6.146   9.751  90.809  1.00  0.00     0.042 A 
HETATM   12  C   UNL     1       6.243  10.951  90.108  1.00  0.00     0.008 A 
HETATM   13  C   UNL     1       5.156  11.825  90.071  1.00  0.00    -0.002 A 
BRANCH  11  14
HETATM   14  C   UNL     1       7.260   8.854  90.846  1.00  0.00    -0.059 C 
HETATM   15  C   UNL     1       8.196   8.100  90.876  1.00  0.00    -0.059 C 
BRANCH  15  16
HETATM   16  C   UNL     1       9.310   7.204  90.912  1.00  0.00     0.042 A 
HETATM   17  C   UNL     1       9.819   6.774  92.138  1.00  0.00     0.008 A 
HETATM   18  C   UNL     1      10.903   5.898  92.173  1.00  0.00     0.005 A 
HETATM   19  C   UNL     1      11.454   5.471  90.983  1.00  0.00     0.056 A 
HETATM   20  C   UNL     1      10.970   5.881  89.759  1.00  0.00     0.005 A 
HETATM   21  C   UNL     1       9.885   6.758  89.723  1.00  0.00     0.008 A 
BRANCH  19  22
HETATM   22  C   UNL     1      12.611   4.539  91.021  1.00  0.00     0.254 C 
HETATM   23  O   UNL     1      12.933   3.941  89.997  1.00  0.00    -0.268 OA
HETATM   24  N   UNL     1      13.268   4.434  92.239  1.00  0.00    -0.335 N 
HETATM   25  HN  UNL     1      12.960   4.979  93.036  1.00  0.00     0.164 HD
BRANCH  24  26
HETATM   26  C   UNL     1      14.421   3.592  92.428  1.00  0.00     0.166 C 
BRANCH  26  27
HETATM   27  C   UNL     1      15.450   4.201  93.389  1.00  0.00     0.138 C 
HETATM   28  C   UNL     1      16.595   3.243  93.702  1.00  0.00     0.034 C 
BRANCH  27  29
HETATM   29  O   UNL     1      15.987   5.394  92.819  1.00  0.00    -0.383 OA
HETATM   30  H   UNL     1      15.263   6.033  92.711  1.00  0.00     0.210 HD
ENDBRANCH  27  29
ENDBRANCH  26  27
BRANCH  26  31
HETATM   31  C   UNL     1      13.931   2.237  92.928  1.00  0.00     0.181 C 
HETATM   32  O   UNL     1      14.621   1.486  93.615  1.00  0.00    -0.294 OA
BRANCH  31  33
HETATM   33  C   UNL     1      12.501   2.354  93.683  1.00  0.00     0.138 C 
BRANCH  33  34
HETATM   34  C   UNL     1      11.608   2.107  92.617  1.00  0.00     0.208 C 
HETATM   35  O   UNL     1      11.991   1.333  91.770  1.00  0.00    -0.289 OA
BRANCH  34  36
HETATM   36  C   UNL     1      10.268   2.360  92.506  1.00  0.00     0.194 C 
HETATM   37  O   UNL     1       9.535   2.899  91.443  1.00  0.00    -0.185 OA
ENDBRANCH  34  36
ENDBRANCH  33  34
ENDBRANCH  31  33
ENDBRANCH  26  31
ENDBRANCH  24  26
ENDBRANCH  19  22
ENDBRANCH  15  16
ENDBRANCH  11  14
ENDBRANCH   7   8
ENDBRANCH   2   7
TORSDOF 12
ENDMDL
