MODEL 1
REMARK VINA RESULT:      -7.0      0.000      0.000
REMARK  10 active torsions:
REMARK  status: ('A' for Active; 'I' for Inactive)
REMARK    1  A    between atoms: O_2  and  C_16 
REMARK    2  A    between atoms: N_5  and  C_9 
REMARK    3  A    between atoms: N_6  and  C_13 
REMARK       I    between atoms: N_6  and  C_22 
REMARK    4  A    between atoms: C_9  and  C_12 
REMARK    5  A    between atoms: C_13  and  C_16 
REMARK    6  A    between atoms: C_13  and  C_21 
REMARK    7  A    between atoms: C_19  and  C_24 
REMARK    8  A    between atoms: C_22  and  C_23 
REMARK    9  A    between atoms: C_27  and  C_30 
REMARK   10  A    between atoms: N_33  and  S_34 
ROOT
HETATM    1  C   UNL     1       5.847  11.191  89.678  1.00  0.00     0.056 A 
HETATM    2  C   UNL     1       5.343  10.094  90.345  1.00  0.00     0.005 A 
HETATM    3  C   UNL     1       7.161  11.259  89.262  1.00  0.00     0.005 A 
HETATM    4  C   UNL     1       7.522   9.063  90.200  1.00  0.00     0.042 A 
HETATM    5  C   UNL     1       6.189   9.018  90.610  1.00  0.00     0.008 A 
HETATM    6  C   UNL     1       8.008  10.184  89.526  1.00  0.00     0.008 A 
ENDROOT
BRANCH   1   7
HETATM    7  C   UNL     1       4.945  12.336  89.394  1.00  0.00     0.254 C 
HETATM    8  O   UNL     1       4.809  12.720  88.235  1.00  0.00    -0.268 OA
HETATM    9  N   UNL     1       4.290  12.881  90.491  1.00  0.00    -0.337 N 
HETATM   10  HN  UNL     1       4.432  12.494  91.417  1.00  0.00     0.164 HD
BRANCH   9  11
HETATM   11  C   UNL     1       3.364  13.979  90.375  1.00  0.00     0.172 C 
BRANCH  11  12
HETATM   12  C   UNL     1       1.999  13.673  91.003  1.00  0.00     0.136 C 
HETATM   13  C   UNL     1       2.027  12.429  91.885  1.00  0.00     0.034 C 
BRANCH  12  14
HETATM   14  O   UNL     1       1.574  14.787  91.787  1.00  0.00    -0.383 OA
HETATM   15  H   UNL     1       1.872  14.648  92.702  1.00  0.00     0.210 HD
ENDBRANCH  12  14
ENDBRANCH  11  12
BRANCH  11  16
HETATM   16  C   UNL     1       4.010  15.202  91.018  1.00  0.00     0.398 A 
HETATM   17  O   UNL     1       5.148  15.579  90.748  1.00  0.00    -0.136 OA
HETATM   18  N   UNL     1       4.921  15.620  92.250  1.00  0.00     0.142 N 
HETATM   19  HN  UNL     1       5.838  15.970  92.234  1.00  0.00     0.338 HD
BRANCH  18  20
HETATM   20  S   UNL     1       4.136  15.100  93.273  1.00  0.00     0.076 SA
HETATM   21  H   UNL     1       4.006  15.778  94.240  1.00  0.00     0.136 HD
ENDBRANCH  18  20
ENDBRANCH  11  16
ENDBRANCH   9  11
ENDBRANCH   1   7
BRANCH   4  22
HETATM   22  C   UNL     1       8.391   7.961  90.474  1.00  0.00    -0.059 C 
HETATM   23  C   UNL     1       9.122   7.035  90.704  1.00  0.00    -0.059 C 
BRANCH  23  24
HETATM   24  C   UNL     1       9.992   5.932  90.979  1.00  0.00     0.042 A 
HETATM   25  C   UNL     1      10.725   5.350  89.946  1.00  0.00     0.008 A 
HETATM   26  C   UNL     1      11.571   4.274  90.214  1.00  0.00    -0.002 A 
HETATM   27  C   UNL     1      11.685   3.782  91.515  1.00  0.00     0.011 A 
HETATM   28  C   UNL     1      10.950   4.366  92.547  1.00  0.00    -0.002 A 
HETATM   29  C   UNL     1      10.104   5.442  92.279  1.00  0.00     0.008 A 
BRANCH  27  30
HETATM   30  C   UNL     1      12.591   2.633  91.800  1.00  0.00     0.277 C 
BRANCH  30  31
HETATM   31  N   UNL     1      13.611   2.962  92.794  1.00  0.00     0.147 N 
HETATM   32  C   UNL     1      14.443   1.788  93.093  1.00  0.00     0.283 C 
HETATM   33  C   UNL     1      15.507   2.158  94.124  1.00  0.00     0.178 C 
HETATM   34  O   UNL     1      16.315   3.233  93.641  1.00  0.00    -0.350 OA
HETATM   35  C   UNL     1      15.518   4.388  93.377  1.00  0.00     0.178 C 
HETATM   36  C   UNL     1      14.455   4.072  92.330  1.00  0.00     0.283 C 
ENDBRANCH  30  31
ENDBRANCH  27  30
ENDBRANCH  23  24
ENDBRANCH   4  22
TORSDOF 10
ENDMDL
MODEL 2
REMARK VINA RESULT:      -6.9      0.205      1.220
REMARK  10 active torsions:
REMARK  status: ('A' for Active; 'I' for Inactive)
REMARK    1  A    between atoms: O_2  and  C_16 
REMARK    2  A    between atoms: N_5  and  C_9 
REMARK    3  A    between atoms: N_6  and  C_13 
REMARK       I    between atoms: N_6  and  C_22 
REMARK    4  A    between atoms: C_9  and  C_12 
REMARK    5  A    between atoms: C_13  and  C_16 
REMARK    6  A    between atoms: C_13  and  C_21 
REMARK    7  A    between atoms: C_19  and  C_24 
REMARK    8  A    between atoms: C_22  and  C_23 
REMARK    9  A    between atoms: C_27  and  C_30 
REMARK   10  A    between atoms: N_33  and  S_34 
ROOT
HETATM    1  C   UNL     1       5.775  11.052  89.607  1.00  0.00     0.056 A 
HETATM    2  C   UNL     1       7.130  11.203  89.398  1.00  0.00     0.005 A 
HETATM    3  C   UNL     1       5.231   9.879  90.088  1.00  0.00     0.005 A 
HETATM    4  C   UNL     1       7.454   8.938  90.170  1.00  0.00     0.042 A 
HETATM    5  C   UNL     1       7.980  10.135  89.683  1.00  0.00     0.008 A 
HETATM    6  C   UNL     1       6.080   8.810  90.373  1.00  0.00     0.008 A 
ENDROOT
BRANCH   1   7
HETATM    7  C   UNL     1       4.870  12.191  89.305  1.00  0.00     0.254 C 
HETATM    8  O   UNL     1       4.758  12.577  88.144  1.00  0.00    -0.268 OA
HETATM    9  N   UNL     1       4.186  12.727  90.388  1.00  0.00    -0.337 N 
HETATM   10  HN  UNL     1       4.310  12.339  91.316  1.00  0.00     0.164 HD
BRANCH   9  11
HETATM   11  C   UNL     1       3.255  13.819  90.253  1.00  0.00     0.172 C 
BRANCH  11  12
HETATM   12  C   UNL     1       1.954  13.588  91.031  1.00  0.00     0.136 C 
HETATM   13  C   UNL     1       2.088  12.490  92.081  1.00  0.00     0.034 C 
BRANCH  12  14
HETATM   14  O   UNL     1       1.561  14.799  91.676  1.00  0.00    -0.383 OA
HETATM   15  H   UNL     1       1.657  15.528  91.039  1.00  0.00     0.210 HD
ENDBRANCH  12  14
ENDBRANCH  11  12
BRANCH  11  16
HETATM   16  C   UNL     1       3.959  15.091  90.715  1.00  0.00     0.398 A 
HETATM   17  O   UNL     1       5.090  15.402  90.346  1.00  0.00    -0.136 OA
HETATM   18  N   UNL     1       4.942  15.625  91.842  1.00  0.00     0.142 N 
HETATM   19  HN  UNL     1       5.864  15.946  91.739  1.00  0.00     0.338 HD
BRANCH  18  20
HETATM   20  S   UNL     1       4.200  15.250  92.956  1.00  0.00     0.076 SA
HETATM   21  H   UNL     1       3.929  16.111  93.728  1.00  0.00     0.136 HD
ENDBRANCH  18  20
ENDBRANCH  11  16
ENDBRANCH   9  11
ENDBRANCH   1   7
BRANCH   4  22
HETATM   22  C   UNL     1       8.325   7.841  90.459  1.00  0.00    -0.059 C 
HETATM   23  C   UNL     1       9.056   6.919  90.703  1.00  0.00    -0.059 C 
BRANCH  23  24
HETATM   24  C   UNL     1       9.927   5.821  90.992  1.00  0.00     0.042 A 
HETATM   25  C   UNL     1      10.009   5.321  92.291  1.00  0.00     0.008 A 
HETATM   26  C   UNL     1      10.859   4.252  92.574  1.00  0.00    -0.002 A 
HETATM   27  C   UNL     1      11.625   3.682  91.556  1.00  0.00     0.011 A 
HETATM   28  C   UNL     1      11.541   4.183  90.257  1.00  0.00    -0.002 A 
HETATM   29  C   UNL     1      10.692   5.253  89.975  1.00  0.00     0.008 A 
BRANCH  27  30
HETATM   30  C   UNL     1      12.532   2.538  91.859  1.00  0.00     0.277 C 
BRANCH  30  31
HETATM   31  N   UNL     1      13.569   2.891  92.826  1.00  0.00     0.147 N 
HETATM   32  C   UNL     1      14.422   1.731  93.121  1.00  0.00     0.283 C 
HETATM   33  C   UNL     1      15.504   2.125  94.123  1.00  0.00     0.178 C 
HETATM   34  O   UNL     1      16.288   3.204  93.610  1.00  0.00    -0.350 OA
HETATM   35  C   UNL     1      15.471   4.346  93.350  1.00  0.00     0.178 C 
HETATM   36  C   UNL     1      14.389   4.005  92.330  1.00  0.00     0.283 C 
ENDBRANCH  30  31
ENDBRANCH  27  30
ENDBRANCH  23  24
ENDBRANCH   4  22
TORSDOF 10
ENDMDL
MODEL 3
REMARK VINA RESULT:      -6.9      1.410      1.600
REMARK  10 active torsions:
REMARK  status: ('A' for Active; 'I' for Inactive)
REMARK    1  A    between atoms: O_2  and  C_16 
REMARK    2  A    between atoms: N_5  and  C_9 
REMARK    3  A    between atoms: N_6  and  C_13 
REMARK       I    between atoms: N_6  and  C_22 
REMARK    4  A    between atoms: C_9  and  C_12 
REMARK    5  A    between atoms: C_13  and  C_16 
REMARK    6  A    between atoms: C_13  and  C_21 
REMARK    7  A    between atoms: C_19  and  C_24 
REMARK    8  A    between atoms: C_22  and  C_23 
REMARK    9  A    between atoms: C_27  and  C_30 
REMARK   10  A    between atoms: N_33  and  S_34 
ROOT
HETATM    1  C   UNL     1       4.926   9.768  90.285  1.00  0.00     0.056 A 
HETATM    2  C   UNL     1       4.615   8.425  90.316  1.00  0.00     0.005 A 
HETATM    3  C   UNL     1       6.216  10.229  90.441  1.00  0.00     0.005 A 
HETATM    4  C   UNL     1       6.954   7.941  90.677  1.00  0.00     0.042 A 
HETATM    5  C   UNL     1       5.640   7.500  90.515  1.00  0.00     0.008 A 
HETATM    6  C   UNL     1       7.242   9.305  90.640  1.00  0.00     0.008 A 
ENDROOT
BRANCH   1   7
HETATM    7  C   UNL     1       3.834  10.753  90.071  1.00  0.00     0.254 C 
HETATM    8  O   UNL     1       2.829  10.410  89.454  1.00  0.00    -0.268 OA
HETATM    9  N   UNL     1       4.033  12.011  90.624  1.00  0.00    -0.337 N 
HETATM   10  HN  UNL     1       4.878  12.215  91.143  1.00  0.00     0.164 HD
BRANCH   9  11
HETATM   11  C   UNL     1       3.056  13.065  90.523  1.00  0.00     0.172 C 
BRANCH  11  12
HETATM   12  C   UNL     1       2.707  13.683  91.883  1.00  0.00     0.136 C 
HETATM   13  C   UNL     1       1.247  14.113  91.972  1.00  0.00     0.034 C 
BRANCH  12  14
HETATM   14  O   UNL     1       2.976  12.739  92.919  1.00  0.00    -0.383 OA
HETATM   15  H   UNL     1       2.248  12.096  92.942  1.00  0.00     0.210 HD
ENDBRANCH  12  14
ENDBRANCH  11  12
BRANCH  11  16
HETATM   16  C   UNL     1       3.601  14.115  89.561  1.00  0.00     0.398 A 
HETATM   17  O   UNL     1       4.250  13.830  88.556  1.00  0.00    -0.136 OA
HETATM   18  N   UNL     1       4.895  14.995  89.288  1.00  0.00     0.142 N 
HETATM   19  HN  UNL     1       5.517  14.939  88.531  1.00  0.00     0.338 HD
BRANCH  18  20
HETATM   20  S   UNL     1       4.981  15.623  90.525  1.00  0.00     0.076 SA
HETATM   21  H   UNL     1       4.414  15.098  91.428  1.00  0.00     0.136 HD
ENDBRANCH  18  20
ENDBRANCH  11  16
ENDBRANCH   9  11
ENDBRANCH   1   7
BRANCH   4  22
HETATM   22  C   UNL     1       8.004   6.993  90.883  1.00  0.00    -0.059 C 
HETATM   23  C   UNL     1       8.887   6.196  91.056  1.00  0.00    -0.059 C 
BRANCH  23  24
HETATM   24  C   UNL     1       9.938   5.247  91.262  1.00  0.00     0.042 A 
HETATM   25  C   UNL     1      10.663   4.764  90.172  1.00  0.00     0.008 A 
HETATM   26  C   UNL     1      11.687   3.838  90.372  1.00  0.00    -0.002 A 
HETATM   27  C   UNL     1      11.986   3.397  91.662  1.00  0.00     0.011 A 
HETATM   28  C   UNL     1      11.260   3.881  92.750  1.00  0.00    -0.002 A 
HETATM   29  C   UNL     1      10.236   4.807  92.550  1.00  0.00     0.008 A 
BRANCH  27  30
HETATM   30  C   UNL     1      13.082   2.409  91.874  1.00  0.00     0.277 C 
BRANCH  30  31
HETATM   31  N   UNL     1      14.031   2.841  92.899  1.00  0.00     0.147 N 
HETATM   32  C   UNL     1      15.109   1.856  93.058  1.00  0.00     0.283 C 
HETATM   33  C   UNL     1      16.093   2.334  94.124  1.00  0.00     0.178 C 
HETATM   34  O   UNL     1      16.630   3.609  93.768  1.00  0.00    -0.350 OA
HETATM   35  C   UNL     1      15.590   4.580  93.642  1.00  0.00     0.178 C 
HETATM   36  C   UNL     1      14.595   4.156  92.566  1.00  0.00     0.283 C 
ENDBRANCH  30  31
ENDBRANCH  27  30
ENDBRANCH  23  24
ENDBRANCH   4  22
TORSDOF 10
ENDMDL
MODEL 4
REMARK VINA RESULT:      -6.7      1.420      1.931
REMARK  10 active torsions:
REMARK  status: ('A' for Active; 'I' for Inactive)
REMARK    1  A    between atoms: O_2  and  C_16 
REMARK    2  A    between atoms: N_5  and  C_9 
REMARK    3  A    between atoms: N_6  and  C_13 
REMARK       I    between atoms: N_6  and  C_22 
REMARK    4  A    between atoms: C_9  and  C_12 
REMARK    5  A    between atoms: C_13  and  C_16 
REMARK    6  A    between atoms: C_13  and  C_21 
REMARK    7  A    between atoms: C_19  and  C_24 
REMARK    8  A    between atoms: C_22  and  C_23 
REMARK    9  A    between atoms: C_27  and  C_30 
REMARK   10  A    between atoms: N_33  and  S_34 
ROOT
HETATM    1  C   UNL     1       5.366  10.634  90.877  1.00  0.00     0.056 A 
HETATM    2  C   UNL     1       5.887  10.376  92.128  1.00  0.00     0.005 A 
HETATM    3  C   UNL     1       5.738   9.913  89.762  1.00  0.00     0.005 A 
HETATM    4  C   UNL     1       7.216   8.608  91.158  1.00  0.00     0.042 A 
HETATM    5  C   UNL     1       6.823   9.352  92.271  1.00  0.00     0.008 A 
HETATM    6  C   UNL     1       6.673   8.888  89.903  1.00  0.00     0.008 A 
ENDROOT
BRANCH   1   7
HETATM    7  C   UNL     1       4.368  11.725  90.727  1.00  0.00     0.254 C 
HETATM    8  O   UNL     1       3.408  11.559  89.979  1.00  0.00    -0.268 OA
HETATM    9  N   UNL     1       4.595  12.866  91.483  1.00  0.00    -0.337 N 
HETATM   10  HN  UNL     1       5.398  12.922  92.099  1.00  0.00     0.164 HD
BRANCH   9  11
HETATM   11  C   UNL     1       3.705  13.999  91.464  1.00  0.00     0.172 C 
BRANCH  11  12
HETATM   12  C   UNL     1       3.689  14.719  90.110  1.00  0.00     0.136 C 
HETATM   13  C   UNL     1       5.047  14.689  89.417  1.00  0.00     0.034 C 
BRANCH  12  14
HETATM   14  O   UNL     1       2.720  14.110  89.257  1.00  0.00    -0.383 OA
HETATM   15  H   UNL     1       1.890  14.611  89.333  1.00  0.00     0.210 HD
ENDBRANCH  12  14
ENDBRANCH  11  12
BRANCH  11  16
HETATM   16  C   UNL     1       2.314  13.504  91.846  1.00  0.00     0.398 A 
HETATM   17  O   UNL     1       1.320  14.229  91.839  1.00  0.00    -0.136 OA
HETATM   18  N   UNL     1       1.342  13.374  93.096  1.00  0.00     0.142 N 
HETATM   19  HN  UNL     1       0.495  13.842  93.255  1.00  0.00     0.338 HD
BRANCH  18  20
HETATM   20  S   UNL     1       2.180  12.643  93.931  1.00  0.00     0.076 SA
HETATM   21  H   UNL     1       1.700  12.235  94.939  1.00  0.00     0.136 HD
ENDBRANCH  18  20
ENDBRANCH  11  16
ENDBRANCH   9  11
ENDBRANCH   1   7
BRANCH   4  22
HETATM   22  C   UNL     1       8.177   7.559  91.303  1.00  0.00    -0.059 C 
HETATM   23  C   UNL     1       8.985   6.677  91.425  1.00  0.00    -0.059 C 
BRANCH  23  24
HETATM   24  C   UNL     1       9.947   5.628  91.569  1.00  0.00     0.042 A 
HETATM   25  C   UNL     1      10.526   5.055  90.438  1.00  0.00     0.008 A 
HETATM   26  C   UNL     1      11.463   4.030  90.579  1.00  0.00    -0.002 A 
HETATM   27  C   UNL     1      11.820   3.582  91.851  1.00  0.00     0.011 A 
HETATM   28  C   UNL     1      11.240   4.157  92.981  1.00  0.00    -0.002 A 
HETATM   29  C   UNL     1      10.303   5.181  92.840  1.00  0.00     0.008 A 
BRANCH  27  30
HETATM   30  C   UNL     1      12.823   2.489  92.000  1.00  0.00     0.277 C 
BRANCH  30  31
HETATM   31  N   UNL     1      13.882   2.830  92.948  1.00  0.00     0.147 N 
HETATM   32  C   UNL     1      14.794   1.694  93.139  1.00  0.00     0.283 C 
HETATM   33  C   UNL     1      15.897   2.077  94.124  1.00  0.00     0.178 C 
HETATM   34  O   UNL     1      16.613   3.218  93.649  1.00  0.00    -0.350 OA
HETATM   35  C   UNL     1      15.738   4.336  93.490  1.00  0.00     0.178 C 
HETATM   36  C   UNL     1      14.632   4.008  92.492  1.00  0.00     0.283 C 
ENDBRANCH  30  31
ENDBRANCH  27  30
ENDBRANCH  23  24
ENDBRANCH   4  22
TORSDOF 10
ENDMDL
MODEL 5
REMARK VINA RESULT:      -6.6      1.613      2.069
REMARK  10 active torsions:
REMARK  status: ('A' for Active; 'I' for Inactive)
REMARK    1  A    between atoms: O_2  and  C_16 
REMARK    2  A    between atoms: N_5  and  C_9 
REMARK    3  A    between atoms: N_6  and  C_13 
REMARK       I    between atoms: N_6  and  C_22 
REMARK    4  A    between atoms: C_9  and  C_12 
REMARK    5  A    between atoms: C_13  and  C_16 
REMARK    6  A    between atoms: C_13  and  C_21 
REMARK    7  A    between atoms: C_19  and  C_24 
REMARK    8  A    between atoms: C_22  and  C_23 
REMARK    9  A    between atoms: C_27  and  C_30 
REMARK   10  A    between atoms: N_33  and  S_34 
ROOT
HETATM    1  C   UNL     1       4.545  10.073  91.466  1.00  0.00     0.056 A 
HETATM    2  C   UNL     1       5.618  10.308  90.632  1.00  0.00     0.005 A 
HETATM    3  C   UNL     1       4.492   8.983  92.309  1.00  0.00     0.005 A 
HETATM    4  C   UNL     1       6.657   8.300  91.485  1.00  0.00     0.042 A 
HETATM    5  C   UNL     1       6.687   9.411  90.641  1.00  0.00     0.008 A 
HETATM    6  C   UNL     1       5.560   8.086  92.319  1.00  0.00     0.008 A 
ENDROOT
BRANCH   1   7
HETATM    7  C   UNL     1       3.408  11.030  91.458  1.00  0.00     0.254 C 
HETATM    8  O   UNL     1       2.310  10.654  91.053  1.00  0.00    -0.268 OA
HETATM    9  N   UNL     1       3.679  12.301  91.945  1.00  0.00    -0.337 N 
HETATM   10  HN  UNL     1       4.604  12.533  92.286  1.00  0.00     0.164 HD
BRANCH   9  11
HETATM   11  C   UNL     1       2.675  13.332  92.024  1.00  0.00     0.172 C 
BRANCH  11  12
HETATM   12  C   UNL     1       2.765  14.150  93.318  1.00  0.00     0.136 C 
HETATM   13  C   UNL     1       4.110  13.988  94.019  1.00  0.00     0.034 C 
BRANCH  12  14
HETATM   14  O   UNL     1       2.558  15.531  93.026  1.00  0.00    -0.383 OA
HETATM   15  H   UNL     1       2.020  15.594  92.218  1.00  0.00     0.210 HD
ENDBRANCH  12  14
ENDBRANCH  11  12
BRANCH  11  16
HETATM   16  C   UNL     1       2.823  14.222  90.794  1.00  0.00     0.398 A 
HETATM   17  O   UNL     1       2.680  13.806  89.646  1.00  0.00    -0.136 OA
HETATM   18  N   UNL     1       3.904  14.703  89.734  1.00  0.00     0.142 N 
HETATM   19  HN  UNL     1       3.941  14.504  88.774  1.00  0.00     0.338 HD
BRANCH  18  20
HETATM   20  S   UNL     1       4.840  15.226  90.619  1.00  0.00     0.076 SA
HETATM   21  H   UNL     1       4.589  15.129  91.777  1.00  0.00     0.136 HD
ENDBRANCH  18  20
ENDBRANCH  11  16
ENDBRANCH   9  11
ENDBRANCH   1   7
BRANCH   4  22
HETATM   22  C   UNL     1       7.751   7.380  91.492  1.00  0.00    -0.059 C 
HETATM   23  C   UNL     1       8.671   6.606  91.498  1.00  0.00    -0.059 C 
BRANCH  23  24
HETATM   24  C   UNL     1       9.766   5.685  91.506  1.00  0.00     0.042 A 
HETATM   25  C   UNL     1      10.351   5.288  90.303  1.00  0.00     0.008 A 
HETATM   26  C   UNL     1      11.416   4.389  90.311  1.00  0.00    -0.002 A 
HETATM   27  C   UNL     1      11.898   3.887  91.521  1.00  0.00     0.011 A 
HETATM   28  C   UNL     1      11.312   4.285  92.722  1.00  0.00    -0.002 A 
HETATM   29  C   UNL     1      10.245   5.185  92.714  1.00  0.00     0.008 A 
BRANCH  27  30
HETATM   30  C   UNL     1      13.038   2.927  91.528  1.00  0.00     0.277 C 
BRANCH  30  31
HETATM   31  N   UNL     1      13.935   3.136  92.663  1.00  0.00     0.147 N 
HETATM   32  C   UNL     1      14.715   1.921  92.940  1.00  0.00     0.283 C 
HETATM   33  C   UNL     1      15.651   2.166  94.121  1.00  0.00     0.178 C 
HETATM   34  O   UNL     1      16.520   3.266  93.847  1.00  0.00    -0.350 OA
HETATM   35  C   UNL     1      15.770   4.458  93.608  1.00  0.00     0.178 C 
HETATM   36  C   UNL     1      14.837   4.268  92.416  1.00  0.00     0.283 C 
ENDBRANCH  30  31
ENDBRANCH  27  30
ENDBRANCH  23  24
ENDBRANCH   4  22
TORSDOF 10
ENDMDL
MODEL 6
REMARK VINA RESULT:      -5.9      2.887      3.821
REMARK  10 active torsions:
REMARK  status: ('A' for Active; 'I' for Inactive)
REMARK    1  A    between atoms: O_2  and  C_16 
REMARK    2  A    between atoms: N_5  and  C_9 
REMARK    3  A    between atoms: N_6  and  C_13 
REMARK       I    between atoms: N_6  and  C_22 
REMARK    4  A    between atoms: C_9  and  C_12 
REMARK    5  A    between atoms: C_13  and  C_16 
REMARK    6  A    between atoms: C_13  and  C_21 
REMARK    7  A    between atoms: C_19  and  C_24 
REMARK    8  A    between atoms: C_22  and  C_23 
REMARK    9  A    between atoms: C_27  and  C_30 
REMARK   10  A    between atoms: N_33  and  S_34 
ROOT
HETATM    1  C   UNL     1       6.180   7.405  88.065  1.00  0.00     0.056 A 
HETATM    2  C   UNL     1       6.016   7.003  89.374  1.00  0.00     0.005 A 
HETATM    3  C   UNL     1       7.333   7.142  87.354  1.00  0.00     0.005 A 
HETATM    4  C   UNL     1       8.226   6.032  89.304  1.00  0.00     0.042 A 
HETATM    5  C   UNL     1       7.051   6.309  90.002  1.00  0.00     0.008 A 
HETATM    6  C   UNL     1       8.368   6.449  87.980  1.00  0.00     0.008 A 
ENDROOT
BRANCH   1   7
HETATM    7  C   UNL     1       5.077   8.142  87.396  1.00  0.00     0.254 C 
HETATM    8  O   UNL     1       4.830   7.910  86.215  1.00  0.00    -0.268 OA
HETATM    9  N   UNL     1       4.379   9.041  88.190  1.00  0.00    -0.337 N 
HETATM   10  HN  UNL     1       4.623   9.162  89.166  1.00  0.00     0.164 HD
BRANCH   9  11
HETATM   11  C   UNL     1       3.268   9.813  87.693  1.00  0.00     0.172 C 
BRANCH  11  12
HETATM   12  C   UNL     1       1.915   9.306  88.209  1.00  0.00     0.136 C 
HETATM   13  C   UNL     1       1.366   8.155  87.373  1.00  0.00     0.034 C 
BRANCH  12  14
HETATM   14  O   UNL     1       2.052   8.872  89.561  1.00  0.00    -0.383 OA
HETATM   15  H   UNL     1       1.240   8.402  89.814  1.00  0.00     0.210 HD
ENDBRANCH  12  14
ENDBRANCH  11  12
BRANCH  11  16
HETATM   16  C   UNL     1       3.500  11.269  88.085  1.00  0.00     0.398 A 
HETATM   17  O   UNL     1       4.542  11.872  87.835  1.00  0.00    -0.136 OA
HETATM   18  N   UNL     1       4.095  12.158  89.260  1.00  0.00     0.142 N 
HETATM   19  HN  UNL     1       4.893  12.728  89.242  1.00  0.00     0.338 HD
BRANCH  18  20
HETATM   20  S   UNL     1       3.317  11.668  90.302  1.00  0.00     0.076 SA
HETATM   21  H   UNL     1       2.140  11.697  90.146  1.00  0.00     0.136 HD
ENDBRANCH  18  20
ENDBRANCH  11  16
ENDBRANCH   9  11
ENDBRANCH   1   7
BRANCH   4  22
HETATM   22  C   UNL     1       9.288   5.323  89.948  1.00  0.00    -0.059 C 
HETATM   23  C   UNL     1      10.181   4.727  90.490  1.00  0.00    -0.059 C 
BRANCH  23  24
HETATM   24  C   UNL     1      11.243   4.018  91.134  1.00  0.00     0.042 A 
HETATM   25  C   UNL     1      10.987   3.284  92.293  1.00  0.00     0.008 A 
HETATM   26  C   UNL     1      12.023   2.594  92.922  1.00  0.00    -0.002 A 
HETATM   27  C   UNL     1      13.313   2.636  92.392  1.00  0.00     0.011 A 
HETATM   28  C   UNL     1      13.566   3.370  91.233  1.00  0.00    -0.002 A 
HETATM   29  C   UNL     1      12.530   4.060  90.604  1.00  0.00     0.008 A 
BRANCH  27  30
HETATM   30  C   UNL     1      14.418   1.896  93.065  1.00  0.00     0.277 C 
BRANCH  30  31
HETATM   31  N   UNL     1      15.391   2.792  93.686  1.00  0.00     0.147 N 
HETATM   32  C   UNL     1      16.739   2.548  93.153  1.00  0.00     0.283 C 
HETATM   33  C   UNL     1      17.735   3.502  93.808  1.00  0.00     0.178 C 
HETATM   34  O   UNL     1      17.346   4.858  93.581  1.00  0.00    -0.350 OA
HETATM   35  C   UNL     1      16.050   5.112  94.124  1.00  0.00     0.178 C 
HETATM   36  C   UNL     1      15.015   4.197  93.478  1.00  0.00     0.283 C 
ENDBRANCH  30  31
ENDBRANCH  27  30
ENDBRANCH  23  24
ENDBRANCH   4  22
TORSDOF 10
ENDMDL
MODEL 7
REMARK VINA RESULT:      -5.5      3.672     12.426
REMARK  10 active torsions:
REMARK  status: ('A' for Active; 'I' for Inactive)
REMARK    1  A    between atoms: O_2  and  C_16 
REMARK    2  A    between atoms: N_5  and  C_9 
REMARK    3  A    between atoms: N_6  and  C_13 
REMARK       I    between atoms: N_6  and  C_22 
REMARK    4  A    between atoms: C_9  and  C_12 
REMARK    5  A    between atoms: C_13  and  C_16 
REMARK    6  A    between atoms: C_13  and  C_21 
REMARK    7  A    between atoms: C_19  and  C_24 
REMARK    8  A    between atoms: C_22  and  C_23 
REMARK    9  A    between atoms: C_27  and  C_30 
REMARK   10  A    between atoms: N_33  and  S_34 
ROOT
HETATM    1  C   UNL     1      10.213   5.805  90.045  1.00  0.00     0.056 A 
HETATM    2  C   UNL     1      10.053   6.566  88.906  1.00  0.00     0.005 A 
HETATM    3  C   UNL     1       9.461   6.014  91.182  1.00  0.00     0.005 A 
HETATM    4  C   UNL     1       8.324   7.814  90.040  1.00  0.00     0.042 A 
HETATM    5  C   UNL     1       9.098   7.582  88.903  1.00  0.00     0.008 A 
HETATM    6  C   UNL     1       8.505   7.030  91.180  1.00  0.00     0.008 A 
ENDROOT
BRANCH   1   7
HETATM    7  C   UNL     1      11.230   4.721  90.047  1.00  0.00     0.254 C 
HETATM    8  O   UNL     1      11.461   4.114  89.004  1.00  0.00    -0.268 OA
HETATM    9  N   UNL     1      11.871   4.491  91.256  1.00  0.00    -0.337 N 
HETATM   10  HN  UNL     1      11.645   5.049  92.071  1.00  0.00     0.164 HD
BRANCH   9  11
HETATM   11  C   UNL     1      12.897   3.491  91.412  1.00  0.00     0.172 C 
BRANCH  11  12
HETATM   12  C   UNL     1      14.298   4.022  91.085  1.00  0.00     0.136 C 
HETATM   13  C   UNL     1      15.079   3.085  90.171  1.00  0.00     0.034 C 
BRANCH  12  14
HETATM   14  O   UNL     1      14.190   5.299  90.457  1.00  0.00    -0.383 OA
HETATM   15  H   UNL     1      15.036   5.497  90.022  1.00  0.00     0.210 HD
ENDBRANCH  12  14
ENDBRANCH  11  12
BRANCH  11  16
HETATM   16  C   UNL     1      12.822   2.966  92.842  1.00  0.00     0.398 A 
HETATM   17  O   UNL     1      12.600   3.690  93.810  1.00  0.00    -0.136 OA
HETATM   18  N   UNL     1      13.729   2.721  94.123  1.00  0.00     0.142 N 
HETATM   19  HN  UNL     1      13.684   3.174  94.992  1.00  0.00     0.338 HD
BRANCH  18  20
HETATM   20  S   UNL     1      14.697   1.912  93.537  1.00  0.00     0.076 SA
HETATM   21  H   UNL     1      14.715   1.881  92.349  1.00  0.00     0.136 HD
ENDBRANCH  18  20
ENDBRANCH  11  16
ENDBRANCH   9  11
ENDBRANCH   1   7
BRANCH   4  22
HETATM   22  C   UNL     1       7.347   8.858  90.039  1.00  0.00    -0.059 C 
HETATM   23  C   UNL     1       6.525   9.735  90.038  1.00  0.00    -0.059 C 
BRANCH  23  24
HETATM   24  C   UNL     1       5.547  10.779  90.037  1.00  0.00     0.042 A 
HETATM   25  C   UNL     1       5.836  12.003  89.434  1.00  0.00     0.008 A 
HETATM   26  C   UNL     1       4.884  13.022  89.435  1.00  0.00    -0.002 A 
HETATM   27  C   UNL     1       3.642  12.815  90.037  1.00  0.00     0.011 A 
HETATM   28  C   UNL     1       3.354  11.590  90.639  1.00  0.00    -0.002 A 
HETATM   29  C   UNL     1       4.307  10.572  90.638  1.00  0.00     0.008 A 
BRANCH  27  30
HETATM   30  C   UNL     1       2.624  13.905  90.035  1.00  0.00     0.277 C 
BRANCH  30  31
HETATM   31  N   UNL     1       2.592  14.639  91.299  1.00  0.00     0.147 N 
HETATM   32  C   UNL     1       1.785  13.923  92.297  1.00  0.00     0.283 C 
HETATM   33  C   UNL     1       1.776  14.703  93.609  1.00  0.00     0.178 C 
HETATM   34  O   UNL     1       3.109  14.889  94.086  1.00  0.00    -0.350 OA
HETATM   35  C   UNL     1       3.892  15.611  93.135  1.00  0.00     0.178 C 
HETATM   36  C   UNL     1       3.952  14.855  91.812  1.00  0.00     0.283 C 
ENDBRANCH  30  31
ENDBRANCH  27  30
ENDBRANCH  23  24
ENDBRANCH   4  22
TORSDOF 10
ENDMDL
MODEL 8
REMARK VINA RESULT:      -5.3      3.690     12.598
REMARK  10 active torsions:
REMARK  status: ('A' for Active; 'I' for Inactive)
REMARK    1  A    between atoms: O_2  and  C_16 
REMARK    2  A    between atoms: N_5  and  C_9 
REMARK    3  A    between atoms: N_6  and  C_13 
REMARK       I    between atoms: N_6  and  C_22 
REMARK    4  A    between atoms: C_9  and  C_12 
REMARK    5  A    between atoms: C_13  and  C_16 
REMARK    6  A    between atoms: C_13  and  C_21 
REMARK    7  A    between atoms: C_19  and  C_24 
REMARK    8  A    between atoms: C_22  and  C_23 
REMARK    9  A    between atoms: C_27  and  C_30 
REMARK   10  A    between atoms: N_33  and  S_34 
ROOT
HETATM    1  C   UNL     1      10.625   4.655  92.595  1.00  0.00     0.056 A 
HETATM    2  C   UNL     1       9.941   4.723  91.400  1.00  0.00     0.005 A 
HETATM    3  C   UNL     1      10.365   5.514  93.642  1.00  0.00     0.005 A 
HETATM    4  C   UNL     1       8.670   6.576  92.287  1.00  0.00     0.042 A 
HETATM    5  C   UNL     1       8.953   5.694  91.243  1.00  0.00     0.008 A 
HETATM    6  C   UNL     1       9.376   6.486  93.487  1.00  0.00     0.008 A 
ENDROOT
BRANCH   1   7
HETATM    7  C   UNL     1      11.677   3.619  92.763  1.00  0.00     0.254 C 
HETATM    8  O   UNL     1      11.374   2.434  92.655  1.00  0.00    -0.268 OA
HETATM    9  N   UNL     1      12.960   4.089  93.010  1.00  0.00    -0.337 N 
HETATM   10  HN  UNL     1      13.140   5.085  93.061  1.00  0.00     0.164 HD
BRANCH   9  11
HETATM   11  C   UNL     1      14.090   3.210  93.172  1.00  0.00     0.172 C 
BRANCH  11  12
HETATM   12  C   UNL     1      14.558   2.596  91.846  1.00  0.00     0.136 C 
HETATM   13  C   UNL     1      14.320   3.520  90.658  1.00  0.00     0.034 C 
BRANCH  12  14
HETATM   14  O   UNL     1      15.950   2.292  91.926  1.00  0.00    -0.383 OA
HETATM   15  H   UNL     1      16.341   2.836  92.631  1.00  0.00     0.210 HD
ENDBRANCH  12  14
ENDBRANCH  11  12
BRANCH  11  16
HETATM   16  C   UNL     1      15.207   4.005  93.839  1.00  0.00     0.398 A 
HETATM   17  O   UNL     1      15.649   5.056  93.378  1.00  0.00    -0.136 OA
HETATM   18  N   UNL     1      16.788   4.162  93.841  1.00  0.00     0.142 N 
HETATM   19  HN  UNL     1      17.320   4.931  93.545  1.00  0.00     0.338 HD
BRANCH  18  20
HETATM   20  S   UNL     1      17.124   2.843  94.124  1.00  0.00     0.076 SA
HETATM   21  H   UNL     1      17.295   2.127  93.191  1.00  0.00     0.136 HD
ENDBRANCH  18  20
ENDBRANCH  11  16
ENDBRANCH   9  11
ENDBRANCH   1   7
BRANCH   4  22
HETATM   22  C   UNL     1       7.659   7.573  92.125  1.00  0.00    -0.059 C 
HETATM   23  C   UNL     1       6.809   8.412  91.989  1.00  0.00    -0.059 C 
BRANCH  23  24
HETATM   24  C   UNL     1       5.796   9.410  91.826  1.00  0.00     0.042 A 
HETATM   25  C   UNL     1       5.810  10.552  92.626  1.00  0.00     0.008 A 
HETATM   26  C   UNL     1       4.822  11.524  92.469  1.00  0.00    -0.002 A 
HETATM   27  C   UNL     1       3.822  11.354  91.511  1.00  0.00     0.011 A 
HETATM   28  C   UNL     1       3.810  10.211  90.711  1.00  0.00    -0.002 A 
HETATM   29  C   UNL     1       4.798   9.239  90.869  1.00  0.00     0.008 A 
BRANCH  27  30
HETATM   30  C   UNL     1       2.768  12.394  91.342  1.00  0.00     0.277 C 
BRANCH  30  31
HETATM   31  N   UNL     1       3.280  13.609  90.711  1.00  0.00     0.147 N 
HETATM   32  C   UNL     1       4.121  14.367  91.648  1.00  0.00     0.283 C 
HETATM   33  C   UNL     1       4.653  15.624  90.964  1.00  0.00     0.178 C 
HETATM   34  O   UNL     1       5.397  15.277  89.794  1.00  0.00    -0.350 OA
HETATM   35  C   UNL     1       4.578  14.567  88.865  1.00  0.00     0.178 C 
HETATM   36  C   UNL     1       4.043  13.286  89.498  1.00  0.00     0.283 C 
ENDBRANCH  30  31
ENDBRANCH  27  30
ENDBRANCH  23  24
ENDBRANCH   4  22
TORSDOF 10
ENDMDL
MODEL 9
REMARK VINA RESULT:      -5.2      3.547     12.590
REMARK  10 active torsions:
REMARK  status: ('A' for Active; 'I' for Inactive)
REMARK    1  A    between atoms: O_2  and  C_16 
REMARK    2  A    between atoms: N_5  and  C_9 
REMARK    3  A    between atoms: N_6  and  C_13 
REMARK       I    between atoms: N_6  and  C_22 
REMARK    4  A    between atoms: C_9  and  C_12 
REMARK    5  A    between atoms: C_13  and  C_16 
REMARK    6  A    between atoms: C_13  and  C_21 
REMARK    7  A    between atoms: C_19  and  C_24 
REMARK    8  A    between atoms: C_22  and  C_23 
REMARK    9  A    between atoms: C_27  and  C_30 
REMARK   10  A    between atoms: N_33  and  S_34 
ROOT
HETATM    1  C   UNL     1      10.364   5.123  92.173  1.00  0.00     0.056 A 
HETATM    2  C   UNL     1       9.858   5.926  93.174  1.00  0.00     0.005 A 
HETATM    3  C   UNL     1      10.037   5.308  90.846  1.00  0.00     0.005 A 
HETATM    4  C   UNL     1       8.640   7.167  91.498  1.00  0.00     0.042 A 
HETATM    5  C   UNL     1       8.986   6.960  92.833  1.00  0.00     0.008 A 
HETATM    6  C   UNL     1       9.165   6.341  90.504  1.00  0.00     0.008 A 
ENDROOT
BRANCH   1   7
HETATM    7  C   UNL     1      11.294   4.023  92.536  1.00  0.00     0.254 C 
HETATM    8  O   UNL     1      10.925   2.859  92.409  1.00  0.00    -0.268 OA
HETATM    9  N   UNL     1      12.551   4.412  92.980  1.00  0.00    -0.337 N 
HETATM   10  HN  UNL     1      12.794   5.394  93.035  1.00  0.00     0.164 HD
BRANCH   9  11
HETATM   11  C   UNL     1      13.571   3.463  93.346  1.00  0.00     0.172 C 
BRANCH  11  12
HETATM   12  C   UNL     1      13.878   2.460  92.227  1.00  0.00     0.136 C 
HETATM   13  C   UNL     1      14.546   3.114  91.023  1.00  0.00     0.034 C 
BRANCH  12  14
HETATM   14  O   UNL     1      14.731   1.431  92.729  1.00  0.00    -0.383 OA
HETATM   15  H   UNL     1      14.360   0.572  92.467  1.00  0.00     0.210 HD
ENDBRANCH  12  14
ENDBRANCH  11  12
BRANCH  11  16
HETATM   16  C   UNL     1      14.817   4.249  93.743  1.00  0.00     0.398 A 
HETATM   17  O   UNL     1      15.307   5.128  93.037  1.00  0.00    -0.136 OA
HETATM   18  N   UNL     1      16.398   4.226  93.592  1.00  0.00     0.142 N 
HETATM   19  HN  UNL     1      16.968   4.855  93.100  1.00  0.00     0.338 HD
BRANCH  18  20
HETATM   20  S   UNL     1      16.637   2.963  94.121  1.00  0.00     0.076 SA
HETATM   21  H   UNL     1      17.775   2.644  94.241  1.00  0.00     0.136 HD
ENDBRANCH  18  20
ENDBRANCH  11  16
ENDBRANCH   9  11
ENDBRANCH   1   7
BRANCH   4  22
HETATM   22  C   UNL     1       7.743   8.225  91.149  1.00  0.00    -0.059 C 
HETATM   23  C   UNL     1       6.989   9.114  90.856  1.00  0.00    -0.059 C 
BRANCH  23  24
HETATM   24  C   UNL     1       6.092  10.173  90.507  1.00  0.00     0.042 A 
HETATM   25  C   UNL     1       4.808  10.204  91.049  1.00  0.00     0.008 A 
HETATM   26  C   UNL     1       3.933  11.235  90.708  1.00  0.00    -0.002 A 
HETATM   27  C   UNL     1       4.343  12.236  89.827  1.00  0.00     0.011 A 
HETATM   28  C   UNL     1       5.629  12.203  89.286  1.00  0.00    -0.002 A 
HETATM   29  C   UNL     1       6.503  11.172  89.627  1.00  0.00     0.008 A 
BRANCH  27  30
HETATM   30  C   UNL     1       3.408  13.339  89.465  1.00  0.00     0.277 C 
BRANCH  30  31
HETATM   31  N   UNL     1       3.196  14.274  90.568  1.00  0.00     0.147 N 
HETATM   32  C   UNL     1       2.310  13.689  91.583  1.00  0.00     0.283 C 
HETATM   33  C   UNL     1       2.112  14.678  92.729  1.00  0.00     0.178 C 
HETATM   34  O   UNL     1       3.371  15.027  93.307  1.00  0.00    -0.350 OA
HETATM   35  C   UNL     1       4.228  15.625  92.334  1.00  0.00     0.178 C 
HETATM   36  C   UNL     1       4.475  14.660  91.179  1.00  0.00     0.283 C 
ENDBRANCH  30  31
ENDBRANCH  27  30
ENDBRANCH  23  24
ENDBRANCH   4  22
TORSDOF 10
ENDMDL
