MODEL 1
REMARK VINA RESULT:      -7.1      0.000      0.000
REMARK  10 active torsions:
REMARK  status: ('A' for Active; 'I' for Inactive)
REMARK    1  A    between atoms: O_2  and  C_18 
REMARK    2  A    between atoms: O_5  and  N_8 
REMARK    3  A    between atoms: N_6  and  C_11 
REMARK    4  A    between atoms: N_7  and  C_15 
REMARK       I    between atoms: N_7  and  C_24 
REMARK       I    between atoms: N_8  and  C_23 
REMARK    5  A    between atoms: C_11  and  C_14 
REMARK    6  A    between atoms: C_15  and  C_18 
REMARK    7  A    between atoms: C_15  and  C_23 
REMARK    8  A    between atoms: C_21  and  C_26 
REMARK    9  A    between atoms: C_24  and  C_25 
REMARK   10  A    between atoms: C_29  and  C_32 
ROOT
HETATM    1  O   UNK     0      16.693   4.299  94.124  0.00  0.00    -0.388 OA
HETATM    2  N   UNK     0      14.886   2.600  92.729  0.00  0.00     0.096 N 
HETATM    3  C   UNK     0      14.725   4.060  92.724  0.00  0.00     0.299 C 
HETATM    4  C   UNK     0      15.541   2.170  93.971  0.00  0.00     0.299 C 
HETATM    5  C   UNK     0      16.085   4.730  92.905  0.00  0.00     0.198 C 
HETATM    6  C   UNK     0      16.881   2.883  94.124  0.00  0.00     0.198 C 
ENDROOT
BRANCH   2   7
HETATM    7  C   UNK     0      13.593   1.937  92.567  0.00  0.00     0.311 C 
BRANCH   7   8
HETATM    8  C   UNK     0      12.511   2.888  92.184  0.00  0.00    -0.030 A 
HETATM    9  C   UNK     0      11.886   3.663  93.162  0.00  0.00     0.010 A 
HETATM   10  C   UNK     0      10.872   4.551  92.805  0.00  0.00     0.021 A 
HETATM   11  C   UNK     0      10.485   4.666  91.470  0.00  0.00     0.018 A 
HETATM   12  C   UNK     0      11.108   3.893  90.493  0.00  0.00     0.021 A 
HETATM   13  C   UNK     0      12.122   3.004  90.849  0.00  0.00     0.010 A 
BRANCH  11  14
HETATM   14  C   UNK     0       9.446   5.579  91.104  0.00  0.00    -0.061 C 
HETATM   15  C   UNK     0       8.573   6.346  90.795  0.00  0.00    -0.061 C 
BRANCH  15  16
HETATM   16  C   UNK     0       7.537   7.259  90.429  0.00  0.00     0.018 A 
HETATM   17  C   UNK     0       7.732   8.633  90.583  0.00  0.00     0.022 A 
HETATM   18  C   UNK     0       6.721   9.524  90.224  0.00  0.00     0.018 A 
HETATM   19  C   UNK     0       5.539   9.024  89.718  0.00  0.00     0.032 A 
HETATM   20  C   UNK     0       5.322   7.672  89.556  0.00  0.00     0.018 A 
HETATM   21  C   UNK     0       6.332   6.780  89.916  0.00  0.00     0.022 A 
BRANCH  19  22
HETATM   22  C   UNK     0       4.462   9.974  89.337  0.00  0.00     0.252 C 
HETATM   23  O   UNK     0       3.713   9.690  88.406  0.00  0.00    -0.268 OA
HETATM   24  N   UNK     0       4.372  11.129  90.101  0.00  0.00    -0.341 N 
HETATM   25  H   UNK     0       5.011  11.285  90.872  0.00  0.00     0.163 HD
BRANCH  24  26
HETATM   26  C   UNK     0       3.366  12.135  89.872  0.00  0.00     0.207 C 
BRANCH  26  27
HETATM   27  C   UNK     0       2.844  12.760  91.171  0.00  0.00     0.146 C 
HETATM   28  C   UNK     0       2.240  11.726  92.115  0.00  0.00     0.042 C 
BRANCH  27  29
HETATM   29  O   UNK     0       3.911  13.431  91.841  0.00  0.00    -0.393 OA
HETATM   30  H   UNK     0       4.112  12.945  92.658  0.00  0.00     0.210 HD
ENDBRANCH  27  29
ENDBRANCH  26  27
BRANCH  26  31
HETATM   31  C   UNK     0       3.965  13.191  88.949  0.00  0.00     0.266 C 
HETATM   32  O   UNK     0       4.052  14.378  89.258  0.00  0.00    -0.269 OA
HETATM   33  N   UNK     0       4.352  12.666  87.740  0.00  0.00    -0.236 N 
HETATM   34  H   UNK     0       4.214  11.714  87.420  0.00  0.00     0.197 HD
BRANCH  33  35
HETATM   35  O   UNK     0       4.880  13.581  86.818  0.00  0.00    -0.287 OA
HETATM   36  H   UNK     0       4.951  13.014  86.031  0.00  0.00     0.244 HD
ENDBRANCH  33  35
ENDBRANCH  26  31
ENDBRANCH  24  26
ENDBRANCH  19  22
ENDBRANCH  15  16
ENDBRANCH  11  14
ENDBRANCH   7   8
ENDBRANCH   2   7
TORSDOF 10
ENDMDL
