MODEL 1
REMARK VINA RESULT:      -7.0      0.000      0.000
REMARK  10 active torsions:
REMARK  status: ('A' for Active; 'I' for Inactive)
REMARK    1  A    between atoms: O_2  and  C_18 
REMARK    2  A    between atoms: O_5  and  N_8 
REMARK    3  A    between atoms: N_6  and  C_11 
REMARK    4  A    between atoms: N_7  and  C_15 
REMARK       I    between atoms: N_7  and  C_24 
REMARK       I    between atoms: N_8  and  C_23 
REMARK    5  A    between atoms: C_11  and  C_14 
REMARK    6  A    between atoms: C_15  and  C_18 
REMARK    7  A    between atoms: C_15  and  C_23 
REMARK    8  A    between atoms: C_21  and  C_26 
REMARK    9  A    between atoms: C_24  and  C_25 
REMARK   10  A    between atoms: C_29  and  C_32 
ROOT
HETATM    1  O   UNK     0      16.490   4.256  94.116  0.00  0.00    -0.388 OA
HETATM    2  N   UNK     0      14.713   2.545  92.695  0.00  0.00     0.096 N 
HETATM    3  C   UNK     0      14.548   4.006  92.682  0.00  0.00     0.299 C 
HETATM    4  C   UNK     0      15.348   2.122  93.950  0.00  0.00     0.299 C 
HETATM    5  C   UNK     0      15.902   4.681  92.885  0.00  0.00     0.198 C 
HETATM    6  C   UNK     0      16.682   2.841  94.124  0.00  0.00     0.198 C 
ENDROOT
BRANCH   2   7
HETATM    7  C   UNK     0      13.426   1.877  92.513  0.00  0.00     0.311 C 
BRANCH   7   8
HETATM    8  C   UNK     0      12.320   2.839  92.237  0.00  0.00    -0.030 A 
HETATM    9  C   UNK     0      11.720   2.867  90.978  0.00  0.00     0.010 A 
HETATM   10  C   UNK     0      10.687   3.768  90.718  0.00  0.00     0.021 A 
HETATM   11  C   UNK     0      10.254   4.638  91.718  0.00  0.00     0.018 A 
HETATM   12  C   UNK     0      10.853   4.611  92.976  0.00  0.00     0.021 A 
HETATM   13  C   UNK     0      11.887   3.711  93.236  0.00  0.00     0.010 A 
BRANCH  11  14
HETATM   14  C   UNK     0       9.194   5.561  91.453  0.00  0.00    -0.061 C 
HETATM   15  C   UNK     0       8.302   6.336  91.230  0.00  0.00    -0.061 C 
BRANCH  15  16
HETATM   16  C   UNK     0       7.242   7.257  90.964  0.00  0.00     0.018 A 
HETATM   17  C   UNK     0       5.916   6.865  91.155  0.00  0.00     0.022 A 
HETATM   18  C   UNK     0       4.881   7.764  90.898  0.00  0.00     0.018 A 
HETATM   19  C   UNK     0       5.193   9.033  90.457  0.00  0.00     0.032 A 
HETATM   20  C   UNK     0       6.495   9.444  90.261  0.00  0.00     0.018 A 
HETATM   21  C   UNK     0       7.531   8.546  90.517  0.00  0.00     0.022 A 
BRANCH  19  22
HETATM   22  C   UNK     0       4.090   9.990  90.182  0.00  0.00     0.252 C 
HETATM   23  O   UNK     0       2.964   9.556  89.951  0.00  0.00    -0.268 OA
HETATM   24  N   UNK     0       4.425  11.335  90.233  0.00  0.00    -0.341 N 
HETATM   25  H   UNK     0       5.372  11.620  90.455  0.00  0.00     0.163 HD
BRANCH  24  26
HETATM   26  C   UNK     0       3.461  12.383  90.013  0.00  0.00     0.207 C 
BRANCH  26  27
HETATM   27  C   UNK     0       3.077  13.118  91.304  0.00  0.00     0.146 C 
HETATM   28  C   UNK     0       1.972  12.404  92.075  0.00  0.00     0.042 C 
BRANCH  27  29
HETATM   29  O   UNK     0       4.225  13.238  92.144  0.00  0.00    -0.393 OA
HETATM   30  H   UNK     0       4.153  12.579  92.855  0.00  0.00     0.210 HD
ENDBRANCH  27  29
ENDBRANCH  26  27
BRANCH  26  31
HETATM   31  C   UNK     0       4.044  13.344  88.982  0.00  0.00     0.266 C 
HETATM   32  O   UNK     0       4.146  14.554  89.176  0.00  0.00    -0.269 OA
HETATM   33  N   UNK     0       4.396  12.704  87.818  0.00  0.00    -0.236 N 
HETATM   34  H   UNK     0       4.244  11.728  87.592  0.00  0.00     0.197 HD
BRANCH  33  35
HETATM   35  O   UNK     0       4.907  13.524  86.802  0.00  0.00    -0.287 OA
HETATM   36  H   UNK     0       4.104  13.667  86.273  0.00  0.00     0.244 HD
ENDBRANCH  33  35
ENDBRANCH  26  31
ENDBRANCH  24  26
ENDBRANCH  19  22
ENDBRANCH  15  16
ENDBRANCH  11  14
ENDBRANCH   7   8
ENDBRANCH   2   7
TORSDOF 10
ENDMDL
MODEL 2
REMARK VINA RESULT:      -6.5      1.570      2.642
REMARK  10 active torsions:
REMARK  status: ('A' for Active; 'I' for Inactive)
REMARK    1  A    between atoms: O_2  and  C_18 
REMARK    2  A    between atoms: O_5  and  N_8 
REMARK    3  A    between atoms: N_6  and  C_11 
REMARK    4  A    between atoms: N_7  and  C_15 
REMARK       I    between atoms: N_7  and  C_24 
REMARK       I    between atoms: N_8  and  C_23 
REMARK    5  A    between atoms: C_11  and  C_14 
REMARK    6  A    between atoms: C_15  and  C_18 
REMARK    7  A    between atoms: C_15  and  C_23 
REMARK    8  A    between atoms: C_21  and  C_26 
REMARK    9  A    between atoms: C_24  and  C_25 
REMARK   10  A    between atoms: C_29  and  C_32 
ROOT
HETATM    1  O   UNK     0      16.787   3.527  93.791  0.00  0.00    -0.388 OA
HETATM    2  N   UNK     0      14.109   2.943  93.024  0.00  0.00     0.096 N 
HETATM    3  C   UNK     0      15.137   1.894  93.083  0.00  0.00     0.299 C 
HETATM    4  C   UNK     0      14.729   4.239  92.721  0.00  0.00     0.299 C 
HETATM    5  C   UNK     0      16.197   2.267  94.116  0.00  0.00     0.198 C 
HETATM    6  C   UNK     0      15.799   4.557  93.762  0.00  0.00     0.198 C 
ENDROOT
BRANCH   2   7
HETATM    7  C   UNK     0      13.088   2.611  92.032  0.00  0.00     0.311 C 
BRANCH   7   8
HETATM    8  C   UNK     0      12.051   3.675  91.907  0.00  0.00    -0.030 A 
HETATM    9  C   UNK     0      11.663   4.125  90.645  0.00  0.00     0.010 A 
HETATM   10  C   UNK     0      10.694   5.122  90.527  0.00  0.00     0.021 A 
HETATM   11  C   UNK     0      10.113   5.666  91.671  0.00  0.00     0.018 A 
HETATM   12  C   UNK     0      10.499   5.218  92.933  0.00  0.00     0.021 A 
HETATM   13  C   UNK     0      11.468   4.222  93.051  0.00  0.00     0.010 A 
BRANCH  11  14
HETATM   14  C   UNK     0       9.118   6.687  91.550  0.00  0.00    -0.061 C 
HETATM   15  C   UNK     0       8.281   7.545  91.448  0.00  0.00    -0.061 C 
BRANCH  15  16
HETATM   16  C   UNK     0       7.288   8.564  91.326  0.00  0.00     0.018 A 
HETATM   17  C   UNK     0       6.184   8.366  90.495  0.00  0.00     0.022 A 
HETATM   18  C   UNK     0       5.213   9.360  90.377  0.00  0.00     0.018 A 
HETATM   19  C   UNK     0       5.366  10.530  91.092  0.00  0.00     0.032 A 
HETATM   20  C   UNK     0       6.447  10.751  91.919  0.00  0.00     0.018 A 
HETATM   21  C   UNK     0       7.419   9.757  92.037  0.00  0.00     0.022 A 
BRANCH  19  22
HETATM   22  C   UNK     0       4.332  11.589  90.964  0.00  0.00     0.252 C 
HETATM   23  O   UNK     0       3.251  11.313  90.450  0.00  0.00    -0.268 OA
HETATM   24  N   UNK     0       4.672  12.835  91.473  0.00  0.00    -0.341 N 
HETATM   25  H   UNK     0       5.576  12.982  91.907  0.00  0.00     0.163 HD
BRANCH  24  26
HETATM   26  C   UNK     0       3.769  13.957  91.445  0.00  0.00     0.207 C 
BRANCH  26  27
HETATM   27  C   UNK     0       3.561  14.518  90.033  0.00  0.00     0.146 C 
HETATM   28  C   UNK     0       4.863  14.606  89.243  0.00  0.00     0.042 C 
BRANCH  27  29
HETATM   29  O   UNK     0       2.642  13.690  89.321  0.00  0.00    -0.393 OA
HETATM   30  H   UNK     0       2.300  14.196  88.564  0.00  0.00     0.210 HD
ENDBRANCH  27  29
ENDBRANCH  26  27
BRANCH  26  31
HETATM   31  C   UNK     0       2.448  13.507  92.062  0.00  0.00     0.266 C 
HETATM   32  O   UNK     0       1.354  13.891  91.655  0.00  0.00    -0.269 OA
HETATM   33  N   UNK     0       2.636  12.666  93.133  0.00  0.00    -0.236 N 
HETATM   34  H   UNK     0       3.521  12.401  93.549  0.00  0.00     0.197 HD
BRANCH  33  35
HETATM   35  O   UNK     0       1.470  12.236  93.782  0.00  0.00    -0.287 OA
HETATM   36  H   UNK     0       0.900  12.053  93.015  0.00  0.00     0.244 HD
ENDBRANCH  33  35
ENDBRANCH  26  31
ENDBRANCH  24  26
ENDBRANCH  19  22
ENDBRANCH  15  16
ENDBRANCH  11  14
ENDBRANCH   7   8
ENDBRANCH   2   7
TORSDOF 10
ENDMDL
MODEL 3
REMARK VINA RESULT:      -6.5      1.480      2.177
REMARK  10 active torsions:
REMARK  status: ('A' for Active; 'I' for Inactive)
REMARK    1  A    between atoms: O_2  and  C_18 
REMARK    2  A    between atoms: O_5  and  N_8 
REMARK    3  A    between atoms: N_6  and  C_11 
REMARK    4  A    between atoms: N_7  and  C_15 
REMARK       I    between atoms: N_7  and  C_24 
REMARK       I    between atoms: N_8  and  C_23 
REMARK    5  A    between atoms: C_11  and  C_14 
REMARK    6  A    between atoms: C_15  and  C_18 
REMARK    7  A    between atoms: C_15  and  C_23 
REMARK    8  A    between atoms: C_21  and  C_26 
REMARK    9  A    between atoms: C_24  and  C_25 
REMARK   10  A    between atoms: C_29  and  C_32 
ROOT
HETATM    1  O   UNK     0      16.549   3.248  93.649  0.00  0.00    -0.388 OA
HETATM    2  N   UNK     0      13.845   2.860  92.849  0.00  0.00     0.096 N 
HETATM    3  C   UNK     0      14.740   1.724  93.106  0.00  0.00     0.299 C 
HETATM    4  C   UNK     0      14.623   4.020  92.393  0.00  0.00     0.299 C 
HETATM    5  C   UNK     0      15.805   2.124  94.124  0.00  0.00     0.198 C 
HETATM    6  C   UNK     0      15.691   4.367  93.426  0.00  0.00     0.198 C 
ENDROOT
BRANCH   2   7
HETATM    7  C   UNK     0      12.823   2.502  91.868  0.00  0.00     0.311 C 
BRANCH   7   8
HETATM    8  C   UNK     0      11.695   3.477  91.841  0.00  0.00    -0.030 A 
HETATM    9  C   UNK     0      11.317   4.137  93.011  0.00  0.00     0.010 A 
HETATM   10  C   UNK     0      10.261   5.048  92.987  0.00  0.00     0.021 A 
HETATM   11  C   UNK     0       9.586   5.300  91.794  0.00  0.00     0.018 A 
HETATM   12  C   UNK     0       9.963   4.642  90.625  0.00  0.00     0.021 A 
HETATM   13  C   UNK     0      11.018   3.731  90.648  0.00  0.00     0.010 A 
BRANCH  11  14
HETATM   14  C   UNK     0       8.504   6.236  91.769  0.00  0.00    -0.061 C 
HETATM   15  C   UNK     0       7.594   7.023  91.749  0.00  0.00    -0.061 C 
BRANCH  15  16
HETATM   16  C   UNK     0       6.514   7.958  91.723  0.00  0.00     0.018 A 
HETATM   17  C   UNK     0       6.610   9.153  92.437  0.00  0.00     0.022 A 
HETATM   18  C   UNK     0       5.556  10.067  92.411  0.00  0.00     0.018 A 
HETATM   19  C   UNK     0       4.432   9.766  91.671  0.00  0.00     0.032 A 
HETATM   20  C   UNK     0       4.312   8.592  90.957  0.00  0.00     0.018 A 
HETATM   21  C   UNK     0       5.365   7.678  90.984  0.00  0.00     0.022 A 
BRANCH  19  22
HETATM   22  C   UNK     0       3.309  10.739  91.644  0.00  0.00     0.252 C 
HETATM   23  O   UNK     0       2.154  10.323  91.673  0.00  0.00    -0.268 OA
HETATM   24  N   UNK     0       3.667  12.080  91.613  0.00  0.00    -0.341 N 
HETATM   25  H   UNK     0       4.644  12.350  91.616  0.00  0.00     0.163 HD
BRANCH  24  26
HETATM   26  C   UNK     0       2.694  13.142  91.608  0.00  0.00     0.207 C 
BRANCH  26  27
HETATM   27  C   UNK     0       2.586  13.854  92.963  0.00  0.00     0.146 C 
HETATM   28  C   UNK     0       3.810  13.623  93.843  0.00  0.00     0.042 C 
BRANCH  27  29
HETATM   29  O   UNK     0       2.424  15.256  92.754  0.00  0.00    -0.393 OA
HETATM   30  H   UNK     0       1.510  15.495  92.984  0.00  0.00     0.210 HD
ENDBRANCH  27  29
ENDBRANCH  26  27
BRANCH  26  31
HETATM   31  C   UNK     0       3.073  14.117  90.499  0.00  0.00     0.266 C 
HETATM   32  O   UNK     0       2.278  14.500  89.642  0.00  0.00    -0.269 OA
HETATM   33  N   UNK     0       4.398  14.476  90.553  0.00  0.00    -0.236 N 
HETATM   34  H   UNK     0       5.100  14.112  91.188  0.00  0.00     0.197 HD
BRANCH  33  35
HETATM   35  O   UNK     0       4.838  15.342  89.542  0.00  0.00    -0.287 OA
HETATM   36  H   UNK     0       5.623  14.861  89.229  0.00  0.00     0.244 HD
ENDBRANCH  33  35
ENDBRANCH  26  31
ENDBRANCH  24  26
ENDBRANCH  19  22
ENDBRANCH  15  16
ENDBRANCH  11  14
ENDBRANCH   7   8
ENDBRANCH   2   7
TORSDOF 10
ENDMDL
MODEL 4
REMARK VINA RESULT:      -6.0      1.660      2.485
REMARK  10 active torsions:
REMARK  status: ('A' for Active; 'I' for Inactive)
REMARK    1  A    between atoms: O_2  and  C_18 
REMARK    2  A    between atoms: O_5  and  N_8 
REMARK    3  A    between atoms: N_6  and  C_11 
REMARK    4  A    between atoms: N_7  and  C_15 
REMARK       I    between atoms: N_7  and  C_24 
REMARK       I    between atoms: N_8  and  C_23 
REMARK    5  A    between atoms: C_11  and  C_14 
REMARK    6  A    between atoms: C_15  and  C_18 
REMARK    7  A    between atoms: C_15  and  C_23 
REMARK    8  A    between atoms: C_21  and  C_26 
REMARK    9  A    between atoms: C_24  and  C_25 
REMARK   10  A    between atoms: C_29  and  C_32 
ROOT
HETATM    1  O   UNK     0      16.157   4.045  94.049  0.00  0.00    -0.388 OA
HETATM    2  N   UNK     0      14.255   2.587  92.513  0.00  0.00     0.096 N 
HETATM    3  C   UNK     0      14.344   4.052  92.435  0.00  0.00     0.299 C 
HETATM    4  C   UNK     0      14.687   2.127  93.839  0.00  0.00     0.299 C 
HETATM    5  C   UNK     0      15.769   4.501  92.752  0.00  0.00     0.198 C 
HETATM    6  C   UNK     0      16.102   2.620  94.124  0.00  0.00     0.198 C 
ENDROOT
BRANCH   2   7
HETATM    7  C   UNK     0      12.895   2.136  92.224  0.00  0.00     0.311 C 
BRANCH   7   8
HETATM    8  C   UNK     0      11.941   3.270  92.068  0.00  0.00    -0.030 A 
HETATM    9  C   UNK     0      11.407   3.565  90.813  0.00  0.00     0.010 A 
HETATM   10  C   UNK     0      10.516   4.627  90.666  0.00  0.00     0.021 A 
HETATM   11  C   UNK     0      10.157   5.393  91.774  0.00  0.00     0.018 A 
HETATM   12  C   UNK     0      10.689   5.100  93.028  0.00  0.00     0.021 A 
HETATM   13  C   UNK     0      11.581   4.038  93.176  0.00  0.00     0.010 A 
BRANCH  11  14
HETATM   14  C   UNK     0       9.241   6.482  91.624  0.00  0.00    -0.061 C 
HETATM   15  C   UNK     0       8.471   7.397  91.498  0.00  0.00    -0.061 C 
BRANCH  15  16
HETATM   16  C   UNK     0       7.555   8.483  91.346  0.00  0.00     0.018 A 
HETATM   17  C   UNK     0       7.960   9.649  90.695  0.00  0.00     0.022 A 
HETATM   18  C   UNK     0       7.066  10.709  90.545  0.00  0.00     0.018 A 
HETATM   19  C   UNK     0       5.788  10.580  91.048  0.00  0.00     0.032 A 
HETATM   20  C   UNK     0       5.364   9.439  91.696  0.00  0.00     0.018 A 
HETATM   21  C   UNK     0       6.258   8.379  91.847  0.00  0.00     0.022 A 
BRANCH  19  22
HETATM   22  C   UNK     0       4.837  11.711  90.890  0.00  0.00     0.252 C 
HETATM   23  O   UNK     0       4.981  12.489  89.950  0.00  0.00    -0.268 OA
HETATM   24  N   UNK     0       3.819  11.785  91.831  0.00  0.00    -0.341 N 
HETATM   25  H   UNK     0       3.748  11.091  92.566  0.00  0.00     0.163 HD
BRANCH  24  26
HETATM   26  C   UNK     0       2.805  12.808  91.797  0.00  0.00     0.207 C 
BRANCH  26  27
HETATM   27  C   UNK     0       1.492  12.365  92.455  0.00  0.00     0.146 C 
HETATM   28  C   UNK     0       1.408  10.853  92.629  0.00  0.00     0.042 C 
BRANCH  27  29
HETATM   29  O   UNK     0       1.365  12.987  93.733  0.00  0.00    -0.393 OA
HETATM   30  H   UNK     0       2.233  13.341  93.988  0.00  0.00     0.210 HD
ENDBRANCH  27  29
ENDBRANCH  26  27
BRANCH  26  31
HETATM   31  C   UNK     0       3.374  14.050  92.477  0.00  0.00     0.266 C 
HETATM   32  O   UNK     0       3.081  15.194  92.135  0.00  0.00    -0.269 OA
HETATM   33  N   UNK     0       4.266  13.733  93.473  0.00  0.00    -0.236 N 
HETATM   34  H   UNK     0       4.597  12.808  93.720  0.00  0.00     0.197 HD
BRANCH  33  35
HETATM   35  O   UNK     0       4.865  14.821  94.123  0.00  0.00    -0.287 OA
HETATM   36  H   UNK     0       4.742  14.559  95.052  0.00  0.00     0.244 HD
ENDBRANCH  33  35
ENDBRANCH  26  31
ENDBRANCH  24  26
ENDBRANCH  19  22
ENDBRANCH  15  16
ENDBRANCH  11  14
ENDBRANCH   7   8
ENDBRANCH   2   7
TORSDOF 10
ENDMDL
MODEL 5
REMARK VINA RESULT:      -5.3      1.917      2.329
REMARK  10 active torsions:
REMARK  status: ('A' for Active; 'I' for Inactive)
REMARK    1  A    between atoms: O_2  and  C_18 
REMARK    2  A    between atoms: O_5  and  N_8 
REMARK    3  A    between atoms: N_6  and  C_11 
REMARK    4  A    between atoms: N_7  and  C_15 
REMARK       I    between atoms: N_7  and  C_24 
REMARK       I    between atoms: N_8  and  C_23 
REMARK    5  A    between atoms: C_11  and  C_14 
REMARK    6  A    between atoms: C_15  and  C_18 
REMARK    7  A    between atoms: C_15  and  C_23 
REMARK    8  A    between atoms: C_21  and  C_26 
REMARK    9  A    between atoms: C_24  and  C_25 
REMARK   10  A    between atoms: C_29  and  C_32 
ROOT
HETATM    1  O   UNK     0      15.998   4.160  93.257  0.00  0.00    -0.388 OA
HETATM    2  N   UNK     0      13.882   2.435  92.454  0.00  0.00     0.096 N 
HETATM    3  C   UNK     0      14.111   3.727  91.794  0.00  0.00     0.299 C 
HETATM    4  C   UNK     0      14.337   2.494  93.849  0.00  0.00     0.299 C 
HETATM    5  C   UNK     0      15.588   4.102  91.890  0.00  0.00     0.198 C 
HETATM    6  C   UNK     0      15.808   2.898  93.898  0.00  0.00     0.198 C 
ENDROOT
BRANCH   2   7
HETATM    7  C   UNK     0      12.471   2.060  92.384  0.00  0.00     0.311 C 
BRANCH   7   8
HETATM    8  C   UNK     0      11.565   3.242  92.466  0.00  0.00    -0.030 A 
HETATM    9  C   UNK     0      10.610   3.458  91.472  0.00  0.00     0.010 A 
HETATM   10  C   UNK     0       9.764   4.564  91.547  0.00  0.00     0.021 A 
HETATM   11  C   UNK     0       9.871   5.452  92.617  0.00  0.00     0.018 A 
HETATM   12  C   UNK     0      10.825   5.237  93.610  0.00  0.00     0.021 A 
HETATM   13  C   UNK     0      11.672   4.131  93.535  0.00  0.00     0.010 A 
BRANCH  11  14
HETATM   14  C   UNK     0       9.002   6.585  92.695  0.00  0.00    -0.061 C 
HETATM   15  C   UNK     0       8.271   7.538  92.761  0.00  0.00    -0.061 C 
BRANCH  15  16
HETATM   16  C   UNK     0       7.402   8.670  92.837  0.00  0.00     0.018 A 
HETATM   17  C   UNK     0       6.567   8.981  91.763  0.00  0.00     0.022 A 
HETATM   18  C   UNK     0       5.717  10.084  91.838  0.00  0.00     0.018 A 
HETATM   19  C   UNK     0       5.721  10.852  92.984  0.00  0.00     0.032 A 
HETATM   20  C   UNK     0       6.537  10.566  94.059  0.00  0.00     0.018 A 
HETATM   21  C   UNK     0       7.387   9.463  93.984  0.00  0.00     0.022 A 
BRANCH  19  22
HETATM   22  C   UNK     0       4.817  12.029  93.063  0.00  0.00     0.252 C 
HETATM   23  O   UNK     0       4.721  12.641  94.123  0.00  0.00    -0.268 OA
HETATM   24  N   UNK     0       4.154  12.365  91.891  0.00  0.00    -0.341 N 
HETATM   25  H   UNK     0       4.302  11.827  91.045  0.00  0.00     0.163 HD
BRANCH  24  26
HETATM   26  C   UNK     0       3.263  13.494  91.801  0.00  0.00     0.207 C 
BRANCH  26  27
HETATM   27  C   UNK     0       3.791  14.728  92.544  0.00  0.00     0.146 C 
HETATM   28  C   UNK     0       4.729  15.569  91.686  0.00  0.00     0.042 C 
BRANCH  27  29
HETATM   29  O   UNK     0       2.693  15.538  92.963  0.00  0.00    -0.393 OA
HETATM   30  H   UNK     0       2.888  16.461  92.727  0.00  0.00     0.210 HD
ENDBRANCH  27  29
ENDBRANCH  26  27
BRANCH  26  31
HETATM   31  C   UNK     0       3.036  13.792  90.323  0.00  0.00     0.266 C 
HETATM   32  O   UNK     0       2.183  14.581  89.922  0.00  0.00    -0.269 OA
HETATM   33  N   UNK     0       3.863  13.053  89.512  0.00  0.00    -0.236 N 
HETATM   34  H   UNK     0       4.512  12.331  89.803  0.00  0.00     0.197 HD
BRANCH  33  35
HETATM   35  O   UNK     0       3.691  13.240  88.133  0.00  0.00    -0.287 OA
HETATM   36  H   UNK     0       3.877  14.192  88.062  0.00  0.00     0.244 HD
ENDBRANCH  33  35
ENDBRANCH  26  31
ENDBRANCH  24  26
ENDBRANCH  19  22
ENDBRANCH  15  16
ENDBRANCH  11  14
ENDBRANCH   7   8
ENDBRANCH   2   7
TORSDOF 10
ENDMDL
MODEL 6
REMARK VINA RESULT:      -5.2      1.793      2.452
REMARK  10 active torsions:
REMARK  status: ('A' for Active; 'I' for Inactive)
REMARK    1  A    between atoms: O_2  and  C_18 
REMARK    2  A    between atoms: O_5  and  N_8 
REMARK    3  A    between atoms: N_6  and  C_11 
REMARK    4  A    between atoms: N_7  and  C_15 
REMARK       I    between atoms: N_7  and  C_24 
REMARK       I    between atoms: N_8  and  C_23 
REMARK    5  A    between atoms: C_11  and  C_14 
REMARK    6  A    between atoms: C_15  and  C_18 
REMARK    7  A    between atoms: C_15  and  C_23 
REMARK    8  A    between atoms: C_21  and  C_26 
REMARK    9  A    between atoms: C_24  and  C_25 
REMARK   10  A    between atoms: C_29  and  C_32 
ROOT
HETATM    1  O   UNK     0      16.526   4.127  93.064  0.00  0.00    -0.388 OA
HETATM    2  N   UNK     0      14.255   2.412  92.968  0.00  0.00     0.096 N 
HETATM    3  C   UNK     0      15.266   2.409  91.901  0.00  0.00     0.299 C 
HETATM    4  C   UNK     0      14.190   3.739  93.595  0.00  0.00     0.299 C 
HETATM    5  C   UNK     0      16.619   2.831  92.468  0.00  0.00     0.198 C 
HETATM    6  C   UNK     0      15.568   4.131  94.123  0.00  0.00     0.198 C 
ENDROOT
BRANCH   2   7
HETATM    7  C   UNK     0      12.948   2.021  92.444  0.00  0.00     0.311 C 
BRANCH   7   8
HETATM    8  C   UNK     0      12.090   3.197  92.121  0.00  0.00    -0.030 A 
HETATM    9  C   UNK     0      11.017   3.525  92.951  0.00  0.00     0.010 A 
HETATM   10  C   UNK     0      10.213   4.623  92.649  0.00  0.00     0.021 A 
HETATM   11  C   UNK     0      10.483   5.394  91.519  0.00  0.00     0.018 A 
HETATM   12  C   UNK     0      11.554   5.068  90.690  0.00  0.00     0.021 A 
HETATM   13  C   UNK     0      12.359   3.969  90.991  0.00  0.00     0.010 A 
BRANCH  11  14
HETATM   14  C   UNK     0       9.659   6.522  91.210  0.00  0.00    -0.061 C 
HETATM   15  C   UNK     0       8.966   7.471  90.952  0.00  0.00    -0.061 C 
BRANCH  15  16
HETATM   16  C   UNK     0       8.142   8.597  90.644  0.00  0.00     0.018 A 
HETATM   17  C   UNK     0       7.388   9.203  91.649  0.00  0.00     0.022 A 
HETATM   18  C   UNK     0       6.585  10.304  91.350  0.00  0.00     0.018 A 
HETATM   19  C   UNK     0       6.554  10.774  90.054  0.00  0.00     0.032 A 
HETATM   20  C   UNK     0       7.289  10.192  89.042  0.00  0.00     0.018 A 
HETATM   21  C   UNK     0       8.092   9.091  89.341  0.00  0.00     0.022 A 
BRANCH  19  22
HETATM   22  C   UNK     0       5.697  11.945  89.735  0.00  0.00     0.252 C 
HETATM   23  O   UNK     0       5.807  12.488  88.639  0.00  0.00    -0.268 OA
HETATM   24  N   UNK     0       4.798  12.327  90.721  0.00  0.00    -0.341 N 
HETATM   25  H   UNK     0       4.746  11.814  91.594  0.00  0.00     0.163 HD
BRANCH  24  26
HETATM   26  C   UNK     0       3.883  13.427  90.553  0.00  0.00     0.207 C 
BRANCH  26  27
HETATM   27  C   UNK     0       2.468  13.103  91.048  0.00  0.00     0.146 C 
HETATM   28  C   UNK     0       2.445  11.937  92.029  0.00  0.00     0.042 C 
BRANCH  27  29
HETATM   29  O   UNK     0       1.909  14.254  91.681  0.00  0.00    -0.393 OA
HETATM   30  H   UNK     0       0.968  14.080  91.853  0.00  0.00     0.210 HD
ENDBRANCH  27  29
ENDBRANCH  26  27
BRANCH  26  31
HETATM   31  C   UNK     0       4.464  14.632  91.285  0.00  0.00     0.266 C 
HETATM   32  O   UNK     0       5.081  15.529  90.714  0.00  0.00    -0.269 OA
HETATM   33  N   UNK     0       4.249  14.569  92.641  0.00  0.00    -0.236 N 
HETATM   34  H   UNK     0       3.825  13.805  93.153  0.00  0.00     0.197 HD
BRANCH  33  35
HETATM   35  O   UNK     0       4.787  15.623  93.393  0.00  0.00    -0.287 OA
HETATM   36  H   UNK     0       5.160  16.172  92.683  0.00  0.00     0.244 HD
ENDBRANCH  33  35
ENDBRANCH  26  31
ENDBRANCH  24  26
ENDBRANCH  19  22
ENDBRANCH  15  16
ENDBRANCH  11  14
ENDBRANCH   7   8
ENDBRANCH   2   7
TORSDOF 10
ENDMDL
MODEL 7
REMARK VINA RESULT:      -5.2      1.952     12.468
REMARK  10 active torsions:
REMARK  status: ('A' for Active; 'I' for Inactive)
REMARK    1  A    between atoms: O_2  and  C_18 
REMARK    2  A    between atoms: O_5  and  N_8 
REMARK    3  A    between atoms: N_6  and  C_11 
REMARK    4  A    between atoms: N_7  and  C_15 
REMARK       I    between atoms: N_7  and  C_24 
REMARK       I    between atoms: N_8  and  C_23 
REMARK    5  A    between atoms: C_11  and  C_14 
REMARK    6  A    between atoms: C_15  and  C_18 
REMARK    7  A    between atoms: C_15  and  C_23 
REMARK    8  A    between atoms: C_21  and  C_26 
REMARK    9  A    between atoms: C_24  and  C_25 
REMARK   10  A    between atoms: C_29  and  C_32 
ROOT
HETATM    1  O   UNK     0       5.325  14.351  88.567  0.00  0.00    -0.388 OA
HETATM    2  N   UNK     0       3.528  13.065  90.361  0.00  0.00     0.096 N 
HETATM    3  C   UNK     0       4.317  14.235  90.772  0.00  0.00     0.299 C 
HETATM    4  C   UNK     0       4.245  12.314  89.322  0.00  0.00     0.299 C 
HETATM    5  C   UNK     0       4.621  15.106  89.556  0.00  0.00     0.198 C 
HETATM    6  C   UNK     0       4.551  13.229  88.140  0.00  0.00     0.198 C 
ENDROOT
BRANCH   2   7
HETATM    7  C   UNK     0       3.234  12.210  91.510  0.00  0.00     0.311 C 
BRANCH   7   8
HETATM    8  C   UNK     0       4.273  11.162  91.719  0.00  0.00    -0.030 A 
HETATM    9  C   UNK     0       5.424  11.459  92.450  0.00  0.00     0.010 A 
HETATM   10  C   UNK     0       6.398  10.480  92.644  0.00  0.00     0.021 A 
HETATM   11  C   UNK     0       6.220   9.204  92.110  0.00  0.00     0.018 A 
HETATM   12  C   UNK     0       5.071   8.907  91.380  0.00  0.00     0.021 A 
HETATM   13  C   UNK     0       4.097   9.885  91.185  0.00  0.00     0.010 A 
BRANCH  11  14
HETATM   14  C   UNK     0       7.218   8.199  92.311  0.00  0.00    -0.061 C 
HETATM   15  C   UNK     0       8.057   7.355  92.480  0.00  0.00    -0.061 C 
BRANCH  15  16
HETATM   16  C   UNK     0       9.053   6.350  92.682  0.00  0.00     0.018 A 
HETATM   17  C   UNK     0       9.235   5.348  91.728  0.00  0.00     0.022 A 
HETATM   18  C   UNK     0      10.209   4.369  91.923  0.00  0.00     0.018 A 
HETATM   19  C   UNK     0      10.979   4.413  93.067  0.00  0.00     0.032 A 
HETATM   20  C   UNK     0      10.819   5.392  94.025  0.00  0.00     0.018 A 
HETATM   21  C   UNK     0       9.845   6.371  93.830  0.00  0.00     0.022 A 
BRANCH  19  22
HETATM   22  C   UNK     0      12.015   3.368  93.275  0.00  0.00     0.252 C 
HETATM   23  O   UNK     0      11.762   2.204  92.975  0.00  0.00    -0.268 OA
HETATM   24  N   UNK     0      13.228   3.808  93.786  0.00  0.00    -0.341 N 
HETATM   25  H   UNK     0      13.374   4.791  93.988  0.00  0.00     0.163 HD
BRANCH  24  26
HETATM   26  C   UNK     0      14.338   2.920  94.021  0.00  0.00     0.207 C 
BRANCH  26  27
HETATM   27  C   UNK     0      14.362   1.731  93.053  0.00  0.00     0.146 C 
HETATM   28  C   UNK     0      15.091   2.050  91.752  0.00  0.00     0.042 C 
BRANCH  27  29
HETATM   29  O   UNK     0      15.000   0.618  93.680  0.00  0.00    -0.393 OA
HETATM   30  H   UNK     0      15.687   0.958  94.277  0.00  0.00     0.210 HD
ENDBRANCH  27  29
ENDBRANCH  26  27
BRANCH  26  31
HETATM   31  C   UNK     0      15.620   3.741  93.922  0.00  0.00     0.266 C 
HETATM   32  O   UNK     0      15.625   4.952  93.709  0.00  0.00    -0.269 OA
HETATM   33  N   UNK     0      16.745   2.965  94.058  0.00  0.00    -0.236 N 
HETATM   34  H   UNK     0      16.780   1.956  94.145  0.00  0.00     0.197 HD
BRANCH  33  35
HETATM   35  O   UNK     0      17.969   3.639  93.942  0.00  0.00    -0.287 OA
HETATM   36  H   UNK     0      18.448   3.263  94.700  0.00  0.00     0.244 HD
ENDBRANCH  33  35
ENDBRANCH  26  31
ENDBRANCH  24  26
ENDBRANCH  19  22
ENDBRANCH  15  16
ENDBRANCH  11  14
ENDBRANCH   7   8
ENDBRANCH   2   7
TORSDOF 10
ENDMDL
MODEL 8
REMARK VINA RESULT:      -5.1      1.988     12.456
REMARK  10 active torsions:
REMARK  status: ('A' for Active; 'I' for Inactive)
REMARK    1  A    between atoms: O_2  and  C_18 
REMARK    2  A    between atoms: O_5  and  N_8 
REMARK    3  A    between atoms: N_6  and  C_11 
REMARK    4  A    between atoms: N_7  and  C_15 
REMARK       I    between atoms: N_7  and  C_24 
REMARK       I    between atoms: N_8  and  C_23 
REMARK    5  A    between atoms: C_11  and  C_14 
REMARK    6  A    between atoms: C_15  and  C_18 
REMARK    7  A    between atoms: C_15  and  C_23 
REMARK    8  A    between atoms: C_21  and  C_26 
REMARK    9  A    between atoms: C_24  and  C_25 
REMARK   10  A    between atoms: C_29  and  C_32 
ROOT
HETATM    1  O   UNK     0       3.492  14.321  92.292  0.00  0.00    -0.388 OA
HETATM    2  N   UNK     0       3.615  13.283  89.644  0.00  0.00     0.096 N 
HETATM    3  C   UNK     0       2.864  12.597  90.704  0.00  0.00     0.299 C 
HETATM    4  C   UNK     0       4.733  14.036  90.226  0.00  0.00     0.299 C 
HETATM    5  C   UNK     0       2.383  13.612  91.738  0.00  0.00     0.198 C 
HETATM    6  C   UNK     0       4.210  15.017  91.271  0.00  0.00     0.198 C 
ENDROOT
BRANCH   2   7
HETATM    7  C   UNK     0       4.094  12.328  88.648  0.00  0.00     0.311 C 
BRANCH   7   8
HETATM    8  C   UNK     0       5.045  11.335  89.224  0.00  0.00    -0.030 A 
HETATM    9  C   UNK     0       6.414  11.606  89.236  0.00  0.00     0.010 A 
HETATM   10  C   UNK     0       7.304  10.677  89.774  0.00  0.00     0.021 A 
HETATM   11  C   UNK     0       6.826   9.478  90.301  0.00  0.00     0.018 A 
HETATM   12  C   UNK     0       5.459   9.206  90.290  0.00  0.00     0.021 A 
HETATM   13  C   UNK     0       4.568  10.134  89.752  0.00  0.00     0.010 A 
BRANCH  11  14
HETATM   14  C   UNK     0       7.739   8.526  90.854  0.00  0.00    -0.061 C 
HETATM   15  C   UNK     0       8.507   7.726  91.319  0.00  0.00    -0.061 C 
BRANCH  15  16
HETATM   16  C   UNK     0       9.419   6.774  91.871  0.00  0.00     0.018 A 
HETATM   17  C   UNK     0       9.753   6.834  93.225  0.00  0.00     0.022 A 
HETATM   18  C   UNK     0      10.641   5.904  93.765  0.00  0.00     0.018 A 
HETATM   19  C   UNK     0      11.174   4.935  92.941  0.00  0.00     0.032 A 
HETATM   20  C   UNK     0      10.861   4.855  91.600  0.00  0.00     0.018 A 
HETATM   21  C   UNK     0       9.973   5.785  91.059  0.00  0.00     0.022 A 
BRANCH  19  22
HETATM   22  C   UNK     0      12.122   3.946  93.516  0.00  0.00     0.252 C 
HETATM   23  O   UNK     0      11.679   2.973  94.122  0.00  0.00    -0.268 OA
HETATM   24  N   UNK     0      13.469   4.195  93.296  0.00  0.00    -0.341 N 
HETATM   25  H   UNK     0      13.760   5.007  92.765  0.00  0.00     0.163 HD
BRANCH  24  26
HETATM   26  C   UNK     0      14.508   3.316  93.770  0.00  0.00     0.207 C 
BRANCH  26  27
HETATM   27  C   UNK     0      14.594   2.012  92.967  0.00  0.00     0.146 C 
HETATM   28  C   UNK     0      14.778   0.789  93.858  0.00  0.00     0.042 C 
BRANCH  27  29
HETATM   29  O   UNK     0      13.405   1.848  92.194  0.00  0.00    -0.393 OA
HETATM   30  H   UNK     0      13.662   1.632  91.282  0.00  0.00     0.210 HD
ENDBRANCH  27  29
ENDBRANCH  26  27
BRANCH  26  31
HETATM   31  C   UNK     0      15.825   4.084  93.724  0.00  0.00     0.266 C 
HETATM   32  O   UNK     0      15.884   5.305  93.595  0.00  0.00    -0.269 OA
HETATM   33  N   UNK     0      16.915   3.251  93.803  0.00  0.00    -0.236 N 
HETATM   34  H   UNK     0      16.904   2.237  93.819  0.00  0.00     0.197 HD
BRANCH  33  35
HETATM   35  O   UNK     0      18.167   3.876  93.728  0.00  0.00    -0.287 OA
HETATM   36  H   UNK     0      18.741   3.154  94.037  0.00  0.00     0.244 HD
ENDBRANCH  33  35
ENDBRANCH  26  31
ENDBRANCH  24  26
ENDBRANCH  19  22
ENDBRANCH  15  16
ENDBRANCH  11  14
ENDBRANCH   7   8
ENDBRANCH   2   7
TORSDOF 10
ENDMDL
MODEL 9
REMARK VINA RESULT:      -5.0      2.171     12.473
REMARK  10 active torsions:
REMARK  status: ('A' for Active; 'I' for Inactive)
REMARK    1  A    between atoms: O_2  and  C_18 
REMARK    2  A    between atoms: O_5  and  N_8 
REMARK    3  A    between atoms: N_6  and  C_11 
REMARK    4  A    between atoms: N_7  and  C_15 
REMARK       I    between atoms: N_7  and  C_24 
REMARK       I    between atoms: N_8  and  C_23 
REMARK    5  A    between atoms: C_11  and  C_14 
REMARK    6  A    between atoms: C_15  and  C_18 
REMARK    7  A    between atoms: C_15  and  C_23 
REMARK    8  A    between atoms: C_21  and  C_26 
REMARK    9  A    between atoms: C_24  and  C_25 
REMARK   10  A    between atoms: C_29  and  C_32 
ROOT
HETATM    1  O   UNK     0       3.118  14.147  93.204  0.00  0.00    -0.388 OA
HETATM    2  N   UNK     0       3.378  13.541  90.435  0.00  0.00     0.096 N 
HETATM    3  C   UNK     0       2.322  12.934  91.258  0.00  0.00     0.299 C 
HETATM    4  C   UNK     0       4.548  13.852  91.266  0.00  0.00     0.299 C 
HETATM    5  C   UNK     0       1.963  13.870  92.409  0.00  0.00     0.198 C 
HETATM    6  C   UNK     0       4.137  14.765  92.418  0.00  0.00     0.198 C 
ENDROOT
BRANCH   2   7
HETATM    7  C   UNK     0       3.746  12.657  89.330  0.00  0.00     0.311 C 
BRANCH   7   8
HETATM    8  C   UNK     0       4.698  11.590  89.750  0.00  0.00    -0.030 A 
HETATM    9  C   UNK     0       4.217  10.415  90.330  0.00  0.00     0.010 A 
HETATM   10  C   UNK     0       5.107   9.417  90.726  0.00  0.00     0.021 A 
HETATM   11  C   UNK     0       6.478   9.593  90.539  0.00  0.00     0.018 A 
HETATM   12  C   UNK     0       6.960  10.765  89.960  0.00  0.00     0.021 A 
HETATM   13  C   UNK     0       6.070  11.764  89.565  0.00  0.00     0.010 A 
BRANCH  11  14
HETATM   14  C   UNK     0       7.391   8.568  90.942  0.00  0.00    -0.061 C 
HETATM   15  C   UNK     0       8.158   7.707  91.281  0.00  0.00    -0.061 C 
BRANCH  15  16
HETATM   16  C   UNK     0       9.069   6.682  91.684  0.00  0.00     0.018 A 
HETATM   17  C   UNK     0       9.658   5.857  90.725  0.00  0.00     0.022 A 
HETATM   18  C   UNK     0      10.549   4.858  91.117  0.00  0.00     0.018 A 
HETATM   19  C   UNK     0      10.832   4.706  92.459  0.00  0.00     0.032 A 
HETATM   20  C   UNK     0      10.263   5.508  93.426  0.00  0.00     0.018 A 
HETATM   21  C   UNK     0       9.372   6.507  93.034  0.00  0.00     0.022 A 
BRANCH  19  22
HETATM   22  C   UNK     0      11.779   3.641  92.876  0.00  0.00     0.252 C 
HETATM   23  O   UNK     0      11.453   2.463  92.746  0.00  0.00    -0.268 OA
HETATM   24  N   UNK     0      13.001   4.074  93.372  0.00  0.00    -0.341 N 
HETATM   25  H   UNK     0      13.211   5.064  93.427  0.00  0.00     0.163 HD
BRANCH  24  26
HETATM   26  C   UNK     0      14.034   3.162  93.795  0.00  0.00     0.207 C 
BRANCH  26  27
HETATM   27  C   UNK     0      14.128   1.917  92.904  0.00  0.00     0.146 C 
HETATM   28  C   UNK     0      14.961   2.157  91.651  0.00  0.00     0.042 C 
BRANCH  27  29
HETATM   29  O   UNK     0      14.705   0.842  93.646  0.00  0.00    -0.393 OA
HETATM   30  H   UNK     0      15.663   0.995  93.708  0.00  0.00     0.210 HD
ENDBRANCH  27  29
ENDBRANCH  26  27
BRANCH  26  31
HETATM   31  C   UNK     0      15.352   3.929  93.817  0.00  0.00     0.266 C 
HETATM   32  O   UNK     0      15.434   5.128  93.556  0.00  0.00    -0.269 OA
HETATM   33  N   UNK     0      16.419   3.118  94.120  0.00  0.00    -0.236 N 
HETATM   34  H   UNK     0      16.400   2.114  94.252  0.00  0.00     0.197 HD
BRANCH  33  35
HETATM   35  O   UNK     0      17.676   3.740  94.124  0.00  0.00    -0.287 OA
HETATM   36  H   UNK     0      17.845   3.785  95.080  0.00  0.00     0.244 HD
ENDBRANCH  33  35
ENDBRANCH  26  31
ENDBRANCH  24  26
ENDBRANCH  19  22
ENDBRANCH  15  16
ENDBRANCH  11  14
ENDBRANCH   7   8
ENDBRANCH   2   7
TORSDOF 10
ENDMDL
