MODEL 1
REMARK VINA RESULT:      -6.4      0.000      0.000
REMARK  14 active torsions:
REMARK  status: ('A' for Active; 'I' for Inactive)
REMARK    1  A    between atoms: O_2  and  C_18 
REMARK    2  A    between atoms: C_5  and  C_8 
REMARK    3  A    between atoms: C_5  and  O_35 
REMARK    4  A    between atoms: C_5  and  C_36 
REMARK    5  A    between atoms: N_6  and  C_11 
REMARK    6  A    between atoms: N_7  and  C_15 
REMARK       I    between atoms: N_7  and  C_24 
REMARK    7  A    between atoms: C_8  and  C_23 
REMARK    8  A    between atoms: C_11  and  C_14 
REMARK    9  A    between atoms: C_15  and  C_18 
REMARK   10  A    between atoms: C_15  and  C_23 
REMARK   11  A    between atoms: C_21  and  C_26 
REMARK   12  A    between atoms: C_24  and  C_25 
REMARK   13  A    between atoms: C_29  and  C_32 
REMARK   14  A    between atoms: C_36  and  O_39 
ROOT
HETATM    1  O   UNL     1      16.494   3.128  93.422  1.00  0.00    -0.350 OA
HETATM    2  N   UNL     1      13.744   2.748  92.790  1.00  0.00     0.147 N 
HETATM    3  C   UNL     1      14.592   1.632  93.232  1.00  0.00     0.283 C 
HETATM    4  C   UNL     1      14.560   3.756  92.099  1.00  0.00     0.283 C 
HETATM    5  C   UNL     1      15.715   2.157  94.124  1.00  0.00     0.178 C 
HETATM    6  C   UNL     1      15.683   4.231  93.016  1.00  0.00     0.178 C 
ENDROOT
BRANCH   2   7
HETATM    7  C   UNL     1      12.667   2.268  91.926  1.00  0.00     0.277 C 
BRANCH   7   8
HETATM    8  C   UNL     1      11.564   3.262  91.789  1.00  0.00     0.011 A 
HETATM    9  C   UNL     1      11.452   4.309  92.705  1.00  0.00    -0.002 A 
HETATM   10  C   UNL     1      10.419   5.237  92.580  1.00  0.00     0.008 A 
HETATM   11  C   UNL     1       9.500   5.119  91.538  1.00  0.00     0.042 A 
HETATM   12  C   UNL     1       9.610   4.074  90.623  1.00  0.00     0.008 A 
HETATM   13  C   UNL     1      10.643   3.145  90.748  1.00  0.00    -0.002 A 
BRANCH  11  14
HETATM   14  C   UNL     1       8.441   6.073  91.408  1.00  0.00    -0.059 C 
HETATM   15  C   UNL     1       7.552   6.875  91.299  1.00  0.00    -0.059 C 
BRANCH  15  16
HETATM   16  C   UNL     1       6.494   7.828  91.168  1.00  0.00     0.042 A 
HETATM   17  C   UNL     1       6.024   8.177  89.902  1.00  0.00     0.008 A 
HETATM   18  C   UNL     1       4.990   9.105  89.775  1.00  0.00     0.005 A 
HETATM   19  C   UNL     1       4.450   9.661  90.916  1.00  0.00     0.056 A 
HETATM   20  C   UNL     1       4.897   9.333  92.178  1.00  0.00     0.005 A 
HETATM   21  C   UNL     1       5.931   8.405  92.307  1.00  0.00     0.008 A 
BRANCH  19  22
HETATM   22  C   UNL     1       3.350  10.651  90.780  1.00  0.00     0.254 C 
HETATM   23  O   UNL     1       2.541  10.527  89.864  1.00  0.00    -0.268 OA
HETATM   24  N   UNL     1       3.310  11.652  91.741  1.00  0.00    -0.335 N 
HETATM   25  HN  UNL     1       3.998  11.676  92.485  1.00  0.00     0.164 HD
BRANCH  24  26
HETATM   26  C   UNL     1       2.291  12.670  91.759  1.00  0.00     0.169 C 
BRANCH  26  27
HETATM   27  C   UNL     1       1.689  12.884  93.154  1.00  0.00     0.138 C 
HETATM   28  C   UNL     1       1.480  11.574  93.906  1.00  0.00     0.034 C 
BRANCH  27  29
HETATM   29  O   UNL     1       2.549  13.726  93.920  1.00  0.00    -0.383 OA
HETATM   30  H   UNL     1       2.026  14.476  94.251  1.00  0.00     0.210 HD
ENDBRANCH  27  29
ENDBRANCH  26  27
BRANCH  26  31
HETATM   31  C   UNL     1       2.907  13.956  91.218  1.00  0.00     0.194 C 
HETATM   32  O   UNL     1       3.240  14.894  91.940  1.00  0.00    -0.289 OA
BRANCH  31  33
HETATM   33  C   UNL     1       3.006  13.948  89.848  1.00  0.00     0.053 C 
BRANCH  33  34
HETATM   34  C   UNL     1       4.309  13.929  89.330  1.00  0.00     0.220 C 
BRANCH  34  35
HETATM   35  O   UNL     1       5.100  13.934  90.292  1.00  0.00    -0.371 OA
HETATM   36  H   UNL     1       5.894  14.108  89.809  1.00  0.00     0.211 HD
ENDBRANCH  34  35
BRANCH  34  37
HETATM   37  C   UNL     1       4.546  12.861  88.448  1.00  0.00     0.185 C 
HETATM   38  O   UNL     1       5.675  12.757  89.133  1.00  0.00    -0.647 OA
BRANCH  37  39
HETATM   39  O   UNL     1       3.994  12.357  87.517  1.00  0.00    -0.774 OA
HETATM   40  H   UNL     1       4.712  11.747  86.885  1.00  0.00     0.167 HD
ENDBRANCH  37  39
ENDBRANCH  34  37
ENDBRANCH  33  34
ENDBRANCH  31  33
ENDBRANCH  26  31
ENDBRANCH  24  26
ENDBRANCH  19  22
ENDBRANCH  15  16
ENDBRANCH  11  14
ENDBRANCH   7   8
ENDBRANCH   2   7
TORSDOF 14
ENDMDL
