MODEL 1
REMARK VINA RESULT:      -7.0      0.000      0.000
REMARK  10 active torsions:
REMARK  status: ('A' for Active; 'I' for Inactive)
REMARK    1  A    between atoms: O_2  and  C_16 
REMARK    2  A    between atoms: N_5  and  C_9 
REMARK    3  A    between atoms: N_6  and  C_13 
REMARK       I    between atoms: N_6  and  C_22 
REMARK    4  A    between atoms: C_9  and  C_12 
REMARK    5  A    between atoms: C_13  and  C_16 
REMARK    6  A    between atoms: C_13  and  C_21 
REMARK    7  A    between atoms: C_19  and  C_24 
REMARK    8  A    between atoms: C_22  and  C_23 
REMARK    9  A    between atoms: C_27  and  C_30 
REMARK   10  A    between atoms: N_33  and  S_34 
ROOT
HETATM    1  C   UNL     1       4.811   9.908  90.074  1.00  0.00     0.056 A 
HETATM    2  C   UNL     1       5.328   9.214  88.999  1.00  0.00     0.005 A 
HETATM    3  C   UNL     1       5.248   9.697  91.365  1.00  0.00     0.005 A 
HETATM    4  C   UNL     1       6.784   8.034  90.522  1.00  0.00     0.042 A 
HETATM    5  C   UNL     1       6.326   8.266  89.225  1.00  0.00     0.008 A 
HETATM    6  C   UNL     1       6.246   8.749  91.592  1.00  0.00     0.008 A 
ENDROOT
BRANCH   1   7
HETATM    7  C   UNL     1       3.750  10.919  89.832  1.00  0.00     0.254 C 
HETATM    8  O   UNL     1       2.835  10.655  89.056  1.00  0.00    -0.268 OA
HETATM    9  N   UNL     1       3.868  12.106  90.542  1.00  0.00    -0.337 N 
HETATM   10  HN  UNL     1       4.638  12.244  91.185  1.00  0.00     0.164 HD
BRANCH   9  11
HETATM   11  C   UNL     1       2.905  13.173  90.434  1.00  0.00     0.172 C 
BRANCH  11  12
HETATM   12  C   UNL     1       2.391  13.649  91.798  1.00  0.00     0.136 C 
HETATM   13  C   UNL     1       1.221  12.814  92.305  1.00  0.00     0.034 C 
BRANCH  12  14
HETATM   14  O   UNL     1       3.450  13.591  92.754  1.00  0.00    -0.383 OA
HETATM   15  H   UNL     1       3.064  13.403  93.626  1.00  0.00     0.210 HD
ENDBRANCH  12  14
ENDBRANCH  11  12
BRANCH  11  16
HETATM   16  C   UNL     1       3.558  14.313  89.659  1.00  0.00     0.398 A 
HETATM   17  O   UNL     1       4.272  14.130  88.675  1.00  0.00    -0.136 OA
HETATM   18  N   UNL     1       4.898  15.163  89.598  1.00  0.00     0.142 N 
HETATM   19  HN  UNL     1       5.574  15.178  88.887  1.00  0.00     0.338 HD
BRANCH  18  20
HETATM   20  S   UNL     1       4.909  15.624  90.909  1.00  0.00     0.076 SA
HETATM   21  H   UNL     1       4.021  15.257  91.608  1.00  0.00     0.136 HD
ENDBRANCH  18  20
ENDBRANCH  11  16
ENDBRANCH   9  11
ENDBRANCH   1   7
BRANCH   4  22
HETATM   22  C   UNL     1       7.805   7.061  90.755  1.00  0.00    -0.059 C 
HETATM   23  C   UNL     1       8.664   6.242  90.950  1.00  0.00    -0.059 C 
BRANCH  23  24
HETATM   24  C   UNL     1       9.686   5.268  91.181  1.00  0.00     0.042 A 
HETATM   25  C   UNL     1      10.342   4.677  90.102  1.00  0.00     0.008 A 
HETATM   26  C   UNL     1      11.337   3.726  90.328  1.00  0.00    -0.002 A 
HETATM   27  C   UNL     1      11.676   3.368  91.633  1.00  0.00     0.011 A 
HETATM   28  C   UNL     1      11.019   3.960  92.711  1.00  0.00    -0.002 A 
HETATM   29  C   UNL     1      10.023   4.910  92.485  1.00  0.00     0.008 A 
BRANCH  27  30
HETATM   30  C   UNL     1      12.741   2.353  91.873  1.00  0.00     0.277 C 
BRANCH  30  31
HETATM   31  N   UNL     1      13.732   2.805  92.848  1.00  0.00     0.147 N 
HETATM   32  C   UNL     1      14.721   1.750  93.113  1.00  0.00     0.283 C 
HETATM   33  C   UNL     1      15.750   2.249  94.124  1.00  0.00     0.178 C 
HETATM   34  O   UNL     1      16.395   3.427  93.637  1.00  0.00    -0.350 OA
HETATM   35  C   UNL     1      15.445   4.467  93.406  1.00  0.00     0.178 C 
HETATM   36  C   UNL     1      14.408   4.023  92.380  1.00  0.00     0.283 C 
ENDBRANCH  30  31
ENDBRANCH  27  30
ENDBRANCH  23  24
ENDBRANCH   4  22
TORSDOF 10
ENDMDL
MODEL 2
REMARK VINA RESULT:      -6.6      1.532      2.445
REMARK  10 active torsions:
REMARK  status: ('A' for Active; 'I' for Inactive)
REMARK    1  A    between atoms: O_2  and  C_16 
REMARK    2  A    between atoms: N_5  and  C_9 
REMARK    3  A    between atoms: N_6  and  C_13 
REMARK       I    between atoms: N_6  and  C_22 
REMARK    4  A    between atoms: C_9  and  C_12 
REMARK    5  A    between atoms: C_13  and  C_16 
REMARK    6  A    between atoms: C_13  and  C_21 
REMARK    7  A    between atoms: C_19  and  C_24 
REMARK    8  A    between atoms: C_22  and  C_23 
REMARK    9  A    between atoms: C_27  and  C_30 
REMARK   10  A    between atoms: N_33  and  S_34 
ROOT
HETATM    1  C   UNL     1       5.422  10.385  91.006  1.00  0.00     0.056 A 
HETATM    2  C   UNL     1       6.605  10.704  91.639  1.00  0.00     0.005 A 
HETATM    3  C   UNL     1       5.164   9.119  90.523  1.00  0.00     0.005 A 
HETATM    4  C   UNL     1       7.338   8.426  91.317  1.00  0.00     0.042 A 
HETATM    5  C   UNL     1       7.575   9.714  91.796  1.00  0.00     0.008 A 
HETATM    6  C   UNL     1       6.133   8.127  90.680  1.00  0.00     0.008 A 
ENDROOT
BRANCH   1   7
HETATM    7  C   UNL     1       4.389  11.440  90.840  1.00  0.00     0.254 C 
HETATM    8  O   UNL     1       3.391  11.201  90.165  1.00  0.00    -0.268 OA
HETATM    9  N   UNL     1       4.631  12.636  91.500  1.00  0.00    -0.337 N 
HETATM   10  HN  UNL     1       5.467  12.753  92.061  1.00  0.00     0.164 HD
BRANCH   9  11
HETATM   11  C   UNL     1       3.712  13.745  91.456  1.00  0.00     0.172 C 
BRANCH  11  12
HETATM   12  C   UNL     1       3.703  14.456  90.097  1.00  0.00     0.136 C 
HETATM   13  C   UNL     1       5.073  14.450  89.426  1.00  0.00     0.034 C 
BRANCH  12  14
HETATM   14  O   UNL     1       2.761  13.821  89.232  1.00  0.00    -0.383 OA
HETATM   15  H   UNL     1       2.564  12.940  89.591  1.00  0.00     0.210 HD
ENDBRANCH  12  14
ENDBRANCH  11  12
BRANCH  11  16
HETATM   16  C   UNL     1       2.327  13.217  91.814  1.00  0.00     0.398 A 
HETATM   17  O   UNL     1       1.337  13.941  91.908  1.00  0.00    -0.136 OA
HETATM   18  N   UNL     1       1.383  12.958  93.066  1.00  0.00     0.142 N 
HETATM   19  HN  UNL     1       0.542  13.408  93.294  1.00  0.00     0.338 HD
BRANCH  18  20
HETATM   20  S   UNL     1       2.235  12.139  93.798  1.00  0.00     0.076 SA
HETATM   21  H   UNL     1       2.594  12.553  94.853  1.00  0.00     0.136 HD
ENDBRANCH  18  20
ENDBRANCH  11  16
ENDBRANCH   9  11
ENDBRANCH   1   7
BRANCH   4  22
HETATM   22  C   UNL     1       8.333   7.411  91.476  1.00  0.00    -0.059 C 
HETATM   23  C   UNL     1       9.169   6.557  91.610  1.00  0.00    -0.059 C 
BRANCH  23  24
HETATM   24  C   UNL     1      10.164   5.541  91.769  1.00  0.00     0.042 A 
HETATM   25  C   UNL     1      10.480   5.070  93.043  1.00  0.00     0.008 A 
HETATM   26  C   UNL     1      11.451   4.081  93.198  1.00  0.00    -0.002 A 
HETATM   27  C   UNL     1      12.104   3.563  92.079  1.00  0.00     0.011 A 
HETATM   28  C   UNL     1      11.786   4.035  90.805  1.00  0.00    -0.002 A 
HETATM   29  C   UNL     1      10.815   5.025  90.651  1.00  0.00     0.008 A 
BRANCH  27  30
HETATM   30  C   UNL     1      13.140   2.504  92.246  1.00  0.00     0.277 C 
BRANCH  30  31
HETATM   31  N   UNL     1      14.195   2.900  93.177  1.00  0.00     0.147 N 
HETATM   32  C   UNL     1      15.301   1.931  93.153  1.00  0.00     0.283 C 
HETATM   33  C   UNL     1      16.394   2.370  94.124  1.00  0.00     0.178 C 
HETATM   34  O   UNL     1      16.866   3.675  93.784  1.00  0.00    -0.350 OA
HETATM   35  C   UNL     1      15.804   4.628  93.835  1.00  0.00     0.178 C 
HETATM   36  C   UNL     1      14.697   4.244  92.859  1.00  0.00     0.283 C 
ENDBRANCH  30  31
ENDBRANCH  27  30
ENDBRANCH  23  24
ENDBRANCH   4  22
TORSDOF 10
ENDMDL
MODEL 3
REMARK VINA RESULT:      -6.4      1.243      1.766
REMARK  10 active torsions:
REMARK  status: ('A' for Active; 'I' for Inactive)
REMARK    1  A    between atoms: O_2  and  C_16 
REMARK    2  A    between atoms: N_5  and  C_9 
REMARK    3  A    between atoms: N_6  and  C_13 
REMARK       I    between atoms: N_6  and  C_22 
REMARK    4  A    between atoms: C_9  and  C_12 
REMARK    5  A    between atoms: C_13  and  C_16 
REMARK    6  A    between atoms: C_13  and  C_21 
REMARK    7  A    between atoms: C_19  and  C_24 
REMARK    8  A    between atoms: C_22  and  C_23 
REMARK    9  A    between atoms: C_27  and  C_30 
REMARK   10  A    between atoms: N_33  and  S_34 
ROOT
HETATM    1  C   UNL     1       4.447   9.998  91.573  1.00  0.00     0.056 A 
HETATM    2  C   UNL     1       4.278   8.853  92.324  1.00  0.00     0.005 A 
HETATM    3  C   UNL     1       5.598  10.244  90.855  1.00  0.00     0.005 A 
HETATM    4  C   UNL     1       6.482   8.138  91.641  1.00  0.00     0.042 A 
HETATM    5  C   UNL     1       5.307   7.912  92.359  1.00  0.00     0.008 A 
HETATM    6  C   UNL     1       6.628   9.304  90.889  1.00  0.00     0.008 A 
ENDROOT
BRANCH   1   7
HETATM    7  C   UNL     1       3.350  10.999  91.535  1.00  0.00     0.254 C 
HETATM    8  O   UNL     1       2.224  10.643  91.195  1.00  0.00    -0.268 OA
HETATM    9  N   UNL     1       3.690  12.289  91.921  1.00  0.00    -0.337 N 
HETATM   10  HN  UNL     1       4.635  12.504  92.214  1.00  0.00     0.164 HD
BRANCH   9  11
HETATM   11  C   UNL     1       2.732  13.364  91.961  1.00  0.00     0.172 C 
BRANCH  11  12
HETATM   12  C   UNL     1       2.895  14.259  93.195  1.00  0.00     0.136 C 
HETATM   13  C   UNL     1       4.078  13.847  94.063  1.00  0.00     0.034 C 
BRANCH  12  14
HETATM   14  O   UNL     1       3.072  15.614  92.783  1.00  0.00    -0.383 OA
HETATM   15  H   UNL     1       2.197  15.991  92.591  1.00  0.00     0.210 HD
ENDBRANCH  12  14
ENDBRANCH  11  12
BRANCH  11  16
HETATM   16  C   UNL     1       2.878  14.166  90.671  1.00  0.00     0.398 A 
HETATM   17  O   UNL     1       2.170  13.981  89.684  1.00  0.00    -0.136 OA
HETATM   18  N   UNL     1       3.624  14.135  89.269  1.00  0.00     0.142 N 
HETATM   19  HN  UNL     1       3.231  14.029  88.377  1.00  0.00     0.338 HD
BRANCH  18  20
HETATM   20  S   UNL     1       4.931  14.039  89.734  1.00  0.00     0.076 SA
HETATM   21  H   UNL     1       5.759  13.742  88.935  1.00  0.00     0.136 HD
ENDBRANCH  18  20
ENDBRANCH  11  16
ENDBRANCH   9  11
ENDBRANCH   1   7
BRANCH   4  22
HETATM   22  C   UNL     1       7.538   7.175  91.678  1.00  0.00    -0.059 C 
HETATM   23  C   UNL     1       8.426   6.365  91.711  1.00  0.00    -0.059 C 
BRANCH  23  24
HETATM   24  C   UNL     1       9.482   5.400  91.749  1.00  0.00     0.042 A 
HETATM   25  C   UNL     1      10.164   5.163  92.942  1.00  0.00     0.008 A 
HETATM   26  C   UNL     1      11.195   4.224  92.979  1.00  0.00    -0.002 A 
HETATM   27  C   UNL     1      11.542   3.522  91.823  1.00  0.00     0.011 A 
HETATM   28  C   UNL     1      10.858   3.761  90.631  1.00  0.00    -0.002 A 
HETATM   29  C   UNL     1       9.827   4.700  90.595  1.00  0.00     0.008 A 
BRANCH  27  30
HETATM   30  C   UNL     1      12.642   2.518  91.865  1.00  0.00     0.277 C 
BRANCH  30  31
HETATM   31  N   UNL     1      13.687   2.875  92.822  1.00  0.00     0.147 N 
HETATM   32  C   UNL     1      14.530   1.712  93.131  1.00  0.00     0.283 C 
HETATM   33  C   UNL     1      15.620   2.112  94.123  1.00  0.00     0.178 C 
HETATM   34  O   UNL     1      16.412   3.175  93.590  1.00  0.00    -0.350 OA
HETATM   35  C   UNL     1      15.605   4.320  93.315  1.00  0.00     0.178 C 
HETATM   36  C   UNL     1      14.515   3.974  92.306  1.00  0.00     0.283 C 
ENDBRANCH  30  31
ENDBRANCH  27  30
ENDBRANCH  23  24
ENDBRANCH   4  22
TORSDOF 10
ENDMDL
MODEL 4
REMARK VINA RESULT:      -5.5      3.699     12.349
REMARK  10 active torsions:
REMARK  status: ('A' for Active; 'I' for Inactive)
REMARK    1  A    between atoms: O_2  and  C_16 
REMARK    2  A    between atoms: N_5  and  C_9 
REMARK    3  A    between atoms: N_6  and  C_13 
REMARK       I    between atoms: N_6  and  C_22 
REMARK    4  A    between atoms: C_9  and  C_12 
REMARK    5  A    between atoms: C_13  and  C_16 
REMARK    6  A    between atoms: C_13  and  C_21 
REMARK    7  A    between atoms: C_19  and  C_24 
REMARK    8  A    between atoms: C_22  and  C_23 
REMARK    9  A    between atoms: C_27  and  C_30 
REMARK   10  A    between atoms: N_33  and  S_34 
ROOT
HETATM    1  C   UNL     1      10.091   5.711  89.869  1.00  0.00     0.056 A 
HETATM    2  C   UNL     1       9.798   6.364  88.691  1.00  0.00     0.005 A 
HETATM    3  C   UNL     1       9.497   6.050  91.066  1.00  0.00     0.005 A 
HETATM    4  C   UNL     1       8.254   7.766  89.908  1.00  0.00     0.042 A 
HETATM    5  C   UNL     1       8.869   7.404  88.709  1.00  0.00     0.008 A 
HETATM    6  C   UNL     1       8.567   7.090  91.086  1.00  0.00     0.008 A 
ENDROOT
BRANCH   1   7
HETATM    7  C   UNL     1      11.080   4.601  89.848  1.00  0.00     0.254 C 
HETATM    8  O   UNL     1      11.217   3.939  88.823  1.00  0.00    -0.268 OA
HETATM    9  N   UNL     1      11.807   4.413  91.016  1.00  0.00    -0.337 N 
HETATM   10  HN  UNL     1      11.658   5.016  91.816  1.00  0.00     0.164 HD
BRANCH   9  11
HETATM   11  C   UNL     1      12.819   3.395  91.143  1.00  0.00     0.172 C 
BRANCH  11  12
HETATM   12  C   UNL     1      14.243   3.963  91.089  1.00  0.00     0.136 C 
HETATM   13  C   UNL     1      15.217   3.029  90.379  1.00  0.00     0.034 C 
BRANCH  12  14
HETATM   14  O   UNL     1      14.230   5.220  90.412  1.00  0.00    -0.383 OA
HETATM   15  H   UNL     1      13.837   5.882  91.006  1.00  0.00     0.210 HD
ENDBRANCH  12  14
ENDBRANCH  11  12
BRANCH  11  16
HETATM   16  C   UNL     1      12.569   2.651  92.451  1.00  0.00     0.398 A 
HETATM   17  O   UNL     1      11.617   2.896  93.189  1.00  0.00    -0.136 OA
HETATM   18  N   UNL     1      12.889   2.731  94.005  1.00  0.00     0.142 N 
HETATM   19  HN  UNL     1      12.264   2.886  94.744  1.00  0.00     0.338 HD
BRANCH  18  20
HETATM   20  S   UNL     1      14.276   2.777  93.926  1.00  0.00     0.076 SA
HETATM   21  H   UNL     1      14.814   3.644  94.536  1.00  0.00     0.136 HD
ENDBRANCH  18  20
ENDBRANCH  11  16
ENDBRANCH   9  11
ENDBRANCH   1   7
BRANCH   4  22
HETATM   22  C   UNL     1       7.303   8.834  89.928  1.00  0.00    -0.059 C 
HETATM   23  C   UNL     1       6.504   9.732  89.944  1.00  0.00    -0.059 C 
BRANCH  23  24
HETATM   24  C   UNL     1       5.552  10.801  89.963  1.00  0.00     0.042 A 
HETATM   25  C   UNL     1       5.880  12.035  89.402  1.00  0.00     0.008 A 
HETATM   26  C   UNL     1       4.953  13.077  89.422  1.00  0.00    -0.002 A 
HETATM   27  C   UNL     1       3.698  12.883  90.002  1.00  0.00     0.011 A 
HETATM   28  C   UNL     1       3.373  11.648  90.563  1.00  0.00    -0.002 A 
HETATM   29  C   UNL     1       4.300  10.606  90.543  1.00  0.00     0.008 A 
BRANCH  27  30
HETATM   30  C   UNL     1       2.708  13.997  90.022  1.00  0.00     0.277 C 
BRANCH  30  31
HETATM   31  N   UNL     1       2.698  14.712  91.297  1.00  0.00     0.147 N 
HETATM   32  C   UNL     1       1.800  14.054  92.256  1.00  0.00     0.283 C 
HETATM   33  C   UNL     1       1.815  14.810  93.581  1.00  0.00     0.178 C 
HETATM   34  O   UNL     1       3.143  14.872  94.104  1.00  0.00    -0.350 OA
HETATM   35  C   UNL     1       4.016  15.538  93.191  1.00  0.00     0.178 C 
HETATM   36  C   UNL     1       4.054  14.800  91.857  1.00  0.00     0.283 C 
ENDBRANCH  30  31
ENDBRANCH  27  30
ENDBRANCH  23  24
ENDBRANCH   4  22
TORSDOF 10
ENDMDL
MODEL 5
REMARK VINA RESULT:      -5.3      3.666     12.527
REMARK  10 active torsions:
REMARK  status: ('A' for Active; 'I' for Inactive)
REMARK    1  A    between atoms: O_2  and  C_16 
REMARK    2  A    between atoms: N_5  and  C_9 
REMARK    3  A    between atoms: N_6  and  C_13 
REMARK       I    between atoms: N_6  and  C_22 
REMARK    4  A    between atoms: C_9  and  C_12 
REMARK    5  A    between atoms: C_13  and  C_16 
REMARK    6  A    between atoms: C_13  and  C_21 
REMARK    7  A    between atoms: C_19  and  C_24 
REMARK    8  A    between atoms: C_22  and  C_23 
REMARK    9  A    between atoms: C_27  and  C_30 
REMARK   10  A    between atoms: N_33  and  S_34 
ROOT
HETATM    1  C   UNL     1      10.330   5.034  92.237  1.00  0.00     0.056 A 
HETATM    2  C   UNL     1       9.894   5.885  93.231  1.00  0.00     0.005 A 
HETATM    3  C   UNL     1       9.928   5.169  90.925  1.00  0.00     0.005 A 
HETATM    4  C   UNL     1       8.595   7.075  91.579  1.00  0.00     0.042 A 
HETATM    5  C   UNL     1       9.017   6.917  92.899  1.00  0.00     0.008 A 
HETATM    6  C   UNL     1       9.051   6.201  90.591  1.00  0.00     0.008 A 
ENDROOT
BRANCH   1   7
HETATM    7  C   UNL     1      11.266   3.936  92.591  1.00  0.00     0.254 C 
HETATM    8  O   UNL     1      10.871   2.773  92.547  1.00  0.00    -0.268 OA
HETATM    9  N   UNL     1      12.555   4.322  92.930  1.00  0.00    -0.337 N 
HETATM   10  HN  UNL     1      12.817   5.301  92.920  1.00  0.00     0.164 HD
BRANCH   9  11
HETATM   11  C   UNL     1      13.584   3.373  93.273  1.00  0.00     0.172 C 
BRANCH  11  12
HETATM   12  C   UNL     1      13.963   2.458  92.102  1.00  0.00     0.136 C 
HETATM   13  C   UNL     1      14.401   3.240  90.869  1.00  0.00     0.034 C 
BRANCH  12  14
HETATM   14  O   UNL     1      15.022   1.587  92.500  1.00  0.00    -0.383 OA
HETATM   15  H   UNL     1      15.667   1.541  91.774  1.00  0.00     0.210 HD
ENDBRANCH  12  14
ENDBRANCH  11  12
BRANCH  11  16
HETATM   16  C   UNL     1      14.791   4.157  93.778  1.00  0.00     0.398 A 
HETATM   17  O   UNL     1      15.281   5.102  93.162  1.00  0.00    -0.136 OA
HETATM   18  N   UNL     1      16.377   4.188  93.686  1.00  0.00     0.142 N 
HETATM   19  HN  UNL     1      16.946   4.868  93.266  1.00  0.00     0.338 HD
BRANCH  18  20
HETATM   20  S   UNL     1      16.633   2.893  94.124  1.00  0.00     0.076 SA
HETATM   21  H   UNL     1      16.681   2.730  95.300  1.00  0.00     0.136 HD
ENDBRANCH  18  20
ENDBRANCH  11  16
ENDBRANCH   9  11
ENDBRANCH   1   7
BRANCH   4  22
HETATM   22  C   UNL     1       7.694   8.131  91.238  1.00  0.00    -0.059 C 
HETATM   23  C   UNL     1       6.935   9.018  90.952  1.00  0.00    -0.059 C 
BRANCH  23  24
HETATM   24  C   UNL     1       6.032  10.075  90.613  1.00  0.00     0.042 A 
HETATM   25  C   UNL     1       6.370  10.984  89.611  1.00  0.00     0.008 A 
HETATM   26  C   UNL     1       5.492  12.016  89.281  1.00  0.00    -0.002 A 
HETATM   27  C   UNL     1       4.274  12.137  89.952  1.00  0.00     0.011 A 
HETATM   28  C   UNL     1       3.938  11.226  90.954  1.00  0.00    -0.002 A 
HETATM   29  C   UNL     1       4.817  10.195  91.284  1.00  0.00     0.008 A 
BRANCH  27  30
HETATM   30  C   UNL     1       3.335  13.238  89.597  1.00  0.00     0.277 C 
BRANCH  30  31
HETATM   31  N   UNL     1       3.227  14.241  90.656  1.00  0.00     0.147 N 
HETATM   32  C   UNL     1       2.358  13.762  91.739  1.00  0.00     0.283 C 
HETATM   33  C   UNL     1       2.269  14.819  92.837  1.00  0.00     0.178 C 
HETATM   34  O   UNL     1       3.571  15.125  93.339  1.00  0.00    -0.350 OA
HETATM   35  C   UNL     1       4.413  15.621  92.298  1.00  0.00     0.178 C 
HETATM   36  C   UNL     1       4.553  14.584  91.188  1.00  0.00     0.283 C 
ENDBRANCH  30  31
ENDBRANCH  27  30
ENDBRANCH  23  24
ENDBRANCH   4  22
TORSDOF 10
ENDMDL
MODEL 6
REMARK VINA RESULT:      -4.7      2.486      3.246
REMARK  10 active torsions:
REMARK  status: ('A' for Active; 'I' for Inactive)
REMARK    1  A    between atoms: O_2  and  C_16 
REMARK    2  A    between atoms: N_5  and  C_9 
REMARK    3  A    between atoms: N_6  and  C_13 
REMARK       I    between atoms: N_6  and  C_22 
REMARK    4  A    between atoms: C_9  and  C_12 
REMARK    5  A    between atoms: C_13  and  C_16 
REMARK    6  A    between atoms: C_13  and  C_21 
REMARK    7  A    between atoms: C_19  and  C_24 
REMARK    8  A    between atoms: C_22  and  C_23 
REMARK    9  A    between atoms: C_27  and  C_30 
REMARK   10  A    between atoms: N_33  and  S_34 
ROOT
HETATM    1  C   UNL     1       6.350   7.698  88.307  1.00  0.00     0.056 A 
HETATM    2  C   UNL     1       6.019   6.493  88.890  1.00  0.00     0.005 A 
HETATM    3  C   UNL     1       7.623   8.225  88.376  1.00  0.00     0.005 A 
HETATM    4  C   UNL     1       8.300   6.294  89.660  1.00  0.00     0.042 A 
HETATM    5  C   UNL     1       7.005   5.782  89.575  1.00  0.00     0.008 A 
HETATM    6  C   UNL     1       8.609   7.515  89.061  1.00  0.00     0.008 A 
ENDROOT
BRANCH   1   7
HETATM    7  C   UNL     1       5.301   8.454  87.575  1.00  0.00     0.254 C 
HETATM    8  O   UNL     1       5.228   8.350  86.353  1.00  0.00    -0.268 OA
HETATM    9  N   UNL     1       4.447   9.220  88.357  1.00  0.00    -0.337 N 
HETATM   10  HN  UNL     1       4.552   9.238  89.364  1.00  0.00     0.164 HD
BRANCH   9  11
HETATM   11  C   UNL     1       3.365   9.990  87.797  1.00  0.00     0.172 C 
BRANCH  11  12
HETATM   12  C   UNL     1       2.018   9.694  88.468  1.00  0.00     0.136 C 
HETATM   13  C   UNL     1       1.325   8.473  87.872  1.00  0.00     0.034 C 
BRANCH  12  14
HETATM   14  O   UNL     1       2.217   9.478  89.865  1.00  0.00    -0.383 OA
HETATM   15  H   UNL     1       1.357   9.559  90.311  1.00  0.00     0.210 HD
ENDBRANCH  12  14
ENDBRANCH  11  12
BRANCH  11  16
HETATM   16  C   UNL     1       3.732  11.465  87.918  1.00  0.00     0.398 A 
HETATM   17  O   UNL     1       4.880  11.855  88.121  1.00  0.00    -0.136 OA
HETATM   18  N   UNL     1       3.900  12.618  88.998  1.00  0.00     0.142 N 
HETATM   19  HN  UNL     1       4.724  13.074  89.273  1.00  0.00     0.338 HD
BRANCH  18  20
HETATM   20  S   UNL     1       2.630  12.559  89.560  1.00  0.00     0.076 SA
HETATM   21  H   UNL     1       1.764  12.127  88.870  1.00  0.00     0.136 HD
ENDBRANCH  18  20
ENDBRANCH  11  16
ENDBRANCH   9  11
ENDBRANCH   1   7
BRANCH   4  22
HETATM   22  C   UNL     1       9.309   5.567  90.365  1.00  0.00    -0.059 C 
HETATM   23  C   UNL     1      10.158   4.955  90.957  1.00  0.00    -0.059 C 
BRANCH  23  24
HETATM   24  C   UNL     1      11.169   4.227  91.661  1.00  0.00     0.042 A 
HETATM   25  C   UNL     1      11.008   3.948  93.018  1.00  0.00     0.008 A 
HETATM   26  C   UNL     1      11.994   3.240  93.705  1.00  0.00    -0.002 A 
HETATM   27  C   UNL     1      13.139   2.810  93.034  1.00  0.00     0.011 A 
HETATM   28  C   UNL     1      13.298   3.090  91.677  1.00  0.00    -0.002 A 
HETATM   29  C   UNL     1      12.312   3.799  90.991  1.00  0.00     0.008 A 
BRANCH  27  30
HETATM   30  C   UNL     1      14.192   2.052  93.770  1.00  0.00     0.277 C 
BRANCH  30  31
HETATM   31  N   UNL     1      15.341   2.887  94.114  1.00  0.00     0.147 N 
HETATM   32  C   UNL     1      16.553   2.409  93.433  1.00  0.00     0.283 C 
HETATM   33  C   UNL     1      17.737   3.302  93.799  1.00  0.00     0.178 C 
HETATM   34  O   UNL     1      17.465   4.658  93.442  1.00  0.00    -0.350 OA
HETATM   35  C   UNL     1      16.307   5.139  94.124  1.00  0.00     0.178 C 
HETATM   36  C   UNL     1      15.090   4.292  93.767  1.00  0.00     0.283 C 
ENDBRANCH  30  31
ENDBRANCH  27  30
ENDBRANCH  23  24
ENDBRANCH   4  22
TORSDOF 10
ENDMDL
MODEL 7
REMARK VINA RESULT:      -4.1      3.623     12.478
REMARK  10 active torsions:
REMARK  status: ('A' for Active; 'I' for Inactive)
REMARK    1  A    between atoms: O_2  and  C_16 
REMARK    2  A    between atoms: N_5  and  C_9 
REMARK    3  A    between atoms: N_6  and  C_13 
REMARK       I    between atoms: N_6  and  C_22 
REMARK    4  A    between atoms: C_9  and  C_12 
REMARK    5  A    between atoms: C_13  and  C_16 
REMARK    6  A    between atoms: C_13  and  C_21 
REMARK    7  A    between atoms: C_19  and  C_24 
REMARK    8  A    between atoms: C_22  and  C_23 
REMARK    9  A    between atoms: C_27  and  C_30 
REMARK   10  A    between atoms: N_33  and  S_34 
ROOT
HETATM    1  C   UNL     1      10.628   4.852  92.499  1.00  0.00     0.056 A 
HETATM    2  C   UNL     1      10.781   5.436  91.259  1.00  0.00     0.005 A 
HETATM    3  C   UNL     1       9.584   5.174  93.341  1.00  0.00     0.005 A 
HETATM    4  C   UNL     1       8.784   6.730  91.675  1.00  0.00     0.042 A 
HETATM    5  C   UNL     1       9.849   6.386  90.841  1.00  0.00     0.008 A 
HETATM    6  C   UNL     1       8.651   6.124  92.924  1.00  0.00     0.008 A 
ENDROOT
BRANCH   1   7
HETATM    7  C   UNL     1      11.620   3.839  92.942  1.00  0.00     0.254 C 
HETATM    8  O   UNL     1      11.313   2.649  92.919  1.00  0.00    -0.268 OA
HETATM    9  N   UNL     1      12.857   4.330  93.335  1.00  0.00    -0.337 N 
HETATM   10  HN  UNL     1      13.047   5.325  93.304  1.00  0.00     0.164 HD
BRANCH   9  11
HETATM   11  C   UNL     1      13.931   3.472  93.767  1.00  0.00     0.172 C 
BRANCH  11  12
HETATM   12  C   UNL     1      14.187   2.308  92.801  1.00  0.00     0.136 C 
HETATM   13  C   UNL     1      14.823   2.765  91.492  1.00  0.00     0.034 C 
BRANCH  12  14
HETATM   14  O   UNL     1      15.043   1.351  93.423  1.00  0.00    -0.383 OA
HETATM   15  H   UNL     1      15.199   1.632  94.340  1.00  0.00     0.210 HD
ENDBRANCH  12  14
ENDBRANCH  11  12
BRANCH  11  16
HETATM   16  C   UNL     1      15.177   4.335  93.938  1.00  0.00     0.398 A 
HETATM   17  O   UNL     1      15.517   5.189  93.122  1.00  0.00    -0.136 OA
HETATM   18  N   UNL     1      16.720   4.373  93.565  1.00  0.00     0.142 N 
HETATM   19  HN  UNL     1      17.182   4.995  92.962  1.00  0.00     0.338 HD
BRANCH  18  20
HETATM   20  S   UNL     1      17.097   3.157  94.123  1.00  0.00     0.076 SA
HETATM   21  H   UNL     1      16.894   2.186  93.468  1.00  0.00     0.136 HD
ENDBRANCH  18  20
ENDBRANCH  11  16
ENDBRANCH   9  11
ENDBRANCH   1   7
BRANCH   4  22
HETATM   22  C   UNL     1       7.830   7.706  91.249  1.00  0.00    -0.059 C 
HETATM   23  C   UNL     1       7.028   8.527  90.891  1.00  0.00    -0.059 C 
BRANCH  23  24
HETATM   24  C   UNL     1       6.074   9.504  90.464  1.00  0.00     0.042 A 
HETATM   25  C   UNL     1       5.923  10.690  91.182  1.00  0.00     0.008 A 
HETATM   26  C   UNL     1       4.992  11.641  90.768  1.00  0.00    -0.002 A 
HETATM   27  C   UNL     1       4.213  11.408  89.633  1.00  0.00     0.011 A 
HETATM   28  C   UNL     1       4.366  10.221  88.915  1.00  0.00    -0.002 A 
HETATM   29  C   UNL     1       5.297   9.270  89.331  1.00  0.00     0.008 A 
BRANCH  27  30
HETATM   30  C   UNL     1       3.220  12.427  89.189  1.00  0.00     0.277 C 
BRANCH  30  31
HETATM   31  N   UNL     1       3.458  13.736  89.794  1.00  0.00     0.147 N 
HETATM   32  C   UNL     1       3.339  13.664  91.257  1.00  0.00     0.283 C 
HETATM   33  C   UNL     1       3.602  15.039  91.866  1.00  0.00     0.178 C 
HETATM   34  O   UNL     1       4.899  15.508  91.493  1.00  0.00    -0.350 OA
HETATM   35  C   UNL     1       5.012  15.611  90.073  1.00  0.00     0.178 C 
HETATM   36  C   UNL     1       4.783  14.251  89.421  1.00  0.00     0.283 C 
ENDBRANCH  30  31
ENDBRANCH  27  30
ENDBRANCH  23  24
ENDBRANCH   4  22
TORSDOF 10
ENDMDL
