MODEL 1
REMARK VINA RESULT:      -7.0      0.000      0.000
REMARK  14 active torsions:
REMARK  status: ('A' for Active; 'I' for Inactive)
REMARK    1  A    between atoms: O_2  and  C_18 
REMARK    2  A    between atoms: C_5  and  C_8 
REMARK    3  A    between atoms: C_5  and  O_35 
REMARK    4  A    between atoms: C_5  and  C_36 
REMARK    5  A    between atoms: N_6  and  C_11 
REMARK    6  A    between atoms: N_7  and  C_15 
REMARK       I    between atoms: N_7  and  C_24 
REMARK    7  A    between atoms: C_8  and  C_23 
REMARK    8  A    between atoms: C_11  and  C_14 
REMARK    9  A    between atoms: C_15  and  C_18 
REMARK   10  A    between atoms: C_15  and  C_23 
REMARK   11  A    between atoms: C_21  and  C_26 
REMARK   12  A    between atoms: C_24  and  C_25 
REMARK   13  A    between atoms: C_29  and  C_32 
REMARK   14  A    between atoms: C_36  and  O_39 
ROOT
HETATM    1  O   UNL     1      16.105   4.302  93.990  1.00  0.00    -0.350 OA
HETATM    2  N   UNL     1      14.296   2.676  92.511  1.00  0.00     0.147 N 
HETATM    3  C   UNL     1      14.297   4.139  92.379  1.00  0.00     0.283 C 
HETATM    4  C   UNL     1      14.754   2.291  93.854  1.00  0.00     0.283 C 
HETATM    5  C   UNL     1      15.692   4.684  92.677  1.00  0.00     0.178 C 
HETATM    6  C   UNL     1      16.136   2.880  94.118  1.00  0.00     0.178 C 
ENDROOT
BRANCH   2   7
HETATM    7  C   UNL     1      12.966   2.132  92.240  1.00  0.00     0.277 C 
BRANCH   7   8
HETATM    8  C   UNL     1      11.932   3.199  92.114  1.00  0.00     0.011 A 
HETATM    9  C   UNL     1      11.560   3.945  93.233  1.00  0.00    -0.002 A 
HETATM   10  C   UNL     1      10.591   4.941  93.116  1.00  0.00     0.008 A 
HETATM   11  C   UNL     1       9.996   5.192  91.880  1.00  0.00     0.042 A 
HETATM   12  C   UNL     1      10.367   4.448  90.762  1.00  0.00     0.008 A 
HETATM   13  C   UNL     1      11.336   3.451  90.878  1.00  0.00    -0.002 A 
BRANCH  11  14
HETATM   14  C   UNL     1       9.004   6.216  91.759  1.00  0.00    -0.059 C 
HETATM   15  C   UNL     1       8.170   7.076  91.659  1.00  0.00    -0.059 C 
BRANCH  15  16
HETATM   16  C   UNL     1       7.178   8.099  91.540  1.00  0.00     0.042 A 
HETATM   17  C   UNL     1       7.565   9.434  91.426  1.00  0.00     0.008 A 
HETATM   18  C   UNL     1       6.597  10.432  91.307  1.00  0.00     0.005 A 
HETATM   19  C   UNL     1       5.266  10.072  91.303  1.00  0.00     0.056 A 
HETATM   20  C   UNL     1       4.858   8.759  91.415  1.00  0.00     0.005 A 
HETATM   21  C   UNL     1       5.825   7.761  91.534  1.00  0.00     0.008 A 
BRANCH  19  22
HETATM   22  C   UNL     1       4.236  11.135  91.179  1.00  0.00     0.254 C 
HETATM   23  O   UNL     1       3.119  10.842  90.759  1.00  0.00    -0.268 OA
HETATM   24  N   UNL     1       4.622  12.406  91.581  1.00  0.00    -0.335 N 
HETATM   25  HN  UNL     1       5.555  12.569  91.941  1.00  0.00     0.164 HD
BRANCH  24  26
HETATM   26  C   UNL     1       3.729  13.537  91.543  1.00  0.00     0.169 C 
BRANCH  26  27
HETATM   27  C   UNL     1       3.438  14.110  92.935  1.00  0.00     0.138 C 
HETATM   28  C   UNL     1       4.506  13.734  93.957  1.00  0.00     0.034 C 
BRANCH  27  29
HETATM   29  O   UNL     1       3.353  15.533  92.857  1.00  0.00    -0.383 OA
HETATM   30  H   UNL     1       3.224  15.780  91.926  1.00  0.00     0.210 HD
ENDBRANCH  27  29
ENDBRANCH  26  27
BRANCH  26  31
HETATM   31  C   UNL     1       4.347  14.588  90.628  1.00  0.00     0.194 C 
HETATM   32  O   UNL     1       5.140  15.440  91.026  1.00  0.00    -0.289 OA
BRANCH  31  33
HETATM   33  C   UNL     1       3.885  14.490  89.338  1.00  0.00     0.053 C 
BRANCH  33  34
HETATM   34  C   UNL     1       4.764  13.901  88.418  1.00  0.00     0.220 C 
BRANCH  34  35
HETATM   35  O   UNL     1       5.920  14.024  88.865  1.00  0.00    -0.371 OA
HETATM   36  H   UNL     1       5.769  14.774  89.420  1.00  0.00     0.211 HD
ENDBRANCH  34  35
BRANCH  34  37
HETATM   37  C   UNL     1       4.447  12.566  88.116  1.00  0.00     0.185 C 
HETATM   38  O   UNL     1       5.711  12.358  88.448  1.00  0.00    -0.647 OA
BRANCH  37  39
HETATM   39  O   UNL     1       3.499  11.963  87.711  1.00  0.00    -0.774 OA
HETATM   40  H   UNL     1       3.774  11.281  86.847  1.00  0.00     0.167 HD
ENDBRANCH  37  39
ENDBRANCH  34  37
ENDBRANCH  33  34
ENDBRANCH  31  33
ENDBRANCH  26  31
ENDBRANCH  24  26
ENDBRANCH  19  22
ENDBRANCH  15  16
ENDBRANCH  11  14
ENDBRANCH   7   8
ENDBRANCH   2   7
TORSDOF 14
ENDMDL
MODEL 2
REMARK VINA RESULT:      -5.0      2.597     12.823
REMARK  14 active torsions:
REMARK  status: ('A' for Active; 'I' for Inactive)
REMARK    1  A    between atoms: O_2  and  C_18 
REMARK    2  A    between atoms: C_5  and  C_8 
REMARK    3  A    between atoms: C_5  and  O_35 
REMARK    4  A    between atoms: C_5  and  C_36 
REMARK    5  A    between atoms: N_6  and  C_11 
REMARK    6  A    between atoms: N_7  and  C_15 
REMARK       I    between atoms: N_7  and  C_24 
REMARK    7  A    between atoms: C_8  and  C_23 
REMARK    8  A    between atoms: C_11  and  C_14 
REMARK    9  A    between atoms: C_15  and  C_18 
REMARK   10  A    between atoms: C_15  and  C_23 
REMARK   11  A    between atoms: C_21  and  C_26 
REMARK   12  A    between atoms: C_24  and  C_25 
REMARK   13  A    between atoms: C_29  and  C_32 
REMARK   14  A    between atoms: C_36  and  O_39 
ROOT
HETATM    1  O   UNL     1       2.597  14.915  93.747  1.00  0.00    -0.350 OA
HETATM    2  N   UNL     1       2.182  14.382  90.982  1.00  0.00     0.147 N 
HETATM    3  C   UNL     1       1.417  13.680  92.022  1.00  0.00     0.283 C 
HETATM    4  C   UNL     1       3.501  14.768  91.500  1.00  0.00     0.283 C 
HETATM    5  C   UNL     1       1.300  14.564  93.262  1.00  0.00     0.178 C 
HETATM    6  C   UNL     1       3.335  15.625  92.751  1.00  0.00     0.178 C 
ENDROOT
BRANCH   2   7
HETATM    7  C   UNL     1       2.316  13.549  89.788  1.00  0.00     0.277 C 
BRANCH   7   8
HETATM    8  C   UNL     1       3.292  12.438  89.977  1.00  0.00     0.011 A 
HETATM    9  C   UNL     1       4.622  12.606  89.589  1.00  0.00    -0.002 A 
HETATM   10  C   UNL     1       5.536  11.567  89.763  1.00  0.00     0.008 A 
HETATM   11  C   UNL     1       5.120  10.362  90.328  1.00  0.00     0.042 A 
HETATM   12  C   UNL     1       3.793  10.193  90.717  1.00  0.00     0.008 A 
HETATM   13  C   UNL     1       2.878  11.232  90.542  1.00  0.00    -0.002 A 
BRANCH  11  14
HETATM   14  C   UNL     1       6.058   9.297  90.509  1.00  0.00    -0.059 C 
HETATM   15  C   UNL     1       6.847   8.402  90.661  1.00  0.00    -0.059 C 
BRANCH  15  16
HETATM   16  C   UNL     1       7.785   7.338  90.843  1.00  0.00     0.042 A 
HETATM   17  C   UNL     1       9.028   7.391  90.211  1.00  0.00     0.008 A 
HETATM   18  C   UNL     1       9.944   6.354  90.391  1.00  0.00     0.005 A 
HETATM   19  C   UNL     1       9.597   5.290  91.197  1.00  0.00     0.056 A 
HETATM   20  C   UNL     1       8.375   5.215  91.832  1.00  0.00     0.005 A 
HETATM   21  C   UNL     1       7.458   6.251  91.653  1.00  0.00     0.008 A 
BRANCH  19  22
HETATM   22  C   UNL     1      10.573   4.185  91.386  1.00  0.00     0.254 C 
HETATM   23  O   UNL     1      10.185   3.022  91.303  1.00  0.00    -0.268 OA
HETATM   24  N   UNL     1      11.885   4.567  91.625  1.00  0.00    -0.335 N 
HETATM   25  HN  UNL     1      12.136   5.548  91.655  1.00  0.00     0.164 HD
BRANCH  24  26
HETATM   26  C   UNL     1      12.950   3.613  91.805  1.00  0.00     0.169 C 
BRANCH  26  27
HETATM   27  C   UNL     1      14.265   4.062  91.155  1.00  0.00     0.138 C 
HETATM   28  C   UNL     1      14.836   3.012  90.208  1.00  0.00     0.034 C 
BRANCH  27  29
HETATM   29  O   UNL     1      14.050   5.272  90.429  1.00  0.00    -0.383 OA
HETATM   30  H   UNL     1      14.917   5.645  90.195  1.00  0.00     0.210 HD
ENDBRANCH  27  29
ENDBRANCH  26  27
BRANCH  26  31
HETATM   31  C   UNL     1      13.122   3.384  93.303  1.00  0.00     0.194 C 
HETATM   32  O   UNL     1      12.289   2.798  93.991  1.00  0.00    -0.289 OA
BRANCH  31  33
HETATM   33  C   UNL     1      14.284   3.940  93.783  1.00  0.00     0.053 C 
BRANCH  33  34
HETATM   34  C   UNL     1      15.298   3.034  94.123  1.00  0.00     0.220 C 
BRANCH  34  35
HETATM   35  O   UNL     1      15.076   1.969  93.517  1.00  0.00    -0.371 OA
HETATM   36  H   UNL     1      14.872   1.430  94.267  1.00  0.00     0.211 HD
ENDBRANCH  34  35
BRANCH  34  37
HETATM   37  C   UNL     1      16.592   3.526  93.881  1.00  0.00     0.185 C 
HETATM   38  O   UNL     1      15.951   4.669  93.697  1.00  0.00    -0.647 OA
BRANCH  37  39
HETATM   39  O   UNL     1      17.700   3.082  93.829  1.00  0.00    -0.774 OA
HETATM   40  H   UNL     1      18.103   3.088  92.768  1.00  0.00     0.167 HD
ENDBRANCH  37  39
ENDBRANCH  34  37
ENDBRANCH  33  34
ENDBRANCH  31  33
ENDBRANCH  26  31
ENDBRANCH  24  26
ENDBRANCH  19  22
ENDBRANCH  15  16
ENDBRANCH  11  14
ENDBRANCH   7   8
ENDBRANCH   2   7
TORSDOF 14
ENDMDL
MODEL 3
REMARK VINA RESULT:      -5.0      1.340      1.771
REMARK  14 active torsions:
REMARK  status: ('A' for Active; 'I' for Inactive)
REMARK    1  A    between atoms: O_2  and  C_18 
REMARK    2  A    between atoms: C_5  and  C_8 
REMARK    3  A    between atoms: C_5  and  O_35 
REMARK    4  A    between atoms: C_5  and  C_36 
REMARK    5  A    between atoms: N_6  and  C_11 
REMARK    6  A    between atoms: N_7  and  C_15 
REMARK       I    between atoms: N_7  and  C_24 
REMARK    7  A    between atoms: C_8  and  C_23 
REMARK    8  A    between atoms: C_11  and  C_14 
REMARK    9  A    between atoms: C_15  and  C_18 
REMARK   10  A    between atoms: C_15  and  C_23 
REMARK   11  A    between atoms: C_21  and  C_26 
REMARK   12  A    between atoms: C_24  and  C_25 
REMARK   13  A    between atoms: C_29  and  C_32 
REMARK   14  A    between atoms: C_36  and  O_39 
ROOT
HETATM    1  O   UNL     1      16.843   2.662  92.853  1.00  0.00    -0.350 OA
HETATM    2  N   UNL     1      14.010   2.814  93.082  1.00  0.00     0.147 N 
HETATM    3  C   UNL     1      14.805   1.934  93.950  1.00  0.00     0.283 C 
HETATM    4  C   UNL     1      14.688   2.991  91.790  1.00  0.00     0.283 C 
HETATM    5  C   UNL     1      16.208   2.509  94.124  1.00  0.00     0.178 C 
HETATM    6  C   UNL     1      16.093   3.540  92.014  1.00  0.00     0.178 C 
ENDROOT
BRANCH   2   7
HETATM    7  C   UNL     1      12.664   2.276  92.893  1.00  0.00     0.277 C 
BRANCH   7   8
HETATM    8  C   UNL     1      11.628   3.347  92.835  1.00  0.00     0.011 A 
HETATM    9  C   UNL     1      11.632   4.372  93.781  1.00  0.00    -0.002 A 
HETATM   10  C   UNL     1      10.662   5.373  93.729  1.00  0.00     0.008 A 
HETATM   11  C   UNL     1       9.690   5.349  92.730  1.00  0.00     0.042 A 
HETATM   12  C   UNL     1       9.685   4.326  91.784  1.00  0.00     0.008 A 
HETATM   13  C   UNL     1      10.655   3.324  91.836  1.00  0.00    -0.002 A 
BRANCH  11  14
HETATM   14  C   UNL     1       8.696   6.377  92.675  1.00  0.00    -0.059 C 
HETATM   15  C   UNL     1       7.861   7.241  92.630  1.00  0.00    -0.059 C 
BRANCH  15  16
HETATM   16  C   UNL     1       6.868   8.268  92.576  1.00  0.00     0.042 A 
HETATM   17  C   UNL     1       7.059   9.458  93.279  1.00  0.00     0.008 A 
HETATM   18  C   UNL     1       6.092  10.462  93.224  1.00  0.00     0.005 A 
HETATM   19  C   UNL     1       4.957  10.253  92.468  1.00  0.00     0.056 A 
HETATM   20  C   UNL     1       4.745   9.086  91.765  1.00  0.00     0.005 A 
HETATM   21  C   UNL     1       5.712   8.082  91.819  1.00  0.00     0.008 A 
BRANCH  19  22
HETATM   22  C   UNL     1       3.926  11.322  92.412  1.00  0.00     0.254 C 
HETATM   23  O   UNL     1       2.878  11.177  93.036  1.00  0.00    -0.268 OA
HETATM   24  N   UNL     1       4.250  12.440  91.656  1.00  0.00    -0.335 N 
HETATM   25  HN  UNL     1       5.147  12.500  91.188  1.00  0.00     0.164 HD
BRANCH  24  26
HETATM   26  C   UNL     1       3.366  13.570  91.524  1.00  0.00     0.169 C 
BRANCH  26  27
HETATM   27  C   UNL     1       3.942  14.850  92.142  1.00  0.00     0.138 C 
HETATM   28  C   UNL     1       4.558  14.610  93.516  1.00  0.00     0.034 C 
BRANCH  27  29
HETATM   29  O   UNL     1       4.938  15.391  91.275  1.00  0.00    -0.383 OA
HETATM   30  H   UNL     1       4.947  14.868  90.456  1.00  0.00     0.210 HD
ENDBRANCH  27  29
ENDBRANCH  26  27
BRANCH  26  31
HETATM   31  C   UNL     1       3.066  13.756  90.040  1.00  0.00     0.194 C 
HETATM   32  O   UNL     1       2.181  14.502  89.624  1.00  0.00    -0.289 OA
BRANCH  31  33
HETATM   33  C   UNL     1       3.867  12.972  89.247  1.00  0.00     0.053 C 
BRANCH  33  34
HETATM   34  C   UNL     1       3.356  11.706  88.925  1.00  0.00     0.220 C 
BRANCH  34  35
HETATM   35  O   UNL     1       2.323  11.874  88.249  1.00  0.00    -0.371 OA
HETATM   36  H   UNL     1       1.984  10.993  88.306  1.00  0.00     0.211 HD
ENDBRANCH  34  35
BRANCH  34  37
HETATM   37  C   UNL     1       4.287  10.873  88.281  1.00  0.00     0.185 C 
HETATM   38  O   UNL     1       5.166  11.634  88.915  1.00  0.00    -0.647 OA
BRANCH  37  39
HETATM   39  O   UNL     1       4.257   9.965  87.506  1.00  0.00    -0.774 OA
HETATM   40  H   UNL     1       4.592   8.994  87.987  1.00  0.00     0.167 HD
ENDBRANCH  37  39
ENDBRANCH  34  37
ENDBRANCH  33  34
ENDBRANCH  31  33
ENDBRANCH  26  31
ENDBRANCH  24  26
ENDBRANCH  19  22
ENDBRANCH  15  16
ENDBRANCH  11  14
ENDBRANCH   7   8
ENDBRANCH   2   7
TORSDOF 14
ENDMDL
