MODEL 1
REMARK VINA RESULT:      -6.9      0.000      0.000
REMARK  10 active torsions:
REMARK  status: ('A' for Active; 'I' for Inactive)
REMARK    1  A    between atoms: O_2  and  C_18 
REMARK    2  A    between atoms: O_5  and  N_8 
REMARK    3  A    between atoms: N_6  and  C_11 
REMARK    4  A    between atoms: N_7  and  C_15 
REMARK       I    between atoms: N_7  and  C_24 
REMARK       I    between atoms: N_8  and  C_23 
REMARK    5  A    between atoms: C_11  and  C_14 
REMARK    6  A    between atoms: C_15  and  C_18 
REMARK    7  A    between atoms: C_15  and  C_23 
REMARK    8  A    between atoms: C_21  and  C_26 
REMARK    9  A    between atoms: C_24  and  C_25 
REMARK   10  A    between atoms: C_29  and  C_32 
ROOT
HETATM    1  O   UNK     0      17.107   4.218  93.934  0.00  0.00    -0.388 OA
HETATM    2  N   UNK     0      14.746   2.761  93.293  0.00  0.00     0.096 N 
HETATM    3  C   UNK     0      16.082   2.170  93.129  0.00  0.00     0.299 C 
HETATM    4  C   UNK     0      14.818   4.219  93.129  0.00  0.00     0.299 C 
HETATM    5  C   UNK     0      17.053   2.802  94.123  0.00  0.00     0.198 C 
HETATM    6  C   UNK     0      15.818   4.804  94.122  0.00  0.00     0.198 C 
ENDROOT
BRANCH   2   7
HETATM    7  C   UNK     0      13.801   2.178  92.343  0.00  0.00     0.311 C 
BRANCH   7   8
HETATM    8  C   UNK     0      12.690   3.111  92.001  0.00  0.00    -0.030 A 
HETATM    9  C   UNK     0      12.672   3.747  90.759  0.00  0.00     0.010 A 
HETATM   10  C   UNK     0      11.635   4.622  90.438  0.00  0.00     0.021 A 
HETATM   11  C   UNK     0      10.614   4.859  91.359  0.00  0.00     0.018 A 
HETATM   12  C   UNK     0      10.631   4.224  92.599  0.00  0.00     0.021 A 
HETATM   13  C   UNK     0      11.669   3.350  92.921  0.00  0.00     0.010 A 
BRANCH  11  14
HETATM   14  C   UNK     0       9.549   5.755  91.029  0.00  0.00    -0.061 C 
HETATM   15  C   UNK     0       8.653   6.508  90.753  0.00  0.00    -0.061 C 
BRANCH  15  16
HETATM   16  C   UNK     0       7.588   7.402  90.425  0.00  0.00     0.018 A 
HETATM   17  C   UNK     0       7.864   8.742  90.150  0.00  0.00     0.022 A 
HETATM   18  C   UNK     0       6.824   9.615  89.827  0.00  0.00     0.018 A 
HETATM   19  C   UNK     0       5.534   9.129  89.786  0.00  0.00     0.032 A 
HETATM   20  C   UNK     0       5.236   7.810  90.054  0.00  0.00     0.018 A 
HETATM   21  C   UNK     0       6.274   6.937  90.377  0.00  0.00     0.022 A 
BRANCH  19  22
HETATM   22  C   UNK     0       4.427  10.060  89.444  0.00  0.00     0.252 C 
HETATM   23  O   UNK     0       3.575   9.706  88.633  0.00  0.00    -0.268 OA
HETATM   24  N   UNK     0       4.432  11.279  90.107  0.00  0.00    -0.341 N 
HETATM   25  H   UNK     0       5.155  11.492  90.784  0.00  0.00     0.163 HD
BRANCH  24  26
HETATM   26  C   UNK     0       3.413  12.277  89.901  0.00  0.00     0.207 C 
BRANCH  26  27
HETATM   27  C   UNK     0       2.960  12.940  91.208  0.00  0.00     0.146 C 
HETATM   28  C   UNK     0       2.143  11.999  92.087  0.00  0.00     0.042 C 
BRANCH  27  29
HETATM   29  O   UNK     0       4.102  13.383  91.941  0.00  0.00    -0.393 OA
HETATM   30  H   UNK     0       4.629  12.603  92.184  0.00  0.00     0.210 HD
ENDBRANCH  27  29
ENDBRANCH  26  27
BRANCH  26  31
HETATM   31  C   UNK     0       3.961  13.307  88.919  0.00  0.00     0.266 C 
HETATM   32  O   UNK     0       4.024  14.508  89.173  0.00  0.00    -0.269 OA
HETATM   33  N   UNK     0       4.330  12.739  87.724  0.00  0.00    -0.236 N 
HETATM   34  H   UNK     0       4.209  11.771  87.449  0.00  0.00     0.197 HD
BRANCH  33  35
HETATM   35  O   UNK     0       4.810  13.625  86.749  0.00  0.00    -0.287 OA
HETATM   36  H   UNK     0       5.757  13.630  86.969  0.00  0.00     0.244 HD
ENDBRANCH  33  35
ENDBRANCH  26  31
ENDBRANCH  24  26
ENDBRANCH  19  22
ENDBRANCH  15  16
ENDBRANCH  11  14
ENDBRANCH   7   8
ENDBRANCH   2   7
TORSDOF 10
ENDMDL
