MODEL 1
REMARK VINA RESULT:      -6.9      0.000      0.000
REMARK  10 active torsions:
REMARK  status: ('A' for Active; 'I' for Inactive)
REMARK    1  A    between atoms: O_2  and  C_18 
REMARK    2  A    between atoms: O_5  and  N_8 
REMARK    3  A    between atoms: N_6  and  C_11 
REMARK    4  A    between atoms: N_7  and  C_15 
REMARK       I    between atoms: N_7  and  C_24 
REMARK       I    between atoms: N_8  and  C_23 
REMARK    5  A    between atoms: C_11  and  C_14 
REMARK    6  A    between atoms: C_15  and  C_18 
REMARK    7  A    between atoms: C_15  and  C_23 
REMARK    8  A    between atoms: C_21  and  C_26 
REMARK    9  A    between atoms: C_24  and  C_25 
REMARK   10  A    between atoms: C_29  and  C_32 
ROOT
HETATM    1  O   UNK     0      16.295   4.266  94.117  0.00  0.00    -0.388 OA
HETATM    2  N   UNK     0      14.528   2.615  92.616  0.00  0.00     0.096 N 
HETATM    3  C   UNK     0      14.405   4.079  92.606  0.00  0.00     0.299 C 
HETATM    4  C   UNK     0      15.100   2.166  93.893  0.00  0.00     0.299 C 
HETATM    5  C   UNK     0      15.769   4.714  92.867  0.00  0.00     0.198 C 
HETATM    6  C   UNK     0      16.446   2.846  94.124  0.00  0.00     0.198 C 
ENDROOT
BRANCH   2   7
HETATM    7  C   UNK     0      13.230   1.985  92.379  0.00  0.00     0.311 C 
BRANCH   7   8
HETATM    8  C   UNK     0      12.159   2.981  92.095  0.00  0.00    -0.030 A 
HETATM    9  C   UNK     0      11.626   3.084  90.809  0.00  0.00     0.010 A 
HETATM   10  C   UNK     0      10.625   4.018  90.541  0.00  0.00     0.021 A 
HETATM   11  C   UNK     0      10.155   4.846  91.560  0.00  0.00     0.018 A 
HETATM   12  C   UNK     0      10.686   4.744  92.845  0.00  0.00     0.021 A 
HETATM   13  C   UNK     0      11.688   3.811  93.112  0.00  0.00     0.010 A 
BRANCH  11  14
HETATM   14  C   UNK     0       9.127   5.802  91.286  0.00  0.00    -0.061 C 
HETATM   15  C   UNK     0       8.262   6.605  91.056  0.00  0.00    -0.061 C 
BRANCH  15  16
HETATM   16  C   UNK     0       7.236   7.560  90.781  0.00  0.00     0.018 A 
HETATM   17  C   UNK     0       6.625   7.586  89.526  0.00  0.00     0.022 A 
HETATM   18  C   UNK     0       5.622   8.517  89.259  0.00  0.00     0.018 A 
HETATM   19  C   UNK     0       5.250   9.401  90.250  0.00  0.00     0.032 A 
HETATM   20  C   UNK     0       5.838   9.397  91.498  0.00  0.00     0.018 A 
HETATM   21  C   UNK     0       6.842   8.467  91.766  0.00  0.00     0.022 A 
BRANCH  19  22
HETATM   22  C   UNK     0       4.183  10.394  89.963  0.00  0.00     0.252 C 
HETATM   23  O   UNK     0       3.086  10.000  89.574  0.00  0.00    -0.268 OA
HETATM   24  N   UNK     0       4.512  11.723  90.189  0.00  0.00    -0.341 N 
HETATM   25  H   UNK     0       5.431  11.972  90.536  0.00  0.00     0.163 HD
BRANCH  24  26
HETATM   26  C   UNK     0       3.578  12.800  89.981  0.00  0.00     0.207 C 
BRANCH  26  27
HETATM   27  C   UNK     0       3.294  13.595  91.262  0.00  0.00     0.146 C 
HETATM   28  C   UNK     0       1.943  13.250  91.876  0.00  0.00     0.042 C 
BRANCH  27  29
HETATM   29  O   UNK     0       4.319  13.337  92.221  0.00  0.00    -0.393 OA
HETATM   30  H   UNK     0       3.979  12.694  92.865  0.00  0.00     0.210 HD
ENDBRANCH  27  29
ENDBRANCH  26  27
BRANCH  26  31
HETATM   31  C   UNK     0       4.138  13.698  88.883  0.00  0.00     0.266 C 
HETATM   32  O   UNK     0       4.252  14.916  89.007  0.00  0.00    -0.269 OA
HETATM   33  N   UNK     0       4.455  12.992  87.747  0.00  0.00    -0.236 N 
HETATM   34  H   UNK     0       4.292  12.006  87.580  0.00  0.00     0.197 HD
BRANCH  33  35
HETATM   35  O   UNK     0       4.943  13.751  86.674  0.00  0.00    -0.287 OA
HETATM   36  H   UNK     0       4.707  13.172  85.930  0.00  0.00     0.244 HD
ENDBRANCH  33  35
ENDBRANCH  26  31
ENDBRANCH  24  26
ENDBRANCH  19  22
ENDBRANCH  15  16
ENDBRANCH  11  14
ENDBRANCH   7   8
ENDBRANCH   2   7
TORSDOF 10
ENDMDL
MODEL 2
REMARK VINA RESULT:      -6.9      1.287      1.863
REMARK  10 active torsions:
REMARK  status: ('A' for Active; 'I' for Inactive)
REMARK    1  A    between atoms: O_2  and  C_18 
REMARK    2  A    between atoms: O_5  and  N_8 
REMARK    3  A    between atoms: N_6  and  C_11 
REMARK    4  A    between atoms: N_7  and  C_15 
REMARK       I    between atoms: N_7  and  C_24 
REMARK       I    between atoms: N_8  and  C_23 
REMARK    5  A    between atoms: C_11  and  C_14 
REMARK    6  A    between atoms: C_15  and  C_18 
REMARK    7  A    between atoms: C_15  and  C_23 
REMARK    8  A    between atoms: C_21  and  C_26 
REMARK    9  A    between atoms: C_24  and  C_25 
REMARK   10  A    between atoms: C_29  and  C_32 
ROOT
HETATM    1  O   UNK     0      16.856   3.751  93.843  0.00  0.00    -0.388 OA
HETATM    2  N   UNK     0      14.251   3.063  92.927  0.00  0.00     0.096 N 
HETATM    3  C   UNK     0      15.318   2.058  93.031  0.00  0.00     0.299 C 
HETATM    4  C   UNK     0      14.830   4.388  92.670  0.00  0.00     0.299 C 
HETATM    5  C   UNK     0      16.304   2.463  94.124  0.00  0.00     0.198 C 
HETATM    6  C   UNK     0      15.828   4.739  93.771  0.00  0.00     0.198 C 
ENDROOT
BRANCH   2   7
HETATM    7  C   UNK     0      13.300   2.700  91.878  0.00  0.00     0.311 C 
BRANCH   7   8
HETATM    8  C   UNK     0      12.168   3.666  91.778  0.00  0.00    -0.030 A 
HETATM    9  C   UNK     0      11.788   4.167  90.533  0.00  0.00     0.010 A 
HETATM   10  C   UNK     0      10.731   5.072  90.439  0.00  0.00     0.021 A 
HETATM   11  C   UNK     0      10.054   5.474  91.590  0.00  0.00     0.018 A 
HETATM   12  C   UNK     0      10.433   4.975  92.834  0.00  0.00     0.021 A 
HETATM   13  C   UNK     0      11.490   4.070  92.929  0.00  0.00     0.010 A 
BRANCH  11  14
HETATM   14  C   UNK     0       8.969   6.402  91.493  0.00  0.00    -0.061 C 
HETATM   15  C   UNK     0       8.057   7.181  91.411  0.00  0.00    -0.061 C 
BRANCH  15  16
HETATM   16  C   UNK     0       6.972   8.106  91.315  0.00  0.00     0.018 A 
HETATM   17  C   UNK     0       6.319   8.537  92.471  0.00  0.00     0.022 A 
HETATM   18  C   UNK     0       5.262   9.442  92.377  0.00  0.00     0.018 A 
HETATM   19  C   UNK     0       4.880   9.895  91.132  0.00  0.00     0.032 A 
HETATM   20  C   UNK     0       5.508   9.484  89.975  0.00  0.00     0.018 A 
HETATM   21  C   UNK     0       6.565   8.579  90.068  0.00  0.00     0.022 A 
BRANCH  19  22
HETATM   22  C   UNK     0       3.752  10.857  91.032  0.00  0.00     0.252 C 
HETATM   23  O   UNK     0       2.716  10.511  90.469  0.00  0.00    -0.268 OA
HETATM   24  N   UNK     0       3.956  12.096  91.623  0.00  0.00    -0.341 N 
HETATM   25  H   UNK     0       4.829  12.303  92.093  0.00  0.00     0.163 HD
BRANCH  24  26
HETATM   26  C   UNK     0       2.949  13.126  91.631  0.00  0.00     0.207 C 
BRANCH  26  27
HETATM   27  C   UNK     0       2.882  13.880  92.966  0.00  0.00     0.146 C 
HETATM   28  C   UNK     0       4.149  13.708  93.797  0.00  0.00     0.042 C 
BRANCH  27  29
HETATM   29  O   UNK     0       2.675  15.271  92.718  0.00  0.00    -0.393 OA
HETATM   30  H   UNK     0       3.147  15.509  91.903  0.00  0.00     0.210 HD
ENDBRANCH  27  29
ENDBRANCH  26  27
BRANCH  26  31
HETATM   31  C   UNK     0       3.242  14.074  90.473  0.00  0.00     0.266 C 
HETATM   32  O   UNK     0       2.402  14.377  89.627  0.00  0.00    -0.269 OA
HETATM   33  N   UNK     0       4.546  14.507  90.473  0.00  0.00    -0.236 N 
HETATM   34  H   UNK     0       5.284  14.208  91.100  0.00  0.00     0.197 HD
BRANCH  33  35
HETATM   35  O   UNK     0       4.908  15.353  89.416  0.00  0.00    -0.287 OA
HETATM   36  H   UNK     0       4.353  16.127  89.614  0.00  0.00     0.244 HD
ENDBRANCH  33  35
ENDBRANCH  26  31
ENDBRANCH  24  26
ENDBRANCH  19  22
ENDBRANCH  15  16
ENDBRANCH  11  14
ENDBRANCH   7   8
ENDBRANCH   2   7
TORSDOF 10
ENDMDL
MODEL 3
REMARK VINA RESULT:      -5.8      2.760     12.283
REMARK  10 active torsions:
REMARK  status: ('A' for Active; 'I' for Inactive)
REMARK    1  A    between atoms: O_2  and  C_18 
REMARK    2  A    between atoms: O_5  and  N_8 
REMARK    3  A    between atoms: N_6  and  C_11 
REMARK    4  A    between atoms: N_7  and  C_15 
REMARK       I    between atoms: N_7  and  C_24 
REMARK       I    between atoms: N_8  and  C_23 
REMARK    5  A    between atoms: C_11  and  C_14 
REMARK    6  A    between atoms: C_15  and  C_18 
REMARK    7  A    between atoms: C_15  and  C_23 
REMARK    8  A    between atoms: C_21  and  C_26 
REMARK    9  A    between atoms: C_24  and  C_25 
REMARK   10  A    between atoms: C_29  and  C_32 
ROOT
HETATM    1  O   UNK     0       2.794  14.602  94.025  0.00  0.00    -0.388 OA
HETATM    2  N   UNK     0       2.649  14.626  91.182  0.00  0.00     0.096 N 
HETATM    3  C   UNK     0       1.671  13.889  91.995  0.00  0.00     0.299 C 
HETATM    4  C   UNK     0       3.936  14.699  91.886  0.00  0.00     0.299 C 
HETATM    5  C   UNK     0       1.529  14.554  93.362  0.00  0.00     0.198 C 
HETATM    6  C   UNK     0       3.741  15.344  93.255  0.00  0.00     0.198 C 
ENDROOT
BRANCH   2   7
HETATM    7  C   UNK     0       2.809  14.000  89.871  0.00  0.00     0.311 C 
BRANCH   7   8
HETATM    8  C   UNK     0       3.820  12.904  89.884  0.00  0.00    -0.030 A 
HETATM    9  C   UNK     0       3.552  11.717  90.566  0.00  0.00     0.010 A 
HETATM   10  C   UNK     0       4.499  10.693  90.581  0.00  0.00     0.021 A 
HETATM   11  C   UNK     0       5.711  10.855  89.912  0.00  0.00     0.018 A 
HETATM   12  C   UNK     0       5.980  12.040  89.230  0.00  0.00     0.021 A 
HETATM   13  C   UNK     0       5.034  13.065  89.216  0.00  0.00     0.010 A 
BRANCH  11  14
HETATM   14  C   UNK     0       6.681   9.803  89.926  0.00  0.00    -0.061 C 
HETATM   15  C   UNK     0       7.496   8.919  89.937  0.00  0.00    -0.061 C 
BRANCH  15  16
HETATM   16  C   UNK     0       8.464   7.868  89.951  0.00  0.00     0.018 A 
HETATM   17  C   UNK     0       9.054   7.449  88.759  0.00  0.00     0.022 A 
HETATM   18  C   UNK     0      10.001   6.424  88.773  0.00  0.00     0.018 A 
HETATM   19  C   UNK     0      10.336   5.843  89.978  0.00  0.00     0.032 A 
HETATM   20  C   UNK     0       9.767   6.239  91.170  0.00  0.00     0.018 A 
HETATM   21  C   UNK     0       8.820   7.263  91.156  0.00  0.00     0.022 A 
BRANCH  19  22
HETATM   22  C   UNK     0      11.343   4.750  89.992  0.00  0.00     0.252 C 
HETATM   23  O   UNK     0      11.545   4.108  88.964  0.00  0.00    -0.268 OA
HETATM   24  N   UNK     0      12.010   4.553  91.193  0.00  0.00    -0.341 N 
HETATM   25  H   UNK     0      11.808   5.140  91.994  0.00  0.00     0.163 HD
BRANCH  24  26
HETATM   26  C   UNK     0      13.031   3.550  91.358  0.00  0.00     0.207 C 
BRANCH  26  27
HETATM   27  C   UNK     0      14.185   4.019  92.252  0.00  0.00     0.146 C 
HETATM   28  C   UNK     0      13.770   4.171  93.711  0.00  0.00     0.042 C 
BRANCH  27  29
HETATM   29  O   UNK     0      15.261   3.084  92.172  0.00  0.00    -0.393 OA
HETATM   30  H   UNK     0      15.825   3.201  92.955  0.00  0.00     0.210 HD
ENDBRANCH  27  29
ENDBRANCH  26  27
BRANCH  26  31
HETATM   31  C   UNK     0      12.366   2.298  91.922  0.00  0.00     0.266 C 
HETATM   32  O   UNK     0      12.938   1.212  91.996  0.00  0.00    -0.269 OA
HETATM   33  N   UNK     0      11.062   2.524  92.292  0.00  0.00    -0.236 N 
HETATM   34  H   UNK     0      10.535   3.380  92.162  0.00  0.00     0.197 HD
BRANCH  33  35
HETATM   35  O   UNK     0      10.367   1.412  92.786  0.00  0.00    -0.287 OA
HETATM   36  H   UNK     0      11.111   0.841  93.044  0.00  0.00     0.244 HD
ENDBRANCH  33  35
ENDBRANCH  26  31
ENDBRANCH  24  26
ENDBRANCH  19  22
ENDBRANCH  15  16
ENDBRANCH  11  14
ENDBRANCH   7   8
ENDBRANCH   2   7
TORSDOF 10
ENDMDL
MODEL 4
REMARK VINA RESULT:      -5.4      1.880     12.511
REMARK  10 active torsions:
REMARK  status: ('A' for Active; 'I' for Inactive)
REMARK    1  A    between atoms: O_2  and  C_18 
REMARK    2  A    between atoms: O_5  and  N_8 
REMARK    3  A    between atoms: N_6  and  C_11 
REMARK    4  A    between atoms: N_7  and  C_15 
REMARK       I    between atoms: N_7  and  C_24 
REMARK       I    between atoms: N_8  and  C_23 
REMARK    5  A    between atoms: C_11  and  C_14 
REMARK    6  A    between atoms: C_15  and  C_18 
REMARK    7  A    between atoms: C_15  and  C_23 
REMARK    8  A    between atoms: C_21  and  C_26 
REMARK    9  A    between atoms: C_24  and  C_25 
REMARK   10  A    between atoms: C_29  and  C_32 
ROOT
HETATM    1  O   UNK     0       3.280  13.933  92.126  0.00  0.00    -0.388 OA
HETATM    2  N   UNK     0       3.557  13.016  89.446  0.00  0.00     0.096 N 
HETATM    3  C   UNK     0       3.120  12.118  90.524  0.00  0.00     0.299 C 
HETATM    4  C   UNK     0       4.422  14.072  89.990  0.00  0.00     0.299 C 
HETATM    5  C   UNK     0       2.412  12.921  91.612  0.00  0.00     0.198 C 
HETATM    6  C   UNK     0       3.684  14.829  91.091  0.00  0.00     0.198 C 
ENDROOT
BRANCH   2   7
HETATM    7  C   UNK     0       4.248  12.268  88.397  0.00  0.00     0.311 C 
BRANCH   7   8
HETATM    8  C   UNK     0       5.169  11.235  88.950  0.00  0.00    -0.030 A 
HETATM    9  C   UNK     0       6.442  11.600  89.389  0.00  0.00     0.010 A 
HETATM   10  C   UNK     0       7.306  10.633  89.904  0.00  0.00     0.021 A 
HETATM   11  C   UNK     0       6.896   9.303  89.981  0.00  0.00     0.018 A 
HETATM   12  C   UNK     0       5.625   8.937  89.542  0.00  0.00     0.021 A 
HETATM   13  C   UNK     0       4.761   9.903  89.027  0.00  0.00     0.010 A 
BRANCH  11  14
HETATM   14  C   UNK     0       7.781   8.312  90.511  0.00  0.00    -0.061 C 
HETATM   15  C   UNK     0       8.525   7.479  90.957  0.00  0.00    -0.061 C 
BRANCH  15  16
HETATM   16  C   UNK     0       9.411   6.490  91.486  0.00  0.00     0.018 A 
HETATM   17  C   UNK     0      10.030   5.580  90.628  0.00  0.00     0.022 A 
HETATM   18  C   UNK     0      10.896   4.616  91.144  0.00  0.00     0.018 A 
HETATM   19  C   UNK     0      11.124   4.583  92.504  0.00  0.00     0.032 A 
HETATM   20  C   UNK     0      10.524   5.471  93.372  0.00  0.00     0.018 A 
HETATM   21  C   UNK     0       9.657   6.435  92.857  0.00  0.00     0.022 A 
BRANCH  19  22
HETATM   22  C   UNK     0      12.045   3.554  93.053  0.00  0.00     0.252 C 
HETATM   23  O   UNK     0      11.658   2.392  93.147  0.00  0.00    -0.268 OA
HETATM   24  N   UNK     0      13.313   3.998  93.402  0.00  0.00    -0.341 N 
HETATM   25  H   UNK     0      13.570   4.969  93.272  0.00  0.00     0.163 HD
BRANCH  24  26
HETATM   26  C   UNK     0      14.326   3.116  93.925  0.00  0.00     0.207 C 
BRANCH  26  27
HETATM   27  C   UNK     0      14.376   1.769  93.194  0.00  0.00     0.146 C 
HETATM   28  C   UNK     0      15.135   1.849  91.874  0.00  0.00     0.042 C 
BRANCH  27  29
HETATM   29  O   UNK     0      15.000   0.795  94.029  0.00  0.00    -0.393 OA
HETATM   30  H   UNK     0      15.105  -0.024  93.517  0.00  0.00     0.210 HD
ENDBRANCH  27  29
ENDBRANCH  26  27
BRANCH  26  31
HETATM   31  C   UNK     0      15.664   3.843  93.840  0.00  0.00     0.266 C 
HETATM   32  O   UNK     0      15.760   5.041  93.583  0.00  0.00    -0.269 OA
HETATM   33  N   UNK     0      16.728   2.998  94.045  0.00  0.00    -0.236 N 
HETATM   34  H   UNK     0      16.689   1.993  94.171  0.00  0.00     0.197 HD
BRANCH  33  35
HETATM   35  O   UNK     0      17.999   3.581  93.946  0.00  0.00    -0.287 OA
HETATM   36  H   UNK     0      18.250   3.301  93.050  0.00  0.00     0.244 HD
ENDBRANCH  33  35
ENDBRANCH  26  31
ENDBRANCH  24  26
ENDBRANCH  19  22
ENDBRANCH  15  16
ENDBRANCH  11  14
ENDBRANCH   7   8
ENDBRANCH   2   7
TORSDOF 10
ENDMDL
MODEL 5
REMARK VINA RESULT:      -5.4      2.631     12.381
REMARK  10 active torsions:
REMARK  status: ('A' for Active; 'I' for Inactive)
REMARK    1  A    between atoms: O_2  and  C_18 
REMARK    2  A    between atoms: O_5  and  N_8 
REMARK    3  A    between atoms: N_6  and  C_11 
REMARK    4  A    between atoms: N_7  and  C_15 
REMARK       I    between atoms: N_7  and  C_24 
REMARK       I    between atoms: N_8  and  C_23 
REMARK    5  A    between atoms: C_11  and  C_14 
REMARK    6  A    between atoms: C_15  and  C_18 
REMARK    7  A    between atoms: C_15  and  C_23 
REMARK    8  A    between atoms: C_21  and  C_26 
REMARK    9  A    between atoms: C_24  and  C_25 
REMARK   10  A    between atoms: C_29  and  C_32 
ROOT
HETATM    1  O   UNK     0       2.881  15.023  93.951  0.00  0.00    -0.388 OA
HETATM    2  N   UNK     0       2.665  14.549  91.153  0.00  0.00     0.096 N 
HETATM    3  C   UNK     0       1.694  13.989  92.104  0.00  0.00     0.299 C 
HETATM    4  C   UNK     0       3.970  14.715  91.805  0.00  0.00     0.299 C 
HETATM    5  C   UNK     0       1.599  14.888  93.334  0.00  0.00     0.198 C 
HETATM    6  C   UNK     0       3.823  15.595  93.043  0.00  0.00     0.198 C 
ENDROOT
BRANCH   2   7
HETATM    7  C   UNK     0       2.780  13.698  89.970  0.00  0.00     0.311 C 
BRANCH   7   8
HETATM    8  C   UNK     0       3.803  12.626  90.138  0.00  0.00    -0.030 A 
HETATM    9  C   UNK     0       3.550  11.549  90.988  0.00  0.00     0.010 A 
HETATM   10  C   UNK     0       4.507  10.547  91.148  0.00  0.00     0.021 A 
HETATM   11  C   UNK     0       5.716  10.622  90.457  0.00  0.00     0.018 A 
HETATM   12  C   UNK     0       5.969  11.698  89.608  0.00  0.00     0.021 A 
HETATM   13  C   UNK     0       5.013  12.700  89.448  0.00  0.00     0.010 A 
BRANCH  11  14
HETATM   14  C   UNK     0       6.697   9.594  90.619  0.00  0.00    -0.061 C 
HETATM   15  C   UNK     0       7.521   8.729  90.756  0.00  0.00    -0.061 C 
BRANCH  15  16
HETATM   16  C   UNK     0       8.500   7.701  90.919  0.00  0.00     0.018 A 
HETATM   17  C   UNK     0       9.027   7.057  89.798  0.00  0.00     0.022 A 
HETATM   18  C   UNK     0       9.984   6.055  89.957  0.00  0.00     0.018 A 
HETATM   19  C   UNK     0      10.393   5.719  91.231  0.00  0.00     0.032 A 
HETATM   20  C   UNK     0       9.887   6.339  92.354  0.00  0.00     0.018 A 
HETATM   21  C   UNK     0       8.929   7.341  92.196  0.00  0.00     0.022 A 
BRANCH  19  22
HETATM   22  C   UNK     0      11.411   4.650  91.399  0.00  0.00     0.252 C 
HETATM   23  O   UNK     0      11.716   3.954  90.433  0.00  0.00    -0.268 OA
HETATM   24  N   UNK     0      11.969   4.536  92.665  0.00  0.00    -0.341 N 
HETATM   25  H   UNK     0      11.686   5.163  93.409  0.00  0.00     0.163 HD
BRANCH  24  26
HETATM   26  C   UNK     0      12.986   3.564  92.979  0.00  0.00     0.207 C 
BRANCH  26  27
HETATM   27  C   UNK     0      12.850   2.276  92.158  0.00  0.00     0.146 C 
HETATM   28  C   UNK     0      13.909   1.240  92.519  0.00  0.00     0.042 C 
BRANCH  27  29
HETATM   29  O   UNK     0      11.557   1.710  92.369  0.00  0.00    -0.393 OA
HETATM   30  H   UNK     0      11.526   1.346  93.270  0.00  0.00     0.210 HD
ENDBRANCH  27  29
ENDBRANCH  26  27
BRANCH  26  31
HETATM   31  C   UNK     0      14.343   4.223  92.758  0.00  0.00     0.266 C 
HETATM   32  O   UNK     0      14.730   4.605  91.655  0.00  0.00    -0.269 OA
HETATM   33  N   UNK     0      15.080   4.296  93.915  0.00  0.00    -0.236 N 
HETATM   34  H   UNK     0      14.830   3.912  94.819  0.00  0.00     0.197 HD
BRANCH  33  35
HETATM   35  O   UNK     0      16.359   4.855  93.790  0.00  0.00    -0.287 OA
HETATM   36  H   UNK     0      16.227   5.422  93.011  0.00  0.00     0.244 HD
ENDBRANCH  33  35
ENDBRANCH  26  31
ENDBRANCH  24  26
ENDBRANCH  19  22
ENDBRANCH  15  16
ENDBRANCH  11  14
ENDBRANCH   7   8
ENDBRANCH   2   7
TORSDOF 10
ENDMDL
MODEL 6
REMARK VINA RESULT:      -5.3      1.878     12.449
REMARK  10 active torsions:
REMARK  status: ('A' for Active; 'I' for Inactive)
REMARK    1  A    between atoms: O_2  and  C_18 
REMARK    2  A    between atoms: O_5  and  N_8 
REMARK    3  A    between atoms: N_6  and  C_11 
REMARK    4  A    between atoms: N_7  and  C_15 
REMARK       I    between atoms: N_7  and  C_24 
REMARK       I    between atoms: N_8  and  C_23 
REMARK    5  A    between atoms: C_11  and  C_14 
REMARK    6  A    between atoms: C_15  and  C_18 
REMARK    7  A    between atoms: C_15  and  C_23 
REMARK    8  A    between atoms: C_21  and  C_26 
REMARK    9  A    between atoms: C_24  and  C_25 
REMARK   10  A    between atoms: C_29  and  C_32 
ROOT
HETATM    1  O   UNK     0       5.601  14.828  88.888  0.00  0.00    -0.388 OA
HETATM    2  N   UNK     0       3.603  13.233  90.139  0.00  0.00     0.096 N 
HETATM    3  C   UNK     0       4.218  14.375  90.830  0.00  0.00     0.299 C 
HETATM    4  C   UNK     0       4.549  12.660  89.172  0.00  0.00     0.299 C 
HETATM    5  C   UNK     0       4.676  15.412  89.807  0.00  0.00     0.198 C 
HETATM    6  C   UNK     0       5.000  13.737  88.189  0.00  0.00     0.198 C 
ENDROOT
BRANCH   2   7
HETATM    7  C   UNK     0       3.165  12.222  91.099  0.00  0.00     0.311 C 
BRANCH   7   8
HETATM    8  C   UNK     0       4.211  11.190  91.354  0.00  0.00    -0.030 A 
HETATM    9  C   UNK     0       5.343  11.516  92.103  0.00  0.00     0.010 A 
HETATM   10  C   UNK     0       6.323  10.553  92.340  0.00  0.00     0.021 A 
HETATM   11  C   UNK     0       6.170   9.264  91.830  0.00  0.00     0.018 A 
HETATM   12  C   UNK     0       5.040   8.937  91.083  0.00  0.00     0.021 A 
HETATM   13  C   UNK     0       4.060   9.901  90.845  0.00  0.00     0.010 A 
BRANCH  11  14
HETATM   14  C   UNK     0       7.175   8.275  92.075  0.00  0.00    -0.061 C 
HETATM   15  C   UNK     0       8.019   7.444  92.282  0.00  0.00    -0.061 C 
BRANCH  15  16
HETATM   16  C   UNK     0       9.023   6.458  92.527  0.00  0.00     0.018 A 
HETATM   17  C   UNK     0       9.460   5.635  91.488  0.00  0.00     0.022 A 
HETATM   18  C   UNK     0      10.442   4.673  91.726  0.00  0.00     0.018 A 
HETATM   19  C   UNK     0      10.965   4.556  92.997  0.00  0.00     0.032 A 
HETATM   20  C   UNK     0      10.550   5.356  94.041  0.00  0.00     0.018 A 
HETATM   21  C   UNK     0       9.568   6.317  93.803  0.00  0.00     0.022 A 
BRANCH  19  22
HETATM   22  C   UNK     0      12.010   3.530  93.250  0.00  0.00     0.252 C 
HETATM   23  O   UNK     0      11.753   2.347  93.038  0.00  0.00    -0.268 OA
HETATM   24  N   UNK     0      13.234   4.006  93.696  0.00  0.00    -0.341 N 
HETATM   25  H   UNK     0      13.382   5.001  93.825  0.00  0.00     0.163 HD
BRANCH  24  26
HETATM   26  C   UNK     0      14.353   3.139  93.963  0.00  0.00     0.207 C 
BRANCH  26  27
HETATM   27  C   UNK     0      14.360   1.888  93.075  0.00  0.00     0.146 C 
HETATM   28  C   UNK     0      15.034   2.131  91.729  0.00  0.00     0.042 C 
BRANCH  27  29
HETATM   29  O   UNK     0      15.039   0.829  93.749  0.00  0.00    -0.393 OA
HETATM   30  H   UNK     0      15.795   1.207  94.229  0.00  0.00     0.210 HD
ENDBRANCH  27  29
ENDBRANCH  26  27
BRANCH  26  31
HETATM   31  C   UNK     0      15.629   3.955  93.781  0.00  0.00     0.266 C 
HETATM   32  O   UNK     0      15.626   5.130  93.419  0.00  0.00    -0.269 OA
HETATM   33  N   UNK     0      16.759   3.214  94.030  0.00  0.00    -0.236 N 
HETATM   34  H   UNK     0      16.801   2.224  94.243  0.00  0.00     0.197 HD
BRANCH  33  35
HETATM   35  O   UNK     0      17.979   3.882  93.848  0.00  0.00    -0.287 OA
HETATM   36  H   UNK     0      17.886   4.596  94.501  0.00  0.00     0.244 HD
ENDBRANCH  33  35
ENDBRANCH  26  31
ENDBRANCH  24  26
ENDBRANCH  19  22
ENDBRANCH  15  16
ENDBRANCH  11  14
ENDBRANCH   7   8
ENDBRANCH   2   7
TORSDOF 10
ENDMDL
MODEL 7
REMARK VINA RESULT:      -4.7      2.107     12.519
REMARK  10 active torsions:
REMARK  status: ('A' for Active; 'I' for Inactive)
REMARK    1  A    between atoms: O_2  and  C_18 
REMARK    2  A    between atoms: O_5  and  N_8 
REMARK    3  A    between atoms: N_6  and  C_11 
REMARK    4  A    between atoms: N_7  and  C_15 
REMARK       I    between atoms: N_7  and  C_24 
REMARK       I    between atoms: N_8  and  C_23 
REMARK    5  A    between atoms: C_11  and  C_14 
REMARK    6  A    between atoms: C_15  and  C_18 
REMARK    7  A    between atoms: C_15  and  C_23 
REMARK    8  A    between atoms: C_21  and  C_26 
REMARK    9  A    between atoms: C_24  and  C_25 
REMARK   10  A    between atoms: C_29  and  C_32 
ROOT
HETATM    1  O   UNK     0       2.066  13.183  92.656  0.00  0.00    -0.388 OA
HETATM    2  N   UNK     0       3.005  12.443  90.073  0.00  0.00     0.096 N 
HETATM    3  C   UNK     0       3.003  11.490  91.192  0.00  0.00     0.299 C 
HETATM    4  C   UNK     0       3.152  13.813  90.580  0.00  0.00     0.299 C 
HETATM    5  C   UNK     0       1.892  11.849  92.175  0.00  0.00     0.198 C 
HETATM    6  C   UNK     0       2.038  14.119  91.577  0.00  0.00     0.198 C 
ENDROOT
BRANCH   2   7
HETATM    7  C   UNK     0       4.069  12.123  89.123  0.00  0.00     0.311 C 
BRANCH   7   8
HETATM    8  C   UNK     0       5.022  11.108  89.657  0.00  0.00    -0.030 A 
HETATM    9  C   UNK     0       4.940   9.783  89.229  0.00  0.00     0.010 A 
HETATM   10  C   UNK     0       5.829   8.832  89.730  0.00  0.00     0.021 A 
HETATM   11  C   UNK     0       6.800   9.207  90.657  0.00  0.00     0.018 A 
HETATM   12  C   UNK     0       6.884  10.531  91.085  0.00  0.00     0.021 A 
HETATM   13  C   UNK     0       5.994  11.482  90.585  0.00  0.00     0.010 A 
BRANCH  11  14
HETATM   14  C   UNK     0       7.714   8.232  91.168  0.00  0.00    -0.061 C 
HETATM   15  C   UNK     0       8.482   7.413  91.599  0.00  0.00    -0.061 C 
BRANCH  15  16
HETATM   16  C   UNK     0       9.394   6.439  92.108  0.00  0.00     0.018 A 
HETATM   17  C   UNK     0      10.017   5.544  91.237  0.00  0.00     0.022 A 
HETATM   18  C   UNK     0      10.909   4.594  91.734  0.00  0.00     0.018 A 
HETATM   19  C   UNK     0      11.160   4.560  93.090  0.00  0.00     0.032 A 
HETATM   20  C   UNK     0      10.557   5.432  93.972  0.00  0.00     0.018 A 
HETATM   21  C   UNK     0       9.664   6.382  93.476  0.00  0.00     0.022 A 
BRANCH  19  22
HETATM   22  C   UNK     0      12.109   3.547  93.619  0.00  0.00     0.252 C 
HETATM   23  O   UNK     0      11.668   2.507  94.103  0.00  0.00    -0.268 OA
HETATM   24  N   UNK     0      13.457   3.855  93.498  0.00  0.00    -0.341 N 
HETATM   25  H   UNK     0      13.748   4.723  93.064  0.00  0.00     0.163 HD
BRANCH  24  26
HETATM   26  C   UNK     0      14.499   2.964  93.942  0.00  0.00     0.207 C 
BRANCH  26  27
HETATM   27  C   UNK     0      14.601   1.697  93.083  0.00  0.00     0.146 C 
HETATM   28  C   UNK     0      15.530   1.875  91.888  0.00  0.00     0.042 C 
BRANCH  27  29
HETATM   29  O   UNK     0      15.078   0.615  93.884  0.00  0.00    -0.393 OA
HETATM   30  H   UNK     0      14.938   0.843  94.818  0.00  0.00     0.210 HD
ENDBRANCH  27  29
ENDBRANCH  26  27
BRANCH  26  31
HETATM   31  C   UNK     0      15.810   3.743  93.939  0.00  0.00     0.266 C 
HETATM   32  O   UNK     0      16.904   3.212  94.124  0.00  0.00    -0.269 OA
HETATM   33  N   UNK     0      15.614   5.089  93.748  0.00  0.00    -0.236 N 
HETATM   34  H   UNK     0      14.724   5.569  93.683  0.00  0.00     0.197 HD
BRANCH  33  35
HETATM   35  O   UNK     0      16.769   5.883  93.771  0.00  0.00    -0.287 OA
HETATM   36  H   UNK     0      17.448   5.200  93.906  0.00  0.00     0.244 HD
ENDBRANCH  33  35
ENDBRANCH  26  31
ENDBRANCH  24  26
ENDBRANCH  19  22
ENDBRANCH  15  16
ENDBRANCH  11  14
ENDBRANCH   7   8
ENDBRANCH   2   7
TORSDOF 10
ENDMDL
MODEL 8
REMARK VINA RESULT:      -4.3      2.166     12.361
REMARK  10 active torsions:
REMARK  status: ('A' for Active; 'I' for Inactive)
REMARK    1  A    between atoms: O_2  and  C_18 
REMARK    2  A    between atoms: O_5  and  N_8 
REMARK    3  A    between atoms: N_6  and  C_11 
REMARK    4  A    between atoms: N_7  and  C_15 
REMARK       I    between atoms: N_7  and  C_24 
REMARK       I    between atoms: N_8  and  C_23 
REMARK    5  A    between atoms: C_11  and  C_14 
REMARK    6  A    between atoms: C_15  and  C_18 
REMARK    7  A    between atoms: C_15  and  C_23 
REMARK    8  A    between atoms: C_21  and  C_26 
REMARK    9  A    between atoms: C_24  and  C_25 
REMARK   10  A    between atoms: C_29  and  C_32 
ROOT
HETATM    1  O   UNK     0       5.235  15.619  90.649  0.00  0.00    -0.388 OA
HETATM    2  N   UNK     0       3.165  13.742  91.193  0.00  0.00     0.096 N 
HETATM    3  C   UNK     0       4.064  14.223  92.252  0.00  0.00     0.299 C 
HETATM    4  C   UNK     0       3.855  13.771  89.897  0.00  0.00     0.299 C 
HETATM    5  C   UNK     0       4.562  15.625  91.910  0.00  0.00     0.198 C 
HETATM    6  C   UNK     0       4.359  15.182  89.609  0.00  0.00     0.198 C 
ENDROOT
BRANCH   2   7
HETATM    7  C   UNK     0       2.683  12.396  91.495  0.00  0.00     0.311 C 
BRANCH   7   8
HETATM    8  C   UNK     0       3.797  11.428  91.709  0.00  0.00    -0.030 A 
HETATM    9  C   UNK     0       4.671  11.131  90.662  0.00  0.00     0.010 A 
HETATM   10  C   UNK     0       5.712  10.224  90.860  0.00  0.00     0.021 A 
HETATM   11  C   UNK     0       5.880   9.617  92.104  0.00  0.00     0.018 A 
HETATM   12  C   UNK     0       5.007   9.913  93.150  0.00  0.00     0.021 A 
HETATM   13  C   UNK     0       3.966  10.819  92.952  0.00  0.00     0.010 A 
BRANCH  11  14
HETATM   14  C   UNK     0       6.949   8.688  92.307  0.00  0.00    -0.061 C 
HETATM   15  C   UNK     0       7.847   7.908  92.478  0.00  0.00    -0.061 C 
BRANCH  15  16
HETATM   16  C   UNK     0       8.915   6.980  92.682  0.00  0.00     0.018 A 
HETATM   17  C   UNK     0       9.828   6.733  91.657  0.00  0.00     0.022 A 
HETATM   18  C   UNK     0      10.872   5.828  91.856  0.00  0.00     0.018 A 
HETATM   19  C   UNK     0      10.979   5.193  93.075  0.00  0.00     0.032 A 
HETATM   20  C   UNK     0      10.089   5.419  94.105  0.00  0.00     0.018 A 
HETATM   21  C   UNK     0       9.045   6.323  93.905  0.00  0.00     0.022 A 
BRANCH  19  22
HETATM   22  C   UNK     0      12.089   4.228  93.287  0.00  0.00     0.252 C 
HETATM   23  O   UNK     0      11.945   3.316  94.097  0.00  0.00    -0.268 OA
HETATM   24  N   UNK     0      13.224   4.428  92.512  0.00  0.00    -0.341 N 
HETATM   25  H   UNK     0      13.261   5.189  91.844  0.00  0.00     0.163 HD
BRANCH  24  26
HETATM   26  C   UNK     0      14.374   3.563  92.584  0.00  0.00     0.207 C 
BRANCH  26  27
HETATM   27  C   UNK     0      15.300   3.904  93.759  0.00  0.00     0.146 C 
HETATM   28  C   UNK     0      16.496   2.963  93.852  0.00  0.00     0.042 C 
BRANCH  27  29
HETATM   29  O   UNK     0      15.774   5.243  93.619  0.00  0.00    -0.393 OA
HETATM   30  H   UNK     0      16.456   5.255  92.927  0.00  0.00     0.210 HD
ENDBRANCH  27  29
ENDBRANCH  26  27
BRANCH  26  31
HETATM   31  C   UNK     0      13.872   2.126  92.673  0.00  0.00     0.266 C 
HETATM   32  O   UNK     0      14.403   1.274  93.383  0.00  0.00    -0.269 OA
HETATM   33  N   UNK     0      12.797   1.899  91.848  0.00  0.00    -0.236 N 
HETATM   34  H   UNK     0      12.393   2.551  91.186  0.00  0.00     0.197 HD
BRANCH  33  35
HETATM   35  O   UNK     0      12.298   0.589  91.842  0.00  0.00    -0.287 OA
HETATM   36  H   UNK     0      11.953   0.530  92.749  0.00  0.00     0.244 HD
ENDBRANCH  33  35
ENDBRANCH  26  31
ENDBRANCH  24  26
ENDBRANCH  19  22
ENDBRANCH  15  16
ENDBRANCH  11  14
ENDBRANCH   7   8
ENDBRANCH   2   7
TORSDOF 10
ENDMDL
MODEL 9
REMARK VINA RESULT:      -4.1      2.180     12.618
REMARK  10 active torsions:
REMARK  status: ('A' for Active; 'I' for Inactive)
REMARK    1  A    between atoms: O_2  and  C_18 
REMARK    2  A    between atoms: O_5  and  N_8 
REMARK    3  A    between atoms: N_6  and  C_11 
REMARK    4  A    between atoms: N_7  and  C_15 
REMARK       I    between atoms: N_7  and  C_24 
REMARK       I    between atoms: N_8  and  C_23 
REMARK    5  A    between atoms: C_11  and  C_14 
REMARK    6  A    between atoms: C_15  and  C_18 
REMARK    7  A    between atoms: C_15  and  C_23 
REMARK    8  A    between atoms: C_21  and  C_26 
REMARK    9  A    between atoms: C_24  and  C_25 
REMARK   10  A    between atoms: C_29  and  C_32 
ROOT
HETATM    1  O   UNK     0       2.523  14.053  89.870  0.00  0.00    -0.388 OA
HETATM    2  N   UNK     0       3.459  12.744  92.218  0.00  0.00     0.096 N 
HETATM    3  C   UNK     0       3.511  12.091  90.902  0.00  0.00     0.299 C 
HETATM    4  C   UNK     0       2.342  13.696  92.263  0.00  0.00     0.299 C 
HETATM    5  C   UNK     0       3.627  13.147  89.806  0.00  0.00     0.198 C 
HETATM    6  C   UNK     0       2.483  14.714  91.135  0.00  0.00     0.198 C 
ENDROOT
BRANCH   2   7
HETATM    7  C   UNK     0       3.337  11.750  93.284  0.00  0.00     0.311 C 
BRANCH   7   8
HETATM    8  C   UNK     0       4.420  10.727  93.233  0.00  0.00    -0.030 A 
HETATM    9  C   UNK     0       4.120   9.412  92.876  0.00  0.00     0.010 A 
HETATM   10  C   UNK     0       5.132   8.453  92.830  0.00  0.00     0.021 A 
HETATM   11  C   UNK     0       6.444   8.811  93.138  0.00  0.00     0.018 A 
HETATM   12  C   UNK     0       6.745  10.124  93.494  0.00  0.00     0.021 A 
HETATM   13  C   UNK     0       5.733  11.083  93.541  0.00  0.00     0.010 A 
BRANCH  11  14
HETATM   14  C   UNK     0       7.482   7.828  93.088  0.00  0.00    -0.061 C 
HETATM   15  C   UNK     0       8.355   7.002  93.047  0.00  0.00    -0.061 C 
BRANCH  15  16
HETATM   16  C   UNK     0       9.391   6.020  92.999  0.00  0.00     0.018 A 
HETATM   17  C   UNK     0      10.236   5.844  94.096  0.00  0.00     0.022 A 
HETATM   18  C   UNK     0      11.247   4.884  94.050  0.00  0.00     0.018 A 
HETATM   19  C   UNK     0      11.391   4.121  92.910  0.00  0.00     0.032 A 
HETATM   20  C   UNK     0      10.570   4.275  91.812  0.00  0.00     0.018 A 
HETATM   21  C   UNK     0       9.559   5.236  91.857  0.00  0.00     0.022 A 
BRANCH  19  22
HETATM   22  C   UNK     0      12.469   3.100  92.861  0.00  0.00     0.252 C 
HETATM   23  O   UNK     0      12.177   1.930  92.623  0.00  0.00    -0.268 OA
HETATM   24  N   UNK     0      13.759   3.567  93.070  0.00  0.00    -0.341 N 
HETATM   25  H   UNK     0      13.927   4.553  93.236  0.00  0.00     0.163 HD
BRANCH  24  26
HETATM   26  C   UNK     0      14.913   2.705  93.029  0.00  0.00     0.207 C 
BRANCH  26  27
HETATM   27  C   UNK     0      15.220   2.191  91.617  0.00  0.00     0.146 C 
HETATM   28  C   UNK     0      14.616   3.073  90.530  0.00  0.00     0.042 C 
BRANCH  27  29
HETATM   29  O   UNK     0      16.633   2.126  91.430  0.00  0.00    -0.393 OA
HETATM   30  H   UNK     0      16.988   1.437  92.017  0.00  0.00     0.210 HD
ENDBRANCH  27  29
ENDBRANCH  26  27
BRANCH  26  31
HETATM   31  C   UNK     0      16.093   3.479  93.606  0.00  0.00     0.266 C 
HETATM   32  O   UNK     0      17.065   2.930  94.124  0.00  0.00    -0.269 OA
HETATM   33  N   UNK     0      15.919   4.838  93.513  0.00  0.00    -0.236 N 
HETATM   34  H   UNK     0      15.095   5.322  93.175  0.00  0.00     0.197 HD
BRANCH  33  35
HETATM   35  O   UNK     0      16.945   5.624  94.057  0.00  0.00    -0.287 OA
HETATM   36  H   UNK     0      16.440   6.413  94.317  0.00  0.00     0.244 HD
ENDBRANCH  33  35
ENDBRANCH  26  31
ENDBRANCH  24  26
ENDBRANCH  19  22
ENDBRANCH  15  16
ENDBRANCH  11  14
ENDBRANCH   7   8
ENDBRANCH   2   7
TORSDOF 10
ENDMDL
