MODEL 1
REMARK VINA RESULT:      -6.4      0.000      0.000
REMARK  12 active torsions:
REMARK  status: ('A' for Active; 'I' for Inactive)
REMARK    1  A    between atoms: O_2  and  C_16 
REMARK    2  A    between atoms: N_5  and  C_9 
REMARK    3  A    between atoms: N_6  and  C_13 
REMARK       I    between atoms: N_6  and  C_22 
REMARK    4  A    between atoms: C_9  and  C_12 
REMARK    5  A    between atoms: C_13  and  C_16 
REMARK    6  A    between atoms: C_13  and  C_21 
REMARK    7  A    between atoms: C_19  and  C_24 
REMARK    8  A    between atoms: C_21  and  C_33 
REMARK    9  A    between atoms: C_22  and  C_23 
REMARK   10  A    between atoms: C_27  and  C_30 
REMARK   11  A    between atoms: C_33  and  C_34 
REMARK   12  A    between atoms: C_34  and  C_35 
ROOT
HETATM    1  O   UNL     1      16.330   4.309  94.124  1.00  0.00    -0.350 OA
HETATM    2  N   UNL     1      14.610   2.595  92.638  1.00  0.00     0.147 N 
HETATM    3  C   UNL     1      14.415   4.052  92.655  1.00  0.00     0.283 C 
HETATM    4  C   UNL     1      15.236   2.156  93.893  1.00  0.00     0.283 C 
HETATM    5  C   UNL     1      15.752   4.750  92.894  1.00  0.00     0.178 C 
HETATM    6  C   UNL     1      16.551   2.898  94.103  1.00  0.00     0.178 C 
ENDROOT
BRANCH   2   7
HETATM    7  C   UNL     1      13.340   1.905  92.420  1.00  0.00     0.277 C 
BRANCH   7   8
HETATM    8  C   UNL     1      12.199   2.852  92.260  1.00  0.00     0.011 A 
HETATM    9  C   UNL     1      11.563   2.973  91.024  1.00  0.00    -0.002 A 
HETATM   10  C   UNL     1      10.497   3.860  90.872  1.00  0.00     0.008 A 
HETATM   11  C   UNL     1      10.068   4.624  91.957  1.00  0.00     0.042 A 
HETATM   12  C   UNL     1      10.702   4.504  93.191  1.00  0.00     0.008 A 
HETATM   13  C   UNL     1      11.768   3.617  93.344  1.00  0.00    -0.002 A 
BRANCH  11  14
HETATM   14  C   UNL     1       8.973   5.532  91.801  1.00  0.00    -0.059 C 
HETATM   15  C   UNL     1       8.053   6.294  91.671  1.00  0.00    -0.059 C 
BRANCH  15  16
HETATM   16  C   UNL     1       6.958   7.202  91.516  1.00  0.00     0.042 A 
HETATM   17  C   UNL     1       5.899   6.877  90.668  1.00  0.00     0.008 A 
HETATM   18  C   UNL     1       4.831   7.761  90.520  1.00  0.00     0.005 A 
HETATM   19  C   UNL     1       4.844   8.948  91.222  1.00  0.00     0.056 A 
HETATM   20  C   UNL     1       5.880   9.292  92.066  1.00  0.00     0.005 A 
HETATM   21  C   UNL     1       6.949   8.409  92.215  1.00  0.00     0.008 A 
BRANCH  19  22
HETATM   22  C   UNL     1       3.706   9.890  91.062  1.00  0.00     0.254 C 
HETATM   23  O   UNL     1       2.659   9.485  90.564  1.00  0.00    -0.268 OA
HETATM   24  N   UNL     1       3.917  11.182  91.523  1.00  0.00    -0.335 N 
HETATM   25  HN  UNL     1       4.802  11.437  91.946  1.00  0.00     0.164 HD
BRANCH  24  26
HETATM   26  C   UNL     1       2.903  12.203  91.460  1.00  0.00     0.166 C 
BRANCH  26  27
HETATM   27  C   UNL     1       2.840  13.057  92.733  1.00  0.00     0.138 C 
HETATM   28  C   UNL     1       4.211  13.253  93.372  1.00  0.00     0.034 C 
BRANCH  27  29
HETATM   29  O   UNL     1       2.286  14.335  92.423  1.00  0.00    -0.383 OA
HETATM   30  H   UNL     1       2.427  14.507  91.477  1.00  0.00     0.210 HD
ENDBRANCH  27  29
ENDBRANCH  26  27
BRANCH  26  31
HETATM   31  C   UNL     1       3.181  13.061  90.230  1.00  0.00     0.181 C 
HETATM   32  O   UNL     1       2.605  14.125  90.012  1.00  0.00    -0.294 OA
BRANCH  31  33
HETATM   33  C   UNL     1       4.764  13.357  90.047  1.00  0.00     0.138 C 
BRANCH  33  34
HETATM   34  C   UNL     1       5.046  12.622  88.874  1.00  0.00     0.208 C 
HETATM   35  O   UNL     1       6.197  12.284  88.721  1.00  0.00    -0.289 OA
BRANCH  34  36
HETATM   36  C   UNL     1       4.207  11.973  88.010  1.00  0.00     0.194 C 
HETATM   37  O   UNL     1       4.132  10.618  87.669  1.00  0.00    -0.185 OA
ENDBRANCH  34  36
ENDBRANCH  33  34
ENDBRANCH  31  33
ENDBRANCH  26  31
ENDBRANCH  24  26
ENDBRANCH  19  22
ENDBRANCH  15  16
ENDBRANCH  11  14
ENDBRANCH   7   8
ENDBRANCH   2   7
TORSDOF 12
ENDMDL
MODEL 2
REMARK VINA RESULT:      -6.3      1.249      1.835
REMARK  12 active torsions:
REMARK  status: ('A' for Active; 'I' for Inactive)
REMARK    1  A    between atoms: O_2  and  C_16 
REMARK    2  A    between atoms: N_5  and  C_9 
REMARK    3  A    between atoms: N_6  and  C_13 
REMARK       I    between atoms: N_6  and  C_22 
REMARK    4  A    between atoms: C_9  and  C_12 
REMARK    5  A    between atoms: C_13  and  C_16 
REMARK    6  A    between atoms: C_13  and  C_21 
REMARK    7  A    between atoms: C_19  and  C_24 
REMARK    8  A    between atoms: C_21  and  C_33 
REMARK    9  A    between atoms: C_22  and  C_23 
REMARK   10  A    between atoms: C_27  and  C_30 
REMARK   11  A    between atoms: C_33  and  C_34 
REMARK   12  A    between atoms: C_34  and  C_35 
ROOT
HETATM    1  O   UNL     1      16.414   2.840  93.980  1.00  0.00    -0.350 OA
HETATM    2  N   UNL     1      13.870   2.913  92.705  1.00  0.00     0.147 N 
HETATM    3  C   UNL     1      14.598   1.650  92.895  1.00  0.00     0.283 C 
HETATM    4  C   UNL     1      14.819   4.029  92.591  1.00  0.00     0.283 C 
HETATM    5  C   UNL     1      15.498   1.753  94.124  1.00  0.00     0.178 C 
HETATM    6  C   UNL     1      15.714   4.075  93.826  1.00  0.00     0.178 C 
ENDROOT
BRANCH   2   7
HETATM    7  C   UNL     1      13.009   2.841  91.526  1.00  0.00     0.277 C 
BRANCH   7   8
HETATM    8  C   UNL     1      11.857   3.784  91.606  1.00  0.00     0.011 A 
HETATM    9  C   UNL     1      11.405   4.228  92.849  1.00  0.00    -0.002 A 
HETATM   10  C   UNL     1      10.326   5.108  92.925  1.00  0.00     0.008 A 
HETATM   11  C   UNL     1       9.702   5.547  91.758  1.00  0.00     0.042 A 
HETATM   12  C   UNL     1      10.153   5.105  90.515  1.00  0.00     0.008 A 
HETATM   13  C   UNL     1      11.231   4.224  90.439  1.00  0.00    -0.002 A 
BRANCH  11  14
HETATM   14  C   UNL     1       8.596   6.452  91.835  1.00  0.00    -0.059 C 
HETATM   15  C   UNL     1       7.667   7.212  91.901  1.00  0.00    -0.059 C 
BRANCH  15  16
HETATM   16  C   UNL     1       6.563   8.117  91.980  1.00  0.00     0.042 A 
HETATM   17  C   UNL     1       5.305   7.722  91.524  1.00  0.00     0.008 A 
HETATM   18  C   UNL     1       4.227   8.604  91.604  1.00  0.00     0.005 A 
HETATM   19  C   UNL     1       4.430   9.859  92.138  1.00  0.00     0.056 A 
HETATM   20  C   UNL     1       5.664  10.273  92.595  1.00  0.00     0.005 A 
HETATM   21  C   UNL     1       6.743   9.392  92.516  1.00  0.00     0.008 A 
BRANCH  19  22
HETATM   22  C   UNL     1       3.282  10.798  92.220  1.00  0.00     0.254 C 
HETATM   23  O   UNL     1       2.187  10.376  92.581  1.00  0.00    -0.268 OA
HETATM   24  N   UNL     1       3.554  12.120  91.897  1.00  0.00    -0.335 N 
HETATM   25  HN  UNL     1       4.490  12.401  91.631  1.00  0.00     0.164 HD
BRANCH  24  26
HETATM   26  C   UNL     1       2.552  13.154  91.952  1.00  0.00     0.166 C 
BRANCH  26  27
HETATM   27  C   UNL     1       2.614  13.973  93.247  1.00  0.00     0.138 C 
HETATM   28  C   UNL     1       4.035  14.112  93.782  1.00  0.00     0.034 C 
BRANCH  27  29
HETATM   29  O   UNL     1       2.077  15.275  93.016  1.00  0.00    -0.383 OA
HETATM   30  H   UNL     1       2.454  15.882  93.675  1.00  0.00     0.210 HD
ENDBRANCH  27  29
ENDBRANCH  26  27
BRANCH  26  31
HETATM   31  C   UNL     1       2.731  14.042  90.725  1.00  0.00     0.181 C 
HETATM   32  O   UNL     1       1.893  14.870  90.370  1.00  0.00    -0.294 OA
BRANCH  31  33
HETATM   33  C   UNL     1       4.153  14.819  90.746  1.00  0.00     0.138 C 
BRANCH  33  34
HETATM   34  C   UNL     1       4.583  14.639  89.413  1.00  0.00     0.208 C 
HETATM   35  O   UNL     1       5.018  15.621  88.857  1.00  0.00    -0.289 OA
BRANCH  34  36
HETATM   36  C   UNL     1       4.866  13.495  88.719  1.00  0.00     0.194 C 
HETATM   37  O   UNL     1       5.177  13.311  87.367  1.00  0.00    -0.185 OA
ENDBRANCH  34  36
ENDBRANCH  33  34
ENDBRANCH  31  33
ENDBRANCH  26  31
ENDBRANCH  24  26
ENDBRANCH  19  22
ENDBRANCH  15  16
ENDBRANCH  11  14
ENDBRANCH   7   8
ENDBRANCH   2   7
TORSDOF 12
ENDMDL
MODEL 3
REMARK VINA RESULT:      -6.1      2.663     12.583
REMARK  12 active torsions:
REMARK  status: ('A' for Active; 'I' for Inactive)
REMARK    1  A    between atoms: O_2  and  C_16 
REMARK    2  A    between atoms: N_5  and  C_9 
REMARK    3  A    between atoms: N_6  and  C_13 
REMARK       I    between atoms: N_6  and  C_22 
REMARK    4  A    between atoms: C_9  and  C_12 
REMARK    5  A    between atoms: C_13  and  C_16 
REMARK    6  A    between atoms: C_13  and  C_21 
REMARK    7  A    between atoms: C_19  and  C_24 
REMARK    8  A    between atoms: C_21  and  C_33 
REMARK    9  A    between atoms: C_22  and  C_23 
REMARK   10  A    between atoms: C_27  and  C_30 
REMARK   11  A    between atoms: C_33  and  C_34 
REMARK   12  A    between atoms: C_34  and  C_35 
ROOT
HETATM    1  O   UNL     1       2.937  14.814  94.026  1.00  0.00    -0.350 OA
HETATM    2  N   UNL     1       2.740  14.536  91.200  1.00  0.00     0.147 N 
HETATM    3  C   UNL     1       1.698  14.017  92.098  1.00  0.00     0.283 C 
HETATM    4  C   UNL     1       4.040  14.533  91.884  1.00  0.00     0.283 C 
HETATM    5  C   UNL     1       1.662  14.843  93.381  1.00  0.00     0.178 C 
HETATM    6  C   UNL     1       3.950  15.345  93.172  1.00  0.00     0.178 C 
ENDROOT
BRANCH   2   7
HETATM    7  C   UNL     1       2.799  13.751  89.968  1.00  0.00     0.277 C 
BRANCH   7   8
HETATM    8  C   UNL     1       3.769  12.623  90.059  1.00  0.00     0.011 A 
HETATM    9  C   UNL     1       3.459  11.498  90.824  1.00  0.00    -0.002 A 
HETATM   10  C   UNL     1       4.367  10.443  90.911  1.00  0.00     0.008 A 
HETATM   11  C   UNL     1       5.583  10.512  90.232  1.00  0.00     0.042 A 
HETATM   12  C   UNL     1       5.893  11.635  89.467  1.00  0.00     0.008 A 
HETATM   13  C   UNL     1       4.986  12.691  89.380  1.00  0.00    -0.002 A 
BRANCH  11  14
HETATM   14  C   UNL     1       6.513   9.429  90.319  1.00  0.00    -0.059 C 
HETATM   15  C   UNL     1       7.295   8.518  90.393  1.00  0.00    -0.059 C 
BRANCH  15  16
HETATM   16  C   UNL     1       8.225   7.436  90.481  1.00  0.00     0.042 A 
HETATM   17  C   UNL     1       7.993   6.390  91.374  1.00  0.00     0.008 A 
HETATM   18  C   UNL     1       8.899   5.332  91.459  1.00  0.00     0.005 A 
HETATM   19  C   UNL     1      10.015   5.345  90.649  1.00  0.00     0.056 A 
HETATM   20  C   UNL     1      10.267   6.368  89.758  1.00  0.00     0.005 A 
HETATM   21  C   UNL     1       9.362   7.425  89.673  1.00  0.00     0.008 A 
BRANCH  19  22
HETATM   22  C   UNL     1      10.981   4.219  90.740  1.00  0.00     0.254 C 
HETATM   23  O   UNL     1      10.765   3.191  90.104  1.00  0.00    -0.268 OA
HETATM   24  N   UNL     1      12.093   4.437  91.541  1.00  0.00    -0.335 N 
HETATM   25  HN  UNL     1      12.218   5.322  92.017  1.00  0.00     0.164 HD
BRANCH  24  26
HETATM   26  C   UNL     1      13.131   3.451  91.711  1.00  0.00     0.166 C 
BRANCH  26  27
HETATM   27  C   UNL     1      14.410   3.797  90.939  1.00  0.00     0.138 C 
HETATM   28  C   UNL     1      14.373   3.302  89.497  1.00  0.00     0.034 C 
BRANCH  27  29
HETATM   29  O   UNL     1      14.601   5.211  90.939  1.00  0.00    -0.383 OA
HETATM   30  H   UNL     1      15.211   5.437  90.217  1.00  0.00     0.210 HD
ENDBRANCH  27  29
ENDBRANCH  26  27
BRANCH  26  31
HETATM   31  C   UNL     1      13.404   3.316  93.205  1.00  0.00     0.181 C 
HETATM   32  O   UNL     1      12.522   3.085  94.030  1.00  0.00    -0.294 OA
BRANCH  31  33
HETATM   33  C   UNL     1      14.593   2.256  93.507  1.00  0.00     0.138 C 
BRANCH  33  34
HETATM   34  C   UNL     1      15.686   3.124  93.720  1.00  0.00     0.208 C 
HETATM   35  O   UNL     1      16.743   2.777  93.243  1.00  0.00    -0.289 OA
BRANCH  34  36
HETATM   36  C   UNL     1      15.716   4.431  94.124  1.00  0.00     0.194 C 
HETATM   37  O   UNL     1      16.280   5.555  93.510  1.00  0.00    -0.185 OA
ENDBRANCH  34  36
ENDBRANCH  33  34
ENDBRANCH  31  33
ENDBRANCH  26  31
ENDBRANCH  24  26
ENDBRANCH  19  22
ENDBRANCH  15  16
ENDBRANCH  11  14
ENDBRANCH   7   8
ENDBRANCH   2   7
TORSDOF 12
ENDMDL
MODEL 4
REMARK VINA RESULT:      -5.3      3.014     12.141
REMARK  12 active torsions:
REMARK  status: ('A' for Active; 'I' for Inactive)
REMARK    1  A    between atoms: O_2  and  C_16 
REMARK    2  A    between atoms: N_5  and  C_9 
REMARK    3  A    between atoms: N_6  and  C_13 
REMARK       I    between atoms: N_6  and  C_22 
REMARK    4  A    between atoms: C_9  and  C_12 
REMARK    5  A    between atoms: C_13  and  C_16 
REMARK    6  A    between atoms: C_13  and  C_21 
REMARK    7  A    between atoms: C_19  and  C_24 
REMARK    8  A    between atoms: C_21  and  C_33 
REMARK    9  A    between atoms: C_22  and  C_23 
REMARK   10  A    between atoms: C_27  and  C_30 
REMARK   11  A    between atoms: C_33  and  C_34 
REMARK   12  A    between atoms: C_34  and  C_35 
ROOT
HETATM    1  O   UNL     1       2.971  14.862  93.964  1.00  0.00    -0.350 OA
HETATM    2  N   UNL     1       2.607  14.830  91.141  1.00  0.00     0.147 N 
HETATM    3  C   UNL     1       1.698  14.106  92.040  1.00  0.00     0.283 C 
HETATM    4  C   UNL     1       3.945  14.921  91.743  1.00  0.00     0.283 C 
HETATM    5  C   UNL     1       1.659  14.796  93.401  1.00  0.00     0.178 C 
HETATM    6  C   UNL     1       3.853  15.591  93.110  1.00  0.00     0.178 C 
ENDROOT
BRANCH   2   7
HETATM    7  C   UNL     1       2.669  14.179  89.833  1.00  0.00     0.277 C 
BRANCH   7   8
HETATM    8  C   UNL     1       3.655  13.062  89.801  1.00  0.00     0.011 A 
HETATM    9  C   UNL     1       3.317  11.819  90.338  1.00  0.00    -0.002 A 
HETATM   10  C   UNL     1       4.239  10.773  90.310  1.00  0.00     0.008 A 
HETATM   11  C   UNL     1       5.498  10.970  89.743  1.00  0.00     0.042 A 
HETATM   12  C   UNL     1       5.836  12.210  89.207  1.00  0.00     0.008 A 
HETATM   13  C   UNL     1       4.915  13.257  89.235  1.00  0.00    -0.002 A 
BRANCH  11  14
HETATM   14  C   UNL     1       6.443   9.897  89.713  1.00  0.00    -0.059 C 
HETATM   15  C   UNL     1       7.238   8.995  89.688  1.00  0.00    -0.059 C 
BRANCH  15  16
HETATM   16  C   UNL     1       8.183   7.922  89.658  1.00  0.00     0.042 A 
HETATM   17  C   UNL     1       7.818   6.660  90.126  1.00  0.00     0.008 A 
HETATM   18  C   UNL     1       8.740   5.613  90.095  1.00  0.00     0.005 A 
HETATM   19  C   UNL     1      10.003   5.851  89.596  1.00  0.00     0.056 A 
HETATM   20  C   UNL     1      10.388   7.090  89.128  1.00  0.00     0.005 A 
HETATM   21  C   UNL     1       9.468   8.138  89.159  1.00  0.00     0.008 A 
BRANCH  19  22
HETATM   22  C   UNL     1      10.985   4.736  89.565  1.00  0.00     0.254 C 
HETATM   23  O   UNL     1      11.091   4.059  88.545  1.00  0.00    -0.268 OA
HETATM   24  N   UNL     1      11.741   4.560  90.715  1.00  0.00    -0.335 N 
HETATM   25  HN  UNL     1      11.616   5.175  91.511  1.00  0.00     0.164 HD
BRANCH  24  26
HETATM   26  C   UNL     1      12.751   3.538  90.830  1.00  0.00     0.166 C 
BRANCH  26  27
HETATM   27  C   UNL     1      14.130   4.104  91.192  1.00  0.00     0.138 C 
HETATM   28  C   UNL     1      15.248   3.087  90.994  1.00  0.00     0.034 C 
BRANCH  27  29
HETATM   29  O   UNL     1      14.400   5.252  90.389  1.00  0.00    -0.383 OA
HETATM   30  H   UNL     1      13.553   5.664  90.151  1.00  0.00     0.210 HD
ENDBRANCH  27  29
ENDBRANCH  26  27
BRANCH  26  31
HETATM   31  C   UNL     1      12.275   2.529  91.870  1.00  0.00     0.181 C 
HETATM   32  O   UNL     1      12.775   1.413  91.998  1.00  0.00    -0.294 OA
BRANCH  31  33
HETATM   33  C   UNL     1      12.223   3.174  93.356  1.00  0.00     0.138 C 
BRANCH  33  34
HETATM   34  C   UNL     1      11.108   4.033  93.242  1.00  0.00     0.208 C 
HETATM   35  O   UNL     1      10.107   3.547  92.768  1.00  0.00    -0.289 OA
BRANCH  34  36
HETATM   36  C   UNL     1      10.855   5.242  93.830  1.00  0.00     0.194 C 
HETATM   37  O   UNL     1       9.947   6.247  93.479  1.00  0.00    -0.185 OA
ENDBRANCH  34  36
ENDBRANCH  33  34
ENDBRANCH  31  33
ENDBRANCH  26  31
ENDBRANCH  24  26
ENDBRANCH  19  22
ENDBRANCH  15  16
ENDBRANCH  11  14
ENDBRANCH   7   8
ENDBRANCH   2   7
TORSDOF 12
ENDMDL
