MODEL 1
REMARK VINA RESULT:      -5.1      0.000      0.000
REMARK  12 active torsions:
REMARK  status: ('A' for Active; 'I' for Inactive)
REMARK    1  A    between atoms: O_2  and  C_16 
REMARK    2  A    between atoms: N_5  and  C_9 
REMARK    3  A    between atoms: N_6  and  C_13 
REMARK       I    between atoms: N_6  and  C_22 
REMARK    4  A    between atoms: C_9  and  C_12 
REMARK    5  A    between atoms: C_13  and  C_16 
REMARK    6  A    between atoms: C_13  and  C_21 
REMARK    7  A    between atoms: C_19  and  C_24 
REMARK    8  A    between atoms: C_21  and  C_33 
REMARK    9  A    between atoms: C_22  and  C_23 
REMARK   10  A    between atoms: C_27  and  C_30 
REMARK   11  A    between atoms: C_33  and  C_34 
REMARK   12  A    between atoms: C_34  and  C_35 
ROOT
HETATM    1  O   UNL     1       2.741  14.577  93.913  1.00  0.00    -0.350 OA
HETATM    2  N   UNL     1       2.530  14.721  91.078  1.00  0.00     0.147 N 
HETATM    3  C   UNL     1       1.629  13.876  91.873  1.00  0.00     0.283 C 
HETATM    4  C   UNL     1       3.824  14.859  91.761  1.00  0.00     0.283 C 
HETATM    5  C   UNL     1       1.469  14.464  93.273  1.00  0.00     0.178 C 
HETATM    6  C   UNL     1       3.613  15.423  93.162  1.00  0.00     0.178 C 
ENDROOT
BRANCH   2   7
HETATM    7  C   UNL     1       2.707  14.171  89.735  1.00  0.00     0.277 C 
BRANCH   7   8
HETATM    8  C   UNL     1       3.692  13.052  89.705  1.00  0.00     0.011 A 
HETATM    9  C   UNL     1       3.305  11.772  90.102  1.00  0.00    -0.002 A 
HETATM   10  C   UNL     1       4.226  10.725  90.076  1.00  0.00     0.008 A 
HETATM   11  C   UNL     1       5.534  10.959  89.652  1.00  0.00     0.042 A 
HETATM   12  C   UNL     1       5.922  12.238  89.255  1.00  0.00     0.008 A 
HETATM   13  C   UNL     1       5.001  13.285  89.282  1.00  0.00    -0.002 A 
BRANCH  11  14
HETATM   14  C   UNL     1       6.478   9.885  89.623  1.00  0.00    -0.059 C 
HETATM   15  C   UNL     1       7.272   8.982  89.599  1.00  0.00    -0.059 C 
BRANCH  15  16
HETATM   16  C   UNL     1       8.216   7.909  89.570  1.00  0.00     0.042 A 
HETATM   17  C   UNL     1       9.468   8.099  88.985  1.00  0.00     0.008 A 
HETATM   18  C   UNL     1      10.390   7.052  88.959  1.00  0.00     0.005 A 
HETATM   19  C   UNL     1      10.040   5.841  89.518  1.00  0.00     0.056 A 
HETATM   20  C   UNL     1       8.808   5.628  90.101  1.00  0.00     0.005 A 
HETATM   21  C   UNL     1       7.886   6.674  90.128  1.00  0.00     0.008 A 
BRANCH  19  22
HETATM   22  C   UNL     1      11.022   4.726  89.488  1.00  0.00     0.254 C 
HETATM   23  O   UNL     1      11.139   4.058  88.464  1.00  0.00    -0.268 OA
HETATM   24  N   UNL     1      11.765   4.539  90.645  1.00  0.00    -0.335 N 
HETATM   25  HN  UNL     1      11.631   5.147  91.445  1.00  0.00     0.164 HD
BRANCH  24  26
HETATM   26  C   UNL     1      12.773   3.516  90.763  1.00  0.00     0.166 C 
BRANCH  26  27
HETATM   27  C   UNL     1      14.158   4.083  91.100  1.00  0.00     0.138 C 
HETATM   28  C   UNL     1      15.287   3.133  90.717  1.00  0.00     0.034 C 
BRANCH  27  29
HETATM   29  O   UNL     1      14.345   5.323  90.419  1.00  0.00    -0.383 OA
HETATM   30  H   UNL     1      13.546   5.507  89.896  1.00  0.00     0.210 HD
ENDBRANCH  27  29
ENDBRANCH  26  27
BRANCH  26  31
HETATM   31  C   UNL     1      12.307   2.524  91.823  1.00  0.00     0.181 C 
HETATM   32  O   UNL     1      12.898   1.472  92.061  1.00  0.00    -0.294 OA
BRANCH  31  33
HETATM   33  C   UNL     1      12.067   3.242  93.256  1.00  0.00     0.138 C 
BRANCH  33  34
HETATM   34  C   UNL     1      10.845   3.913  93.025  1.00  0.00     0.208 C 
HETATM   35  O   UNL     1       9.960   3.252  92.533  1.00  0.00    -0.289 OA
BRANCH  34  36
HETATM   36  C   UNL     1      10.380   5.103  93.514  1.00  0.00     0.194 C 
HETATM   37  O   UNL     1      10.496   6.399  92.999  1.00  0.00    -0.185 OA
ENDBRANCH  34  36
ENDBRANCH  33  34
ENDBRANCH  31  33
ENDBRANCH  26  31
ENDBRANCH  24  26
ENDBRANCH  19  22
ENDBRANCH  15  16
ENDBRANCH  11  14
ENDBRANCH   7   8
ENDBRANCH   2   7
TORSDOF 12
ENDMDL
