MODEL 1
REMARK VINA RESULT:      -6.1      0.000      0.000
REMARK  12 active torsions:
REMARK  status: ('A' for Active; 'I' for Inactive)
REMARK    1  A    between atoms: O_2  and  C_16 
REMARK    2  A    between atoms: N_5  and  C_9 
REMARK    3  A    between atoms: N_6  and  C_13 
REMARK       I    between atoms: N_6  and  C_22 
REMARK    4  A    between atoms: C_9  and  C_12 
REMARK    5  A    between atoms: C_13  and  C_16 
REMARK    6  A    between atoms: C_13  and  C_21 
REMARK    7  A    between atoms: C_19  and  C_24 
REMARK    8  A    between atoms: C_21  and  C_33 
REMARK    9  A    between atoms: C_22  and  C_23 
REMARK   10  A    between atoms: C_27  and  C_30 
REMARK   11  A    between atoms: C_33  and  C_34 
REMARK   12  A    between atoms: C_34  and  C_35 
ROOT
HETATM    1  O   UNL     1      16.185   4.295  94.112  1.00  0.00    -0.350 OA
HETATM    2  N   UNL     1      14.543   2.576  92.547  1.00  0.00     0.147 N 
HETATM    3  C   UNL     1      14.360   4.034  92.535  1.00  0.00     0.283 C 
HETATM    4  C   UNL     1      15.088   2.148  93.843  1.00  0.00     0.283 C 
HETATM    5  C   UNL     1      15.686   4.724  92.844  1.00  0.00     0.178 C 
HETATM    6  C   UNL     1      16.395   2.882  94.122  1.00  0.00     0.178 C 
ENDROOT
BRANCH   2   7
HETATM    7  C   UNL     1      13.281   1.893  92.263  1.00  0.00     0.277 C 
BRANCH   7   8
HETATM    8  C   UNL     1      12.155   2.846  92.052  1.00  0.00     0.011 A 
HETATM    9  C   UNL     1      11.612   3.535  93.137  1.00  0.00    -0.002 A 
HETATM   10  C   UNL     1      10.557   4.425  92.941  1.00  0.00     0.008 A 
HETATM   11  C   UNL     1      10.046   4.628  91.659  1.00  0.00     0.042 A 
HETATM   12  C   UNL     1      10.588   3.941  90.574  1.00  0.00     0.008 A 
HETATM   13  C   UNL     1      11.643   3.050  90.770  1.00  0.00    -0.002 A 
BRANCH  11  14
HETATM   14  C   UNL     1       8.965   5.543  91.457  1.00  0.00    -0.059 C 
HETATM   15  C   UNL     1       8.057   6.313  91.288  1.00  0.00    -0.059 C 
BRANCH  15  16
HETATM   16  C   UNL     1       6.977   7.228  91.087  1.00  0.00     0.042 A 
HETATM   17  C   UNL     1       7.206   8.602  91.160  1.00  0.00     0.008 A 
HETATM   18  C   UNL     1       6.153   9.495  90.961  1.00  0.00     0.005 A 
HETATM   19  C   UNL     1       4.896   8.994  90.693  1.00  0.00     0.056 A 
HETATM   20  C   UNL     1       4.644   7.640  90.615  1.00  0.00     0.005 A 
HETATM   21  C   UNL     1       5.696   6.747  90.814  1.00  0.00     0.008 A 
BRANCH  19  22
HETATM   22  C   UNL     1       3.774   9.945  90.482  1.00  0.00     0.254 C 
HETATM   23  O   UNL     1       2.880   9.653  89.692  1.00  0.00    -0.268 OA
HETATM   24  N   UNL     1       3.816  11.111  91.235  1.00  0.00    -0.335 N 
HETATM   25  HN  UNL     1       4.574  11.273  91.887  1.00  0.00     0.164 HD
BRANCH  24  26
HETATM   26  C   UNL     1       2.789  12.119  91.162  1.00  0.00     0.166 C 
BRANCH  26  27
HETATM   27  C   UNL     1       1.839  12.088  92.366  1.00  0.00     0.138 C 
HETATM   28  C   UNL     1       1.707  10.694  92.970  1.00  0.00     0.034 C 
BRANCH  27  29
HETATM   29  O   UNL     1       2.312  12.985  93.370  1.00  0.00    -0.383 OA
HETATM   30  H   UNL     1       1.679  13.719  93.446  1.00  0.00     0.210 HD
ENDBRANCH  27  29
ENDBRANCH  26  27
BRANCH  26  31
HETATM   31  C   UNL     1       3.476  13.474  91.032  1.00  0.00     0.181 C 
HETATM   32  O   UNL     1       4.630  13.679  91.404  1.00  0.00    -0.294 OA
BRANCH  31  33
HETATM   33  C   UNL     1       3.378  14.057  89.522  1.00  0.00     0.138 C 
BRANCH  33  34
HETATM   34  C   UNL     1       4.326  13.249  88.855  1.00  0.00     0.208 C 
HETATM   35  O   UNL     1       3.879  12.356  88.173  1.00  0.00    -0.289 OA
BRANCH  34  36
HETATM   36  C   UNL     1       5.655  13.462  88.608  1.00  0.00     0.194 C 
HETATM   37  O   UNL     1       6.713  12.551  88.509  1.00  0.00    -0.185 OA
ENDBRANCH  34  36
ENDBRANCH  33  34
ENDBRANCH  31  33
ENDBRANCH  26  31
ENDBRANCH  24  26
ENDBRANCH  19  22
ENDBRANCH  15  16
ENDBRANCH  11  14
ENDBRANCH   7   8
ENDBRANCH   2   7
TORSDOF 12
ENDMDL
MODEL 2
REMARK VINA RESULT:      -4.6      2.303     12.667
REMARK  12 active torsions:
REMARK  status: ('A' for Active; 'I' for Inactive)
REMARK    1  A    between atoms: O_2  and  C_16 
REMARK    2  A    between atoms: N_5  and  C_9 
REMARK    3  A    between atoms: N_6  and  C_13 
REMARK       I    between atoms: N_6  and  C_22 
REMARK    4  A    between atoms: C_9  and  C_12 
REMARK    5  A    between atoms: C_13  and  C_16 
REMARK    6  A    between atoms: C_13  and  C_21 
REMARK    7  A    between atoms: C_19  and  C_24 
REMARK    8  A    between atoms: C_21  and  C_33 
REMARK    9  A    between atoms: C_22  and  C_23 
REMARK   10  A    between atoms: C_27  and  C_30 
REMARK   11  A    between atoms: C_33  and  C_34 
REMARK   12  A    between atoms: C_34  and  C_35 
ROOT
HETATM    1  O   UNL     1       3.930  14.854  89.649  1.00  0.00    -0.350 OA
HETATM    2  N   UNL     1       3.058  14.209  92.281  1.00  0.00     0.147 N 
HETATM    3  C   UNL     1       4.436  14.642  92.014  1.00  0.00     0.283 C 
HETATM    4  C   UNL     1       2.505  13.532  91.100  1.00  0.00     0.283 C 
HETATM    5  C   UNL     1       4.466  15.543  90.781  1.00  0.00     0.178 C 
HETATM    6  C   UNL     1       2.580  14.457  89.890  1.00  0.00     0.178 C 
ENDROOT
BRANCH   2   7
HETATM    7  C   UNL     1       3.007  13.336  93.452  1.00  0.00     0.277 C 
BRANCH   7   8
HETATM    8  C   UNL     1       3.979  12.209  93.362  1.00  0.00     0.011 A 
HETATM    9  C   UNL     1       3.670  11.081  92.600  1.00  0.00    -0.002 A 
HETATM   10  C   UNL     1       4.577  10.025  92.517  1.00  0.00     0.008 A 
HETATM   11  C   UNL     1       5.794  10.098  93.195  1.00  0.00     0.042 A 
HETATM   12  C   UNL     1       6.104  11.223  93.956  1.00  0.00     0.008 A 
HETATM   13  C   UNL     1       5.196  12.279  94.040  1.00  0.00    -0.002 A 
BRANCH  11  14
HETATM   14  C   UNL     1       6.725   9.015  93.108  1.00  0.00    -0.059 C 
HETATM   15  C   UNL     1       7.508   8.106  93.034  1.00  0.00    -0.059 C 
BRANCH  15  16
HETATM   16  C   UNL     1       8.440   7.025  92.947  1.00  0.00     0.042 A 
HETATM   17  C   UNL     1       8.212   5.980  92.051  1.00  0.00     0.008 A 
HETATM   18  C   UNL     1       9.123   4.927  91.965  1.00  0.00     0.005 A 
HETATM   19  C   UNL     1      10.239   4.942  92.775  1.00  0.00     0.056 A 
HETATM   20  C   UNL     1      10.486   5.963  93.668  1.00  0.00     0.005 A 
HETATM   21  C   UNL     1       9.576   7.017  93.756  1.00  0.00     0.008 A 
BRANCH  19  22
HETATM   22  C   UNL     1      11.207   3.819  92.683  1.00  0.00     0.254 C 
HETATM   23  O   UNL     1      10.917   2.735  93.183  1.00  0.00    -0.268 OA
HETATM   24  N   UNL     1      12.386   4.086  92.000  1.00  0.00    -0.335 N 
HETATM   25  HN  UNL     1      12.546   4.999  91.592  1.00  0.00     0.164 HD
BRANCH  24  26
HETATM   26  C   UNL     1      13.412   3.093  91.806  1.00  0.00     0.166 C 
BRANCH  26  27
HETATM   27  C   UNL     1      14.464   3.520  90.776  1.00  0.00     0.138 C 
HETATM   28  C   UNL     1      13.988   3.327  89.340  1.00  0.00     0.034 C 
BRANCH  27  29
HETATM   29  O   UNL     1      14.795   4.895  90.973  1.00  0.00    -0.383 OA
HETATM   30  H   UNL     1      14.163   5.436  90.470  1.00  0.00     0.210 HD
ENDBRANCH  27  29
ENDBRANCH  26  27
BRANCH  26  31
HETATM   31  C   UNL     1      14.048   2.809  93.163  1.00  0.00     0.181 C 
HETATM   32  O   UNL     1      13.517   2.101  94.017  1.00  0.00    -0.294 OA
BRANCH  31  33
HETATM   33  C   UNL     1      15.570   2.274  93.015  1.00  0.00     0.138 C 
BRANCH  33  34
HETATM   34  C   UNL     1      16.270   3.215  93.802  1.00  0.00     0.208 C 
HETATM   35  O   UNL     1      17.431   2.962  94.029  1.00  0.00    -0.289 OA
BRANCH  34  36
HETATM   36  C   UNL     1      15.959   4.508  94.124  1.00  0.00     0.194 C 
HETATM   37  O   UNL     1      16.331   5.707  93.507  1.00  0.00    -0.185 OA
ENDBRANCH  34  36
ENDBRANCH  33  34
ENDBRANCH  31  33
ENDBRANCH  26  31
ENDBRANCH  24  26
ENDBRANCH  19  22
ENDBRANCH  15  16
ENDBRANCH  11  14
ENDBRANCH   7   8
ENDBRANCH   2   7
TORSDOF 12
ENDMDL
MODEL 3
REMARK VINA RESULT:      -4.5      1.431      2.916
REMARK  12 active torsions:
REMARK  status: ('A' for Active; 'I' for Inactive)
REMARK    1  A    between atoms: O_2  and  C_16 
REMARK    2  A    between atoms: N_5  and  C_9 
REMARK    3  A    between atoms: N_6  and  C_13 
REMARK       I    between atoms: N_6  and  C_22 
REMARK    4  A    between atoms: C_9  and  C_12 
REMARK    5  A    between atoms: C_13  and  C_16 
REMARK    6  A    between atoms: C_13  and  C_21 
REMARK    7  A    between atoms: C_19  and  C_24 
REMARK    8  A    between atoms: C_21  and  C_33 
REMARK    9  A    between atoms: C_22  and  C_23 
REMARK   10  A    between atoms: C_27  and  C_30 
REMARK   11  A    between atoms: C_33  and  C_34 
REMARK   12  A    between atoms: C_34  and  C_35 
ROOT
HETATM    1  O   UNL     1      16.271   3.923  94.034  1.00  0.00    -0.350 OA
HETATM    2  N   UNL     1      14.368   2.501  92.466  1.00  0.00     0.147 N 
HETATM    3  C   UNL     1      14.497   3.962  92.378  1.00  0.00     0.283 C 
HETATM    4  C   UNL     1      14.758   2.041  93.806  1.00  0.00     0.283 C 
HETATM    5  C   UNL     1      15.925   4.377  92.724  1.00  0.00     0.178 C 
HETATM    6  C   UNL     1      16.178   2.500  94.118  1.00  0.00     0.178 C 
ENDROOT
BRANCH   2   7
HETATM    7  C   UNL     1      13.004   2.082  92.148  1.00  0.00     0.277 C 
BRANCH   7   8
HETATM    8  C   UNL     1      12.088   3.240  91.942  1.00  0.00     0.011 A 
HETATM    9  C   UNL     1      11.634   3.973  93.039  1.00  0.00    -0.002 A 
HETATM   10  C   UNL     1      10.775   5.055  92.847  1.00  0.00     0.008 A 
HETATM   11  C   UNL     1      10.372   5.404  91.558  1.00  0.00     0.042 A 
HETATM   12  C   UNL     1      10.825   4.673  90.462  1.00  0.00     0.008 A 
HETATM   13  C   UNL     1      11.684   3.590  90.654  1.00  0.00    -0.002 A 
BRANCH  11  14
HETATM   14  C   UNL     1       9.493   6.516  91.361  1.00  0.00    -0.059 C 
HETATM   15  C   UNL     1       8.754   7.450  91.195  1.00  0.00    -0.059 C 
BRANCH  15  16
HETATM   16  C   UNL     1       7.875   8.560  90.997  1.00  0.00     0.042 A 
HETATM   17  C   UNL     1       8.086   9.434  89.930  1.00  0.00     0.008 A 
HETATM   18  C   UNL     1       7.227  10.515  89.736  1.00  0.00     0.005 A 
HETATM   19  C   UNL     1       6.177  10.698  90.611  1.00  0.00     0.056 A 
HETATM   20  C   UNL     1       5.948   9.849  91.674  1.00  0.00     0.005 A 
HETATM   21  C   UNL     1       6.807   8.768  91.869  1.00  0.00     0.008 A 
BRANCH  19  22
HETATM   22  C   UNL     1       5.263  11.852  90.405  1.00  0.00     0.254 C 
HETATM   23  O   UNL     1       4.860  12.102  89.272  1.00  0.00    -0.268 OA
HETATM   24  N   UNL     1       4.911  12.559  91.546  1.00  0.00    -0.335 N 
HETATM   25  HN  UNL     1       5.264  12.279  92.453  1.00  0.00     0.164 HD
BRANCH  24  26
HETATM   26  C   UNL     1       4.014  13.687  91.512  1.00  0.00     0.166 C 
BRANCH  26  27
HETATM   27  C   UNL     1       3.602  14.076  90.087  1.00  0.00     0.138 C 
HETATM   28  C   UNL     1       2.144  14.511  89.999  1.00  0.00     0.034 C 
BRANCH  27  29
HETATM   29  O   UNL     1       4.432  15.140  89.623  1.00  0.00    -0.383 OA
HETATM   30  H   UNL     1       5.209  15.196  90.205  1.00  0.00     0.210 HD
ENDBRANCH  27  29
ENDBRANCH  26  27
BRANCH  26  31
HETATM   31  C   UNL     1       2.799  13.341  92.366  1.00  0.00     0.181 C 
HETATM   32  O   UNL     1       1.886  14.136  92.585  1.00  0.00    -0.294 OA
BRANCH  31  33
HETATM   33  C   UNL     1       2.093  11.965  91.880  1.00  0.00     0.138 C 
BRANCH  33  34
HETATM   34  C   UNL     1       2.377  11.113  92.971  1.00  0.00     0.208 C 
HETATM   35  O   UNL     1       2.724  11.656  93.994  1.00  0.00    -0.289 OA
BRANCH  34  36
HETATM   36  C   UNL     1       2.060   9.798  93.175  1.00  0.00     0.194 C 
HETATM   37  O   UNL     1       2.756   8.635  92.825  1.00  0.00    -0.185 OA
ENDBRANCH  34  36
ENDBRANCH  33  34
ENDBRANCH  31  33
ENDBRANCH  26  31
ENDBRANCH  24  26
ENDBRANCH  19  22
ENDBRANCH  15  16
ENDBRANCH  11  14
ENDBRANCH   7   8
ENDBRANCH   2   7
TORSDOF 12
ENDMDL
MODEL 4
REMARK VINA RESULT:      -4.1      1.639      2.145
REMARK  12 active torsions:
REMARK  status: ('A' for Active; 'I' for Inactive)
REMARK    1  A    between atoms: O_2  and  C_16 
REMARK    2  A    between atoms: N_5  and  C_9 
REMARK    3  A    between atoms: N_6  and  C_13 
REMARK       I    between atoms: N_6  and  C_22 
REMARK    4  A    between atoms: C_9  and  C_12 
REMARK    5  A    between atoms: C_13  and  C_16 
REMARK    6  A    between atoms: C_13  and  C_21 
REMARK    7  A    between atoms: C_19  and  C_24 
REMARK    8  A    between atoms: C_21  and  C_33 
REMARK    9  A    between atoms: C_22  and  C_23 
REMARK   10  A    between atoms: C_27  and  C_30 
REMARK   11  A    between atoms: C_33  and  C_34 
REMARK   12  A    between atoms: C_34  and  C_35 
ROOT
HETATM    1  O   UNL     1      15.428   3.803  90.782  1.00  0.00    -0.350 OA
HETATM    2  N   UNL     1      13.385   2.687  92.419  1.00  0.00     0.147 N 
HETATM    3  C   UNL     1      13.102   3.775  91.473  1.00  0.00     0.283 C 
HETATM    4  C   UNL     1      14.779   2.768  92.878  1.00  0.00     0.283 C 
HETATM    5  C   UNL     1      14.084   3.713  90.306  1.00  0.00     0.178 C 
HETATM    6  C   UNL     1      15.721   2.731  91.679  1.00  0.00     0.178 C 
ENDROOT
BRANCH   2   7
HETATM    7  C   UNL     1      12.462   2.733  93.552  1.00  0.00     0.277 C 
BRANCH   7   8
HETATM    8  C   UNL     1      11.319   3.661  93.316  1.00  0.00     0.011 A 
HETATM    9  C   UNL     1      10.413   3.402  92.287  1.00  0.00    -0.002 A 
HETATM   10  C   UNL     1       9.345   4.270  92.064  1.00  0.00     0.008 A 
HETATM   11  C   UNL     1       9.182   5.396  92.871  1.00  0.00     0.042 A 
HETATM   12  C   UNL     1      10.086   5.655  93.900  1.00  0.00     0.008 A 
HETATM   13  C   UNL     1      11.155   4.787  94.123  1.00  0.00    -0.002 A 
BRANCH  11  14
HETATM   14  C   UNL     1       8.085   6.285  92.644  1.00  0.00    -0.059 C 
HETATM   15  C   UNL     1       7.163   7.033  92.453  1.00  0.00    -0.059 C 
BRANCH  15  16
HETATM   16  C   UNL     1       6.067   7.923  92.225  1.00  0.00     0.042 A 
HETATM   17  C   UNL     1       5.385   7.890  91.008  1.00  0.00     0.008 A 
HETATM   18  C   UNL     1       4.314   8.756  90.787  1.00  0.00     0.005 A 
HETATM   19  C   UNL     1       3.949   9.634  91.787  1.00  0.00     0.056 A 
HETATM   20  C   UNL     1       4.608   9.686  92.997  1.00  0.00     0.005 A 
HETATM   21  C   UNL     1       5.679   8.820  93.219  1.00  0.00     0.008 A 
BRANCH  19  22
HETATM   22  C   UNL     1       2.810  10.558  91.550  1.00  0.00     0.254 C 
HETATM   23  O   UNL     1       1.704  10.091  91.286  1.00  0.00    -0.268 OA
HETATM   24  N   UNL     1       3.089  11.912  91.673  1.00  0.00    -0.335 N 
HETATM   25  HN  UNL     1       4.022  12.223  91.918  1.00  0.00     0.164 HD
BRANCH  24  26
HETATM   26  C   UNL     1       2.085  12.930  91.497  1.00  0.00     0.166 C 
BRANCH  26  27
HETATM   27  C   UNL     1       1.572  13.493  92.828  1.00  0.00     0.138 C 
HETATM   28  C   UNL     1       1.206  12.398  93.824  1.00  0.00     0.034 C 
BRANCH  27  29
HETATM   29  O   UNL     1       2.571  14.332  93.408  1.00  0.00    -0.383 OA
HETATM   30  H   UNL     1       2.126  15.009  93.945  1.00  0.00     0.210 HD
ENDBRANCH  27  29
ENDBRANCH  26  27
BRANCH  26  31
HETATM   31  C   UNL     1       2.682  14.028  90.623  1.00  0.00     0.181 C 
HETATM   32  O   UNL     1       2.372  15.213  90.732  1.00  0.00    -0.294 OA
BRANCH  31  33
HETATM   33  C   UNL     1       4.303  13.983  90.623  1.00  0.00     0.138 C 
BRANCH  33  34
HETATM   34  C   UNL     1       4.575  13.931  89.238  1.00  0.00     0.208 C 
HETATM   35  O   UNL     1       5.050  14.931  88.752  1.00  0.00    -0.289 OA
BRANCH  34  36
HETATM   36  C   UNL     1       4.666  12.861  88.391  1.00  0.00     0.194 C 
HETATM   37  O   UNL     1       4.019  11.621  88.428  1.00  0.00    -0.185 OA
ENDBRANCH  34  36
ENDBRANCH  33  34
ENDBRANCH  31  33
ENDBRANCH  26  31
ENDBRANCH  24  26
ENDBRANCH  19  22
ENDBRANCH  15  16
ENDBRANCH  11  14
ENDBRANCH   7   8
ENDBRANCH   2   7
TORSDOF 12
ENDMDL
