MODEL 1
REMARK VINA RESULT:      -7.6      0.000      0.000
REMARK  9 active torsions:
REMARK  status: ('A' for Active; 'I' for Inactive)
REMARK    1  A    between atoms: N_3  and  C_6 
REMARK    2  A    between atoms: C_6  and  C_9 
REMARK    3  A    between atoms: C_14  and  C_17 
REMARK       I    between atoms: N_26  and  C_15 
REMARK    4  A    between atoms: C_15  and  C_16 
REMARK    5  A    between atoms: C_20  and  C_23 
REMARK    6  A    between atoms: OG1_24  and  CB_28 
REMARK    7  A    between atoms: N_26  and  CA_27 
REMARK    8  A    between atoms: CA_27  and  CB_28 
REMARK    9  A    between atoms: CA_27  and  C_30 
ROOT
HETATM    1  O   UNK A   0       1.960   8.155  87.912  1.00  0.00    -0.388 OA
HETATM    2  N   UNK A   0       4.734   7.544  87.715  1.00  0.00     0.096 N 
HETATM    3  C   UNK A   0       4.256   8.932  87.791  1.00  0.00     0.299 C 
HETATM    4  C   UNK A   0       3.713   6.695  87.086  1.00  0.00     0.299 C 
HETATM    5  C   UNK A   0       2.933   8.983  88.552  1.00  0.00     0.198 C 
HETATM    6  C   UNK A   0       2.403   6.798  87.862  1.00  0.00     0.198 C 
ENDROOT
BRANCH   2   7
HETATM    7  C   UNK A   0       5.995   7.471  86.981  1.00  0.00     0.311 C 
BRANCH   7   8
HETATM    8  C   UNK A   0       7.093   6.876  87.795  1.00  0.00    -0.030 A 
HETATM    9  C   UNK A   0       8.333   6.616  87.210  1.00  0.00     0.010 A 
HETATM   10  C   UNK A   0       9.359   6.057  87.971  1.00  0.00     0.021 A 
HETATM   11  C   UNK A   0       9.146   5.760  89.317  1.00  0.00     0.018 A 
HETATM   12  C   UNK A   0       7.909   6.020  89.902  1.00  0.00     0.021 A 
HETATM   13  C   UNK A   0       6.882   6.578  89.142  1.00  0.00     0.010 A 
BRANCH  11  14
HETATM   14  C   UNK A   0      10.200   5.189  90.098  1.00  0.00    -0.061 C 
HETATM   15  C   UNK A   0      11.086   4.709  90.754  1.00  0.00    -0.061 C 
BRANCH  15  16
HETATM   16  C   UNK A   0      12.140   4.138  91.533  1.00  0.00     0.018 A 
HETATM   17  C   UNK A   0      11.912   3.793  92.866  1.00  0.00     0.022 A 
HETATM   18  C   UNK A   0      12.940   3.234  93.625  1.00  0.00     0.018 A 
HETATM   19  C   UNK A   0      14.170   3.031  93.036  1.00  0.00     0.032 A 
HETATM   20  C   UNK A   0      14.420   3.364  91.721  1.00  0.00     0.018 A 
HETATM   21  C   UNK A   0      13.394   3.923  90.961  1.00  0.00     0.022 A 
BRANCH  19  22
HETATM   22  C   UNK A   0      15.265   2.437  93.846  1.00  0.00     0.252 C 
HETATM   23  O   UNK A   0      16.302   3.074  94.012  1.00  0.00    -0.268 OA
ENDBRANCH  19  22
ENDBRANCH  15  16
ENDBRANCH  11  14
ENDBRANCH   7   8
ENDBRANCH   2   7
TORSDOF 9
ENDMDL
MODEL 2
REMARK VINA RESULT:      -7.5      0.173      1.020
REMARK  9 active torsions:
REMARK  status: ('A' for Active; 'I' for Inactive)
REMARK    1  A    between atoms: N_3  and  C_6 
REMARK    2  A    between atoms: C_6  and  C_9 
REMARK    3  A    between atoms: C_14  and  C_17 
REMARK       I    between atoms: N_26  and  C_15 
REMARK    4  A    between atoms: C_15  and  C_16 
REMARK    5  A    between atoms: C_20  and  C_23 
REMARK    6  A    between atoms: OG1_24  and  CB_28 
REMARK    7  A    between atoms: N_26  and  CA_27 
REMARK    8  A    between atoms: CA_27  and  CB_28 
REMARK    9  A    between atoms: CA_27  and  C_30 
ROOT
HETATM    1  O   UNK A   0       1.818   8.074  87.969  1.00  0.00    -0.388 OA
HETATM    2  N   UNK A   0       4.604   7.531  87.766  1.00  0.00     0.096 N 
HETATM    3  C   UNK A   0       4.099   8.900  87.934  1.00  0.00     0.299 C 
HETATM    4  C   UNK A   0       3.608   6.709  87.066  1.00  0.00     0.299 C 
HETATM    5  C   UNK A   0       2.766   8.872  88.679  1.00  0.00     0.198 C 
HETATM    6  C   UNK A   0       2.288   6.732  87.829  1.00  0.00     0.198 C 
ENDROOT
BRANCH   2   7
HETATM    7  C   UNK A   0       5.876   7.533  87.046  1.00  0.00     0.311 C 
BRANCH   7   8
HETATM    8  C   UNK A   0       6.983   6.934  87.845  1.00  0.00    -0.030 A 
HETATM    9  C   UNK A   0       6.754   6.536  89.163  1.00  0.00     0.010 A 
HETATM   10  C   UNK A   0       7.790   5.978  89.912  1.00  0.00     0.021 A 
HETATM   11  C   UNK A   0       9.052   5.816  89.343  1.00  0.00     0.018 A 
HETATM   12  C   UNK A   0       9.282   6.213  88.027  1.00  0.00     0.021 A 
HETATM   13  C   UNK A   0       8.247   6.772  87.278  1.00  0.00     0.010 A 
BRANCH  11  14
HETATM   14  C   UNK A   0      10.114   5.242  90.112  1.00  0.00    -0.061 C 
HETATM   15  C   UNK A   0      11.005   4.759  90.758  1.00  0.00    -0.061 C 
BRANCH  15  16
HETATM   16  C   UNK A   0      12.065   4.184  91.526  1.00  0.00     0.018 A 
HETATM   17  C   UNK A   0      11.848   3.830  92.858  1.00  0.00     0.022 A 
HETATM   18  C   UNK A   0      12.882   3.266  93.605  1.00  0.00     0.018 A 
HETATM   19  C   UNK A   0      14.108   3.069  93.006  1.00  0.00     0.032 A 
HETATM   20  C   UNK A   0      14.348   3.410  91.691  1.00  0.00     0.018 A 
HETATM   21  C   UNK A   0      13.315   3.974  90.942  1.00  0.00     0.022 A 
BRANCH  19  22
HETATM   22  C   UNK A   0      15.209   2.470  93.803  1.00  0.00     0.252 C 
HETATM   23  O   UNK A   0      16.369   2.801  93.568  1.00  0.00    -0.268 OA
ENDBRANCH  19  22
ENDBRANCH  15  16
ENDBRANCH  11  14
ENDBRANCH   7   8
ENDBRANCH   2   7
TORSDOF 9
ENDMDL
MODEL 3
REMARK VINA RESULT:      -7.5      0.187      1.025
REMARK  9 active torsions:
REMARK  status: ('A' for Active; 'I' for Inactive)
REMARK    1  A    between atoms: N_3  and  C_6 
REMARK    2  A    between atoms: C_6  and  C_9 
REMARK    3  A    between atoms: C_14  and  C_17 
REMARK       I    between atoms: N_26  and  C_15 
REMARK    4  A    between atoms: C_15  and  C_16 
REMARK    5  A    between atoms: C_20  and  C_23 
REMARK    6  A    between atoms: OG1_24  and  CB_28 
REMARK    7  A    between atoms: N_26  and  CA_27 
REMARK    8  A    between atoms: CA_27  and  CB_28 
REMARK    9  A    between atoms: CA_27  and  C_30 
ROOT
HETATM    1  O   UNK A   0       1.794   7.965  87.814  1.00  0.00    -0.388 OA
HETATM    2  N   UNK A   0       4.601   7.517  87.675  1.00  0.00     0.096 N 
HETATM    3  C   UNK A   0       4.044   8.873  87.780  1.00  0.00     0.299 C 
HETATM    4  C   UNK A   0       3.647   6.632  86.993  1.00  0.00     0.299 C 
HETATM    5  C   UNK A   0       2.702   8.825  88.505  1.00  0.00     0.198 C 
HETATM    6  C   UNK A   0       2.314   6.637  87.735  1.00  0.00     0.198 C 
ENDROOT
BRANCH   2   7
HETATM    7  C   UNK A   0       5.884   7.537  86.974  1.00  0.00     0.311 C 
BRANCH   7   8
HETATM    8  C   UNK A   0       6.981   6.929  87.779  1.00  0.00    -0.030 A 
HETATM    9  C   UNK A   0       8.220   6.676  87.189  1.00  0.00     0.010 A 
HETATM   10  C   UNK A   0       9.247   6.105  87.941  1.00  0.00     0.021 A 
HETATM   11  C   UNK A   0       9.035   5.790  89.282  1.00  0.00     0.018 A 
HETATM   12  C   UNK A   0       7.798   6.043  89.873  1.00  0.00     0.021 A 
HETATM   13  C   UNK A   0       6.771   6.613  89.121  1.00  0.00     0.010 A 
BRANCH  11  14
HETATM   14  C   UNK A   0      10.089   5.207  90.054  1.00  0.00    -0.061 C 
HETATM   15  C   UNK A   0      10.975   4.717  90.702  1.00  0.00    -0.061 C 
BRANCH  15  16
HETATM   16  C   UNK A   0      12.029   4.134  91.474  1.00  0.00     0.018 A 
HETATM   17  C   UNK A   0      13.289   3.951  90.905  1.00  0.00     0.022 A 
HETATM   18  C   UNK A   0      14.317   3.385  91.659  1.00  0.00     0.018 A 
HETATM   19  C   UNK A   0      14.063   3.017  92.963  1.00  0.00     0.032 A 
HETATM   20  C   UNK A   0      12.825   3.188  93.548  1.00  0.00     0.018 A 
HETATM   21  C   UNK A   0      11.796   3.753  92.796  1.00  0.00     0.022 A 
BRANCH  19  22
HETATM   22  C   UNK A   0      15.158   2.412  93.766  1.00  0.00     0.252 C 
HETATM   23  O   UNK A   0      16.312   2.794  93.589  1.00  0.00    -0.268 OA
ENDBRANCH  19  22
ENDBRANCH  15  16
ENDBRANCH  11  14
ENDBRANCH   7   8
ENDBRANCH   2   7
TORSDOF 9
ENDMDL
MODEL 4
REMARK VINA RESULT:      -7.1      1.060      1.164
REMARK  9 active torsions:
REMARK  status: ('A' for Active; 'I' for Inactive)
REMARK    1  A    between atoms: N_3  and  C_6 
REMARK    2  A    between atoms: C_6  and  C_9 
REMARK    3  A    between atoms: C_14  and  C_17 
REMARK       I    between atoms: N_26  and  C_15 
REMARK    4  A    between atoms: C_15  and  C_16 
REMARK    5  A    between atoms: C_20  and  C_23 
REMARK    6  A    between atoms: OG1_24  and  CB_28 
REMARK    7  A    between atoms: N_26  and  CA_27 
REMARK    8  A    between atoms: CA_27  and  CB_28 
REMARK    9  A    between atoms: CA_27  and  C_30 
ROOT
HETATM    1  O   UNK A   0       1.938   7.116  86.888  1.00  0.00    -0.388 OA
HETATM    2  N   UNK A   0       4.244   7.953  88.332  1.00  0.00     0.096 N 
HETATM    3  C   UNK A   0       3.056   8.810  88.218  1.00  0.00     0.299 C 
HETATM    4  C   UNK A   0       4.349   7.080  87.155  1.00  0.00     0.299 C 
HETATM    5  C   UNK A   0       1.809   7.946  88.044  1.00  0.00     0.198 C 
HETATM    6  C   UNK A   0       3.073   6.257  87.005  1.00  0.00     0.198 C 
ENDROOT
BRANCH   2   7
HETATM    7  C   UNK A   0       5.452   8.761  88.489  1.00  0.00     0.311 C 
BRANCH   7   8
HETATM    8  C   UNK A   0       6.579   7.988  89.083  1.00  0.00    -0.030 A 
HETATM    9  C   UNK A   0       7.813   7.944  88.433  1.00  0.00     0.010 A 
HETATM   10  C   UNK A   0       8.868   7.219  88.987  1.00  0.00     0.021 A 
HETATM   11  C   UNK A   0       8.689   6.540  90.192  1.00  0.00     0.018 A 
HETATM   12  C   UNK A   0       7.457   6.584  90.843  1.00  0.00     0.021 A 
HETATM   13  C   UNK A   0       6.402   7.308  90.289  1.00  0.00     0.010 A 
BRANCH  11  14
HETATM   14  C   UNK A   0       9.771   5.798  90.762  1.00  0.00    -0.061 C 
HETATM   15  C   UNK A   0      10.682   5.175  91.241  1.00  0.00    -0.061 C 
BRANCH  15  16
HETATM   16  C   UNK A   0      11.763   4.434  91.811  1.00  0.00     0.018 A 
HETATM   17  C   UNK A   0      11.708   4.038  93.147  1.00  0.00     0.022 A 
HETATM   18  C   UNK A   0      12.762   3.313  93.702  1.00  0.00     0.018 A 
HETATM   19  C   UNK A   0      13.846   3.000  92.909  1.00  0.00     0.032 A 
HETATM   20  C   UNK A   0      13.925   3.380  91.586  1.00  0.00     0.018 A 
HETATM   21  C   UNK A   0      12.871   4.105  91.030  1.00  0.00     0.022 A 
BRANCH  19  22
HETATM   22  C   UNK A   0      14.970   2.229  93.502  1.00  0.00     0.252 C 
HETATM   23  O   UNK A   0      15.850   2.827  94.117  1.00  0.00    -0.268 OA
ENDBRANCH  19  22
ENDBRANCH  15  16
ENDBRANCH  11  14
ENDBRANCH   7   8
ENDBRANCH   2   7
TORSDOF 9
ENDMDL
MODEL 5
REMARK VINA RESULT:      -6.9      1.455      1.810
REMARK  9 active torsions:
REMARK  status: ('A' for Active; 'I' for Inactive)
REMARK    1  A    between atoms: N_3  and  C_6 
REMARK    2  A    between atoms: C_6  and  C_9 
REMARK    3  A    between atoms: C_14  and  C_17 
REMARK       I    between atoms: N_26  and  C_15 
REMARK    4  A    between atoms: C_15  and  C_16 
REMARK    5  A    between atoms: C_20  and  C_23 
REMARK    6  A    between atoms: OG1_24  and  CB_28 
REMARK    7  A    between atoms: N_26  and  CA_27 
REMARK    8  A    between atoms: CA_27  and  CB_28 
REMARK    9  A    between atoms: CA_27  and  C_30 
ROOT
HETATM    1  O   UNK A   0       2.695  11.127  89.573  1.00  0.00    -0.388 OA
HETATM    2  N   UNK A   0       4.567   9.145  88.753  1.00  0.00     0.096 N 
HETATM    3  C   UNK A   0       3.895  10.017  87.779  1.00  0.00     0.299 C 
HETATM    4  C   UNK A   0       3.710   8.953  89.931  1.00  0.00     0.299 C 
HETATM    5  C   UNK A   0       3.534  11.346  88.437  1.00  0.00     0.198 C 
HETATM    6  C   UNK A   0       3.353  10.306  90.538  1.00  0.00     0.198 C 
ENDROOT
BRANCH   2   7
HETATM    7  C   UNK A   0       4.912   7.861  88.146  1.00  0.00     0.311 C 
BRANCH   7   8
HETATM    8  C   UNK A   0       6.130   7.255  88.755  1.00  0.00    -0.030 A 
HETATM    9  C   UNK A   0       7.379   7.843  88.548  1.00  0.00     0.010 A 
HETATM   10  C   UNK A   0       8.520   7.275  89.115  1.00  0.00     0.021 A 
HETATM   11  C   UNK A   0       8.411   6.122  89.891  1.00  0.00     0.018 A 
HETATM   12  C   UNK A   0       7.165   5.534  90.099  1.00  0.00     0.021 A 
HETATM   13  C   UNK A   0       6.024   6.101  89.531  1.00  0.00     0.010 A 
BRANCH  11  14
HETATM   14  C   UNK A   0       9.581   5.541  90.475  1.00  0.00    -0.061 C 
HETATM   15  C   UNK A   0      10.564   5.052  90.966  1.00  0.00    -0.061 C 
BRANCH  15  16
HETATM   16  C   UNK A   0      11.733   4.471  91.550  1.00  0.00     0.018 A 
HETATM   17  C   UNK A   0      11.735   4.117  92.899  1.00  0.00     0.022 A 
HETATM   18  C   UNK A   0      12.874   3.548  93.468  1.00  0.00     0.018 A 
HETATM   19  C   UNK A   0      13.984   3.344  92.675  1.00  0.00     0.032 A 
HETATM   20  C   UNK A   0      14.007   3.686  91.339  1.00  0.00     0.018 A 
HETATM   21  C   UNK A   0      12.868   4.256  90.769  1.00  0.00     0.022 A 
BRANCH  19  22
HETATM   22  C   UNK A   0      15.198   2.739  93.281  1.00  0.00     0.252 C 
HETATM   23  O   UNK A   0      16.022   3.468  93.829  1.00  0.00    -0.268 OA
ENDBRANCH  19  22
ENDBRANCH  15  16
ENDBRANCH  11  14
ENDBRANCH   7   8
ENDBRANCH   2   7
TORSDOF 9
ENDMDL
MODEL 6
REMARK VINA RESULT:      -6.6      3.903     10.404
REMARK  9 active torsions:
REMARK  status: ('A' for Active; 'I' for Inactive)
REMARK    1  A    between atoms: N_3  and  C_6 
REMARK    2  A    between atoms: C_6  and  C_9 
REMARK    3  A    between atoms: C_14  and  C_17 
REMARK       I    between atoms: N_26  and  C_15 
REMARK    4  A    between atoms: C_15  and  C_16 
REMARK    5  A    between atoms: C_20  and  C_23 
REMARK    6  A    between atoms: OG1_24  and  CB_28 
REMARK    7  A    between atoms: N_26  and  CA_27 
REMARK    8  A    between atoms: CA_27  and  CB_28 
REMARK    9  A    between atoms: CA_27  and  C_30 
ROOT
HETATM    1  O   UNK A   0      14.659   3.379  92.097  1.00  0.00    -0.388 OA
HETATM    2  N   UNK A   0      11.931   4.166  92.293  1.00  0.00     0.096 N 
HETATM    3  C   UNK A   0      12.543   3.267  93.280  1.00  0.00     0.299 C 
HETATM    4  C   UNK A   0      12.594   4.011  90.991  1.00  0.00     0.299 C 
HETATM    5  C   UNK A   0      14.041   3.546  93.374  1.00  0.00     0.198 C 
HETATM    6  C   UNK A   0      14.090   4.271  91.138  1.00  0.00     0.198 C 
ENDROOT
BRANCH   2   7
HETATM    7  C   UNK A   0      10.496   3.909  92.178  1.00  0.00     0.311 C 
BRANCH   7   8
HETATM    8  C   UNK A   0       9.718   5.150  91.898  1.00  0.00    -0.030 A 
HETATM    9  C   UNK A   0       8.713   5.137  90.929  1.00  0.00     0.010 A 
HETATM   10  C   UNK A   0       7.986   6.298  90.664  1.00  0.00     0.021 A 
HETATM   11  C   UNK A   0       8.262   7.469  91.370  1.00  0.00     0.018 A 
HETATM   12  C   UNK A   0       9.264   7.482  92.337  1.00  0.00     0.021 A 
HETATM   13  C   UNK A   0       9.993   6.322  92.602  1.00  0.00     0.010 A 
BRANCH  11  14
HETATM   14  C   UNK A   0       7.514   8.658  91.099  1.00  0.00    -0.061 C 
HETATM   15  C   UNK A   0       6.885   9.658  90.873  1.00  0.00    -0.061 C 
BRANCH  15  16
HETATM   16  C   UNK A   0       6.138  10.847  90.604  1.00  0.00     0.018 A 
HETATM   17  C   UNK A   0       5.263  11.352  91.565  1.00  0.00     0.022 A 
HETATM   18  C   UNK A   0       4.537  12.514  91.303  1.00  0.00     0.018 A 
HETATM   19  C   UNK A   0       4.702  13.143  90.088  1.00  0.00     0.032 A 
HETATM   20  C   UNK A   0       5.560  12.663  89.120  1.00  0.00     0.018 A 
HETATM   21  C   UNK A   0       6.287  11.502  89.381  1.00  0.00     0.022 A 
BRANCH  19  22
HETATM   22  C   UNK A   0       3.926  14.380  89.808  1.00  0.00     0.252 C 
HETATM   23  O   UNK A   0       4.511  15.460  89.774  1.00  0.00    -0.268 OA
ENDBRANCH  19  22
ENDBRANCH  15  16
ENDBRANCH  11  14
ENDBRANCH   7   8
ENDBRANCH   2   7
TORSDOF 9
ENDMDL
MODEL 7
REMARK VINA RESULT:      -6.6      3.513     10.294
REMARK  9 active torsions:
REMARK  status: ('A' for Active; 'I' for Inactive)
REMARK    1  A    between atoms: N_3  and  C_6 
REMARK    2  A    between atoms: C_6  and  C_9 
REMARK    3  A    between atoms: C_14  and  C_17 
REMARK       I    between atoms: N_26  and  C_15 
REMARK    4  A    between atoms: C_15  and  C_16 
REMARK    5  A    between atoms: C_20  and  C_23 
REMARK    6  A    between atoms: OG1_24  and  CB_28 
REMARK    7  A    between atoms: N_26  and  CA_27 
REMARK    8  A    between atoms: CA_27  and  CB_28 
REMARK    9  A    between atoms: CA_27  and  C_30 
ROOT
HETATM    1  O   UNK A   0      16.065   3.042  93.630  1.00  0.00    -0.388 OA
HETATM    2  N   UNK A   0      13.389   2.979  92.661  1.00  0.00     0.096 N 
HETATM    3  C   UNK A   0      14.091   1.750  93.060  1.00  0.00     0.299 C 
HETATM    4  C   UNK A   0      14.355   3.979  92.186  1.00  0.00     0.299 C 
HETATM    5  C   UNK A   0      15.137   2.075  94.124  1.00  0.00     0.198 C 
HETATM    6  C   UNK A   0      15.395   4.250  93.269  1.00  0.00     0.198 C 
ENDROOT
BRANCH   2   7
HETATM    7  C   UNK A   0      12.389   2.693  91.634  1.00  0.00     0.311 C 
BRANCH   7   8
HETATM    8  C   UNK A   0      11.530   3.874  91.335  1.00  0.00    -0.030 A 
HETATM    9  C   UNK A   0      11.406   4.330  90.022  1.00  0.00     0.010 A 
HETATM   10  C   UNK A   0      10.604   5.436  89.740  1.00  0.00     0.021 A 
HETATM   11  C   UNK A   0       9.925   6.084  90.772  1.00  0.00     0.018 A 
HETATM   12  C   UNK A   0      10.047   5.629  92.083  1.00  0.00     0.021 A 
HETATM   13  C   UNK A   0      10.850   4.524  92.365  1.00  0.00     0.010 A 
BRANCH  11  14
HETATM   14  C   UNK A   0       9.100   7.217  90.483  1.00  0.00    -0.061 C 
HETATM   15  C   UNK A   0       8.407   8.169  90.240  1.00  0.00    -0.061 C 
BRANCH  15  16
HETATM   16  C   UNK A   0       7.582   9.301  89.952  1.00  0.00     0.018 A 
HETATM   17  C   UNK A   0       6.224   9.272  90.270  1.00  0.00     0.022 A 
HETATM   18  C   UNK A   0       5.421  10.378  89.992  1.00  0.00     0.018 A 
HETATM   19  C   UNK A   0       5.993  11.486  89.403  1.00  0.00     0.032 A 
HETATM   20  C   UNK A   0       7.332  11.539  89.079  1.00  0.00     0.018 A 
HETATM   21  C   UNK A   0       8.137  10.434  89.357  1.00  0.00     0.022 A 
BRANCH  19  22
HETATM   22  C   UNK A   0       5.136  12.663  89.105  1.00  0.00     0.252 C 
HETATM   23  O   UNK A   0       4.872  12.932  87.936  1.00  0.00    -0.268 OA
ENDBRANCH  19  22
ENDBRANCH  15  16
ENDBRANCH  11  14
ENDBRANCH   7   8
ENDBRANCH   2   7
TORSDOF 9
ENDMDL
MODEL 8
REMARK VINA RESULT:      -6.6      3.895     10.471
REMARK  9 active torsions:
REMARK  status: ('A' for Active; 'I' for Inactive)
REMARK    1  A    between atoms: N_3  and  C_6 
REMARK    2  A    between atoms: C_6  and  C_9 
REMARK    3  A    between atoms: C_14  and  C_17 
REMARK       I    between atoms: N_26  and  C_15 
REMARK    4  A    between atoms: C_15  and  C_16 
REMARK    5  A    between atoms: C_20  and  C_23 
REMARK    6  A    between atoms: OG1_24  and  CB_28 
REMARK    7  A    between atoms: N_26  and  CA_27 
REMARK    8  A    between atoms: CA_27  and  CB_28 
REMARK    9  A    between atoms: CA_27  and  C_30 
ROOT
HETATM    1  O   UNK A   0      14.677   3.394  92.278  1.00  0.00    -0.388 OA
HETATM    2  N   UNK A   0      11.939   4.174  92.266  1.00  0.00     0.096 N 
HETATM    3  C   UNK A   0      12.489   3.315  93.325  1.00  0.00     0.299 C 
HETATM    4  C   UNK A   0      12.687   3.975  91.017  1.00  0.00     0.299 C 
HETATM    5  C   UNK A   0      13.977   3.605  93.505  1.00  0.00     0.198 C 
HETATM    6  C   UNK A   0      14.169   4.248  91.252  1.00  0.00     0.198 C 
ENDROOT
BRANCH   2   7
HETATM    7  C   UNK A   0      10.516   3.906  92.069  1.00  0.00     0.311 C 
BRANCH   7   8
HETATM    8  C   UNK A   0       9.736   5.148  91.801  1.00  0.00    -0.030 A 
HETATM    9  C   UNK A   0       9.813   6.224  92.686  1.00  0.00     0.010 A 
HETATM   10  C   UNK A   0       9.082   7.385  92.437  1.00  0.00     0.021 A 
HETATM   11  C   UNK A   0       8.276   7.471  91.303  1.00  0.00     0.018 A 
HETATM   12  C   UNK A   0       8.197   6.397  90.419  1.00  0.00     0.021 A 
HETATM   13  C   UNK A   0       8.928   5.235  90.667  1.00  0.00     0.010 A 
BRANCH  11  14
HETATM   14  C   UNK A   0       7.527   8.663  91.047  1.00  0.00    -0.061 C 
HETATM   15  C   UNK A   0       6.898   9.665  90.832  1.00  0.00    -0.061 C 
BRANCH  15  16
HETATM   16  C   UNK A   0       6.150  10.856  90.577  1.00  0.00     0.018 A 
HETATM   17  C   UNK A   0       6.280  11.511  89.352  1.00  0.00     0.022 A 
HETATM   18  C   UNK A   0       5.548  12.672  89.103  1.00  0.00     0.018 A 
HETATM   19  C   UNK A   0       4.702  13.150  90.082  1.00  0.00     0.032 A 
HETATM   20  C   UNK A   0       4.556  12.521  91.300  1.00  0.00     0.018 A 
HETATM   21  C   UNK A   0       5.288  11.360  91.551  1.00  0.00     0.022 A 
BRANCH  19  22
HETATM   22  C   UNK A   0       3.924  14.388  89.816  1.00  0.00     0.252 C 
HETATM   23  O   UNK A   0       4.510  15.466  89.767  1.00  0.00    -0.268 OA
ENDBRANCH  19  22
ENDBRANCH  15  16
ENDBRANCH  11  14
ENDBRANCH   7   8
ENDBRANCH   2   7
TORSDOF 9
ENDMDL
MODEL 9
REMARK VINA RESULT:      -6.3      3.606     10.293
REMARK  9 active torsions:
REMARK  status: ('A' for Active; 'I' for Inactive)
REMARK    1  A    between atoms: N_3  and  C_6 
REMARK    2  A    between atoms: C_6  and  C_9 
REMARK    3  A    between atoms: C_14  and  C_17 
REMARK       I    between atoms: N_26  and  C_15 
REMARK    4  A    between atoms: C_15  and  C_16 
REMARK    5  A    between atoms: C_20  and  C_23 
REMARK    6  A    between atoms: OG1_24  and  CB_28 
REMARK    7  A    between atoms: N_26  and  CA_27 
REMARK    8  A    between atoms: CA_27  and  CB_28 
REMARK    9  A    between atoms: CA_27  and  C_30 
ROOT
HETATM    1  O   UNK A   0      14.471   3.038  92.553  1.00  0.00    -0.388 OA
HETATM    2  N   UNK A   0      11.970   3.938  91.533  1.00  0.00     0.096 N 
HETATM    3  C   UNK A   0      12.051   2.853  92.521  1.00  0.00     0.299 C 
HETATM    4  C   UNK A   0      13.189   3.964  90.714  1.00  0.00     0.299 C 
HETATM    5  C   UNK A   0      13.303   3.025  93.377  1.00  0.00     0.198 C 
HETATM    6  C   UNK A   0      14.414   4.109  91.611  1.00  0.00     0.198 C 
ENDROOT
BRANCH   2   7
HETATM    7  C   UNK A   0      10.783   3.787  90.695  1.00  0.00     0.311 C 
BRANCH   7   8
HETATM    8  C   UNK A   0       9.950   5.023  90.662  1.00  0.00    -0.030 A 
HETATM    9  C   UNK A   0      10.121   5.951  89.634  1.00  0.00     0.010 A 
HETATM   10  C   UNK A   0       9.344   7.109  89.603  1.00  0.00     0.021 A 
HETATM   11  C   UNK A   0       8.395   7.337  90.599  1.00  0.00     0.018 A 
HETATM   12  C   UNK A   0       8.222   6.411  91.625  1.00  0.00     0.021 A 
HETATM   13  C   UNK A   0       9.000   5.253  91.657  1.00  0.00     0.010 A 
BRANCH  11  14
HETATM   14  C   UNK A   0       7.596   8.524  90.566  1.00  0.00    -0.061 C 
HETATM   15  C   UNK A   0       6.925   9.521  90.537  1.00  0.00    -0.061 C 
BRANCH  15  16
HETATM   16  C   UNK A   0       6.126  10.706  90.504  1.00  0.00     0.018 A 
HETATM   17  C   UNK A   0       5.373  11.070  91.621  1.00  0.00     0.022 A 
HETATM   18  C   UNK A   0       4.596  12.228  91.589  1.00  0.00     0.018 A 
HETATM   19  C   UNK A   0       4.590  12.996  90.443  1.00  0.00     0.032 A 
HETATM   20  C   UNK A   0       5.326  12.657  89.326  1.00  0.00     0.018 A 
HETATM   21  C   UNK A   0       6.103  11.500  89.357  1.00  0.00     0.022 A 
BRANCH  19  22
HETATM   22  C   UNK A   0       3.761  14.228  90.409  1.00  0.00     0.252 C 
HETATM   23  O   UNK A   0       2.585  14.150  90.061  1.00  0.00    -0.268 OA
ENDBRANCH  19  22
ENDBRANCH  15  16
ENDBRANCH  11  14
ENDBRANCH   7   8
ENDBRANCH   2   7
TORSDOF 9
ENDMDL
