MODEL 1
REMARK VINA RESULT:      -6.8      0.000      0.000
REMARK  9 active torsions:
REMARK  status: ('A' for Active; 'I' for Inactive)
REMARK    1  A    between atoms: O_2  and  C_17 
REMARK    2  A    between atoms: N_5  and  C_10 
REMARK    3  A    between atoms: N_6  and  C_14 
REMARK       I    between atoms: N_6  and  C_23 
REMARK       I    between atoms: N_7  and  C_22 
REMARK    4  A    between atoms: C_10  and  C_13 
REMARK    5  A    between atoms: C_14  and  C_17 
REMARK    6  A    between atoms: C_14  and  C_22 
REMARK    7  A    between atoms: C_20  and  C_25 
REMARK    8  A    between atoms: C_23  and  C_24 
REMARK    9  A    between atoms: C_28  and  C_31 
ROOT
HETATM    1  O   UNL     1      15.845   4.078  94.121  1.00  0.00    -0.388 OA
HETATM    2  N   UNL     1      14.228   2.578  92.322  1.00  0.00     0.096 N 
HETATM    3  C   UNL     1      14.218   4.048  92.321  1.00  0.00     0.299 C 
HETATM    4  C   UNL     1      14.551   2.078  93.665  1.00  0.00     0.299 C 
HETATM    5  C   UNL     1      15.564   4.575  92.811  1.00  0.00     0.198 C 
HETATM    6  C   UNL     1      15.888   2.651  94.124  1.00  0.00     0.198 C 
ENDROOT
BRANCH   2   7
HETATM    7  C   UNL     1      12.943   2.052  91.866  1.00  0.00     0.311 C 
BRANCH   7   8
HETATM    8  C   UNL     1      11.955   3.132  91.582  1.00  0.00    -0.030 A 
HETATM    9  C   UNL     1      11.826   3.635  90.287  1.00  0.00     0.010 A 
HETATM   10  C   UNL     1      10.904   4.646  90.020  1.00  0.00     0.021 A 
HETATM   11  C   UNL     1      10.109   5.153  91.048  1.00  0.00     0.018 A 
HETATM   12  C   UNL     1      10.237   4.651  92.342  1.00  0.00     0.021 A 
HETATM   13  C   UNL     1      11.160   3.640  92.609  1.00  0.00     0.010 A 
BRANCH  11  14
HETATM   14  C   UNL     1       9.162   6.189  90.774  1.00  0.00    -0.061 C 
HETATM   15  C   UNL     1       8.366   7.060  90.544  1.00  0.00    -0.061 C 
BRANCH  15  16
HETATM   16  C   UNL     1       7.420   8.097  90.270  1.00  0.00     0.018 A 
HETATM   17  C   UNL     1       7.844   9.423  90.188  1.00  0.00     0.022 A 
HETATM   18  C   UNL     1       6.921  10.434  89.918  1.00  0.00     0.018 A 
HETATM   19  C   UNL     1       5.596  10.095  89.736  1.00  0.00     0.032 A 
HETATM   20  C   UNL     1       5.152   8.792  89.812  1.00  0.00     0.018 A 
HETATM   21  C   UNL     1       6.074   7.781  90.082  1.00  0.00     0.022 A 
BRANCH  19  22
HETATM   22  C   UNL     1       4.613  11.172  89.450  1.00  0.00     0.252 C 
HETATM   23  O   UNL     1       3.672  10.941  88.694  1.00  0.00    -0.268 OA
HETATM   24  N   UNL     1       4.830  12.381  90.097  1.00  0.00    -0.342 N 
HETATM   25  H   UNL     1       5.616  12.491  90.727  1.00  0.00     0.163 HD
BRANCH  24  26
HETATM   26  C   UNL     1       3.952  13.512  89.941  1.00  0.00     0.199 C 
BRANCH  26  27
HETATM   27  C   UNL     1       3.329  13.967  91.267  1.00  0.00     0.145 C 
HETATM   28  C   UNL     1       1.995  13.284  91.550  1.00  0.00     0.042 C 
BRANCH  27  29
HETATM   29  O   UNL     1       4.229  13.687  92.339  1.00  0.00    -0.393 OA
HETATM   30  H   UNL     1       4.812  14.456  92.456  1.00  0.00     0.210 HD
ENDBRANCH  27  29
ENDBRANCH  26  27
BRANCH  26  31
HETATM   31  C   UNL     1       4.751  14.636  89.290  1.00  0.00     0.220 C 
HETATM   32  O   UNL     1       5.060  14.636  88.100  1.00  0.00    -0.278 OA
HETATM   33  N   UNL     1       5.108  15.609  90.192  1.00  0.00    -0.271 NA
HETATM   34  H   UNL     1       4.948  15.597  91.193  1.00  0.00     0.127 HD
HETATM   35  H   UNL     1       6.380  15.886  90.718  1.00  0.00     0.127 HD
ENDBRANCH  26  31
ENDBRANCH  24  26
ENDBRANCH  19  22
ENDBRANCH  15  16
ENDBRANCH  11  14
ENDBRANCH   7   8
ENDBRANCH   2   7
TORSDOF 9
ENDMDL
MODEL 2
REMARK VINA RESULT:      -5.9      2.112      2.812
REMARK  9 active torsions:
REMARK  status: ('A' for Active; 'I' for Inactive)
REMARK    1  A    between atoms: O_2  and  C_17 
REMARK    2  A    between atoms: N_5  and  C_10 
REMARK    3  A    between atoms: N_6  and  C_14 
REMARK       I    between atoms: N_6  and  C_23 
REMARK       I    between atoms: N_7  and  C_22 
REMARK    4  A    between atoms: C_10  and  C_13 
REMARK    5  A    between atoms: C_14  and  C_17 
REMARK    6  A    between atoms: C_14  and  C_22 
REMARK    7  A    between atoms: C_20  and  C_25 
REMARK    8  A    between atoms: C_23  and  C_24 
REMARK    9  A    between atoms: C_28  and  C_31 
ROOT
HETATM    1  O   UNL     1      15.627   4.223  92.883  1.00  0.00    -0.388 OA
HETATM    2  N   UNL     1      13.394   2.567  92.271  1.00  0.00     0.096 N 
HETATM    3  C   UNL     1      13.574   3.879  91.634  1.00  0.00     0.299 C 
HETATM    4  C   UNL     1      14.009   2.566  93.605  1.00  0.00     0.299 C 
HETATM    5  C   UNL     1      15.060   4.223  91.571  1.00  0.00     0.198 C 
HETATM    6  C   UNL     1      15.483   2.941  93.497  1.00  0.00     0.198 C 
ENDROOT
BRANCH   2   7
HETATM    7  C   UNL     1      11.976   2.221  92.351  1.00  0.00     0.311 C 
BRANCH   7   8
HETATM    8  C   UNL     1      11.101   3.426  92.427  1.00  0.00    -0.030 A 
HETATM    9  C   UNL     1      10.133   3.646  91.446  1.00  0.00     0.010 A 
HETATM   10  C   UNL     1       9.316   4.774  91.515  1.00  0.00     0.021 A 
HETATM   11  C   UNL     1       9.465   5.679  92.565  1.00  0.00     0.018 A 
HETATM   12  C   UNL     1      10.431   5.460  93.545  1.00  0.00     0.021 A 
HETATM   13  C   UNL     1      11.249   4.333  93.477  1.00  0.00     0.010 A 
BRANCH  11  14
HETATM   14  C   UNL     1       8.624   6.835  92.637  1.00  0.00    -0.061 C 
HETATM   15  C   UNL     1       7.919   7.807  92.698  1.00  0.00    -0.061 C 
BRANCH  15  16
HETATM   16  C   UNL     1       7.080   8.962  92.769  1.00  0.00     0.018 A 
HETATM   17  C   UNL     1       6.927   9.782  91.650  1.00  0.00     0.022 A 
HETATM   18  C   UNL     1       6.107  10.908  91.719  1.00  0.00     0.018 A 
HETATM   19  C   UNL     1       5.457  11.187  92.903  1.00  0.00     0.032 A 
HETATM   20  C   UNL     1       5.591  10.393  94.022  1.00  0.00     0.018 A 
HETATM   21  C   UNL     1       6.412   9.267  93.955  1.00  0.00     0.022 A 
BRANCH  19  22
HETATM   22  C   UNL     1       4.584  12.388  92.977  1.00  0.00     0.252 C 
HETATM   23  O   UNL     1       4.223  12.800  94.076  1.00  0.00    -0.268 OA
HETATM   24  N   UNL     1       4.258  12.978  91.763  1.00  0.00    -0.342 N 
HETATM   25  H   UNL     1       4.614  12.595  90.895  1.00  0.00     0.163 HD
BRANCH  24  26
HETATM   26  C   UNL     1       3.441  14.161  91.671  1.00  0.00     0.199 C 
BRANCH  26  27
HETATM   27  C   UNL     1       3.490  14.809  90.282  1.00  0.00     0.145 C 
HETATM   28  C   UNL     1       4.896  15.254  89.894  1.00  0.00     0.042 C 
BRANCH  27  29
HETATM   29  O   UNL     1       3.012  13.884  89.306  1.00  0.00    -0.393 OA
HETATM   30  H   UNL     1       2.490  14.375  88.649  1.00  0.00     0.210 HD
ENDBRANCH  27  29
ENDBRANCH  26  27
BRANCH  26  31
HETATM   31  C   UNL     1       2.016  13.774  92.052  1.00  0.00     0.220 C 
HETATM   32  O   UNL     1       1.485  12.727  91.685  1.00  0.00    -0.278 OA
HETATM   33  N   UNL     1       1.400  14.741  92.810  1.00  0.00    -0.271 NA
HETATM   34  H   UNL     1       1.775  15.650  93.054  1.00  0.00     0.127 HD
HETATM   35  H   UNL     1       0.370  15.618  92.434  1.00  0.00     0.127 HD
ENDBRANCH  26  31
ENDBRANCH  24  26
ENDBRANCH  19  22
ENDBRANCH  15  16
ENDBRANCH  11  14
ENDBRANCH   7   8
ENDBRANCH   2   7
TORSDOF 9
ENDMDL
MODEL 3
REMARK VINA RESULT:      -5.7      2.378     12.181
REMARK  9 active torsions:
REMARK  status: ('A' for Active; 'I' for Inactive)
REMARK    1  A    between atoms: O_2  and  C_17 
REMARK    2  A    between atoms: N_5  and  C_10 
REMARK    3  A    between atoms: N_6  and  C_14 
REMARK       I    between atoms: N_6  and  C_23 
REMARK       I    between atoms: N_7  and  C_22 
REMARK    4  A    between atoms: C_10  and  C_13 
REMARK    5  A    between atoms: C_14  and  C_17 
REMARK    6  A    between atoms: C_14  and  C_22 
REMARK    7  A    between atoms: C_20  and  C_25 
REMARK    8  A    between atoms: C_23  and  C_24 
REMARK    9  A    between atoms: C_28  and  C_31 
ROOT
HETATM    1  O   UNL     1       2.900  14.699  94.123  1.00  0.00    -0.388 OA
HETATM    2  N   UNL     1       2.480  14.593  91.310  1.00  0.00     0.096 N 
HETATM    3  C   UNL     1       1.572  13.919  92.248  1.00  0.00     0.299 C 
HETATM    4  C   UNL     1       3.831  14.667  91.884  1.00  0.00     0.299 C 
HETATM    5  C   UNL     1       1.576  14.651  93.588  1.00  0.00     0.198 C 
HETATM    6  C   UNL     1       3.783  15.380  93.231  1.00  0.00     0.198 C 
ENDROOT
BRANCH   2   7
HETATM    7  C   UNL     1       2.499  13.902  90.022  1.00  0.00     0.311 C 
BRANCH   7   8
HETATM    8  C   UNL     1       3.522  12.819  89.974  1.00  0.00    -0.030 A 
HETATM    9  C   UNL     1       3.233  11.564  90.511  1.00  0.00     0.010 A 
HETATM   10  C   UNL     1       4.190  10.550  90.468  1.00  0.00     0.021 A 
HETATM   11  C   UNL     1       5.434  10.791  89.887  1.00  0.00     0.018 A 
HETATM   12  C   UNL     1       5.724  12.043  89.350  1.00  0.00     0.021 A 
HETATM   13  C   UNL     1       4.768  13.058  89.393  1.00  0.00     0.010 A 
BRANCH  11  14
HETATM   14  C   UNL     1       6.415   9.750  89.841  1.00  0.00    -0.061 C 
HETATM   15  C   UNL     1       7.239   8.875  89.802  1.00  0.00    -0.061 C 
BRANCH  15  16
HETATM   16  C   UNL     1       8.220   7.836  89.757  1.00  0.00     0.018 A 
HETATM   17  C   UNL     1       8.492   7.085  90.901  1.00  0.00     0.022 A 
HETATM   18  C   UNL     1       9.446   6.069  90.856  1.00  0.00     0.018 A 
HETATM   19  C   UNL     1      10.106   5.827  89.670  1.00  0.00     0.032 A 
HETATM   20  C   UNL     1       9.856   6.555  88.526  1.00  0.00     0.018 A 
HETATM   21  C   UNL     1       8.902   7.571  88.569  1.00  0.00     0.022 A 
BRANCH  19  22
HETATM   22  C   UNL     1      11.125   4.745  89.623  1.00  0.00     0.252 C 
HETATM   23  O   UNL     1      11.411   4.238  88.541  1.00  0.00    -0.268 OA
HETATM   24  N   UNL     1      11.704   4.403  90.837  1.00  0.00    -0.342 N 
HETATM   25  H   UNL     1      11.435   4.884  91.687  1.00  0.00     0.163 HD
BRANCH  24  26
HETATM   26  C   UNL     1      12.724   3.391  90.951  1.00  0.00     0.199 C 
BRANCH  26  27
HETATM   27  C   UNL     1      14.097   3.971  91.316  1.00  0.00     0.145 C 
HETATM   28  C   UNL     1      14.275   4.146  92.820  1.00  0.00     0.042 C 
BRANCH  27  29
HETATM   29  O   UNL     1      15.124   3.111  90.824  1.00  0.00    -0.393 OA
HETATM   30  H   UNL     1      15.508   2.632  91.578  1.00  0.00     0.210 HD
ENDBRANCH  27  29
ENDBRANCH  26  27
BRANCH  26  31
HETATM   31  C   UNL     1      12.258   2.375  91.988  1.00  0.00     0.220 C 
HETATM   32  O   UNL     1      12.870   1.337  92.231  1.00  0.00    -0.278 OA
HETATM   33  N   UNL     1      11.071   2.741  92.577  1.00  0.00    -0.271 NA
HETATM   34  H   UNL     1      10.497   3.541  92.338  1.00  0.00     0.127 HD
HETATM   35  H   UNL     1       9.799   2.175  92.399  1.00  0.00     0.127 HD
ENDBRANCH  26  31
ENDBRANCH  24  26
ENDBRANCH  19  22
ENDBRANCH  15  16
ENDBRANCH  11  14
ENDBRANCH   7   8
ENDBRANCH   2   7
TORSDOF 9
ENDMDL
MODEL 4
REMARK VINA RESULT:      -5.5      1.764     12.239
REMARK  9 active torsions:
REMARK  status: ('A' for Active; 'I' for Inactive)
REMARK    1  A    between atoms: O_2  and  C_17 
REMARK    2  A    between atoms: N_5  and  C_10 
REMARK    3  A    between atoms: N_6  and  C_14 
REMARK       I    between atoms: N_6  and  C_23 
REMARK       I    between atoms: N_7  and  C_22 
REMARK    4  A    between atoms: C_10  and  C_13 
REMARK    5  A    between atoms: C_14  and  C_17 
REMARK    6  A    between atoms: C_14  and  C_22 
REMARK    7  A    between atoms: C_20  and  C_25 
REMARK    8  A    between atoms: C_23  and  C_24 
REMARK    9  A    between atoms: C_28  and  C_31 
ROOT
HETATM    1  O   UNL     1       5.292  15.624  90.588  1.00  0.00    -0.388 OA
HETATM    2  N   UNL     1       3.485  13.578  89.780  1.00  0.00     0.096 N 
HETATM    3  C   UNL     1       3.845  13.771  91.192  1.00  0.00     0.299 C 
HETATM    4  C   UNL     1       4.590  14.013  88.915  1.00  0.00     0.299 C 
HETATM    5  C   UNL     1       4.211  15.233  91.437  1.00  0.00     0.198 C 
HETATM    6  C   UNL     1       4.939  15.468  89.213  1.00  0.00     0.198 C 
ENDROOT
BRANCH   2   7
HETATM    7  C   UNL     1       3.141  12.181  89.521  1.00  0.00     0.311 C 
BRANCH   7   8
HETATM    8  C   UNL     1       4.217  11.242  89.947  1.00  0.00    -0.030 A 
HETATM    9  C   UNL     1       5.444  11.241  89.282  1.00  0.00     0.010 A 
HETATM   10  C   UNL     1       6.451  10.361  89.678  1.00  0.00     0.021 A 
HETATM   11  C   UNL     1       6.232   9.485  90.740  1.00  0.00     0.018 A 
HETATM   12  C   UNL     1       5.007   9.485  91.405  1.00  0.00     0.021 A 
HETATM   13  C   UNL     1       4.000  10.364  91.009  1.00  0.00     0.010 A 
BRANCH  11  14
HETATM   14  C   UNL     1       7.266   8.584  91.148  1.00  0.00    -0.061 C 
HETATM   15  C   UNL     1       8.134   7.827  91.491  1.00  0.00    -0.061 C 
BRANCH  15  16
HETATM   16  C   UNL     1       9.167   6.926  91.898  1.00  0.00     0.018 A 
HETATM   17  C   UNL     1       9.794   6.113  90.954  1.00  0.00     0.022 A 
HETATM   18  C   UNL     1      10.804   5.236  91.351  1.00  0.00     0.018 A 
HETATM   19  C   UNL     1      11.164   5.192  92.682  1.00  0.00     0.032 A 
HETATM   20  C   UNL     1      10.559   5.985  93.634  1.00  0.00     0.018 A 
HETATM   21  C   UNL     1       9.549   6.862  93.238  1.00  0.00     0.022 A 
BRANCH  19  22
HETATM   22  C   UNL     1      12.238   4.256  93.105  1.00  0.00     0.252 C 
HETATM   23  O   UNL     1      12.084   3.588  94.124  1.00  0.00    -0.268 OA
HETATM   24  N   UNL     1      13.350   4.193  92.277  1.00  0.00    -0.342 N 
HETATM   25  H   UNL     1      13.396   4.758  91.436  1.00  0.00     0.163 HD
BRANCH  24  26
HETATM   26  C   UNL     1      14.463   3.317  92.539  1.00  0.00     0.199 C 
BRANCH  26  27
HETATM   27  C   UNL     1      15.278   3.743  93.766  1.00  0.00     0.145 C 
HETATM   28  C   UNL     1      16.539   2.905  93.949  1.00  0.00     0.042 C 
BRANCH  27  29
HETATM   29  O   UNL     1      15.648   5.116  93.640  1.00  0.00    -0.393 OA
HETATM   30  H   UNL     1      16.528   5.232  94.037  1.00  0.00     0.210 HD
ENDBRANCH  27  29
ENDBRANCH  26  27
BRANCH  26  31
HETATM   31  C   UNL     1      13.914   1.903  92.701  1.00  0.00     0.220 C 
HETATM   32  O   UNL     1      14.427   1.067  93.442  1.00  0.00    -0.278 OA
HETATM   33  N   UNL     1      12.821   1.675  91.901  1.00  0.00    -0.271 NA
HETATM   34  H   UNL     1      12.429   2.310  91.215  1.00  0.00     0.127 HD
HETATM   35  H   UNL     1      12.736   0.879  90.747  1.00  0.00     0.127 HD
ENDBRANCH  26  31
ENDBRANCH  24  26
ENDBRANCH  19  22
ENDBRANCH  15  16
ENDBRANCH  11  14
ENDBRANCH   7   8
ENDBRANCH   2   7
TORSDOF 9
ENDMDL
MODEL 5
REMARK VINA RESULT:      -5.3      2.070     12.213
REMARK  9 active torsions:
REMARK  status: ('A' for Active; 'I' for Inactive)
REMARK    1  A    between atoms: O_2  and  C_17 
REMARK    2  A    between atoms: N_5  and  C_10 
REMARK    3  A    between atoms: N_6  and  C_14 
REMARK       I    between atoms: N_6  and  C_23 
REMARK       I    between atoms: N_7  and  C_22 
REMARK    4  A    between atoms: C_10  and  C_13 
REMARK    5  A    between atoms: C_14  and  C_17 
REMARK    6  A    between atoms: C_14  and  C_22 
REMARK    7  A    between atoms: C_20  and  C_25 
REMARK    8  A    between atoms: C_23  and  C_24 
REMARK    9  A    between atoms: C_28  and  C_31 
ROOT
HETATM    1  O   UNL     1       5.132  14.713  89.135  1.00  0.00    -0.388 OA
HETATM    2  N   UNL     1       3.326  13.302  90.824  1.00  0.00     0.096 N 
HETATM    3  C   UNL     1       4.191  14.370  91.346  1.00  0.00     0.299 C 
HETATM    4  C   UNL     1       3.967  12.654  89.672  1.00  0.00     0.299 C 
HETATM    5  C   UNL     1       4.503  15.371  90.236  1.00  0.00     0.198 C 
HETATM    6  C   UNL     1       4.285  13.694  88.602  1.00  0.00     0.198 C 
ENDROOT
BRANCH   2   7
HETATM    7  C   UNL     1       3.023  12.325  91.868  1.00  0.00     0.311 C 
BRANCH   7   8
HETATM    8  C   UNL     1       4.084  11.286  91.999  1.00  0.00    -0.030 A 
HETATM    9  C   UNL     1       3.984  10.094  91.280  1.00  0.00     0.010 A 
HETATM   10  C   UNL     1       4.975   9.120  91.404  1.00  0.00     0.021 A 
HETATM   11  C   UNL     1       6.066   9.340  92.244  1.00  0.00     0.018 A 
HETATM   12  C   UNL     1       6.167  10.530  92.961  1.00  0.00     0.021 A 
HETATM   13  C   UNL     1       5.176  11.504  92.839  1.00  0.00     0.010 A 
BRANCH  11  14
HETATM   14  C   UNL     1       7.083   8.342  92.368  1.00  0.00    -0.061 C 
HETATM   15  C   UNL     1       7.938   7.503  92.474  1.00  0.00    -0.061 C 
BRANCH  15  16
HETATM   16  C   UNL     1       8.954   6.505  92.599  1.00  0.00     0.018 A 
HETATM   17  C   UNL     1       9.858   6.560  93.661  1.00  0.00     0.022 A 
HETATM   18  C   UNL     1      10.847   5.584  93.784  1.00  0.00     0.018 A 
HETATM   19  C   UNL     1      10.911   4.577  92.844  1.00  0.00     0.032 A 
HETATM   20  C   UNL     1      10.030   4.501  91.785  1.00  0.00     0.018 A 
HETATM   21  C   UNL     1       9.040   5.476  91.661  1.00  0.00     0.022 A 
BRANCH  19  22
HETATM   22  C   UNL     1      11.966   3.539  92.975  1.00  0.00     0.252 C 
HETATM   23  O   UNL     1      11.639   2.357  93.046  1.00  0.00    -0.268 OA
HETATM   24  N   UNL     1      13.275   4.001  92.981  1.00  0.00    -0.342 N 
HETATM   25  H   UNL     1      13.470   4.991  92.893  1.00  0.00     0.163 HD
BRANCH  24  26
HETATM   26  C   UNL     1      14.409   3.116  93.077  1.00  0.00     0.199 C 
BRANCH  26  27
HETATM   27  C   UNL     1      14.818   2.527  91.721  1.00  0.00     0.145 C 
HETATM   28  C   UNL     1      14.562   3.488  90.565  1.00  0.00     0.042 C 
BRANCH  27  29
HETATM   29  O   UNL     1      16.205   2.191  91.745  1.00  0.00    -0.393 OA
HETATM   30  H   UNL     1      16.707   2.941  91.387  1.00  0.00     0.210 HD
ENDBRANCH  27  29
ENDBRANCH  26  27
BRANCH  26  31
HETATM   31  C   UNL     1      15.556   3.897  93.711  1.00  0.00     0.220 C 
HETATM   32  O   UNL     1      15.562   5.123  93.801  1.00  0.00    -0.278 OA
HETATM   33  N   UNL     1      16.576   3.075  94.124  1.00  0.00    -0.271 NA
HETATM   34  H   UNL     1      16.643   2.073  93.985  1.00  0.00     0.127 HD
HETATM   35  H   UNL     1      17.853   2.919  93.560  1.00  0.00     0.127 HD
ENDBRANCH  26  31
ENDBRANCH  24  26
ENDBRANCH  19  22
ENDBRANCH  15  16
ENDBRANCH  11  14
ENDBRANCH   7   8
ENDBRANCH   2   7
TORSDOF 9
ENDMDL
MODEL 6
REMARK VINA RESULT:      -5.2      1.813     12.205
REMARK  9 active torsions:
REMARK  status: ('A' for Active; 'I' for Inactive)
REMARK    1  A    between atoms: O_2  and  C_17 
REMARK    2  A    between atoms: N_5  and  C_10 
REMARK    3  A    between atoms: N_6  and  C_14 
REMARK       I    between atoms: N_6  and  C_23 
REMARK       I    between atoms: N_7  and  C_22 
REMARK    4  A    between atoms: C_10  and  C_13 
REMARK    5  A    between atoms: C_14  and  C_17 
REMARK    6  A    between atoms: C_14  and  C_22 
REMARK    7  A    between atoms: C_20  and  C_25 
REMARK    8  A    between atoms: C_23  and  C_24 
REMARK    9  A    between atoms: C_28  and  C_31 
ROOT
HETATM    1  O   UNL     1       3.468  14.299  92.381  1.00  0.00    -0.388 OA
HETATM    2  N   UNL     1       3.560  13.236  89.742  1.00  0.00     0.096 N 
HETATM    3  C   UNL     1       2.672  12.670  90.767  1.00  0.00     0.299 C 
HETATM    4  C   UNL     1       4.748  13.826  90.375  1.00  0.00     0.299 C 
HETATM    5  C   UNL     1       2.295  13.751  91.777  1.00  0.00     0.198 C 
HETATM    6  C   UNL     1       4.322  14.878  91.394  1.00  0.00     0.198 C 
ENDROOT
BRANCH   2   7
HETATM    7  C   UNL     1       3.943  12.214  88.769  1.00  0.00     0.311 C 
BRANCH   7   8
HETATM    8  C   UNL     1       4.926  11.241  89.325  1.00  0.00    -0.030 A 
HETATM    9  C   UNL     1       6.294  11.495  89.218  1.00  0.00     0.010 A 
HETATM   10  C   UNL     1       7.215  10.584  89.735  1.00  0.00     0.021 A 
HETATM   11  C   UNL     1       6.767   9.421  90.361  1.00  0.00     0.018 A 
HETATM   12  C   UNL     1       5.402   9.166  90.468  1.00  0.00     0.021 A 
HETATM   13  C   UNL     1       4.481  10.076  89.950  1.00  0.00     0.010 A 
BRANCH  11  14
HETATM   14  C   UNL     1       7.712   8.487  90.893  1.00  0.00    -0.061 C 
HETATM   15  C   UNL     1       8.506   7.703  91.340  1.00  0.00    -0.061 C 
BRANCH  15  16
HETATM   16  C   UNL     1       9.451   6.771  91.872  1.00  0.00     0.018 A 
HETATM   17  C   UNL     1       9.703   6.741  93.244  1.00  0.00     0.022 A 
HETATM   18  C   UNL     1      10.622   5.830  93.763  1.00  0.00     0.018 A 
HETATM   19  C   UNL     1      11.268   4.970  92.901  1.00  0.00     0.032 A 
HETATM   20  C   UNL     1      11.037   4.980  91.541  1.00  0.00     0.018 A 
HETATM   21  C   UNL     1      10.118   5.891  91.020  1.00  0.00     0.022 A 
BRANCH  19  22
HETATM   22  C   UNL     1      12.249   4.001  93.454  1.00  0.00     0.252 C 
HETATM   23  O   UNL     1      11.844   3.053  94.122  1.00  0.00    -0.268 OA
HETATM   24  N   UNL     1      13.581   4.238  93.142  1.00  0.00    -0.342 N 
HETATM   25  H   UNL     1      13.839   5.028  92.563  1.00  0.00     0.163 HD
BRANCH  24  26
HETATM   26  C   UNL     1      14.646   3.375  93.584  1.00  0.00     0.199 C 
BRANCH  26  27
HETATM   27  C   UNL     1      14.971   2.268  92.573  1.00  0.00     0.145 C 
HETATM   28  C   UNL     1      14.184   0.989  92.835  1.00  0.00     0.042 C 
BRANCH  27  29
HETATM   29  O   UNL     1      14.683   2.727  91.253  1.00  0.00    -0.393 OA
HETATM   30  H   UNL     1      14.961   2.040  90.624  1.00  0.00     0.210 HD
ENDBRANCH  27  29
ENDBRANCH  26  27
BRANCH  26  31
HETATM   31  C   UNL     1      15.866   4.247  93.863  1.00  0.00     0.220 C 
HETATM   32  O   UNL     1      15.818   5.475  93.898  1.00  0.00    -0.278 OA
HETATM   33  N   UNL     1      17.010   3.502  94.027  1.00  0.00    -0.271 NA
HETATM   34  H   UNL     1      17.102   2.499  93.916  1.00  0.00     0.127 HD
HETATM   35  H   UNL     1      18.103   3.381  93.155  1.00  0.00     0.127 HD
ENDBRANCH  26  31
ENDBRANCH  24  26
ENDBRANCH  19  22
ENDBRANCH  15  16
ENDBRANCH  11  14
ENDBRANCH   7   8
ENDBRANCH   2   7
TORSDOF 9
ENDMDL
MODEL 7
REMARK VINA RESULT:      -5.0      1.770     12.158
REMARK  9 active torsions:
REMARK  status: ('A' for Active; 'I' for Inactive)
REMARK    1  A    between atoms: O_2  and  C_17 
REMARK    2  A    between atoms: N_5  and  C_10 
REMARK    3  A    between atoms: N_6  and  C_14 
REMARK       I    between atoms: N_6  and  C_23 
REMARK       I    between atoms: N_7  and  C_22 
REMARK    4  A    between atoms: C_10  and  C_13 
REMARK    5  A    between atoms: C_14  and  C_17 
REMARK    6  A    between atoms: C_14  and  C_22 
REMARK    7  A    between atoms: C_20  and  C_25 
REMARK    8  A    between atoms: C_23  and  C_24 
REMARK    9  A    between atoms: C_28  and  C_31 
ROOT
HETATM    1  O   UNL     1       4.923  14.631  89.842  1.00  0.00    -0.388 OA
HETATM    2  N   UNL     1       3.808  12.356  88.545  1.00  0.00     0.096 N 
HETATM    3  C   UNL     1       3.146  12.985  89.696  1.00  0.00     0.299 C 
HETATM    4  C   UNL     1       5.261  12.558  88.628  1.00  0.00     0.299 C 
HETATM    5  C   UNL     1       3.507  14.468  89.753  1.00  0.00     0.198 C 
HETATM    6  C   UNL     1       5.573  14.049  88.711  1.00  0.00     0.198 C 
ENDROOT
BRANCH   2   7
HETATM    7  C   UNL     1       3.484  10.932  88.477  1.00  0.00     0.311 C 
BRANCH   7   8
HETATM    8  C   UNL     1       4.551  10.078  89.075  1.00  0.00    -0.030 A 
HETATM    9  C   UNL     1       4.980  10.312  90.382  1.00  0.00     0.010 A 
HETATM   10  C   UNL     1       5.978   9.515  90.941  1.00  0.00     0.021 A 
HETATM   11  C   UNL     1       6.546   8.484  90.194  1.00  0.00     0.018 A 
HETATM   12  C   UNL     1       6.118   8.249  88.889  1.00  0.00     0.021 A 
HETATM   13  C   UNL     1       5.120   9.046  88.329  1.00  0.00     0.010 A 
BRANCH  11  14
HETATM   14  C   UNL     1       7.569   7.665  90.768  1.00  0.00    -0.061 C 
HETATM   15  C   UNL     1       8.430   6.977  91.250  1.00  0.00    -0.061 C 
BRANCH  15  16
HETATM   16  C   UNL     1       9.453   6.160  91.825  1.00  0.00     0.018 A 
HETATM   17  C   UNL     1      10.191   5.296  91.014  1.00  0.00     0.022 A 
HETATM   18  C   UNL     1      11.191   4.501  91.574  1.00  0.00     0.018 A 
HETATM   19  C   UNL     1      11.430   4.587  92.930  1.00  0.00     0.032 A 
HETATM   20  C   UNL     1      10.714   5.432  93.752  1.00  0.00     0.018 A 
HETATM   21  C   UNL     1       9.714   6.228  93.193  1.00  0.00     0.022 A 
BRANCH  19  22
HETATM   22  C   UNL     1      12.494   3.738  93.526  1.00  0.00     0.252 C 
HETATM   23  O   UNL     1      12.178   2.713  94.124  1.00  0.00    -0.268 OA
HETATM   24  N   UNL     1      13.798   4.173  93.333  1.00  0.00    -0.342 N 
HETATM   25  H   UNL     1      13.984   5.018  92.806  1.00  0.00     0.163 HD
BRANCH  24  26
HETATM   26  C   UNL     1      14.939   3.446  93.829  1.00  0.00     0.199 C 
BRANCH  26  27
HETATM   27  C   UNL     1      15.300   2.239  92.955  1.00  0.00     0.145 C 
HETATM   28  C   UNL     1      14.788   0.924  93.535  1.00  0.00     0.042 C 
BRANCH  27  29
HETATM   29  O   UNL     1      14.750   2.414  91.649  1.00  0.00    -0.393 OA
HETATM   30  H   UNL     1      15.327   3.020  91.154  1.00  0.00     0.210 HD
ENDBRANCH  27  29
ENDBRANCH  26  27
BRANCH  26  31
HETATM   31  C   UNL     1      16.105   4.424  93.932  1.00  0.00     0.220 C 
HETATM   32  O   UNL     1      15.952   5.638  94.052  1.00  0.00    -0.278 OA
HETATM   33  N   UNL     1      17.322   3.792  93.838  1.00  0.00    -0.271 NA
HETATM   34  H   UNL     1      17.482   2.810  93.650  1.00  0.00     0.127 HD
HETATM   35  H   UNL     1      18.237   3.820  92.774  1.00  0.00     0.127 HD
ENDBRANCH  26  31
ENDBRANCH  24  26
ENDBRANCH  19  22
ENDBRANCH  15  16
ENDBRANCH  11  14
ENDBRANCH   7   8
ENDBRANCH   2   7
TORSDOF 9
ENDMDL
MODEL 8
REMARK VINA RESULT:      -4.7      2.563      3.203
REMARK  9 active torsions:
REMARK  status: ('A' for Active; 'I' for Inactive)
REMARK    1  A    between atoms: O_2  and  C_17 
REMARK    2  A    between atoms: N_5  and  C_10 
REMARK    3  A    between atoms: N_6  and  C_14 
REMARK       I    between atoms: N_6  and  C_23 
REMARK       I    between atoms: N_7  and  C_22 
REMARK    4  A    between atoms: C_10  and  C_13 
REMARK    5  A    between atoms: C_14  and  C_17 
REMARK    6  A    between atoms: C_14  and  C_22 
REMARK    7  A    between atoms: C_20  and  C_25 
REMARK    8  A    between atoms: C_23  and  C_24 
REMARK    9  A    between atoms: C_28  and  C_31 
ROOT
HETATM    1  O   UNL     1      16.243   2.149  93.930  1.00  0.00    -0.388 OA
HETATM    2  N   UNL     1      13.914   3.082  92.585  1.00  0.00     0.096 N 
HETATM    3  C   UNL     1      14.225   1.648  92.678  1.00  0.00     0.299 C 
HETATM    4  C   UNL     1      15.155   3.868  92.609  1.00  0.00     0.299 C 
HETATM    5  C   UNL     1      15.040   1.377  93.940  1.00  0.00     0.198 C 
HETATM    6  C   UNL     1      15.949   3.545  93.871  1.00  0.00     0.198 C 
ENDROOT
BRANCH   2   7
HETATM    7  C   UNL     1      13.142   3.366  91.377  1.00  0.00     0.311 C 
BRANCH   7   8
HETATM    8  C   UNL     1      11.985   4.269  91.642  1.00  0.00    -0.030 A 
HETATM    9  C   UNL     1      11.449   4.354  92.927  1.00  0.00     0.010 A 
HETATM   10  C   UNL     1      10.365   5.196  93.175  1.00  0.00     0.021 A 
HETATM   11  C   UNL     1       9.820   5.954  92.139  1.00  0.00     0.018 A 
HETATM   12  C   UNL     1      10.355   5.869  90.856  1.00  0.00     0.021 A 
HETATM   13  C   UNL     1      11.438   5.027  90.606  1.00  0.00     0.010 A 
BRANCH  11  14
HETATM   14  C   UNL     1       8.710   6.819  92.395  1.00  0.00    -0.061 C 
HETATM   15  C   UNL     1       7.777   7.547  92.610  1.00  0.00    -0.061 C 
BRANCH  15  16
HETATM   16  C   UNL     1       6.668   8.412  92.864  1.00  0.00     0.018 A 
HETATM   17  C   UNL     1       6.528   9.597  92.140  1.00  0.00     0.022 A 
HETATM   18  C   UNL     1       5.444  10.440  92.387  1.00  0.00     0.018 A 
HETATM   19  C   UNL     1       4.525  10.079  93.350  1.00  0.00     0.032 A 
HETATM   20  C   UNL     1       4.641   8.914  94.079  1.00  0.00     0.018 A 
HETATM   21  C   UNL     1       5.725   8.071  93.833  1.00  0.00     0.022 A 
BRANCH  19  22
HETATM   22  C   UNL     1       3.372  10.978  93.614  1.00  0.00     0.252 C 
HETATM   23  O   UNL     1       2.339  10.507  94.083  1.00  0.00    -0.268 OA
HETATM   24  N   UNL     1       3.569  12.321  93.323  1.00  0.00    -0.342 N 
HETATM   25  H   UNL     1       4.459  12.642  92.961  1.00  0.00     0.163 HD
BRANCH  24  26
HETATM   26  C   UNL     1       2.555  13.320  93.547  1.00  0.00     0.199 C 
BRANCH  26  27
HETATM   27  C   UNL     1       3.139  14.678  93.954  1.00  0.00     0.145 C 
HETATM   28  C   UNL     1       4.137  15.214  92.934  1.00  0.00     0.042 C 
BRANCH  27  29
HETATM   29  O   UNL     1       2.082  15.625  94.110  1.00  0.00    -0.393 OA
HETATM   30  H   UNL     1       1.537  15.608  93.305  1.00  0.00     0.210 HD
ENDBRANCH  27  29
ENDBRANCH  26  27
BRANCH  26  31
HETATM   31  C   UNL     1       1.724  13.433  92.273  1.00  0.00     0.220 C 
HETATM   32  O   UNL     1       1.193  14.481  91.911  1.00  0.00    -0.278 OA
HETATM   33  N   UNL     1       1.613  12.231  91.617  1.00  0.00    -0.271 NA
HETATM   34  H   UNL     1       1.961  11.333  91.932  1.00  0.00     0.127 HD
HETATM   35  H   UNL     1       0.488  11.400  91.504  1.00  0.00     0.127 HD
ENDBRANCH  26  31
ENDBRANCH  24  26
ENDBRANCH  19  22
ENDBRANCH  15  16
ENDBRANCH  11  14
ENDBRANCH   7   8
ENDBRANCH   2   7
TORSDOF 9
ENDMDL
MODEL 9
REMARK VINA RESULT:      -4.6      2.621     12.307
REMARK  9 active torsions:
REMARK  status: ('A' for Active; 'I' for Inactive)
REMARK    1  A    between atoms: O_2  and  C_17 
REMARK    2  A    between atoms: N_5  and  C_10 
REMARK    3  A    between atoms: N_6  and  C_14 
REMARK       I    between atoms: N_6  and  C_23 
REMARK       I    between atoms: N_7  and  C_22 
REMARK    4  A    between atoms: C_10  and  C_13 
REMARK    5  A    between atoms: C_14  and  C_17 
REMARK    6  A    between atoms: C_14  and  C_22 
REMARK    7  A    between atoms: C_20  and  C_25 
REMARK    8  A    between atoms: C_23  and  C_24 
REMARK    9  A    between atoms: C_28  and  C_31 
ROOT
HETATM    1  O   UNL     1       3.427  14.634  90.230  1.00  0.00    -0.388 OA
HETATM    2  N   UNL     1       2.789  13.858  92.893  1.00  0.00     0.096 N 
HETATM    3  C   UNL     1       4.174  14.128  92.483  1.00  0.00     0.299 C 
HETATM    4  C   UNL     1       2.008  13.379  91.744  1.00  0.00     0.299 C 
HETATM    5  C   UNL     1       4.187  15.132  91.334  1.00  0.00     0.198 C 
HETATM    6  C   UNL     1       2.072  14.399  90.613  1.00  0.00     0.198 C 
ENDROOT
BRANCH   2   7
HETATM    7  C   UNL     1       2.752  12.890  93.988  1.00  0.00     0.311 C 
BRANCH   7   8
HETATM    8  C   UNL     1       3.753  11.799  93.815  1.00  0.00    -0.030 A 
HETATM    9  C   UNL     1       5.094  12.030  94.122  1.00  0.00     0.010 A 
HETATM   10  C   UNL     1       6.033  11.011  93.958  1.00  0.00     0.021 A 
HETATM   11  C   UNL     1       5.628   9.761  93.490  1.00  0.00     0.018 A 
HETATM   12  C   UNL     1       4.289   9.529  93.183  1.00  0.00     0.021 A 
HETATM   13  C   UNL     1       3.351  10.548  93.346  1.00  0.00     0.010 A 
BRANCH  11  14
HETATM   14  C   UNL     1       6.590   8.715  93.324  1.00  0.00    -0.061 C 
HETATM   15  C   UNL     1       7.399   7.836  93.185  1.00  0.00    -0.061 C 
BRANCH  15  16
HETATM   16  C   UNL     1       8.362   6.792  93.020  1.00  0.00     0.018 A 
HETATM   17  C   UNL     1       8.597   6.256  91.753  1.00  0.00     0.022 A 
HETATM   18  C   UNL     1       9.538   5.239  91.592  1.00  0.00     0.018 A 
HETATM   19  C   UNL     1      10.221   4.781  92.699  1.00  0.00     0.032 A 
HETATM   20  C   UNL     1      10.006   5.294  93.961  1.00  0.00     0.018 A 
HETATM   21  C   UNL     1       9.066   6.311  94.124  1.00  0.00     0.022 A 
BRANCH  19  22
HETATM   22  C   UNL     1      11.222   3.696  92.527  1.00  0.00     0.252 C 
HETATM   23  O   UNL     1      10.839   2.571  92.215  1.00  0.00    -0.268 OA
HETATM   24  N   UNL     1      12.549   4.057  92.715  1.00  0.00    -0.342 N 
HETATM   25  H   UNL     1      12.792   5.013  92.947  1.00  0.00     0.163 HD
BRANCH  24  26
HETATM   26  C   UNL     1      13.636   3.124  92.560  1.00  0.00     0.199 C 
BRANCH  26  27
HETATM   27  C   UNL     1      14.235   3.140  91.148  1.00  0.00     0.145 C 
HETATM   28  C   UNL     1      13.693   4.282  90.296  1.00  0.00     0.042 C 
BRANCH  27  29
HETATM   29  O   UNL     1      15.655   3.258  91.233  1.00  0.00    -0.393 OA
HETATM   30  H   UNL     1      15.865   4.106  91.659  1.00  0.00     0.210 HD
ENDBRANCH  27  29
ENDBRANCH  26  27
BRANCH  26  31
HETATM   31  C   UNL     1      14.689   3.457  93.612  1.00  0.00     0.220 C 
HETATM   32  O   UNL     1      14.978   4.609  93.929  1.00  0.00    -0.278 OA
HETATM   33  N   UNL     1      15.287   2.330  94.122  1.00  0.00    -0.271 NA
HETATM   34  H   UNL     1      15.136   1.374  93.821  1.00  0.00     0.127 HD
HETATM   35  H   UNL     1      16.591   1.860  93.902  1.00  0.00     0.127 HD
ENDBRANCH  26  31
ENDBRANCH  24  26
ENDBRANCH  19  22
ENDBRANCH  15  16
ENDBRANCH  11  14
ENDBRANCH   7   8
ENDBRANCH   2   7
TORSDOF 9
ENDMDL
