MODEL 1
REMARK VINA RESULT:      -7.4      0.000      0.000
REMARK  9 active torsions:
REMARK  status: ('A' for Active; 'I' for Inactive)
REMARK    1  A    between atoms: O_2  and  C_17 
REMARK    2  A    between atoms: N_5  and  C_10 
REMARK    3  A    between atoms: N_6  and  C_14 
REMARK       I    between atoms: N_6  and  C_23 
REMARK       I    between atoms: N_7  and  C_22 
REMARK    4  A    between atoms: C_10  and  C_13 
REMARK    5  A    between atoms: C_14  and  C_17 
REMARK    6  A    between atoms: C_14  and  C_22 
REMARK    7  A    between atoms: C_20  and  C_25 
REMARK    8  A    between atoms: C_23  and  C_24 
REMARK    9  A    between atoms: C_28  and  C_31 
ROOT
HETATM    1  O   UNL     1      15.835   3.757  94.124  1.00  0.00    -0.388 OA
HETATM    2  N   UNL     1      14.006   2.565  92.298  1.00  0.00     0.096 N 
HETATM    3  C   UNL     1      14.100   4.024  92.449  1.00  0.00     0.299 C 
HETATM    4  C   UNL     1      14.376   1.904  93.557  1.00  0.00     0.299 C 
HETATM    5  C   UNL     1      15.509   4.408  92.895  1.00  0.00     0.198 C 
HETATM    6  C   UNL     1      15.776   2.338  93.978  1.00  0.00     0.198 C 
ENDROOT
BRANCH   2   7
HETATM    7  C   UNL     1      12.661   2.174  91.881  1.00  0.00     0.311 C 
BRANCH   7   8
HETATM    8  C   UNL     1      11.793   3.349  91.585  1.00  0.00    -0.030 A 
HETATM    9  C   UNL     1      11.048   3.940  92.607  1.00  0.00     0.010 A 
HETATM   10  C   UNL     1      10.234   5.038  92.330  1.00  0.00     0.021 A 
HETATM   11  C   UNL     1      10.168   5.547  91.033  1.00  0.00     0.018 A 
HETATM   12  C   UNL     1      10.911   4.958  90.013  1.00  0.00     0.021 A 
HETATM   13  C   UNL     1      11.725   3.859  90.288  1.00  0.00     0.010 A 
BRANCH  11  14
HETATM   14  C   UNL     1       9.335   6.675  90.751  1.00  0.00    -0.061 C 
HETATM   15  C   UNL     1       8.635   7.624  90.513  1.00  0.00    -0.061 C 
BRANCH  15  16
HETATM   16  C   UNL     1       7.803   8.752  90.230  1.00  0.00     0.018 A 
HETATM   17  C   UNL     1       8.354   9.896  89.653  1.00  0.00     0.022 A 
HETATM   18  C   UNL     1       7.542  10.995  89.375  1.00  0.00     0.018 A 
HETATM   19  C   UNL     1       6.199  10.926  89.679  1.00  0.00     0.032 A 
HETATM   20  C   UNL     1       5.630   9.806  90.250  1.00  0.00     0.018 A 
HETATM   21  C   UNL     1       6.441   8.707  90.529  1.00  0.00     0.022 A 
BRANCH  19  22
HETATM   22  C   UNL     1       5.334  12.098  89.384  1.00  0.00     0.252 C 
HETATM   23  O   UNL     1       5.254  12.508  88.229  1.00  0.00    -0.268 OA
HETATM   24  N   UNL     1       4.649  12.635  90.464  1.00  0.00    -0.342 N 
HETATM   25  H   UNL     1       4.745  12.227  91.387  1.00  0.00     0.163 HD
BRANCH  24  26
HETATM   26  C   UNL     1       3.754  13.757  90.335  1.00  0.00     0.199 C 
BRANCH  26  27
HETATM   27  C   UNL     1       2.487  13.607  91.188  1.00  0.00     0.145 C 
HETATM   28  C   UNL     1       2.639  12.552  92.278  1.00  0.00     0.042 C 
BRANCH  27  29
HETATM   29  O   UNL     1       2.170  14.859  91.795  1.00  0.00    -0.393 OA
HETATM   30  H   UNL     1       1.388  15.225  91.350  1.00  0.00     0.210 HD
ENDBRANCH  27  29
ENDBRANCH  26  27
BRANCH  26  31
HETATM   31  C   UNL     1       4.528  15.016  90.709  1.00  0.00     0.220 C 
HETATM   32  O   UNL     1       4.601  15.441  91.860  1.00  0.00    -0.278 OA
HETATM   33  N   UNL     1       5.090  15.625  89.612  1.00  0.00    -0.271 NA
HETATM   34  H   UNL     1       4.975  15.353  88.643  1.00  0.00     0.127 HD
HETATM   35  H   UNL     1       4.709  16.825  88.991  1.00  0.00     0.127 HD
ENDBRANCH  26  31
ENDBRANCH  24  26
ENDBRANCH  19  22
ENDBRANCH  15  16
ENDBRANCH  11  14
ENDBRANCH   7   8
ENDBRANCH   2   7
TORSDOF 9
ENDMDL
