MODEL 1
REMARK VINA RESULT:      -7.1      0.000      0.000
REMARK  11 active torsions:
REMARK  status: ('A' for Active; 'I' for Inactive)
REMARK    1  A    between atoms: O_2  and  C_18 
REMARK    2  A    between atoms: O_5  and  P_8 
REMARK    3  A    between atoms: N_6  and  C_11 
REMARK    4  A    between atoms: N_7  and  C_15 
REMARK       I    between atoms: N_7  and  C_24 
REMARK    5  A    between atoms: P_8  and  C_23 
REMARK    6  A    between atoms: C_11  and  C_14 
REMARK    7  A    between atoms: C_15  and  C_18 
REMARK    8  A    between atoms: C_15  and  C_23 
REMARK    9  A    between atoms: C_21  and  C_26 
REMARK   10  A    between atoms: C_24  and  C_25 
REMARK   11  A    between atoms: C_29  and  C_32 
ROOT
HETATM    1  O   UNL     1      16.398   4.053  94.124  1.00  0.00     0.000 OA
HETATM    2  N   UNL     1      14.446   2.688  92.566  1.00  0.00     0.000 N 
HETATM    3  C   UNL     1      14.539   4.154  92.567  1.00  0.00     0.000 C 
HETATM    4  C   UNL     1      14.916   2.152  93.851  1.00  0.00     0.000 C 
HETATM    5  C   UNL     1      15.974   4.581  92.866  1.00  0.00     0.000 C 
HETATM    6  C   UNL     1      16.340   2.626  94.120  1.00  0.00     0.000 C 
ENDROOT
BRANCH   2   7
HETATM    7  C   UNL     1      13.077   2.256  92.292  1.00  0.00     0.000 C 
BRANCH   7   8
HETATM    8  C   UNL     1      12.175   3.398  91.967  1.00  0.00     0.000 A 
HETATM    9  C   UNL     1      11.523   4.085  92.992  1.00  0.00     0.000 A 
HETATM   10  C   UNL     1      10.678   5.152  92.689  1.00  0.00     0.000 A 
HETATM   11  C   UNL     1      10.488   5.534  91.361  1.00  0.00     0.000 A 
HETATM   12  C   UNL     1      11.139   4.850  90.337  1.00  0.00     0.000 A 
HETATM   13  C   UNL     1      11.983   3.782  90.639  1.00  0.00     0.000 A 
BRANCH  11  14
HETATM   14  C   UNL     1       9.623   6.630  91.050  1.00  0.00     0.000 C 
HETATM   15  C   UNL     1       8.896   7.552  90.790  1.00  0.00     0.000 C 
BRANCH  15  16
HETATM   16  C   UNL     1       8.032   8.648  90.478  1.00  0.00     0.000 A 
HETATM   17  C   UNL     1       6.700   8.623  90.892  1.00  0.00     0.000 A 
HETATM   18  C   UNL     1       5.858   9.694  90.590  1.00  0.00     0.000 A 
HETATM   19  C   UNL     1       6.366  10.764  89.884  1.00  0.00     0.000 A 
HETATM   20  C   UNL     1       7.679  10.812  89.465  1.00  0.00     0.000 A 
HETATM   21  C   UNL     1       8.522   9.742  89.765  1.00  0.00     0.000 A 
BRANCH  19  22
HETATM   22  C   UNL     1       5.468  11.903  89.562  1.00  0.00     0.000 C 
HETATM   23  O   UNL     1       5.412  12.313  88.405  1.00  0.00     0.000 OA
HETATM   24  N   UNL     1       4.727  12.411  90.619  1.00  0.00     0.000 N 
HETATM   25  HN  UNL     1       4.807  12.004  91.544  1.00  0.00     0.000 HD
BRANCH  24  26
HETATM   26  C   UNL     1       3.795  13.498  90.461  1.00  0.00     0.000 C 
BRANCH  26  27
HETATM   27  C   UNL     1       2.400  13.168  91.007  1.00  0.00     0.000 C 
HETATM   28  C   UNL     1       2.425  12.034  92.026  1.00  0.00     0.000 C 
BRANCH  27  29
HETATM   29  O   UNL     1       1.840  14.329  91.621  1.00  0.00     0.000 OA
HETATM   30  H   UNL     1       0.988  14.083  92.018  1.00  0.00     0.000 HD
ENDBRANCH  27  29
ENDBRANCH  26  27
BRANCH  26  31
HETATM   31  C   UNL     1       4.385  14.722  91.153  1.00  0.00     0.000 C 
HETATM   32  O   UNL     1       4.359  14.881  92.372  1.00  0.00     0.000 OA
BRANCH  31  33
HETATM   33  P   UNL     1       4.904  15.625  90.257  1.00  0.00     0.000 P 
HETATM   34  H   UNL     1       4.168  16.788  90.353  1.00  0.00     0.000 HD
BRANCH  33  35
HETATM   35  O   UNL     1       4.900  15.223  88.914  1.00  0.00     0.000 OA
HETATM   36  H   UNL     1       3.943  15.156  88.755  1.00  0.00     0.000 HD
ENDBRANCH  33  35
ENDBRANCH  31  33
ENDBRANCH  26  31
ENDBRANCH  24  26
ENDBRANCH  19  22
ENDBRANCH  15  16
ENDBRANCH  11  14
ENDBRANCH   7   8
ENDBRANCH   2   7
TORSDOF 11
ENDMDL
