MODEL 1
REMARK VINA RESULT:      -7.0      0.000      0.000
REMARK  10 active torsions:
REMARK  status: ('A' for Active; 'I' for Inactive)
REMARK    1  A    between atoms: O_2  and  C_18 
REMARK    2  A    between atoms: O_5  and  N_8 
REMARK    3  A    between atoms: N_6  and  C_11 
REMARK    4  A    between atoms: N_7  and  C_15 
REMARK       I    between atoms: N_7  and  C_24 
REMARK       I    between atoms: N_8  and  C_23 
REMARK    5  A    between atoms: C_11  and  C_14 
REMARK    6  A    between atoms: C_15  and  C_18 
REMARK    7  A    between atoms: C_15  and  C_23 
REMARK    8  A    between atoms: C_21  and  C_26 
REMARK    9  A    between atoms: C_24  and  C_25 
REMARK   10  A    between atoms: C_29  and  C_32 
ROOT
HETATM    1  O   UNK     0      16.848   4.242  94.121  0.00  0.00    -0.388 OA
HETATM    2  N   UNK     0      14.925   2.540  92.894  0.00  0.00     0.096 N 
HETATM    3  C   UNK     0      14.774   4.001  92.884  0.00  0.00     0.299 C 
HETATM    4  C   UNK     0      15.674   2.119  94.086  0.00  0.00     0.299 C 
HETATM    5  C   UNK     0      16.148   4.663  92.948  0.00  0.00     0.198 C 
HETATM    6  C   UNK     0      17.026   2.825  94.123  0.00  0.00     0.198 C 
ENDROOT
BRANCH   2   7
HETATM    7  C   UNK     0      13.619   1.884  92.844  0.00  0.00     0.311 C 
BRANCH   7   8
HETATM    8  C   UNK     0      12.528   2.822  92.452  0.00  0.00    -0.030 A 
HETATM    9  C   UNK     0      12.018   2.793  91.154  0.00  0.00     0.010 A 
HETATM   10  C   UNK     0      10.998   3.671  90.786  0.00  0.00     0.021 A 
HETATM   11  C   UNK     0      10.489   4.575  91.717  0.00  0.00     0.018 A 
HETATM   12  C   UNK     0      10.997   4.604  93.014  0.00  0.00     0.021 A 
HETATM   13  C   UNK     0      12.017   3.727  93.382  0.00  0.00     0.010 A 
BRANCH  11  14
HETATM   14  C   UNK     0       9.441   5.474  91.340  0.00  0.00    -0.061 C 
HETATM   15  C   UNK     0       8.561   6.229  91.023  0.00  0.00    -0.061 C 
BRANCH  15  16
HETATM   16  C   UNK     0       7.516   7.127  90.645  0.00  0.00     0.018 A 
HETATM   17  C   UNK     0       7.052   7.142  89.329  0.00  0.00     0.022 A 
HETATM   18  C   UNK     0       6.030   8.016  88.960  0.00  0.00     0.018 A 
HETATM   19  C   UNK     0       5.494   8.856  89.914  0.00  0.00     0.032 A 
HETATM   20  C   UNK     0       5.935   8.862  91.220  0.00  0.00     0.018 A 
HETATM   21  C   UNK     0       6.958   7.988  91.590  0.00  0.00     0.022 A 
BRANCH  19  22
HETATM   22  C   UNK     0       4.407   9.789  89.520  0.00  0.00     0.252 C 
HETATM   23  O   UNK     0       3.518   9.392  88.770  0.00  0.00    -0.268 OA
HETATM   24  N   UNK     0       4.472  11.064  90.065  0.00  0.00    -0.341 N 
HETATM   25  H   UNK     0       5.223  11.313  90.698  0.00  0.00     0.163 HD
BRANCH  24  26
HETATM   26  C   UNK     0       3.479  12.073  89.798  0.00  0.00     0.207 C 
BRANCH  26  27
HETATM   27  C   UNK     0       2.918  12.707  91.077  0.00  0.00     0.146 C 
HETATM   28  C   UNK     0       4.009  13.055  92.084  0.00  0.00     0.042 C 
BRANCH  27  29
HETATM   29  O   UNK     0       2.198  13.894  90.746  0.00  0.00    -0.393 OA
HETATM   30  H   UNK     0       1.278  13.647  90.551  0.00  0.00     0.210 HD
ENDBRANCH  27  29
ENDBRANCH  26  27
BRANCH  26  31
HETATM   31  C   UNK     0       4.114  13.123  88.892  0.00  0.00     0.266 C 
HETATM   32  O   UNK     0       4.424  14.247  89.283  0.00  0.00    -0.269 OA
HETATM   33  N   UNK     0       4.257  12.676  87.601  0.00  0.00    -0.236 N 
HETATM   34  H   UNK     0       3.933  11.792  87.225  0.00  0.00     0.197 HD
BRANCH  33  35
HETATM   35  O   UNK     0       4.800  13.596  86.693  0.00  0.00    -0.287 OA
HETATM   36  H   UNK     0       5.711  13.655  87.028  0.00  0.00     0.244 HD
ENDBRANCH  33  35
ENDBRANCH  26  31
ENDBRANCH  24  26
ENDBRANCH  19  22
ENDBRANCH  15  16
ENDBRANCH  11  14
ENDBRANCH   7   8
ENDBRANCH   2   7
TORSDOF 10
ENDMDL
