MODEL 1
REMARK VINA RESULT:      -6.1      0.000      0.000
REMARK  12 active torsions:
REMARK  status: ('A' for Active; 'I' for Inactive)
REMARK    1  A    between atoms: O_2  and  C_16 
REMARK    2  A    between atoms: N_5  and  C_9 
REMARK    3  A    between atoms: N_6  and  C_13 
REMARK       I    between atoms: N_6  and  C_22 
REMARK    4  A    between atoms: C_9  and  C_12 
REMARK    5  A    between atoms: C_13  and  C_16 
REMARK    6  A    between atoms: C_13  and  C_21 
REMARK    7  A    between atoms: C_19  and  C_24 
REMARK    8  A    between atoms: C_21  and  C_33 
REMARK    9  A    between atoms: C_22  and  C_23 
REMARK   10  A    between atoms: C_27  and  C_30 
REMARK   11  A    between atoms: C_33  and  C_34 
REMARK   12  A    between atoms: C_34  and  C_35 
ROOT
HETATM    1  O   UNL     1      16.564   3.127  93.974  1.00  0.00    -0.350 OA
HETATM    2  N   UNL     1      14.072   3.000  92.605  1.00  0.00     0.147 N 
HETATM    3  C   UNL     1      14.872   1.793  92.857  1.00  0.00     0.283 C 
HETATM    4  C   UNL     1      14.951   4.173  92.495  1.00  0.00     0.283 C 
HETATM    5  C   UNL     1      15.716   1.986  94.115  1.00  0.00     0.178 C 
HETATM    6  C   UNL     1      15.793   4.309  93.759  1.00  0.00     0.178 C 
ENDROOT
BRANCH   2   7
HETATM    7  C   UNL     1      13.263   2.842  91.397  1.00  0.00     0.277 C 
BRANCH   7   8
HETATM    8  C   UNL     1      12.078   3.745  91.386  1.00  0.00     0.011 A 
HETATM    9  C   UNL     1      11.643   4.308  90.185  1.00  0.00    -0.002 A 
HETATM   10  C   UNL     1      10.535   5.155  90.173  1.00  0.00     0.008 A 
HETATM   11  C   UNL     1       9.861   5.437  91.361  1.00  0.00     0.042 A 
HETATM   12  C   UNL     1      10.295   4.876  92.560  1.00  0.00     0.008 A 
HETATM   13  C   UNL     1      11.403   4.029  92.573  1.00  0.00    -0.002 A 
BRANCH  11  14
HETATM   14  C   UNL     1       8.724   6.305  91.348  1.00  0.00    -0.059 C 
HETATM   15  C   UNL     1       7.767   7.033  91.338  1.00  0.00    -0.059 C 
BRANCH  15  16
HETATM   16  C   UNL     1       6.630   7.899  91.325  1.00  0.00     0.042 A 
HETATM   17  C   UNL     1       5.427   7.462  90.770  1.00  0.00     0.008 A 
HETATM   18  C   UNL     1       4.317   8.306  90.761  1.00  0.00     0.005 A 
HETATM   19  C   UNL     1       4.433   9.567  91.307  1.00  0.00     0.056 A 
HETATM   20  C   UNL     1       5.611  10.023  91.862  1.00  0.00     0.005 A 
HETATM   21  C   UNL     1       6.722   9.180  91.871  1.00  0.00     0.008 A 
BRANCH  19  22
HETATM   22  C   UNL     1       3.251  10.467  91.295  1.00  0.00     0.254 C 
HETATM   23  O   UNL     1       2.142   9.997  91.050  1.00  0.00    -0.268 OA
HETATM   24  N   UNL     1       3.498  11.799  91.595  1.00  0.00    -0.335 N 
HETATM   25  HN  UNL     1       4.437  12.111  91.812  1.00  0.00     0.164 HD
BRANCH  24  26
HETATM   26  C   UNL     1       2.452  12.789  91.647  1.00  0.00     0.166 C 
BRANCH  26  27
HETATM   27  C   UNL     1       2.311  13.431  93.033  1.00  0.00     0.138 C 
HETATM   28  C   UNL     1       3.641  13.941  93.578  1.00  0.00     0.034 C 
BRANCH  27  29
HETATM   29  O   UNL     1       1.391  14.520  92.964  1.00  0.00    -0.383 OA
HETATM   30  H   UNL     1       1.040  14.680  93.856  1.00  0.00     0.210 HD
ENDBRANCH  27  29
ENDBRANCH  26  27
BRANCH  26  31
HETATM   31  C   UNL     1       2.748  13.836  90.578  1.00  0.00     0.181 C 
HETATM   32  O   UNL     1       1.996  14.779  90.339  1.00  0.00    -0.294 OA
BRANCH  31  33
HETATM   33  C   UNL     1       4.229  14.471  90.751  1.00  0.00     0.138 C 
BRANCH  33  34
HETATM   34  C   UNL     1       4.684  14.470  89.414  1.00  0.00     0.208 C 
HETATM   35  O   UNL     1       4.893  15.556  88.922  1.00  0.00    -0.289 OA
BRANCH  34  36
HETATM   36  C   UNL     1       5.208  13.460  88.656  1.00  0.00     0.194 C 
HETATM   37  O   UNL     1       4.576  12.549  87.801  1.00  0.00    -0.185 OA
ENDBRANCH  34  36
ENDBRANCH  33  34
ENDBRANCH  31  33
ENDBRANCH  26  31
ENDBRANCH  24  26
ENDBRANCH  19  22
ENDBRANCH  15  16
ENDBRANCH  11  14
ENDBRANCH   7   8
ENDBRANCH   2   7
TORSDOF 12
ENDMDL
MODEL 2
REMARK VINA RESULT:      -5.9      1.293      1.804
REMARK  12 active torsions:
REMARK  status: ('A' for Active; 'I' for Inactive)
REMARK    1  A    between atoms: O_2  and  C_16 
REMARK    2  A    between atoms: N_5  and  C_9 
REMARK    3  A    between atoms: N_6  and  C_13 
REMARK       I    between atoms: N_6  and  C_22 
REMARK    4  A    between atoms: C_9  and  C_12 
REMARK    5  A    between atoms: C_13  and  C_16 
REMARK    6  A    between atoms: C_13  and  C_21 
REMARK    7  A    between atoms: C_19  and  C_24 
REMARK    8  A    between atoms: C_21  and  C_33 
REMARK    9  A    between atoms: C_22  and  C_23 
REMARK   10  A    between atoms: C_27  and  C_30 
REMARK   11  A    between atoms: C_33  and  C_34 
REMARK   12  A    between atoms: C_34  and  C_35 
ROOT
HETATM    1  O   UNL     1      16.289   4.224  94.097  1.00  0.00    -0.350 OA
HETATM    2  N   UNL     1      14.481   2.662  92.549  1.00  0.00     0.147 N 
HETATM    3  C   UNL     1      14.425   4.131  92.546  1.00  0.00     0.283 C 
HETATM    4  C   UNL     1      15.007   2.182  93.835  1.00  0.00     0.283 C 
HETATM    5  C   UNL     1      15.810   4.702  92.838  1.00  0.00     0.178 C 
HETATM    6  C   UNL     1      16.376   2.799  94.098  1.00  0.00     0.178 C 
ENDROOT
BRANCH   2   7
HETATM    7  C   UNL     1      13.162   2.093  92.282  1.00  0.00     0.277 C 
BRANCH   7   8
HETATM    8  C   UNL     1      12.082   3.120  92.316  1.00  0.00     0.011 A 
HETATM    9  C   UNL     1      11.876   3.875  93.471  1.00  0.00    -0.002 A 
HETATM   10  C   UNL     1      10.865   4.835  93.506  1.00  0.00     0.008 A 
HETATM   11  C   UNL     1      10.062   5.041  92.384  1.00  0.00     0.042 A 
HETATM   12  C   UNL     1      10.267   4.288  91.230  1.00  0.00     0.008 A 
HETATM   13  C   UNL     1      11.278   3.327  91.196  1.00  0.00    -0.002 A 
BRANCH  11  14
HETATM   14  C   UNL     1       9.026   6.027  92.419  1.00  0.00    -0.059 C 
HETATM   15  C   UNL     1       8.156   6.856  92.449  1.00  0.00    -0.059 C 
BRANCH  15  16
HETATM   16  C   UNL     1       7.121   7.843  92.484  1.00  0.00     0.042 A 
HETATM   17  C   UNL     1       5.936   7.634  91.777  1.00  0.00     0.008 A 
HETATM   18  C   UNL     1       4.926   8.596  91.813  1.00  0.00     0.005 A 
HETATM   19  C   UNL     1       5.122   9.741  92.555  1.00  0.00     0.056 A 
HETATM   20  C   UNL     1       6.284   9.971  93.262  1.00  0.00     0.005 A 
HETATM   21  C   UNL     1       7.295   9.010  93.226  1.00  0.00     0.008 A 
BRANCH  19  22
HETATM   22  C   UNL     1       4.047  10.766  92.592  1.00  0.00     0.254 C 
HETATM   23  O   UNL     1       3.042  10.557  93.268  1.00  0.00    -0.268 OA
HETATM   24  N   UNL     1       4.281  11.920  91.858  1.00  0.00    -0.335 N 
HETATM   25  HN  UNL     1       5.147  12.034  91.344  1.00  0.00     0.164 HD
BRANCH  24  26
HETATM   26  C   UNL     1       3.345  13.015  91.814  1.00  0.00     0.166 C 
BRANCH  26  27
HETATM   27  C   UNL     1       3.769  14.195  92.696  1.00  0.00     0.138 C 
HETATM   28  C   UNL     1       2.590  14.842  93.414  1.00  0.00     0.034 C 
BRANCH  27  29
HETATM   29  O   UNL     1       4.715  13.750  93.668  1.00  0.00    -0.383 OA
HETATM   30  H   UNL     1       4.948  12.828  93.465  1.00  0.00     0.210 HD
ENDBRANCH  27  29
ENDBRANCH  26  27
BRANCH  26  31
HETATM   31  C   UNL     1       3.192  13.438  90.357  1.00  0.00     0.181 C 
HETATM   32  O   UNL     1       2.348  14.249  89.980  1.00  0.00    -0.294 OA
BRANCH  31  33
HETATM   33  C   UNL     1       4.601  13.924  89.720  1.00  0.00     0.138 C 
BRANCH  33  34
HETATM   34  C   UNL     1       4.710  13.062  88.606  1.00  0.00     0.208 C 
HETATM   35  O   UNL     1       5.091  13.569  87.576  1.00  0.00    -0.289 OA
BRANCH  34  36
HETATM   36  C   UNL     1       4.736  11.696  88.541  1.00  0.00     0.194 C 
HETATM   37  O   UNL     1       4.047  10.817  87.697  1.00  0.00    -0.185 OA
ENDBRANCH  34  36
ENDBRANCH  33  34
ENDBRANCH  31  33
ENDBRANCH  26  31
ENDBRANCH  24  26
ENDBRANCH  19  22
ENDBRANCH  15  16
ENDBRANCH  11  14
ENDBRANCH   7   8
ENDBRANCH   2   7
TORSDOF 12
ENDMDL
MODEL 3
REMARK VINA RESULT:      -5.8      1.402      1.810
REMARK  12 active torsions:
REMARK  status: ('A' for Active; 'I' for Inactive)
REMARK    1  A    between atoms: O_2  and  C_16 
REMARK    2  A    between atoms: N_5  and  C_9 
REMARK    3  A    between atoms: N_6  and  C_13 
REMARK       I    between atoms: N_6  and  C_22 
REMARK    4  A    between atoms: C_9  and  C_12 
REMARK    5  A    between atoms: C_13  and  C_16 
REMARK    6  A    between atoms: C_13  and  C_21 
REMARK    7  A    between atoms: C_19  and  C_24 
REMARK    8  A    between atoms: C_21  and  C_33 
REMARK    9  A    between atoms: C_22  and  C_23 
REMARK   10  A    between atoms: C_27  and  C_30 
REMARK   11  A    between atoms: C_33  and  C_34 
REMARK   12  A    between atoms: C_34  and  C_35 
ROOT
HETATM    1  O   UNL     1      17.152   3.767  93.803  1.00  0.00    -0.350 OA
HETATM    2  N   UNL     1      14.431   3.098  93.300  1.00  0.00     0.147 N 
HETATM    3  C   UNL     1      15.501   2.097  93.187  1.00  0.00     0.283 C 
HETATM    4  C   UNL     1      14.961   4.437  93.006  1.00  0.00     0.283 C 
HETATM    5  C   UNL     1      16.654   2.465  94.118  1.00  0.00     0.178 C 
HETATM    6  C   UNL     1      16.125   4.749  93.940  1.00  0.00     0.178 C 
ENDROOT
BRANCH   2   7
HETATM    7  C   UNL     1      13.320   2.771  92.407  1.00  0.00     0.277 C 
BRANCH   7   8
HETATM    8  C   UNL     1      12.218   3.772  92.482  1.00  0.00     0.011 A 
HETATM    9  C   UNL     1      11.677   4.301  91.310  1.00  0.00    -0.002 A 
HETATM   10  C   UNL     1      10.647   5.239  91.378  1.00  0.00     0.008 A 
HETATM   11  C   UNL     1      10.158   5.646  92.619  1.00  0.00     0.042 A 
HETATM   12  C   UNL     1      10.698   5.119  93.790  1.00  0.00     0.008 A 
HETATM   13  C   UNL     1      11.728   4.181  93.722  1.00  0.00    -0.002 A 
BRANCH  11  14
HETATM   14  C   UNL     1       9.100   6.607  92.689  1.00  0.00    -0.059 C 
HETATM   15  C   UNL     1       8.212   7.415  92.748  1.00  0.00    -0.059 C 
BRANCH  15  16
HETATM   16  C   UNL     1       7.155   8.375  92.817  1.00  0.00     0.042 A 
HETATM   17  C   UNL     1       7.437   9.698  93.158  1.00  0.00     0.008 A 
HETATM   18  C   UNL     1       6.406  10.636  93.222  1.00  0.00     0.005 A 
HETATM   19  C   UNL     1       5.118  10.230  92.944  1.00  0.00     0.056 A 
HETATM   20  C   UNL     1       4.813   8.928  92.605  1.00  0.00     0.005 A 
HETATM   21  C   UNL     1       5.843   7.990  92.540  1.00  0.00     0.008 A 
BRANCH  19  22
HETATM   22  C   UNL     1       4.019  11.228  93.015  1.00  0.00     0.254 C 
HETATM   23  O   UNL     1       3.014  10.968  93.673  1.00  0.00    -0.268 OA
HETATM   24  N   UNL     1       4.234  12.417  92.333  1.00  0.00    -0.335 N 
HETATM   25  HN  UNL     1       5.101  12.572  91.831  1.00  0.00     0.164 HD
BRANCH  24  26
HETATM   26  C   UNL     1       3.274  13.492  92.327  1.00  0.00     0.166 C 
BRANCH  26  27
HETATM   27  C   UNL     1       3.214  14.241  93.664  1.00  0.00     0.138 C 
HETATM   28  C   UNL     1       4.584  14.727  94.124  1.00  0.00     0.034 C 
BRANCH  27  29
HETATM   29  O   UNL     1       2.341  15.364  93.543  1.00  0.00    -0.383 OA
HETATM   30  H   UNL     1       1.465  15.042  93.270  1.00  0.00     0.210 HD
ENDBRANCH  27  29
ENDBRANCH  26  27
BRANCH  26  31
HETATM   31  C   UNL     1       3.634  14.431  91.181  1.00  0.00     0.181 C 
HETATM   32  O   UNL     1       4.793  14.721  90.891  1.00  0.00    -0.294 OA
BRANCH  31  33
HETATM   33  C   UNL     1       2.917  13.992  89.795  1.00  0.00     0.138 C 
BRANCH  33  34
HETATM   34  C   UNL     1       3.884  13.117  89.252  1.00  0.00     0.208 C 
HETATM   35  O   UNL     1       3.700  11.937  89.443  1.00  0.00    -0.289 OA
BRANCH  34  36
HETATM   36  C   UNL     1       4.845  13.335  88.304  1.00  0.00     0.194 C 
HETATM   37  O   UNL     1       6.219  13.069  88.331  1.00  0.00    -0.185 OA
ENDBRANCH  34  36
ENDBRANCH  33  34
ENDBRANCH  31  33
ENDBRANCH  26  31
ENDBRANCH  24  26
ENDBRANCH  19  22
ENDBRANCH  15  16
ENDBRANCH  11  14
ENDBRANCH   7   8
ENDBRANCH   2   7
TORSDOF 12
ENDMDL
MODEL 4
REMARK VINA RESULT:      -5.3      2.215     12.907
REMARK  12 active torsions:
REMARK  status: ('A' for Active; 'I' for Inactive)
REMARK    1  A    between atoms: O_2  and  C_16 
REMARK    2  A    between atoms: N_5  and  C_9 
REMARK    3  A    between atoms: N_6  and  C_13 
REMARK       I    between atoms: N_6  and  C_22 
REMARK    4  A    between atoms: C_9  and  C_12 
REMARK    5  A    between atoms: C_13  and  C_16 
REMARK    6  A    between atoms: C_13  and  C_21 
REMARK    7  A    between atoms: C_19  and  C_24 
REMARK    8  A    between atoms: C_21  and  C_33 
REMARK    9  A    between atoms: C_22  and  C_23 
REMARK   10  A    between atoms: C_27  and  C_30 
REMARK   11  A    between atoms: C_33  and  C_34 
REMARK   12  A    between atoms: C_34  and  C_35 
ROOT
HETATM    1  O   UNL     1       3.763  15.143  93.396  1.00  0.00    -0.350 OA
HETATM    2  N   UNL     1       2.869  14.317  90.823  1.00  0.00     0.147 N 
HETATM    3  C   UNL     1       2.194  13.872  92.051  1.00  0.00     0.283 C 
HETATM    4  C   UNL     1       4.289  14.578  91.097  1.00  0.00     0.283 C 
HETATM    5  C   UNL     1       2.374  14.917  93.148  1.00  0.00     0.178 C 
HETATM    6  C   UNL     1       4.421  15.605  92.216  1.00  0.00     0.178 C 
ENDROOT
BRANCH   2   7
HETATM    7  C   UNL     1       2.718  13.324  89.761  1.00  0.00     0.277 C 
BRANCH   7   8
HETATM    8  C   UNL     1       3.735  12.238  89.849  1.00  0.00     0.011 A 
HETATM    9  C   UNL     1       5.006  12.428  89.306  1.00  0.00    -0.002 A 
HETATM   10  C   UNL     1       5.958  11.411  89.386  1.00  0.00     0.008 A 
HETATM   11  C   UNL     1       5.639  10.207  90.012  1.00  0.00     0.042 A 
HETATM   12  C   UNL     1       4.370  10.016  90.556  1.00  0.00     0.008 A 
HETATM   13  C   UNL     1       3.418  11.032  90.475  1.00  0.00    -0.002 A 
BRANCH  11  14
HETATM   14  C   UNL     1       6.616   9.165  90.096  1.00  0.00    -0.059 C 
HETATM   15  C   UNL     1       7.437   8.289  90.167  1.00  0.00    -0.059 C 
BRANCH  15  16
HETATM   16  C   UNL     1       8.414   7.249  90.251  1.00  0.00     0.042 A 
HETATM   17  C   UNL     1       8.268   6.231  91.194  1.00  0.00     0.008 A 
HETATM   18  C   UNL     1       9.220   5.215  91.273  1.00  0.00     0.005 A 
HETATM   19  C   UNL     1      10.295   5.238  90.409  1.00  0.00     0.056 A 
HETATM   20  C   UNL     1      10.462   6.233  89.469  1.00  0.00     0.005 A 
HETATM   21  C   UNL     1       9.510   7.250  89.388  1.00  0.00     0.008 A 
BRANCH  19  22
HETATM   22  C   UNL     1      11.310   4.156  90.496  1.00  0.00     0.254 C 
HETATM   23  O   UNL     1      11.329   3.282  89.633  1.00  0.00    -0.268 OA
HETATM   24  N   UNL     1      12.194   4.236  91.563  1.00  0.00    -0.335 N 
HETATM   25  HN  UNL     1      12.133   5.003  92.223  1.00  0.00     0.164 HD
BRANCH  24  26
HETATM   26  C   UNL     1      13.249   3.277  91.769  1.00  0.00     0.166 C 
BRANCH  26  27
HETATM   27  C   UNL     1      14.570   3.696  91.112  1.00  0.00     0.138 C 
HETATM   28  C   UNL     1      14.855   2.922  89.830  1.00  0.00     0.034 C 
BRANCH  27  29
HETATM   29  O   UNL     1      14.533   5.091  90.813  1.00  0.00    -0.383 OA
HETATM   30  H   UNL     1      14.365   5.575  91.639  1.00  0.00     0.210 HD
ENDBRANCH  27  29
ENDBRANCH  26  27
BRANCH  26  31
HETATM   31  C   UNL     1      13.414   3.083  93.273  1.00  0.00     0.181 C 
HETATM   32  O   UNL     1      12.484   2.774  94.015  1.00  0.00    -0.294 OA
BRANCH  31  33
HETATM   33  C   UNL     1      14.627   2.064  93.620  1.00  0.00     0.138 C 
BRANCH  33  34
HETATM   34  C   UNL     1      15.651   2.969  93.976  1.00  0.00     0.208 C 
HETATM   35  O   UNL     1      16.783   2.548  93.902  1.00  0.00    -0.289 OA
BRANCH  34  36
HETATM   36  C   UNL     1      15.623   4.329  94.120  1.00  0.00     0.194 C 
HETATM   37  O   UNL     1      16.414   5.318  93.524  1.00  0.00    -0.185 OA
ENDBRANCH  34  36
ENDBRANCH  33  34
ENDBRANCH  31  33
ENDBRANCH  26  31
ENDBRANCH  24  26
ENDBRANCH  19  22
ENDBRANCH  15  16
ENDBRANCH  11  14
ENDBRANCH   7   8
ENDBRANCH   2   7
TORSDOF 12
ENDMDL
MODEL 5
REMARK VINA RESULT:      -4.0      1.407      3.035
REMARK  12 active torsions:
REMARK  status: ('A' for Active; 'I' for Inactive)
REMARK    1  A    between atoms: O_2  and  C_16 
REMARK    2  A    between atoms: N_5  and  C_9 
REMARK    3  A    between atoms: N_6  and  C_13 
REMARK       I    between atoms: N_6  and  C_22 
REMARK    4  A    between atoms: C_9  and  C_12 
REMARK    5  A    between atoms: C_13  and  C_16 
REMARK    6  A    between atoms: C_13  and  C_21 
REMARK    7  A    between atoms: C_19  and  C_24 
REMARK    8  A    between atoms: C_21  and  C_33 
REMARK    9  A    between atoms: C_22  and  C_23 
REMARK   10  A    between atoms: C_27  and  C_30 
REMARK   11  A    between atoms: C_33  and  C_34 
REMARK   12  A    between atoms: C_34  and  C_35 
ROOT
HETATM    1  O   UNL     1      15.955   4.212  93.909  1.00  0.00    -0.350 OA
HETATM    2  N   UNL     1      14.204   2.596  92.353  1.00  0.00     0.147 N 
HETATM    3  C   UNL     1      14.309   4.046  92.134  1.00  0.00     0.283 C 
HETATM    4  C   UNL     1      14.502   2.276  93.755  1.00  0.00     0.283 C 
HETATM    5  C   UNL     1      15.698   4.530  92.540  1.00  0.00     0.178 C 
HETATM    6  C   UNL     1      15.886   2.802  94.124  1.00  0.00     0.178 C 
ENDROOT
BRANCH   2   7
HETATM    7  C   UNL     1      12.876   2.111  91.980  1.00  0.00     0.277 C 
BRANCH   7   8
HETATM    8  C   UNL     1      11.898   3.221  91.794  1.00  0.00     0.011 A 
HETATM    9  C   UNL     1      11.342   3.852  92.908  1.00  0.00    -0.002 A 
HETATM   10  C   UNL     1      10.425   4.889  92.735  1.00  0.00     0.008 A 
HETATM   11  C   UNL     1      10.066   5.295  91.450  1.00  0.00     0.042 A 
HETATM   12  C   UNL     1      10.621   4.665  90.338  1.00  0.00     0.008 A 
HETATM   13  C   UNL     1      11.537   3.628  90.510  1.00  0.00    -0.002 A 
BRANCH  11  14
HETATM   14  C   UNL     1       9.127   6.360  91.274  1.00  0.00    -0.059 C 
HETATM   15  C   UNL     1       8.337   7.255  91.126  1.00  0.00    -0.059 C 
BRANCH  15  16
HETATM   16  C   UNL     1       7.399   8.319  90.951  1.00  0.00     0.042 A 
HETATM   17  C   UNL     1       6.265   8.125  90.161  1.00  0.00     0.008 A 
HETATM   18  C   UNL     1       5.349   9.163  89.992  1.00  0.00     0.005 A 
HETATM   19  C   UNL     1       5.586  10.370  90.616  1.00  0.00     0.056 A 
HETATM   20  C   UNL     1       6.699  10.587  91.401  1.00  0.00     0.005 A 
HETATM   21  C   UNL     1       7.617   9.550  91.570  1.00  0.00     0.008 A 
BRANCH  19  22
HETATM   22  C   UNL     1       4.611  11.476  90.434  1.00  0.00     0.254 C 
HETATM   23  O   UNL     1       3.849  11.451  89.470  1.00  0.00    -0.268 OA
HETATM   24  N   UNL     1       4.622  12.464  91.409  1.00  0.00    -0.335 N 
HETATM   25  HN  UNL     1       5.264  12.404  92.191  1.00  0.00     0.164 HD
BRANCH  24  26
HETATM   26  C   UNL     1       3.721  13.587  91.385  1.00  0.00     0.166 C 
BRANCH  26  27
HETATM   27  C   UNL     1       3.678  14.286  90.020  1.00  0.00     0.138 C 
HETATM   28  C   UNL     1       5.070  14.552  89.457  1.00  0.00     0.034 C 
BRANCH  27  29
HETATM   29  O   UNL     1       2.950  13.480  89.094  1.00  0.00    -0.383 OA
HETATM   30  H   UNL     1       2.439  12.824  89.598  1.00  0.00     0.210 HD
ENDBRANCH  27  29
ENDBRANCH  26  27
BRANCH  26  31
HETATM   31  C   UNL     1       2.340  13.085  91.795  1.00  0.00     0.181 C 
HETATM   32  O   UNL     1       1.890  11.998  91.439  1.00  0.00    -0.294 OA
BRANCH  31  33
HETATM   33  C   UNL     1       2.122  13.162  93.399  1.00  0.00     0.138 C 
BRANCH  33  34
HETATM   34  C   UNL     1       2.283  11.806  93.762  1.00  0.00     0.208 C 
HETATM   35  O   UNL     1       1.278  11.133  93.765  1.00  0.00    -0.289 OA
BRANCH  34  36
HETATM   36  C   UNL     1       3.411  11.036  93.838  1.00  0.00     0.194 C 
HETATM   37  O   UNL     1       3.557   9.670  94.104  1.00  0.00    -0.185 OA
ENDBRANCH  34  36
ENDBRANCH  33  34
ENDBRANCH  31  33
ENDBRANCH  26  31
ENDBRANCH  24  26
ENDBRANCH  19  22
ENDBRANCH  15  16
ENDBRANCH  11  14
ENDBRANCH   7   8
ENDBRANCH   2   7
TORSDOF 12
ENDMDL
MODEL 6
REMARK VINA RESULT:      -4.0      1.276      1.745
REMARK  12 active torsions:
REMARK  status: ('A' for Active; 'I' for Inactive)
REMARK    1  A    between atoms: O_2  and  C_16 
REMARK    2  A    between atoms: N_5  and  C_9 
REMARK    3  A    between atoms: N_6  and  C_13 
REMARK       I    between atoms: N_6  and  C_22 
REMARK    4  A    between atoms: C_9  and  C_12 
REMARK    5  A    between atoms: C_13  and  C_16 
REMARK    6  A    between atoms: C_13  and  C_21 
REMARK    7  A    between atoms: C_19  and  C_24 
REMARK    8  A    between atoms: C_21  and  C_33 
REMARK    9  A    between atoms: C_22  and  C_23 
REMARK   10  A    between atoms: C_27  and  C_30 
REMARK   11  A    between atoms: C_33  and  C_34 
REMARK   12  A    between atoms: C_34  and  C_35 
ROOT
HETATM    1  O   UNL     1      15.708   3.795  91.391  1.00  0.00    -0.350 OA
HETATM    2  N   UNL     1      13.508   2.636  92.777  1.00  0.00     0.147 N 
HETATM    3  C   UNL     1      13.309   3.651  91.733  1.00  0.00     0.283 C 
HETATM    4  C   UNL     1      14.810   2.832  93.428  1.00  0.00     0.283 C 
HETATM    5  C   UNL     1      14.458   3.592  90.729  1.00  0.00     0.178 C 
HETATM    6  C   UNL     1      15.923   2.793  92.386  1.00  0.00     0.178 C 
ENDROOT
BRANCH   2   7
HETATM    7  C   UNL     1      12.424   2.681  93.756  1.00  0.00     0.277 C 
BRANCH   7   8
HETATM    8  C   UNL     1      11.352   3.643  93.373  1.00  0.00     0.011 A 
HETATM    9  C   UNL     1      11.189   4.827  94.093  1.00  0.00    -0.002 A 
HETATM   10  C   UNL     1      10.184   5.727  93.737  1.00  0.00     0.008 A 
HETATM   11  C   UNL     1       9.346   5.443  92.659  1.00  0.00     0.042 A 
HETATM   12  C   UNL     1       9.508   4.262  91.939  1.00  0.00     0.008 A 
HETATM   13  C   UNL     1      10.512   3.361  92.296  1.00  0.00    -0.002 A 
BRANCH  11  14
HETATM   14  C   UNL     1       8.317   6.368  92.292  1.00  0.00    -0.059 C 
HETATM   15  C   UNL     1       7.452   7.144  91.984  1.00  0.00    -0.059 C 
BRANCH  15  16
HETATM   16  C   UNL     1       6.424   8.067  91.617  1.00  0.00     0.042 A 
HETATM   17  C   UNL     1       6.123   8.276  90.271  1.00  0.00     0.008 A 
HETATM   18  C   UNL     1       5.118   9.175  89.914  1.00  0.00     0.005 A 
HETATM   19  C   UNL     1       4.436   9.842  90.910  1.00  0.00     0.056 A 
HETATM   20  C   UNL     1       4.714   9.652  92.247  1.00  0.00     0.005 A 
HETATM   21  C   UNL     1       5.719   8.754  92.605  1.00  0.00     0.008 A 
BRANCH  19  22
HETATM   22  C   UNL     1       3.366  10.800  90.529  1.00  0.00     0.254 C 
HETATM   23  O   UNL     1       2.692  10.579  89.526  1.00  0.00    -0.268 OA
HETATM   24  N   UNL     1       3.194  11.887  91.374  1.00  0.00    -0.335 N 
HETATM   25  HN  UNL     1       3.772  11.991  92.200  1.00  0.00     0.164 HD
BRANCH  24  26
HETATM   26  C   UNL     1       2.183  12.890  91.153  1.00  0.00     0.166 C 
BRANCH  26  27
HETATM   27  C   UNL     1       1.372  13.204  92.417  1.00  0.00     0.138 C 
HETATM   28  C   UNL     1       1.400  12.063  93.427  1.00  0.00     0.034 C 
BRANCH  27  29
HETATM   29  O   UNL     1       1.888  14.383  93.034  1.00  0.00    -0.383 OA
HETATM   30  H   UNL     1       1.267  15.111  92.867  1.00  0.00     0.210 HD
ENDBRANCH  27  29
ENDBRANCH  26  27
BRANCH  26  31
HETATM   31  C   UNL     1       2.874  14.138  90.614  1.00  0.00     0.181 C 
HETATM   32  O   UNL     1       2.528  15.278  90.915  1.00  0.00    -0.294 OA
BRANCH  31  33
HETATM   33  C   UNL     1       4.479  14.080  90.834  1.00  0.00     0.138 C 
BRANCH  33  34
HETATM   34  C   UNL     1       4.945  14.350  89.529  1.00  0.00     0.208 C 
HETATM   35  O   UNL     1       5.312  15.483  89.319  1.00  0.00    -0.289 OA
BRANCH  34  36
HETATM   36  C   UNL     1       5.326  13.499  88.528  1.00  0.00     0.194 C 
HETATM   37  O   UNL     1       4.565  12.621  87.748  1.00  0.00    -0.185 OA
ENDBRANCH  34  36
ENDBRANCH  33  34
ENDBRANCH  31  33
ENDBRANCH  26  31
ENDBRANCH  24  26
ENDBRANCH  19  22
ENDBRANCH  15  16
ENDBRANCH  11  14
ENDBRANCH   7   8
ENDBRANCH   2   7
TORSDOF 12
ENDMDL
MODEL 7
REMARK VINA RESULT:      -3.4      2.362     12.677
REMARK  12 active torsions:
REMARK  status: ('A' for Active; 'I' for Inactive)
REMARK    1  A    between atoms: O_2  and  C_16 
REMARK    2  A    between atoms: N_5  and  C_9 
REMARK    3  A    between atoms: N_6  and  C_13 
REMARK       I    between atoms: N_6  and  C_22 
REMARK    4  A    between atoms: C_9  and  C_12 
REMARK    5  A    between atoms: C_13  and  C_16 
REMARK    6  A    between atoms: C_13  and  C_21 
REMARK    7  A    between atoms: C_19  and  C_24 
REMARK    8  A    between atoms: C_21  and  C_33 
REMARK    9  A    between atoms: C_22  and  C_23 
REMARK   10  A    between atoms: C_27  and  C_30 
REMARK   11  A    between atoms: C_33  and  C_34 
REMARK   12  A    between atoms: C_34  and  C_35 
ROOT
HETATM    1  O   UNL     1       5.076  15.625  91.070  1.00  0.00    -0.350 OA
HETATM    2  N   UNL     1       3.236  13.578  90.344  1.00  0.00     0.147 N 
HETATM    3  C   UNL     1       3.571  13.846  91.749  1.00  0.00     0.283 C 
HETATM    4  C   UNL     1       4.370  13.934  89.480  1.00  0.00     0.283 C 
HETATM    5  C   UNL     1       3.968  15.311  91.915  1.00  0.00     0.178 C 
HETATM    6  C   UNL     1       4.749  15.396  89.699  1.00  0.00     0.178 C 
ENDROOT
BRANCH   2   7
HETATM    7  C   UNL     1       2.863  12.176  90.160  1.00  0.00     0.277 C 
BRANCH   7   8
HETATM    8  C   UNL     1       4.035  11.259  90.252  1.00  0.00     0.011 A 
HETATM    9  C   UNL     1       4.610  10.988  91.494  1.00  0.00    -0.002 A 
HETATM   10  C   UNL     1       5.708  10.132  91.581  1.00  0.00     0.008 A 
HETATM   11  C   UNL     1       6.228   9.546  90.428  1.00  0.00     0.042 A 
HETATM   12  C   UNL     1       5.654   9.816  89.187  1.00  0.00     0.008 A 
HETATM   13  C   UNL     1       4.556  10.673  89.099  1.00  0.00    -0.002 A 
BRANCH  11  14
HETATM   14  C   UNL     1       7.353   8.667  90.518  1.00  0.00    -0.059 C 
HETATM   15  C   UNL     1       8.297   7.927  90.594  1.00  0.00    -0.059 C 
BRANCH  15  16
HETATM   16  C   UNL     1       9.421   7.047  90.684  1.00  0.00     0.042 A 
HETATM   17  C   UNL     1      10.001   6.538  89.523  1.00  0.00     0.008 A 
HETATM   18  C   UNL     1      11.099   5.681  89.611  1.00  0.00     0.005 A 
HETATM   19  C   UNL     1      11.591   5.355  90.857  1.00  0.00     0.056 A 
HETATM   20  C   UNL     1      11.035   5.844  92.020  1.00  0.00     0.005 A 
HETATM   21  C   UNL     1       9.937   6.701  91.933  1.00  0.00     0.008 A 
BRANCH  19  22
HETATM   22  C   UNL     1      12.759   4.441  90.950  1.00  0.00     0.254 C 
HETATM   23  O   UNL     1      13.128   3.835  89.947  1.00  0.00    -0.268 OA
HETATM   24  N   UNL     1      13.372   4.362  92.193  1.00  0.00    -0.335 N 
HETATM   25  HN  UNL     1      13.026   4.912  92.971  1.00  0.00     0.164 HD
BRANCH  24  26
HETATM   26  C   UNL     1      14.529   3.539  92.437  1.00  0.00     0.166 C 
BRANCH  26  27
HETATM   27  C   UNL     1      15.490   4.155  93.462  1.00  0.00     0.138 C 
HETATM   28  C   UNL     1      16.645   3.223  93.811  1.00  0.00     0.034 C 
BRANCH  27  29
HETATM   29  O   UNL     1      16.019   5.376  92.948  1.00  0.00    -0.383 OA
HETATM   30  H   UNL     1      16.910   5.501  93.315  1.00  0.00     0.210 HD
ENDBRANCH  27  29
ENDBRANCH  26  27
BRANCH  26  31
HETATM   31  C   UNL     1      14.039   2.168  92.889  1.00  0.00     0.181 C 
HETATM   32  O   UNL     1      14.751   1.368  93.493  1.00  0.00    -0.294 OA
BRANCH  31  33
HETATM   33  C   UNL     1      12.658   2.270  93.732  1.00  0.00     0.138 C 
BRANCH  33  34
HETATM   34  C   UNL     1      11.700   2.089  92.710  1.00  0.00     0.208 C 
HETATM   35  O   UNL     1      12.006   1.326  91.823  1.00  0.00    -0.289 OA
BRANCH  34  36
HETATM   36  C   UNL     1      10.368   2.397  92.678  1.00  0.00     0.194 C 
HETATM   37  O   UNL     1       9.589   2.938  91.649  1.00  0.00    -0.185 OA
ENDBRANCH  34  36
ENDBRANCH  33  34
ENDBRANCH  31  33
ENDBRANCH  26  31
ENDBRANCH  24  26
ENDBRANCH  19  22
ENDBRANCH  15  16
ENDBRANCH  11  14
ENDBRANCH   7   8
ENDBRANCH   2   7
TORSDOF 12
ENDMDL
