MODEL 1
REMARK VINA RESULT:      -6.3      0.000      0.000
REMARK  12 active torsions:
REMARK  status: ('A' for Active; 'I' for Inactive)
REMARK    1  A    between atoms: O_2  and  C_16 
REMARK    2  A    between atoms: N_5  and  C_9 
REMARK    3  A    between atoms: N_6  and  C_13 
REMARK       I    between atoms: N_6  and  C_22 
REMARK    4  A    between atoms: C_9  and  C_12 
REMARK    5  A    between atoms: C_13  and  C_16 
REMARK    6  A    between atoms: C_13  and  C_21 
REMARK    7  A    between atoms: C_19  and  C_24 
REMARK    8  A    between atoms: C_21  and  C_33 
REMARK    9  A    between atoms: C_22  and  C_23 
REMARK   10  A    between atoms: C_27  and  C_30 
REMARK   11  A    between atoms: C_33  and  C_34 
REMARK   12  A    between atoms: C_34  and  C_35 
ROOT
HETATM    1  O   UNL     1      16.377   3.245  93.746  1.00  0.00    -0.350 OA
HETATM    2  N   UNL     1      13.763   2.927  92.663  1.00  0.00     0.147 N 
HETATM    3  C   UNL     1      14.604   1.768  92.993  1.00  0.00     0.283 C 
HETATM    4  C   UNL     1      14.608   4.076  92.309  1.00  0.00     0.283 C 
HETATM    5  C   UNL     1      15.565   2.131  94.123  1.00  0.00     0.178 C 
HETATM    6  C   UNL     1      15.568   4.385  93.453  1.00  0.00     0.178 C 
ENDROOT
BRANCH   2   7
HETATM    7  C   UNL     1      12.842   2.604  91.575  1.00  0.00     0.277 C 
BRANCH   7   8
HETATM    8  C   UNL     1      11.720   3.581  91.473  1.00  0.00     0.011 A 
HETATM    9  C   UNL     1      11.259   3.983  90.219  1.00  0.00    -0.002 A 
HETATM   10  C   UNL     1      10.211   4.899  90.122  1.00  0.00     0.008 A 
HETATM   11  C   UNL     1       9.624   5.410  91.278  1.00  0.00     0.042 A 
HETATM   12  C   UNL     1      10.084   5.010  92.531  1.00  0.00     0.008 A 
HETATM   13  C   UNL     1      11.132   4.095  92.629  1.00  0.00    -0.002 A 
BRANCH  11  14
HETATM   14  C   UNL     1       8.548   6.348  91.179  1.00  0.00    -0.059 C 
HETATM   15  C   UNL     1       7.643   7.135  91.094  1.00  0.00    -0.059 C 
BRANCH  15  16
HETATM   16  C   UNL     1       6.567   8.071  90.995  1.00  0.00     0.042 A 
HETATM   17  C   UNL     1       6.265   8.902  92.075  1.00  0.00     0.008 A 
HETATM   18  C   UNL     1       5.217   9.817  91.976  1.00  0.00     0.005 A 
HETATM   19  C   UNL     1       4.496   9.882  90.803  1.00  0.00     0.056 A 
HETATM   20  C   UNL     1       4.775   9.071  89.722  1.00  0.00     0.005 A 
HETATM   21  C   UNL     1       5.822   8.156  89.819  1.00  0.00     0.008 A 
BRANCH  19  22
HETATM   22  C   UNL     1       3.378  10.855  90.699  1.00  0.00     0.254 C 
HETATM   23  O   UNL     1       2.426  10.600  89.966  1.00  0.00    -0.268 OA
HETATM   24  N   UNL     1       3.492  11.996  91.481  1.00  0.00    -0.335 N 
HETATM   25  HN  UNL     1       4.296  12.128  92.083  1.00  0.00     0.164 HD
BRANCH  24  26
HETATM   26  C   UNL     1       2.479  13.022  91.509  1.00  0.00     0.166 C 
BRANCH  26  27
HETATM   27  C   UNL     1       1.757  13.106  92.860  1.00  0.00     0.138 C 
HETATM   28  C   UNL     1       1.193  11.762  93.306  1.00  0.00     0.034 C 
BRANCH  27  29
HETATM   29  O   UNL     1       2.662  13.582  93.856  1.00  0.00    -0.383 OA
HETATM   30  H   UNL     1       3.567  13.492  93.514  1.00  0.00     0.210 HD
ENDBRANCH  27  29
ENDBRANCH  26  27
BRANCH  26  31
HETATM   31  C   UNL     1       3.148  14.346  91.154  1.00  0.00     0.181 C 
HETATM   32  O   UNL     1       3.019  15.364  91.831  1.00  0.00    -0.294 OA
BRANCH  31  33
HETATM   33  C   UNL     1       4.739  14.169  90.902  1.00  0.00     0.138 C 
BRANCH  33  34
HETATM   34  C   UNL     1       4.834  14.475  89.526  1.00  0.00     0.208 C 
HETATM   35  O   UNL     1       5.138  15.613  89.254  1.00  0.00    -0.289 OA
BRANCH  34  36
HETATM   36  C   UNL     1       4.924  13.651  88.438  1.00  0.00     0.194 C 
HETATM   37  O   UNL     1       5.558  12.412  88.292  1.00  0.00    -0.185 OA
ENDBRANCH  34  36
ENDBRANCH  33  34
ENDBRANCH  31  33
ENDBRANCH  26  31
ENDBRANCH  24  26
ENDBRANCH  19  22
ENDBRANCH  15  16
ENDBRANCH  11  14
ENDBRANCH   7   8
ENDBRANCH   2   7
TORSDOF 12
ENDMDL
