MODEL 1
REMARK VINA RESULT:      -6.8      0.000      0.000
REMARK  14 active torsions:
REMARK  status: ('A' for Active; 'I' for Inactive)
REMARK    1  A    between atoms: O_2  and  C_18 
REMARK    2  A    between atoms: C_5  and  C_8 
REMARK    3  A    between atoms: C_5  and  O_35 
REMARK    4  A    between atoms: C_5  and  C_36 
REMARK    5  A    between atoms: N_6  and  C_11 
REMARK    6  A    between atoms: N_7  and  C_15 
REMARK       I    between atoms: N_7  and  C_24 
REMARK    7  A    between atoms: C_8  and  C_23 
REMARK    8  A    between atoms: C_11  and  C_14 
REMARK    9  A    between atoms: C_15  and  C_18 
REMARK   10  A    between atoms: C_15  and  C_23 
REMARK   11  A    between atoms: C_21  and  C_26 
REMARK   12  A    between atoms: C_24  and  C_25 
REMARK   13  A    between atoms: C_29  and  C_32 
REMARK   14  A    between atoms: C_36  and  O_39 
ROOT
HETATM    1  O   UNL     1      16.372   4.300  94.123  1.00  0.00    -0.350 OA
HETATM    2  N   UNL     1      14.569   2.764  92.545  1.00  0.00     0.147 N 
HETATM    3  C   UNL     1      14.493   4.231  92.588  1.00  0.00     0.283 C 
HETATM    4  C   UNL     1      15.113   2.251  93.810  1.00  0.00     0.283 C 
HETATM    5  C   UNL     1      15.874   4.811  92.885  1.00  0.00     0.178 C 
HETATM    6  C   UNL     1      16.478   2.877  94.078  1.00  0.00     0.178 C 
ENDROOT
BRANCH   2   7
HETATM    7  C   UNL     1      13.254   2.186  92.272  1.00  0.00     0.277 C 
BRANCH   7   8
HETATM    8  C   UNL     1      12.178   3.216  92.231  1.00  0.00     0.011 A 
HETATM    9  C   UNL     1      11.524   3.493  91.029  1.00  0.00    -0.002 A 
HETATM   10  C   UNL     1      10.519   4.459  90.989  1.00  0.00     0.008 A 
HETATM   11  C   UNL     1      10.166   5.145  92.150  1.00  0.00     0.042 A 
HETATM   12  C   UNL     1      10.818   4.870  93.351  1.00  0.00     0.008 A 
HETATM   13  C   UNL     1      11.824   3.905  93.391  1.00  0.00    -0.002 A 
BRANCH  11  14
HETATM   14  C   UNL     1       9.133   6.134  92.109  1.00  0.00    -0.059 C 
HETATM   15  C   UNL     1       8.264   6.965  92.075  1.00  0.00    -0.059 C 
BRANCH  15  16
HETATM   16  C   UNL     1       7.231   7.953  92.034  1.00  0.00     0.042 A 
HETATM   17  C   UNL     1       6.000   7.650  91.453  1.00  0.00     0.008 A 
HETATM   18  C   UNL     1       4.992   8.613  91.416  1.00  0.00     0.005 A 
HETATM   19  C   UNL     1       5.236   9.856  91.961  1.00  0.00     0.056 A 
HETATM   20  C   UNL     1       6.445  10.180  92.541  1.00  0.00     0.005 A 
HETATM   21  C   UNL     1       7.454   9.218  92.578  1.00  0.00     0.008 A 
BRANCH  19  22
HETATM   22  C   UNL     1       4.163  10.882  91.920  1.00  0.00     0.254 C 
HETATM   23  O   UNL     1       2.995  10.535  92.082  1.00  0.00    -0.268 OA
HETATM   24  N   UNL     1       4.580  12.190  91.720  1.00  0.00    -0.335 N 
HETATM   25  HN  UNL     1       5.565  12.405  91.619  1.00  0.00     0.164 HD
BRANCH  24  26
HETATM   26  C   UNL     1       3.661  13.300  91.680  1.00  0.00     0.169 C 
BRANCH  26  27
HETATM   27  C   UNL     1       3.371  13.881  93.070  1.00  0.00     0.138 C 
HETATM   28  C   UNL     1       4.541  13.707  94.031  1.00  0.00     0.034 C 
BRANCH  27  29
HETATM   29  O   UNL     1       3.070  15.271  92.952  1.00  0.00    -0.383 OA
HETATM   30  H   UNL     1       2.195  15.428  93.346  1.00  0.00     0.210 HD
ENDBRANCH  27  29
ENDBRANCH  26  27
BRANCH  26  31
HETATM   31  C   UNL     1       4.246  14.356  90.749  1.00  0.00     0.194 C 
HETATM   32  O   UNL     1       4.969  15.269  91.142  1.00  0.00    -0.289 OA
BRANCH  31  33
HETATM   33  C   UNL     1       3.839  14.183  89.448  1.00  0.00     0.053 C 
BRANCH  33  34
HETATM   34  C   UNL     1       4.810  13.687  88.566  1.00  0.00     0.220 C 
BRANCH  34  35
HETATM   35  O   UNL     1       5.918  13.784  89.126  1.00  0.00    -0.371 OA
HETATM   36  H   UNL     1       6.376  14.239  88.436  1.00  0.00     0.211 HD
ENDBRANCH  34  35
BRANCH  34  37
HETATM   37  C   UNL     1       4.549  12.378  88.124  1.00  0.00     0.185 C 
HETATM   38  O   UNL     1       5.664  12.104  88.783  1.00  0.00    -0.647 OA
BRANCH  37  39
HETATM   39  O   UNL     1       3.732  11.832  87.445  1.00  0.00    -0.774 OA
HETATM   40  H   UNL     1       3.162  11.044  88.029  1.00  0.00     0.167 HD
ENDBRANCH  37  39
ENDBRANCH  34  37
ENDBRANCH  33  34
ENDBRANCH  31  33
ENDBRANCH  26  31
ENDBRANCH  24  26
ENDBRANCH  19  22
ENDBRANCH  15  16
ENDBRANCH  11  14
ENDBRANCH   7   8
ENDBRANCH   2   7
TORSDOF 14
ENDMDL
