MODEL 1
REMARK VINA RESULT:      -6.9      0.000      0.000
REMARK  10 active torsions:
REMARK  status: ('A' for Active; 'I' for Inactive)
REMARK    1  A    between atoms: O_2  and  C_16 
REMARK    2  A    between atoms: N_5  and  C_9 
REMARK    3  A    between atoms: N_6  and  C_13 
REMARK       I    between atoms: N_6  and  C_22 
REMARK    4  A    between atoms: C_9  and  C_12 
REMARK    5  A    between atoms: C_13  and  C_16 
REMARK    6  A    between atoms: C_13  and  C_21 
REMARK    7  A    between atoms: C_19  and  C_24 
REMARK    8  A    between atoms: C_22  and  C_23 
REMARK    9  A    between atoms: C_27  and  C_30 
REMARK   10  A    between atoms: N_33  and  S_34 
ROOT
HETATM    1  C   UNL     1       5.721  11.026  89.686  1.00  0.00     0.056 A 
HETATM    2  C   UNL     1       5.187   9.805  90.039  1.00  0.00     0.005 A 
HETATM    3  C   UNL     1       7.080  11.234  89.587  1.00  0.00     0.005 A 
HETATM    4  C   UNL     1       7.430   8.928  90.214  1.00  0.00     0.042 A 
HETATM    5  C   UNL     1       6.051   8.743  90.307  1.00  0.00     0.008 A 
HETATM    6  C   UNL     1       7.945  10.173  89.854  1.00  0.00     0.008 A 
ENDROOT
BRANCH   1   7
HETATM    7  C   UNL     1       4.800  12.157  89.399  1.00  0.00     0.254 C 
HETATM    8  O   UNL     1       4.691  12.564  88.245  1.00  0.00    -0.268 OA
HETATM    9  N   UNL     1       4.097  12.660  90.485  1.00  0.00    -0.337 N 
HETATM   10  HN  UNL     1       4.220  12.256  91.406  1.00  0.00     0.164 HD
BRANCH   9  11
HETATM   11  C   UNL     1       3.149  13.738  90.364  1.00  0.00     0.172 C 
BRANCH  11  12
HETATM   12  C   UNL     1       1.886  13.515  91.205  1.00  0.00     0.136 C 
HETATM   13  C   UNL     1       2.096  12.488  92.312  1.00  0.00     0.034 C 
BRANCH  12  14
HETATM   14  O   UNL     1       1.479  14.751  91.791  1.00  0.00    -0.383 OA
HETATM   15  H   UNL     1       1.898  15.476  91.297  1.00  0.00     0.210 HD
ENDBRANCH  12  14
ENDBRANCH  11  12
BRANCH  11  16
HETATM   16  C   UNL     1       3.859  15.029  90.760  1.00  0.00     0.398 A 
HETATM   17  O   UNL     1       4.957  15.354  90.312  1.00  0.00    -0.136 OA
HETATM   18  N   UNL     1       4.906  15.597  91.812  1.00  0.00     0.142 N 
HETATM   19  HN  UNL     1       5.812  15.932  91.643  1.00  0.00     0.338 HD
BRANCH  18  20
HETATM   20  S   UNL     1       4.247  15.225  92.978  1.00  0.00     0.076 SA
HETATM   21  H   UNL     1       3.727  16.097  93.596  1.00  0.00     0.136 HD
ENDBRANCH  18  20
ENDBRANCH  11  16
ENDBRANCH   9  11
ENDBRANCH   1   7
BRANCH   4  22
HETATM   22  C   UNL     1       8.316   7.841  90.491  1.00  0.00    -0.059 C 
HETATM   23  C   UNL     1       9.061   6.926  90.724  1.00  0.00    -0.059 C 
BRANCH  23  24
HETATM   24  C   UNL     1       9.947   5.838  91.002  1.00  0.00     0.042 A 
HETATM   25  C   UNL     1      10.133   5.410  92.316  1.00  0.00     0.008 A 
HETATM   26  C   UNL     1      10.998   4.350  92.587  1.00  0.00    -0.002 A 
HETATM   27  C   UNL     1      11.676   3.718  91.544  1.00  0.00     0.011 A 
HETATM   28  C   UNL     1      11.488   4.147  90.230  1.00  0.00    -0.002 A 
HETATM   29  C   UNL     1      10.623   5.208  89.959  1.00  0.00     0.008 A 
BRANCH  27  30
HETATM   30  C   UNL     1      12.598   2.583  91.835  1.00  0.00     0.277 C 
BRANCH  30  31
HETATM   31  N   UNL     1      13.635   2.942  92.801  1.00  0.00     0.147 N 
HETATM   32  C   UNL     1      14.474   1.779  93.120  1.00  0.00     0.283 C 
HETATM   33  C   UNL     1      15.555   2.180  94.121  1.00  0.00     0.178 C 
HETATM   34  O   UNL     1      16.352   3.242  93.593  1.00  0.00    -0.350 OA
HETATM   35  C   UNL     1      15.548   4.387  93.310  1.00  0.00     0.178 C 
HETATM   36  C   UNL     1      14.468   4.040  92.290  1.00  0.00     0.283 C 
ENDBRANCH  30  31
ENDBRANCH  27  30
ENDBRANCH  23  24
ENDBRANCH   4  22
TORSDOF 10
ENDMDL
