MODEL 1
REMARK VINA RESULT:      -6.9      0.000      0.000
REMARK  10 active torsions:
REMARK  status: ('A' for Active; 'I' for Inactive)
REMARK    1  A    between atoms: O_2  and  C_18 
REMARK    2  A    between atoms: O_5  and  N_8 
REMARK    3  A    between atoms: N_6  and  C_11 
REMARK    4  A    between atoms: N_7  and  C_15 
REMARK       I    between atoms: N_7  and  C_24 
REMARK       I    between atoms: N_8  and  C_23 
REMARK    5  A    between atoms: C_11  and  C_14 
REMARK    6  A    between atoms: C_15  and  C_18 
REMARK    7  A    between atoms: C_15  and  C_23 
REMARK    8  A    between atoms: C_21  and  C_26 
REMARK    9  A    between atoms: C_24  and  C_25 
REMARK   10  A    between atoms: C_29  and  C_32 
ROOT
HETATM    1  O   UNK     0      16.357   4.288  94.017  0.00  0.00    -0.388 OA
HETATM    2  N   UNK     0      14.646   2.532  92.571  0.00  0.00     0.096 N 
HETATM    3  C   UNK     0      14.520   3.992  92.460  0.00  0.00     0.299 C 
HETATM    4  C   UNK     0      15.176   2.173  93.893  0.00  0.00     0.299 C 
HETATM    5  C   UNK     0      15.872   4.650  92.723  0.00  0.00     0.198 C 
HETATM    6  C   UNK     0      16.512   2.873  94.124  0.00  0.00     0.198 C 
ENDROOT
BRANCH   2   7
HETATM    7  C   UNK     0      13.359   1.881  92.333  0.00  0.00     0.311 C 
BRANCH   7   8
HETATM    8  C   UNK     0      12.280   2.858  92.013  0.00  0.00    -0.030 A 
HETATM    9  C   UNK     0      11.893   3.059  90.687  0.00  0.00     0.010 A 
HETATM   10  C   UNK     0      10.885   3.974  90.386  0.00  0.00     0.021 A 
HETATM   11  C   UNK     0      10.262   4.686  91.411  0.00  0.00     0.018 A 
HETATM   12  C   UNK     0      10.646   4.485  92.735  0.00  0.00     0.021 A 
HETATM   13  C   UNK     0      11.655   3.571  93.037  0.00  0.00     0.010 A 
BRANCH  11  14
HETATM   14  C   UNK     0       9.225   5.623  91.103  0.00  0.00    -0.061 C 
HETATM   15  C   UNK     0       8.355   6.411  90.844  0.00  0.00    -0.061 C 
BRANCH  15  16
HETATM   16  C   UNK     0       7.319   7.345  90.536  0.00  0.00     0.018 A 
HETATM   17  C   UNK     0       6.870   7.480  89.221  0.00  0.00     0.022 A 
HETATM   18  C   UNK     0       5.857   8.391  88.921  0.00  0.00     0.018 A 
HETATM   19  C   UNK     0       5.316   9.146  89.940  0.00  0.00     0.032 A 
HETATM   20  C   UNK     0       5.742   9.033  91.247  0.00  0.00     0.018 A 
HETATM   21  C   UNK     0       6.755   8.122  91.548  0.00  0.00     0.022 A 
BRANCH  19  22
HETATM   22  C   UNK     0       4.239  10.118  89.619  0.00  0.00     0.252 C 
HETATM   23  O   UNK     0       3.308   9.766  88.898  0.00  0.00    -0.268 OA
HETATM   24  N   UNK     0       4.362  11.375  90.195  0.00  0.00    -0.341 N 
HETATM   25  H   UNK     0       5.146  11.586  90.801  0.00  0.00     0.163 HD
BRANCH  24  26
HETATM   26  C   UNK     0       3.387  12.417  89.999  0.00  0.00     0.207 C 
BRANCH  26  27
HETATM   27  C   UNK     0       3.035  13.153  91.298  0.00  0.00     0.146 C 
HETATM   28  C   UNK     0       2.170  12.313  92.230  0.00  0.00     0.042 C 
BRANCH  27  29
HETATM   29  O   UNK     0       4.235  13.516  91.981  0.00  0.00    -0.393 OA
HETATM   30  H   UNK     0       4.101  14.387  92.390  0.00  0.00     0.210 HD
ENDBRANCH  27  29
ENDBRANCH  26  27
BRANCH  26  31
HETATM   31  C   UNK     0       3.936  13.377  88.949  0.00  0.00     0.266 C 
HETATM   32  O   UNK     0       4.024  14.590  89.131  0.00  0.00    -0.269 OA
HETATM   33  N   UNK     0       4.275  12.733  87.784  0.00  0.00    -0.236 N 
HETATM   34  H   UNK     0       4.133  11.753  87.569  0.00  0.00     0.197 HD
BRANCH  33  35
HETATM   35  O   UNK     0       4.754  13.551  86.751  0.00  0.00    -0.287 OA
HETATM   36  H   UNK     0       5.643  13.178  86.631  0.00  0.00     0.244 HD
ENDBRANCH  33  35
ENDBRANCH  26  31
ENDBRANCH  24  26
ENDBRANCH  19  22
ENDBRANCH  15  16
ENDBRANCH  11  14
ENDBRANCH   7   8
ENDBRANCH   2   7
TORSDOF 10
ENDMDL
MODEL 2
REMARK VINA RESULT:      -6.4      1.486      1.835
REMARK  10 active torsions:
REMARK  status: ('A' for Active; 'I' for Inactive)
REMARK    1  A    between atoms: O_2  and  C_18 
REMARK    2  A    between atoms: O_5  and  N_8 
REMARK    3  A    between atoms: N_6  and  C_11 
REMARK    4  A    between atoms: N_7  and  C_15 
REMARK       I    between atoms: N_7  and  C_24 
REMARK       I    between atoms: N_8  and  C_23 
REMARK    5  A    between atoms: C_11  and  C_14 
REMARK    6  A    between atoms: C_15  and  C_18 
REMARK    7  A    between atoms: C_15  and  C_23 
REMARK    8  A    between atoms: C_21  and  C_26 
REMARK    9  A    between atoms: C_24  and  C_25 
REMARK   10  A    between atoms: C_29  and  C_32 
ROOT
HETATM    1  O   UNK     0      16.855   3.775  93.800  0.00  0.00    -0.388 OA
HETATM    2  N   UNK     0      14.229   3.039  92.985  0.00  0.00     0.096 N 
HETATM    3  C   UNK     0      15.312   2.049  93.073  0.00  0.00     0.299 C 
HETATM    4  C   UNK     0      14.783   4.365  92.684  0.00  0.00     0.299 C 
HETATM    5  C   UNK     0      16.329   2.487  94.124  0.00  0.00     0.198 C 
HETATM    6  C   UNK     0      15.813   4.749  93.743  0.00  0.00     0.198 C 
ENDROOT
BRANCH   2   7
HETATM    7  C   UNK     0      13.248   2.645  91.976  0.00  0.00     0.311 C 
BRANCH   7   8
HETATM    8  C   UNK     0      12.122   3.616  91.868  0.00  0.00    -0.030 A 
HETATM    9  C   UNK     0      11.950   4.356  90.698  0.00  0.00     0.010 A 
HETATM   10  C   UNK     0      10.898   5.266  90.597  0.00  0.00     0.021 A 
HETATM   11  C   UNK     0      10.018   5.434  91.666  0.00  0.00     0.018 A 
HETATM   12  C   UNK     0      10.189   4.696  92.835  0.00  0.00     0.021 A 
HETATM   13  C   UNK     0      11.241   3.786  92.936  0.00  0.00     0.010 A 
BRANCH  11  14
HETATM   14  C   UNK     0       8.937   6.367  91.562  0.00  0.00    -0.061 C 
HETATM   15  C   UNK     0       8.030   7.150  91.475  0.00  0.00    -0.061 C 
BRANCH  15  16
HETATM   16  C   UNK     0       6.950   8.080  91.370  0.00  0.00     0.018 A 
HETATM   17  C   UNK     0       5.638   7.616  91.260  0.00  0.00     0.022 A 
HETATM   18  C   UNK     0       4.584   8.523  91.161  0.00  0.00     0.018 A 
HETATM   19  C   UNK     0       4.863   9.874  91.173  0.00  0.00     0.032 A 
HETATM   20  C   UNK     0       6.150  10.358  91.281  0.00  0.00     0.018 A 
HETATM   21  C   UNK     0       7.205   9.451  91.380  0.00  0.00     0.022 A 
BRANCH  19  22
HETATM   22  C   UNK     0       3.740  10.840  91.065  0.00  0.00     0.252 C 
HETATM   23  O   UNK     0       2.698  10.490  90.517  0.00  0.00    -0.268 OA
HETATM   24  N   UNK     0       3.956  12.089  91.630  0.00  0.00    -0.341 N 
HETATM   25  H   UNK     0       4.834  12.300  92.090  0.00  0.00     0.163 HD
BRANCH  24  26
HETATM   26  C   UNK     0       2.954  13.125  91.627  0.00  0.00     0.207 C 
BRANCH  26  27
HETATM   27  C   UNK     0       2.910  13.912  92.944  0.00  0.00     0.146 C 
HETATM   28  C   UNK     0       4.266  13.963  93.639  0.00  0.00     0.042 C 
BRANCH  27  29
HETATM   29  O   UNK     0       2.469  15.245  92.689  0.00  0.00    -0.393 OA
HETATM   30  H   UNK     0       3.237  15.837  92.751  0.00  0.00     0.210 HD
ENDBRANCH  27  29
ENDBRANCH  26  27
BRANCH  26  31
HETATM   31  C   UNK     0       3.236  14.043  90.442  0.00  0.00     0.266 C 
HETATM   32  O   UNK     0       2.375  14.368  89.627  0.00  0.00    -0.269 OA
HETATM   33  N   UNK     0       4.556  14.420  90.381  0.00  0.00    -0.236 N 
HETATM   34  H   UNK     0       5.307  14.101  90.981  0.00  0.00     0.197 HD
BRANCH  33  35
HETATM   35  O   UNK     0       4.907  15.236  89.296  0.00  0.00    -0.287 OA
HETATM   36  H   UNK     0       4.907  16.108  89.726  0.00  0.00     0.244 HD
ENDBRANCH  33  35
ENDBRANCH  26  31
ENDBRANCH  24  26
ENDBRANCH  19  22
ENDBRANCH  15  16
ENDBRANCH  11  14
ENDBRANCH   7   8
ENDBRANCH   2   7
TORSDOF 10
ENDMDL
MODEL 3
REMARK VINA RESULT:      -5.7      2.823     12.265
REMARK  10 active torsions:
REMARK  status: ('A' for Active; 'I' for Inactive)
REMARK    1  A    between atoms: O_2  and  C_18 
REMARK    2  A    between atoms: O_5  and  N_8 
REMARK    3  A    between atoms: N_6  and  C_11 
REMARK    4  A    between atoms: N_7  and  C_15 
REMARK       I    between atoms: N_7  and  C_24 
REMARK       I    between atoms: N_8  and  C_23 
REMARK    5  A    between atoms: C_11  and  C_14 
REMARK    6  A    between atoms: C_15  and  C_18 
REMARK    7  A    between atoms: C_15  and  C_23 
REMARK    8  A    between atoms: C_21  and  C_26 
REMARK    9  A    between atoms: C_24  and  C_25 
REMARK   10  A    between atoms: C_29  and  C_32 
ROOT
HETATM    1  O   UNK     0       2.877  14.723  93.987  0.00  0.00    -0.388 OA
HETATM    2  N   UNK     0       2.687  14.695  91.147  0.00  0.00     0.096 N 
HETATM    3  C   UNK     0       1.713  13.986  91.989  0.00  0.00     0.299 C 
HETATM    4  C   UNK     0       3.986  14.764  91.829  0.00  0.00     0.299 C 
HETATM    5  C   UNK     0       1.602  14.679  93.345  0.00  0.00     0.198 C 
HETATM    6  C   UNK     0       3.822  15.437  93.188  0.00  0.00     0.198 C 
ENDROOT
BRANCH   2   7
HETATM    7  C   UNK     0       2.817  14.042  89.846  0.00  0.00     0.311 C 
BRANCH   7   8
HETATM    8  C   UNK     0       3.822  12.941  89.861  0.00  0.00    -0.030 A 
HETATM    9  C   UNK     0       3.535  11.745  90.521  0.00  0.00     0.010 A 
HETATM   10  C   UNK     0       4.476  10.715  90.538  0.00  0.00     0.021 A 
HETATM   11  C   UNK     0       5.701  10.881  89.893  0.00  0.00     0.018 A 
HETATM   12  C   UNK     0       5.988  12.074  89.233  0.00  0.00     0.021 A 
HETATM   13  C   UNK     0       5.049  13.104  89.217  0.00  0.00     0.010 A 
BRANCH  11  14
HETATM   14  C   UNK     0       6.665   9.823  89.908  0.00  0.00    -0.061 C 
HETATM   15  C   UNK     0       7.475   8.935  89.922  0.00  0.00    -0.061 C 
BRANCH  15  16
HETATM   16  C   UNK     0       8.437   7.879  89.936  0.00  0.00     0.018 A 
HETATM   17  C   UNK     0       9.174   7.592  88.786  0.00  0.00     0.022 A 
HETATM   18  C   UNK     0      10.115   6.563  88.800  0.00  0.00     0.018 A 
HETATM   19  C   UNK     0      10.299   5.844  89.962  0.00  0.00     0.032 A 
HETATM   20  C   UNK     0       9.584   6.106  91.111  0.00  0.00     0.018 A 
HETATM   21  C   UNK     0       8.642   7.135  91.097  0.00  0.00     0.022 A 
BRANCH  19  22
HETATM   22  C   UNK     0      11.301   4.746  89.976  0.00  0.00     0.252 C 
HETATM   23  O   UNK     0      11.487   4.091  88.953  0.00  0.00    -0.268 OA
HETATM   24  N   UNK     0      11.982   4.559  91.170  0.00  0.00    -0.341 N 
HETATM   25  H   UNK     0      11.792   5.155  91.967  0.00  0.00     0.163 HD
BRANCH  24  26
HETATM   26  C   UNK     0      12.999   3.552  91.334  0.00  0.00     0.207 C 
BRANCH  26  27
HETATM   27  C   UNK     0      14.162   4.021  92.217  0.00  0.00     0.146 C 
HETATM   28  C   UNK     0      13.780   4.101  93.691  0.00  0.00     0.042 C 
BRANCH  27  29
HETATM   29  O   UNK     0      15.263   3.124  92.073  0.00  0.00    -0.393 OA
HETATM   30  H   UNK     0      15.202   2.705  91.198  0.00  0.00     0.210 HD
ENDBRANCH  27  29
ENDBRANCH  26  27
BRANCH  26  31
HETATM   31  C   UNK     0      12.333   2.306  91.909  0.00  0.00     0.266 C 
HETATM   32  O   UNK     0      12.902   1.219  91.990  0.00  0.00    -0.269 OA
HETATM   33  N   UNK     0      11.031   2.538  92.281  0.00  0.00    -0.236 N 
HETATM   34  H   UNK     0      10.505   3.394  92.146  0.00  0.00     0.197 HD
BRANCH  33  35
HETATM   35  O   UNK     0      10.334   1.431  92.785  0.00  0.00    -0.287 OA
HETATM   36  H   UNK     0       9.764   1.868  93.441  0.00  0.00     0.244 HD
ENDBRANCH  33  35
ENDBRANCH  26  31
ENDBRANCH  24  26
ENDBRANCH  19  22
ENDBRANCH  15  16
ENDBRANCH  11  14
ENDBRANCH   7   8
ENDBRANCH   2   7
TORSDOF 10
ENDMDL
MODEL 4
REMARK VINA RESULT:      -5.0      1.965     12.404
REMARK  10 active torsions:
REMARK  status: ('A' for Active; 'I' for Inactive)
REMARK    1  A    between atoms: O_2  and  C_18 
REMARK    2  A    between atoms: O_5  and  N_8 
REMARK    3  A    between atoms: N_6  and  C_11 
REMARK    4  A    between atoms: N_7  and  C_15 
REMARK       I    between atoms: N_7  and  C_24 
REMARK       I    between atoms: N_8  and  C_23 
REMARK    5  A    between atoms: C_11  and  C_14 
REMARK    6  A    between atoms: C_15  and  C_18 
REMARK    7  A    between atoms: C_15  and  C_23 
REMARK    8  A    between atoms: C_21  and  C_26 
REMARK    9  A    between atoms: C_24  and  C_25 
REMARK   10  A    between atoms: C_29  and  C_32 
ROOT
HETATM    1  O   UNK     0       5.520  14.680  88.594  0.00  0.00    -0.388 OA
HETATM    2  N   UNK     0       3.706  13.304  90.302  0.00  0.00     0.096 N 
HETATM    3  C   UNK     0       4.370  14.544  90.727  0.00  0.00     0.299 C 
HETATM    4  C   UNK     0       4.551  12.585  89.340  0.00  0.00     0.299 C 
HETATM    5  C   UNK     0       4.691  15.403  89.506  0.00  0.00     0.198 C 
HETATM    6  C   UNK     0       4.869  13.489  88.152  0.00  0.00     0.198 C 
ENDROOT
BRANCH   2   7
HETATM    7  C   UNK     0       3.398  12.460  91.455  0.00  0.00     0.311 C 
BRANCH   7   8
HETATM    8  C   UNK     0       4.412  11.387  91.660  0.00  0.00    -0.030 A 
HETATM    9  C   UNK     0       5.472  11.589  92.544  0.00  0.00     0.010 A 
HETATM   10  C   UNK     0       6.422  10.586  92.735  0.00  0.00     0.021 A 
HETATM   11  C   UNK     0       6.310   9.380  92.043  0.00  0.00     0.018 A 
HETATM   12  C   UNK     0       5.251   9.177  91.161  0.00  0.00     0.021 A 
HETATM   13  C   UNK     0       4.301  10.180  90.969  0.00  0.00     0.010 A 
BRANCH  11  14
HETATM   14  C   UNK     0       7.284   8.351  92.241  0.00  0.00    -0.061 C 
HETATM   15  C   UNK     0       8.102   7.486  92.407  0.00  0.00    -0.061 C 
BRANCH  15  16
HETATM   16  C   UNK     0       9.074   6.457  92.603  0.00  0.00     0.018 A 
HETATM   17  C   UNK     0       9.670   6.291  93.854  0.00  0.00     0.022 A 
HETATM   18  C   UNK     0      10.618   5.286  94.046  0.00  0.00     0.018 A 
HETATM   19  C   UNK     0      10.948   4.469  92.985  0.00  0.00     0.032 A 
HETATM   20  C   UNK     0      10.374   4.613  91.739  0.00  0.00     0.018 A 
HETATM   21  C   UNK     0       9.427   5.618  91.546  0.00  0.00     0.022 A 
BRANCH  19  22
HETATM   22  C   UNK     0      11.959   3.400  93.190  0.00  0.00     0.252 C 
HETATM   23  O   UNK     0      11.682   2.244  92.876  0.00  0.00    -0.268 OA
HETATM   24  N   UNK     0      13.179   3.808  93.711  0.00  0.00    -0.341 N 
HETATM   25  H   UNK     0      13.345   4.785  93.923  0.00  0.00     0.163 HD
BRANCH  24  26
HETATM   26  C   UNK     0      14.268   2.894  93.944  0.00  0.00     0.207 C 
BRANCH  26  27
HETATM   27  C   UNK     0      14.254   1.697  92.984  0.00  0.00     0.146 C 
HETATM   28  C   UNK     0      14.969   1.994  91.671  0.00  0.00     0.042 C 
BRANCH  27  29
HETATM   29  O   UNK     0      14.879   0.577  93.609  0.00  0.00    -0.393 OA
HETATM   30  H   UNK     0      15.396   0.101  92.937  0.00  0.00     0.210 HD
ENDBRANCH  27  29
ENDBRANCH  26  27
BRANCH  26  31
HETATM   31  C   UNK     0      15.570   3.680  93.830  0.00  0.00     0.266 C 
HETATM   32  O   UNK     0      16.678   3.149  93.861  0.00  0.00    -0.269 OA
HETATM   33  N   UNK     0      15.351   5.033  93.729  0.00  0.00    -0.236 N 
HETATM   34  H   UNK     0      14.459   5.510  93.789  0.00  0.00     0.197 HD
BRANCH  33  35
HETATM   35  O   UNK     0      16.500   5.833  93.658  0.00  0.00    -0.287 OA
HETATM   36  H   UNK     0      16.123   6.701  93.881  0.00  0.00     0.244 HD
ENDBRANCH  33  35
ENDBRANCH  26  31
ENDBRANCH  24  26
ENDBRANCH  19  22
ENDBRANCH  15  16
ENDBRANCH  11  14
ENDBRANCH   7   8
ENDBRANCH   2   7
TORSDOF 10
ENDMDL
MODEL 5
REMARK VINA RESULT:      -4.1      1.894      2.797
REMARK  10 active torsions:
REMARK  status: ('A' for Active; 'I' for Inactive)
REMARK    1  A    between atoms: O_2  and  C_18 
REMARK    2  A    between atoms: O_5  and  N_8 
REMARK    3  A    between atoms: N_6  and  C_11 
REMARK    4  A    between atoms: N_7  and  C_15 
REMARK       I    between atoms: N_7  and  C_24 
REMARK       I    between atoms: N_8  and  C_23 
REMARK    5  A    between atoms: C_11  and  C_14 
REMARK    6  A    between atoms: C_15  and  C_18 
REMARK    7  A    between atoms: C_15  and  C_23 
REMARK    8  A    between atoms: C_21  and  C_26 
REMARK    9  A    between atoms: C_24  and  C_25 
REMARK   10  A    between atoms: C_29  and  C_32 
ROOT
HETATM    1  O   UNK     0      16.943   4.174  92.991  0.00  0.00    -0.388 OA
HETATM    2  N   UNK     0      14.704   2.417  93.050  0.00  0.00     0.096 N 
HETATM    3  C   UNK     0      15.625   2.450  91.905  0.00  0.00     0.299 C 
HETATM    4  C   UNK     0      14.665   3.732  93.702  0.00  0.00     0.299 C 
HETATM    5  C   UNK     0      17.011   2.890  92.369  0.00  0.00     0.198 C 
HETATM    6  C   UNK     0      16.073   4.143  94.124  0.00  0.00     0.198 C 
ENDROOT
BRANCH   2   7
HETATM    7  C   UNK     0      13.366   2.008  92.626  0.00  0.00     0.311 C 
BRANCH   7   8
HETATM    8  C   UNK     0      12.404   3.146  92.606  0.00  0.00    -0.030 A 
HETATM    9  C   UNK     0      12.053   3.740  91.393  0.00  0.00     0.010 A 
HETATM   10  C   UNK     0      11.155   4.807  91.373  0.00  0.00     0.021 A 
HETATM   11  C   UNK     0      10.606   5.277  92.566  0.00  0.00     0.018 A 
HETATM   12  C   UNK     0      10.955   4.684  93.777  0.00  0.00     0.021 A 
HETATM   13  C   UNK     0      11.854   3.618  93.798  0.00  0.00     0.010 A 
BRANCH  11  14
HETATM   14  C   UNK     0       9.682   6.370  92.545  0.00  0.00    -0.061 C 
HETATM   15  C   UNK     0       8.907   7.288  92.528  0.00  0.00    -0.061 C 
BRANCH  15  16
HETATM   16  C   UNK     0       7.984   8.379  92.508  0.00  0.00     0.018 A 
HETATM   17  C   UNK     0       8.432   9.676  92.762  0.00  0.00     0.022 A 
HETATM   18  C   UNK     0       7.531  10.741  92.741  0.00  0.00     0.018 A 
HETATM   19  C   UNK     0       6.204  10.486  92.466  0.00  0.00     0.032 A 
HETATM   20  C   UNK     0       5.736   9.214  92.212  0.00  0.00     0.018 A 
HETATM   21  C   UNK     0       6.636   8.149  92.234  0.00  0.00     0.022 A 
BRANCH  19  22
HETATM   22  C   UNK     0       5.245  11.621  92.445  0.00  0.00     0.252 C 
HETATM   23  O   UNK     0       4.740  11.999  93.499  0.00  0.00    -0.268 OA
HETATM   24  N   UNK     0       5.009  12.195  91.203  0.00  0.00    -0.341 N 
HETATM   25  H   UNK     0       5.482  11.845  90.378  0.00  0.00     0.163 HD
BRANCH  24  26
HETATM   26  C   UNK     0       4.124  13.318  91.024  0.00  0.00     0.207 C 
BRANCH  26  27
HETATM   27  C   UNK     0       3.929  13.689  89.548  0.00  0.00     0.146 C 
HETATM   28  C   UNK     0       4.366  12.576  88.603  0.00  0.00     0.042 C 
BRANCH  27  29
HETATM   29  O   UNK     0       2.554  13.987  89.309  0.00  0.00    -0.393 OA
HETATM   30  H   UNK     0       2.431  14.948  89.392  0.00  0.00     0.210 HD
ENDBRANCH  27  29
ENDBRANCH  26  27
BRANCH  26  31
HETATM   31  C   UNK     0       2.795  12.975  91.690  0.00  0.00     0.266 C 
HETATM   32  O   UNK     0       2.193  13.756  92.423  0.00  0.00    -0.269 OA
HETATM   33  N   UNK     0       2.386  11.695  91.403  0.00  0.00    -0.236 N 
HETATM   34  H   UNK     0       2.899  10.997  90.877  0.00  0.00     0.197 HD
BRANCH  33  35
HETATM   35  O   UNK     0       1.189  11.287  92.009  0.00  0.00    -0.287 OA
HETATM   36  H   UNK     0       0.749  12.147  92.121  0.00  0.00     0.244 HD
ENDBRANCH  33  35
ENDBRANCH  26  31
ENDBRANCH  24  26
ENDBRANCH  19  22
ENDBRANCH  15  16
ENDBRANCH  11  14
ENDBRANCH   7   8
ENDBRANCH   2   7
TORSDOF 10
ENDMDL
