MODEL 1
REMARK VINA RESULT:      -6.9      0.000      0.000
REMARK  9 active torsions:
REMARK  status: ('A' for Active; 'I' for Inactive)
REMARK    1  A    between atoms: O_2  and  C_17 
REMARK    2  A    between atoms: N_5  and  C_10 
REMARK    3  A    between atoms: N_6  and  C_14 
REMARK       I    between atoms: N_6  and  C_23 
REMARK       I    between atoms: N_7  and  C_22 
REMARK    4  A    between atoms: C_10  and  C_13 
REMARK    5  A    between atoms: C_14  and  C_17 
REMARK    6  A    between atoms: C_14  and  C_22 
REMARK    7  A    between atoms: C_20  and  C_25 
REMARK    8  A    between atoms: C_23  and  C_24 
REMARK    9  A    between atoms: C_28  and  C_31 
ROOT
HETATM    1  O   UNL     1      15.873   3.810  94.124  1.00  0.00    -0.388 OA
HETATM    2  N   UNL     1      14.040   2.556  92.343  1.00  0.00     0.096 N 
HETATM    3  C   UNL     1      14.156   4.019  92.421  1.00  0.00     0.299 C 
HETATM    4  C   UNL     1      14.388   1.954  93.638  1.00  0.00     0.299 C 
HETATM    5  C   UNL     1      15.567   4.402  92.860  1.00  0.00     0.198 C 
HETATM    6  C   UNL     1      15.791   2.386  94.049  1.00  0.00     0.198 C 
ENDROOT
BRANCH   2   7
HETATM    7  C   UNL     1      12.692   2.166  91.934  1.00  0.00     0.311 C 
BRANCH   7   8
HETATM    8  C   UNL     1      11.817   3.342  91.662  1.00  0.00    -0.030 A 
HETATM    9  C   UNL     1      11.151   3.972  92.714  1.00  0.00     0.010 A 
HETATM   10  C   UNL     1      10.331   5.072  92.461  1.00  0.00     0.021 A 
HETATM   11  C   UNL     1      10.179   5.542  91.157  1.00  0.00     0.018 A 
HETATM   12  C   UNL     1      10.845   4.914  90.106  1.00  0.00     0.021 A 
HETATM   13  C   UNL     1      11.664   3.814  90.359  1.00  0.00     0.010 A 
BRANCH  11  14
HETATM   14  C   UNL     1       9.340   6.671  90.898  1.00  0.00    -0.061 C 
HETATM   15  C   UNL     1       8.635   7.621  90.681  1.00  0.00    -0.061 C 
BRANCH  15  16
HETATM   16  C   UNL     1       7.797   8.750  90.422  1.00  0.00     0.018 A 
HETATM   17  C   UNL     1       7.577   9.698  91.422  1.00  0.00     0.022 A 
HETATM   18  C   UNL     1       6.761  10.800  91.168  1.00  0.00     0.018 A 
HETATM   19  C   UNL     1       6.185  10.931  89.922  1.00  0.00     0.032 A 
HETATM   20  C   UNL     1       6.386  10.007  88.917  1.00  0.00     0.018 A 
HETATM   21  C   UNL     1       7.202   8.904  89.170  1.00  0.00     0.022 A 
BRANCH  19  22
HETATM   22  C   UNL     1       5.315  12.105  89.653  1.00  0.00     0.252 C 
HETATM   23  O   UNL     1       5.255  12.558  88.512  1.00  0.00    -0.268 OA
HETATM   24  N   UNL     1       4.600  12.593  90.737  1.00  0.00    -0.342 N 
HETATM   25  H   UNL     1       4.680  12.151  91.646  1.00  0.00     0.163 HD
BRANCH  24  26
HETATM   26  C   UNL     1       3.696  13.710  90.631  1.00  0.00     0.199 C 
BRANCH  26  27
HETATM   27  C   UNL     1       2.447  13.548  91.506  1.00  0.00     0.145 C 
HETATM   28  C   UNL     1       2.693  12.652  92.715  1.00  0.00     0.042 C 
BRANCH  27  29
HETATM   29  O   UNL     1       2.012  14.829  91.960  1.00  0.00    -0.393 OA
HETATM   30  H   UNL     1       1.272  15.117  91.398  1.00  0.00     0.210 HD
ENDBRANCH  27  29
ENDBRANCH  26  27
BRANCH  26  31
HETATM   31  C   UNL     1       4.470  14.972  90.998  1.00  0.00     0.220 C 
HETATM   32  O   UNL     1       4.572  15.383  92.152  1.00  0.00    -0.278 OA
HETATM   33  N   UNL     1       4.994  15.599  89.893  1.00  0.00    -0.271 NA
HETATM   34  H   UNL     1       4.854  15.338  88.924  1.00  0.00     0.127 HD
HETATM   35  H   UNL     1       4.585  16.803  89.299  1.00  0.00     0.127 HD
ENDBRANCH  26  31
ENDBRANCH  24  26
ENDBRANCH  19  22
ENDBRANCH  15  16
ENDBRANCH  11  14
ENDBRANCH   7   8
ENDBRANCH   2   7
TORSDOF 9
ENDMDL
