MODEL 1
REMARK VINA RESULT:      -7.0      0.000      0.000
REMARK  14 active torsions:
REMARK  status: ('A' for Active; 'I' for Inactive)
REMARK    1  A    between atoms: O_2  and  C_18 
REMARK    2  A    between atoms: C_5  and  C_8 
REMARK    3  A    between atoms: C_5  and  O_35 
REMARK    4  A    between atoms: C_5  and  C_36 
REMARK    5  A    between atoms: N_6  and  C_11 
REMARK    6  A    between atoms: N_7  and  C_15 
REMARK       I    between atoms: N_7  and  C_24 
REMARK    7  A    between atoms: C_8  and  C_23 
REMARK    8  A    between atoms: C_11  and  C_14 
REMARK    9  A    between atoms: C_15  and  C_18 
REMARK   10  A    between atoms: C_15  and  C_23 
REMARK   11  A    between atoms: C_21  and  C_26 
REMARK   12  A    between atoms: C_24  and  C_25 
REMARK   13  A    between atoms: C_29  and  C_32 
REMARK   14  A    between atoms: C_36  and  O_39 
ROOT
HETATM    1  O   UNL     1      15.970   4.107  94.010  1.00  0.00    -0.350 OA
HETATM    2  N   UNL     1      14.155   2.572  92.444  1.00  0.00     0.147 N 
HETATM    3  C   UNL     1      14.209   4.037  92.341  1.00  0.00     0.283 C 
HETATM    4  C   UNL     1      14.558   2.147  93.792  1.00  0.00     0.283 C 
HETATM    5  C   UNL     1      15.611   4.528  92.693  1.00  0.00     0.178 C 
HETATM    6  C   UNL     1      15.950   2.683  94.110  1.00  0.00     0.178 C 
ENDROOT
BRANCH   2   7
HETATM    7  C   UNL     1      12.818   2.079  92.121  1.00  0.00     0.277 C 
BRANCH   7   8
HETATM    8  C   UNL     1      11.803   3.171  92.089  1.00  0.00     0.011 A 
HETATM    9  C   UNL     1      11.587   3.955  93.223  1.00  0.00    -0.002 A 
HETATM   10  C   UNL     1      10.636   4.975  93.195  1.00  0.00     0.008 A 
HETATM   11  C   UNL     1       9.904   5.212  92.032  1.00  0.00     0.042 A 
HETATM   12  C   UNL     1      10.119   4.430  90.899  1.00  0.00     0.008 A 
HETATM   13  C   UNL     1      11.069   3.409  90.927  1.00  0.00    -0.002 A 
BRANCH  11  14
HETATM   14  C   UNL     1       8.930   6.260  92.002  1.00  0.00    -0.059 C 
HETATM   15  C   UNL     1       8.111   7.140  91.977  1.00  0.00    -0.059 C 
BRANCH  15  16
HETATM   16  C   UNL     1       7.138   8.187  91.948  1.00  0.00     0.042 A 
HETATM   17  C   UNL     1       5.778   7.875  91.975  1.00  0.00     0.008 A 
HETATM   18  C   UNL     1       4.829   8.896  91.950  1.00  0.00     0.005 A 
HETATM   19  C   UNL     1       5.259  10.205  91.899  1.00  0.00     0.056 A 
HETATM   20  C   UNL     1       6.597  10.540  91.871  1.00  0.00     0.005 A 
HETATM   21  C   UNL     1       7.548   9.519  91.896  1.00  0.00     0.008 A 
BRANCH  19  22
HETATM   22  C   UNL     1       4.248  11.293  91.870  1.00  0.00     0.254 C 
HETATM   23  O   UNL     1       3.067  11.019  92.071  1.00  0.00    -0.268 OA
HETATM   24  N   UNL     1       4.735  12.571  91.635  1.00  0.00    -0.335 N 
HETATM   25  HN  UNL     1       5.728  12.725  91.503  1.00  0.00     0.164 HD
BRANCH  24  26
HETATM   26  C   UNL     1       3.883  13.732  91.602  1.00  0.00     0.169 C 
BRANCH  26  27
HETATM   27  C   UNL     1       3.796  14.444  92.958  1.00  0.00     0.138 C 
HETATM   28  C   UNL     1       2.357  14.654  93.416  1.00  0.00     0.034 C 
BRANCH  27  29
HETATM   29  O   UNL     1       4.490  13.680  93.943  1.00  0.00    -0.383 OA
HETATM   30  H   UNL     1       4.024  12.835  94.057  1.00  0.00     0.210 HD
ENDBRANCH  27  29
ENDBRANCH  26  27
BRANCH  26  31
HETATM   31  C   UNL     1       4.411  14.666  90.518  1.00  0.00     0.194 C 
HETATM   32  O   UNL     1       5.144  15.624  90.758  1.00  0.00    -0.289 OA
BRANCH  31  33
HETATM   33  C   UNL     1       3.941  14.332  89.271  1.00  0.00     0.053 C 
BRANCH  33  34
HETATM   34  C   UNL     1       4.866  13.717  88.415  1.00  0.00     0.220 C 
BRANCH  34  35
HETATM   35  O   UNL     1       5.990  13.803  88.945  1.00  0.00    -0.371 OA
HETATM   36  H   UNL     1       6.176  14.701  88.716  1.00  0.00     0.211 HD
ENDBRANCH  34  35
BRANCH  34  37
HETATM   37  C   UNL     1       4.530  12.392  88.088  1.00  0.00     0.185 C 
HETATM   38  O   UNL     1       5.706  12.128  88.637  1.00  0.00    -0.647 OA
BRANCH  37  39
HETATM   39  O   UNL     1       3.633  11.828  87.538  1.00  0.00    -0.774 OA
HETATM   40  H   UNL     1       3.748  10.701  87.596  1.00  0.00     0.167 HD
ENDBRANCH  37  39
ENDBRANCH  34  37
ENDBRANCH  33  34
ENDBRANCH  31  33
ENDBRANCH  26  31
ENDBRANCH  24  26
ENDBRANCH  19  22
ENDBRANCH  15  16
ENDBRANCH  11  14
ENDBRANCH   7   8
ENDBRANCH   2   7
TORSDOF 14
ENDMDL
MODEL 2
REMARK VINA RESULT:      -6.9      1.313      1.743
REMARK  14 active torsions:
REMARK  status: ('A' for Active; 'I' for Inactive)
REMARK    1  A    between atoms: O_2  and  C_18 
REMARK    2  A    between atoms: C_5  and  C_8 
REMARK    3  A    between atoms: C_5  and  O_35 
REMARK    4  A    between atoms: C_5  and  C_36 
REMARK    5  A    between atoms: N_6  and  C_11 
REMARK    6  A    between atoms: N_7  and  C_15 
REMARK       I    between atoms: N_7  and  C_24 
REMARK    7  A    between atoms: C_8  and  C_23 
REMARK    8  A    between atoms: C_11  and  C_14 
REMARK    9  A    between atoms: C_15  and  C_18 
REMARK   10  A    between atoms: C_15  and  C_23 
REMARK   11  A    between atoms: C_21  and  C_26 
REMARK   12  A    between atoms: C_24  and  C_25 
REMARK   13  A    between atoms: C_29  and  C_32 
REMARK   14  A    between atoms: C_36  and  O_39 
ROOT
HETATM    1  O   UNL     1      16.497   3.315  93.755  1.00  0.00    -0.350 OA
HETATM    2  N   UNL     1      13.877   2.959  92.702  1.00  0.00     0.147 N 
HETATM    3  C   UNL     1      14.746   1.813  93.001  1.00  0.00     0.283 C 
HETATM    4  C   UNL     1      14.692   4.132  92.356  1.00  0.00     0.283 C 
HETATM    5  C   UNL     1      15.715   2.178  94.124  1.00  0.00     0.178 C 
HETATM    6  C   UNL     1      15.661   4.442  93.492  1.00  0.00     0.178 C 
ENDROOT
BRANCH   2   7
HETATM    7  C   UNL     1      12.947   2.635  91.621  1.00  0.00     0.277 C 
BRANCH   7   8
HETATM    8  C   UNL     1      11.777   3.558  91.582  1.00  0.00     0.011 A 
HETATM    9  C   UNL     1      11.514   4.300  90.430  1.00  0.00    -0.002 A 
HETATM   10  C   UNL     1      10.421   5.166  90.394  1.00  0.00     0.008 A 
HETATM   11  C   UNL     1       9.591   5.287  91.508  1.00  0.00     0.042 A 
HETATM   12  C   UNL     1       9.853   4.546  92.658  1.00  0.00     0.008 A 
HETATM   13  C   UNL     1      10.946   3.681  92.696  1.00  0.00    -0.002 A 
BRANCH  11  14
HETATM   14  C   UNL     1       8.468   6.173  91.469  1.00  0.00    -0.059 C 
HETATM   15  C   UNL     1       7.526   6.918  91.436  1.00  0.00    -0.059 C 
BRANCH  15  16
HETATM   16  C   UNL     1       6.404   7.804  91.397  1.00  0.00     0.042 A 
HETATM   17  C   UNL     1       5.299   7.494  90.604  1.00  0.00     0.008 A 
HETATM   18  C   UNL     1       4.204   8.357  90.568  1.00  0.00     0.005 A 
HETATM   19  C   UNL     1       4.238   9.509  91.325  1.00  0.00     0.056 A 
HETATM   20  C   UNL     1       5.318   9.839  92.116  1.00  0.00     0.005 A 
HETATM   21  C   UNL     1       6.414   8.976  92.153  1.00  0.00     0.008 A 
BRANCH  19  22
HETATM   22  C   UNL     1       3.072  10.429  91.284  1.00  0.00     0.254 C 
HETATM   23  O   UNL     1       1.952   9.970  91.074  1.00  0.00    -0.268 OA
HETATM   24  N   UNL     1       3.346  11.770  91.518  1.00  0.00    -0.335 N 
HETATM   25  HN  UNL     1       4.294  12.073  91.709  1.00  0.00     0.164 HD
BRANCH  24  26
HETATM   26  C   UNL     1       2.319  12.780  91.535  1.00  0.00     0.169 C 
BRANCH  26  27
HETATM   27  C   UNL     1       2.109  13.388  92.928  1.00  0.00     0.138 C 
HETATM   28  C   UNL     1       3.277  13.114  93.867  1.00  0.00     0.034 C 
BRANCH  27  29
HETATM   29  O   UNL     1       1.930  14.799  92.810  1.00  0.00    -0.383 OA
HETATM   30  H   UNL     1       2.095  15.052  91.886  1.00  0.00     0.210 HD
ENDBRANCH  27  29
ENDBRANCH  26  27
BRANCH  26  31
HETATM   31  C   UNL     1       2.699  13.849  90.515  1.00  0.00     0.194 C 
HETATM   32  O   UNL     1       1.868  14.525  89.912  1.00  0.00    -0.289 OA
BRANCH  31  33
HETATM   33  C   UNL     1       4.058  13.931  90.332  1.00  0.00     0.053 C 
BRANCH  33  34
HETATM   34  C   UNL     1       4.485  14.107  89.008  1.00  0.00     0.220 C 
BRANCH  34  35
HETATM   35  O   UNL     1       5.532  14.782  89.032  1.00  0.00    -0.371 OA
HETATM   36  H   UNL     1       5.205  15.550  88.589  1.00  0.00     0.211 HD
ENDBRANCH  34  35
BRANCH  34  37
HETATM   37  C   UNL     1       4.645  12.900  88.305  1.00  0.00     0.185 C 
HETATM   38  O   UNL     1       5.838  12.908  88.881  1.00  0.00    -0.647 OA
BRANCH  37  39
HETATM   39  O   UNL     1       4.008  12.246  87.535  1.00  0.00    -0.774 OA
HETATM   40  H   UNL     1       4.492  11.238  87.341  1.00  0.00     0.167 HD
ENDBRANCH  37  39
ENDBRANCH  34  37
ENDBRANCH  33  34
ENDBRANCH  31  33
ENDBRANCH  26  31
ENDBRANCH  24  26
ENDBRANCH  19  22
ENDBRANCH  15  16
ENDBRANCH  11  14
ENDBRANCH   7   8
ENDBRANCH   2   7
TORSDOF 14
ENDMDL
MODEL 3
REMARK VINA RESULT:      -5.8      2.623     12.808
REMARK  14 active torsions:
REMARK  status: ('A' for Active; 'I' for Inactive)
REMARK    1  A    between atoms: O_2  and  C_18 
REMARK    2  A    between atoms: C_5  and  C_8 
REMARK    3  A    between atoms: C_5  and  O_35 
REMARK    4  A    between atoms: C_5  and  C_36 
REMARK    5  A    between atoms: N_6  and  C_11 
REMARK    6  A    between atoms: N_7  and  C_15 
REMARK       I    between atoms: N_7  and  C_24 
REMARK    7  A    between atoms: C_8  and  C_23 
REMARK    8  A    between atoms: C_11  and  C_14 
REMARK    9  A    between atoms: C_15  and  C_18 
REMARK   10  A    between atoms: C_15  and  C_23 
REMARK   11  A    between atoms: C_21  and  C_26 
REMARK   12  A    between atoms: C_24  and  C_25 
REMARK   13  A    between atoms: C_29  and  C_32 
REMARK   14  A    between atoms: C_36  and  O_39 
ROOT
HETATM    1  O   UNL     1       3.099  14.886  93.990  1.00  0.00    -0.350 OA
HETATM    2  N   UNL     1       2.775  14.662  91.171  1.00  0.00     0.147 N 
HETATM    3  C   UNL     1       1.801  14.080  92.104  1.00  0.00     0.283 C 
HETATM    4  C   UNL     1       4.106  14.699  91.791  1.00  0.00     0.283 C 
HETATM    5  C   UNL     1       1.795  14.875  93.407  1.00  0.00     0.178 C 
HETATM    6  C   UNL     1       4.047  15.479  93.100  1.00  0.00     0.178 C 
ENDROOT
BRANCH   2   7
HETATM    7  C   UNL     1       2.805  13.909  89.918  1.00  0.00     0.277 C 
BRANCH   7   8
HETATM    8  C   UNL     1       3.788  12.789  89.953  1.00  0.00     0.011 A 
HETATM    9  C   UNL     1       3.493  11.624  90.661  1.00  0.00    -0.002 A 
HETATM   10  C   UNL     1       4.413  10.576  90.696  1.00  0.00     0.008 A 
HETATM   11  C   UNL     1       5.627  10.693  90.021  1.00  0.00     0.042 A 
HETATM   12  C   UNL     1       5.923  11.856  89.313  1.00  0.00     0.008 A 
HETATM   13  C   UNL     1       5.004  12.904  89.278  1.00  0.00    -0.002 A 
BRANCH  11  14
HETATM   14  C   UNL     1       6.570   9.618  90.055  1.00  0.00    -0.059 C 
HETATM   15  C   UNL     1       7.363   8.714  90.083  1.00  0.00    -0.059 C 
BRANCH  15  16
HETATM   16  C   UNL     1       8.306   7.640  90.117  1.00  0.00     0.042 A 
HETATM   17  C   UNL     1       8.260   6.706  91.152  1.00  0.00     0.008 A 
HETATM   18  C   UNL     1       9.178   5.656  91.183  1.00  0.00     0.005 A 
HETATM   19  C   UNL     1      10.120   5.564  90.180  1.00  0.00     0.056 A 
HETATM   20  C   UNL     1      10.186   6.475  89.147  1.00  0.00     0.005 A 
HETATM   21  C   UNL     1       9.269   7.525  89.114  1.00  0.00     0.008 A 
BRANCH  19  22
HETATM   22  C   UNL     1      11.099   4.447  90.215  1.00  0.00     0.254 C 
HETATM   23  O   UNL     1      11.118   3.637  89.292  1.00  0.00    -0.268 OA
HETATM   24  N   UNL     1      11.955   4.423  91.308  1.00  0.00    -0.335 N 
HETATM   25  HN  UNL     1      11.898   5.141  92.020  1.00  0.00     0.164 HD
BRANCH  24  26
HETATM   26  C   UNL     1      12.974   3.418  91.473  1.00  0.00     0.169 C 
BRANCH  26  27
HETATM   27  C   UNL     1      14.358   3.895  91.013  1.00  0.00     0.138 C 
HETATM   28  C   UNL     1      14.867   3.127  89.798  1.00  0.00     0.034 C 
BRANCH  27  29
HETATM   29  O   UNL     1      14.302   5.285  90.693  1.00  0.00    -0.383 OA
HETATM   30  H   UNL     1      14.341   5.377  89.726  1.00  0.00     0.210 HD
ENDBRANCH  27  29
ENDBRANCH  26  27
BRANCH  26  31
HETATM   31  C   UNL     1      12.989   3.005  92.941  1.00  0.00     0.194 C 
HETATM   32  O   UNL     1      12.169   2.228  93.426  1.00  0.00    -0.289 OA
BRANCH  31  33
HETATM   33  C   UNL     1      13.989   3.631  93.646  1.00  0.00     0.053 C 
BRANCH  33  34
HETATM   34  C   UNL     1      15.010   2.798  94.124  1.00  0.00     0.220 C 
BRANCH  34  35
HETATM   35  O   UNL     1      14.858   1.674  93.609  1.00  0.00    -0.371 OA
HETATM   36  H   UNL     1      14.536   1.957  92.766  1.00  0.00     0.211 HD
ENDBRANCH  34  35
BRANCH  34  37
HETATM   37  C   UNL     1      16.300   3.314  93.908  1.00  0.00     0.185 C 
HETATM   38  O   UNL     1      15.697   4.474  94.118  1.00  0.00    -0.647 OA
BRANCH  37  39
HETATM   39  O   UNL     1      17.378   2.883  93.627  1.00  0.00    -0.774 OA
HETATM   40  H   UNL     1      18.195   3.354  94.258  1.00  0.00     0.167 HD
ENDBRANCH  37  39
ENDBRANCH  34  37
ENDBRANCH  33  34
ENDBRANCH  31  33
ENDBRANCH  26  31
ENDBRANCH  24  26
ENDBRANCH  19  22
ENDBRANCH  15  16
ENDBRANCH  11  14
ENDBRANCH   7   8
ENDBRANCH   2   7
TORSDOF 14
ENDMDL
MODEL 4
REMARK VINA RESULT:      -5.3      2.855     12.317
REMARK  14 active torsions:
REMARK  status: ('A' for Active; 'I' for Inactive)
REMARK    1  A    between atoms: O_2  and  C_18 
REMARK    2  A    between atoms: C_5  and  C_8 
REMARK    3  A    between atoms: C_5  and  O_35 
REMARK    4  A    between atoms: C_5  and  C_36 
REMARK    5  A    between atoms: N_6  and  C_11 
REMARK    6  A    between atoms: N_7  and  C_15 
REMARK       I    between atoms: N_7  and  C_24 
REMARK    7  A    between atoms: C_8  and  C_23 
REMARK    8  A    between atoms: C_11  and  C_14 
REMARK    9  A    between atoms: C_15  and  C_18 
REMARK   10  A    between atoms: C_15  and  C_23 
REMARK   11  A    between atoms: C_21  and  C_26 
REMARK   12  A    between atoms: C_24  and  C_25 
REMARK   13  A    between atoms: C_29  and  C_32 
REMARK   14  A    between atoms: C_36  and  O_39 
ROOT
HETATM    1  O   UNL     1       3.644  14.956  93.774  1.00  0.00    -0.350 OA
HETATM    2  N   UNL     1       2.991  14.733  91.013  1.00  0.00     0.147 N 
HETATM    3  C   UNL     1       2.146  14.129  92.053  1.00  0.00     0.283 C 
HETATM    4  C   UNL     1       4.386  14.795  91.470  1.00  0.00     0.283 C 
HETATM    5  C   UNL     1       2.280  14.921  93.351  1.00  0.00     0.178 C 
HETATM    6  C   UNL     1       4.467  15.569  92.782  1.00  0.00     0.178 C 
ENDROOT
BRANCH   2   7
HETATM    7  C   UNL     1       2.886  13.983  89.762  1.00  0.00     0.277 C 
BRANCH   7   8
HETATM    8  C   UNL     1       3.834  12.834  89.708  1.00  0.00     0.011 A 
HETATM    9  C   UNL     1       3.461  11.598  90.237  1.00  0.00    -0.002 A 
HETATM   10  C   UNL     1       4.347  10.522  90.189  1.00  0.00     0.008 A 
HETATM   11  C   UNL     1       5.605  10.682  89.610  1.00  0.00     0.042 A 
HETATM   12  C   UNL     1       5.979  11.916  89.081  1.00  0.00     0.008 A 
HETATM   13  C   UNL     1       5.093  12.992  89.129  1.00  0.00    -0.002 A 
BRANCH  11  14
HETATM   14  C   UNL     1       6.514   9.578  89.559  1.00  0.00    -0.059 C 
HETATM   15  C   UNL     1       7.277   8.650  89.515  1.00  0.00    -0.059 C 
BRANCH  15  16
HETATM   16  C   UNL     1       8.185   7.547  89.463  1.00  0.00     0.042 A 
HETATM   17  C   UNL     1       9.545   7.774  89.251  1.00  0.00     0.008 A 
HETATM   18  C   UNL     1      10.431   6.698  89.203  1.00  0.00     0.005 A 
HETATM   19  C   UNL     1       9.939   5.421  89.369  1.00  0.00     0.056 A 
HETATM   20  C   UNL     1       8.599   5.170  89.580  1.00  0.00     0.005 A 
HETATM   21  C   UNL     1       7.712   6.245  89.628  1.00  0.00     0.008 A 
BRANCH  19  22
HETATM   22  C   UNL     1      10.883   4.275  89.316  1.00  0.00     0.254 C 
HETATM   23  O   UNL     1      10.968   3.615  88.283  1.00  0.00    -0.268 OA
HETATM   24  N   UNL     1      11.631   4.050  90.463  1.00  0.00    -0.335 N 
HETATM   25  HN  UNL     1      11.525   4.652  91.271  1.00  0.00     0.164 HD
BRANCH  24  26
HETATM   26  C   UNL     1      12.606   2.993  90.558  1.00  0.00     0.169 C 
BRANCH  26  27
HETATM   27  C   UNL     1      14.046   3.518  90.631  1.00  0.00     0.138 C 
HETATM   28  C   UNL     1      14.116   5.039  90.565  1.00  0.00     0.034 C 
BRANCH  27  29
HETATM   29  O   UNL     1      14.654   3.078  91.844  1.00  0.00    -0.383 OA
HETATM   30  H   UNL     1      15.385   2.478  91.619  1.00  0.00     0.210 HD
ENDBRANCH  27  29
ENDBRANCH  26  27
BRANCH  26  31
HETATM   31  C   UNL     1      12.261   2.150  91.782  1.00  0.00     0.194 C 
HETATM   32  O   UNL     1      12.745   1.038  91.987  1.00  0.00    -0.289 OA
BRANCH  31  33
HETATM   33  C   UNL     1      11.331   2.761  92.588  1.00  0.00     0.053 C 
BRANCH  33  34
HETATM   34  C   UNL     1      11.811   3.248  93.812  1.00  0.00     0.220 C 
BRANCH  34  35
HETATM   35  O   UNL     1      13.006   2.913  93.912  1.00  0.00    -0.371 OA
HETATM   36  H   UNL     1      13.310   3.253  93.085  1.00  0.00     0.211 HD
ENDBRANCH  34  35
BRANCH  34  37
HETATM   37  C   UNL     1      11.630   4.633  93.973  1.00  0.00     0.185 C 
HETATM   38  O   UNL     1      12.949   4.630  94.087  1.00  0.00    -0.647 OA
BRANCH  37  39
HETATM   39  O   UNL     1      10.711   5.394  94.026  1.00  0.00    -0.774 OA
HETATM   40  H   UNL     1      10.542   5.774  95.082  1.00  0.00     0.167 HD
ENDBRANCH  37  39
ENDBRANCH  34  37
ENDBRANCH  33  34
ENDBRANCH  31  33
ENDBRANCH  26  31
ENDBRANCH  24  26
ENDBRANCH  19  22
ENDBRANCH  15  16
ENDBRANCH  11  14
ENDBRANCH   7   8
ENDBRANCH   2   7
TORSDOF 14
ENDMDL
MODEL 5
REMARK VINA RESULT:      -4.9      1.827      3.383
REMARK  14 active torsions:
REMARK  status: ('A' for Active; 'I' for Inactive)
REMARK    1  A    between atoms: O_2  and  C_18 
REMARK    2  A    between atoms: C_5  and  C_8 
REMARK    3  A    between atoms: C_5  and  O_35 
REMARK    4  A    between atoms: C_5  and  C_36 
REMARK    5  A    between atoms: N_6  and  C_11 
REMARK    6  A    between atoms: N_7  and  C_15 
REMARK       I    between atoms: N_7  and  C_24 
REMARK    7  A    between atoms: C_8  and  C_23 
REMARK    8  A    between atoms: C_11  and  C_14 
REMARK    9  A    between atoms: C_15  and  C_18 
REMARK   10  A    between atoms: C_15  and  C_23 
REMARK   11  A    between atoms: C_21  and  C_26 
REMARK   12  A    between atoms: C_24  and  C_25 
REMARK   13  A    between atoms: C_29  and  C_32 
REMARK   14  A    between atoms: C_36  and  O_39 
ROOT
HETATM    1  O   UNL     1      17.353   4.216  93.705  1.00  0.00    -0.350 OA
HETATM    2  N   UNL     1      14.845   2.872  93.784  1.00  0.00     0.147 N 
HETATM    3  C   UNL     1      16.075   2.179  93.378  1.00  0.00     0.283 C 
HETATM    4  C   UNL     1      14.941   4.301  93.456  1.00  0.00     0.283 C 
HETATM    5  C   UNL     1      17.281   2.831  94.049  1.00  0.00     0.178 C 
HETATM    6  C   UNL     1      16.173   4.904  94.124  1.00  0.00     0.178 C 
ENDROOT
BRANCH   2   7
HETATM    7  C   UNL     1      13.676   2.270  93.144  1.00  0.00     0.277 C 
BRANCH   7   8
HETATM    8  C   UNL     1      12.682   3.289  92.703  1.00  0.00     0.011 A 
HETATM    9  C   UNL     1      12.378   3.425  91.348  1.00  0.00    -0.002 A 
HETATM   10  C   UNL     1      11.449   4.380  90.934  1.00  0.00     0.008 A 
HETATM   11  C   UNL     1      10.824   5.197  91.875  1.00  0.00     0.042 A 
HETATM   12  C   UNL     1      11.126   5.062  93.228  1.00  0.00     0.008 A 
HETATM   13  C   UNL     1      12.056   4.108  93.643  1.00  0.00    -0.002 A 
BRANCH  11  14
HETATM   14  C   UNL     1       9.869   6.174  91.451  1.00  0.00    -0.059 C 
HETATM   15  C   UNL     1       9.068   6.997  91.094  1.00  0.00    -0.059 C 
BRANCH  15  16
HETATM   16  C   UNL     1       8.115   7.974  90.670  1.00  0.00     0.042 A 
HETATM   17  C   UNL     1       6.801   7.593  90.396  1.00  0.00     0.008 A 
HETATM   18  C   UNL     1       5.871   8.548  89.984  1.00  0.00     0.005 A 
HETATM   19  C   UNL     1       6.275   9.861  89.857  1.00  0.00     0.056 A 
HETATM   20  C   UNL     1       7.567  10.262  90.121  1.00  0.00     0.005 A 
HETATM   21  C   UNL     1       8.498   9.308  90.532  1.00  0.00     0.008 A 
BRANCH  19  22
HETATM   22  C   UNL     1       5.284  10.877  89.416  1.00  0.00     0.254 C 
HETATM   23  O   UNL     1       4.500  10.598  88.513  1.00  0.00    -0.268 OA
HETATM   24  N   UNL     1       5.309  12.086  90.098  1.00  0.00    -0.335 N 
HETATM   25  HN  UNL     1       5.970  12.236  90.852  1.00  0.00     0.164 HD
BRANCH  24  26
HETATM   26  C   UNL     1       4.396  13.161  89.804  1.00  0.00     0.169 C 
BRANCH  26  27
HETATM   27  C   UNL     1       4.551  13.697  88.375  1.00  0.00     0.138 C 
HETATM   28  C   UNL     1       5.972  14.165  88.078  1.00  0.00     0.034 C 
BRANCH  27  29
HETATM   29  O   UNL     1       4.194  12.679  87.441  1.00  0.00    -0.383 OA
HETATM   30  H   UNL     1       4.294  13.039  86.544  1.00  0.00     0.210 HD
ENDBRANCH  27  29
ENDBRANCH  26  27
BRANCH  26  31
HETATM   31  C   UNL     1       2.981  12.651  90.054  1.00  0.00     0.194 C 
HETATM   32  O   UNL     1       2.175  12.439  89.149  1.00  0.00    -0.289 OA
BRANCH  31  33
HETATM   33  C   UNL     1       2.713  12.500  91.393  1.00  0.00     0.053 C 
BRANCH  33  34
HETATM   34  C   UNL     1       2.396  11.199  91.809  1.00  0.00     0.220 C 
BRANCH  34  35
HETATM   35  O   UNL     1       2.584  10.435  90.843  1.00  0.00    -0.371 OA
HETATM   36  H   UNL     1       3.339   9.978  91.179  1.00  0.00     0.211 HD
ENDBRANCH  34  35
BRANCH  34  37
HETATM   37  C   UNL     1       3.099  10.791  92.956  1.00  0.00     0.185 C 
HETATM   38  O   UNL     1       2.014  11.223  93.579  1.00  0.00    -0.647 OA
BRANCH  37  39
HETATM   39  O   UNL     1       4.172  10.329  93.205  1.00  0.00    -0.774 OA
HETATM   40  H   UNL     1       4.805  10.213  92.271  1.00  0.00     0.167 HD
ENDBRANCH  37  39
ENDBRANCH  34  37
ENDBRANCH  33  34
ENDBRANCH  31  33
ENDBRANCH  26  31
ENDBRANCH  24  26
ENDBRANCH  19  22
ENDBRANCH  15  16
ENDBRANCH  11  14
ENDBRANCH   7   8
ENDBRANCH   2   7
TORSDOF 14
ENDMDL
MODEL 6
REMARK VINA RESULT:      -4.1      1.797      2.536
REMARK  14 active torsions:
REMARK  status: ('A' for Active; 'I' for Inactive)
REMARK    1  A    between atoms: O_2  and  C_18 
REMARK    2  A    between atoms: C_5  and  C_8 
REMARK    3  A    between atoms: C_5  and  O_35 
REMARK    4  A    between atoms: C_5  and  C_36 
REMARK    5  A    between atoms: N_6  and  C_11 
REMARK    6  A    between atoms: N_7  and  C_15 
REMARK       I    between atoms: N_7  and  C_24 
REMARK    7  A    between atoms: C_8  and  C_23 
REMARK    8  A    between atoms: C_11  and  C_14 
REMARK    9  A    between atoms: C_15  and  C_18 
REMARK   10  A    between atoms: C_15  and  C_23 
REMARK   11  A    between atoms: C_21  and  C_26 
REMARK   12  A    between atoms: C_24  and  C_25 
REMARK   13  A    between atoms: C_29  and  C_32 
REMARK   14  A    between atoms: C_36  and  O_39 
ROOT
HETATM    1  O   UNL     1      16.932   3.811  92.974  1.00  0.00    -0.350 OA
HETATM    2  N   UNL     1      14.676   2.074  92.985  1.00  0.00     0.147 N 
HETATM    3  C   UNL     1      15.569   2.166  91.822  1.00  0.00     0.283 C 
HETATM    4  C   UNL     1      14.668   3.350  93.715  1.00  0.00     0.283 C 
HETATM    5  C   UNL     1      16.971   2.565  92.276  1.00  0.00     0.178 C 
HETATM    6  C   UNL     1      16.090   3.721  94.124  1.00  0.00     0.178 C 
ENDROOT
BRANCH   2   7
HETATM    7  C   UNL     1      13.324   1.703  92.572  1.00  0.00     0.277 C 
BRANCH   7   8
HETATM    8  C   UNL     1      12.480   2.892  92.257  1.00  0.00     0.011 A 
HETATM    9  C   UNL     1      11.774   3.534  93.276  1.00  0.00    -0.002 A 
HETATM   10  C   UNL     1      10.983   4.644  92.983  1.00  0.00     0.008 A 
HETATM   11  C   UNL     1      10.899   5.113  91.672  1.00  0.00     0.042 A 
HETATM   12  C   UNL     1      11.604   4.473  90.654  1.00  0.00     0.008 A 
HETATM   13  C   UNL     1      12.395   3.362  90.947  1.00  0.00    -0.002 A 
BRANCH  11  14
HETATM   14  C   UNL     1      10.089   6.253  91.372  1.00  0.00    -0.059 C 
HETATM   15  C   UNL     1       9.408   7.211  91.119  1.00  0.00    -0.059 C 
BRANCH  15  16
HETATM   16  C   UNL     1       8.597   8.350  90.818  1.00  0.00     0.042 A 
HETATM   17  C   UNL     1       8.048   8.498  89.544  1.00  0.00     0.008 A 
HETATM   18  C   UNL     1       7.256   9.608  89.253  1.00  0.00     0.005 A 
HETATM   19  C   UNL     1       7.029  10.543  90.240  1.00  0.00     0.056 A 
HETATM   20  C   UNL     1       7.561  10.420  91.507  1.00  0.00     0.005 A 
HETATM   21  C   UNL     1       8.354   9.311  91.800  1.00  0.00     0.008 A 
BRANCH  19  22
HETATM   22  C   UNL     1       6.186  11.727  89.928  1.00  0.00     0.254 C 
HETATM   23  O   UNL     1       6.351  12.316  88.863  1.00  0.00    -0.268 OA
HETATM   24  N   UNL     1       5.236  12.065  90.882  1.00  0.00    -0.335 N 
HETATM   25  HN  UNL     1       5.141  11.516  91.728  1.00  0.00     0.164 HD
BRANCH  24  26
HETATM   26  C   UNL     1       4.328  13.171  90.714  1.00  0.00     0.169 C 
BRANCH  26  27
HETATM   27  C   UNL     1       5.023  14.437  90.196  1.00  0.00     0.138 C 
HETATM   28  C   UNL     1       4.899  14.595  88.685  1.00  0.00     0.034 C 
BRANCH  27  29
HETATM   29  O   UNL     1       4.460  15.584  90.831  1.00  0.00    -0.383 OA
HETATM   30  H   UNL     1       4.720  15.574  91.767  1.00  0.00     0.210 HD
ENDBRANCH  27  29
ENDBRANCH  26  27
BRANCH  26  31
HETATM   31  C   UNL     1       3.218  12.723  89.769  1.00  0.00     0.194 C 
HETATM   32  O   UNL     1       2.461  13.510  89.205  1.00  0.00    -0.289 OA
BRANCH  31  33
HETATM   33  C   UNL     1       3.148  11.355  89.663  1.00  0.00     0.053 C 
BRANCH  33  34
HETATM   34  C   UNL     1       2.974  10.852  88.366  1.00  0.00     0.220 C 
BRANCH  34  35
HETATM   35  O   UNL     1       3.498  11.656  87.572  1.00  0.00    -0.371 OA
HETATM   36  H   UNL     1       3.745  12.319  88.199  1.00  0.00     0.211 HD
ENDBRANCH  34  35
BRANCH  34  37
HETATM   37  C   UNL     1       3.463   9.544  88.201  1.00  0.00     0.185 C 
HETATM   38  O   UNL     1       4.359  10.147  87.436  1.00  0.00    -0.647 OA
BRANCH  37  39
HETATM   39  O   UNL     1       3.157   8.446  88.557  1.00  0.00    -0.774 OA
HETATM   40  H   UNL     1       2.494   7.929  87.795  1.00  0.00     0.167 HD
ENDBRANCH  37  39
ENDBRANCH  34  37
ENDBRANCH  33  34
ENDBRANCH  31  33
ENDBRANCH  26  31
ENDBRANCH  24  26
ENDBRANCH  19  22
ENDBRANCH  15  16
ENDBRANCH  11  14
ENDBRANCH   7   8
ENDBRANCH   2   7
TORSDOF 14
ENDMDL
