MODEL 1
REMARK VINA RESULT:      -7.0      0.000      0.000
REMARK  10 active torsions:
REMARK  status: ('A' for Active; 'I' for Inactive)
REMARK    1  A    between atoms: O_2  and  C_18 
REMARK    2  A    between atoms: O_5  and  N_8 
REMARK    3  A    between atoms: N_6  and  C_11 
REMARK    4  A    between atoms: N_7  and  C_15 
REMARK       I    between atoms: N_7  and  C_24 
REMARK       I    between atoms: N_8  and  C_23 
REMARK    5  A    between atoms: C_11  and  C_14 
REMARK    6  A    between atoms: C_15  and  C_18 
REMARK    7  A    between atoms: C_15  and  C_23 
REMARK    8  A    between atoms: C_21  and  C_26 
REMARK    9  A    between atoms: C_24  and  C_25 
REMARK   10  A    between atoms: C_29  and  C_32 
ROOT
HETATM    1  O   UNK     0      17.178   4.262  93.801  0.00  0.00    -0.388 OA
HETATM    2  N   UNK     0      14.750   2.789  93.619  0.00  0.00     0.096 N 
HETATM    3  C   UNK     0      16.049   2.166  93.331  0.00  0.00     0.299 C 
HETATM    4  C   UNK     0      14.801   4.225  93.315  0.00  0.00     0.299 C 
HETATM    5  C   UNK     0      17.147   2.871  94.124  0.00  0.00     0.198 C 
HETATM    6  C   UNK     0      15.928   4.882  94.108  0.00  0.00     0.198 C 
ENDROOT
BRANCH   2   7
HETATM    7  C   UNK     0      13.684   2.136  92.861  0.00  0.00     0.311 C 
BRANCH   7   8
HETATM    8  C   UNK     0      12.608   3.087  92.459  0.00  0.00    -0.030 A 
HETATM    9  C   UNK     0      12.238   3.192  91.118  0.00  0.00     0.010 A 
HETATM   10  C   UNK     0      11.234   4.083  90.740  0.00  0.00     0.021 A 
HETATM   11  C   UNK     0      10.599   4.866  91.703  0.00  0.00     0.018 A 
HETATM   12  C   UNK     0      10.968   4.761  93.043  0.00  0.00     0.021 A 
HETATM   13  C   UNK     0      11.972   3.871  93.421  0.00  0.00     0.010 A 
BRANCH  11  14
HETATM   14  C   UNK     0       9.567   5.778  91.315  0.00  0.00    -0.061 C 
HETATM   15  C   UNK     0       8.700   6.545  90.989  0.00  0.00    -0.061 C 
BRANCH  15  16
HETATM   16  C   UNK     0       7.670   7.456  90.601  0.00  0.00     0.018 A 
HETATM   17  C   UNK     0       7.928   8.827  90.569  0.00  0.00     0.022 A 
HETATM   18  C   UNK     0       6.924   9.716  90.188  0.00  0.00     0.018 A 
HETATM   19  C   UNK     0       5.685   9.216  89.847  0.00  0.00     0.032 A 
HETATM   20  C   UNK     0       5.404   7.866  89.870  0.00  0.00     0.018 A 
HETATM   21  C   UNK     0       6.408   6.976  90.252  0.00  0.00     0.022 A 
BRANCH  19  22
HETATM   22  C   UNK     0       4.614  10.165  89.443  0.00  0.00     0.252 C 
HETATM   23  O   UNK     0       3.836   9.845  88.548  0.00  0.00    -0.268 OA
HETATM   24  N   UNK     0       4.565  11.361  90.146  0.00  0.00    -0.341 N 
HETATM   25  H   UNK     0       5.226  11.546  90.890  0.00  0.00     0.163 HD
BRANCH  24  26
HETATM   26  C   UNK     0       3.570  12.371  89.887  0.00  0.00     0.207 C 
BRANCH  26  27
HETATM   27  C   UNK     0       3.102  13.082  91.163  0.00  0.00     0.146 C 
HETATM   28  C   UNK     0       2.120  12.243  91.973  0.00  0.00     0.042 C 
BRANCH  27  29
HETATM   29  O   UNK     0       4.231  13.391  91.979  0.00  0.00    -0.393 OA
HETATM   30  H   UNK     0       4.995  12.892  91.644  0.00  0.00     0.210 HD
ENDBRANCH  27  29
ENDBRANCH  26  27
BRANCH  26  31
HETATM   31  C   UNK     0       4.159  13.359  88.886  0.00  0.00     0.266 C 
HETATM   32  O   UNK     0       4.415  14.528  89.169  0.00  0.00    -0.269 OA
HETATM   33  N   UNK     0       4.327  12.799  87.642  0.00  0.00    -0.236 N 
HETATM   34  H   UNK     0       4.045  11.870  87.352  0.00  0.00     0.197 HD
BRANCH  33  35
HETATM   35  O   UNK     0       4.830  13.654  86.651  0.00  0.00    -0.287 OA
HETATM   36  H   UNK     0       4.874  14.489  87.148  0.00  0.00     0.244 HD
ENDBRANCH  33  35
ENDBRANCH  26  31
ENDBRANCH  24  26
ENDBRANCH  19  22
ENDBRANCH  15  16
ENDBRANCH  11  14
ENDBRANCH   7   8
ENDBRANCH   2   7
TORSDOF 10
ENDMDL
