MODEL 1
REMARK VINA RESULT:      -6.9      0.000      0.000
REMARK  10 active torsions:
REMARK  status: ('A' for Active; 'I' for Inactive)
REMARK    1  A    between atoms: O_2  and  C_16 
REMARK    2  A    between atoms: N_5  and  C_9 
REMARK    3  A    between atoms: N_6  and  C_13 
REMARK       I    between atoms: N_6  and  C_22 
REMARK    4  A    between atoms: C_9  and  C_12 
REMARK    5  A    between atoms: C_13  and  C_16 
REMARK    6  A    between atoms: C_13  and  C_21 
REMARK    7  A    between atoms: C_19  and  C_24 
REMARK    8  A    between atoms: C_22  and  C_23 
REMARK    9  A    between atoms: C_27  and  C_30 
REMARK   10  A    between atoms: N_33  and  S_34 
ROOT
HETATM    1  C   UNL     1       5.698  11.200  89.850  1.00  0.00     0.056 A 
HETATM    2  C   UNL     1       6.982  11.251  89.350  1.00  0.00     0.005 A 
HETATM    3  C   UNL     1       5.231  10.121  90.571  1.00  0.00     0.005 A 
HETATM    4  C   UNL     1       7.391   9.071  90.306  1.00  0.00     0.042 A 
HETATM    5  C   UNL     1       7.839  10.175  89.580  1.00  0.00     0.008 A 
HETATM    6  C   UNL     1       6.087   9.044  90.802  1.00  0.00     0.008 A 
ENDROOT
BRANCH   1   7
HETATM    7  C   UNL     1       4.786  12.348  89.607  1.00  0.00     0.254 C 
HETATM    8  O   UNL     1       4.633  12.759  88.459  1.00  0.00    -0.268 OA
HETATM    9  N   UNL     1       4.144  12.862  90.725  1.00  0.00    -0.337 N 
HETATM   10  HN  UNL     1       4.300  12.454  91.639  1.00  0.00     0.164 HD
BRANCH   9  11
HETATM   11  C   UNL     1       3.212  13.958  90.648  1.00  0.00     0.172 C 
BRANCH  11  12
HETATM   12  C   UNL     1       1.882  13.657  91.351  1.00  0.00     0.136 C 
HETATM   13  C   UNL     1       1.950  12.403  92.216  1.00  0.00     0.034 C 
BRANCH  12  14
HETATM   14  O   UNL     1       1.514  14.766  92.171  1.00  0.00    -0.383 OA
HETATM   15  H   UNL     1       2.295  15.039  92.683  1.00  0.00     0.210 HD
ENDBRANCH  12  14
ENDBRANCH  11  12
BRANCH  11  16
HETATM   16  C   UNL     1       3.889  15.188  91.245  1.00  0.00     0.398 A 
HETATM   17  O   UNL     1       5.011  15.563  90.910  1.00  0.00    -0.136 OA
HETATM   18  N   UNL     1       4.864  15.618  92.422  1.00  0.00     0.142 N 
HETATM   19  HN  UNL     1       5.778  15.969  92.354  1.00  0.00     0.338 HD
BRANCH  18  20
HETATM   20  S   UNL     1       4.134  15.108  93.490  1.00  0.00     0.076 SA
HETATM   21  H   UNL     1       3.807  15.883  94.328  1.00  0.00     0.136 HD
ENDBRANCH  18  20
ENDBRANCH  11  16
ENDBRANCH   9  11
ENDBRANCH   1   7
BRANCH   4  22
HETATM   22  C   UNL     1       8.268   7.967  90.540  1.00  0.00    -0.059 C 
HETATM   23  C   UNL     1       9.006   7.038  90.736  1.00  0.00    -0.059 C 
BRANCH  23  24
HETATM   24  C   UNL     1       9.884   5.933  90.970  1.00  0.00     0.042 A 
HETATM   25  C   UNL     1      10.057   5.444  92.264  1.00  0.00     0.008 A 
HETATM   26  C   UNL     1      10.915   4.368  92.493  1.00  0.00    -0.002 A 
HETATM   27  C   UNL     1      11.597   3.781  91.427  1.00  0.00     0.011 A 
HETATM   28  C   UNL     1      11.423   4.272  90.133  1.00  0.00    -0.002 A 
HETATM   29  C   UNL     1      10.566   5.348  89.905  1.00  0.00     0.008 A 
BRANCH  27  30
HETATM   30  C   UNL     1      12.512   2.630  91.672  1.00  0.00     0.277 C 
BRANCH  30  31
HETATM   31  N   UNL     1      13.502   2.916  92.710  1.00  0.00     0.147 N 
HETATM   32  C   UNL     1      14.277   1.711  93.036  1.00  0.00     0.283 C 
HETATM   33  C   UNL     1      15.310   2.036  94.112  1.00  0.00     0.178 C 
HETATM   34  O   UNL     1      16.177   3.083  93.669  1.00  0.00    -0.350 OA
HETATM   35  C   UNL     1      15.434   4.267  93.379  1.00  0.00     0.178 C 
HETATM   36  C   UNL     1      14.404   3.996  92.287  1.00  0.00     0.283 C 
ENDBRANCH  30  31
ENDBRANCH  27  30
ENDBRANCH  23  24
ENDBRANCH   4  22
TORSDOF 10
ENDMDL
