MODEL 1
REMARK VINA RESULT:      -7.1      0.000      0.000
REMARK  10 active torsions:
REMARK  status: ('A' for Active; 'I' for Inactive)
REMARK    1  A    between atoms: O_2  and  C_16 
REMARK    2  A    between atoms: N_5  and  C_9 
REMARK    3  A    between atoms: N_6  and  C_13 
REMARK       I    between atoms: N_6  and  C_22 
REMARK    4  A    between atoms: C_9  and  C_12 
REMARK    5  A    between atoms: C_13  and  C_16 
REMARK    6  A    between atoms: C_13  and  C_21 
REMARK    7  A    between atoms: C_19  and  C_24 
REMARK    8  A    between atoms: C_22  and  C_23 
REMARK    9  A    between atoms: C_27  and  C_30 
REMARK   10  A    between atoms: N_33  and  S_34 
ROOT
HETATM    1  C   UNL     1       5.924  11.140  89.603  1.00  0.00     0.056 A 
HETATM    2  C   UNL     1       5.402  10.035  90.243  1.00  0.00     0.005 A 
HETATM    3  C   UNL     1       7.249  11.214  89.226  1.00  0.00     0.005 A 
HETATM    4  C   UNL     1       7.585   9.007  90.150  1.00  0.00     0.042 A 
HETATM    5  C   UNL     1       6.241   8.957  90.520  1.00  0.00     0.008 A 
HETATM    6  C   UNL     1       8.089  10.135  89.503  1.00  0.00     0.008 A 
ENDROOT
BRANCH   1   7
HETATM    7  C   UNL     1       5.029  12.288  89.306  1.00  0.00     0.254 C 
HETATM    8  O   UNL     1       4.955  12.708  88.154  1.00  0.00    -0.268 OA
HETATM    9  N   UNL     1       4.309  12.791  90.380  1.00  0.00    -0.337 N 
HETATM   10  HN  UNL     1       4.403  12.376  91.300  1.00  0.00     0.164 HD
BRANCH   9  11
HETATM   11  C   UNL     1       3.382  13.887  90.248  1.00  0.00     0.172 C 
BRANCH  11  12
HETATM   12  C   UNL     1       2.045  13.621  90.951  1.00  0.00     0.136 C 
HETATM   13  C   UNL     1       2.119  12.446  91.921  1.00  0.00     0.034 C 
BRANCH  12  14
HETATM   14  O   UNL     1       1.641  14.788  91.666  1.00  0.00    -0.383 OA
HETATM   15  H   UNL     1       1.802  14.636  92.613  1.00  0.00     0.210 HD
ENDBRANCH  12  14
ENDBRANCH  11  12
BRANCH  11  16
HETATM   16  C   UNL     1       4.058  15.138  90.798  1.00  0.00     0.398 A 
HETATM   17  O   UNL     1       5.205  15.467  90.498  1.00  0.00    -0.136 OA
HETATM   18  N   UNL     1       4.983  15.625  91.994  1.00  0.00     0.142 N 
HETATM   19  HN  UNL     1       5.908  15.951  91.950  1.00  0.00     0.338 HD
BRANCH  18  20
HETATM   20  S   UNL     1       4.189  15.202  93.053  1.00  0.00     0.076 SA
HETATM   21  H   UNL     1       4.752  14.706  93.975  1.00  0.00     0.136 HD
ENDBRANCH  18  20
ENDBRANCH  11  16
ENDBRANCH   9  11
ENDBRANCH   1   7
BRANCH   4  22
HETATM   22  C   UNL     1       8.447   7.903  90.436  1.00  0.00    -0.059 C 
HETATM   23  C   UNL     1       9.171   6.974  90.677  1.00  0.00    -0.059 C 
BRANCH  23  24
HETATM   24  C   UNL     1      10.034   5.870  90.964  1.00  0.00     0.042 A 
HETATM   25  C   UNL     1      10.802   5.303  89.947  1.00  0.00     0.008 A 
HETATM   26  C   UNL     1      11.642   4.225  90.226  1.00  0.00    -0.002 A 
HETATM   27  C   UNL     1      11.714   3.715  91.523  1.00  0.00     0.011 A 
HETATM   28  C   UNL     1      10.946   4.283  92.539  1.00  0.00    -0.002 A 
HETATM   29  C   UNL     1      10.106   5.361  92.259  1.00  0.00     0.008 A 
BRANCH  27  30
HETATM   30  C   UNL     1      12.614   2.564  91.821  1.00  0.00     0.277 C 
BRANCH  30  31
HETATM   31  N   UNL     1      13.618   2.889  92.832  1.00  0.00     0.147 N 
HETATM   32  C   UNL     1      14.506   1.743  93.070  1.00  0.00     0.283 C 
HETATM   33  C   UNL     1      15.553   2.109  94.120  1.00  0.00     0.178 C 
HETATM   34  O   UNL     1      16.307   3.246  93.694  1.00  0.00    -0.350 OA
HETATM   35  C   UNL     1      15.455   4.373  93.490  1.00  0.00     0.178 C 
HETATM   36  C   UNL     1      14.407   4.061  92.427  1.00  0.00     0.283 C 
ENDBRANCH  30  31
ENDBRANCH  27  30
ENDBRANCH  23  24
ENDBRANCH   4  22
TORSDOF 10
ENDMDL
MODEL 2
REMARK VINA RESULT:      -6.8      1.495      2.313
REMARK  10 active torsions:
REMARK  status: ('A' for Active; 'I' for Inactive)
REMARK    1  A    between atoms: O_2  and  C_16 
REMARK    2  A    between atoms: N_5  and  C_9 
REMARK    3  A    between atoms: N_6  and  C_13 
REMARK       I    between atoms: N_6  and  C_22 
REMARK    4  A    between atoms: C_9  and  C_12 
REMARK    5  A    between atoms: C_13  and  C_16 
REMARK    6  A    between atoms: C_13  and  C_21 
REMARK    7  A    between atoms: C_19  and  C_24 
REMARK    8  A    between atoms: C_22  and  C_23 
REMARK    9  A    between atoms: C_27  and  C_30 
REMARK   10  A    between atoms: N_33  and  S_34 
ROOT
HETATM    1  C   UNL     1       5.376  10.457  91.063  1.00  0.00     0.056 A 
HETATM    2  C   UNL     1       6.677  10.752  90.713  1.00  0.00     0.005 A 
HETATM    3  C   UNL     1       5.004   9.214  91.528  1.00  0.00     0.005 A 
HETATM    4  C   UNL     1       7.298   8.494  91.301  1.00  0.00     0.042 A 
HETATM    5  C   UNL     1       7.650   9.760  90.833  1.00  0.00     0.008 A 
HETATM    6  C   UNL     1       5.976   8.220  91.649  1.00  0.00     0.008 A 
ENDROOT
BRANCH   1   7
HETATM    7  C   UNL     1       4.341  11.515  90.936  1.00  0.00     0.254 C 
HETATM    8  O   UNL     1       3.264  11.241  90.412  1.00  0.00    -0.268 OA
HETATM    9  N   UNL     1       4.675  12.758  91.458  1.00  0.00    -0.337 N 
HETATM   10  HN  UNL     1       5.575  12.903  91.900  1.00  0.00     0.164 HD
BRANCH   9  11
HETATM   11  C   UNL     1       3.769  13.878  91.433  1.00  0.00     0.172 C 
BRANCH  11  12
HETATM   12  C   UNL     1       3.717  14.570  90.066  1.00  0.00     0.136 C 
HETATM   13  C   UNL     1       5.097  14.713  89.432  1.00  0.00     0.034 C 
BRANCH  12  14
HETATM   14  O   UNL     1       2.878  13.825  89.184  1.00  0.00    -0.383 OA
HETATM   15  H   UNL     1       2.735  14.352  88.381  1.00  0.00     0.210 HD
ENDBRANCH  12  14
ENDBRANCH  11  12
BRANCH  11  16
HETATM   16  C   UNL     1       2.392  13.372  91.851  1.00  0.00     0.398 A 
HETATM   17  O   UNL     1       1.365  14.035  91.714  1.00  0.00    -0.136 OA
HETATM   18  N   UNL     1       1.390  13.376  93.083  1.00  0.00     0.142 N 
HETATM   19  HN  UNL     1       0.516  13.817  93.152  1.00  0.00     0.338 HD
BRANCH  18  20
HETATM   20  S   UNL     1       2.235  12.819  94.037  1.00  0.00     0.076 SA
HETATM   21  H   UNL     1       1.773  11.967  94.724  1.00  0.00     0.136 HD
ENDBRANCH  18  20
ENDBRANCH  11  16
ENDBRANCH   9  11
ENDBRANCH   1   7
BRANCH   4  22
HETATM   22  C   UNL     1       8.295   7.475  91.422  1.00  0.00    -0.059 C 
HETATM   23  C   UNL     1       9.132   6.618  91.523  1.00  0.00    -0.059 C 
BRANCH  23  24
HETATM   24  C   UNL     1      10.129   5.599  91.643  1.00  0.00     0.042 A 
HETATM   25  C   UNL     1      10.418   5.052  92.893  1.00  0.00     0.008 A 
HETATM   26  C   UNL     1      11.391   4.059  93.010  1.00  0.00    -0.002 A 
HETATM   27  C   UNL     1      12.072   3.613  91.877  1.00  0.00     0.011 A 
HETATM   28  C   UNL     1      11.781   4.162  90.628  1.00  0.00    -0.002 A 
HETATM   29  C   UNL     1      10.809   5.155  90.511  1.00  0.00     0.008 A 
BRANCH  27  30
HETATM   30  C   UNL     1      13.111   2.551  92.003  1.00  0.00     0.277 C 
BRANCH  30  31
HETATM   31  N   UNL     1      14.131   2.885  92.995  1.00  0.00     0.147 N 
HETATM   32  C   UNL     1      15.133   1.814  93.092  1.00  0.00     0.283 C 
HETATM   33  C   UNL     1      16.193   2.189  94.124  1.00  0.00     0.178 C 
HETATM   34  O   UNL     1      16.817   3.425  93.769  1.00  0.00    -0.350 OA
HETATM   35  C   UNL     1      15.854   4.478  93.703  1.00  0.00     0.178 C 
HETATM   36  C   UNL     1      14.786   4.158  92.663  1.00  0.00     0.283 C 
ENDBRANCH  30  31
ENDBRANCH  27  30
ENDBRANCH  23  24
ENDBRANCH   4  22
TORSDOF 10
ENDMDL
MODEL 3
REMARK VINA RESULT:      -6.6      1.593      2.079
REMARK  10 active torsions:
REMARK  status: ('A' for Active; 'I' for Inactive)
REMARK    1  A    between atoms: O_2  and  C_16 
REMARK    2  A    between atoms: N_5  and  C_9 
REMARK    3  A    between atoms: N_6  and  C_13 
REMARK       I    between atoms: N_6  and  C_22 
REMARK    4  A    between atoms: C_9  and  C_12 
REMARK    5  A    between atoms: C_13  and  C_16 
REMARK    6  A    between atoms: C_13  and  C_21 
REMARK    7  A    between atoms: C_19  and  C_24 
REMARK    8  A    between atoms: C_22  and  C_23 
REMARK    9  A    between atoms: C_27  and  C_30 
REMARK   10  A    between atoms: N_33  and  S_34 
ROOT
HETATM    1  C   UNL     1       5.077   9.503  90.554  1.00  0.00     0.056 A 
HETATM    2  C   UNL     1       6.170   9.909  91.290  1.00  0.00     0.005 A 
HETATM    3  C   UNL     1       4.979   8.236  90.020  1.00  0.00     0.005 A 
HETATM    4  C   UNL     1       7.139   7.720  90.970  1.00  0.00     0.042 A 
HETATM    5  C   UNL     1       7.214   9.008  91.501  1.00  0.00     0.008 A 
HETATM    6  C   UNL     1       6.022   7.333  90.230  1.00  0.00     0.008 A 
ENDROOT
BRANCH   1   7
HETATM    7  C   UNL     1       3.965  10.463  90.332  1.00  0.00     0.254 C 
HETATM    8  O   UNL     1       2.849  10.033  90.049  1.00  0.00    -0.268 OA
HETATM    9  N   UNL     1       4.280  11.806  90.489  1.00  0.00    -0.337 N 
HETATM   10  HN  UNL     1       5.218  12.085  90.749  1.00  0.00     0.164 HD
BRANCH   9  11
HETATM   11  C   UNL     1       3.305  12.855  90.331  1.00  0.00     0.172 C 
BRANCH  11  12
HETATM   12  C   UNL     1       2.957  13.547  91.656  1.00  0.00     0.136 C 
HETATM   13  C   UNL     1       1.605  13.107  92.207  1.00  0.00     0.034 C 
BRANCH  12  14
HETATM   14  O   UNL     1       3.967  13.260  92.623  1.00  0.00    -0.383 OA
HETATM   15  H   UNL     1       4.681  12.769  92.182  1.00  0.00     0.210 HD
ENDBRANCH  12  14
ENDBRANCH  11  12
BRANCH  11  16
HETATM   16  C   UNL     1       3.851  13.850  89.313  1.00  0.00     0.398 A 
HETATM   17  O   UNL     1       4.650  13.535  88.432  1.00  0.00    -0.136 OA
HETATM   18  N   UNL     1       5.067  14.846  89.081  1.00  0.00     0.142 N 
HETATM   19  HN  UNL     1       5.782  14.782  88.412  1.00  0.00     0.338 HD
BRANCH  18  20
HETATM   20  S   UNL     1       4.925  15.614  90.231  1.00  0.00     0.076 SA
HETATM   21  H   UNL     1       3.842  15.645  90.718  1.00  0.00     0.136 HD
ENDBRANCH  18  20
ENDBRANCH  11  16
ENDBRANCH   9  11
ENDBRANCH   1   7
BRANCH   4  22
HETATM   22  C   UNL     1       8.210   6.797  91.184  1.00  0.00    -0.059 C 
HETATM   23  C   UNL     1       9.111   6.021  91.363  1.00  0.00    -0.059 C 
BRANCH  23  24
HETATM   24  C   UNL     1      10.183   5.098  91.577  1.00  0.00     0.042 A 
HETATM   25  C   UNL     1      10.517   4.708  92.873  1.00  0.00     0.008 A 
HETATM   26  C   UNL     1      11.563   3.810  93.082  1.00  0.00    -0.002 A 
HETATM   27  C   UNL     1      12.273   3.301  91.994  1.00  0.00     0.011 A 
HETATM   28  C   UNL     1      11.937   3.692  90.698  1.00  0.00    -0.002 A 
HETATM   29  C   UNL     1      10.891   4.591  90.490  1.00  0.00     0.008 A 
BRANCH  27  30
HETATM   30  C   UNL     1      13.390   2.339  92.219  1.00  0.00     0.277 C 
BRANCH  30  31
HETATM   31  N   UNL     1      14.388   2.853  93.155  1.00  0.00     0.147 N 
HETATM   32  C   UNL     1      15.591   2.009  93.149  1.00  0.00     0.283 C 
HETATM   33  C   UNL     1      16.622   2.571  94.124  1.00  0.00     0.178 C 
HETATM   34  O   UNL     1      16.955   3.916  93.775  1.00  0.00    -0.350 OA
HETATM   35  C   UNL     1      15.796   4.750  93.809  1.00  0.00     0.178 C 
HETATM   36  C   UNL     1      14.745   4.240  92.828  1.00  0.00     0.283 C 
ENDBRANCH  30  31
ENDBRANCH  27  30
ENDBRANCH  23  24
ENDBRANCH   4  22
TORSDOF 10
ENDMDL
MODEL 4
REMARK VINA RESULT:      -6.2      1.165      1.549
REMARK  10 active torsions:
REMARK  status: ('A' for Active; 'I' for Inactive)
REMARK    1  A    between atoms: O_2  and  C_16 
REMARK    2  A    between atoms: N_5  and  C_9 
REMARK    3  A    between atoms: N_6  and  C_13 
REMARK       I    between atoms: N_6  and  C_22 
REMARK    4  A    between atoms: C_9  and  C_12 
REMARK    5  A    between atoms: C_13  and  C_16 
REMARK    6  A    between atoms: C_13  and  C_21 
REMARK    7  A    between atoms: C_19  and  C_24 
REMARK    8  A    between atoms: C_22  and  C_23 
REMARK    9  A    between atoms: C_27  and  C_30 
REMARK   10  A    between atoms: N_33  and  S_34 
ROOT
HETATM    1  C   UNL     1       5.595  10.481  90.557  1.00  0.00     0.056 A 
HETATM    2  C   UNL     1       6.820  10.616  89.938  1.00  0.00     0.005 A 
HETATM    3  C   UNL     1       5.282   9.388  91.339  1.00  0.00     0.005 A 
HETATM    4  C   UNL     1       7.482   8.498  90.891  1.00  0.00     0.042 A 
HETATM    5  C   UNL     1       7.775   9.613  90.106  1.00  0.00     0.008 A 
HETATM    6  C   UNL     1       6.236   8.385  91.508  1.00  0.00     0.008 A 
ENDROOT
BRANCH   1   7
HETATM    7  C   UNL     1       4.579  11.550  90.380  1.00  0.00     0.254 C 
HETATM    8  O   UNL     1       4.412  12.040  89.266  1.00  0.00    -0.268 OA
HETATM    9  N   UNL     1       3.862  11.902  91.515  1.00  0.00    -0.337 N 
HETATM   10  HN  UNL     1       4.037  11.436  92.397  1.00  0.00     0.164 HD
BRANCH   9  11
HETATM   11  C   UNL     1       2.827  12.904  91.499  1.00  0.00     0.172 C 
BRANCH  11  12
HETATM   12  C   UNL     1       1.644  12.551  92.409  1.00  0.00     0.136 C 
HETATM   13  C   UNL     1       1.606  11.069  92.769  1.00  0.00     0.034 C 
BRANCH  12  14
HETATM   14  O   UNL     1       1.720  13.317  93.610  1.00  0.00    -0.383 OA
HETATM   15  H   UNL     1       2.635  13.284  93.936  1.00  0.00     0.210 HD
ENDBRANCH  12  14
ENDBRANCH  11  12
BRANCH  11  16
HETATM   16  C   UNL     1       3.458  14.233  91.901  1.00  0.00     0.398 A 
HETATM   17  O   UNL     1       2.797  15.216  92.231  1.00  0.00    -0.136 OA
HETATM   18  N   UNL     1       3.916  15.625  91.288  1.00  0.00     0.142 N 
HETATM   19  HN  UNL     1       3.537  16.514  91.454  1.00  0.00     0.338 HD
BRANCH  18  20
HETATM   20  S   UNL     1       4.782  15.144  90.312  1.00  0.00     0.076 SA
HETATM   21  H   UNL     1       4.900  13.964  90.242  1.00  0.00     0.136 HD
ENDBRANCH  18  20
ENDBRANCH  11  16
ENDBRANCH   9  11
ENDBRANCH   1   7
BRANCH   4  22
HETATM   22  C   UNL     1       8.460   7.468  91.061  1.00  0.00    -0.059 C 
HETATM   23  C   UNL     1       9.283   6.603  91.204  1.00  0.00    -0.059 C 
BRANCH  23  24
HETATM   24  C   UNL     1      10.261   5.574  91.375  1.00  0.00     0.042 A 
HETATM   25  C   UNL     1      10.952   5.080  90.269  1.00  0.00     0.008 A 
HETATM   26  C   UNL     1      11.905   4.074  90.436  1.00  0.00    -0.002 A 
HETATM   27  C   UNL     1      12.167   3.565  91.708  1.00  0.00     0.011 A 
HETATM   28  C   UNL     1      11.475   4.061  92.813  1.00  0.00    -0.002 A 
HETATM   29  C   UNL     1      10.522   5.066  92.646  1.00  0.00     0.008 A 
BRANCH  27  30
HETATM   30  C   UNL     1      13.186   2.492  91.885  1.00  0.00     0.277 C 
BRANCH  30  31
HETATM   31  N   UNL     1      14.163   2.817  92.924  1.00  0.00     0.147 N 
HETATM   32  C   UNL     1      15.170   1.754  93.042  1.00  0.00     0.283 C 
HETATM   33  C   UNL     1      16.183   2.120  94.123  1.00  0.00     0.178 C 
HETATM   34  O   UNL     1      16.808   3.368  93.817  1.00  0.00    -0.350 OA
HETATM   35  C   UNL     1      15.839   4.413  93.731  1.00  0.00     0.178 C 
HETATM   36  C   UNL     1      14.817   4.102  92.642  1.00  0.00     0.283 C 
ENDBRANCH  30  31
ENDBRANCH  27  30
ENDBRANCH  23  24
ENDBRANCH   4  22
TORSDOF 10
ENDMDL
MODEL 5
REMARK VINA RESULT:      -5.8      2.032      2.711
REMARK  10 active torsions:
REMARK  status: ('A' for Active; 'I' for Inactive)
REMARK    1  A    between atoms: O_2  and  C_16 
REMARK    2  A    between atoms: N_5  and  C_9 
REMARK    3  A    between atoms: N_6  and  C_13 
REMARK       I    between atoms: N_6  and  C_22 
REMARK    4  A    between atoms: C_9  and  C_12 
REMARK    5  A    between atoms: C_13  and  C_16 
REMARK    6  A    between atoms: C_13  and  C_21 
REMARK    7  A    between atoms: C_19  and  C_24 
REMARK    8  A    between atoms: C_22  and  C_23 
REMARK    9  A    between atoms: C_27  and  C_30 
REMARK   10  A    between atoms: N_33  and  S_34 
ROOT
HETATM    1  C   UNL     1       5.180  10.184  92.733  1.00  0.00     0.056 A 
HETATM    2  C   UNL     1       6.007   9.977  93.817  1.00  0.00     0.005 A 
HETATM    3  C   UNL     1       5.271   9.430  91.582  1.00  0.00     0.005 A 
HETATM    4  C   UNL     1       7.083   8.194  92.593  1.00  0.00     0.042 A 
HETATM    5  C   UNL     1       6.970   8.970  93.746  1.00  0.00     0.008 A 
HETATM    6  C   UNL     1       6.234   8.423  91.511  1.00  0.00     0.008 A 
ENDROOT
BRANCH   1   7
HETATM    7  C   UNL     1       4.152  11.255  92.809  1.00  0.00     0.254 C 
HETATM    8  O   UNL     1       3.340  11.243  93.731  1.00  0.00    -0.268 OA
HETATM    9  N   UNL     1       4.210  12.225  91.817  1.00  0.00    -0.337 N 
HETATM   10  HN  UNL     1       4.926  12.184  91.101  1.00  0.00     0.164 HD
BRANCH   9  11
HETATM   11  C   UNL     1       3.299  13.340  91.769  1.00  0.00     0.172 C 
BRANCH  11  12
HETATM   12  C   UNL     1       3.750  14.514  92.646  1.00  0.00     0.136 C 
HETATM   13  C   UNL     1       2.578  15.251  93.284  1.00  0.00     0.034 C 
BRANCH  12  14
HETATM   14  O   UNL     1       4.613  14.035  93.678  1.00  0.00    -0.383 OA
HETATM   15  H   UNL     1       4.765  14.759  94.309  1.00  0.00     0.210 HD
ENDBRANCH  12  14
ENDBRANCH  11  12
BRANCH  11  16
HETATM   16  C   UNL     1       3.155  13.761  90.310  1.00  0.00     0.398 A 
HETATM   17  O   UNL     1       3.076  12.954  89.385  1.00  0.00    -0.136 OA
HETATM   18  N   UNL     1       4.024  14.085  89.021  1.00  0.00     0.142 N 
HETATM   19  HN  UNL     1       4.071  13.582  88.180  1.00  0.00     0.338 HD
BRANCH  18  20
HETATM   20  S   UNL     1       4.829  15.082  89.561  1.00  0.00     0.076 SA
HETATM   21  H   UNL     1       6.003  14.933  89.454  1.00  0.00     0.136 HD
ENDBRANCH  18  20
ENDBRANCH  11  16
ENDBRANCH   9  11
ENDBRANCH   1   7
BRANCH   4  22
HETATM   22  C   UNL     1       8.072   7.164  92.520  1.00  0.00    -0.059 C 
HETATM   23  C   UNL     1       8.904   6.298  92.457  1.00  0.00    -0.059 C 
BRANCH  23  24
HETATM   24  C   UNL     1       9.894   5.268  92.383  1.00  0.00     0.042 A 
HETATM   25  C   UNL     1       9.994   4.480  91.237  1.00  0.00     0.008 A 
HETATM   26  C   UNL     1      10.958   3.474  91.165  1.00  0.00    -0.002 A 
HETATM   27  C   UNL     1      11.822   3.258  92.239  1.00  0.00     0.011 A 
HETATM   28  C   UNL     1      11.721   4.048  93.385  1.00  0.00    -0.002 A 
HETATM   29  C   UNL     1      10.756   5.053  93.456  1.00  0.00     0.008 A 
BRANCH  27  30
HETATM   30  C   UNL     1      12.853   2.185  92.160  1.00  0.00     0.277 C 
BRANCH  30  31
HETATM   31  N   UNL     1      14.193   2.674  92.482  1.00  0.00     0.147 N 
HETATM   32  C   UNL     1      14.234   4.142  92.439  1.00  0.00     0.283 C 
HETATM   33  C   UNL     1      15.638   4.630  92.789  1.00  0.00     0.178 C 
HETATM   34  O   UNL     1      16.021   4.158  94.082  1.00  0.00    -0.350 OA
HETATM   35  C   UNL     1      16.013   2.731  94.123  1.00  0.00     0.178 C 
HETATM   36  C   UNL     1      14.620   2.197  93.805  1.00  0.00     0.283 C 
ENDBRANCH  30  31
ENDBRANCH  27  30
ENDBRANCH  23  24
ENDBRANCH   4  22
TORSDOF 10
ENDMDL
MODEL 6
REMARK VINA RESULT:      -5.6      3.641     12.408
REMARK  10 active torsions:
REMARK  status: ('A' for Active; 'I' for Inactive)
REMARK    1  A    between atoms: O_2  and  C_16 
REMARK    2  A    between atoms: N_5  and  C_9 
REMARK    3  A    between atoms: N_6  and  C_13 
REMARK       I    between atoms: N_6  and  C_22 
REMARK    4  A    between atoms: C_9  and  C_12 
REMARK    5  A    between atoms: C_13  and  C_16 
REMARK    6  A    between atoms: C_13  and  C_21 
REMARK    7  A    between atoms: C_19  and  C_24 
REMARK    8  A    between atoms: C_22  and  C_23 
REMARK    9  A    between atoms: C_27  and  C_30 
REMARK   10  A    between atoms: N_33  and  S_34 
ROOT
HETATM    1  C   UNL     1      10.213   5.663  89.949  1.00  0.00     0.056 A 
HETATM    2  C   UNL     1      10.145   6.519  88.870  1.00  0.00     0.005 A 
HETATM    3  C   UNL     1       9.373   5.782  91.037  1.00  0.00     0.005 A 
HETATM    4  C   UNL     1       8.336   7.683  89.967  1.00  0.00     0.042 A 
HETATM    5  C   UNL     1       9.197   7.541  88.878  1.00  0.00     0.008 A 
HETATM    6  C   UNL     1       8.424   6.804  91.046  1.00  0.00     0.008 A 
ENDROOT
BRANCH   1   7
HETATM    7  C   UNL     1      11.222   4.572  89.938  1.00  0.00     0.254 C 
HETATM    8  O   UNL     1      11.418   3.946  88.899  1.00  0.00    -0.268 OA
HETATM    9  N   UNL     1      11.899   4.359  91.131  1.00  0.00    -0.337 N 
HETATM   10  HN  UNL     1      11.702   4.932  91.942  1.00  0.00     0.164 HD
BRANCH   9  11
HETATM   11  C   UNL     1      12.923   3.355  91.272  1.00  0.00     0.172 C 
BRANCH  11  12
HETATM   12  C   UNL     1      14.339   3.925  91.118  1.00  0.00     0.136 C 
HETATM   13  C   UNL     1      15.274   2.975  90.380  1.00  0.00     0.034 C 
BRANCH  12  14
HETATM   14  O   UNL     1      14.280   5.163  90.409  1.00  0.00    -0.383 OA
HETATM   15  H   UNL     1      13.786   5.018  89.585  1.00  0.00     0.210 HD
ENDBRANCH  12  14
ENDBRANCH  11  12
BRANCH  11  16
HETATM   16  C   UNL     1      12.738   2.689  92.632  1.00  0.00     0.398 A 
HETATM   17  O   UNL     1      11.956   3.109  93.482  1.00  0.00    -0.136 OA
HETATM   18  N   UNL     1      13.284   2.740  94.123  1.00  0.00     0.142 N 
HETATM   19  HN  UNL     1      12.805   3.015  94.934  1.00  0.00     0.338 HD
BRANCH  18  20
HETATM   20  S   UNL     1      14.634   2.545  93.854  1.00  0.00     0.076 SA
HETATM   21  H   UNL     1      14.902   1.683  93.080  1.00  0.00     0.136 HD
ENDBRANCH  18  20
ENDBRANCH  11  16
ENDBRANCH   9  11
ENDBRANCH   1   7
BRANCH   4  22
HETATM   22  C   UNL     1       7.366   8.733  89.978  1.00  0.00    -0.059 C 
HETATM   23  C   UNL     1       6.550   9.616  89.986  1.00  0.00    -0.059 C 
BRANCH  23  24
HETATM   24  C   UNL     1       5.578  10.667  89.995  1.00  0.00     0.042 A 
HETATM   25  C   UNL     1       4.347  10.470  90.620  1.00  0.00     0.008 A 
HETATM   26  C   UNL     1       3.399  11.493  90.628  1.00  0.00    -0.002 A 
HETATM   27  C   UNL     1       3.684  12.713  90.013  1.00  0.00     0.011 A 
HETATM   28  C   UNL     1       4.916  12.908  89.389  1.00  0.00    -0.002 A 
HETATM   29  C   UNL     1       5.864  11.884  89.381  1.00  0.00     0.008 A 
BRANCH  27  30
HETATM   30  C   UNL     1       2.671  13.806  90.024  1.00  0.00     0.277 C 
BRANCH  30  31
HETATM   31  N   UNL     1       2.697  14.578  91.265  1.00  0.00     0.147 N 
HETATM   32  C   UNL     1       1.854  13.946  92.289  1.00  0.00     0.283 C 
HETATM   33  C   UNL     1       1.906  14.763  93.578  1.00  0.00     0.178 C 
HETATM   34  O   UNL     1       3.253  14.875  94.040  1.00  0.00    -0.350 OA
HETATM   35  C   UNL     1       4.073  15.516  93.063  1.00  0.00     0.178 C 
HETATM   36  C   UNL     1       4.073  14.719  91.763  1.00  0.00     0.283 C 
ENDBRANCH  30  31
ENDBRANCH  27  30
ENDBRANCH  23  24
ENDBRANCH   4  22
TORSDOF 10
ENDMDL
MODEL 7
REMARK VINA RESULT:      -5.4      3.578     12.506
REMARK  10 active torsions:
REMARK  status: ('A' for Active; 'I' for Inactive)
REMARK    1  A    between atoms: O_2  and  C_16 
REMARK    2  A    between atoms: N_5  and  C_9 
REMARK    3  A    between atoms: N_6  and  C_13 
REMARK       I    between atoms: N_6  and  C_22 
REMARK    4  A    between atoms: C_9  and  C_12 
REMARK    5  A    between atoms: C_13  and  C_16 
REMARK    6  A    between atoms: C_13  and  C_21 
REMARK    7  A    between atoms: C_19  and  C_24 
REMARK    8  A    between atoms: C_22  and  C_23 
REMARK    9  A    between atoms: C_27  and  C_30 
REMARK   10  A    between atoms: N_33  and  S_34 
ROOT
HETATM    1  C   UNL     1      10.170   5.368  90.535  1.00  0.00     0.056 A 
HETATM    2  C   UNL     1       9.645   5.903  91.693  1.00  0.00     0.005 A 
HETATM    3  C   UNL     1       9.832   5.844  89.286  1.00  0.00     0.005 A 
HETATM    4  C   UNL     1       8.382   7.459  90.346  1.00  0.00     0.042 A 
HETATM    5  C   UNL     1       8.740   6.960  91.598  1.00  0.00     0.008 A 
HETATM    6  C   UNL     1       8.927   6.902  89.189  1.00  0.00     0.008 A 
ENDROOT
BRANCH   1   7
HETATM    7  C   UNL     1      11.135   4.243  90.637  1.00  0.00     0.254 C 
HETATM    8  O   UNL     1      11.047   3.304  89.849  1.00  0.00    -0.268 OA
HETATM    9  N   UNL     1      12.102   4.359  91.626  1.00  0.00    -0.337 N 
HETATM   10  HN  UNL     1      12.128   5.177  92.224  1.00  0.00     0.164 HD
BRANCH   9  11
HETATM   11  C   UNL     1      13.122   3.363  91.834  1.00  0.00     0.172 C 
BRANCH  11  12
HETATM   12  C   UNL     1      14.192   3.371  90.736  1.00  0.00     0.136 C 
HETATM   13  C   UNL     1      14.665   4.780  90.393  1.00  0.00     0.034 C 
BRANCH  12  14
HETATM   14  O   UNL     1      15.314   2.596  91.157  1.00  0.00    -0.383 OA
HETATM   15  H   UNL     1      15.827   3.122  91.793  1.00  0.00     0.210 HD
ENDBRANCH  12  14
ENDBRANCH  11  12
BRANCH  11  16
HETATM   16  C   UNL     1      13.736   3.605  93.209  1.00  0.00     0.398 A 
HETATM   17  O   UNL     1      14.610   4.445  93.414  1.00  0.00    -0.136 OA
HETATM   18  N   UNL     1      14.950   3.145  94.124  1.00  0.00     0.142 N 
HETATM   19  HN  UNL     1      15.720   3.676  94.420  1.00  0.00     0.338 HD
BRANCH  18  20
HETATM   20  S   UNL     1      14.701   1.777  94.124  1.00  0.00     0.076 SA
HETATM   21  H   UNL     1      14.029   1.360  95.010  1.00  0.00     0.136 HD
ENDBRANCH  18  20
ENDBRANCH  11  16
ENDBRANCH   9  11
ENDBRANCH   1   7
BRANCH   4  22
HETATM   22  C   UNL     1       7.452   8.541  90.248  1.00  0.00    -0.059 C 
HETATM   23  C   UNL     1       6.670   9.450  90.166  1.00  0.00    -0.059 C 
BRANCH  23  24
HETATM   24  C   UNL     1       5.739  10.533  90.069  1.00  0.00     0.042 A 
HETATM   25  C   UNL     1       4.496  10.439  90.693  1.00  0.00     0.008 A 
HETATM   26  C   UNL     1       3.587  11.493  90.596  1.00  0.00    -0.002 A 
HETATM   27  C   UNL     1       3.924  12.641  89.878  1.00  0.00     0.011 A 
HETATM   28  C   UNL     1       5.169  12.733  89.255  1.00  0.00    -0.002 A 
HETATM   29  C   UNL     1       6.077  11.678  89.351  1.00  0.00     0.008 A 
BRANCH  27  30
HETATM   30  C   UNL     1       2.954  13.768  89.777  1.00  0.00     0.277 C 
BRANCH  30  31
HETATM   31  N   UNL     1       2.887  14.557  91.006  1.00  0.00     0.147 N 
HETATM   32  C   UNL     1       1.986  13.927  91.981  1.00  0.00     0.283 C 
HETATM   33  C   UNL     1       1.941  14.762  93.259  1.00  0.00     0.178 C 
HETATM   34  O   UNL     1       3.253  14.899  93.808  1.00  0.00    -0.350 OA
HETATM   35  C   UNL     1       4.127  15.539  92.878  1.00  0.00     0.178 C 
HETATM   36  C   UNL     1       4.224  14.725  91.592  1.00  0.00     0.283 C 
ENDBRANCH  30  31
ENDBRANCH  27  30
ENDBRANCH  23  24
ENDBRANCH   4  22
TORSDOF 10
ENDMDL
MODEL 8
REMARK VINA RESULT:      -5.1      3.715     12.604
REMARK  10 active torsions:
REMARK  status: ('A' for Active; 'I' for Inactive)
REMARK    1  A    between atoms: O_2  and  C_16 
REMARK    2  A    between atoms: N_5  and  C_9 
REMARK    3  A    between atoms: N_6  and  C_13 
REMARK       I    between atoms: N_6  and  C_22 
REMARK    4  A    between atoms: C_9  and  C_12 
REMARK    5  A    between atoms: C_13  and  C_16 
REMARK    6  A    between atoms: C_13  and  C_21 
REMARK    7  A    between atoms: C_19  and  C_24 
REMARK    8  A    between atoms: C_22  and  C_23 
REMARK    9  A    between atoms: C_27  and  C_30 
REMARK   10  A    between atoms: N_33  and  S_34 
ROOT
HETATM    1  C   UNL     1      10.456   4.786  92.683  1.00  0.00     0.056 A 
HETATM    2  C   UNL     1      10.293   5.463  91.493  1.00  0.00     0.005 A 
HETATM    3  C   UNL     1       9.664   5.033  93.785  1.00  0.00     0.005 A 
HETATM    4  C   UNL     1       8.480   6.701  92.501  1.00  0.00     0.042 A 
HETATM    5  C   UNL     1       9.294   6.432  91.400  1.00  0.00     0.008 A 
HETATM    6  C   UNL     1       8.665   6.001  93.693  1.00  0.00     0.008 A 
ENDROOT
BRANCH   1   7
HETATM    7  C   UNL     1      11.519   3.752  92.781  1.00  0.00     0.254 C 
HETATM    8  O   UNL     1      11.221   2.570  92.632  1.00  0.00    -0.268 OA
HETATM    9  N   UNL     1      12.804   4.222  93.016  1.00  0.00    -0.337 N 
HETATM   10  HN  UNL     1      12.978   5.216  93.103  1.00  0.00     0.164 HD
BRANCH   9  11
HETATM   11  C   UNL     1      13.944   3.346  93.112  1.00  0.00     0.172 C 
BRANCH  11  12
HETATM   12  C   UNL     1      14.376   2.783  91.752  1.00  0.00     0.136 C 
HETATM   13  C   UNL     1      14.165   3.776  90.615  1.00  0.00     0.034 C 
BRANCH  12  14
HETATM   14  O   UNL     1      15.756   2.422  91.802  1.00  0.00    -0.383 OA
HETATM   15  H   UNL     1      15.825   1.462  91.666  1.00  0.00     0.210 HD
ENDBRANCH  12  14
ENDBRANCH  11  12
BRANCH  11  16
HETATM   16  C   UNL     1      15.075   4.126  93.774  1.00  0.00     0.398 A 
HETATM   17  O   UNL     1      15.558   5.148  93.289  1.00  0.00    -0.136 OA
HETATM   18  N   UNL     1      16.660   4.233  93.797  1.00  0.00     0.142 N 
HETATM   19  HN  UNL     1      17.222   4.976  93.487  1.00  0.00     0.338 HD
BRANCH  18  20
HETATM   20  S   UNL     1      16.950   2.913  94.124  1.00  0.00     0.076 SA
HETATM   21  H   UNL     1      17.321   2.216  93.236  1.00  0.00     0.136 HD
ENDBRANCH  18  20
ENDBRANCH  11  16
ENDBRANCH   9  11
ENDBRANCH   1   7
BRANCH   4  22
HETATM   22  C   UNL     1       7.458   7.696  92.407  1.00  0.00    -0.059 C 
HETATM   23  C   UNL     1       6.598   8.533  92.328  1.00  0.00    -0.059 C 
BRANCH  23  24
HETATM   24  C   UNL     1       5.576   9.530  92.233  1.00  0.00     0.042 A 
HETATM   25  C   UNL     1       5.579  10.616  93.108  1.00  0.00     0.008 A 
HETATM   26  C   UNL     1       4.582  11.586  93.017  1.00  0.00    -0.002 A 
HETATM   27  C   UNL     1       3.582  11.471  92.050  1.00  0.00     0.011 A 
HETATM   28  C   UNL     1       3.581  10.384  91.176  1.00  0.00    -0.002 A 
HETATM   29  C   UNL     1       4.579   9.414  91.268  1.00  0.00     0.008 A 
BRANCH  27  30
HETATM   30  C   UNL     1       2.518  12.510  91.953  1.00  0.00     0.277 C 
BRANCH  30  31
HETATM   31  N   UNL     1       3.017  13.769  91.403  1.00  0.00     0.147 N 
HETATM   32  C   UNL     1       4.090  14.315  92.246  1.00  0.00     0.283 C 
HETATM   33  C   UNL     1       4.603  15.622  91.647  1.00  0.00     0.178 C 
HETATM   34  O   UNL     1       5.074  15.408  90.315  1.00  0.00    -0.350 OA
HETATM   35  C   UNL     1       4.028  14.907  89.482  1.00  0.00     0.178 C 
HETATM   36  C   UNL     1       3.501  13.584  90.028  1.00  0.00     0.283 C 
ENDBRANCH  30  31
ENDBRANCH  27  30
ENDBRANCH  23  24
ENDBRANCH   4  22
TORSDOF 10
ENDMDL
MODEL 9
REMARK VINA RESULT:      -4.5      3.804     12.421
REMARK  10 active torsions:
REMARK  status: ('A' for Active; 'I' for Inactive)
REMARK    1  A    between atoms: O_2  and  C_16 
REMARK    2  A    between atoms: N_5  and  C_9 
REMARK    3  A    between atoms: N_6  and  C_13 
REMARK       I    between atoms: N_6  and  C_22 
REMARK    4  A    between atoms: C_9  and  C_12 
REMARK    5  A    between atoms: C_13  and  C_16 
REMARK    6  A    between atoms: C_13  and  C_21 
REMARK    7  A    between atoms: C_19  and  C_24 
REMARK    8  A    between atoms: C_22  and  C_23 
REMARK    9  A    between atoms: C_27  and  C_30 
REMARK   10  A    between atoms: N_33  and  S_34 
ROOT
HETATM    1  C   UNL     1      10.194   5.276  90.593  1.00  0.00     0.056 A 
HETATM    2  C   UNL     1       9.672   5.953  89.511  1.00  0.00     0.005 A 
HETATM    3  C   UNL     1       9.704   5.440  91.871  1.00  0.00     0.005 A 
HETATM    4  C   UNL     1       8.098   7.020  91.000  1.00  0.00     0.042 A 
HETATM    5  C   UNL     1       8.612   6.836  89.716  1.00  0.00     0.008 A 
HETATM    6  C   UNL     1       8.644   6.323  92.077  1.00  0.00     0.008 A 
ENDROOT
BRANCH   1   7
HETATM    7  C   UNL     1      11.323   4.334  90.373  1.00  0.00     0.254 C 
HETATM    8  O   UNL     1      11.562   3.939  89.235  1.00  0.00    -0.268 OA
HETATM    9  N   UNL     1      12.051   3.984  91.502  1.00  0.00    -0.337 N 
HETATM   10  HN  UNL     1      11.810   4.370  92.408  1.00  0.00     0.164 HD
BRANCH   9  11
HETATM   11  C   UNL     1      13.188   3.101  91.448  1.00  0.00     0.172 C 
BRANCH  11  12
HETATM   12  C   UNL     1      14.459   3.798  90.948  1.00  0.00     0.136 C 
HETATM   13  C   UNL     1      15.091   3.079  89.762  1.00  0.00     0.034 C 
BRANCH  12  14
HETATM   14  O   UNL     1      14.149   5.138  90.566  1.00  0.00    -0.383 OA
HETATM   15  H   UNL     1      14.889   5.483  90.038  1.00  0.00     0.210 HD
ENDBRANCH  12  14
ENDBRANCH  11  12
BRANCH  11  16
HETATM   16  C   UNL     1      13.389   2.515  92.842  1.00  0.00     0.398 A 
HETATM   17  O   UNL     1      12.859   2.984  93.848  1.00  0.00    -0.136 OA
HETATM   18  N   UNL     1      14.317   2.653  94.124  1.00  0.00     0.142 N 
HETATM   19  HN  UNL     1      14.071   2.974  95.018  1.00  0.00     0.338 HD
BRANCH  18  20
HETATM   20  S   UNL     1      15.546   2.442  93.510  1.00  0.00     0.076 SA
HETATM   21  H   UNL     1      16.406   3.224  93.760  1.00  0.00     0.136 HD
ENDBRANCH  18  20
ENDBRANCH  11  16
ENDBRANCH   9  11
ENDBRANCH   1   7
BRANCH   4  22
HETATM   22  C   UNL     1       7.013   7.927  91.210  1.00  0.00    -0.059 C 
HETATM   23  C   UNL     1       6.100   8.689  91.388  1.00  0.00    -0.059 C 
BRANCH  23  24
HETATM   24  C   UNL     1       5.014   9.597  91.599  1.00  0.00     0.042 A 
HETATM   25  C   UNL     1       4.321  10.120  90.508  1.00  0.00     0.008 A 
HETATM   26  C   UNL     1       3.264  11.006  90.714  1.00  0.00    -0.002 A 
HETATM   27  C   UNL     1       2.899  11.366  92.012  1.00  0.00     0.011 A 
HETATM   28  C   UNL     1       3.593  10.842  93.102  1.00  0.00    -0.002 A 
HETATM   29  C   UNL     1       4.651   9.956  92.895  1.00  0.00     0.008 A 
BRANCH  27  30
HETATM   30  C   UNL     1       1.767  12.312  92.231  1.00  0.00     0.277 C 
BRANCH  30  31
HETATM   31  N   UNL     1       2.221  13.685  92.442  1.00  0.00     0.147 N 
HETATM   32  C   UNL     1       2.253  14.008  93.875  1.00  0.00     0.283 C 
HETATM   33  C   UNL     1       2.740  15.441  94.072  1.00  0.00     0.178 C 
HETATM   34  O   UNL     1       4.036  15.609  93.494  1.00  0.00    -0.350 OA
HETATM   35  C   UNL     1       4.007  15.327  92.094  1.00  0.00     0.178 C 
HETATM   36  C   UNL     1       3.550  13.893  91.850  1.00  0.00     0.283 C 
ENDBRANCH  30  31
ENDBRANCH  27  30
ENDBRANCH  23  24
ENDBRANCH   4  22
TORSDOF 10
ENDMDL
