MODEL 1
REMARK VINA RESULT:      -6.8      0.000      0.000
REMARK  11 active torsions:
REMARK  status: ('A' for Active; 'I' for Inactive)
REMARK    1  A    between atoms: O_2  and  C_18 
REMARK    2  A    between atoms: O_5  and  P_8 
REMARK    3  A    between atoms: N_6  and  C_11 
REMARK    4  A    between atoms: N_7  and  C_15 
REMARK       I    between atoms: N_7  and  C_24 
REMARK    5  A    between atoms: P_8  and  C_23 
REMARK    6  A    between atoms: C_11  and  C_14 
REMARK    7  A    between atoms: C_15  and  C_18 
REMARK    8  A    between atoms: C_15  and  C_23 
REMARK    9  A    between atoms: C_21  and  C_26 
REMARK   10  A    between atoms: C_24  and  C_25 
REMARK   11  A    between atoms: C_29  and  C_32 
ROOT
HETATM    1  O   UNL     1      16.514   4.253  94.111  1.00  0.00     0.000 OA
HETATM    2  N   UNL     1      14.610   2.764  92.609  1.00  0.00     0.000 N 
HETATM    3  C   UNL     1      14.603   4.234  92.615  1.00  0.00     0.000 C 
HETATM    4  C   UNL     1      15.155   2.258  93.876  1.00  0.00     0.000 C 
HETATM    5  C   UNL     1      16.015   4.756  92.870  1.00  0.00     0.000 C 
HETATM    6  C   UNL     1      16.553   2.826  94.102  1.00  0.00     0.000 C 
ENDROOT
BRANCH   2   7
HETATM    7  C   UNL     1      13.264   2.242  92.376  1.00  0.00     0.000 C 
BRANCH   7   8
HETATM    8  C   UNL     1      12.289   3.316  92.033  1.00  0.00     0.000 A 
HETATM    9  C   UNL     1      11.543   3.927  93.042  1.00  0.00     0.000 A 
HETATM   10  C   UNL     1      10.629   4.931  92.722  1.00  0.00     0.000 A 
HETATM   11  C   UNL     1      10.463   5.324  91.394  1.00  0.00     0.000 A 
HETATM   12  C   UNL     1      11.208   4.715  90.387  1.00  0.00     0.000 A 
HETATM   13  C   UNL     1      12.122   3.711  90.706  1.00  0.00     0.000 A 
BRANCH  11  14
HETATM   14  C   UNL     1       9.527   6.355  91.066  1.00  0.00     0.000 C 
HETATM   15  C   UNL     1       8.740   7.222  90.792  1.00  0.00     0.000 C 
BRANCH  15  16
HETATM   16  C   UNL     1       7.805   8.253  90.464  1.00  0.00     0.000 A 
HETATM   17  C   UNL     1       7.704   9.384  91.275  1.00  0.00     0.000 A 
HETATM   18  C   UNL     1       6.793  10.391  90.954  1.00  0.00     0.000 A 
HETATM   19  C   UNL     1       6.007  10.245  89.830  1.00  0.00     0.000 A 
HETATM   20  C   UNL     1       6.088   9.137  89.013  1.00  0.00     0.000 A 
HETATM   21  C   UNL     1       6.998   8.129  89.334  1.00  0.00     0.000 A 
BRANCH  19  22
HETATM   22  C   UNL     1       5.036  11.317  89.490  1.00  0.00     0.000 C 
HETATM   23  O   UNL     1       4.538  11.341  88.367  1.00  0.00     0.000 OA
HETATM   24  N   UNL     1       4.743  12.217  90.505  1.00  0.00     0.000 N 
HETATM   25  HN  UNL     1       5.175  12.120  91.416  1.00  0.00     0.000 HD
BRANCH  24  26
HETATM   26  C   UNL     1       3.804  13.297  90.337  1.00  0.00     0.000 C 
BRANCH  26  27
HETATM   27  C   UNL     1       2.469  13.038  91.047  1.00  0.00     0.000 C 
HETATM   28  C   UNL     1       2.588  11.995  92.152  1.00  0.00     0.000 C 
BRANCH  27  29
HETATM   29  O   UNL     1       1.984  14.257  91.610  1.00  0.00     0.000 OA
HETATM   30  H   UNL     1       2.747  14.819  91.825  1.00  0.00     0.000 HD
ENDBRANCH  27  29
ENDBRANCH  26  27
BRANCH  26  31
HETATM   31  C   UNL     1       4.465  14.573  90.847  1.00  0.00     0.000 C 
HETATM   32  O   UNL     1       4.507  14.876  92.038  1.00  0.00     0.000 OA
BRANCH  31  33
HETATM   33  P   UNL     1       4.963  15.345  89.825  1.00  0.00     0.000 P 
HETATM   34  H   UNL     1       4.202  16.494  89.754  1.00  0.00     0.000 HD
BRANCH  33  35
HETATM   35  O   UNL     1       4.961  14.750  88.555  1.00  0.00     0.000 OA
HETATM   36  H   UNL     1       5.799  15.093  88.201  1.00  0.00     0.000 HD
ENDBRANCH  33  35
ENDBRANCH  31  33
ENDBRANCH  26  31
ENDBRANCH  24  26
ENDBRANCH  19  22
ENDBRANCH  15  16
ENDBRANCH  11  14
ENDBRANCH   7   8
ENDBRANCH   2   7
TORSDOF 11
ENDMDL
