MODEL 1
REMARK VINA RESULT:      -6.8      0.000      0.000
REMARK  10 active torsions:
REMARK  status: ('A' for Active; 'I' for Inactive)
REMARK    1  A    between atoms: O_2  and  C_18 
REMARK    2  A    between atoms: O_5  and  N_8 
REMARK    3  A    between atoms: N_6  and  C_11 
REMARK    4  A    between atoms: N_7  and  C_15 
REMARK       I    between atoms: N_7  and  C_24 
REMARK       I    between atoms: N_8  and  C_23 
REMARK    5  A    between atoms: C_11  and  C_14 
REMARK    6  A    between atoms: C_15  and  C_18 
REMARK    7  A    between atoms: C_15  and  C_23 
REMARK    8  A    between atoms: C_21  and  C_26 
REMARK    9  A    between atoms: C_24  and  C_25 
REMARK   10  A    between atoms: C_29  and  C_32 
ROOT
HETATM    1  O   UNK     0      16.711   3.420  93.867  0.00  0.00    -0.388 OA
HETATM    2  N   UNK     0      14.121   2.992  92.767  0.00  0.00     0.096 N 
HETATM    3  C   UNK     0      15.064   1.883  92.965  0.00  0.00     0.299 C 
HETATM    4  C   UNK     0      14.857   4.243  92.536  0.00  0.00     0.299 C 
HETATM    5  C   UNK     0      16.005   2.205  94.124  0.00  0.00     0.198 C 
HETATM    6  C   UNK     0      15.803   4.510  93.703  0.00  0.00     0.198 C 
ENDROOT
BRANCH   2   7
HETATM    7  C   UNK     0      13.216   2.710  91.654  0.00  0.00     0.311 C 
BRANCH   7   8
HETATM    8  C   UNK     0      12.091   3.685  91.575  0.00  0.00    -0.030 A 
HETATM    9  C   UNK     0      11.807   4.324  90.367  0.00  0.00     0.010 A 
HETATM   10  C   UNK     0      10.756   5.238  90.293  0.00  0.00     0.021 A 
HETATM   11  C   UNK     0       9.989   5.511  91.425  0.00  0.00     0.018 A 
HETATM   12  C   UNK     0      10.272   4.873  92.632  0.00  0.00     0.021 A 
HETATM   13  C   UNK     0      11.324   3.960  92.707  0.00  0.00     0.010 A 
BRANCH  11  14
HETATM   14  C   UNK     0       8.910   6.447  91.348  0.00  0.00    -0.061 C 
HETATM   15  C   UNK     0       8.002   7.233  91.284  0.00  0.00    -0.061 C 
BRANCH  15  16
HETATM   16  C   UNK     0       6.924   8.167  91.206  0.00  0.00     0.018 A 
HETATM   17  C   UNK     0       7.182   9.504  90.898  0.00  0.00     0.022 A 
HETATM   18  C   UNK     0       6.129  10.416  90.820  0.00  0.00     0.018 A 
HETATM   19  C   UNK     0       4.844   9.972  91.049  0.00  0.00     0.032 A 
HETATM   20  C   UNK     0       4.563   8.657  91.355  0.00  0.00     0.018 A 
HETATM   21  C   UNK     0       5.615   7.745  91.435  0.00  0.00     0.022 A 
BRANCH  19  22
HETATM   22  C   UNK     0       3.723  10.944  90.968  0.00  0.00     0.252 C 
HETATM   23  O   UNK     0       2.722  10.653  90.317  0.00  0.00    -0.268 OA
HETATM   24  N   UNK     0       3.892  12.128  91.673  0.00  0.00    -0.341 N 
HETATM   25  H   UNK     0       4.736  12.289  92.210  0.00  0.00     0.163 HD
BRANCH  24  26
HETATM   26  C   UNK     0       2.886  13.158  91.712  0.00  0.00     0.207 C 
BRANCH  26  27
HETATM   27  C   UNK     0       2.836  13.889  93.059  0.00  0.00     0.146 C 
HETATM   28  C   UNK     0       4.162  13.825  93.808  0.00  0.00     0.042 C 
BRANCH  27  29
HETATM   29  O   UNK     0       2.489  15.257  92.847  0.00  0.00    -0.393 OA
HETATM   30  H   UNK     0       2.548  15.722  93.699  0.00  0.00     0.210 HD
ENDBRANCH  27  29
ENDBRANCH  26  27
BRANCH  26  31
HETATM   31  C   UNK     0       3.165  14.125  90.566  0.00  0.00     0.266 C 
HETATM   32  O   UNK     0       2.298  14.500  89.779  0.00  0.00    -0.269 OA
HETATM   33  N   UNK     0       4.489  14.486  90.503  0.00  0.00    -0.236 N 
HETATM   34  H   UNK     0       5.244  14.128  91.077  0.00  0.00     0.197 HD
BRANCH  33  35
HETATM   35  O   UNK     0       4.838  15.346  89.451  0.00  0.00    -0.287 OA
HETATM   36  H   UNK     0       4.183  15.079  88.784  0.00  0.00     0.244 HD
ENDBRANCH  33  35
ENDBRANCH  26  31
ENDBRANCH  24  26
ENDBRANCH  19  22
ENDBRANCH  15  16
ENDBRANCH  11  14
ENDBRANCH   7   8
ENDBRANCH   2   7
TORSDOF 10
ENDMDL
