MODEL 1
REMARK VINA RESULT:      -6.7      0.000      0.000
REMARK  11 active torsions:
REMARK  status: ('A' for Active; 'I' for Inactive)
REMARK    1  A    between atoms: O_2  and  C_18 
REMARK    2  A    between atoms: O_5  and  P_8 
REMARK    3  A    between atoms: N_6  and  C_11 
REMARK    4  A    between atoms: N_7  and  C_15 
REMARK       I    between atoms: N_7  and  C_24 
REMARK    5  A    between atoms: P_8  and  C_23 
REMARK    6  A    between atoms: C_11  and  C_14 
REMARK    7  A    between atoms: C_15  and  C_18 
REMARK    8  A    between atoms: C_15  and  C_23 
REMARK    9  A    between atoms: C_21  and  C_26 
REMARK   10  A    between atoms: C_24  and  C_25 
REMARK   11  A    between atoms: C_29  and  C_32 
ROOT
HETATM    1  O   UNL     1      16.497   4.285  94.050  1.00  0.00     0.000 OA
HETATM    2  N   UNL     1      14.615   2.657  92.668  1.00  0.00     0.000 N 
HETATM    3  C   UNL     1      14.566   4.123  92.588  1.00  0.00     0.000 C 
HETATM    4  C   UNL     1      15.193   2.242  93.954  1.00  0.00     0.000 C 
HETATM    5  C   UNL     1      15.966   4.699  92.790  1.00  0.00     0.000 C 
HETATM    6  C   UNL     1      16.576   2.861  94.124  1.00  0.00     0.000 C 
ENDROOT
BRANCH   2   7
HETATM    7  C   UNL     1      13.282   2.084  92.489  1.00  0.00     0.000 C 
BRANCH   7   8
HETATM    8  C   UNL     1      12.253   3.122  92.194  1.00  0.00     0.000 A 
HETATM    9  C   UNL     1      11.767   3.271  90.894  1.00  0.00     0.000 A 
HETATM   10  C   UNL     1      10.806   4.243  90.617  1.00  0.00     0.000 A 
HETATM   11  C   UNL     1      10.330   5.064  91.639  1.00  0.00     0.000 A 
HETATM   12  C   UNL     1      10.815   4.915  92.937  1.00  0.00     0.000 A 
HETATM   13  C   UNL     1      11.776   3.944  93.215  1.00  0.00     0.000 A 
BRANCH  11  14
HETATM   14  C   UNL     1       9.343   6.059  91.355  1.00  0.00     0.000 C 
HETATM   15  C   UNL     1       8.513   6.896  91.117  1.00  0.00     0.000 C 
BRANCH  15  16
HETATM   16  C   UNL     1       7.527   7.892  90.832  1.00  0.00     0.000 A 
HETATM   17  C   UNL     1       7.701   9.196  91.295  1.00  0.00     0.000 A 
HETATM   18  C   UNL     1       6.740  10.168  91.015  1.00  0.00     0.000 A 
HETATM   19  C   UNL     1       5.629   9.814  90.279  1.00  0.00     0.000 A 
HETATM   20  C   UNL     1       5.434   8.532  89.811  1.00  0.00     0.000 A 
HETATM   21  C   UNL     1       6.394   7.559  90.090  1.00  0.00     0.000 A 
BRANCH  19  22
HETATM   22  C   UNL     1       4.605  10.849  89.983  1.00  0.00     0.000 C 
HETATM   23  O   UNL     1       3.484  10.498  89.623  1.00  0.00     0.000 OA
HETATM   24  N   UNL     1       5.001  12.167  90.166  1.00  0.00     0.000 N 
HETATM   25  HN  UNL     1       5.937  12.380  90.490  1.00  0.00     0.000 HD
BRANCH  24  26
HETATM   26  C   UNL     1       4.115  13.281  89.944  1.00  0.00     0.000 C 
BRANCH  26  27
HETATM   27  C   UNL     1       3.472  13.795  91.238  1.00  0.00     0.000 C 
HETATM   28  C   UNL     1       2.216  13.016  91.615  1.00  0.00     0.000 C 
BRANCH  27  29
HETATM   29  O   UNL     1       4.412  13.703  92.308  1.00  0.00     0.000 OA
HETATM   30  H   UNL     1       5.231  13.312  91.961  1.00  0.00     0.000 HD
ENDBRANCH  27  29
ENDBRANCH  26  27
BRANCH  26  31
HETATM   31  C   UNL     1       4.913  14.379  89.248  1.00  0.00     0.000 C 
HETATM   32  O   UNL     1       5.259  15.415  89.812  1.00  0.00     0.000 OA
BRANCH  31  33
HETATM   33  P   UNL     1       5.157  14.087  87.928  1.00  0.00     0.000 P 
HETATM   34  H   UNL     1       4.802  15.190  87.178  1.00  0.00     0.000 HD
BRANCH  33  35
HETATM   35  O   UNL     1       4.471  12.978  87.412  1.00  0.00     0.000 OA
HETATM   36  H   UNL     1       4.630  13.101  86.461  1.00  0.00     0.000 HD
ENDBRANCH  33  35
ENDBRANCH  31  33
ENDBRANCH  26  31
ENDBRANCH  24  26
ENDBRANCH  19  22
ENDBRANCH  15  16
ENDBRANCH  11  14
ENDBRANCH   7   8
ENDBRANCH   2   7
TORSDOF 11
ENDMDL
MODEL 2
REMARK VINA RESULT:      -6.6      1.808      2.812
REMARK  11 active torsions:
REMARK  status: ('A' for Active; 'I' for Inactive)
REMARK    1  A    between atoms: O_2  and  C_18 
REMARK    2  A    between atoms: O_5  and  P_8 
REMARK    3  A    between atoms: N_6  and  C_11 
REMARK    4  A    between atoms: N_7  and  C_15 
REMARK       I    between atoms: N_7  and  C_24 
REMARK    5  A    between atoms: P_8  and  C_23 
REMARK    6  A    between atoms: C_11  and  C_14 
REMARK    7  A    between atoms: C_15  and  C_18 
REMARK    8  A    between atoms: C_15  and  C_23 
REMARK    9  A    between atoms: C_21  and  C_26 
REMARK   10  A    between atoms: C_24  and  C_25 
REMARK   11  A    between atoms: C_29  and  C_32 
ROOT
HETATM    1  O   UNL     1      16.191   3.967  94.124  1.00  0.00     0.000 OA
HETATM    2  N   UNL     1      14.253   2.683  92.482  1.00  0.00     0.000 N 
HETATM    3  C   UNL     1      14.413   4.144  92.481  1.00  0.00     0.000 C 
HETATM    4  C   UNL     1      14.636   2.135  93.790  1.00  0.00     0.000 C 
HETATM    5  C   UNL     1      15.851   4.506  92.845  1.00  0.00     0.000 C 
HETATM    6  C   UNL     1      16.067   2.545  94.124  1.00  0.00     0.000 C 
ENDROOT
BRANCH   2   7
HETATM    7  C   UNL     1      12.879   2.313  92.146  1.00  0.00     0.000 C 
BRANCH   7   8
HETATM    8  C   UNL     1      11.943   3.472  92.224  1.00  0.00     0.000 A 
HETATM    9  C   UNL     1      11.388   3.999  91.057  1.00  0.00     0.000 A 
HETATM   10  C   UNL     1      10.515   5.083  91.129  1.00  0.00     0.000 A 
HETATM   11  C   UNL     1      10.195   5.639  92.367  1.00  0.00     0.000 A 
HETATM   12  C   UNL     1      10.749   5.114  93.533  1.00  0.00     0.000 A 
HETATM   13  C   UNL     1      11.623   4.029  93.462  1.00  0.00     0.000 A 
BRANCH  11  14
HETATM   14  C   UNL     1       9.297   6.751  92.441  1.00  0.00     0.000 C 
HETATM   15  C   UNL     1       8.543   7.685  92.503  1.00  0.00     0.000 C 
BRANCH  15  16
HETATM   16  C   UNL     1       7.647   8.797  92.576  1.00  0.00     0.000 A 
HETATM   17  C   UNL     1       7.317   9.503  91.419  1.00  0.00     0.000 A 
HETATM   18  C   UNL     1       6.441  10.585  91.490  1.00  0.00     0.000 A 
HETATM   19  C   UNL     1       5.913  10.937  92.715  1.00  0.00     0.000 A 
HETATM   20  C   UNL     1       6.223  10.255  93.873  1.00  0.00     0.000 A 
HETATM   21  C   UNL     1       7.100   9.172  93.803  1.00  0.00     0.000 A 
BRANCH  19  22
HETATM   22  C   UNL     1       4.981  12.091  92.791  1.00  0.00     0.000 C 
HETATM   23  O   UNL     1       4.770  12.621  93.879  1.00  0.00     0.000 OA
HETATM   24  N   UNL     1       4.426  12.504  91.587  1.00  0.00     0.000 N 
HETATM   25  HN  UNL     1       4.666  12.033  90.723  1.00  0.00     0.000 HD
BRANCH  24  26
HETATM   26  C   UNL     1       3.523  13.624  91.493  1.00  0.00     0.000 C 
BRANCH  26  27
HETATM   27  C   UNL     1       3.466  14.223  90.082  1.00  0.00     0.000 C 
HETATM   28  C   UNL     1       4.811  14.778  89.629  1.00  0.00     0.000 C 
BRANCH  27  29
HETATM   29  O   UNL     1       3.041  13.223  89.156  1.00  0.00     0.000 OA
HETATM   30  H   UNL     1       2.798  13.662  88.324  1.00  0.00     0.000 HD
ENDBRANCH  27  29
ENDBRANCH  26  27
BRANCH  26  31
HETATM   31  C   UNL     1       2.147  13.152  91.952  1.00  0.00     0.000 C 
HETATM   32  O   UNL     1       1.645  12.093  91.583  1.00  0.00     0.000 OA
BRANCH  31  33
HETATM   33  P   UNL     1       1.537  14.061  92.782  1.00  0.00     0.000 P 
HETATM   34  H   UNL     1       1.130  15.131  92.012  1.00  0.00     0.000 HD
BRANCH  33  35
HETATM   35  O   UNL     1       2.329  14.560  93.827  1.00  0.00     0.000 OA
HETATM   36  H   UNL     1       1.810  15.343  94.080  1.00  0.00     0.000 HD
ENDBRANCH  33  35
ENDBRANCH  31  33
ENDBRANCH  26  31
ENDBRANCH  24  26
ENDBRANCH  19  22
ENDBRANCH  15  16
ENDBRANCH  11  14
ENDBRANCH   7   8
ENDBRANCH   2   7
TORSDOF 11
ENDMDL
MODEL 3
REMARK VINA RESULT:      -6.0      1.915      2.520
REMARK  11 active torsions:
REMARK  status: ('A' for Active; 'I' for Inactive)
REMARK    1  A    between atoms: O_2  and  C_18 
REMARK    2  A    between atoms: O_5  and  P_8 
REMARK    3  A    between atoms: N_6  and  C_11 
REMARK    4  A    between atoms: N_7  and  C_15 
REMARK       I    between atoms: N_7  and  C_24 
REMARK    5  A    between atoms: P_8  and  C_23 
REMARK    6  A    between atoms: C_11  and  C_14 
REMARK    7  A    between atoms: C_15  and  C_18 
REMARK    8  A    between atoms: C_15  and  C_23 
REMARK    9  A    between atoms: C_21  and  C_26 
REMARK   10  A    between atoms: C_24  and  C_25 
REMARK   11  A    between atoms: C_29  and  C_32 
ROOT
HETATM    1  O   UNL     1      16.521   2.852  93.859  1.00  0.00     0.000 OA
HETATM    2  N   UNL     1      13.860   3.078  92.874  1.00  0.00     0.000 N 
HETATM    3  C   UNL     1      14.525   1.773  92.997  1.00  0.00     0.000 C 
HETATM    4  C   UNL     1      14.858   4.131  92.643  1.00  0.00     0.000 C 
HETATM    5  C   UNL     1      15.562   1.825  94.117  1.00  0.00     0.000 C 
HETATM    6  C   UNL     1      15.886   4.128  93.769  1.00  0.00     0.000 C 
ENDROOT
BRANCH   2   7
HETATM    7  C   UNL     1      12.869   3.054  91.799  1.00  0.00     0.000 C 
BRANCH   7   8
HETATM    8  C   UNL     1      11.826   4.106  91.965  1.00  0.00     0.000 A 
HETATM    9  C   UNL     1      11.328   4.776  90.847  1.00  0.00     0.000 A 
HETATM   10  C   UNL     1      10.354   5.762  91.001  1.00  0.00     0.000 A 
HETATM   11  C   UNL     1       9.877   6.076  92.274  1.00  0.00     0.000 A 
HETATM   12  C   UNL     1      10.373   5.408  93.391  1.00  0.00     0.000 A 
HETATM   13  C   UNL     1      11.348   4.422  93.237  1.00  0.00     0.000 A 
BRANCH  11  14
HETATM   14  C   UNL     1       8.876   7.086  92.432  1.00  0.00     0.000 C 
HETATM   15  C   UNL     1       8.034   7.934  92.564  1.00  0.00     0.000 C 
BRANCH  15  16
HETATM   16  C   UNL     1       7.033   8.943  92.722  1.00  0.00     0.000 A 
HETATM   17  C   UNL     1       6.846   9.549  93.965  1.00  0.00     0.000 A 
HETATM   18  C   UNL     1       5.871  10.535  94.118  1.00  0.00     0.000 A 
HETATM   19  C   UNL     1       5.107  10.893  93.027  1.00  0.00     0.000 A 
HETATM   20  C   UNL     1       5.273  10.309  91.789  1.00  0.00     0.000 A 
HETATM   21  C   UNL     1       6.247   9.322  91.634  1.00  0.00     0.000 A 
BRANCH  19  22
HETATM   22  C   UNL     1       4.068  11.942  93.192  1.00  0.00     0.000 C 
HETATM   23  O   UNL     1       3.245  11.834  94.098  1.00  0.00     0.000 OA
HETATM   24  N   UNL     1       4.126  13.002  92.298  1.00  0.00     0.000 N 
HETATM   25  HN  UNL     1       4.850  13.036  91.590  1.00  0.00     0.000 HD
BRANCH  24  26
HETATM   26  C   UNL     1       3.204  14.107  92.344  1.00  0.00     0.000 C 
BRANCH  26  27
HETATM   27  C   UNL     1       3.902  15.454  92.568  1.00  0.00     0.000 C 
HETATM   28  C   UNL     1       4.508  15.573  93.962  1.00  0.00     0.000 C 
BRANCH  27  29
HETATM   29  O   UNL     1       4.936  15.623  91.598  1.00  0.00     0.000 OA
HETATM   30  H   UNL     1       4.757  16.440  91.102  1.00  0.00     0.000 HD
ENDBRANCH  27  29
ENDBRANCH  26  27
BRANCH  26  31
HETATM   31  C   UNL     1       2.408  14.105  91.043  1.00  0.00     0.000 C 
HETATM   32  O   UNL     1       1.292  14.611  90.939  1.00  0.00     0.000 OA
BRANCH  31  33
HETATM   33  P   UNL     1       3.066  13.446  90.033  1.00  0.00     0.000 P 
HETATM   34  H   UNL     1       3.626  12.303  90.569  1.00  0.00     0.000 HD
BRANCH  33  35
HETATM   35  O   UNL     1       4.087  14.167  89.397  1.00  0.00     0.000 OA
HETATM   36  H   UNL     1       4.111  13.713  88.537  1.00  0.00     0.000 HD
ENDBRANCH  33  35
ENDBRANCH  31  33
ENDBRANCH  26  31
ENDBRANCH  24  26
ENDBRANCH  19  22
ENDBRANCH  15  16
ENDBRANCH  11  14
ENDBRANCH   7   8
ENDBRANCH   2   7
TORSDOF 11
ENDMDL
MODEL 4
REMARK VINA RESULT:      -6.0      1.618      2.137
REMARK  11 active torsions:
REMARK  status: ('A' for Active; 'I' for Inactive)
REMARK    1  A    between atoms: O_2  and  C_18 
REMARK    2  A    between atoms: O_5  and  P_8 
REMARK    3  A    between atoms: N_6  and  C_11 
REMARK    4  A    between atoms: N_7  and  C_15 
REMARK       I    between atoms: N_7  and  C_24 
REMARK    5  A    between atoms: P_8  and  C_23 
REMARK    6  A    between atoms: C_11  and  C_14 
REMARK    7  A    between atoms: C_15  and  C_18 
REMARK    8  A    between atoms: C_15  and  C_23 
REMARK    9  A    between atoms: C_21  and  C_26 
REMARK   10  A    between atoms: C_24  and  C_25 
REMARK   11  A    between atoms: C_29  and  C_32 
ROOT
HETATM    1  O   UNL     1      16.511   3.110  93.934  1.00  0.00     0.000 OA
HETATM    2  N   UNL     1      14.016   3.192  92.568  1.00  0.00     0.000 N 
HETATM    3  C   UNL     1      14.681   1.919  92.875  1.00  0.00     0.000 C 
HETATM    4  C   UNL     1      15.016   4.257  92.407  1.00  0.00     0.000 C 
HETATM    5  C   UNL     1      15.545   2.074  94.124  1.00  0.00     0.000 C 
HETATM    6  C   UNL     1      15.871   4.358  93.666  1.00  0.00     0.000 C 
ENDROOT
BRANCH   2   7
HETATM    7  C   UNL     1      13.190   3.069  91.368  1.00  0.00     0.000 C 
BRANCH   7   8
HETATM    8  C   UNL     1      12.002   3.968  91.401  1.00  0.00     0.000 A 
HETATM    9  C   UNL     1      11.404   4.377  90.208  1.00  0.00     0.000 A 
HETATM   10  C   UNL     1      10.293   5.220  90.237  1.00  0.00     0.000 A 
HETATM   11  C   UNL     1       9.780   5.653  91.460  1.00  0.00     0.000 A 
HETATM   12  C   UNL     1      10.376   5.245  92.652  1.00  0.00     0.000 A 
HETATM   13  C   UNL     1      11.487   4.403  92.622  1.00  0.00     0.000 A 
BRANCH  11  14
HETATM   14  C   UNL     1       8.640   6.516  91.490  1.00  0.00     0.000 C 
HETATM   15  C   UNL     1       7.681   7.242  91.516  1.00  0.00     0.000 C 
BRANCH  15  16
HETATM   16  C   UNL     1       6.542   8.105  91.546  1.00  0.00     0.000 A 
HETATM   17  C   UNL     1       5.529   7.954  90.600  1.00  0.00     0.000 A 
HETATM   18  C   UNL     1       4.416   8.794  90.631  1.00  0.00     0.000 A 
HETATM   19  C   UNL     1       4.342   9.766  91.607  1.00  0.00     0.000 A 
HETATM   20  C   UNL     1       5.330   9.936  92.553  1.00  0.00     0.000 A 
HETATM   21  C   UNL     1       6.444   9.096  92.523  1.00  0.00     0.000 A 
BRANCH  19  22
HETATM   22  C   UNL     1       3.157  10.662  91.638  1.00  0.00     0.000 C 
HETATM   23  O   UNL     1       2.032  10.170  91.617  1.00  0.00     0.000 OA
HETATM   24  N   UNL     1       3.425  12.022  91.716  1.00  0.00     0.000 N 
HETATM   25  HN  UNL     1       4.382  12.354  91.756  1.00  0.00     0.000 HD
BRANCH  24  26
HETATM   26  C   UNL     1       2.384  13.016  91.780  1.00  0.00     0.000 C 
BRANCH  26  27
HETATM   27  C   UNL     1       2.433  13.846  93.068  1.00  0.00     0.000 C 
HETATM   28  C   UNL     1       3.856  14.057  93.573  1.00  0.00     0.000 C 
BRANCH  27  29
HETATM   29  O   UNL     1       1.830  15.119  92.839  1.00  0.00     0.000 OA
HETATM   30  H   UNL     1       1.116  15.006  92.189  1.00  0.00     0.000 HD
ENDBRANCH  27  29
ENDBRANCH  26  27
BRANCH  26  31
HETATM   31  C   UNL     1       2.509  13.901  90.544  1.00  0.00     0.000 C 
HETATM   32  O   UNL     1       1.593  14.610  90.132  1.00  0.00     0.000 OA
BRANCH  31  33
HETATM   33  P   UNL     1       3.737  13.778  89.940  1.00  0.00     0.000 P 
HETATM   34  H   UNL     1       4.230  15.048  89.721  1.00  0.00     0.000 HD
BRANCH  33  35
HETATM   35  O   UNL     1       3.749  13.096  88.715  1.00  0.00     0.000 OA
HETATM   36  H   UNL     1       2.805  12.877  88.628  1.00  0.00     0.000 HD
ENDBRANCH  33  35
ENDBRANCH  31  33
ENDBRANCH  26  31
ENDBRANCH  24  26
ENDBRANCH  19  22
ENDBRANCH  15  16
ENDBRANCH  11  14
ENDBRANCH   7   8
ENDBRANCH   2   7
TORSDOF 11
ENDMDL
MODEL 5
REMARK VINA RESULT:      -4.9      3.580     12.329
REMARK  11 active torsions:
REMARK  status: ('A' for Active; 'I' for Inactive)
REMARK    1  A    between atoms: O_2  and  C_18 
REMARK    2  A    between atoms: O_5  and  P_8 
REMARK    3  A    between atoms: N_6  and  C_11 
REMARK    4  A    between atoms: N_7  and  C_15 
REMARK       I    between atoms: N_7  and  C_24 
REMARK    5  A    between atoms: P_8  and  C_23 
REMARK    6  A    between atoms: C_11  and  C_14 
REMARK    7  A    between atoms: C_15  and  C_18 
REMARK    8  A    between atoms: C_15  and  C_23 
REMARK    9  A    between atoms: C_21  and  C_26 
REMARK   10  A    between atoms: C_24  and  C_25 
REMARK   11  A    between atoms: C_29  and  C_32 
ROOT
HETATM    1  O   UNL     1       3.040  15.000  93.745  1.00  0.00     0.000 OA
HETATM    2  N   UNL     1       2.799  14.449  90.963  1.00  0.00     0.000 N 
HETATM    3  C   UNL     1       1.835  13.919  91.937  1.00  0.00     0.000 C 
HETATM    4  C   UNL     1       4.111  14.629  91.600  1.00  0.00     0.000 C 
HETATM    5  C   UNL     1       1.753  14.852  93.143  1.00  0.00     0.000 C 
HETATM    6  C   UNL     1       3.976  15.544  92.813  1.00  0.00     0.000 C 
ENDROOT
BRANCH   2   7
HETATM    7  C   UNL     1       2.902  13.565  89.803  1.00  0.00     0.000 C 
BRANCH   7   8
HETATM    8  C   UNL     1       3.926  12.498  89.991  1.00  0.00     0.000 A 
HETATM    9  C   UNL     1       5.117  12.541  89.265  1.00  0.00     0.000 A 
HETATM   10  C   UNL     1       6.075  11.542  89.438  1.00  0.00     0.000 A 
HETATM   11  C   UNL     1       5.843  10.503  90.338  1.00  0.00     0.000 A 
HETATM   12  C   UNL     1       4.655  10.460  91.064  1.00  0.00     0.000 A 
HETATM   13  C   UNL     1       3.696  11.458  90.891  1.00  0.00     0.000 A 
BRANCH  11  14
HETATM   14  C   UNL     1       6.827   9.480  90.517  1.00  0.00     0.000 C 
HETATM   15  C   UNL     1       7.654   8.620  90.669  1.00  0.00     0.000 C 
BRANCH  15  16
HETATM   16  C   UNL     1       8.636   7.597  90.848  1.00  0.00     0.000 A 
HETATM   17  C   UNL     1       9.118   6.893  89.744  1.00  0.00     0.000 A 
HETATM   18  C   UNL     1      10.079   5.897  89.918  1.00  0.00     0.000 A 
HETATM   19  C   UNL     1      10.536   5.628  91.191  1.00  0.00     0.000 A 
HETATM   20  C   UNL     1      10.075   6.309  92.299  1.00  0.00     0.000 A 
HETATM   21  C   UNL     1       9.115   7.305  92.125  1.00  0.00     0.000 A 
BRANCH  19  22
HETATM   22  C   UNL     1      11.558   4.565  91.377  1.00  0.00     0.000 C 
HETATM   23  O   UNL     1      11.791   3.789  90.454  1.00  0.00     0.000 OA
HETATM   24  N   UNL     1      12.203   4.550  92.606  1.00  0.00     0.000 N 
HETATM   25  HN  UNL     1      11.975   5.239  93.313  1.00  0.00     0.000 HD
BRANCH  24  26
HETATM   26  C   UNL     1      13.234   3.597  92.929  1.00  0.00     0.000 C 
BRANCH  26  27
HETATM   27  C   UNL     1      13.035   2.247  92.228  1.00  0.00     0.000 C 
HETATM   28  C   UNL     1      14.052   1.202  92.674  1.00  0.00     0.000 C 
BRANCH  27  29
HETATM   29  O   UNL     1      11.721   1.758  92.497  1.00  0.00     0.000 OA
HETATM   30  H   UNL     1      11.173   1.910  91.709  1.00  0.00     0.000 HD
ENDBRANCH  27  29
ENDBRANCH  26  27
BRANCH  26  31
HETATM   31  C   UNL     1      14.576   4.220  92.561  1.00  0.00     0.000 C 
HETATM   32  O   UNL     1      14.846   4.609  91.426  1.00  0.00     0.000 OA
BRANCH  31  33
HETATM   33  P   UNL     1      15.442   4.255  93.627  1.00  0.00     0.000 P 
HETATM   34  H   UNL     1      14.691   4.207  94.784  1.00  0.00     0.000 HD
BRANCH  33  35
HETATM   35  O   UNL     1      16.274   5.382  93.701  1.00  0.00     0.000 OA
HETATM   36  H   UNL     1      15.792   5.993  93.118  1.00  0.00     0.000 HD
ENDBRANCH  33  35
ENDBRANCH  31  33
ENDBRANCH  26  31
ENDBRANCH  24  26
ENDBRANCH  19  22
ENDBRANCH  15  16
ENDBRANCH  11  14
ENDBRANCH   7   8
ENDBRANCH   2   7
TORSDOF 11
ENDMDL
MODEL 6
REMARK VINA RESULT:      -4.8      1.783      2.443
REMARK  11 active torsions:
REMARK  status: ('A' for Active; 'I' for Inactive)
REMARK    1  A    between atoms: O_2  and  C_18 
REMARK    2  A    between atoms: O_5  and  P_8 
REMARK    3  A    between atoms: N_6  and  C_11 
REMARK    4  A    between atoms: N_7  and  C_15 
REMARK       I    between atoms: N_7  and  C_24 
REMARK    5  A    between atoms: P_8  and  C_23 
REMARK    6  A    between atoms: C_11  and  C_14 
REMARK    7  A    between atoms: C_15  and  C_18 
REMARK    8  A    between atoms: C_15  and  C_23 
REMARK    9  A    between atoms: C_21  and  C_26 
REMARK   10  A    between atoms: C_24  and  C_25 
REMARK   11  A    between atoms: C_29  and  C_32 
ROOT
HETATM    1  O   UNL     1      15.808   4.203  93.821  1.00  0.00     0.000 OA
HETATM    2  N   UNL     1      13.989   2.698  92.232  1.00  0.00     0.000 N 
HETATM    3  C   UNL     1      14.296   4.102  91.926  1.00  0.00     0.000 C 
HETATM    4  C   UNL     1      14.134   2.454  93.674  1.00  0.00     0.000 C 
HETATM    5  C   UNL     1      15.701   4.443  92.417  1.00  0.00     0.000 C 
HETATM    6  C   UNL     1      15.541   2.834  94.124  1.00  0.00     0.000 C 
ENDROOT
BRANCH   2   7
HETATM    7  C   UNL     1      12.642   2.352  91.780  1.00  0.00     0.000 C 
BRANCH   7   8
HETATM    8  C   UNL     1      11.765   3.550  91.640  1.00  0.00     0.000 A 
HETATM    9  C   UNL     1      11.532   4.100  90.379  1.00  0.00     0.000 A 
HETATM   10  C   UNL     1      10.713   5.221  90.248  1.00  0.00     0.000 A 
HETATM   11  C   UNL     1      10.126   5.790  91.378  1.00  0.00     0.000 A 
HETATM   12  C   UNL     1      10.358   5.242  92.637  1.00  0.00     0.000 A 
HETATM   13  C   UNL     1      11.177   4.121  92.769  1.00  0.00     0.000 A 
BRANCH  11  14
HETATM   14  C   UNL     1       9.284   6.939  91.243  1.00  0.00     0.000 C 
HETATM   15  C   UNL     1       8.576   7.904  91.129  1.00  0.00     0.000 C 
BRANCH  15  16
HETATM   16  C   UNL     1       7.734   9.052  90.995  1.00  0.00     0.000 A 
HETATM   17  C   UNL     1       7.353   9.491  89.727  1.00  0.00     0.000 A 
HETATM   18  C   UNL     1       6.529  10.609  89.596  1.00  0.00     0.000 A 
HETATM   19  C   UNL     1       6.106  11.262  90.735  1.00  0.00     0.000 A 
HETATM   20  C   UNL     1       6.470  10.848  91.999  1.00  0.00     0.000 A 
HETATM   21  C   UNL     1       7.293   9.730  92.131  1.00  0.00     0.000 A 
BRANCH  19  22
HETATM   22  C   UNL     1       5.230  12.455  90.595  1.00  0.00     0.000 C 
HETATM   23  O   UNL     1       5.119  12.991  89.495  1.00  0.00     0.000 OA
HETATM   24  N   UNL     1       4.571  12.863  91.746  1.00  0.00     0.000 N 
HETATM   25  HN  UNL     1       4.692  12.355  92.614  1.00  0.00     0.000 HD
BRANCH  24  26
HETATM   26  C   UNL     1       3.669  13.987  91.766  1.00  0.00     0.000 C 
BRANCH  26  27
HETATM   27  C   UNL     1       2.272  13.636  91.238  1.00  0.00     0.000 C 
HETATM   28  C   UNL     1       1.996  12.137  91.269  1.00  0.00     0.000 C 
BRANCH  27  29
HETATM   29  O   UNL     1       1.284  14.306  92.021  1.00  0.00     0.000 OA
HETATM   30  H   UNL     1       1.717  14.671  92.811  1.00  0.00     0.000 HD
ENDBRANCH  27  29
ENDBRANCH  26  27
BRANCH  26  31
HETATM   31  C   UNL     1       3.606  14.508  93.198  1.00  0.00     0.000 C 
HETATM   32  O   UNL     1       3.067  15.572  93.500  1.00  0.00     0.000 OA
BRANCH  31  33
HETATM   33  P   UNL     1       4.248  13.676  94.082  1.00  0.00     0.000 P 
HETATM   34  H   UNL     1       5.607  13.876  93.942  1.00  0.00     0.000 HD
BRANCH  33  35
HETATM   35  O   UNL     1       3.997  12.306  93.922  1.00  0.00     0.000 OA
HETATM   36  H   UNL     1       3.121  12.337  93.502  1.00  0.00     0.000 HD
ENDBRANCH  33  35
ENDBRANCH  31  33
ENDBRANCH  26  31
ENDBRANCH  24  26
ENDBRANCH  19  22
ENDBRANCH  15  16
ENDBRANCH  11  14
ENDBRANCH   7   8
ENDBRANCH   2   7
TORSDOF 11
ENDMDL
MODEL 7
REMARK VINA RESULT:      -4.3      3.174     12.396
REMARK  11 active torsions:
REMARK  status: ('A' for Active; 'I' for Inactive)
REMARK    1  A    between atoms: O_2  and  C_18 
REMARK    2  A    between atoms: O_5  and  P_8 
REMARK    3  A    between atoms: N_6  and  C_11 
REMARK    4  A    between atoms: N_7  and  C_15 
REMARK       I    between atoms: N_7  and  C_24 
REMARK    5  A    between atoms: P_8  and  C_23 
REMARK    6  A    between atoms: C_11  and  C_14 
REMARK    7  A    between atoms: C_15  and  C_18 
REMARK    8  A    between atoms: C_15  and  C_23 
REMARK    9  A    between atoms: C_21  and  C_26 
REMARK   10  A    between atoms: C_24  and  C_25 
REMARK   11  A    between atoms: C_29  and  C_32 
ROOT
HETATM    1  O   UNL     1       5.526  14.810  89.053  1.00  0.00     0.000 OA
HETATM    2  N   UNL     1       4.063  12.619  90.130  1.00  0.00     0.000 N 
HETATM    3  C   UNL     1       3.833  13.995  90.590  1.00  0.00     0.000 C 
HETATM    4  C   UNL     1       5.450  12.466  89.672  1.00  0.00     0.000 C 
HETATM    5  C   UNL     1       4.169  14.977  89.471  1.00  0.00     0.000 C 
HETATM    6  C   UNL     1       5.749  13.483  88.575  1.00  0.00     0.000 C 
ENDROOT
BRANCH   2   7
HETATM    7  C   UNL     1       3.757  11.660  91.191  1.00  0.00     0.000 C 
BRANCH   7   8
HETATM    8  C   UNL     1       4.825  10.633  91.353  1.00  0.00     0.000 A 
HETATM    9  C   UNL     1       5.875  10.855  92.245  1.00  0.00     0.000 A 
HETATM   10  C   UNL     1       6.876   9.896  92.397  1.00  0.00     0.000 A 
HETATM   11  C   UNL     1       6.825   8.714  91.658  1.00  0.00     0.000 A 
HETATM   12  C   UNL     1       5.777   8.491  90.767  1.00  0.00     0.000 A 
HETATM   13  C   UNL     1       4.776   9.451  90.615  1.00  0.00     0.000 A 
BRANCH  11  14
HETATM   14  C   UNL     1       7.851   7.729  91.815  1.00  0.00     0.000 C 
HETATM   15  C   UNL     1       8.713   6.902  91.948  1.00  0.00     0.000 C 
BRANCH  15  16
HETATM   16  C   UNL     1       9.738   5.918  92.106  1.00  0.00     0.000 A 
HETATM   17  C   UNL     1      10.210   5.220  90.994  1.00  0.00     0.000 A 
HETATM   18  C   UNL     1      11.212   4.261  91.148  1.00  0.00     0.000 A 
HETATM   19  C   UNL     1      11.719   4.023  92.408  1.00  0.00     0.000 A 
HETATM   20  C   UNL     1      11.268   4.699  93.523  1.00  0.00     0.000 A 
HETATM   21  C   UNL     1      10.267   5.658  93.370  1.00  0.00     0.000 A 
BRANCH  19  22
HETATM   22  C   UNL     1      12.784   3.000  92.572  1.00  0.00     0.000 C 
HETATM   23  O   UNL     1      12.510   1.815  92.400  1.00  0.00     0.000 OA
HETATM   24  N   UNL     1      14.046   3.483  92.891  1.00  0.00     0.000 N 
HETATM   25  HN  UNL     1      14.204   4.478  92.993  1.00  0.00     0.000 HD
BRANCH  24  26
HETATM   26  C   UNL     1      15.187   2.619  93.059  1.00  0.00     0.000 C 
BRANCH  26  27
HETATM   27  C   UNL     1      15.701   2.050  91.730  1.00  0.00     0.000 C 
HETATM   28  C   UNL     1      15.341   2.931  90.539  1.00  0.00     0.000 C 
BRANCH  27  29
HETATM   29  O   UNL     1      17.120   1.906  91.789  1.00  0.00     0.000 OA
HETATM   30  H   UNL     1      17.517   2.793  91.755  1.00  0.00     0.000 HD
ENDBRANCH  27  29
ENDBRANCH  26  27
BRANCH  26  31
HETATM   31  C   UNL     1      16.272   3.414  93.777  1.00  0.00     0.000 C 
HETATM   32  O   UNL     1      17.344   2.923  94.124  1.00  0.00     0.000 OA
BRANCH  31  33
HETATM   33  P   UNL     1      15.890   4.712  94.018  1.00  0.00     0.000 P 
HETATM   34  H   UNL     1      14.528   4.797  93.815  1.00  0.00     0.000 HD
BRANCH  33  35
HETATM   35  O   UNL     1      16.506   5.687  93.221  1.00  0.00     0.000 OA
HETATM   36  H   UNL     1      16.104   5.486  92.358  1.00  0.00     0.000 HD
ENDBRANCH  33  35
ENDBRANCH  31  33
ENDBRANCH  26  31
ENDBRANCH  24  26
ENDBRANCH  19  22
ENDBRANCH  15  16
ENDBRANCH  11  14
ENDBRANCH   7   8
ENDBRANCH   2   7
TORSDOF 11
ENDMDL
MODEL 8
REMARK VINA RESULT:      -4.3      1.490      1.974
REMARK  11 active torsions:
REMARK  status: ('A' for Active; 'I' for Inactive)
REMARK    1  A    between atoms: O_2  and  C_18 
REMARK    2  A    between atoms: O_5  and  P_8 
REMARK    3  A    between atoms: N_6  and  C_11 
REMARK    4  A    between atoms: N_7  and  C_15 
REMARK       I    between atoms: N_7  and  C_24 
REMARK    5  A    between atoms: P_8  and  C_23 
REMARK    6  A    between atoms: C_11  and  C_14 
REMARK    7  A    between atoms: C_15  and  C_18 
REMARK    8  A    between atoms: C_15  and  C_23 
REMARK    9  A    between atoms: C_21  and  C_26 
REMARK   10  A    between atoms: C_24  and  C_25 
REMARK   11  A    between atoms: C_29  and  C_32 
ROOT
HETATM    1  O   UNL     1      17.078   3.381  92.707  1.00  0.00     0.000 OA
HETATM    2  N   UNL     1      14.782   1.724  92.997  1.00  0.00     0.000 N 
HETATM    3  C   UNL     1      15.084   2.404  91.729  1.00  0.00     0.000 C 
HETATM    4  C   UNL     1      15.317   2.501  94.124  1.00  0.00     0.000 C 
HETATM    5  C   UNL     1      16.590   2.617  91.603  1.00  0.00     0.000 C 
HETATM    6  C   UNL     1      16.816   2.713  93.941  1.00  0.00     0.000 C 
ENDROOT
BRANCH   2   7
HETATM    7  C   UNL     1      13.342   1.519  93.144  1.00  0.00     0.000 C 
BRANCH   7   8
HETATM    8  C   UNL     1      12.551   2.701  92.699  1.00  0.00     0.000 A 
HETATM    9  C   UNL     1      12.250   2.868  91.346  1.00  0.00     0.000 A 
HETATM   10  C   UNL     1      11.511   3.975  90.928  1.00  0.00     0.000 A 
HETATM   11  C   UNL     1      11.073   4.913  91.862  1.00  0.00     0.000 A 
HETATM   12  C   UNL     1      11.373   4.747  93.213  1.00  0.00     0.000 A 
HETATM   13  C   UNL     1      12.112   3.641  93.631  1.00  0.00     0.000 A 
BRANCH  11  14
HETATM   14  C   UNL     1      10.314   6.047  91.433  1.00  0.00     0.000 C 
HETATM   15  C   UNL     1       9.677   7.001  91.072  1.00  0.00     0.000 C 
BRANCH  15  16
HETATM   16  C   UNL     1       8.919   8.134  90.643  1.00  0.00     0.000 A 
HETATM   17  C   UNL     1       9.058   9.356  91.302  1.00  0.00     0.000 A 
HETATM   18  C   UNL     1       8.320  10.462  90.881  1.00  0.00     0.000 A 
HETATM   19  C   UNL     1       7.461  10.323  89.811  1.00  0.00     0.000 A 
HETATM   20  C   UNL     1       7.305   9.126  89.143  1.00  0.00     0.000 A 
HETATM   21  C   UNL     1       8.042   8.019  89.564  1.00  0.00     0.000 A 
BRANCH  19  22
HETATM   22  C   UNL     1       6.674  11.501  89.364  1.00  0.00     0.000 C 
HETATM   23  O   UNL     1       7.206  12.338  88.639  1.00  0.00     0.000 OA
HETATM   24  N   UNL     1       5.355  11.550  89.795  1.00  0.00     0.000 N 
HETATM   25  HN  UNL     1       4.977  10.809  90.372  1.00  0.00     0.000 HD
BRANCH  24  26
HETATM   26  C   UNL     1       4.458  12.615  89.426  1.00  0.00     0.000 C 
BRANCH  26  27
HETATM   27  C   UNL     1       3.031  12.123  89.153  1.00  0.00     0.000 C 
HETATM   28  C   UNL     1       2.984  11.031  88.090  1.00  0.00     0.000 C 
BRANCH  27  29
HETATM   29  O   UNL     1       2.462  11.619  90.361  1.00  0.00     0.000 OA
HETATM   30  H   UNL     1       1.830  10.917  90.130  1.00  0.00     0.000 HD
ENDBRANCH  27  29
ENDBRANCH  26  27
BRANCH  26  31
HETATM   31  C   UNL     1       4.482  13.653  90.544  1.00  0.00     0.000 C 
HETATM   32  O   UNL     1       4.428  13.354  91.735  1.00  0.00     0.000 OA
BRANCH  31  33
HETATM   33  P   UNL     1       4.532  14.937  90.059  1.00  0.00     0.000 P 
HETATM   34  H   UNL     1       3.291  15.241  89.538  1.00  0.00     0.000 HD
BRANCH  33  35
HETATM   35  O   UNL     1       5.488  15.176  89.061  1.00  0.00     0.000 OA
HETATM   36  H   UNL     1       5.046  14.770  88.296  1.00  0.00     0.000 HD
ENDBRANCH  33  35
ENDBRANCH  31  33
ENDBRANCH  26  31
ENDBRANCH  24  26
ENDBRANCH  19  22
ENDBRANCH  15  16
ENDBRANCH  11  14
ENDBRANCH   7   8
ENDBRANCH   2   7
TORSDOF 11
ENDMDL
MODEL 9
REMARK VINA RESULT:      -4.3      1.804      2.434
REMARK  11 active torsions:
REMARK  status: ('A' for Active; 'I' for Inactive)
REMARK    1  A    between atoms: O_2  and  C_18 
REMARK    2  A    between atoms: O_5  and  P_8 
REMARK    3  A    between atoms: N_6  and  C_11 
REMARK    4  A    between atoms: N_7  and  C_15 
REMARK       I    between atoms: N_7  and  C_24 
REMARK    5  A    between atoms: P_8  and  C_23 
REMARK    6  A    between atoms: C_11  and  C_14 
REMARK    7  A    between atoms: C_15  and  C_18 
REMARK    8  A    between atoms: C_15  and  C_23 
REMARK    9  A    between atoms: C_21  and  C_26 
REMARK   10  A    between atoms: C_24  and  C_25 
REMARK   11  A    between atoms: C_29  and  C_32 
ROOT
HETATM    1  O   UNL     1      17.351   3.721  94.001  1.00  0.00     0.000 OA
HETATM    2  N   UNL     1      14.905   3.100  92.683  1.00  0.00     0.000 N 
HETATM    3  C   UNL     1      15.951   2.086  92.880  1.00  0.00     0.000 C 
HETATM    4  C   UNL     1      15.510   4.436  92.592  1.00  0.00     0.000 C 
HETATM    5  C   UNL     1      16.769   2.422  94.124  1.00  0.00     0.000 C 
HETATM    6  C   UNL     1      16.339   4.716  93.841  1.00  0.00     0.000 C 
ENDROOT
BRANCH   2   7
HETATM    7  C   UNL     1      14.115   2.804  91.490  1.00  0.00     0.000 C 
BRANCH   7   8
HETATM    8  C   UNL     1      12.881   3.637  91.405  1.00  0.00     0.000 A 
HETATM    9  C   UNL     1      12.333   3.945  90.159  1.00  0.00     0.000 A 
HETATM   10  C   UNL     1      11.180   4.725  90.078  1.00  0.00     0.000 A 
HETATM   11  C   UNL     1      10.575   5.196  91.243  1.00  0.00     0.000 A 
HETATM   12  C   UNL     1      11.121   4.889  92.487  1.00  0.00     0.000 A 
HETATM   13  C   UNL     1      12.274   4.109  92.569  1.00  0.00     0.000 A 
BRANCH  11  14
HETATM   14  C   UNL     1       9.391   5.995  91.160  1.00  0.00     0.000 C 
HETATM   15  C   UNL     1       8.395   6.666  91.090  1.00  0.00     0.000 C 
BRANCH  15  16
HETATM   16  C   UNL     1       7.212   7.464  91.008  1.00  0.00     0.000 A 
HETATM   17  C   UNL     1       7.094   8.433  90.011  1.00  0.00     0.000 A 
HETATM   18  C   UNL     1       5.938   9.209  89.929  1.00  0.00     0.000 A 
HETATM   19  C   UNL     1       4.928   9.000  90.844  1.00  0.00     0.000 A 
HETATM   20  C   UNL     1       5.021   8.049  91.839  1.00  0.00     0.000 A 
HETATM   21  C   UNL     1       6.176   7.272  91.922  1.00  0.00     0.000 A 
BRANCH  19  22
HETATM   22  C   UNL     1       3.698   9.829  90.758  1.00  0.00     0.000 C 
HETATM   23  O   UNL     1       2.900   9.625  89.847  1.00  0.00     0.000 OA
HETATM   24  N   UNL     1       3.533  10.779  91.757  1.00  0.00     0.000 N 
HETATM   25  HN  UNL     1       4.223  10.873  92.493  1.00  0.00     0.000 HD
BRANCH  24  26
HETATM   26  C   UNL     1       2.382  11.642  91.825  1.00  0.00     0.000 C 
BRANCH  26  27
HETATM   27  C   UNL     1       1.442  11.288  92.984  1.00  0.00     0.000 C 
HETATM   28  C   UNL     1       1.521   9.816  93.372  1.00  0.00     0.000 C 
BRANCH  27  29
HETATM   29  O   UNL     1       1.767  12.086  94.122  1.00  0.00     0.000 OA
HETATM   30  H   UNL     1       1.473  12.996  93.951  1.00  0.00     0.000 HD
ENDBRANCH  27  29
ENDBRANCH  26  27
BRANCH  26  31
HETATM   31  C   UNL     1       2.882  13.078  91.935  1.00  0.00     0.000 C 
HETATM   32  O   UNL     1       2.143  14.055  91.829  1.00  0.00     0.000 OA
BRANCH  31  33
HETATM   33  P   UNL     1       4.241  13.141  92.124  1.00  0.00     0.000 P 
HETATM   34  H   UNL     1       4.702  11.855  92.318  1.00  0.00     0.000 HD
BRANCH  33  35
HETATM   35  O   UNL     1       4.671  13.920  93.208  1.00  0.00     0.000 OA
HETATM   36  H   UNL     1       4.568  13.281  93.933  1.00  0.00     0.000 HD
ENDBRANCH  33  35
ENDBRANCH  31  33
ENDBRANCH  26  31
ENDBRANCH  24  26
ENDBRANCH  19  22
ENDBRANCH  15  16
ENDBRANCH  11  14
ENDBRANCH   7   8
ENDBRANCH   2   7
TORSDOF 11
ENDMDL
