MODEL 1
REMARK VINA RESULT:      -7.0      0.000      0.000
REMARK  10 active torsions:
REMARK  status: ('A' for Active; 'I' for Inactive)
REMARK    1  A    between atoms: O_2  and  C_16 
REMARK    2  A    between atoms: N_5  and  C_9 
REMARK    3  A    between atoms: N_6  and  C_13 
REMARK       I    between atoms: N_6  and  C_22 
REMARK    4  A    between atoms: C_9  and  C_12 
REMARK    5  A    between atoms: C_13  and  C_16 
REMARK    6  A    between atoms: C_13  and  C_21 
REMARK    7  A    between atoms: C_19  and  C_24 
REMARK    8  A    between atoms: C_22  and  C_23 
REMARK    9  A    between atoms: C_27  and  C_30 
REMARK   10  A    between atoms: N_33  and  S_34 
ROOT
HETATM    1  C   UNL     1       5.887  11.207  89.664  1.00  0.00     0.056 A 
HETATM    2  C   UNL     1       5.372  10.126  90.347  1.00  0.00     0.005 A 
HETATM    3  C   UNL     1       7.200  11.254  89.243  1.00  0.00     0.005 A 
HETATM    4  C   UNL     1       7.537   9.065  90.207  1.00  0.00     0.042 A 
HETATM    5  C   UNL     1       6.206   9.042  90.623  1.00  0.00     0.008 A 
HETATM    6  C   UNL     1       8.035  10.171  89.517  1.00  0.00     0.008 A 
ENDROOT
BRANCH   1   7
HETATM    7  C   UNL     1       4.998  12.360  89.369  1.00  0.00     0.254 C 
HETATM    8  O   UNL     1       4.953  12.806  88.225  1.00  0.00    -0.268 OA
HETATM    9  N   UNL     1       4.250  12.839  90.435  1.00  0.00    -0.337 N 
HETATM   10  HN  UNL     1       4.320  12.404  91.348  1.00  0.00     0.164 HD
BRANCH   9  11
HETATM   11  C   UNL     1       3.324  13.936  90.303  1.00  0.00     0.172 C 
BRANCH  11  12
HETATM   12  C   UNL     1       1.964  13.646  90.950  1.00  0.00     0.136 C 
HETATM   13  C   UNL     1       2.018  12.474  91.924  1.00  0.00     0.034 C 
BRANCH  12  14
HETATM   14  O   UNL     1       1.510  14.806  91.646  1.00  0.00    -0.383 OA
HETATM   15  H   UNL     1       0.719  14.565  92.157  1.00  0.00     0.210 HD
ENDBRANCH  12  14
ENDBRANCH  11  12
BRANCH  11  16
HETATM   16  C   UNL     1       3.976  15.172  90.913  1.00  0.00     0.398 A 
HETATM   17  O   UNL     1       5.098  15.563  90.595  1.00  0.00    -0.136 OA
HETATM   18  N   UNL     1       4.930  15.611  92.105  1.00  0.00     0.142 N 
HETATM   19  HN  UNL     1       5.840  15.974  92.050  1.00  0.00     0.338 HD
BRANCH  18  20
HETATM   20  S   UNL     1       4.193  15.087  93.161  1.00  0.00     0.076 SA
HETATM   21  H   UNL     1       4.409  13.955  93.449  1.00  0.00     0.136 HD
ENDBRANCH  18  20
ENDBRANCH  11  16
ENDBRANCH   9  11
ENDBRANCH   1   7
BRANCH   4  22
HETATM   22  C   UNL     1       8.393   7.956  90.492  1.00  0.00    -0.059 C 
HETATM   23  C   UNL     1       9.112   7.023  90.732  1.00  0.00    -0.059 C 
BRANCH  23  24
HETATM   24  C   UNL     1       9.969   5.912  91.016  1.00  0.00     0.042 A 
HETATM   25  C   UNL     1      10.182   5.518  92.336  1.00  0.00     0.008 A 
HETATM   26  C   UNL     1      11.019   4.437  92.613  1.00  0.00    -0.002 A 
HETATM   27  C   UNL     1      11.639   3.749  91.570  1.00  0.00     0.011 A 
HETATM   28  C   UNL     1      11.424   4.145  90.249  1.00  0.00    -0.002 A 
HETATM   29  C   UNL     1      10.588   5.226  89.973  1.00  0.00     0.008 A 
BRANCH  27  30
HETATM   30  C   UNL     1      12.531   2.592  91.867  1.00  0.00     0.277 C 
BRANCH  30  31
HETATM   31  N   UNL     1      13.579   2.930  92.829  1.00  0.00     0.147 N 
HETATM   32  C   UNL     1      14.410   1.755  93.126  1.00  0.00     0.283 C 
HETATM   33  C   UNL     1      15.503   2.134  94.123  1.00  0.00     0.178 C 
HETATM   34  O   UNL     1      16.306   3.195  93.601  1.00  0.00    -0.350 OA
HETATM   35  C   UNL     1      15.509   4.351  93.339  1.00  0.00     0.178 C 
HETATM   36  C   UNL     1      14.417   4.026  92.325  1.00  0.00     0.283 C 
ENDBRANCH  30  31
ENDBRANCH  27  30
ENDBRANCH  23  24
ENDBRANCH   4  22
TORSDOF 10
ENDMDL
MODEL 2
REMARK VINA RESULT:      -6.8      1.116      1.381
REMARK  10 active torsions:
REMARK  status: ('A' for Active; 'I' for Inactive)
REMARK    1  A    between atoms: O_2  and  C_16 
REMARK    2  A    between atoms: N_5  and  C_9 
REMARK    3  A    between atoms: N_6  and  C_13 
REMARK       I    between atoms: N_6  and  C_22 
REMARK    4  A    between atoms: C_9  and  C_12 
REMARK    5  A    between atoms: C_13  and  C_16 
REMARK    6  A    between atoms: C_13  and  C_21 
REMARK    7  A    between atoms: C_19  and  C_24 
REMARK    8  A    between atoms: C_22  and  C_23 
REMARK    9  A    between atoms: C_27  and  C_30 
REMARK   10  A    between atoms: N_33  and  S_34 
ROOT
HETATM    1  C   UNL     1       5.541  10.275  89.523  1.00  0.00     0.056 A 
HETATM    2  C   UNL     1       6.746  10.653  90.077  1.00  0.00     0.005 A 
HETATM    3  C   UNL     1       5.233   8.956  89.261  1.00  0.00     0.005 A 
HETATM    4  C   UNL     1       7.399   8.328  90.126  1.00  0.00     0.042 A 
HETATM    5  C   UNL     1       7.686   9.669  90.382  1.00  0.00     0.008 A 
HETATM    6  C   UNL     1       6.172   7.971  89.565  1.00  0.00     0.008 A 
ENDROOT
BRANCH   1   7
HETATM    7  C   UNL     1       4.539  11.323  89.200  1.00  0.00     0.254 C 
HETATM    8  O   UNL     1       4.093  11.396  88.058  1.00  0.00    -0.268 OA
HETATM    9  N   UNL     1       4.158  12.145  90.252  1.00  0.00    -0.337 N 
HETATM   10  HN  UNL     1       4.550  12.010  91.176  1.00  0.00     0.164 HD
BRANCH   9  11
HETATM   11  C   UNL     1       3.178  13.191  90.104  1.00  0.00     0.172 C 
BRANCH  11  12
HETATM   12  C   UNL     1       2.371  13.435  91.385  1.00  0.00     0.136 C 
HETATM   13  C   UNL     1       1.379  14.583  91.240  1.00  0.00     0.034 C 
BRANCH  12  14
HETATM   14  O   UNL     1       1.659  12.248  91.733  1.00  0.00    -0.383 OA
HETATM   15  H   UNL     1       2.062  11.501  91.261  1.00  0.00     0.210 HD
ENDBRANCH  12  14
ENDBRANCH  11  12
BRANCH  11  16
HETATM   16  C   UNL     1       3.910  14.454  89.660  1.00  0.00     0.398 A 
HETATM   17  O   UNL     1       4.821  14.445  88.835  1.00  0.00    -0.136 OA
HETATM   18  N   UNL     1       5.182  15.338  90.011  1.00  0.00     0.142 N 
HETATM   19  HN  UNL     1       5.988  15.480  89.470  1.00  0.00     0.338 HD
BRANCH  18  20
HETATM   20  S   UNL     1       4.895  15.590  91.348  1.00  0.00     0.076 SA
HETATM   21  H   UNL     1       4.187  16.517  91.574  1.00  0.00     0.136 HD
ENDBRANCH  18  20
ENDBRANCH  11  16
ENDBRANCH   9  11
ENDBRANCH   1   7
BRANCH   4  22
HETATM   22  C   UNL     1       8.364   7.320  90.436  1.00  0.00    -0.059 C 
HETATM   23  C   UNL     1       9.175   6.471  90.696  1.00  0.00    -0.059 C 
BRANCH  23  24
HETATM   24  C   UNL     1      10.140   5.462  91.005  1.00  0.00     0.042 A 
HETATM   25  C   UNL     1      10.133   4.852  92.260  1.00  0.00     0.008 A 
HETATM   26  C   UNL     1      11.075   3.869  92.562  1.00  0.00    -0.002 A 
HETATM   27  C   UNL     1      12.024   3.496  91.609  1.00  0.00     0.011 A 
HETATM   28  C   UNL     1      12.029   4.106  90.355  1.00  0.00    -0.002 A 
HETATM   29  C   UNL     1      11.087   5.089  90.053  1.00  0.00     0.008 A 
BRANCH  27  30
HETATM   30  C   UNL     1      13.029   2.443  91.932  1.00  0.00     0.277 C 
BRANCH  30  31
HETATM   31  N   UNL     1      14.002   2.890  92.928  1.00  0.00     0.147 N 
HETATM   32  C   UNL     1      15.074   1.898  93.089  1.00  0.00     0.283 C 
HETATM   33  C   UNL     1      16.083   2.391  94.124  1.00  0.00     0.178 C 
HETATM   34  O   UNL     1      16.625   3.652  93.728  1.00  0.00    -0.350 OA
HETATM   35  C   UNL     1      15.593   4.630  93.599  1.00  0.00     0.178 C 
HETATM   36  C   UNL     1      14.573   4.192  92.553  1.00  0.00     0.283 C 
ENDBRANCH  30  31
ENDBRANCH  27  30
ENDBRANCH  23  24
ENDBRANCH   4  22
TORSDOF 10
ENDMDL
MODEL 3
REMARK VINA RESULT:      -6.5      1.466      2.124
REMARK  10 active torsions:
REMARK  status: ('A' for Active; 'I' for Inactive)
REMARK    1  A    between atoms: O_2  and  C_16 
REMARK    2  A    between atoms: N_5  and  C_9 
REMARK    3  A    between atoms: N_6  and  C_13 
REMARK       I    between atoms: N_6  and  C_22 
REMARK    4  A    between atoms: C_9  and  C_12 
REMARK    5  A    between atoms: C_13  and  C_16 
REMARK    6  A    between atoms: C_13  and  C_21 
REMARK    7  A    between atoms: C_19  and  C_24 
REMARK    8  A    between atoms: C_22  and  C_23 
REMARK    9  A    between atoms: C_27  and  C_30 
REMARK   10  A    between atoms: N_33  and  S_34 
ROOT
HETATM    1  C   UNL     1       5.155  10.430  90.977  1.00  0.00     0.056 A 
HETATM    2  C   UNL     1       4.775   9.116  90.801  1.00  0.00     0.005 A 
HETATM    3  C   UNL     1       6.455  10.787  91.269  1.00  0.00     0.005 A 
HETATM    4  C   UNL     1       7.059   8.449  91.217  1.00  0.00     0.042 A 
HETATM    5  C   UNL     1       5.737   8.113  90.922  1.00  0.00     0.008 A 
HETATM    6  C   UNL     1       7.418   9.785  91.390  1.00  0.00     0.008 A 
ENDROOT
BRANCH   1   7
HETATM    7  C   UNL     1       4.130  11.497  90.846  1.00  0.00     0.254 C 
HETATM    8  O   UNL     1       3.043  11.227  90.341  1.00  0.00    -0.268 OA
HETATM    9  N   UNL     1       4.485  12.745  91.342  1.00  0.00    -0.337 N 
HETATM   10  HN  UNL     1       5.392  12.888  91.769  1.00  0.00     0.164 HD
BRANCH   9  11
HETATM   11  C   UNL     1       3.591  13.874  91.309  1.00  0.00     0.172 C 
BRANCH  11  12
HETATM   12  C   UNL     1       3.460  14.488  89.910  1.00  0.00     0.136 C 
HETATM   13  C   UNL     1       4.782  14.499  89.151  1.00  0.00     0.034 C 
BRANCH  12  14
HETATM   14  O   UNL     1       2.498  13.753  89.154  1.00  0.00    -0.383 OA
HETATM   15  H   UNL     1       2.281  14.264  88.356  1.00  0.00     0.210 HD
ENDBRANCH  12  14
ENDBRANCH  11  12
BRANCH  11  16
HETATM   16  C   UNL     1       2.238  13.413  91.841  1.00  0.00     0.398 A 
HETATM   17  O   UNL     1       1.190  14.018  91.622  1.00  0.00    -0.136 OA
HETATM   18  N   UNL     1       1.263  13.601  93.081  1.00  0.00     0.142 N 
HETATM   19  HN  UNL     1       0.379  14.026  93.098  1.00  0.00     0.338 HD
BRANCH  18  20
HETATM   20  S   UNL     1       2.144  13.233  94.092  1.00  0.00     0.076 SA
HETATM   21  H   UNL     1       3.292  13.161  93.796  1.00  0.00     0.136 HD
ENDBRANCH  18  20
ENDBRANCH  11  16
ENDBRANCH   9  11
ENDBRANCH   1   7
BRANCH   4  22
HETATM   22  C   UNL     1       8.045   7.421  91.344  1.00  0.00    -0.059 C 
HETATM   23  C   UNL     1       8.874   6.557  91.451  1.00  0.00    -0.059 C 
BRANCH  23  24
HETATM   24  C   UNL     1       9.860   5.529  91.579  1.00  0.00     0.042 A 
HETATM   25  C   UNL     1      10.598   5.130  90.465  1.00  0.00     0.008 A 
HETATM   26  C   UNL     1      11.558   4.126  90.589  1.00  0.00    -0.002 A 
HETATM   27  C   UNL     1      11.781   3.523  91.828  1.00  0.00     0.011 A 
HETATM   28  C   UNL     1      11.042   3.924  92.941  1.00  0.00    -0.002 A 
HETATM   29  C   UNL     1      10.082   4.927  92.816  1.00  0.00     0.008 A 
BRANCH  27  30
HETATM   30  C   UNL     1      12.809   2.451  91.960  1.00  0.00     0.277 C 
BRANCH  30  31
HETATM   31  N   UNL     1      13.826   2.775  92.959  1.00  0.00     0.147 N 
HETATM   32  C   UNL     1      14.799   1.681  93.084  1.00  0.00     0.283 C 
HETATM   33  C   UNL     1      15.856   2.045  94.124  1.00  0.00     0.178 C 
HETATM   34  O   UNL     1      16.514   3.260  93.759  1.00  0.00    -0.350 OA
HETATM   35  C   UNL     1      15.578   4.335  93.666  1.00  0.00     0.178 C 
HETATM   36  C   UNL     1      14.516   4.026  92.617  1.00  0.00     0.283 C 
ENDBRANCH  30  31
ENDBRANCH  27  30
ENDBRANCH  23  24
ENDBRANCH   4  22
TORSDOF 10
ENDMDL
MODEL 4
REMARK VINA RESULT:      -6.4      1.530      1.830
REMARK  10 active torsions:
REMARK  status: ('A' for Active; 'I' for Inactive)
REMARK    1  A    between atoms: O_2  and  C_16 
REMARK    2  A    between atoms: N_5  and  C_9 
REMARK    3  A    between atoms: N_6  and  C_13 
REMARK       I    between atoms: N_6  and  C_22 
REMARK    4  A    between atoms: C_9  and  C_12 
REMARK    5  A    between atoms: C_13  and  C_16 
REMARK    6  A    between atoms: C_13  and  C_21 
REMARK    7  A    between atoms: C_19  and  C_24 
REMARK    8  A    between atoms: C_22  and  C_23 
REMARK    9  A    between atoms: C_27  and  C_30 
REMARK   10  A    between atoms: N_33  and  S_34 
ROOT
HETATM    1  C   UNL     1       4.333   9.770  91.100  1.00  0.00     0.056 A 
HETATM    2  C   UNL     1       4.034   8.429  91.226  1.00  0.00     0.005 A 
HETATM    3  C   UNL     1       5.631  10.234  91.062  1.00  0.00     0.005 A 
HETATM    4  C   UNL     1       6.401   7.955  91.283  1.00  0.00     0.042 A 
HETATM    5  C   UNL     1       5.079   7.511  91.319  1.00  0.00     0.008 A 
HETATM    6  C   UNL     1       6.677   9.317  91.155  1.00  0.00     0.008 A 
ENDROOT
BRANCH   1   7
HETATM    7  C   UNL     1       3.218  10.748  91.000  1.00  0.00     0.254 C 
HETATM    8  O   UNL     1       2.141  10.383  90.535  1.00  0.00    -0.268 OA
HETATM    9  N   UNL     1       3.485  12.024  91.474  1.00  0.00    -0.337 N 
HETATM   10  HN  UNL     1       4.392  12.246  91.868  1.00  0.00     0.164 HD
BRANCH   9  11
HETATM   11  C   UNL     1       2.500  13.076  91.468  1.00  0.00     0.172 C 
BRANCH  11  12
HETATM   12  C   UNL     1       2.326  13.735  92.841  1.00  0.00     0.136 C 
HETATM   13  C   UNL     1       3.564  13.591  93.719  1.00  0.00     0.034 C 
BRANCH  12  14
HETATM   14  O   UNL     1       2.037  15.123  92.672  1.00  0.00    -0.383 OA
HETATM   15  H   UNL     1       2.879  15.604  92.608  1.00  0.00     0.210 HD
ENDBRANCH  12  14
ENDBRANCH  11  12
BRANCH  11  16
HETATM   16  C   UNL     1       2.913  14.095  90.411  1.00  0.00     0.398 A 
HETATM   17  O   UNL     1       3.191  13.785  89.254  1.00  0.00    -0.136 OA
HETATM   18  N   UNL     1       4.203  14.785  89.791  1.00  0.00     0.142 N 
HETATM   19  HN  UNL     1       4.564  14.688  88.884  1.00  0.00     0.338 HD
BRANCH  18  20
HETATM   20  S   UNL     1       4.741  15.304  90.962  1.00  0.00     0.076 SA
HETATM   21  H   UNL     1       4.192  16.251  91.426  1.00  0.00     0.136 HD
ENDBRANCH  18  20
ENDBRANCH  11  16
ENDBRANCH   9  11
ENDBRANCH   1   7
BRANCH   4  22
HETATM   22  C   UNL     1       7.473   7.014  91.381  1.00  0.00    -0.059 C 
HETATM   23  C   UNL     1       8.374   6.223  91.463  1.00  0.00    -0.059 C 
BRANCH  23  24
HETATM   24  C   UNL     1       9.447   5.281  91.560  1.00  0.00     0.042 A 
HETATM   25  C   UNL     1      10.063   5.051  92.790  1.00  0.00     0.008 A 
HETATM   26  C   UNL     1      11.110   4.135  92.885  1.00  0.00    -0.002 A 
HETATM   27  C   UNL     1      11.539   3.447  91.749  1.00  0.00     0.011 A 
HETATM   28  C   UNL     1      10.922   3.677  90.520  1.00  0.00    -0.002 A 
HETATM   29  C   UNL     1       9.875   4.594  90.426  1.00  0.00     0.008 A 
BRANCH  27  30
HETATM   30  C   UNL     1      12.657   2.465  91.852  1.00  0.00     0.277 C 
BRANCH  30  31
HETATM   31  N   UNL     1      13.667   2.873  92.827  1.00  0.00     0.147 N 
HETATM   32  C   UNL     1      14.590   1.765  93.113  1.00  0.00     0.283 C 
HETATM   33  C   UNL     1      15.642   2.217  94.123  1.00  0.00     0.178 C 
HETATM   34  O   UNL     1      16.359   3.347  93.623  1.00  0.00    -0.350 OA
HETATM   35  C   UNL     1      15.473   4.438  93.371  1.00  0.00     0.178 C 
HETATM   36  C   UNL     1      14.418   4.041  92.344  1.00  0.00     0.283 C 
ENDBRANCH  30  31
ENDBRANCH  27  30
ENDBRANCH  23  24
ENDBRANCH   4  22
TORSDOF 10
ENDMDL
MODEL 5
REMARK VINA RESULT:      -5.4      3.617     12.404
REMARK  10 active torsions:
REMARK  status: ('A' for Active; 'I' for Inactive)
REMARK    1  A    between atoms: O_2  and  C_16 
REMARK    2  A    between atoms: N_5  and  C_9 
REMARK    3  A    between atoms: N_6  and  C_13 
REMARK       I    between atoms: N_6  and  C_22 
REMARK    4  A    between atoms: C_9  and  C_12 
REMARK    5  A    between atoms: C_13  and  C_16 
REMARK    6  A    between atoms: C_13  and  C_21 
REMARK    7  A    between atoms: C_19  and  C_24 
REMARK    8  A    between atoms: C_22  and  C_23 
REMARK    9  A    between atoms: C_27  and  C_30 
REMARK   10  A    between atoms: N_33  and  S_34 
ROOT
HETATM    1  C   UNL     1      10.202   5.578  89.917  1.00  0.00     0.056 A 
HETATM    2  C   UNL     1       9.747   6.040  88.700  1.00  0.00     0.005 A 
HETATM    3  C   UNL     1       9.784   6.121  91.114  1.00  0.00     0.005 A 
HETATM    4  C   UNL     1       8.395   7.660  89.875  1.00  0.00     0.042 A 
HETATM    5  C   UNL     1       8.833   7.093  88.678  1.00  0.00     0.008 A 
HETATM    6  C   UNL     1       8.870   7.175  91.093  1.00  0.00     0.008 A 
ENDROOT
BRANCH   1   7
HETATM    7  C   UNL     1      11.174   4.454  89.941  1.00  0.00     0.254 C 
HETATM    8  O   UNL     1      11.297   3.747  88.944  1.00  0.00    -0.268 OA
HETATM    9  N   UNL     1      11.903   4.305  91.112  1.00  0.00    -0.337 N 
HETATM   10  HN  UNL     1      11.766   4.944  91.887  1.00  0.00     0.164 HD
BRANCH   9  11
HETATM   11  C   UNL     1      12.901   3.279  91.280  1.00  0.00     0.172 C 
BRANCH  11  12
HETATM   12  C   UNL     1      14.327   3.795  91.055  1.00  0.00     0.136 C 
HETATM   13  C   UNL     1      15.118   2.921  90.087  1.00  0.00     0.034 C 
BRANCH  12  14
HETATM   14  O   UNL     1      14.278   5.126  90.542  1.00  0.00    -0.383 OA
HETATM   15  H   UNL     1      15.145   5.541  90.688  1.00  0.00     0.210 HD
ENDBRANCH  12  14
ENDBRANCH  11  12
BRANCH  11  16
HETATM   16  C   UNL     1      12.737   2.695  92.680  1.00  0.00     0.398 A 
HETATM   17  O   UNL     1      12.086   3.248  93.564  1.00  0.00    -0.136 OA
HETATM   18  N   UNL     1      13.401   2.726  94.123  1.00  0.00     0.142 N 
HETATM   19  HN  UNL     1      13.028   3.093  94.953  1.00  0.00     0.338 HD
BRANCH  18  20
HETATM   20  S   UNL     1      14.687   2.339  93.765  1.00  0.00     0.076 SA
HETATM   21  H   UNL     1      15.339   3.141  93.178  1.00  0.00     0.136 HD
ENDBRANCH  18  20
ENDBRANCH  11  16
ENDBRANCH   9  11
ENDBRANCH   1   7
BRANCH   4  22
HETATM   22  C   UNL     1       7.460   8.742  89.852  1.00  0.00    -0.059 C 
HETATM   23  C   UNL     1       6.674   9.651  89.833  1.00  0.00    -0.059 C 
BRANCH  23  24
HETATM   24  C   UNL     1       5.739  10.734  89.811  1.00  0.00     0.042 A 
HETATM   25  C   UNL     1       4.466  10.565  90.355  1.00  0.00     0.008 A 
HETATM   26  C   UNL     1       3.553  11.620  90.332  1.00  0.00    -0.002 A 
HETATM   27  C   UNL     1       3.915  12.843  89.766  1.00  0.00     0.011 A 
HETATM   28  C   UNL     1       5.189  13.010  89.223  1.00  0.00    -0.002 A 
HETATM   29  C   UNL     1       6.101  11.955  89.246  1.00  0.00     0.008 A 
BRANCH  27  30
HETATM   30  C   UNL     1       2.940  13.970  89.744  1.00  0.00     0.277 C 
BRANCH  30  31
HETATM   31  N   UNL     1       2.849  14.653  91.033  1.00  0.00     0.147 N 
HETATM   32  C   UNL     1       2.002  13.895  91.965  1.00  0.00     0.283 C 
HETATM   33  C   UNL     1       1.931  14.621  93.306  1.00  0.00     0.178 C 
HETATM   34  O   UNL     1       3.241  14.792  93.849  1.00  0.00    -0.350 OA
HETATM   35  C   UNL     1       4.061  15.555  92.963  1.00  0.00     0.178 C 
HETATM   36  C   UNL     1       4.183  14.853  91.615  1.00  0.00     0.283 C 
ENDBRANCH  30  31
ENDBRANCH  27  30
ENDBRANCH  23  24
ENDBRANCH   4  22
TORSDOF 10
ENDMDL
MODEL 6
REMARK VINA RESULT:      -5.3      2.002      2.831
REMARK  10 active torsions:
REMARK  status: ('A' for Active; 'I' for Inactive)
REMARK    1  A    between atoms: O_2  and  C_16 
REMARK    2  A    between atoms: N_5  and  C_9 
REMARK    3  A    between atoms: N_6  and  C_13 
REMARK       I    between atoms: N_6  and  C_22 
REMARK    4  A    between atoms: C_9  and  C_12 
REMARK    5  A    between atoms: C_13  and  C_16 
REMARK    6  A    between atoms: C_13  and  C_21 
REMARK    7  A    between atoms: C_19  and  C_24 
REMARK    8  A    between atoms: C_22  and  C_23 
REMARK    9  A    between atoms: C_27  and  C_30 
REMARK   10  A    between atoms: N_33  and  S_34 
ROOT
HETATM    1  C   UNL     1       5.203  10.697  92.928  1.00  0.00     0.056 A 
HETATM    2  C   UNL     1       6.251  10.615  93.822  1.00  0.00     0.005 A 
HETATM    3  C   UNL     1       5.028   9.780  91.913  1.00  0.00     0.005 A 
HETATM    4  C   UNL     1       7.009   8.629  92.675  1.00  0.00     0.042 A 
HETATM    5  C   UNL     1       7.165   9.569  93.694  1.00  0.00     0.008 A 
HETATM    6  C   UNL     1       5.941   8.734  91.785  1.00  0.00     0.008 A 
ENDROOT
BRANCH   1   7
HETATM    7  C   UNL     1       4.229  11.810  93.066  1.00  0.00     0.254 C 
HETATM    8  O   UNL     1       3.423  11.791  93.993  1.00  0.00    -0.268 OA
HETATM    9  N   UNL     1       4.325  12.823  92.121  1.00  0.00    -0.337 N 
HETATM   10  HN  UNL     1       5.033  12.783  91.397  1.00  0.00     0.164 HD
BRANCH   9  11
HETATM   11  C   UNL     1       3.467  13.981  92.135  1.00  0.00     0.172 C 
BRANCH  11  12
HETATM   12  C   UNL     1       4.155  15.222  92.719  1.00  0.00     0.136 C 
HETATM   13  C   UNL     1       4.710  14.978  94.118  1.00  0.00     0.034 C 
BRANCH  12  14
HETATM   14  O   UNL     1       5.221  15.625  91.861  1.00  0.00    -0.383 OA
HETATM   15  H   UNL     1       4.840  16.106  91.107  1.00  0.00     0.210 HD
ENDBRANCH  12  14
ENDBRANCH  11  12
BRANCH  11  16
HETATM   16  C   UNL     1       2.996  14.229  90.706  1.00  0.00     0.398 A 
HETATM   17  O   UNL     1       2.011  13.677  90.221  1.00  0.00    -0.136 OA
HETATM   18  N   UNL     1       3.164  13.667  89.230  1.00  0.00     0.142 N 
HETATM   19  HN  UNL     1       2.489  13.226  88.670  1.00  0.00     0.338 HD
BRANCH  18  20
HETATM   20  S   UNL     1       4.547  13.763  89.130  1.00  0.00     0.076 SA
HETATM   21  H   UNL     1       5.012  13.625  88.045  1.00  0.00     0.136 HD
ENDBRANCH  18  20
ENDBRANCH  11  16
ENDBRANCH   9  11
ENDBRANCH   1   7
BRANCH   4  22
HETATM   22  C   UNL     1       7.948   7.558  92.543  1.00  0.00    -0.059 C 
HETATM   23  C   UNL     1       8.738   6.659  92.432  1.00  0.00    -0.059 C 
BRANCH  23  24
HETATM   24  C   UNL     1       9.677   5.587  92.300  1.00  0.00     0.042 A 
HETATM   25  C   UNL     1      10.481   5.230  93.382  1.00  0.00     0.008 A 
HETATM   26  C   UNL     1      11.398   4.187  93.253  1.00  0.00    -0.002 A 
HETATM   27  C   UNL     1      11.509   3.501  92.043  1.00  0.00     0.011 A 
HETATM   28  C   UNL     1      10.704   3.860  90.962  1.00  0.00    -0.002 A 
HETATM   29  C   UNL     1       9.787   4.903  91.092  1.00  0.00     0.008 A 
BRANCH  27  30
HETATM   30  C   UNL     1      12.488   2.385  91.907  1.00  0.00     0.277 C 
BRANCH  30  31
HETATM   31  N   UNL     1      13.837   2.774  92.316  1.00  0.00     0.147 N 
HETATM   32  C   UNL     1      14.041   4.218  92.130  1.00  0.00     0.283 C 
HETATM   33  C   UNL     1      15.450   4.602  92.573  1.00  0.00     0.178 C 
HETATM   34  O   UNL     1      15.657   4.241  93.940  1.00  0.00    -0.350 OA
HETATM   35  C   UNL     1      15.491   2.835  94.124  1.00  0.00     0.178 C 
HETATM   36  C   UNL     1      14.084   2.408  93.718  1.00  0.00     0.283 C 
ENDBRANCH  30  31
ENDBRANCH  27  30
ENDBRANCH  23  24
ENDBRANCH   4  22
TORSDOF 10
ENDMDL
MODEL 7
REMARK VINA RESULT:      -5.3      2.485      3.381
REMARK  10 active torsions:
REMARK  status: ('A' for Active; 'I' for Inactive)
REMARK    1  A    between atoms: O_2  and  C_16 
REMARK    2  A    between atoms: N_5  and  C_9 
REMARK    3  A    between atoms: N_6  and  C_13 
REMARK       I    between atoms: N_6  and  C_22 
REMARK    4  A    between atoms: C_9  and  C_12 
REMARK    5  A    between atoms: C_13  and  C_16 
REMARK    6  A    between atoms: C_13  and  C_21 
REMARK    7  A    between atoms: C_19  and  C_24 
REMARK    8  A    between atoms: C_22  and  C_23 
REMARK    9  A    between atoms: C_27  and  C_30 
REMARK   10  A    between atoms: N_33  and  S_34 
ROOT
HETATM    1  C   UNL     1       6.277   8.051  88.736  1.00  0.00     0.056 A 
HETATM    2  C   UNL     1       7.454   8.677  89.092  1.00  0.00     0.005 A 
HETATM    3  C   UNL     1       6.051   6.714  88.983  1.00  0.00     0.005 A 
HETATM    4  C   UNL     1       8.246   6.576  89.983  1.00  0.00     0.042 A 
HETATM    5  C   UNL     1       8.450   7.932  89.722  1.00  0.00     0.008 A 
HETATM    6  C   UNL     1       7.047   5.967  89.613  1.00  0.00     0.008 A 
ENDROOT
BRANCH   1   7
HETATM    7  C   UNL     1       5.216   8.847  88.066  1.00  0.00     0.254 C 
HETATM    8  O   UNL     1       4.969   8.639  86.881  1.00  0.00    -0.268 OA
HETATM    9  N   UNL     1       4.553   9.769  88.863  1.00  0.00    -0.337 N 
HETATM   10  HN  UNL     1       4.794   9.868  89.843  1.00  0.00     0.164 HD
BRANCH   9  11
HETATM   11  C   UNL     1       3.483  10.597  88.366  1.00  0.00     0.172 C 
BRANCH  11  12
HETATM   12  C   UNL     1       2.101   9.961  88.558  1.00  0.00     0.136 C 
HETATM   13  C   UNL     1       1.801   8.890  87.515  1.00  0.00     0.034 C 
BRANCH  12  14
HETATM   14  O   UNL     1       2.021   9.376  89.858  1.00  0.00    -0.383 OA
HETATM   15  H   UNL     1       2.254   8.435  89.784  1.00  0.00     0.210 HD
ENDBRANCH  12  14
ENDBRANCH  11  12
BRANCH  11  16
HETATM   16  C   UNL     1       3.575  11.948  89.069  1.00  0.00     0.398 A 
HETATM   17  O   UNL     1       2.586  12.612  89.374  1.00  0.00    -0.136 OA
HETATM   18  N   UNL     1       3.654  13.504  88.761  1.00  0.00     0.142 N 
HETATM   19  HN  UNL     1       2.984  14.194  88.956  1.00  0.00     0.338 HD
BRANCH  18  20
HETATM   20  S   UNL     1       4.778  13.494  87.944  1.00  0.00     0.076 SA
HETATM   21  H   UNL     1       5.713  14.124  88.320  1.00  0.00     0.136 HD
ENDBRANCH  18  20
ENDBRANCH  11  16
ENDBRANCH   9  11
ENDBRANCH   1   7
BRANCH   4  22
HETATM   22  C   UNL     1       9.268   5.811  90.627  1.00  0.00    -0.059 C 
HETATM   23  C   UNL     1      10.127   5.169  91.169  1.00  0.00    -0.059 C 
BRANCH  23  24
HETATM   24  C   UNL     1      11.149   4.403  91.813  1.00  0.00     0.042 A 
HETATM   25  C   UNL     1      11.192   4.331  93.205  1.00  0.00     0.008 A 
HETATM   26  C   UNL     1      12.190   3.586  93.834  1.00  0.00    -0.002 A 
HETATM   27  C   UNL     1      13.143   2.912  93.070  1.00  0.00     0.011 A 
HETATM   28  C   UNL     1      13.098   2.984  91.678  1.00  0.00    -0.002 A 
HETATM   29  C   UNL     1      12.101   3.730  91.049  1.00  0.00     0.008 A 
BRANCH  27  30
HETATM   30  C   UNL     1      14.207   2.114  93.743  1.00  0.00     0.277 C 
BRANCH  30  31
HETATM   31  N   UNL     1      15.361   2.930  94.119  1.00  0.00     0.147 N 
HETATM   32  C   UNL     1      16.589   2.410  93.502  1.00  0.00     0.283 C 
HETATM   33  C   UNL     1      17.776   3.283  93.900  1.00  0.00     0.178 C 
HETATM   34  O   UNL     1      17.553   4.638  93.503  1.00  0.00    -0.350 OA
HETATM   35  C   UNL     1      16.377   5.160  94.123  1.00  0.00     0.178 C 
HETATM   36  C   UNL     1      15.157   4.333  93.732  1.00  0.00     0.283 C 
ENDBRANCH  30  31
ENDBRANCH  27  30
ENDBRANCH  23  24
ENDBRANCH   4  22
TORSDOF 10
ENDMDL
MODEL 8
REMARK VINA RESULT:      -5.3      3.424     12.361
REMARK  10 active torsions:
REMARK  status: ('A' for Active; 'I' for Inactive)
REMARK    1  A    between atoms: O_2  and  C_16 
REMARK    2  A    between atoms: N_5  and  C_9 
REMARK    3  A    between atoms: N_6  and  C_13 
REMARK       I    between atoms: N_6  and  C_22 
REMARK    4  A    between atoms: C_9  and  C_12 
REMARK    5  A    between atoms: C_13  and  C_16 
REMARK    6  A    between atoms: C_13  and  C_21 
REMARK    7  A    between atoms: C_19  and  C_24 
REMARK    8  A    between atoms: C_22  and  C_23 
REMARK    9  A    between atoms: C_27  and  C_30 
REMARK   10  A    between atoms: N_33  and  S_34 
ROOT
HETATM    1  C   UNL     1      10.156   5.889  89.741  1.00  0.00     0.056 A 
HETATM    2  C   UNL     1       9.634   6.280  90.957  1.00  0.00     0.005 A 
HETATM    3  C   UNL     1       9.778   6.480  88.554  1.00  0.00     0.005 A 
HETATM    4  C   UNL     1       8.294   7.923  89.799  1.00  0.00     0.042 A 
HETATM    5  C   UNL     1       8.692   7.308  90.987  1.00  0.00     0.008 A 
HETATM    6  C   UNL     1       8.837   7.509  88.583  1.00  0.00     0.008 A 
ENDROOT
BRANCH   1   7
HETATM    7  C   UNL     1      11.160   4.795  89.710  1.00  0.00     0.254 C 
HETATM    8  O   UNL     1      11.277   4.116  88.692  1.00  0.00    -0.268 OA
HETATM    9  N   UNL     1      11.925   4.638  90.857  1.00  0.00    -0.337 N 
HETATM   10  HN  UNL     1      11.790   5.253  91.652  1.00  0.00     0.164 HD
BRANCH   9  11
HETATM   11  C   UNL     1      12.956   3.638  90.972  1.00  0.00     0.172 C 
BRANCH  11  12
HETATM   12  C   UNL     1      14.313   4.228  91.377  1.00  0.00     0.136 C 
HETATM   13  C   UNL     1      15.385   3.159  91.554  1.00  0.00     0.034 C 
BRANCH  12  14
HETATM   14  O   UNL     1      14.745   5.157  90.384  1.00  0.00    -0.383 OA
HETATM   15  H   UNL     1      14.838   6.030  90.802  1.00  0.00     0.210 HD
ENDBRANCH  12  14
ENDBRANCH  11  12
BRANCH  11  16
HETATM   16  C   UNL     1      12.483   2.595  91.978  1.00  0.00     0.398 A 
HETATM   17  O   UNL     1      11.373   2.068  91.926  1.00  0.00    -0.136 OA
HETATM   18  N   UNL     1      11.702   2.464  93.356  1.00  0.00     0.142 N 
HETATM   19  HN  UNL     1      10.827   2.051  93.519  1.00  0.00     0.338 HD
BRANCH  18  20
HETATM   20  S   UNL     1      12.497   3.307  94.123  1.00  0.00     0.076 SA
HETATM   21  H   UNL     1      12.808   4.341  93.627  1.00  0.00     0.136 HD
ENDBRANCH  18  20
ENDBRANCH  11  16
ENDBRANCH   9  11
ENDBRANCH   1   7
BRANCH   4  22
HETATM   22  C   UNL     1       7.327   8.975  89.830  1.00  0.00    -0.059 C 
HETATM   23  C   UNL     1       6.513   9.860  89.855  1.00  0.00    -0.059 C 
BRANCH  23  24
HETATM   24  C   UNL     1       5.544  10.912  89.885  1.00  0.00     0.042 A 
HETATM   25  C   UNL     1       5.810  12.122  89.245  1.00  0.00     0.008 A 
HETATM   26  C   UNL     1       4.867  13.149  89.276  1.00  0.00    -0.002 A 
HETATM   27  C   UNL     1       3.656  12.964  89.946  1.00  0.00     0.011 A 
HETATM   28  C   UNL     1       3.392  11.752  90.585  1.00  0.00    -0.002 A 
HETATM   29  C   UNL     1       4.336  10.726  90.554  1.00  0.00     0.008 A 
BRANCH  27  30
HETATM   30  C   UNL     1       2.648  14.061  89.977  1.00  0.00     0.277 C 
BRANCH  30  31
HETATM   31  N   UNL     1       2.604  14.741  91.270  1.00  0.00     0.147 N 
HETATM   32  C   UNL     1       1.728  14.022  92.206  1.00  0.00     0.283 C 
HETATM   33  C   UNL     1       1.707  14.744  93.551  1.00  0.00     0.178 C 
HETATM   34  O   UNL     1       3.030  14.845  94.082  1.00  0.00    -0.350 OA
HETATM   35  C   UNL     1       3.879  15.569  93.192  1.00  0.00     0.178 C 
HETATM   36  C   UNL     1       3.952  14.869  91.839  1.00  0.00     0.283 C 
ENDBRANCH  30  31
ENDBRANCH  27  30
ENDBRANCH  23  24
ENDBRANCH   4  22
TORSDOF 10
ENDMDL
MODEL 9
REMARK VINA RESULT:      -5.3      2.877      3.830
REMARK  10 active torsions:
REMARK  status: ('A' for Active; 'I' for Inactive)
REMARK    1  A    between atoms: O_2  and  C_16 
REMARK    2  A    between atoms: N_5  and  C_9 
REMARK    3  A    between atoms: N_6  and  C_13 
REMARK       I    between atoms: N_6  and  C_22 
REMARK    4  A    between atoms: C_9  and  C_12 
REMARK    5  A    between atoms: C_13  and  C_16 
REMARK    6  A    between atoms: C_13  and  C_21 
REMARK    7  A    between atoms: C_19  and  C_24 
REMARK    8  A    between atoms: C_22  and  C_23 
REMARK    9  A    between atoms: C_27  and  C_30 
REMARK   10  A    between atoms: N_33  and  S_34 
ROOT
HETATM    1  C   UNL     1       6.118   8.353  89.043  1.00  0.00     0.056 A 
HETATM    2  C   UNL     1       7.425   8.784  88.940  1.00  0.00     0.005 A 
HETATM    3  C   UNL     1       5.784   7.150  89.628  1.00  0.00     0.005 A 
HETATM    4  C   UNL     1       8.130   6.754  90.042  1.00  0.00     0.042 A 
HETATM    5  C   UNL     1       8.443   7.975  89.445  1.00  0.00     0.008 A 
HETATM    6  C   UNL     1       6.801   6.341  90.133  1.00  0.00     0.008 A 
ENDROOT
BRANCH   1   7
HETATM    7  C   UNL     1       5.034   9.216  88.507  1.00  0.00     0.254 C 
HETATM    8  O   UNL     1       4.880   9.301  87.291  1.00  0.00    -0.268 OA
HETATM    9  N   UNL     1       4.244   9.857  89.451  1.00  0.00    -0.337 N 
HETATM   10  HN  UNL     1       4.414   9.720  90.440  1.00  0.00     0.164 HD
BRANCH   9  11
HETATM   11  C   UNL     1       3.138  10.707  89.089  1.00  0.00     0.172 C 
BRANCH  11  12
HETATM   12  C   UNL     1       3.576  12.139  88.756  1.00  0.00     0.136 C 
HETATM   13  C   UNL     1       4.759  12.600  89.599  1.00  0.00     0.034 C 
BRANCH  12  14
HETATM   14  O   UNL     1       3.931  12.221  87.376  1.00  0.00    -0.383 OA
HETATM   15  H   UNL     1       3.628  11.409  86.935  1.00  0.00     0.210 HD
ENDBRANCH  12  14
ENDBRANCH  11  12
BRANCH  11  16
HETATM   16  C   UNL     1       2.418  10.059  87.912  1.00  0.00     0.398 A 
HETATM   17  O   UNL     1       1.439  10.564  87.365  1.00  0.00    -0.136 OA
HETATM   18  N   UNL     1       1.214   9.076  87.582  1.00  0.00     0.142 N 
HETATM   19  HN  UNL     1       0.370   9.284  87.128  1.00  0.00     0.338 HD
BRANCH  18  20
HETATM   20  S   UNL     1       1.625   7.987  88.342  1.00  0.00     0.076 SA
HETATM   21  H   UNL     1       1.663   8.145  89.519  1.00  0.00     0.136 HD
ENDBRANCH  18  20
ENDBRANCH  11  16
ENDBRANCH   9  11
ENDBRANCH   1   7
BRANCH   4  22
HETATM   22  C   UNL     1       9.174   5.923  90.556  1.00  0.00    -0.059 C 
HETATM   23  C   UNL     1      10.051   5.224  90.989  1.00  0.00    -0.059 C 
BRANCH  23  24
HETATM   24  C   UNL     1      11.096   4.393  91.503  1.00  0.00     0.042 A 
HETATM   25  C   UNL     1      10.870   3.610  92.635  1.00  0.00     0.008 A 
HETATM   26  C   UNL     1      11.889   2.802  93.138  1.00  0.00    -0.002 A 
HETATM   27  C   UNL     1      13.133   2.774  92.507  1.00  0.00     0.011 A 
HETATM   28  C   UNL     1      13.358   3.557  91.374  1.00  0.00    -0.002 A 
HETATM   29  C   UNL     1      12.338   4.367  90.873  1.00  0.00     0.008 A 
BRANCH  27  30
HETATM   30  C   UNL     1      14.221   1.908  93.044  1.00  0.00     0.277 C 
BRANCH  30  31
HETATM   31  N   UNL     1      15.330   2.684  93.596  1.00  0.00     0.147 N 
HETATM   32  C   UNL     1      16.574   2.405  92.866  1.00  0.00     0.283 C 
HETATM   33  C   UNL     1      17.714   3.234  93.453  1.00  0.00     0.178 C 
HETATM   34  O   UNL     1      17.400   4.626  93.390  1.00  0.00    -0.350 OA
HETATM   35  C   UNL     1      16.208   4.911  94.123  1.00  0.00     0.178 C 
HETATM   36  C   UNL     1      15.033   4.122  93.554  1.00  0.00     0.283 C 
ENDBRANCH  30  31
ENDBRANCH  27  30
ENDBRANCH  23  24
ENDBRANCH   4  22
TORSDOF 10
ENDMDL
