MODEL 1
REMARK VINA RESULT:      -7.1      0.000      0.000
REMARK  10 active torsions:
REMARK  status: ('A' for Active; 'I' for Inactive)
REMARK    1  A    between atoms: O_2  and  C_16 
REMARK    2  A    between atoms: N_5  and  C_9 
REMARK    3  A    between atoms: N_6  and  C_13 
REMARK       I    between atoms: N_6  and  C_22 
REMARK    4  A    between atoms: C_9  and  C_12 
REMARK    5  A    between atoms: C_13  and  C_16 
REMARK    6  A    between atoms: C_13  and  C_21 
REMARK    7  A    between atoms: C_19  and  C_24 
REMARK    8  A    between atoms: C_22  and  C_23 
REMARK    9  A    between atoms: C_27  and  C_30 
REMARK   10  A    between atoms: N_33  and  S_34 
ROOT
HETATM    1  C   UNL     1       5.582  10.334  89.493  1.00  0.00     0.056 A 
HETATM    2  C   UNL     1       6.903  10.690  89.663  1.00  0.00     0.005 A 
HETATM    3  C   UNL     1       5.150   9.030  89.615  1.00  0.00     0.005 A 
HETATM    4  C   UNL     1       7.424   8.372  90.095  1.00  0.00     0.042 A 
HETATM    5  C   UNL     1       7.836   9.699  89.967  1.00  0.00     0.008 A 
HETATM    6  C   UNL     1       6.082   8.037  89.919  1.00  0.00     0.008 A 
ENDROOT
BRANCH   1   7
HETATM    7  C   UNL     1       4.589  11.391  89.171  1.00  0.00     0.254 C 
HETATM    8  O   UNL     1       4.204  11.519  88.012  1.00  0.00    -0.268 OA
HETATM    9  N   UNL     1       4.145  12.154  90.242  1.00  0.00    -0.337 N 
HETATM   10  HN  UNL     1       4.489  11.974  91.178  1.00  0.00     0.164 HD
BRANCH   9  11
HETATM   11  C   UNL     1       3.165  13.201  90.095  1.00  0.00     0.172 C 
BRANCH  11  12
HETATM   12  C   UNL     1       2.345  13.430  91.371  1.00  0.00     0.136 C 
HETATM   13  C   UNL     1       1.197  14.410  91.159  1.00  0.00     0.034 C 
BRANCH  12  14
HETATM   14  O   UNL     1       1.814  12.185  91.826  1.00  0.00    -0.383 OA
HETATM   15  H   UNL     1       1.435  12.321  92.711  1.00  0.00     0.210 HD
ENDBRANCH  12  14
ENDBRANCH  11  12
BRANCH  11  16
HETATM   16  C   UNL     1       3.899  14.470  89.673  1.00  0.00     0.398 A 
HETATM   17  O   UNL     1       4.833  14.468  88.873  1.00  0.00    -0.136 OA
HETATM   18  N   UNL     1       5.154  15.364  90.058  1.00  0.00     0.142 N 
HETATM   19  HN  UNL     1       5.974  15.512  89.540  1.00  0.00     0.338 HD
BRANCH  18  20
HETATM   20  S   UNL     1       4.828  15.612  91.387  1.00  0.00     0.076 SA
HETATM   21  H   UNL     1       3.956  14.952  91.852  1.00  0.00     0.136 HD
ENDBRANCH  18  20
ENDBRANCH  11  16
ENDBRANCH   9  11
ENDBRANCH   1   7
BRANCH   4  22
HETATM   22  C   UNL     1       8.380   7.354  90.404  1.00  0.00    -0.059 C 
HETATM   23  C   UNL     1       9.184   6.499  90.663  1.00  0.00    -0.059 C 
BRANCH  23  24
HETATM   24  C   UNL     1      10.142   5.482  90.972  1.00  0.00     0.042 A 
HETATM   25  C   UNL     1      10.925   4.932  89.957  1.00  0.00     0.008 A 
HETATM   26  C   UNL     1      11.857   3.938  90.258  1.00  0.00    -0.002 A 
HETATM   27  C   UNL     1      12.006   3.497  91.573  1.00  0.00     0.011 A 
HETATM   28  C   UNL     1      11.222   4.049  92.586  1.00  0.00    -0.002 A 
HETATM   29  C   UNL     1      10.290   5.041  92.285  1.00  0.00     0.008 A 
BRANCH  27  30
HETATM   30  C   UNL     1      13.004   2.437  91.893  1.00  0.00     0.277 C 
BRANCH  30  31
HETATM   31  N   UNL     1      13.979   2.873  92.892  1.00  0.00     0.147 N 
HETATM   32  C   UNL     1      15.017   1.851  93.086  1.00  0.00     0.283 C 
HETATM   33  C   UNL     1      16.028   2.333  94.123  1.00  0.00     0.178 C 
HETATM   34  O   UNL     1      16.615   3.568  93.710  1.00  0.00    -0.350 OA
HETATM   35  C   UNL     1      15.616   4.575  93.548  1.00  0.00     0.178 C 
HETATM   36  C   UNL     1      14.595   4.148  92.499  1.00  0.00     0.283 C 
ENDBRANCH  30  31
ENDBRANCH  27  30
ENDBRANCH  23  24
ENDBRANCH   4  22
TORSDOF 10
ENDMDL
MODEL 2
REMARK VINA RESULT:      -6.9      1.022      1.337
REMARK  10 active torsions:
REMARK  status: ('A' for Active; 'I' for Inactive)
REMARK    1  A    between atoms: O_2  and  C_16 
REMARK    2  A    between atoms: N_5  and  C_9 
REMARK    3  A    between atoms: N_6  and  C_13 
REMARK       I    between atoms: N_6  and  C_22 
REMARK    4  A    between atoms: C_9  and  C_12 
REMARK    5  A    between atoms: C_13  and  C_16 
REMARK    6  A    between atoms: C_13  and  C_21 
REMARK    7  A    between atoms: C_19  and  C_24 
REMARK    8  A    between atoms: C_22  and  C_23 
REMARK    9  A    between atoms: C_27  and  C_30 
REMARK   10  A    between atoms: N_33  and  S_34 
ROOT
HETATM    1  C   UNL     1       4.842   9.864  90.561  1.00  0.00     0.056 A 
HETATM    2  C   UNL     1       4.527   8.535  90.753  1.00  0.00     0.005 A 
HETATM    3  C   UNL     1       6.145  10.314  90.523  1.00  0.00     0.005 A 
HETATM    4  C   UNL     1       6.889   8.044  90.882  1.00  0.00     0.042 A 
HETATM    5  C   UNL     1       5.562   7.613  90.916  1.00  0.00     0.008 A 
HETATM    6  C   UNL     1       7.181   9.393  90.686  1.00  0.00     0.008 A 
ENDROOT
BRANCH   1   7
HETATM    7  C   UNL     1       3.739  10.844  90.386  1.00  0.00     0.254 C 
HETATM    8  O   UNL     1       2.747  10.521  89.737  1.00  0.00    -0.268 OA
HETATM    9  N   UNL     1       3.914  12.073  91.007  1.00  0.00    -0.337 N 
HETATM   10  HN  UNL     1       4.750  12.260  91.548  1.00  0.00     0.164 HD
BRANCH   9  11
HETATM   11  C   UNL     1       2.924  13.119  90.949  1.00  0.00     0.172 C 
BRANCH  11  12
HETATM   12  C   UNL     1       2.653  13.755  92.319  1.00  0.00     0.136 C 
HETATM   13  C   UNL     1       1.219  13.538  92.789  1.00  0.00     0.034 C 
BRANCH  12  14
HETATM   14  O   UNL     1       3.546  13.205  93.286  1.00  0.00    -0.383 OA
HETATM   15  H   UNL     1       3.992  13.939  93.741  1.00  0.00     0.210 HD
ENDBRANCH  12  14
ENDBRANCH  11  12
BRANCH  11  16
HETATM   16  C   UNL     1       3.402  14.158  89.940  1.00  0.00     0.398 A 
HETATM   17  O   UNL     1       3.927  13.859  88.869  1.00  0.00    -0.136 OA
HETATM   18  N   UNL     1       4.692  14.992  89.535  1.00  0.00     0.142 N 
HETATM   19  HN  UNL     1       5.226  14.920  88.715  1.00  0.00     0.338 HD
BRANCH  18  20
HETATM   20  S   UNL     1       4.934  15.603  90.759  1.00  0.00     0.076 SA
HETATM   21  H   UNL     1       5.960  16.194  90.864  1.00  0.00     0.136 HD
ENDBRANCH  18  20
ENDBRANCH  11  16
ENDBRANCH   9  11
ENDBRANCH   1   7
BRANCH   4  22
HETATM   22  C   UNL     1       7.949   7.100  91.052  1.00  0.00    -0.059 C 
HETATM   23  C   UNL     1       8.841   6.307  91.194  1.00  0.00    -0.059 C 
BRANCH  23  24
HETATM   24  C   UNL     1       9.903   5.363  91.364  1.00  0.00     0.042 A 
HETATM   25  C   UNL     1      10.608   4.901  90.253  1.00  0.00     0.008 A 
HETATM   26  C   UNL     1      11.642   3.979  90.418  1.00  0.00    -0.002 A 
HETATM   27  C   UNL     1      11.972   3.522  91.695  1.00  0.00     0.011 A 
HETATM   28  C   UNL     1      11.266   3.987  92.805  1.00  0.00    -0.002 A 
HETATM   29  C   UNL     1      10.232   4.907  92.639  1.00  0.00     0.008 A 
BRANCH  27  30
HETATM   30  C   UNL     1      13.079   2.539  91.870  1.00  0.00     0.277 C 
BRANCH  30  31
HETATM   31  N   UNL     1      14.054   2.971  92.870  1.00  0.00     0.147 N 
HETATM   32  C   UNL     1      15.073   1.934  93.084  1.00  0.00     0.283 C 
HETATM   33  C   UNL     1      16.085   2.412  94.123  1.00  0.00     0.178 C 
HETATM   34  O   UNL     1      16.696   3.632  93.698  1.00  0.00    -0.350 OA
HETATM   35  C   UNL     1      15.715   4.653  93.517  1.00  0.00     0.178 C 
HETATM   36  C   UNL     1      14.694   4.230  92.466  1.00  0.00     0.283 C 
ENDBRANCH  30  31
ENDBRANCH  27  30
ENDBRANCH  23  24
ENDBRANCH   4  22
TORSDOF 10
ENDMDL
MODEL 3
REMARK VINA RESULT:      -6.7      1.621      2.427
REMARK  10 active torsions:
REMARK  status: ('A' for Active; 'I' for Inactive)
REMARK    1  A    between atoms: O_2  and  C_16 
REMARK    2  A    between atoms: N_5  and  C_9 
REMARK    3  A    between atoms: N_6  and  C_13 
REMARK       I    between atoms: N_6  and  C_22 
REMARK    4  A    between atoms: C_9  and  C_12 
REMARK    5  A    between atoms: C_13  and  C_16 
REMARK    6  A    between atoms: C_13  and  C_21 
REMARK    7  A    between atoms: C_19  and  C_24 
REMARK    8  A    between atoms: C_22  and  C_23 
REMARK    9  A    between atoms: C_27  and  C_30 
REMARK   10  A    between atoms: N_33  and  S_34 
ROOT
HETATM    1  C   UNL     1       5.224  10.552  91.177  1.00  0.00     0.056 A 
HETATM    2  C   UNL     1       5.056   9.573  92.134  1.00  0.00     0.005 A 
HETATM    3  C   UNL     1       6.309  10.570  90.326  1.00  0.00     0.005 A 
HETATM    4  C   UNL     1       7.123   8.564  91.397  1.00  0.00     0.042 A 
HETATM    5  C   UNL     1       6.016   8.567  92.246  1.00  0.00     0.008 A 
HETATM    6  C   UNL     1       7.270   9.565  90.437  1.00  0.00     0.008 A 
ENDROOT
BRANCH   1   7
HETATM    7  C   UNL     1       4.200  11.622  91.057  1.00  0.00     0.254 C 
HETATM    8  O   UNL     1       3.093  11.344  90.601  1.00  0.00    -0.268 OA
HETATM    9  N   UNL     1       4.579  12.879  91.504  1.00  0.00    -0.337 N 
HETATM   10  HN  UNL     1       5.503  13.028  91.893  1.00  0.00     0.164 HD
BRANCH   9  11
HETATM   11  C   UNL     1       3.690  14.013  91.476  1.00  0.00     0.172 C 
BRANCH  11  12
HETATM   12  C   UNL     1       3.655  14.706  90.108  1.00  0.00     0.136 C 
HETATM   13  C   UNL     1       4.984  15.362  89.751  1.00  0.00     0.034 C 
BRANCH  12  14
HETATM   14  O   UNL     1       3.323  13.753  89.099  1.00  0.00    -0.383 OA
HETATM   15  H   UNL     1       2.802  13.043  89.510  1.00  0.00     0.210 HD
ENDBRANCH  12  14
ENDBRANCH  11  12
BRANCH  11  16
HETATM   16  C   UNL     1       2.304  13.529  91.888  1.00  0.00     0.398 A 
HETATM   17  O   UNL     1       1.267  14.083  91.529  1.00  0.00    -0.136 OA
HETATM   18  N   UNL     1       1.198  13.741  93.009  1.00  0.00     0.142 N 
HETATM   19  HN  UNL     1       0.304  14.133  92.910  1.00  0.00     0.338 HD
BRANCH  18  20
HETATM   20  S   UNL     1       1.978  13.457  94.124  1.00  0.00     0.076 SA
HETATM   21  H   UNL     1       1.398  13.147  95.113  1.00  0.00     0.136 HD
ENDBRANCH  18  20
ENDBRANCH  11  16
ENDBRANCH   9  11
ENDBRANCH   1   7
BRANCH   4  22
HETATM   22  C   UNL     1       8.108   7.535  91.514  1.00  0.00    -0.059 C 
HETATM   23  C   UNL     1       8.937   6.669  91.612  1.00  0.00    -0.059 C 
BRANCH  23  24
HETATM   24  C   UNL     1       9.923   5.639  91.728  1.00  0.00     0.042 A 
HETATM   25  C   UNL     1      10.268   5.145  92.986  1.00  0.00     0.008 A 
HETATM   26  C   UNL     1      11.231   4.142  93.099  1.00  0.00    -0.002 A 
HETATM   27  C   UNL     1      11.846   3.632  91.955  1.00  0.00     0.011 A 
HETATM   28  C   UNL     1      11.498   4.127  90.698  1.00  0.00    -0.002 A 
HETATM   29  C   UNL     1      10.536   5.131  90.585  1.00  0.00     0.008 A 
BRANCH  27  30
HETATM   30  C   UNL     1      12.873   2.559  92.077  1.00  0.00     0.277 C 
BRANCH  30  31
HETATM   31  N   UNL     1      13.950   2.920  92.997  1.00  0.00     0.147 N 
HETATM   32  C   UNL     1      14.886   1.801  93.169  1.00  0.00     0.283 C 
HETATM   33  C   UNL     1      16.006   2.205  94.124  1.00  0.00     0.178 C 
HETATM   34  O   UNL     1      16.691   3.356  93.627  1.00  0.00    -0.350 OA
HETATM   35  C   UNL     1      15.794   4.459  93.487  1.00  0.00     0.178 C 
HETATM   36  C   UNL     1      14.669   4.109  92.519  1.00  0.00     0.283 C 
ENDBRANCH  30  31
ENDBRANCH  27  30
ENDBRANCH  23  24
ENDBRANCH   4  22
TORSDOF 10
ENDMDL
MODEL 4
REMARK VINA RESULT:      -5.9      1.625      2.062
REMARK  10 active torsions:
REMARK  status: ('A' for Active; 'I' for Inactive)
REMARK    1  A    between atoms: O_2  and  C_16 
REMARK    2  A    between atoms: N_5  and  C_9 
REMARK    3  A    between atoms: N_6  and  C_13 
REMARK       I    between atoms: N_6  and  C_22 
REMARK    4  A    between atoms: C_9  and  C_12 
REMARK    5  A    between atoms: C_13  and  C_16 
REMARK    6  A    between atoms: C_13  and  C_21 
REMARK    7  A    between atoms: C_19  and  C_24 
REMARK    8  A    between atoms: C_22  and  C_23 
REMARK    9  A    between atoms: C_27  and  C_30 
REMARK   10  A    between atoms: N_33  and  S_34 
ROOT
HETATM    1  C   UNL     1       5.080   8.568  90.693  1.00  0.00     0.056 A 
HETATM    2  C   UNL     1       5.118   7.897  91.897  1.00  0.00     0.005 A 
HETATM    3  C   UNL     1       6.084   8.455  89.754  1.00  0.00     0.005 A 
HETATM    4  C   UNL     1       7.240   6.945  91.244  1.00  0.00     0.042 A 
HETATM    5  C   UNL     1       6.211   7.076  92.177  1.00  0.00     0.008 A 
HETATM    6  C   UNL     1       7.177   7.635  90.033  1.00  0.00     0.008 A 
ENDROOT
BRANCH   1   7
HETATM    7  C   UNL     1       3.914   9.440  90.395  1.00  0.00     0.254 C 
HETATM    8  O   UNL     1       2.807   8.931  90.244  1.00  0.00    -0.268 OA
HETATM    9  N   UNL     1       4.175  10.802  90.333  1.00  0.00    -0.337 N 
HETATM   10  HN  UNL     1       5.111  11.153  90.493  1.00  0.00     0.164 HD
BRANCH   9  11
HETATM   11  C   UNL     1       3.145  11.778  90.077  1.00  0.00     0.172 C 
BRANCH  11  12
HETATM   12  C   UNL     1       3.043  12.836  91.183  1.00  0.00     0.136 C 
HETATM   13  C   UNL     1       1.876  12.580  92.130  1.00  0.00     0.034 C 
BRANCH  12  14
HETATM   14  O   UNL     1       4.255  12.858  91.937  1.00  0.00    -0.383 OA
HETATM   15  H   UNL     1       4.985  13.078  91.334  1.00  0.00     0.210 HD
ENDBRANCH  12  14
ENDBRANCH  11  12
BRANCH  11  16
HETATM   16  C   UNL     1       3.435  12.417  88.723  1.00  0.00     0.398 A 
HETATM   17  O   UNL     1       3.943  11.802  87.788  1.00  0.00    -0.136 OA
HETATM   18  N   UNL     1       4.584  13.173  87.929  1.00  0.00     0.142 N 
HETATM   19  HN  UNL     1       5.083  12.862  87.144  1.00  0.00     0.338 HD
BRANCH  18  20
HETATM   20  S   UNL     1       4.802  14.214  88.824  1.00  0.00     0.076 SA
HETATM   21  H   UNL     1       5.446  15.130  88.427  1.00  0.00     0.136 HD
ENDBRANCH  18  20
ENDBRANCH  11  16
ENDBRANCH   9  11
ENDBRANCH   1   7
BRANCH   4  22
HETATM   22  C   UNL     1       8.362   6.107  91.531  1.00  0.00    -0.059 C 
HETATM   23  C   UNL     1       9.305   5.401  91.773  1.00  0.00    -0.059 C 
BRANCH  23  24
HETATM   24  C   UNL     1      10.426   4.560  92.061  1.00  0.00     0.042 A 
HETATM   25  C   UNL     1      10.835   3.603  91.133  1.00  0.00     0.008 A 
HETATM   26  C   UNL     1      11.927   2.783  91.413  1.00  0.00    -0.002 A 
HETATM   27  C   UNL     1      12.611   2.921  92.622  1.00  0.00     0.011 A 
HETATM   28  C   UNL     1      12.201   3.880  93.549  1.00  0.00    -0.002 A 
HETATM   29  C   UNL     1      11.109   4.699  93.268  1.00  0.00     0.008 A 
BRANCH  27  30
HETATM   30  C   UNL     1      13.780   2.045  92.920  1.00  0.00     0.277 C 
BRANCH  30  31
HETATM   31  N   UNL     1      14.839   2.754  93.637  1.00  0.00     0.147 N 
HETATM   32  C   UNL     1      16.147   2.138  93.374  1.00  0.00     0.283 C 
HETATM   33  C   UNL     1      17.237   2.901  94.124  1.00  0.00     0.178 C 
HETATM   34  O   UNL     1      17.244   4.274  93.730  1.00  0.00    -0.350 OA
HETATM   35  C   UNL     1      15.985   4.888  94.010  1.00  0.00     0.178 C 
HETATM   36  C   UNL     1      14.866   4.174  93.259  1.00  0.00     0.283 C 
ENDBRANCH  30  31
ENDBRANCH  27  30
ENDBRANCH  23  24
ENDBRANCH   4  22
TORSDOF 10
ENDMDL
MODEL 5
REMARK VINA RESULT:      -5.5      3.541     12.392
REMARK  10 active torsions:
REMARK  status: ('A' for Active; 'I' for Inactive)
REMARK    1  A    between atoms: O_2  and  C_16 
REMARK    2  A    between atoms: N_5  and  C_9 
REMARK    3  A    between atoms: N_6  and  C_13 
REMARK       I    between atoms: N_6  and  C_22 
REMARK    4  A    between atoms: C_9  and  C_12 
REMARK    5  A    between atoms: C_13  and  C_16 
REMARK    6  A    between atoms: C_13  and  C_21 
REMARK    7  A    between atoms: C_19  and  C_24 
REMARK    8  A    between atoms: C_22  and  C_23 
REMARK    9  A    between atoms: C_27  and  C_30 
REMARK   10  A    between atoms: N_33  and  S_34 
ROOT
HETATM    1  C   UNL     1      10.232   5.908  89.905  1.00  0.00     0.056 A 
HETATM    2  C   UNL     1       9.519   6.137  91.063  1.00  0.00     0.005 A 
HETATM    3  C   UNL     1      10.040   6.656  88.762  1.00  0.00     0.005 A 
HETATM    4  C   UNL     1       8.357   7.930  89.936  1.00  0.00     0.042 A 
HETATM    5  C   UNL     1       8.570   7.160  91.080  1.00  0.00     0.008 A 
HETATM    6  C   UNL     1       9.091   7.678  88.778  1.00  0.00     0.008 A 
ENDROOT
BRANCH   1   7
HETATM    7  C   UNL     1      11.244   4.820  89.889  1.00  0.00     0.254 C 
HETATM    8  O   UNL     1      11.305   4.072  88.917  1.00  0.00    -0.268 OA
HETATM    9  N   UNL     1      12.080   4.751  90.995  1.00  0.00    -0.337 N 
HETATM   10  HN  UNL     1      11.988   5.420  91.750  1.00  0.00     0.164 HD
BRANCH   9  11
HETATM   11  C   UNL     1      13.127   3.768  91.116  1.00  0.00     0.172 C 
BRANCH  11  12
HETATM   12  C   UNL     1      14.417   4.344  91.712  1.00  0.00     0.136 C 
HETATM   13  C   UNL     1      15.370   3.259  92.200  1.00  0.00     0.034 C 
BRANCH  12  14
HETATM   14  O   UNL     1      15.082   5.139  90.732  1.00  0.00    -0.383 OA
HETATM   15  H   UNL     1      16.026   5.179  90.961  1.00  0.00     0.210 HD
ENDBRANCH  12  14
ENDBRANCH  11  12
BRANCH  11  16
HETATM   16  C   UNL     1      12.590   2.618  91.961  1.00  0.00     0.398 A 
HETATM   17  O   UNL     1      11.587   1.975  91.658  1.00  0.00    -0.136 OA
HETATM   18  N   UNL     1      11.568   2.316  93.139  1.00  0.00     0.142 N 
HETATM   19  HN  UNL     1      10.735   1.799  93.100  1.00  0.00     0.338 HD
BRANCH  18  20
HETATM   20  S   UNL     1      12.081   3.195  94.086  1.00  0.00     0.076 SA
HETATM   21  H   UNL     1      12.255   2.757  95.177  1.00  0.00     0.136 HD
ENDBRANCH  18  20
ENDBRANCH  11  16
ENDBRANCH   9  11
ENDBRANCH   1   7
BRANCH   4  22
HETATM   22  C   UNL     1       7.382   8.976  89.952  1.00  0.00    -0.059 C 
HETATM   23  C   UNL     1       6.563   9.856  89.965  1.00  0.00    -0.059 C 
BRANCH  23  24
HETATM   24  C   UNL     1       5.588  10.903  89.980  1.00  0.00     0.042 A 
HETATM   25  C   UNL     1       5.834  12.093  89.296  1.00  0.00     0.008 A 
HETATM   26  C   UNL     1       4.884  13.114  89.312  1.00  0.00    -0.002 A 
HETATM   27  C   UNL     1       3.689  12.944  90.011  1.00  0.00     0.011 A 
HETATM   28  C   UNL     1       3.445  11.753  90.695  1.00  0.00    -0.002 A 
HETATM   29  C   UNL     1       4.395  10.732  90.679  1.00  0.00     0.008 A 
BRANCH  27  30
HETATM   30  C   UNL     1       2.674  14.036  90.026  1.00  0.00     0.277 C 
BRANCH  30  31
HETATM   31  N   UNL     1       2.633  14.742  91.305  1.00  0.00     0.147 N 
HETATM   32  C   UNL     1       1.707  14.081  92.235  1.00  0.00     0.283 C 
HETATM   33  C   UNL     1       1.690  14.828  93.566  1.00  0.00     0.178 C 
HETATM   34  O   UNL     1       3.005  14.880  94.124  1.00  0.00    -0.350 OA
HETATM   35  C   UNL     1       3.904  15.549  93.239  1.00  0.00     0.178 C 
HETATM   36  C   UNL     1       3.974  14.821  91.901  1.00  0.00     0.283 C 
ENDBRANCH  30  31
ENDBRANCH  27  30
ENDBRANCH  23  24
ENDBRANCH   4  22
TORSDOF 10
ENDMDL
MODEL 6
REMARK VINA RESULT:      -5.1      2.513      3.317
REMARK  10 active torsions:
REMARK  status: ('A' for Active; 'I' for Inactive)
REMARK    1  A    between atoms: O_2  and  C_16 
REMARK    2  A    between atoms: N_5  and  C_9 
REMARK    3  A    between atoms: N_6  and  C_13 
REMARK       I    between atoms: N_6  and  C_22 
REMARK    4  A    between atoms: C_9  and  C_12 
REMARK    5  A    between atoms: C_13  and  C_16 
REMARK    6  A    between atoms: C_13  and  C_21 
REMARK    7  A    between atoms: C_19  and  C_24 
REMARK    8  A    between atoms: C_22  and  C_23 
REMARK    9  A    between atoms: C_27  and  C_30 
REMARK   10  A    between atoms: N_33  and  S_34 
ROOT
HETATM    1  C   UNL     1       6.035   8.323  89.400  1.00  0.00     0.056 A 
HETATM    2  C   UNL     1       7.246   8.907  89.709  1.00  0.00     0.005 A 
HETATM    3  C   UNL     1       5.787   6.983  89.616  1.00  0.00     0.005 A 
HETATM    4  C   UNL     1       8.029   6.758  90.486  1.00  0.00     0.042 A 
HETATM    5  C   UNL     1       8.255   8.116  90.259  1.00  0.00     0.008 A 
HETATM    6  C   UNL     1       6.796   6.192  90.165  1.00  0.00     0.008 A 
ENDROOT
BRANCH   1   7
HETATM    7  C   UNL     1       4.960   9.166  88.816  1.00  0.00     0.254 C 
HETATM    8  O   UNL     1       4.850   9.238  87.595  1.00  0.00    -0.268 OA
HETATM    9  N   UNL     1       4.127   9.804  89.725  1.00  0.00    -0.337 N 
HETATM   10  HN  UNL     1       4.262   9.677  90.721  1.00  0.00     0.164 HD
BRANCH   9  11
HETATM   11  C   UNL     1       3.024  10.636  89.315  1.00  0.00     0.172 C 
BRANCH  11  12
HETATM   12  C   UNL     1       3.435  12.096  89.086  1.00  0.00     0.136 C 
HETATM   13  C   UNL     1       4.777  12.432  89.728  1.00  0.00     0.034 C 
BRANCH  12  14
HETATM   14  O   UNL     1       3.513  12.355  87.685  1.00  0.00    -0.383 OA
HETATM   15  H   UNL     1       3.487  13.318  87.551  1.00  0.00     0.210 HD
ENDBRANCH  12  14
ENDBRANCH  11  12
BRANCH  11  16
HETATM   16  C   UNL     1       2.424  10.024  88.053  1.00  0.00     0.398 A 
HETATM   17  O   UNL     1       1.488  10.536  87.441  1.00  0.00    -0.136 OA
HETATM   18  N   UNL     1       1.273   9.037  87.579  1.00  0.00     0.142 N 
HETATM   19  HN  UNL     1       0.468   9.250  87.060  1.00  0.00     0.338 HD
BRANCH  18  20
HETATM   20  S   UNL     1       1.635   7.925  88.330  1.00  0.00     0.076 SA
HETATM   21  H   UNL     1       2.672   7.987  88.906  1.00  0.00     0.136 HD
ENDBRANCH  18  20
ENDBRANCH  11  16
ENDBRANCH   9  11
ENDBRANCH   1   7
BRANCH   4  22
HETATM   22  C   UNL     1       9.065   5.947  91.047  1.00  0.00    -0.059 C 
HETATM   23  C   UNL     1       9.935   5.264  91.518  1.00  0.00    -0.059 C 
BRANCH  23  24
HETATM   24  C   UNL     1      10.971   4.452  92.078  1.00  0.00     0.042 A 
HETATM   25  C   UNL     1      11.406   4.681  93.383  1.00  0.00     0.008 A 
HETATM   26  C   UNL     1      12.418   3.891  93.928  1.00  0.00    -0.002 A 
HETATM   27  C   UNL     1      12.992   2.871  93.169  1.00  0.00     0.011 A 
HETATM   28  C   UNL     1      12.555   2.643  91.864  1.00  0.00    -0.002 A 
HETATM   29  C   UNL     1      11.544   3.434  91.319  1.00  0.00     0.008 A 
BRANCH  27  30
HETATM   30  C   UNL     1      14.072   2.025  93.754  1.00  0.00     0.277 C 
BRANCH  30  31
HETATM   31  N   UNL     1      15.252   2.805  94.124  1.00  0.00     0.147 N 
HETATM   32  C   UNL     1      16.460   2.250  93.499  1.00  0.00     0.283 C 
HETATM   33  C   UNL     1      17.676   3.087  93.890  1.00  0.00     0.178 C 
HETATM   34  O   UNL     1      17.490   4.447  93.496  1.00  0.00    -0.350 OA
HETATM   35  C   UNL     1      16.335   5.004  94.123  1.00  0.00     0.178 C 
HETATM   36  C   UNL     1      15.088   4.214  93.739  1.00  0.00     0.283 C 
ENDBRANCH  30  31
ENDBRANCH  27  30
ENDBRANCH  23  24
ENDBRANCH   4  22
TORSDOF 10
ENDMDL
MODEL 7
REMARK VINA RESULT:      -5.1      3.927     12.627
REMARK  10 active torsions:
REMARK  status: ('A' for Active; 'I' for Inactive)
REMARK    1  A    between atoms: O_2  and  C_16 
REMARK    2  A    between atoms: N_5  and  C_9 
REMARK    3  A    between atoms: N_6  and  C_13 
REMARK       I    between atoms: N_6  and  C_22 
REMARK    4  A    between atoms: C_9  and  C_12 
REMARK    5  A    between atoms: C_13  and  C_16 
REMARK    6  A    between atoms: C_13  and  C_21 
REMARK    7  A    between atoms: C_19  and  C_24 
REMARK    8  A    between atoms: C_22  and  C_23 
REMARK    9  A    between atoms: C_27  and  C_30 
REMARK   10  A    between atoms: N_33  and  S_34 
ROOT
HETATM    1  C   UNL     1      10.545   4.757  92.969  1.00  0.00     0.056 A 
HETATM    2  C   UNL     1      10.510   5.734  93.942  1.00  0.00     0.005 A 
HETATM    3  C   UNL     1       9.630   4.711  91.938  1.00  0.00     0.005 A 
HETATM    4  C   UNL     1       8.576   6.684  92.850  1.00  0.00     0.042 A 
HETATM    5  C   UNL     1       9.514   6.709  93.882  1.00  0.00     0.008 A 
HETATM    6  C   UNL     1       8.634   5.685  91.877  1.00  0.00     0.008 A 
ENDROOT
BRANCH   1   7
HETATM    7  C   UNL     1      11.607   3.719  93.031  1.00  0.00     0.254 C 
HETATM    8  O   UNL     1      11.296   2.535  92.927  1.00  0.00    -0.268 OA
HETATM    9  N   UNL     1      12.905   4.187  93.183  1.00  0.00    -0.337 N 
HETATM   10  HN  UNL     1      13.089   5.182  93.238  1.00  0.00     0.164 HD
BRANCH   9  11
HETATM   11  C   UNL     1      14.045   3.307  93.237  1.00  0.00     0.172 C 
BRANCH  11  12
HETATM   12  C   UNL     1      14.419   2.737  91.863  1.00  0.00     0.136 C 
HETATM   13  C   UNL     1      14.153   3.721  90.730  1.00  0.00     0.034 C 
BRANCH  12  14
HETATM   14  O   UNL     1      15.802   2.382  91.853  1.00  0.00    -0.383 OA
HETATM   15  H   UNL     1      16.273   3.009  91.279  1.00  0.00     0.210 HD
ENDBRANCH  12  14
ENDBRANCH  11  12
BRANCH  11  16
HETATM   16  C   UNL     1      15.206   4.085  93.849  1.00  0.00     0.398 A 
HETATM   17  O   UNL     1      15.670   5.104  93.342  1.00  0.00    -0.136 OA
HETATM   18  N   UNL     1      16.790   4.187  93.806  1.00  0.00     0.142 N 
HETATM   19  HN  UNL     1      17.340   4.927  93.471  1.00  0.00     0.338 HD
BRANCH  18  20
HETATM   20  S   UNL     1      17.090   2.867  94.123  1.00  0.00     0.076 SA
HETATM   21  H   UNL     1      17.427   2.653  95.242  1.00  0.00     0.136 HD
ENDBRANCH  18  20
ENDBRANCH  11  16
ENDBRANCH   9  11
ENDBRANCH   1   7
BRANCH   4  22
HETATM   22  C   UNL     1       7.554   7.681  92.790  1.00  0.00    -0.059 C 
HETATM   23  C   UNL     1       6.693   8.520  92.740  1.00  0.00    -0.059 C 
BRANCH  23  24
HETATM   24  C   UNL     1       5.670   9.518  92.681  1.00  0.00     0.042 A 
HETATM   25  C   UNL     1       5.937  10.815  93.119  1.00  0.00     0.008 A 
HETATM   26  C   UNL     1       4.938  11.787  93.064  1.00  0.00    -0.002 A 
HETATM   27  C   UNL     1       3.675  11.463  92.569  1.00  0.00     0.011 A 
HETATM   28  C   UNL     1       3.410  10.165  92.131  1.00  0.00    -0.002 A 
HETATM   29  C   UNL     1       4.408   9.192  92.188  1.00  0.00     0.008 A 
BRANCH  27  30
HETATM   30  C   UNL     1       2.609  12.504  92.508  1.00  0.00     0.277 C 
BRANCH  30  31
HETATM   31  N   UNL     1       3.021  13.678  91.741  1.00  0.00     0.147 N 
HETATM   32  C   UNL     1       4.191  14.318  92.358  1.00  0.00     0.283 C 
HETATM   33  C   UNL     1       4.609  15.534  91.535  1.00  0.00     0.178 C 
HETATM   34  O   UNL     1       4.902  15.147  90.191  1.00  0.00    -0.350 OA
HETATM   35  C   UNL     1       3.760  14.552  89.574  1.00  0.00     0.178 C 
HETATM   36  C   UNL     1       3.321  13.314  90.350  1.00  0.00     0.283 C 
ENDBRANCH  30  31
ENDBRANCH  27  30
ENDBRANCH  23  24
ENDBRANCH   4  22
TORSDOF 10
ENDMDL
MODEL 8
REMARK VINA RESULT:      -4.5      3.397     12.399
REMARK  10 active torsions:
REMARK  status: ('A' for Active; 'I' for Inactive)
REMARK    1  A    between atoms: O_2  and  C_16 
REMARK    2  A    between atoms: N_5  and  C_9 
REMARK    3  A    between atoms: N_6  and  C_13 
REMARK       I    between atoms: N_6  and  C_22 
REMARK    4  A    between atoms: C_9  and  C_12 
REMARK    5  A    between atoms: C_13  and  C_16 
REMARK    6  A    between atoms: C_13  and  C_21 
REMARK    7  A    between atoms: C_19  and  C_24 
REMARK    8  A    between atoms: C_22  and  C_23 
REMARK    9  A    between atoms: C_27  and  C_30 
REMARK   10  A    between atoms: N_33  and  S_34 
ROOT
HETATM    1  C   UNL     1      10.361   5.821  90.034  1.00  0.00     0.056 A 
HETATM    2  C   UNL     1       9.756   6.182  91.219  1.00  0.00     0.005 A 
HETATM    3  C   UNL     1      10.074   6.449  88.840  1.00  0.00     0.005 A 
HETATM    4  C   UNL     1       8.512   7.867  90.017  1.00  0.00     0.042 A 
HETATM    5  C   UNL     1       8.820   7.216  91.212  1.00  0.00     0.008 A 
HETATM    6  C   UNL     1       9.139   7.484  88.831  1.00  0.00     0.008 A 
ENDROOT
BRANCH   1   7
HETATM    7  C   UNL     1      11.359   4.720  90.043  1.00  0.00     0.254 C 
HETATM    8  O   UNL     1      11.485   4.016  89.044  1.00  0.00    -0.268 OA
HETATM    9  N   UNL     1      12.108   4.588  91.204  1.00  0.00    -0.337 N 
HETATM   10  HN  UNL     1      11.966   5.223  91.981  1.00  0.00     0.164 HD
BRANCH   9  11
HETATM   11  C   UNL     1      13.131   3.585  91.358  1.00  0.00     0.172 C 
BRANCH  11  12
HETATM   12  C   UNL     1      14.408   4.134  92.007  1.00  0.00     0.136 C 
HETATM   13  C   UNL     1      14.210   4.487  93.477  1.00  0.00     0.034 C 
BRANCH  12  14
HETATM   14  O   UNL     1      15.452   3.166  91.899  1.00  0.00    -0.383 OA
HETATM   15  H   UNL     1      15.065   2.285  92.035  1.00  0.00     0.210 HD
ENDBRANCH  12  14
ENDBRANCH  11  12
BRANCH  11  16
HETATM   16  C   UNL     1      12.542   2.440  92.174  1.00  0.00     0.398 A 
HETATM   17  O   UNL     1      12.530   1.274  91.782  1.00  0.00    -0.136 OA
HETATM   18  N   UNL     1      11.186   1.640  92.392  1.00  0.00     0.142 N 
HETATM   19  HN  UNL     1      10.994   0.703  92.174  1.00  0.00     0.338 HD
BRANCH  18  20
HETATM   20  S   UNL     1      10.364   2.714  92.711  1.00  0.00     0.076 SA
HETATM   21  H   UNL     1      10.761   3.794  92.414  1.00  0.00     0.136 HD
ENDBRANCH  18  20
ENDBRANCH  11  16
ENDBRANCH   9  11
ENDBRANCH   1   7
BRANCH   4  22
HETATM   22  C   UNL     1       7.551   8.925  90.008  1.00  0.00    -0.059 C 
HETATM   23  C   UNL     1       6.742   9.815  90.001  1.00  0.00    -0.059 C 
BRANCH  23  24
HETATM   24  C   UNL     1       5.780  10.874  89.993  1.00  0.00     0.042 A 
HETATM   25  C   UNL     1       4.585  10.734  90.698  1.00  0.00     0.008 A 
HETATM   26  C   UNL     1       3.646  11.765  90.689  1.00  0.00    -0.002 A 
HETATM   27  C   UNL     1       3.904  12.937  89.976  1.00  0.00     0.011 A 
HETATM   28  C   UNL     1       5.100  13.075  89.271  1.00  0.00    -0.002 A 
HETATM   29  C   UNL     1       6.038  12.043  89.280  1.00  0.00     0.008 A 
BRANCH  27  30
HETATM   30  C   UNL     1       2.900  14.039  89.968  1.00  0.00     0.277 C 
BRANCH  30  31
HETATM   31  N   UNL     1       2.851  14.756  91.242  1.00  0.00     0.147 N 
HETATM   32  C   UNL     1       1.957  14.074  92.188  1.00  0.00     0.283 C 
HETATM   33  C   UNL     1       1.930  14.833  93.512  1.00  0.00     0.178 C 
HETATM   34  O   UNL     1       3.248  14.933  94.055  1.00  0.00    -0.350 OA
HETATM   35  C   UNL     1       4.116  15.622  93.154  1.00  0.00     0.178 C 
HETATM   36  C   UNL     1       4.195  14.884  91.822  1.00  0.00     0.283 C 
ENDBRANCH  30  31
ENDBRANCH  27  30
ENDBRANCH  23  24
ENDBRANCH   4  22
TORSDOF 10
ENDMDL
