MODEL 1
REMARK VINA RESULT:      -7.1      0.000      0.000
REMARK  10 active torsions:
REMARK  status: ('A' for Active; 'I' for Inactive)
REMARK    1  A    between atoms: O_2  and  C_18 
REMARK    2  A    between atoms: O_5  and  N_8 
REMARK    3  A    between atoms: N_6  and  C_11 
REMARK    4  A    between atoms: N_7  and  C_15 
REMARK       I    between atoms: N_7  and  C_24 
REMARK       I    between atoms: N_8  and  C_23 
REMARK    5  A    between atoms: C_11  and  C_14 
REMARK    6  A    between atoms: C_15  and  C_18 
REMARK    7  A    between atoms: C_15  and  C_23 
REMARK    8  A    between atoms: C_21  and  C_26 
REMARK    9  A    between atoms: C_24  and  C_25 
REMARK   10  A    between atoms: C_29  and  C_32 
ROOT
HETATM    1  O   UNK     0      16.767   4.358  94.106  0.00  0.00    -0.388 OA
HETATM    2  N   UNK     0      14.800   2.726  92.853  0.00  0.00     0.096 N 
HETATM    3  C   UNK     0      14.711   4.193  92.828  0.00  0.00     0.299 C 
HETATM    4  C   UNK     0      15.505   2.286  94.064  0.00  0.00     0.299 C 
HETATM    5  C   UNK     0      16.110   4.797  92.916  0.00  0.00     0.198 C 
HETATM    6  C   UNK     0      16.885   2.935  94.124  0.00  0.00     0.198 C 
ENDROOT
BRANCH   2   7
HETATM    7  C   UNK     0      13.469   2.126  92.780  0.00  0.00     0.311 C 
BRANCH   7   8
HETATM    8  C   UNK     0      12.415   3.121  92.431  0.00  0.00    -0.030 A 
HETATM    9  C   UNK     0      11.784   3.850  93.439  0.00  0.00     0.010 A 
HETATM   10  C   UNK     0      10.796   4.780  93.113  0.00  0.00     0.021 A 
HETATM   11  C   UNK     0      10.442   4.980  91.780  0.00  0.00     0.018 A 
HETATM   12  C   UNK     0      11.072   4.253  90.772  0.00  0.00     0.021 A 
HETATM   13  C   UNK     0      12.059   3.323  91.097  0.00  0.00     0.010 A 
BRANCH  11  14
HETATM   14  C   UNK     0       9.431   5.936  91.445  0.00  0.00    -0.061 C 
HETATM   15  C   UNK     0       8.580   6.738  91.164  0.00  0.00    -0.061 C 
BRANCH  15  16
HETATM   16  C   UNK     0       7.571   7.692  90.829  0.00  0.00     0.018 A 
HETATM   17  C   UNK     0       7.733   9.032  91.184  0.00  0.00     0.022 A 
HETATM   18  C   UNK     0       6.748   9.964  90.855  0.00  0.00     0.018 A 
HETATM   19  C   UNK     0       5.625   9.536  90.179  0.00  0.00     0.032 A 
HETATM   20  C   UNK     0       5.440   8.218  89.818  0.00  0.00     0.018 A 
HETATM   21  C   UNK     0       6.424   7.285  90.147  0.00  0.00     0.022 A 
BRANCH  19  22
HETATM   22  C   UNK     0       4.575  10.529  89.831  0.00  0.00     0.252 C 
HETATM   23  O   UNK     0       3.590  10.162  89.195  0.00  0.00    -0.268 OA
HETATM   24  N   UNK     0       4.788  11.823  90.286  0.00  0.00    -0.341 N 
HETATM   25  H   UNK     0       5.614  12.047  90.828  0.00  0.00     0.163 HD
BRANCH  24  26
HETATM   26  C   UNK     0       3.850  12.891  90.051  0.00  0.00     0.207 C 
BRANCH  26  27
HETATM   27  C   UNK     0       3.621  13.764  91.291  0.00  0.00     0.146 C 
HETATM   28  C   UNK     0       2.141  13.957  91.604  0.00  0.00     0.042 C 
BRANCH  27  29
HETATM   29  O   UNK     0       4.259  13.167  92.419  0.00  0.00    -0.393 OA
HETATM   30  H   UNK     0       5.065  13.673  92.617  0.00  0.00     0.210 HD
ENDBRANCH  27  29
ENDBRANCH  26  27
BRANCH  26  31
HETATM   31  C   UNK     0       4.371  13.718  88.880  0.00  0.00     0.266 C 
HETATM   32  O   UNK     0       4.667  14.907  88.979  0.00  0.00    -0.269 OA
HETATM   33  N   UNK     0       4.429  12.990  87.715  0.00  0.00    -0.236 N 
HETATM   34  H   UNK     0       4.109  12.039  87.578  0.00  0.00     0.197 HD
BRANCH  33  35
HETATM   35  O   UNK     0       4.862  13.689  86.580  0.00  0.00    -0.287 OA
HETATM   36  H   UNK     0       4.685  14.604  86.860  0.00  0.00     0.244 HD
ENDBRANCH  33  35
ENDBRANCH  26  31
ENDBRANCH  24  26
ENDBRANCH  19  22
ENDBRANCH  15  16
ENDBRANCH  11  14
ENDBRANCH   7   8
ENDBRANCH   2   7
TORSDOF 10
ENDMDL
