MODEL 1
REMARK VINA RESULT:      -7.5      0.000      0.000
REMARK  9 active torsions:
REMARK  status: ('A' for Active; 'I' for Inactive)
REMARK    1  A    between atoms: N_3  and  C_6 
REMARK    2  A    between atoms: C_6  and  C_9 
REMARK    3  A    between atoms: C_14  and  C_17 
REMARK       I    between atoms: N_26  and  C_15 
REMARK    4  A    between atoms: C_15  and  C_16 
REMARK    5  A    between atoms: C_20  and  C_23 
REMARK    6  A    between atoms: OG1_24  and  CB_28 
REMARK    7  A    between atoms: N_26  and  CA_27 
REMARK    8  A    between atoms: CA_27  and  CB_28 
REMARK    9  A    between atoms: CA_27  and  C_30 
ROOT
HETATM    1  O   UNK A   0       1.793   8.078  87.843  1.00  0.00    -0.388 OA
HETATM    2  N   UNK A   0       4.589   7.579  87.665  1.00  0.00     0.096 N 
HETATM    3  C   UNK A   0       4.058   8.945  87.774  1.00  0.00     0.299 C 
HETATM    4  C   UNK A   0       3.609   6.710  86.999  1.00  0.00     0.299 C 
HETATM    5  C   UNK A   0       2.726   8.923  88.519  1.00  0.00     0.198 C 
HETATM    6  C   UNK A   0       2.288   6.741  87.760  1.00  0.00     0.198 C 
ENDROOT
BRANCH   2   7
HETATM    7  C   UNK A   0       5.862   7.574  86.945  1.00  0.00     0.311 C 
BRANCH   7   8
HETATM    8  C   UNK A   0       6.965   6.970  87.745  1.00  0.00    -0.030 A 
HETATM    9  C   UNK A   0       6.749   6.627  89.081  1.00  0.00     0.010 A 
HETATM   10  C   UNK A   0       7.781   6.063  89.831  1.00  0.00     0.021 A 
HETATM   11  C   UNK A   0       9.027   5.840  89.245  1.00  0.00     0.018 A 
HETATM   12  C   UNK A   0       9.243   6.182  87.911  1.00  0.00     0.021 A 
HETATM   13  C   UNK A   0       8.212   6.747  87.161  1.00  0.00     0.010 A 
BRANCH  11  14
HETATM   14  C   UNK A   0      10.084   5.260  90.014  1.00  0.00    -0.061 C 
HETATM   15  C   UNK A   0      10.973   4.773  90.660  1.00  0.00    -0.061 C 
BRANCH  15  16
HETATM   16  C   UNK A   0      12.030   4.193  91.430  1.00  0.00     0.018 A 
HETATM   17  C   UNK A   0      11.802   3.818  92.754  1.00  0.00     0.022 A 
HETATM   18  C   UNK A   0      12.833   3.250  93.503  1.00  0.00     0.018 A 
HETATM   19  C   UNK A   0      14.066   3.070  92.912  1.00  0.00     0.032 A 
HETATM   20  C   UNK A   0      14.316   3.433  91.606  1.00  0.00     0.018 A 
HETATM   21  C   UNK A   0      13.286   4.001  90.855  1.00  0.00     0.022 A 
BRANCH  19  22
HETATM   22  C   UNK A   0      15.163   2.467  93.712  1.00  0.00     0.252 C 
HETATM   23  O   UNK A   0      16.271   2.998  93.707  1.00  0.00    -0.268 OA
ENDBRANCH  19  22
ENDBRANCH  15  16
ENDBRANCH  11  14
ENDBRANCH   7   8
ENDBRANCH   2   7
TORSDOF 9
ENDMDL
