MODEL 1
REMARK VINA RESULT:      -6.7      0.000      0.000
REMARK  11 active torsions:
REMARK  status: ('A' for Active; 'I' for Inactive)
REMARK    1  A    between atoms: O_2  and  C_18 
REMARK    2  A    between atoms: O_5  and  P_8 
REMARK    3  A    between atoms: N_6  and  C_11 
REMARK    4  A    between atoms: N_7  and  C_15 
REMARK       I    between atoms: N_7  and  C_24 
REMARK    5  A    between atoms: P_8  and  C_23 
REMARK    6  A    between atoms: C_11  and  C_14 
REMARK    7  A    between atoms: C_15  and  C_18 
REMARK    8  A    between atoms: C_15  and  C_23 
REMARK    9  A    between atoms: C_21  and  C_26 
REMARK   10  A    between atoms: C_24  and  C_25 
REMARK   11  A    between atoms: C_29  and  C_32 
ROOT
HETATM    1  O   UNL     1      17.034   4.282  93.758  1.00  0.00     0.000 OA
HETATM    2  N   UNL     1      14.614   2.838  93.357  1.00  0.00     0.000 N 
HETATM    3  C   UNL     1      15.922   2.249  93.038  1.00  0.00     0.000 C 
HETATM    4  C   UNL     1      14.671   4.299  93.211  1.00  0.00     0.000 C 
HETATM    5  C   UNL     1      16.997   2.864  93.929  1.00  0.00     0.000 C 
HETATM    6  C   UNL     1      15.775   4.866  94.097  1.00  0.00     0.000 C 
ENDROOT
BRANCH   2   7
HETATM    7  C   UNL     1      13.569   2.271  92.507  1.00  0.00     0.000 C 
BRANCH   7   8
HETATM    8  C   UNL     1      12.519   3.269  92.155  1.00  0.00     0.000 A 
HETATM    9  C   UNL     1      11.649   3.741  93.138  1.00  0.00     0.000 A 
HETATM   10  C   UNL     1      10.664   4.673  92.810  1.00  0.00     0.000 A 
HETATM   11  C   UNL     1      10.553   5.134  91.498  1.00  0.00     0.000 A 
HETATM   12  C   UNL     1      11.421   4.663  90.516  1.00  0.00     0.000 A 
HETATM   13  C   UNL     1      12.405   3.731  90.844  1.00  0.00     0.000 A 
BRANCH  11  14
HETATM   14  C   UNL     1       9.544   6.091  91.162  1.00  0.00     0.000 C 
HETATM   15  C   UNL     1       8.696   6.896  90.879  1.00  0.00     0.000 C 
BRANCH  15  16
HETATM   16  C   UNL     1       7.689   7.853  90.544  1.00  0.00     0.000 A 
HETATM   17  C   UNL     1       6.677   7.513  89.646  1.00  0.00     0.000 A 
HETATM   18  C   UNL     1       5.692   8.446  89.321  1.00  0.00     0.000 A 
HETATM   19  C   UNL     1       5.741   9.696  89.901  1.00  0.00     0.000 A 
HETATM   20  C   UNL     1       6.731  10.057  90.791  1.00  0.00     0.000 A 
HETATM   21  C   UNL     1       7.716   9.125  91.116  1.00  0.00     0.000 A 
BRANCH  19  22
HETATM   22  C   UNL     1       4.693  10.690  89.553  1.00  0.00     0.000 C 
HETATM   23  O   UNL     1       3.762  10.351  88.826  1.00  0.00     0.000 OA
HETATM   24  N   UNL     1       4.842  11.952  90.112  1.00  0.00     0.000 N 
HETATM   25  HN  UNL     1       5.624  12.152  90.724  1.00  0.00     0.000 HD
BRANCH  24  26
HETATM   26  C   UNL     1       3.896  13.016  89.889  1.00  0.00     0.000 C 
BRANCH  26  27
HETATM   27  C   UNL     1       3.168  13.441  91.170  1.00  0.00     0.000 C 
HETATM   28  C   UNL     1       2.310  12.324  91.753  1.00  0.00     0.000 C 
BRANCH  27  29
HETATM   29  O   UNL     1       4.123  13.850  92.149  1.00  0.00     0.000 OA
HETATM   30  H   UNL     1       4.863  13.220  92.134  1.00  0.00     0.000 HD
ENDBRANCH  27  29
ENDBRANCH  26  27
BRANCH  26  31
HETATM   31  C   UNL     1       4.649  14.186  89.265  1.00  0.00     0.000 C 
HETATM   32  O   UNL     1       4.675  15.309  89.764  1.00  0.00     0.000 OA
BRANCH  31  33
HETATM   33  P   UNL     1       5.251  13.842  88.078  1.00  0.00     0.000 P 
HETATM   34  H   UNL     1       5.424  14.996  87.342  1.00  0.00     0.000 HD
BRANCH  33  35
HETATM   35  O   UNL     1       4.550  12.925  87.282  1.00  0.00     0.000 OA
HETATM   36  H   UNL     1       3.772  12.767  87.843  1.00  0.00     0.000 HD
ENDBRANCH  33  35
ENDBRANCH  31  33
ENDBRANCH  26  31
ENDBRANCH  24  26
ENDBRANCH  19  22
ENDBRANCH  15  16
ENDBRANCH  11  14
ENDBRANCH   7   8
ENDBRANCH   2   7
TORSDOF 11
ENDMDL
MODEL 2
REMARK VINA RESULT:      -6.4      1.268      1.788
REMARK  11 active torsions:
REMARK  status: ('A' for Active; 'I' for Inactive)
REMARK    1  A    between atoms: O_2  and  C_18 
REMARK    2  A    between atoms: O_5  and  P_8 
REMARK    3  A    between atoms: N_6  and  C_11 
REMARK    4  A    between atoms: N_7  and  C_15 
REMARK       I    between atoms: N_7  and  C_24 
REMARK    5  A    between atoms: P_8  and  C_23 
REMARK    6  A    between atoms: C_11  and  C_14 
REMARK    7  A    between atoms: C_15  and  C_18 
REMARK    8  A    between atoms: C_15  and  C_23 
REMARK    9  A    between atoms: C_21  and  C_26 
REMARK   10  A    between atoms: C_24  and  C_25 
REMARK   11  A    between atoms: C_29  and  C_32 
ROOT
HETATM    1  O   UNL     1      16.040   4.295  94.058  1.00  0.00     0.000 OA
HETATM    2  N   UNL     1      14.252   2.803  92.422  1.00  0.00     0.000 N 
HETATM    3  C   UNL     1      14.311   4.270  92.355  1.00  0.00     0.000 C 
HETATM    4  C   UNL     1      14.627   2.345  93.767  1.00  0.00     0.000 C 
HETATM    5  C   UNL     1      15.708   4.749  92.745  1.00  0.00     0.000 C 
HETATM    6  C   UNL     1      16.014   2.869  94.124  1.00  0.00     0.000 C 
ENDROOT
BRANCH   2   7
HETATM    7  C   UNL     1      12.919   2.322  92.062  1.00  0.00     0.000 C 
BRANCH   7   8
HETATM    8  C   UNL     1      11.954   3.437  91.840  1.00  0.00     0.000 A 
HETATM    9  C   UNL     1      11.669   3.862  90.542  1.00  0.00     0.000 A 
HETATM   10  C   UNL     1      10.768   4.906  90.332  1.00  0.00     0.000 A 
HETATM   11  C   UNL     1      10.151   5.523  91.421  1.00  0.00     0.000 A 
HETATM   12  C   UNL     1      10.435   5.098  92.717  1.00  0.00     0.000 A 
HETATM   13  C   UNL     1      11.337   4.055  92.927  1.00  0.00     0.000 A 
BRANCH  11  14
HETATM   14  C   UNL     1       9.226   6.592  91.206  1.00  0.00     0.000 C 
HETATM   15  C   UNL     1       8.447   7.490  91.024  1.00  0.00     0.000 C 
BRANCH  15  16
HETATM   16  C   UNL     1       7.522   8.559  90.809  1.00  0.00     0.000 A 
HETATM   17  C   UNL     1       7.710   9.439  89.744  1.00  0.00     0.000 A 
HETATM   18  C   UNL     1       6.805  10.480  89.533  1.00  0.00     0.000 A 
HETATM   19  C   UNL     1       5.733  10.615  90.390  1.00  0.00     0.000 A 
HETATM   20  C   UNL     1       5.526   9.758  91.451  1.00  0.00     0.000 A 
HETATM   21  C   UNL     1       6.430   8.718  91.663  1.00  0.00     0.000 A 
BRANCH  19  22
HETATM   22  C   UNL     1       4.771  11.725  90.166  1.00  0.00     0.000 C 
HETATM   23  O   UNL     1       4.109  11.745  89.131  1.00  0.00     0.000 OA
HETATM   24  N   UNL     1       4.677  12.663  91.185  1.00  0.00     0.000 N 
HETATM   25  HN  UNL     1       5.237  12.568  92.023  1.00  0.00     0.000 HD
BRANCH  24  26
HETATM   26  C   UNL     1       3.772  13.783  91.126  1.00  0.00     0.000 C 
BRANCH  26  27
HETATM   27  C   UNL     1       2.698  13.737  92.221  1.00  0.00     0.000 C 
HETATM   28  C   UNL     1       1.726  12.578  92.036  1.00  0.00     0.000 C 
BRANCH  27  29
HETATM   29  O   UNL     1       3.324  13.618  93.498  1.00  0.00     0.000 OA
HETATM   30  H   UNL     1       3.641  12.704  93.598  1.00  0.00     0.000 HD
ENDBRANCH  27  29
ENDBRANCH  26  27
BRANCH  26  31
HETATM   31  C   UNL     1       4.603  15.059  91.218  1.00  0.00     0.000 C 
HETATM   32  O   UNL     1       4.938  15.564  92.288  1.00  0.00     0.000 OA
BRANCH  31  33
HETATM   33  P   UNL     1       4.890  15.582  89.981  1.00  0.00     0.000 P 
HETATM   34  H   UNL     1       3.942  16.544  89.698  1.00  0.00     0.000 HD
BRANCH  33  35
HETATM   35  O   UNL     1       4.902  14.666  88.919  1.00  0.00     0.000 OA
HETATM   36  H   UNL     1       4.764  13.834  89.405  1.00  0.00     0.000 HD
ENDBRANCH  33  35
ENDBRANCH  31  33
ENDBRANCH  26  31
ENDBRANCH  24  26
ENDBRANCH  19  22
ENDBRANCH  15  16
ENDBRANCH  11  14
ENDBRANCH   7   8
ENDBRANCH   2   7
TORSDOF 11
ENDMDL
MODEL 3
REMARK VINA RESULT:      -5.7      2.046      3.238
REMARK  11 active torsions:
REMARK  status: ('A' for Active; 'I' for Inactive)
REMARK    1  A    between atoms: O_2  and  C_18 
REMARK    2  A    between atoms: O_5  and  P_8 
REMARK    3  A    between atoms: N_6  and  C_11 
REMARK    4  A    between atoms: N_7  and  C_15 
REMARK       I    between atoms: N_7  and  C_24 
REMARK    5  A    between atoms: P_8  and  C_23 
REMARK    6  A    between atoms: C_11  and  C_14 
REMARK    7  A    between atoms: C_15  and  C_18 
REMARK    8  A    between atoms: C_15  and  C_23 
REMARK    9  A    between atoms: C_21  and  C_26 
REMARK   10  A    between atoms: C_24  and  C_25 
REMARK   11  A    between atoms: C_29  and  C_32 
ROOT
HETATM    1  O   UNL     1      17.036   3.085  93.861  1.00  0.00     0.000 OA
HETATM    2  N   UNL     1      14.383   3.124  92.831  1.00  0.00     0.000 N 
HETATM    3  C   UNL     1      14.714   3.738  94.124  1.00  0.00     0.000 C 
HETATM    4  C   UNL     1      15.299   2.008  92.554  1.00  0.00     0.000 C 
HETATM    5  C   UNL     1      16.172   4.191  94.123  1.00  0.00     0.000 C 
HETATM    6  C   UNL     1      16.741   2.501  92.591  1.00  0.00     0.000 C 
ENDROOT
BRANCH   2   7
HETATM    7  C   UNL     1      12.993   2.672  92.813  1.00  0.00     0.000 C 
BRANCH   7   8
HETATM    8  C   UNL     1      12.027   3.807  92.824  1.00  0.00     0.000 A 
HETATM    9  C   UNL     1      11.512   4.297  91.623  1.00  0.00     0.000 A 
HETATM   10  C   UNL     1      10.610   5.360  91.633  1.00  0.00     0.000 A 
HETATM   11  C   UNL     1      10.221   5.932  92.844  1.00  0.00     0.000 A 
HETATM   12  C   UNL     1      10.733   5.444  94.044  1.00  0.00     0.000 A 
HETATM   13  C   UNL     1      11.637   4.381  94.035  1.00  0.00     0.000 A 
BRANCH  11  14
HETATM   14  C   UNL     1       9.293   7.021  92.854  1.00  0.00     0.000 C 
HETATM   15  C   UNL     1       8.514   7.937  92.863  1.00  0.00     0.000 C 
BRANCH  15  16
HETATM   16  C   UNL     1       7.587   9.026  92.874  1.00  0.00     0.000 A 
HETATM   17  C   UNL     1       7.327   9.730  91.698  1.00  0.00     0.000 A 
HETATM   18  C   UNL     1       6.421  10.791  91.708  1.00  0.00     0.000 A 
HETATM   19  C   UNL     1       5.796  11.123  92.892  1.00  0.00     0.000 A 
HETATM   20  C   UNL     1       6.037  10.442  94.067  1.00  0.00     0.000 A 
HETATM   21  C   UNL     1       6.942   9.381  94.058  1.00  0.00     0.000 A 
BRANCH  19  22
HETATM   22  C   UNL     1       4.833  12.254  92.903  1.00  0.00     0.000 C 
HETATM   23  O   UNL     1       4.509  12.756  93.976  1.00  0.00     0.000 OA
HETATM   24  N   UNL     1       4.382  12.680  91.661  1.00  0.00     0.000 N 
HETATM   25  HN  UNL     1       4.714  12.234  90.814  1.00  0.00     0.000 HD
BRANCH  24  26
HETATM   26  C   UNL     1       3.465  13.781  91.505  1.00  0.00     0.000 C 
BRANCH  26  27
HETATM   27  C   UNL     1       3.492  14.380  90.093  1.00  0.00     0.000 C 
HETATM   28  C   UNL     1       4.897  14.774  89.652  1.00  0.00     0.000 C 
BRANCH  27  29
HETATM   29  O   UNL     1       2.962  13.435  89.164  1.00  0.00     0.000 OA
HETATM   30  H   UNL     1       2.098  13.136  89.492  1.00  0.00     0.000 HD
ENDBRANCH  27  29
ENDBRANCH  26  27
BRANCH  26  31
HETATM   31  C   UNL     1       2.071  13.281  91.869  1.00  0.00     0.000 C 
HETATM   32  O   UNL     1       1.624  12.202  91.483  1.00  0.00     0.000 OA
BRANCH  31  33
HETATM   33  P   UNL     1       1.379  14.187  92.636  1.00  0.00     0.000 P 
HETATM   34  H   UNL     1       1.605  15.444  92.112  1.00  0.00     0.000 HD
BRANCH  33  35
HETATM   35  O   UNL     1       1.717  14.220  93.996  1.00  0.00     0.000 OA
HETATM   36  H   UNL     1       2.034  15.136  94.074  1.00  0.00     0.000 HD
ENDBRANCH  33  35
ENDBRANCH  31  33
ENDBRANCH  26  31
ENDBRANCH  24  26
ENDBRANCH  19  22
ENDBRANCH  15  16
ENDBRANCH  11  14
ENDBRANCH   7   8
ENDBRANCH   2   7
TORSDOF 11
ENDMDL
MODEL 4
REMARK VINA RESULT:      -4.9      1.450      2.136
REMARK  11 active torsions:
REMARK  status: ('A' for Active; 'I' for Inactive)
REMARK    1  A    between atoms: O_2  and  C_18 
REMARK    2  A    between atoms: O_5  and  P_8 
REMARK    3  A    between atoms: N_6  and  C_11 
REMARK    4  A    between atoms: N_7  and  C_15 
REMARK       I    between atoms: N_7  and  C_24 
REMARK    5  A    between atoms: P_8  and  C_23 
REMARK    6  A    between atoms: C_11  and  C_14 
REMARK    7  A    between atoms: C_15  and  C_18 
REMARK    8  A    between atoms: C_15  and  C_23 
REMARK    9  A    between atoms: C_21  and  C_26 
REMARK   10  A    between atoms: C_24  and  C_25 
REMARK   11  A    between atoms: C_29  and  C_32 
ROOT
HETATM    1  O   UNL     1      17.126   4.361  93.494  1.00  0.00     0.000 OA
HETATM    2  N   UNL     1      14.684   2.904  93.623  1.00  0.00     0.000 N 
HETATM    3  C   UNL     1      15.886   2.334  93.001  1.00  0.00     0.000 C 
HETATM    4  C   UNL     1      14.700   4.368  93.500  1.00  0.00     0.000 C 
HETATM    5  C   UNL     1      17.135   2.940  93.637  1.00  0.00     0.000 C 
HETATM    6  C   UNL     1      15.975   4.927  94.123  1.00  0.00     0.000 C 
ENDROOT
BRANCH   2   7
HETATM    7  C   UNL     1      13.475   2.345  93.022  1.00  0.00     0.000 C 
BRANCH   7   8
HETATM    8  C   UNL     1      12.441   3.385  92.752  1.00  0.00     0.000 A 
HETATM    9  C   UNL     1      11.706   3.927  93.808  1.00  0.00     0.000 A 
HETATM   10  C   UNL     1      10.738   4.898  93.556  1.00  0.00     0.000 A 
HETATM   11  C   UNL     1      10.506   5.329  92.250  1.00  0.00     0.000 A 
HETATM   12  C   UNL     1      11.240   4.790  91.196  1.00  0.00     0.000 A 
HETATM   13  C   UNL     1      12.208   3.817  91.447  1.00  0.00     0.000 A 
BRANCH  11  14
HETATM   14  C   UNL     1       9.514   6.328  91.993  1.00  0.00     0.000 C 
HETATM   15  C   UNL     1       8.680   7.166  91.778  1.00  0.00     0.000 C 
BRANCH  15  16
HETATM   16  C   UNL     1       7.688   8.164  91.522  1.00  0.00     0.000 A 
HETATM   17  C   UNL     1       6.447   7.795  91.001  1.00  0.00     0.000 A 
HETATM   18  C   UNL     1       5.479   8.768  90.754  1.00  0.00     0.000 A 
HETATM   19  C   UNL     1       5.773  10.087  91.033  1.00  0.00     0.000 A 
HETATM   20  C   UNL     1       6.992  10.477  91.547  1.00  0.00     0.000 A 
HETATM   21  C   UNL     1       7.961   9.504  91.794  1.00  0.00     0.000 A 
BRANCH  19  22
HETATM   22  C   UNL     1       4.742  11.123  90.768  1.00  0.00     0.000 C 
HETATM   23  O   UNL     1       3.590  10.774  90.518  1.00  0.00     0.000 OA
HETATM   24  N   UNL     1       5.170  12.441  90.849  1.00  0.00     0.000 N 
HETATM   25  HN  UNL     1       6.132  12.654  91.084  1.00  0.00     0.000 HD
BRANCH  24  26
HETATM   26  C   UNL     1       4.284  13.558  90.642  1.00  0.00     0.000 C 
BRANCH  26  27
HETATM   27  C   UNL     1       3.819  13.686  89.185  1.00  0.00     0.000 C 
HETATM   28  C   UNL     1       4.985  13.748  88.204  1.00  0.00     0.000 C 
BRANCH  27  29
HETATM   29  O   UNL     1       2.989  12.574  88.850  1.00  0.00     0.000 OA
HETATM   30  H   UNL     1       3.393  11.770  89.218  1.00  0.00     0.000 HD
ENDBRANCH  27  29
ENDBRANCH  26  27
BRANCH  26  31
HETATM   31  C   UNL     1       3.099  13.395  91.589  1.00  0.00     0.000 C 
HETATM   32  O   UNL     1       1.945  13.235  91.197  1.00  0.00     0.000 OA
BRANCH  31  33
HETATM   33  P   UNL     1       3.473  13.488  92.908  1.00  0.00     0.000 P 
HETATM   34  H   UNL     1       2.365  13.874  93.635  1.00  0.00     0.000 HD
BRANCH  33  35
HETATM   35  O   UNL     1       4.507  14.392  93.187  1.00  0.00     0.000 OA
HETATM   36  H   UNL     1       4.695  14.724  92.292  1.00  0.00     0.000 HD
ENDBRANCH  33  35
ENDBRANCH  31  33
ENDBRANCH  26  31
ENDBRANCH  24  26
ENDBRANCH  19  22
ENDBRANCH  15  16
ENDBRANCH  11  14
ENDBRANCH   7   8
ENDBRANCH   2   7
TORSDOF 11
ENDMDL
MODEL 5
REMARK VINA RESULT:      -4.4      3.473     12.735
REMARK  11 active torsions:
REMARK  status: ('A' for Active; 'I' for Inactive)
REMARK    1  A    between atoms: O_2  and  C_18 
REMARK    2  A    between atoms: O_5  and  P_8 
REMARK    3  A    between atoms: N_6  and  C_11 
REMARK    4  A    between atoms: N_7  and  C_15 
REMARK       I    between atoms: N_7  and  C_24 
REMARK    5  A    between atoms: P_8  and  C_23 
REMARK    6  A    between atoms: C_11  and  C_14 
REMARK    7  A    between atoms: C_15  and  C_18 
REMARK    8  A    between atoms: C_15  and  C_23 
REMARK    9  A    between atoms: C_21  and  C_26 
REMARK   10  A    between atoms: C_24  and  C_25 
REMARK   11  A    between atoms: C_29  and  C_32 
ROOT
HETATM    1  O   UNL     1       2.078  15.130  92.662  1.00  0.00     0.000 OA
HETATM    2  N   UNL     1       3.853  13.278  91.430  1.00  0.00     0.000 N 
HETATM    3  C   UNL     1       4.241  14.677  91.660  1.00  0.00     0.000 C 
HETATM    4  C   UNL     1       2.398  13.182  91.253  1.00  0.00     0.000 C 
HETATM    5  C   UNL     1       3.488  15.230  92.868  1.00  0.00     0.000 C 
HETATM    6  C   UNL     1       1.689  13.770  92.469  1.00  0.00     0.000 C 
ENDROOT
BRANCH   2   7
HETATM    7  C   UNL     1       4.555  12.731  90.270  1.00  0.00     0.000 C 
BRANCH   7   8
HETATM    8  C   UNL     1       5.499  11.638  90.641  1.00  0.00     0.000 A 
HETATM    9  C   UNL     1       5.556  11.184  91.960  1.00  0.00     0.000 A 
HETATM   10  C   UNL     1       6.440  10.164  92.308  1.00  0.00     0.000 A 
HETATM   11  C   UNL     1       7.264   9.595  91.338  1.00  0.00     0.000 A 
HETATM   12  C   UNL     1       7.208  10.047  90.021  1.00  0.00     0.000 A 
HETATM   13  C   UNL     1       6.325  11.068  89.672  1.00  0.00     0.000 A 
BRANCH  11  14
HETATM   14  C   UNL     1       8.170   8.546  91.695  1.00  0.00     0.000 C 
HETATM   15  C   UNL     1       8.930   7.665  91.996  1.00  0.00     0.000 C 
BRANCH  15  16
HETATM   16  C   UNL     1       9.834   6.617  92.354  1.00  0.00     0.000 A 
HETATM   17  C   UNL     1      10.250   6.478  93.679  1.00  0.00     0.000 A 
HETATM   18  C   UNL     1      11.130   5.453  94.028  1.00  0.00     0.000 A 
HETATM   19  C   UNL     1      11.573   4.591  93.047  1.00  0.00     0.000 A 
HETATM   20  C   UNL     1      11.177   4.708  91.731  1.00  0.00     0.000 A 
HETATM   21  C   UNL     1      10.297   5.732  91.380  1.00  0.00     0.000 A 
BRANCH  19  22
HETATM   22  C   UNL     1      12.511   3.501  93.419  1.00  0.00     0.000 C 
HETATM   23  O   UNL     1      12.095   2.347  93.485  1.00  0.00     0.000 OA
HETATM   24  N   UNL     1      13.827   3.882  93.645  1.00  0.00     0.000 N 
HETATM   25  HN  UNL     1      14.104   4.852  93.546  1.00  0.00     0.000 HD
BRANCH  24  26
HETATM   26  C   UNL     1      14.859   2.938  93.990  1.00  0.00     0.000 C 
BRANCH  26  27
HETATM   27  C   UNL     1      14.827   1.678  93.116  1.00  0.00     0.000 C 
HETATM   28  C   UNL     1      15.688   1.812  91.865  1.00  0.00     0.000 C 
BRANCH  27  29
HETATM   29  O   UNL     1      15.284   0.559  93.876  1.00  0.00     0.000 OA
HETATM   30  H   UNL     1      16.252   0.612  93.944  1.00  0.00     0.000 HD
ENDBRANCH  27  29
ENDBRANCH  26  27
BRANCH  26  31
HETATM   31  C   UNL     1      16.201   3.655  93.879  1.00  0.00     0.000 C 
HETATM   32  O   UNL     1      17.268   3.060  93.734  1.00  0.00     0.000 OA
BRANCH  31  33
HETATM   33  P   UNL     1      16.073   5.017  94.000  1.00  0.00     0.000 P 
HETATM   34  H   UNL     1      14.733   5.304  94.158  1.00  0.00     0.000 HD
BRANCH  33  35
HETATM   35  O   UNL     1      16.550   5.773  92.919  1.00  0.00     0.000 OA
HETATM   36  H   UNL     1      15.895   6.491  92.907  1.00  0.00     0.000 HD
ENDBRANCH  33  35
ENDBRANCH  31  33
ENDBRANCH  26  31
ENDBRANCH  24  26
ENDBRANCH  19  22
ENDBRANCH  15  16
ENDBRANCH  11  14
ENDBRANCH   7   8
ENDBRANCH   2   7
TORSDOF 11
ENDMDL
MODEL 6
REMARK VINA RESULT:      -4.3      3.452     12.459
REMARK  11 active torsions:
REMARK  status: ('A' for Active; 'I' for Inactive)
REMARK    1  A    between atoms: O_2  and  C_18 
REMARK    2  A    between atoms: O_5  and  P_8 
REMARK    3  A    between atoms: N_6  and  C_11 
REMARK    4  A    between atoms: N_7  and  C_15 
REMARK       I    between atoms: N_7  and  C_24 
REMARK    5  A    between atoms: P_8  and  C_23 
REMARK    6  A    between atoms: C_11  and  C_14 
REMARK    7  A    between atoms: C_15  and  C_18 
REMARK    8  A    between atoms: C_15  and  C_23 
REMARK    9  A    between atoms: C_21  and  C_26 
REMARK   10  A    between atoms: C_24  and  C_25 
REMARK   11  A    between atoms: C_29  and  C_32 
ROOT
HETATM    1  O   UNL     1       2.647  13.613  92.238  1.00  0.00     0.000 OA
HETATM    2  N   UNL     1       2.989  12.561  89.615  1.00  0.00     0.000 N 
HETATM    3  C   UNL     1       2.906  11.683  90.790  1.00  0.00     0.000 C 
HETATM    4  C   UNL     1       3.547  13.865  89.999  1.00  0.00     0.000 C 
HETATM    5  C   UNL     1       2.074  12.354  91.880  1.00  0.00     0.000 C 
HETATM    6  C   UNL     1       2.702  14.484  91.107  1.00  0.00     0.000 C 
ENDROOT
BRANCH   2   7
HETATM    7  C   UNL     1       3.791  11.942  88.561  1.00  0.00     0.000 C 
BRANCH   7   8
HETATM    8  C   UNL     1       4.785  10.971  89.101  1.00  0.00     0.000 A 
HETATM    9  C   UNL     1       6.001  11.428  89.609  1.00  0.00     0.000 A 
HETATM   10  C   UNL     1       6.933  10.520  90.111  1.00  0.00     0.000 A 
HETATM   11  C   UNL     1       6.646   9.155  90.108  1.00  0.00     0.000 A 
HETATM   12  C   UNL     1       5.431   8.697  89.602  1.00  0.00     0.000 A 
HETATM   13  C   UNL     1       4.500   9.605  89.098  1.00  0.00     0.000 A 
BRANCH  11  14
HETATM   14  C   UNL     1       7.601   8.224  90.626  1.00  0.00     0.000 C 
HETATM   15  C   UNL     1       8.402   7.441  91.062  1.00  0.00     0.000 C 
BRANCH  15  16
HETATM   16  C   UNL     1       9.356   6.509  91.579  1.00  0.00     0.000 A 
HETATM   17  C   UNL     1      10.037   5.655  90.712  1.00  0.00     0.000 A 
HETATM   18  C   UNL     1      10.969   4.749  91.216  1.00  0.00     0.000 A 
HETATM   19  C   UNL     1      11.199   4.717  92.576  1.00  0.00     0.000 A 
HETATM   20  C   UNL     1      10.539   5.550  93.454  1.00  0.00     0.000 A 
HETATM   21  C   UNL     1       9.606   6.457  92.951  1.00  0.00     0.000 A 
BRANCH  19  22
HETATM   22  C   UNL     1      12.191   3.749  93.113  1.00  0.00     0.000 C 
HETATM   23  O   UNL     1      11.812   2.634  93.464  1.00  0.00     0.000 OA
HETATM   24  N   UNL     1      13.507   4.188  93.155  1.00  0.00     0.000 N 
HETATM   25  HN  UNL     1      13.750   5.114  92.825  1.00  0.00     0.000 HD
BRANCH  24  26
HETATM   26  C   UNL     1      14.586   3.358  93.627  1.00  0.00     0.000 C 
BRANCH  26  27
HETATM   27  C   UNL     1      14.830   2.135  92.733  1.00  0.00     0.000 C 
HETATM   28  C   UNL     1      14.479   0.824  93.428  1.00  0.00     0.000 C 
BRANCH  27  29
HETATM   29  O   UNL     1      14.050   2.252  91.543  1.00  0.00     0.000 OA
HETATM   30  H   UNL     1      13.148   1.946  91.738  1.00  0.00     0.000 HD
ENDBRANCH  27  29
ENDBRANCH  26  27
BRANCH  26  31
HETATM   31  C   UNL     1      15.834   4.229  93.727  1.00  0.00     0.000 C 
HETATM   32  O   UNL     1      15.840   5.426  93.447  1.00  0.00     0.000 OA
BRANCH  31  33
HETATM   33  P   UNL     1      16.937   3.512  94.124  1.00  0.00     0.000 P 
HETATM   34  H   UNL     1      17.453   4.119  95.250  1.00  0.00     0.000 HD
BRANCH  33  35
HETATM   35  O   UNL     1      17.969   3.408  93.181  1.00  0.00     0.000 OA
HETATM   36  H   UNL     1      18.670   3.907  93.633  1.00  0.00     0.000 HD
ENDBRANCH  33  35
ENDBRANCH  31  33
ENDBRANCH  26  31
ENDBRANCH  24  26
ENDBRANCH  19  22
ENDBRANCH  15  16
ENDBRANCH  11  14
ENDBRANCH   7   8
ENDBRANCH   2   7
TORSDOF 11
ENDMDL
MODEL 7
REMARK VINA RESULT:      -4.2      3.425     12.588
REMARK  11 active torsions:
REMARK  status: ('A' for Active; 'I' for Inactive)
REMARK    1  A    between atoms: O_2  and  C_18 
REMARK    2  A    between atoms: O_5  and  P_8 
REMARK    3  A    between atoms: N_6  and  C_11 
REMARK    4  A    between atoms: N_7  and  C_15 
REMARK       I    between atoms: N_7  and  C_24 
REMARK    5  A    between atoms: P_8  and  C_23 
REMARK    6  A    between atoms: C_11  and  C_14 
REMARK    7  A    between atoms: C_15  and  C_18 
REMARK    8  A    between atoms: C_15  and  C_23 
REMARK    9  A    between atoms: C_21  and  C_26 
REMARK   10  A    between atoms: C_24  and  C_25 
REMARK   11  A    between atoms: C_29  and  C_32 
ROOT
HETATM    1  O   UNL     1       2.828  15.208  93.050  1.00  0.00     0.000 OA
HETATM    2  N   UNL     1       3.670  12.889  91.631  1.00  0.00     0.000 N 
HETATM    3  C   UNL     1       4.582  14.016  91.870  1.00  0.00     0.000 C 
HETATM    4  C   UNL     1       2.282  13.369  91.565  1.00  0.00     0.000 C 
HETATM    5  C   UNL     1       4.177  14.747  93.148  1.00  0.00     0.000 C 
HETATM    6  C   UNL     1       1.931  14.115  92.848  1.00  0.00     0.000 C 
ENDROOT
BRANCH   2   7
HETATM    7  C   UNL     1       4.033  12.180  90.405  1.00  0.00     0.000 C 
BRANCH   7   8
HETATM    8  C   UNL     1       5.048  11.114  90.645  1.00  0.00     0.000 A 
HETATM    9  C   UNL     1       6.032  10.862  89.689  1.00  0.00     0.000 A 
HETATM   10  C   UNL     1       6.980   9.864  89.911  1.00  0.00     0.000 A 
HETATM   11  C   UNL     1       6.945   9.120  91.090  1.00  0.00     0.000 A 
HETATM   12  C   UNL     1       5.963   9.371  92.045  1.00  0.00     0.000 A 
HETATM   13  C   UNL     1       5.014  10.369  91.823  1.00  0.00     0.000 A 
BRANCH  11  14
HETATM   14  C   UNL     1       7.920   8.098  91.319  1.00  0.00     0.000 C 
HETATM   15  C   UNL     1       8.738   7.238  91.511  1.00  0.00     0.000 C 
BRANCH  15  16
HETATM   16  C   UNL     1       9.711   6.216  91.739  1.00  0.00     0.000 A 
HETATM   17  C   UNL     1      10.270   5.533  90.658  1.00  0.00     0.000 A 
HETATM   18  C   UNL     1      11.222   4.538  90.880  1.00  0.00     0.000 A 
HETATM   19  C   UNL     1      11.593   4.248  92.177  1.00  0.00     0.000 A 
HETATM   20  C   UNL     1      11.054   4.908  93.262  1.00  0.00     0.000 A 
HETATM   21  C   UNL     1      10.103   5.903  93.040  1.00  0.00     0.000 A 
BRANCH  19  22
HETATM   22  C   UNL     1      12.605   3.186  92.413  1.00  0.00     0.000 C 
HETATM   23  O   UNL     1      12.264   2.008  92.352  1.00  0.00     0.000 OA
HETATM   24  N   UNL     1      13.897   3.624  92.668  1.00  0.00     0.000 N 
HETATM   25  HN  UNL     1      14.110   4.614  92.679  1.00  0.00     0.000 HD
BRANCH  24  26
HETATM   26  C   UNL     1      14.993   2.716  92.893  1.00  0.00     0.000 C 
BRANCH  26  27
HETATM   27  C   UNL     1      15.563   2.139  91.591  1.00  0.00     0.000 C 
HETATM   28  C   UNL     1      15.307   3.043  90.391  1.00  0.00     0.000 C 
BRANCH  27  29
HETATM   29  O   UNL     1      16.970   1.944  91.731  1.00  0.00     0.000 OA
HETATM   30  H   UNL     1      17.227   2.211  92.630  1.00  0.00     0.000 HD
ENDBRANCH  27  29
ENDBRANCH  26  27
BRANCH  26  31
HETATM   31  C   UNL     1      16.062   3.464  93.683  1.00  0.00     0.000 C 
HETATM   32  O   UNL     1      17.170   2.989  93.926  1.00  0.00     0.000 OA
BRANCH  31  33
HETATM   33  P   UNL     1      15.625   4.693  94.114  1.00  0.00     0.000 P 
HETATM   34  H   UNL     1      14.325   4.854  93.682  1.00  0.00     0.000 HD
BRANCH  33  35
HETATM   35  O   UNL     1      16.367   5.795  93.665  1.00  0.00     0.000 OA
HETATM   36  H   UNL     1      16.190   6.428  94.382  1.00  0.00     0.000 HD
ENDBRANCH  33  35
ENDBRANCH  31  33
ENDBRANCH  26  31
ENDBRANCH  24  26
ENDBRANCH  19  22
ENDBRANCH  15  16
ENDBRANCH  11  14
ENDBRANCH   7   8
ENDBRANCH   2   7
TORSDOF 11
ENDMDL
MODEL 8
REMARK VINA RESULT:      -4.0      3.270     12.457
REMARK  11 active torsions:
REMARK  status: ('A' for Active; 'I' for Inactive)
REMARK    1  A    between atoms: O_2  and  C_18 
REMARK    2  A    between atoms: O_5  and  P_8 
REMARK    3  A    between atoms: N_6  and  C_11 
REMARK    4  A    between atoms: N_7  and  C_15 
REMARK       I    between atoms: N_7  and  C_24 
REMARK    5  A    between atoms: P_8  and  C_23 
REMARK    6  A    between atoms: C_11  and  C_14 
REMARK    7  A    between atoms: C_15  and  C_18 
REMARK    8  A    between atoms: C_15  and  C_23 
REMARK    9  A    between atoms: C_21  and  C_26 
REMARK   10  A    between atoms: C_24  and  C_25 
REMARK   11  A    between atoms: C_29  and  C_32 
ROOT
HETATM    1  O   UNL     1       4.522  13.930  89.068  1.00  0.00     0.000 OA
HETATM    2  N   UNL     1       3.229  12.158  90.882  1.00  0.00     0.000 N 
HETATM    3  C   UNL     1       3.437  13.576  91.210  1.00  0.00     0.000 C 
HETATM    4  C   UNL     1       4.285  11.692  89.973  1.00  0.00     0.000 C 
HETATM    5  C   UNL     1       3.482  14.401  89.927  1.00  0.00     0.000 C 
HETATM    6  C   UNL     1       4.311  12.561  88.720  1.00  0.00     0.000 C 
ENDROOT
BRANCH   2   7
HETATM    7  C   UNL     1       3.194  11.346  92.097  1.00  0.00     0.000 C 
BRANCH   7   8
HETATM    8  C   UNL     1       4.304  10.353  92.150  1.00  0.00     0.000 A 
HETATM    9  C   UNL     1       4.288   9.244  91.303  1.00  0.00     0.000 A 
HETATM   10  C   UNL     1       5.325   8.313  91.353  1.00  0.00     0.000 A 
HETATM   11  C   UNL     1       6.380   8.493  92.247  1.00  0.00     0.000 A 
HETATM   12  C   UNL     1       6.397   9.600  93.093  1.00  0.00     0.000 A 
HETATM   13  C   UNL     1       5.360  10.531  93.044  1.00  0.00     0.000 A 
BRANCH  11  14
HETATM   14  C   UNL     1       7.445   7.540  92.297  1.00  0.00     0.000 C 
HETATM   15  C   UNL     1       8.340   6.738  92.338  1.00  0.00     0.000 C 
BRANCH  15  16
HETATM   16  C   UNL     1       9.404   5.784  92.387  1.00  0.00     0.000 A 
HETATM   17  C   UNL     1      10.282   5.774  93.471  1.00  0.00     0.000 A 
HETATM   18  C   UNL     1      11.318   4.842  93.520  1.00  0.00     0.000 A 
HETATM   19  C   UNL     1      11.454   3.942  92.484  1.00  0.00     0.000 A 
HETATM   20  C   UNL     1      10.600   3.931  91.401  1.00  0.00     0.000 A 
HETATM   21  C   UNL     1       9.563   4.863  91.351  1.00  0.00     0.000 A 
BRANCH  19  22
HETATM   22  C   UNL     1      12.560   2.950  92.535  1.00  0.00     0.000 C 
HETATM   23  O   UNL     1      12.344   1.793  92.184  1.00  0.00     0.000 OA
HETATM   24  N   UNL     1      13.788   3.431  92.966  1.00  0.00     0.000 N 
HETATM   25  HN  UNL     1      13.898   4.407  93.216  1.00  0.00     0.000 HD
BRANCH  24  26
HETATM   26  C   UNL     1      14.962   2.599  93.046  1.00  0.00     0.000 C 
BRANCH  26  27
HETATM   27  C   UNL     1      15.460   2.140  91.670  1.00  0.00     0.000 C 
HETATM   28  C   UNL     1      15.029   3.080  90.550  1.00  0.00     0.000 C 
BRANCH  27  29
HETATM   29  O   UNL     1      16.884   2.055  91.682  1.00  0.00     0.000 OA
HETATM   30  H   UNL     1      17.214   2.336  90.811  1.00  0.00     0.000 HD
ENDBRANCH  27  29
ENDBRANCH  26  27
BRANCH  26  31
HETATM   31  C   UNL     1      16.037   3.382  93.792  1.00  0.00     0.000 C 
HETATM   32  O   UNL     1      17.115   2.891  94.123  1.00  0.00     0.000 OA
BRANCH  31  33
HETATM   33  P   UNL     1      15.642   4.667  94.075  1.00  0.00     0.000 P 
HETATM   34  H   UNL     1      14.320   4.796  93.698  1.00  0.00     0.000 HD
BRANCH  33  35
HETATM   35  O   UNL     1      16.370   5.684  93.442  1.00  0.00     0.000 OA
HETATM   36  H   UNL     1      16.585   6.246  94.205  1.00  0.00     0.000 HD
ENDBRANCH  33  35
ENDBRANCH  31  33
ENDBRANCH  26  31
ENDBRANCH  24  26
ENDBRANCH  19  22
ENDBRANCH  15  16
ENDBRANCH  11  14
ENDBRANCH   7   8
ENDBRANCH   2   7
TORSDOF 11
ENDMDL
MODEL 9
REMARK VINA RESULT:      -3.9      3.730     12.457
REMARK  11 active torsions:
REMARK  status: ('A' for Active; 'I' for Inactive)
REMARK    1  A    between atoms: O_2  and  C_18 
REMARK    2  A    between atoms: O_5  and  P_8 
REMARK    3  A    between atoms: N_6  and  C_11 
REMARK    4  A    between atoms: N_7  and  C_15 
REMARK       I    between atoms: N_7  and  C_24 
REMARK    5  A    between atoms: P_8  and  C_23 
REMARK    6  A    between atoms: C_11  and  C_14 
REMARK    7  A    between atoms: C_15  and  C_18 
REMARK    8  A    between atoms: C_15  and  C_23 
REMARK    9  A    between atoms: C_21  and  C_26 
REMARK   10  A    between atoms: C_24  and  C_25 
REMARK   11  A    between atoms: C_29  and  C_32 
ROOT
HETATM    1  O   UNL     1       3.474  14.605  89.898  1.00  0.00     0.000 OA
HETATM    2  N   UNL     1       2.827  13.859  92.568  1.00  0.00     0.000 N 
HETATM    3  C   UNL     1       4.221  14.011  92.129  1.00  0.00     0.000 C 
HETATM    4  C   UNL     1       1.983  13.462  91.432  1.00  0.00     0.000 C 
HETATM    5  C   UNL     1       4.297  15.023  90.989  1.00  0.00     0.000 C 
HETATM    6  C   UNL     1       2.111  14.485  90.308  1.00  0.00     0.000 C 
ENDROOT
BRANCH   2   7
HETATM    7  C   UNL     1       2.729  12.886  93.654  1.00  0.00     0.000 C 
BRANCH   7   8
HETATM    8  C   UNL     1       3.764  11.818  93.554  1.00  0.00     0.000 A 
HETATM    9  C   UNL     1       3.451  10.598  92.953  1.00  0.00     0.000 A 
HETATM   10  C   UNL     1       4.419   9.598  92.861  1.00  0.00     0.000 A 
HETATM   11  C   UNL     1       5.699   9.818  93.369  1.00  0.00     0.000 A 
HETATM   12  C   UNL     1       6.012  11.035  93.970  1.00  0.00     0.000 A 
HETATM   13  C   UNL     1       5.045  12.036  94.062  1.00  0.00     0.000 A 
BRANCH  11  14
HETATM   14  C   UNL     1       6.691   8.792  93.273  1.00  0.00     0.000 C 
HETATM   15  C   UNL     1       7.525   7.930  93.192  1.00  0.00     0.000 C 
BRANCH  15  16
HETATM   16  C   UNL     1       8.517   6.905  93.095  1.00  0.00     0.000 A 
HETATM   17  C   UNL     1       8.332   5.837  92.216  1.00  0.00     0.000 A 
HETATM   18  C   UNL     1       9.301   4.839  92.120  1.00  0.00     0.000 A 
HETATM   19  C   UNL     1      10.433   4.931  92.902  1.00  0.00     0.000 A 
HETATM   20  C   UNL     1      10.639   5.975  93.779  1.00  0.00     0.000 A 
HETATM   21  C   UNL     1       9.671   6.974  93.876  1.00  0.00     0.000 A 
BRANCH  19  22
HETATM   22  C   UNL     1      11.465   3.866  92.801  1.00  0.00     0.000 C 
HETATM   23  O   UNL     1      11.118   2.688  92.853  1.00  0.00     0.000 OA
HETATM   24  N   UNL     1      12.771   4.300  92.625  1.00  0.00     0.000 N 
HETATM   25  HN  UNL     1      12.979   5.290  92.566  1.00  0.00     0.000 HD
BRANCH  24  26
HETATM   26  C   UNL     1      13.879   3.389  92.486  1.00  0.00     0.000 C 
BRANCH  26  27
HETATM   27  C   UNL     1      14.174   3.033  91.023  1.00  0.00     0.000 C 
HETATM   28  C   UNL     1      13.443   3.942  90.042  1.00  0.00     0.000 C 
BRANCH  27  29
HETATM   29  O   UNL     1      15.578   3.127  90.783  1.00  0.00     0.000 OA
HETATM   30  H   UNL     1      15.728   3.822  90.121  1.00  0.00     0.000 HD
ENDBRANCH  27  29
ENDBRANCH  26  27
BRANCH  26  31
HETATM   31  C   UNL     1      15.092   4.024  93.158  1.00  0.00     0.000 C 
HETATM   32  O   UNL     1      15.536   5.124  92.836  1.00  0.00     0.000 OA
BRANCH  31  33
HETATM   33  P   UNL     1      15.637   3.210  94.121  1.00  0.00     0.000 P 
HETATM   34  H   UNL     1      16.521   3.966  94.863  1.00  0.00     0.000 HD
BRANCH  33  35
HETATM   35  O   UNL     1      16.325   2.083  93.649  1.00  0.00     0.000 OA
HETATM   36  H   UNL     1      15.658   1.393  93.804  1.00  0.00     0.000 HD
ENDBRANCH  33  35
ENDBRANCH  31  33
ENDBRANCH  26  31
ENDBRANCH  24  26
ENDBRANCH  19  22
ENDBRANCH  15  16
ENDBRANCH  11  14
ENDBRANCH   7   8
ENDBRANCH   2   7
TORSDOF 11
ENDMDL
