MODEL 1
REMARK VINA RESULT:      -6.6      0.000      0.000
REMARK  14 active torsions:
REMARK  status: ('A' for Active; 'I' for Inactive)
REMARK    1  A    between atoms: O_2  and  C_18 
REMARK    2  A    between atoms: C_5  and  C_8 
REMARK    3  A    between atoms: C_5  and  O_35 
REMARK    4  A    between atoms: C_5  and  C_36 
REMARK    5  A    between atoms: N_6  and  C_11 
REMARK    6  A    between atoms: N_7  and  C_15 
REMARK       I    between atoms: N_7  and  C_24 
REMARK    7  A    between atoms: C_8  and  C_23 
REMARK    8  A    between atoms: C_11  and  C_14 
REMARK    9  A    between atoms: C_15  and  C_18 
REMARK   10  A    between atoms: C_15  and  C_23 
REMARK   11  A    between atoms: C_21  and  C_26 
REMARK   12  A    between atoms: C_24  and  C_25 
REMARK   13  A    between atoms: C_29  and  C_32 
REMARK   14  A    between atoms: C_36  and  O_39 
ROOT
HETATM    1  O   UNL     1      15.904   4.359  93.937  1.00  0.00    -0.350 OA
HETATM    2  N   UNL     1      14.217   2.726  92.328  1.00  0.00     0.147 N 
HETATM    3  C   UNL     1      14.276   4.183  92.146  1.00  0.00     0.283 C 
HETATM    4  C   UNL     1      14.517   2.381  93.725  1.00  0.00     0.283 C 
HETATM    5  C   UNL     1      15.646   4.702  92.574  1.00  0.00     0.178 C 
HETATM    6  C   UNL     1      15.879   2.942  94.116  1.00  0.00     0.178 C 
ENDROOT
BRANCH   2   7
HETATM    7  C   UNL     1      12.908   2.207  91.934  1.00  0.00     0.277 C 
BRANCH   7   8
HETATM    8  C   UNL     1      11.872   3.276  91.862  1.00  0.00     0.011 A 
HETATM    9  C   UNL     1      11.327   3.799  93.036  1.00  0.00    -0.002 A 
HETATM   10  C   UNL     1      10.356   4.798  92.969  1.00  0.00     0.008 A 
HETATM   11  C   UNL     1       9.932   5.275  91.729  1.00  0.00     0.042 A 
HETATM   12  C   UNL     1      10.475   4.754  90.557  1.00  0.00     0.008 A 
HETATM   13  C   UNL     1      11.446   3.755  90.623  1.00  0.00    -0.002 A 
BRANCH  11  14
HETATM   14  C   UNL     1       8.937   6.301  91.662  1.00  0.00    -0.059 C 
HETATM   15  C   UNL     1       8.101   7.163  91.605  1.00  0.00    -0.059 C 
BRANCH  15  16
HETATM   16  C   UNL     1       7.106   8.188  91.537  1.00  0.00     0.042 A 
HETATM   17  C   UNL     1       6.312   8.315  90.397  1.00  0.00     0.008 A 
HETATM   18  C   UNL     1       5.340   9.313  90.333  1.00  0.00     0.005 A 
HETATM   19  C   UNL     1       5.184  10.161  91.410  1.00  0.00     0.056 A 
HETATM   20  C   UNL     1       5.956  10.057  92.547  1.00  0.00     0.005 A 
HETATM   21  C   UNL     1       6.929   9.059  92.612  1.00  0.00     0.008 A 
BRANCH  19  22
HETATM   22  C   UNL     1       4.150  11.226  91.340  1.00  0.00     0.254 C 
HETATM   23  O   UNL     1       2.976  10.911  91.156  1.00  0.00    -0.268 OA
HETATM   24  N   UNL     1       4.602  12.526  91.518  1.00  0.00    -0.335 N 
HETATM   25  HN  UNL     1       5.584  12.708  91.691  1.00  0.00     0.164 HD
BRANCH  24  26
HETATM   26  C   UNL     1       3.719  13.664  91.502  1.00  0.00     0.169 C 
BRANCH  26  27
HETATM   27  C   UNL     1       3.455  14.230  92.903  1.00  0.00     0.138 C 
HETATM   28  C   UNL     1       2.370  13.460  93.649  1.00  0.00     0.034 C 
BRANCH  27  29
HETATM   29  O   UNL     1       4.659  14.192  93.668  1.00  0.00    -0.383 OA
HETATM   30  H   UNL     1       4.680  14.976  94.242  1.00  0.00     0.210 HD
ENDBRANCH  27  29
ENDBRANCH  26  27
BRANCH  26  31
HETATM   31  C   UNL     1       4.332  14.717  90.585  1.00  0.00     0.194 C 
HETATM   32  O   UNL     1       5.055  15.623  90.995  1.00  0.00    -0.289 OA
BRANCH  31  33
HETATM   33  C   UNL     1       3.950  14.551  89.276  1.00  0.00     0.053 C 
BRANCH  33  34
HETATM   34  C   UNL     1       4.890  13.933  88.439  1.00  0.00     0.220 C 
BRANCH  34  35
HETATM   35  O   UNL     1       6.006  14.032  88.984  1.00  0.00    -0.371 OA
HETATM   36  H   UNL     1       6.070  14.975  88.986  1.00  0.00     0.211 HD
ENDBRANCH  34  35
BRANCH  34  37
HETATM   37  C   UNL     1       4.568  12.603  88.121  1.00  0.00     0.185 C 
HETATM   38  O   UNL     1       5.820  12.380  88.488  1.00  0.00    -0.647 OA
BRANCH  37  39
HETATM   39  O   UNL     1       3.625  12.012  87.686  1.00  0.00    -0.774 OA
HETATM   40  H   UNL     1       2.999  11.556  88.515  1.00  0.00     0.167 HD
ENDBRANCH  37  39
ENDBRANCH  34  37
ENDBRANCH  33  34
ENDBRANCH  31  33
ENDBRANCH  26  31
ENDBRANCH  24  26
ENDBRANCH  19  22
ENDBRANCH  15  16
ENDBRANCH  11  14
ENDBRANCH   7   8
ENDBRANCH   2   7
TORSDOF 14
ENDMDL
