MODEL 1
REMARK VINA RESULT:      -7.6      0.000      0.000
REMARK  9 active torsions:
REMARK  status: ('A' for Active; 'I' for Inactive)
REMARK    1  A    between atoms: N_3  and  C_6 
REMARK    2  A    between atoms: C_6  and  C_9 
REMARK    3  A    between atoms: C_14  and  C_17 
REMARK       I    between atoms: N_26  and  C_15 
REMARK    4  A    between atoms: C_15  and  C_16 
REMARK    5  A    between atoms: C_20  and  C_23 
REMARK    6  A    between atoms: OG1_24  and  CB_28 
REMARK    7  A    between atoms: N_26  and  CA_27 
REMARK    8  A    between atoms: CA_27  and  CB_28 
REMARK    9  A    between atoms: CA_27  and  C_30 
ROOT
HETATM    1  O   UNK A   0       2.126   8.156  87.893  1.00  0.00    -0.388 OA
HETATM    2  N   UNK A   0       4.901   7.544  87.729  1.00  0.00     0.096 N 
HETATM    3  C   UNK A   0       4.427   8.927  87.871  1.00  0.00     0.299 C 
HETATM    4  C   UNK A   0       3.892   6.736  87.029  1.00  0.00     0.299 C 
HETATM    5  C   UNK A   0       3.087   8.942  88.601  1.00  0.00     0.198 C 
HETATM    6  C   UNK A   0       2.565   6.803  87.778  1.00  0.00     0.198 C 
ENDROOT
BRANCH   2   7
HETATM    7  C   UNK A   0       6.180   7.504  87.023  1.00  0.00     0.311 C 
BRANCH   7   8
HETATM    8  C   UNK A   0       7.266   6.899  87.846  1.00  0.00    -0.030 A 
HETATM    9  C   UNK A   0       8.534   6.710  87.296  1.00  0.00     0.010 A 
HETATM   10  C   UNK A   0       9.550   6.142  88.065  1.00  0.00     0.021 A 
HETATM   11  C   UNK A   0       9.297   5.766  89.384  1.00  0.00     0.018 A 
HETATM   12  C   UNK A   0       8.031   5.954  89.934  1.00  0.00     0.021 A 
HETATM   13  C   UNK A   0       7.015   6.521  89.165  1.00  0.00     0.010 A 
BRANCH  11  14
HETATM   14  C   UNK A   0      10.340   5.185  90.173  1.00  0.00    -0.061 C 
HETATM   15  C   UNK A   0      11.216   4.698  90.836  1.00  0.00    -0.061 C 
BRANCH  15  16
HETATM   16  C   UNK A   0      12.257   4.118  91.626  1.00  0.00     0.018 A 
HETATM   17  C   UNK A   0      13.525   3.927  91.075  1.00  0.00     0.022 A 
HETATM   18  C   UNK A   0      14.542   3.364  91.846  1.00  0.00     0.018 A 
HETATM   19  C   UNK A   0      14.269   3.005  93.149  1.00  0.00     0.032 A 
HETATM   20  C   UNK A   0      13.024   3.183  93.717  1.00  0.00     0.018 A 
HETATM   21  C   UNK A   0      12.007   3.746  92.946  1.00  0.00     0.022 A 
BRANCH  19  22
HETATM   22  C   UNK A   0      15.352   2.403  93.970  1.00  0.00     0.252 C 
HETATM   23  O   UNK A   0      16.507   2.792  93.816  1.00  0.00    -0.268 OA
ENDBRANCH  19  22
ENDBRANCH  15  16
ENDBRANCH  11  14
ENDBRANCH   7   8
ENDBRANCH   2   7
TORSDOF 9
ENDMDL
MODEL 2
REMARK VINA RESULT:      -7.5      0.218      1.031
REMARK  9 active torsions:
REMARK  status: ('A' for Active; 'I' for Inactive)
REMARK    1  A    between atoms: N_3  and  C_6 
REMARK    2  A    between atoms: C_6  and  C_9 
REMARK    3  A    between atoms: C_14  and  C_17 
REMARK       I    between atoms: N_26  and  C_15 
REMARK    4  A    between atoms: C_15  and  C_16 
REMARK    5  A    between atoms: C_20  and  C_23 
REMARK    6  A    between atoms: OG1_24  and  CB_28 
REMARK    7  A    between atoms: N_26  and  CA_27 
REMARK    8  A    between atoms: CA_27  and  CB_28 
REMARK    9  A    between atoms: CA_27  and  C_30 
ROOT
HETATM    1  O   UNK A   0       1.916   8.105  87.829  1.00  0.00    -0.388 OA
HETATM    2  N   UNK A   0       4.709   7.578  87.683  1.00  0.00     0.096 N 
HETATM    3  C   UNK A   0       4.191   8.948  87.804  1.00  0.00     0.299 C 
HETATM    4  C   UNK A   0       3.729   6.729  86.991  1.00  0.00     0.299 C 
HETATM    5  C   UNK A   0       2.848   8.930  88.530  1.00  0.00     0.198 C 
HETATM    6  C   UNK A   0       2.397   6.764  87.733  1.00  0.00     0.198 C 
ENDROOT
BRANCH   2   7
HETATM    7  C   UNK A   0       5.991   7.569  86.981  1.00  0.00     0.311 C 
BRANCH   7   8
HETATM    8  C   UNK A   0       7.080   6.956  87.795  1.00  0.00    -0.030 A 
HETATM    9  C   UNK A   0       8.288   6.607  87.191  1.00  0.00     0.010 A 
HETATM   10  C   UNK A   0       9.307   6.031  87.951  1.00  0.00     0.021 A 
HETATM   11  C   UNK A   0       9.116   5.806  89.314  1.00  0.00     0.018 A 
HETATM   12  C   UNK A   0       7.910   6.154  89.917  1.00  0.00     0.021 A 
HETATM   13  C   UNK A   0       6.891   6.730  89.158  1.00  0.00     0.010 A 
BRANCH  11  14
HETATM   14  C   UNK A   0      10.161   5.218  90.093  1.00  0.00    -0.061 C 
HETATM   15  C   UNK A   0      11.040   4.723  90.748  1.00  0.00    -0.061 C 
BRANCH  15  16
HETATM   16  C   UNK A   0      12.086   4.135  91.526  1.00  0.00     0.018 A 
HETATM   17  C   UNK A   0      11.845   3.767  92.850  1.00  0.00     0.022 A 
HETATM   18  C   UNK A   0      12.864   3.191  93.609  1.00  0.00     0.018 A 
HETATM   19  C   UNK A   0      14.099   2.996  93.027  1.00  0.00     0.032 A 
HETATM   20  C   UNK A   0      14.362   3.352  91.721  1.00  0.00     0.018 A 
HETATM   21  C   UNK A   0      13.344   3.928  90.961  1.00  0.00     0.022 A 
BRANCH  19  22
HETATM   22  C   UNK A   0      15.185   2.384  93.837  1.00  0.00     0.252 C 
HETATM   23  O   UNK A   0      16.335   2.798  93.708  1.00  0.00    -0.268 OA
ENDBRANCH  19  22
ENDBRANCH  15  16
ENDBRANCH  11  14
ENDBRANCH   7   8
ENDBRANCH   2   7
TORSDOF 9
ENDMDL
MODEL 3
REMARK VINA RESULT:      -6.9      1.339      1.945
REMARK  9 active torsions:
REMARK  status: ('A' for Active; 'I' for Inactive)
REMARK    1  A    between atoms: N_3  and  C_6 
REMARK    2  A    between atoms: C_6  and  C_9 
REMARK    3  A    between atoms: C_14  and  C_17 
REMARK       I    between atoms: N_26  and  C_15 
REMARK    4  A    between atoms: C_15  and  C_16 
REMARK    5  A    between atoms: C_20  and  C_23 
REMARK    6  A    between atoms: OG1_24  and  CB_28 
REMARK    7  A    between atoms: N_26  and  CA_27 
REMARK    8  A    between atoms: CA_27  and  CB_28 
REMARK    9  A    between atoms: CA_27  and  C_30 
ROOT
HETATM    1  O   UNK A   0       4.859  11.213  88.709  1.00  0.00    -0.388 OA
HETATM    2  N   UNK A   0       5.251   8.394  88.670  1.00  0.00     0.096 N 
HETATM    3  C   UNK A   0       6.365   9.320  88.916  1.00  0.00     0.299 C 
HETATM    4  C   UNK A   0       4.234   9.040  87.829  1.00  0.00     0.299 C 
HETATM    5  C   UNK A   0       5.838  10.604  89.553  1.00  0.00     0.198 C 
HETATM    6  C   UNK A   0       3.759  10.330  88.490  1.00  0.00     0.198 C 
ENDROOT
BRANCH   2   7
HETATM    7  C   UNK A   0       5.731   7.160  88.050  1.00  0.00     0.311 C 
BRANCH   7   8
HETATM    8  C   UNK A   0       6.918   6.596  88.753  1.00  0.00    -0.030 A 
HETATM    9  C   UNK A   0       6.793   6.116  90.057  1.00  0.00     0.010 A 
HETATM   10  C   UNK A   0       7.903   5.590  90.716  1.00  0.00     0.021 A 
HETATM   11  C   UNK A   0       9.138   5.541  90.070  1.00  0.00     0.018 A 
HETATM   12  C   UNK A   0       9.264   6.019  88.768  1.00  0.00     0.021 A 
HETATM   13  C   UNK A   0       8.154   6.546  88.108  1.00  0.00     0.010 A 
BRANCH  11  14
HETATM   14  C   UNK A   0      10.277   4.999  90.746  1.00  0.00    -0.061 C 
HETATM   15  C   UNK A   0      11.233   4.543  91.314  1.00  0.00    -0.061 C 
BRANCH  15  16
HETATM   16  C   UNK A   0      12.371   4.001  91.989  1.00  0.00     0.018 A 
HETATM   17  C   UNK A   0      13.556   3.777  91.286  1.00  0.00     0.022 A 
HETATM   18  C   UNK A   0      14.667   3.250  91.945  1.00  0.00     0.018 A 
HETATM   19  C   UNK A   0      14.569   2.961  93.290  1.00  0.00     0.032 A 
HETATM   20  C   UNK A   0      13.410   3.173  94.006  1.00  0.00     0.018 A 
HETATM   21  C   UNK A   0      12.298   3.699  93.348  1.00  0.00     0.022 A 
BRANCH  19  22
HETATM   22  C   UNK A   0      15.752   2.399  93.991  1.00  0.00     0.252 C 
HETATM   23  O   UNK A   0      16.874   2.804  93.695  1.00  0.00    -0.268 OA
ENDBRANCH  19  22
ENDBRANCH  15  16
ENDBRANCH  11  14
ENDBRANCH   7   8
ENDBRANCH   2   7
TORSDOF 9
ENDMDL
MODEL 4
REMARK VINA RESULT:      -6.9      1.058      1.607
REMARK  9 active torsions:
REMARK  status: ('A' for Active; 'I' for Inactive)
REMARK    1  A    between atoms: N_3  and  C_6 
REMARK    2  A    between atoms: C_6  and  C_9 
REMARK    3  A    between atoms: C_14  and  C_17 
REMARK       I    between atoms: N_26  and  C_15 
REMARK    4  A    between atoms: C_15  and  C_16 
REMARK    5  A    between atoms: C_20  and  C_23 
REMARK    6  A    between atoms: OG1_24  and  CB_28 
REMARK    7  A    between atoms: N_26  and  CA_27 
REMARK    8  A    between atoms: CA_27  and  CB_28 
REMARK    9  A    between atoms: CA_27  and  C_30 
ROOT
HETATM    1  O   UNK A   0       2.354   9.910  89.549  1.00  0.00    -0.388 OA
HETATM    2  N   UNK A   0       4.552   8.197  88.971  1.00  0.00     0.096 N 
HETATM    3  C   UNK A   0       4.513   9.585  88.490  1.00  0.00     0.299 C 
HETATM    4  C   UNK A   0       3.186   7.674  89.111  1.00  0.00     0.299 C 
HETATM    5  C   UNK A   0       3.677  10.438  89.440  1.00  0.00     0.198 C 
HETATM    6  C   UNK A   0       2.382   8.571  90.046  1.00  0.00     0.198 C 
ENDROOT
BRANCH   2   7
HETATM    7  C   UNK A   0       5.340   7.358  88.069  1.00  0.00     0.311 C 
BRANCH   7   8
HETATM    8  C   UNK A   0       6.545   6.785  88.733  1.00  0.00    -0.030 A 
HETATM    9  C   UNK A   0       7.819   7.203  88.345  1.00  0.00     0.010 A 
HETATM   10  C   UNK A   0       8.947   6.667  88.964  1.00  0.00     0.021 A 
HETATM   11  C   UNK A   0       8.802   5.714  89.972  1.00  0.00     0.018 A 
HETATM   12  C   UNK A   0       7.530   5.296  90.361  1.00  0.00     0.021 A 
HETATM   13  C   UNK A   0       6.402   5.832  89.741  1.00  0.00     0.010 A 
BRANCH  11  14
HETATM   14  C   UNK A   0       9.959   5.165  90.609  1.00  0.00    -0.061 C 
HETATM   15  C   UNK A   0      10.932   4.703  91.144  1.00  0.00    -0.061 C 
BRANCH  15  16
HETATM   16  C   UNK A   0      12.090   4.154  91.779  1.00  0.00     0.018 A 
HETATM   17  C   UNK A   0      12.026   3.748  93.112  1.00  0.00     0.022 A 
HETATM   18  C   UNK A   0      13.154   3.211  93.731  1.00  0.00     0.018 A 
HETATM   19  C   UNK A   0      14.320   3.091  93.004  1.00  0.00     0.032 A 
HETATM   20  C   UNK A   0      14.409   3.485  91.685  1.00  0.00     0.018 A 
HETATM   21  C   UNK A   0      13.281   4.023  91.065  1.00  0.00     0.022 A 
BRANCH  19  22
HETATM   22  C   UNK A   0      15.522   2.520  93.664  1.00  0.00     0.252 C 
HETATM   23  O   UNK A   0      16.532   3.211  93.774  1.00  0.00    -0.268 OA
ENDBRANCH  19  22
ENDBRANCH  15  16
ENDBRANCH  11  14
ENDBRANCH   7   8
ENDBRANCH   2   7
TORSDOF 9
ENDMDL
MODEL 5
REMARK VINA RESULT:      -6.6      3.882     10.465
REMARK  9 active torsions:
REMARK  status: ('A' for Active; 'I' for Inactive)
REMARK    1  A    between atoms: N_3  and  C_6 
REMARK    2  A    between atoms: C_6  and  C_9 
REMARK    3  A    between atoms: C_14  and  C_17 
REMARK       I    between atoms: N_26  and  C_15 
REMARK    4  A    between atoms: C_15  and  C_16 
REMARK    5  A    between atoms: C_20  and  C_23 
REMARK    6  A    between atoms: OG1_24  and  CB_28 
REMARK    7  A    between atoms: N_26  and  CA_27 
REMARK    8  A    between atoms: CA_27  and  CB_28 
REMARK    9  A    between atoms: CA_27  and  C_30 
ROOT
HETATM    1  O   UNK A   0      14.551   3.333  92.106  1.00  0.00    -0.388 OA
HETATM    2  N   UNK A   0      11.840   4.185  92.269  1.00  0.00     0.096 N 
HETATM    3  C   UNK A   0      12.444   3.341  93.310  1.00  0.00     0.299 C 
HETATM    4  C   UNK A   0      12.490   3.930  90.976  1.00  0.00     0.299 C 
HETATM    5  C   UNK A   0      13.948   3.596  93.374  1.00  0.00     0.198 C 
HETATM    6  C   UNK A   0      13.991   4.170  91.095  1.00  0.00     0.198 C 
ENDROOT
BRANCH   2   7
HETATM    7  C   UNK A   0      10.400   3.949  92.183  1.00  0.00     0.311 C 
BRANCH   7   8
HETATM    8  C   UNK A   0       9.637   5.196  91.891  1.00  0.00    -0.030 A 
HETATM    9  C   UNK A   0       8.723   5.222  90.837  1.00  0.00     0.010 A 
HETATM   10  C   UNK A   0       8.010   6.389  90.562  1.00  0.00     0.021 A 
HETATM   11  C   UNK A   0       8.210   7.528  91.342  1.00  0.00     0.018 A 
HETATM   12  C   UNK A   0       9.123   7.502  92.394  1.00  0.00     0.021 A 
HETATM   13  C   UNK A   0       9.836   6.336  92.670  1.00  0.00     0.010 A 
BRANCH  11  14
HETATM   14  C   UNK A   0       7.477   8.724  91.060  1.00  0.00    -0.061 C 
HETATM   15  C   UNK A   0       6.862   9.729  90.823  1.00  0.00    -0.061 C 
BRANCH  15  16
HETATM   16  C   UNK A   0       6.129  10.924  90.541  1.00  0.00     0.018 A 
HETATM   17  C   UNK A   0       5.255  11.446  91.495  1.00  0.00     0.022 A 
HETATM   18  C   UNK A   0       4.542  12.613  91.220  1.00  0.00     0.018 A 
HETATM   19  C   UNK A   0       4.720  13.232  90.001  1.00  0.00     0.032 A 
HETATM   20  C   UNK A   0       5.577  12.735  89.042  1.00  0.00     0.018 A 
HETATM   21  C   UNK A   0       6.291  11.568  89.315  1.00  0.00     0.022 A 
BRANCH  19  22
HETATM   22  C   UNK A   0       3.959  14.474  89.708  1.00  0.00     0.252 C 
HETATM   23  O   UNK A   0       4.536  15.558  89.763  1.00  0.00    -0.268 OA
ENDBRANCH  19  22
ENDBRANCH  15  16
ENDBRANCH  11  14
ENDBRANCH   7   8
ENDBRANCH   2   7
TORSDOF 9
ENDMDL
MODEL 6
REMARK VINA RESULT:      -6.6      3.286     10.280
REMARK  9 active torsions:
REMARK  status: ('A' for Active; 'I' for Inactive)
REMARK    1  A    between atoms: N_3  and  C_6 
REMARK    2  A    between atoms: C_6  and  C_9 
REMARK    3  A    between atoms: C_14  and  C_17 
REMARK       I    between atoms: N_26  and  C_15 
REMARK    4  A    between atoms: C_15  and  C_16 
REMARK    5  A    between atoms: C_20  and  C_23 
REMARK    6  A    between atoms: OG1_24  and  CB_28 
REMARK    7  A    between atoms: N_26  and  CA_27 
REMARK    8  A    between atoms: CA_27  and  CB_28 
REMARK    9  A    between atoms: CA_27  and  C_30 
ROOT
HETATM    1  O   UNK A   0      16.080   3.168  93.652  1.00  0.00    -0.388 OA
HETATM    2  N   UNK A   0      13.408   2.934  92.697  1.00  0.00     0.096 N 
HETATM    3  C   UNK A   0      14.201   1.751  93.057  1.00  0.00     0.299 C 
HETATM    4  C   UNK A   0      14.295   4.016  92.245  1.00  0.00     0.299 C 
HETATM    5  C   UNK A   0      15.229   2.122  94.124  1.00  0.00     0.198 C 
HETATM    6  C   UNK A   0      15.320   4.333  93.329  1.00  0.00     0.198 C 
ENDROOT
BRANCH   2   7
HETATM    7  C   UNK A   0      12.424   2.604  91.668  1.00  0.00     0.311 C 
BRANCH   7   8
HETATM    8  C   UNK A   0      11.524   3.751  91.355  1.00  0.00    -0.030 A 
HETATM    9  C   UNK A   0      11.345   4.154  90.031  1.00  0.00     0.010 A 
HETATM   10  C   UNK A   0      10.505   5.228  89.736  1.00  0.00     0.021 A 
HETATM   11  C   UNK A   0       9.843   5.896  90.766  1.00  0.00     0.018 A 
HETATM   12  C   UNK A   0      10.021   5.494  92.088  1.00  0.00     0.021 A 
HETATM   13  C   UNK A   0      10.861   4.421  92.383  1.00  0.00     0.010 A 
BRANCH  11  14
HETATM   14  C   UNK A   0       8.980   6.997  90.464  1.00  0.00    -0.061 C 
HETATM   15  C   UNK A   0       8.254   7.921  90.209  1.00  0.00    -0.061 C 
BRANCH  15  16
HETATM   16  C   UNK A   0       7.391   9.020  89.906  1.00  0.00     0.018 A 
HETATM   17  C   UNK A   0       7.931  10.280  89.650  1.00  0.00     0.022 A 
HETATM   18  C   UNK A   0       7.089  11.351  89.353  1.00  0.00     0.018 A 
HETATM   19  C   UNK A   0       5.727  11.138  89.317  1.00  0.00     0.032 A 
HETATM   20  C   UNK A   0       5.168   9.902  89.566  1.00  0.00     0.018 A 
HETATM   21  C   UNK A   0       6.009   8.830  89.864  1.00  0.00     0.022 A 
BRANCH  19  22
HETATM   22  C   UNK A   0       4.830  12.280  89.001  1.00  0.00     0.252 C 
HETATM   23  O   UNK A   0       4.926  12.834  87.909  1.00  0.00    -0.268 OA
ENDBRANCH  19  22
ENDBRANCH  15  16
ENDBRANCH  11  14
ENDBRANCH   7   8
ENDBRANCH   2   7
TORSDOF 9
ENDMDL
MODEL 7
REMARK VINA RESULT:      -6.4      4.790     10.339
REMARK  9 active torsions:
REMARK  status: ('A' for Active; 'I' for Inactive)
REMARK    1  A    between atoms: N_3  and  C_6 
REMARK    2  A    between atoms: C_6  and  C_9 
REMARK    3  A    between atoms: C_14  and  C_17 
REMARK       I    between atoms: N_26  and  C_15 
REMARK    4  A    between atoms: C_15  and  C_16 
REMARK    5  A    between atoms: C_20  and  C_23 
REMARK    6  A    between atoms: OG1_24  and  CB_28 
REMARK    7  A    between atoms: N_26  and  CA_27 
REMARK    8  A    between atoms: CA_27  and  CB_28 
REMARK    9  A    between atoms: CA_27  and  C_30 
ROOT
HETATM    1  O   UNK A   0      11.255   3.945  88.953  1.00  0.00    -0.388 OA
HETATM    2  N   UNK A   0       9.506   5.894  87.838  1.00  0.00     0.096 N 
HETATM    3  C   UNK A   0      10.215   4.925  86.991  1.00  0.00     0.299 C 
HETATM    4  C   UNK A   0      10.285   6.166  89.054  1.00  0.00     0.299 C 
HETATM    5  C   UNK A   0      10.489   3.649  87.783  1.00  0.00     0.198 C 
HETATM    6  C   UNK A   0      10.558   4.862  89.796  1.00  0.00     0.198 C 
ENDROOT
BRANCH   2   7
HETATM    7  C   UNK A   0       9.242   7.130  87.102  1.00  0.00     0.311 C 
BRANCH   7   8
HETATM    8  C   UNK A   0       8.429   8.099  87.892  1.00  0.00    -0.030 A 
HETATM    9  C   UNK A   0       7.116   7.783  88.242  1.00  0.00     0.010 A 
HETATM   10  C   UNK A   0       6.354   8.690  88.978  1.00  0.00     0.021 A 
HETATM   11  C   UNK A   0       6.907   9.910  89.366  1.00  0.00     0.018 A 
HETATM   12  C   UNK A   0       8.218  10.226  89.018  1.00  0.00     0.021 A 
HETATM   13  C   UNK A   0       8.980   9.320  88.280  1.00  0.00     0.010 A 
BRANCH  11  14
HETATM   14  C   UNK A   0       6.125  10.839  90.124  1.00  0.00    -0.061 C 
HETATM   15  C   UNK A   0       5.469  11.619  90.761  1.00  0.00    -0.061 C 
BRANCH  15  16
HETATM   16  C   UNK A   0       4.688  12.547  91.519  1.00  0.00     0.018 A 
HETATM   17  C   UNK A   0       4.406  13.809  90.996  1.00  0.00     0.022 A 
HETATM   18  C   UNK A   0       3.642  14.713  91.734  1.00  0.00     0.018 A 
HETATM   19  C   UNK A   0       3.178  14.336  92.977  1.00  0.00     0.032 A 
HETATM   20  C   UNK A   0       3.444  13.094  93.516  1.00  0.00     0.018 A 
HETATM   21  C   UNK A   0       4.208  12.189  92.778  1.00  0.00     0.022 A 
BRANCH  19  22
HETATM   22  C   UNK A   0       2.367  15.300  93.764  1.00  0.00     0.252 C 
HETATM   23  O   UNK A   0       1.242  15.599  93.370  1.00  0.00    -0.268 OA
ENDBRANCH  19  22
ENDBRANCH  15  16
ENDBRANCH  11  14
ENDBRANCH   7   8
ENDBRANCH   2   7
TORSDOF 9
ENDMDL
MODEL 8
REMARK VINA RESULT:      -6.4      3.353      4.406
REMARK  9 active torsions:
REMARK  status: ('A' for Active; 'I' for Inactive)
REMARK    1  A    between atoms: N_3  and  C_6 
REMARK    2  A    between atoms: C_6  and  C_9 
REMARK    3  A    between atoms: C_14  and  C_17 
REMARK       I    between atoms: N_26  and  C_15 
REMARK    4  A    between atoms: C_15  and  C_16 
REMARK    5  A    between atoms: C_20  and  C_23 
REMARK    6  A    between atoms: OG1_24  and  CB_28 
REMARK    7  A    between atoms: N_26  and  CA_27 
REMARK    8  A    between atoms: CA_27  and  CB_28 
REMARK    9  A    between atoms: CA_27  and  C_30 
ROOT
HETATM    1  O   UNK A   0       4.203  15.137  89.942  1.00  0.00    -0.388 OA
HETATM    2  N   UNK A   0       4.873  12.418  89.430  1.00  0.00     0.096 N 
HETATM    3  C   UNK A   0       4.793  13.407  88.346  1.00  0.00     0.299 C 
HETATM    4  C   UNK A   0       3.963  12.793  90.521  1.00  0.00     0.299 C 
HETATM    5  C   UNK A   0       5.108  14.798  88.890  1.00  0.00     0.198 C 
HETATM    6  C   UNK A   0       4.296  14.197  91.014  1.00  0.00     0.198 C 
ENDROOT
BRANCH   2   7
HETATM    7  C   UNK A   0       4.563  11.079  88.932  1.00  0.00     0.311 C 
BRANCH   7   8
HETATM    8  C   UNK A   0       5.596  10.076  89.322  1.00  0.00    -0.030 A 
HETATM    9  C   UNK A   0       6.843  10.503  89.779  1.00  0.00     0.010 A 
HETATM   10  C   UNK A   0       7.811   9.565  90.141  1.00  0.00     0.021 A 
HETATM   11  C   UNK A   0       7.529   8.203  90.048  1.00  0.00     0.018 A 
HETATM   12  C   UNK A   0       6.284   7.776  89.592  1.00  0.00     0.021 A 
HETATM   13  C   UNK A   0       5.317   8.713  89.229  1.00  0.00     0.010 A 
BRANCH  11  14
HETATM   14  C   UNK A   0       8.521   7.242  90.422  1.00  0.00    -0.061 C 
HETATM   15  C   UNK A   0       9.354   6.433  90.737  1.00  0.00    -0.061 C 
BRANCH  15  16
HETATM   16  C   UNK A   0      10.345   5.472  91.109  1.00  0.00     0.018 A 
HETATM   17  C   UNK A   0      10.617   5.240  92.458  1.00  0.00     0.022 A 
HETATM   18  C   UNK A   0      11.581   4.300  92.821  1.00  0.00     0.018 A 
HETATM   19  C   UNK A   0      12.251   3.615  91.830  1.00  0.00     0.032 A 
HETATM   20  C   UNK A   0      12.001   3.827  90.490  1.00  0.00     0.018 A 
HETATM   21  C   UNK A   0      11.037   4.766  90.126  1.00  0.00     0.022 A 
BRANCH  19  22
HETATM   22  C   UNK A   0      13.280   2.615  92.218  1.00  0.00     0.252 C 
HETATM   23  O   UNK A   0      13.631   2.541  93.393  1.00  0.00    -0.268 OA
ENDBRANCH  19  22
ENDBRANCH  15  16
ENDBRANCH  11  14
ENDBRANCH   7   8
ENDBRANCH   2   7
TORSDOF 9
ENDMDL
MODEL 9
REMARK VINA RESULT:      -6.3      1.978      2.761
REMARK  9 active torsions:
REMARK  status: ('A' for Active; 'I' for Inactive)
REMARK    1  A    between atoms: N_3  and  C_6 
REMARK    2  A    between atoms: C_6  and  C_9 
REMARK    3  A    between atoms: C_14  and  C_17 
REMARK       I    between atoms: N_26  and  C_15 
REMARK    4  A    between atoms: C_15  and  C_16 
REMARK    5  A    between atoms: C_20  and  C_23 
REMARK    6  A    between atoms: OG1_24  and  CB_28 
REMARK    7  A    between atoms: N_26  and  CA_27 
REMARK    8  A    between atoms: CA_27  and  CB_28 
REMARK    9  A    between atoms: CA_27  and  C_30 
ROOT
HETATM    1  O   UNK A   0       2.445   9.886  87.922  1.00  0.00    -0.388 OA
HETATM    2  N   UNK A   0       3.807   8.376  89.914  1.00  0.00     0.096 N 
HETATM    3  C   UNK A   0       2.401   8.112  89.577  1.00  0.00     0.299 C 
HETATM    4  C   UNK A   0       4.126   9.789  89.668  1.00  0.00     0.299 C 
HETATM    5  C   UNK A   0       2.134   8.507  88.127  1.00  0.00     0.198 C 
HETATM    6  C   UNK A   0       3.818  10.145  88.217  1.00  0.00     0.198 C 
ENDROOT
BRANCH   2   7
HETATM    7  C   UNK A   0       4.083   8.015  91.303  1.00  0.00     0.311 C 
BRANCH   7   8
HETATM    8  C   UNK A   0       5.419   7.373  91.468  1.00  0.00    -0.030 A 
HETATM    9  C   UNK A   0       6.166   7.607  92.623  1.00  0.00     0.010 A 
HETATM   10  C   UNK A   0       7.417   7.009  92.778  1.00  0.00     0.021 A 
HETATM   11  C   UNK A   0       7.918   6.176  91.778  1.00  0.00     0.018 A 
HETATM   12  C   UNK A   0       7.173   5.942  90.624  1.00  0.00     0.021 A 
HETATM   13  C   UNK A   0       5.923   6.540  90.469  1.00  0.00     0.010 A 
BRANCH  11  14
HETATM   14  C   UNK A   0       9.200   5.561  91.938  1.00  0.00    -0.061 C 
HETATM   15  C   UNK A   0      10.277   5.044  92.073  1.00  0.00    -0.061 C 
BRANCH  15  16
HETATM   16  C   UNK A   0      11.558   4.429  92.233  1.00  0.00     0.018 A 
HETATM   17  C   UNK A   0      12.415   4.310  91.139  1.00  0.00     0.022 A 
HETATM   18  C   UNK A   0      13.666   3.712  91.296  1.00  0.00     0.018 A 
HETATM   19  C   UNK A   0      14.031   3.248  92.542  1.00  0.00     0.032 A 
HETATM   20  C   UNK A   0      13.201   3.354  93.639  1.00  0.00     0.018 A 
HETATM   21  C   UNK A   0      11.951   3.951  93.483  1.00  0.00     0.022 A 
BRANCH  19  22
HETATM   22  C   UNK A   0      15.362   2.610  92.709  1.00  0.00     0.252 C 
HETATM   23  O   UNK A   0      16.069   2.935  93.660  1.00  0.00    -0.268 OA
ENDBRANCH  19  22
ENDBRANCH  15  16
ENDBRANCH  11  14
ENDBRANCH   7   8
ENDBRANCH   2   7
TORSDOF 9
ENDMDL
