MODEL 1
REMARK VINA RESULT:      -7.0      0.000      0.000
REMARK  11 active torsions:
REMARK  status: ('A' for Active; 'I' for Inactive)
REMARK    1  A    between atoms: O_2  and  C_18 
REMARK    2  A    between atoms: O_5  and  P_8 
REMARK    3  A    between atoms: N_6  and  C_11 
REMARK    4  A    between atoms: N_7  and  C_15 
REMARK       I    between atoms: N_7  and  C_24 
REMARK    5  A    between atoms: P_8  and  C_23 
REMARK    6  A    between atoms: C_11  and  C_14 
REMARK    7  A    between atoms: C_15  and  C_18 
REMARK    8  A    between atoms: C_15  and  C_23 
REMARK    9  A    between atoms: C_21  and  C_26 
REMARK   10  A    between atoms: C_24  and  C_25 
REMARK   11  A    between atoms: C_29  and  C_32 
ROOT
HETATM    1  O   UNL     1      16.219   4.283  94.057  1.00  0.00     0.000 OA
HETATM    2  N   UNL     1      14.419   2.642  92.585  1.00  0.00     0.000 N 
HETATM    3  C   UNL     1      14.355   4.108  92.514  1.00  0.00     0.000 C 
HETATM    4  C   UNL     1      14.948   2.224  93.891  1.00  0.00     0.000 C 
HETATM    5  C   UNL     1      15.737   4.700  92.779  1.00  0.00     0.000 C 
HETATM    6  C   UNL     1      16.314   2.860  94.124  1.00  0.00     0.000 C 
ENDROOT
BRANCH   2   7
HETATM    7  C   UNL     1      13.103   2.054  92.345  1.00  0.00     0.000 C 
BRANCH   7   8
HETATM    8  C   UNL     1      12.069   3.082  92.032  1.00  0.00     0.000 A 
HETATM    9  C   UNL     1      11.686   3.304  90.709  1.00  0.00     0.000 A 
HETATM   10  C   UNL     1      10.721   4.268  90.415  1.00  0.00     0.000 A 
HETATM   11  C   UNL     1      10.139   5.007  91.445  1.00  0.00     0.000 A 
HETATM   12  C   UNL     1      10.521   4.785  92.766  1.00  0.00     0.000 A 
HETATM   13  C   UNL     1      11.486   3.823  93.061  1.00  0.00     0.000 A 
BRANCH  11  14
HETATM   14  C   UNL     1       9.147   5.993  91.144  1.00  0.00     0.000 C 
HETATM   15  C   UNL     1       8.315   6.823  90.890  1.00  0.00     0.000 C 
BRANCH  15  16
HETATM   16  C   UNL     1       7.324   7.809  90.588  1.00  0.00     0.000 A 
HETATM   17  C   UNL     1       7.286   9.001  91.311  1.00  0.00     0.000 A 
HETATM   18  C   UNL     1       6.321   9.964  91.014  1.00  0.00     0.000 A 
HETATM   19  C   UNL     1       5.418   9.714  90.003  1.00  0.00     0.000 A 
HETATM   20  C   UNL     1       5.435   8.543  89.274  1.00  0.00     0.000 A 
HETATM   21  C   UNL     1       6.399   7.579  89.570  1.00  0.00     0.000 A 
BRANCH  19  22
HETATM   22  C   UNL     1       4.390  10.739  89.689  1.00  0.00     0.000 C 
HETATM   23  O   UNL     1       3.398  10.414  89.040  1.00  0.00     0.000 OA
HETATM   24  N   UNL     1       4.627  12.012  90.188  1.00  0.00     0.000 N 
HETATM   25  HN  UNL     1       5.457  12.200  90.738  1.00  0.00     0.000 HD
BRANCH  24  26
HETATM   26  C   UNL     1       3.712  13.106  89.989  1.00  0.00     0.000 C 
BRANCH  26  27
HETATM   27  C   UNL     1       3.078  13.595  91.297  1.00  0.00     0.000 C 
HETATM   28  C   UNL     1       2.275  12.506  92.000  1.00  0.00     0.000 C 
BRANCH  27  29
HETATM   29  O   UNL     1       4.099  14.060  92.179  1.00  0.00     0.000 OA
HETATM   30  H   UNL     1       4.163  13.440  92.925  1.00  0.00     0.000 HD
ENDBRANCH  27  29
ENDBRANCH  26  27
BRANCH  26  31
HETATM   31  C   UNL     1       4.472  14.228  89.288  1.00  0.00     0.000 C 
HETATM   32  O   UNL     1       4.398  15.405  89.635  1.00  0.00     0.000 OA
BRANCH  31  33
HETATM   33  P   UNL     1       5.203  13.770  88.219  1.00  0.00     0.000 P 
HETATM   34  H   UNL     1       5.654  14.867  87.514  1.00  0.00     0.000 HD
BRANCH  33  35
HETATM   35  O   UNL     1       4.518  12.936  87.324  1.00  0.00     0.000 OA
HETATM   36  H   UNL     1       3.600  13.190  87.517  1.00  0.00     0.000 HD
ENDBRANCH  33  35
ENDBRANCH  31  33
ENDBRANCH  26  31
ENDBRANCH  24  26
ENDBRANCH  19  22
ENDBRANCH  15  16
ENDBRANCH  11  14
ENDBRANCH   7   8
ENDBRANCH   2   7
TORSDOF 11
ENDMDL
