MODEL 1
REMARK VINA RESULT:      -7.1      0.000      0.000
REMARK  11 active torsions:
REMARK  status: ('A' for Active; 'I' for Inactive)
REMARK    1  A    between atoms: O_2  and  C_18 
REMARK    2  A    between atoms: O_5  and  P_8 
REMARK    3  A    between atoms: N_6  and  C_11 
REMARK    4  A    between atoms: N_7  and  C_15 
REMARK       I    between atoms: N_7  and  C_24 
REMARK    5  A    between atoms: P_8  and  C_23 
REMARK    6  A    between atoms: C_11  and  C_14 
REMARK    7  A    between atoms: C_15  and  C_18 
REMARK    8  A    between atoms: C_15  and  C_23 
REMARK    9  A    between atoms: C_21  and  C_26 
REMARK   10  A    between atoms: C_24  and  C_25 
REMARK   11  A    between atoms: C_29  and  C_32 
ROOT
HETATM    1  O   UNL     1      16.176   3.967  94.124  1.00  0.00     0.000 OA
HETATM    2  N   UNL     1      14.231   2.672  92.499  1.00  0.00     0.000 N 
HETATM    3  C   UNL     1      14.295   4.136  92.600  1.00  0.00     0.000 C 
HETATM    4  C   UNL     1      14.728   2.059  93.738  1.00  0.00     0.000 C 
HETATM    5  C   UNL     1      15.725   4.571  92.910  1.00  0.00     0.000 C 
HETATM    6  C   UNL     1      16.146   2.543  94.022  1.00  0.00     0.000 C 
ENDROOT
BRANCH   2   7
HETATM    7  C   UNL     1      12.867   2.232  92.212  1.00  0.00     0.000 C 
BRANCH   7   8
HETATM    8  C   UNL     1      11.960   3.369  91.885  1.00  0.00     0.000 A 
HETATM    9  C   UNL     1      11.765   3.744  90.555  1.00  0.00     0.000 A 
HETATM   10  C   UNL     1      10.918   4.809  90.248  1.00  0.00     0.000 A 
HETATM   11  C   UNL     1      10.266   5.497  91.271  1.00  0.00     0.000 A 
HETATM   12  C   UNL     1      10.461   5.124  92.599  1.00  0.00     0.000 A 
HETATM   13  C   UNL     1      11.307   4.059  92.907  1.00  0.00     0.000 A 
BRANCH  11  14
HETATM   14  C   UNL     1       9.396   6.589  90.956  1.00  0.00     0.000 C 
HETATM   15  C   UNL     1       8.665   7.505  90.691  1.00  0.00     0.000 C 
BRANCH  15  16
HETATM   16  C   UNL     1       7.795   8.596  90.377  1.00  0.00     0.000 A 
HETATM   17  C   UNL     1       6.422   8.477  90.595  1.00  0.00     0.000 A 
HETATM   18  C   UNL     1       5.574   9.542  90.291  1.00  0.00     0.000 A 
HETATM   19  C   UNL     1       6.117  10.700  89.777  1.00  0.00     0.000 A 
HETATM   20  C   UNL     1       7.470  10.842  89.551  1.00  0.00     0.000 A 
HETATM   21  C   UNL     1       8.319   9.778  89.855  1.00  0.00     0.000 A 
BRANCH  19  22
HETATM   22  C   UNL     1       5.213  11.834  89.451  1.00  0.00     0.000 C 
HETATM   23  O   UNL     1       5.006  12.117  88.274  1.00  0.00     0.000 OA
HETATM   24  N   UNL     1       4.640  12.485  90.534  1.00  0.00     0.000 N 
HETATM   25  HN  UNL     1       4.838  12.179  91.480  1.00  0.00     0.000 HD
BRANCH  24  26
HETATM   26  C   UNL     1       3.723  13.586  90.381  1.00  0.00     0.000 C 
BRANCH  26  27
HETATM   27  C   UNL     1       2.351  13.307  91.007  1.00  0.00     0.000 C 
HETATM   28  C   UNL     1       2.336  12.029  91.838  1.00  0.00     0.000 C 
BRANCH  27  29
HETATM   29  O   UNL     1       1.974  14.405  91.838  1.00  0.00     0.000 OA
HETATM   30  H   UNL     1       1.886  15.195  91.279  1.00  0.00     0.000 HD
ENDBRANCH  27  29
ENDBRANCH  26  27
BRANCH  26  31
HETATM   31  C   UNL     1       4.372  14.821  90.996  1.00  0.00     0.000 C 
HETATM   32  O   UNL     1       4.324  15.075  92.198  1.00  0.00     0.000 OA
BRANCH  31  33
HETATM   33  P   UNL     1       4.972  15.618  90.050  1.00  0.00     0.000 P 
HETATM   34  H   UNL     1       4.330  16.839  90.058  1.00  0.00     0.000 HD
BRANCH  33  35
HETATM   35  O   UNL     1       4.948  15.128  88.737  1.00  0.00     0.000 OA
HETATM   36  H   UNL     1       4.953  15.964  88.239  1.00  0.00     0.000 HD
ENDBRANCH  33  35
ENDBRANCH  31  33
ENDBRANCH  26  31
ENDBRANCH  24  26
ENDBRANCH  19  22
ENDBRANCH  15  16
ENDBRANCH  11  14
ENDBRANCH   7   8
ENDBRANCH   2   7
TORSDOF 11
ENDMDL
