MODEL 1
REMARK VINA RESULT:      -7.6      0.000      0.000
REMARK  9 active torsions:
REMARK  status: ('A' for Active; 'I' for Inactive)
REMARK    1  A    between atoms: N_3  and  C_6 
REMARK    2  A    between atoms: C_6  and  C_9 
REMARK    3  A    between atoms: C_14  and  C_17 
REMARK       I    between atoms: N_26  and  C_15 
REMARK    4  A    between atoms: C_15  and  C_16 
REMARK    5  A    between atoms: C_20  and  C_23 
REMARK    6  A    between atoms: OG1_24  and  CB_28 
REMARK    7  A    between atoms: N_26  and  CA_27 
REMARK    8  A    between atoms: CA_27  and  CB_28 
REMARK    9  A    between atoms: CA_27  and  C_30 
ROOT
HETATM    1  O   UNK A   0       1.898   8.053  87.847  1.00  0.00    -0.388 OA
HETATM    2  N   UNK A   0       4.697   7.559  87.695  1.00  0.00     0.096 N 
HETATM    3  C   UNK A   0       4.160   8.926  87.744  1.00  0.00     0.299 C 
HETATM    4  C   UNK A   0       3.722   6.658  87.066  1.00  0.00     0.299 C 
HETATM    5  C   UNK A   0       2.826   8.931  88.487  1.00  0.00     0.198 C 
HETATM    6  C   UNK A   0       2.399   6.716  87.822  1.00  0.00     0.198 C 
ENDROOT
BRANCH   2   7
HETATM    7  C   UNK A   0       5.971   7.529  86.979  1.00  0.00     0.311 C 
BRANCH   7   8
HETATM    8  C   UNK A   0       7.065   6.924  87.791  1.00  0.00    -0.030 A 
HETATM    9  C   UNK A   0       6.864   6.665  89.147  1.00  0.00     0.010 A 
HETATM   10  C   UNK A   0       7.887   6.101  89.908  1.00  0.00     0.021 A 
HETATM   11  C   UNK A   0       9.110   5.795  89.312  1.00  0.00     0.018 A 
HETATM   12  C   UNK A   0       9.312   6.053  87.958  1.00  0.00     0.021 A 
HETATM   13  C   UNK A   0       8.289   6.618  87.196  1.00  0.00     0.010 A 
BRANCH  11  14
HETATM   14  C   UNK A   0      10.160   5.214  90.092  1.00  0.00    -0.061 C 
HETATM   15  C   UNK A   0      11.042   4.727  90.748  1.00  0.00    -0.061 C 
BRANCH  15  16
HETATM   16  C   UNK A   0      12.090   4.147  91.528  1.00  0.00     0.018 A 
HETATM   17  C   UNK A   0      11.850   3.777  92.852  1.00  0.00     0.022 A 
HETATM   18  C   UNK A   0      12.873   3.209  93.612  1.00  0.00     0.018 A 
HETATM   19  C   UNK A   0      14.111   3.024  93.033  1.00  0.00     0.032 A 
HETATM   20  C   UNK A   0      14.373   3.382  91.727  1.00  0.00     0.018 A 
HETATM   21  C   UNK A   0      13.351   3.950  90.965  1.00  0.00     0.022 A 
BRANCH  19  22
HETATM   22  C   UNK A   0      15.200   2.421  93.844  1.00  0.00     0.252 C 
HETATM   23  O   UNK A   0      16.352   2.819  93.691  1.00  0.00    -0.268 OA
ENDBRANCH  19  22
ENDBRANCH  15  16
ENDBRANCH  11  14
ENDBRANCH   7   8
ENDBRANCH   2   7
TORSDOF 9
ENDMDL
MODEL 2
REMARK VINA RESULT:      -7.5      0.057      1.009
REMARK  9 active torsions:
REMARK  status: ('A' for Active; 'I' for Inactive)
REMARK    1  A    between atoms: N_3  and  C_6 
REMARK    2  A    between atoms: C_6  and  C_9 
REMARK    3  A    between atoms: C_14  and  C_17 
REMARK       I    between atoms: N_26  and  C_15 
REMARK    4  A    between atoms: C_15  and  C_16 
REMARK    5  A    between atoms: C_20  and  C_23 
REMARK    6  A    between atoms: OG1_24  and  CB_28 
REMARK    7  A    between atoms: N_26  and  CA_27 
REMARK    8  A    between atoms: CA_27  and  CB_28 
REMARK    9  A    between atoms: CA_27  and  C_30 
ROOT
HETATM    1  O   UNK A   0       1.919   8.004  87.813  1.00  0.00    -0.388 OA
HETATM    2  N   UNK A   0       4.718   7.507  87.673  1.00  0.00     0.096 N 
HETATM    3  C   UNK A   0       4.185   8.873  87.766  1.00  0.00     0.299 C 
HETATM    4  C   UNK A   0       3.748   6.632  87.000  1.00  0.00     0.299 C 
HETATM    5  C   UNK A   0       2.843   8.855  88.494  1.00  0.00     0.198 C 
HETATM    6  C   UNK A   0       2.417   6.667  87.745  1.00  0.00     0.198 C 
ENDROOT
BRANCH   2   7
HETATM    7  C   UNK A   0       6.000   7.499  86.969  1.00  0.00     0.311 C 
BRANCH   7   8
HETATM    8  C   UNK A   0       7.092   6.897  87.785  1.00  0.00    -0.030 A 
HETATM    9  C   UNK A   0       6.864   6.573  89.124  1.00  0.00     0.010 A 
HETATM   10  C   UNK A   0       7.886   6.012  89.889  1.00  0.00     0.021 A 
HETATM   11  C   UNK A   0       9.135   5.773  89.315  1.00  0.00     0.018 A 
HETATM   12  C   UNK A   0       9.363   6.095  87.979  1.00  0.00     0.021 A 
HETATM   13  C   UNK A   0       8.342   6.657  87.214  1.00  0.00     0.010 A 
BRANCH  11  14
HETATM   14  C   UNK A   0      10.182   5.195  90.100  1.00  0.00    -0.061 C 
HETATM   15  C   UNK A   0      11.063   4.709  90.759  1.00  0.00    -0.061 C 
BRANCH  15  16
HETATM   16  C   UNK A   0      12.110   4.132  91.542  1.00  0.00     0.018 A 
HETATM   17  C   UNK A   0      13.375   3.946  90.984  1.00  0.00     0.022 A 
HETATM   18  C   UNK A   0      14.398   3.385  91.750  1.00  0.00     0.018 A 
HETATM   19  C   UNK A   0      14.133   3.024  93.054  1.00  0.00     0.032 A 
HETATM   20  C   UNK A   0      12.891   3.197  93.628  1.00  0.00     0.018 A 
HETATM   21  C   UNK A   0      11.868   3.758  92.864  1.00  0.00     0.022 A 
BRANCH  19  22
HETATM   22  C   UNK A   0      15.222   2.425  93.869  1.00  0.00     0.252 C 
HETATM   23  O   UNK A   0      16.382   2.781  93.674  1.00  0.00    -0.268 OA
ENDBRANCH  19  22
ENDBRANCH  15  16
ENDBRANCH  11  14
ENDBRANCH   7   8
ENDBRANCH   2   7
TORSDOF 9
ENDMDL
MODEL 3
REMARK VINA RESULT:      -6.9      1.540      2.046
REMARK  9 active torsions:
REMARK  status: ('A' for Active; 'I' for Inactive)
REMARK    1  A    between atoms: N_3  and  C_6 
REMARK    2  A    between atoms: C_6  and  C_9 
REMARK    3  A    between atoms: C_14  and  C_17 
REMARK       I    between atoms: N_26  and  C_15 
REMARK    4  A    between atoms: C_15  and  C_16 
REMARK    5  A    between atoms: C_20  and  C_23 
REMARK    6  A    between atoms: OG1_24  and  CB_28 
REMARK    7  A    between atoms: N_26  and  CA_27 
REMARK    8  A    between atoms: CA_27  and  CB_28 
REMARK    9  A    between atoms: CA_27  and  C_30 
ROOT
HETATM    1  O   UNK A   0       2.728  11.161  89.612  1.00  0.00    -0.388 OA
HETATM    2  N   UNK A   0       4.587   9.197  88.723  1.00  0.00     0.096 N 
HETATM    3  C   UNK A   0       3.825  10.019  87.773  1.00  0.00     0.299 C 
HETATM    4  C   UNK A   0       3.822   9.025  89.966  1.00  0.00     0.299 C 
HETATM    5  C   UNK A   0       3.478  11.361  88.412  1.00  0.00     0.198 C 
HETATM    6  C   UNK A   0       3.475  10.389  90.553  1.00  0.00     0.198 C 
ENDROOT
BRANCH   2   7
HETATM    7  C   UNK A   0       4.921   7.901  88.135  1.00  0.00     0.311 C 
BRANCH   7   8
HETATM    8  C   UNK A   0       6.136   7.294  88.751  1.00  0.00    -0.030 A 
HETATM    9  C   UNK A   0       7.367   7.944  88.649  1.00  0.00     0.010 A 
HETATM   10  C   UNK A   0       8.504   7.376  89.223  1.00  0.00     0.021 A 
HETATM   11  C   UNK A   0       8.410   6.160  89.899  1.00  0.00     0.018 A 
HETATM   12  C   UNK A   0       7.181   5.511  90.001  1.00  0.00     0.021 A 
HETATM   13  C   UNK A   0       6.044   6.078  89.427  1.00  0.00     0.010 A 
BRANCH  11  14
HETATM   14  C   UNK A   0       9.576   5.579  90.490  1.00  0.00    -0.061 C 
HETATM   15  C   UNK A   0      10.557   5.091  90.986  1.00  0.00    -0.061 C 
BRANCH  15  16
HETATM   16  C   UNK A   0      11.722   4.510  91.577  1.00  0.00     0.018 A 
HETATM   17  C   UNK A   0      11.692   4.087  92.906  1.00  0.00     0.022 A 
HETATM   18  C   UNK A   0      12.828   3.518  93.481  1.00  0.00     0.018 A 
HETATM   19  C   UNK A   0      13.967   3.384  92.715  1.00  0.00     0.032 A 
HETATM   20  C   UNK A   0      14.022   3.795  91.400  1.00  0.00     0.018 A 
HETATM   21  C   UNK A   0      12.887   4.364  90.823  1.00  0.00     0.022 A 
BRANCH  19  22
HETATM   22  C   UNK A   0      15.178   2.780  93.329  1.00  0.00     0.252 C 
HETATM   23  O   UNK A   0      15.050   1.825  94.092  1.00  0.00    -0.268 OA
ENDBRANCH  19  22
ENDBRANCH  15  16
ENDBRANCH  11  14
ENDBRANCH   7   8
ENDBRANCH   2   7
TORSDOF 9
ENDMDL
MODEL 4
REMARK VINA RESULT:      -6.9      1.612      2.412
REMARK  9 active torsions:
REMARK  status: ('A' for Active; 'I' for Inactive)
REMARK    1  A    between atoms: N_3  and  C_6 
REMARK    2  A    between atoms: C_6  and  C_9 
REMARK    3  A    between atoms: C_14  and  C_17 
REMARK       I    between atoms: N_26  and  C_15 
REMARK    4  A    between atoms: C_15  and  C_16 
REMARK    5  A    between atoms: C_20  and  C_23 
REMARK    6  A    between atoms: OG1_24  and  CB_28 
REMARK    7  A    between atoms: N_26  and  CA_27 
REMARK    8  A    between atoms: CA_27  and  CB_28 
REMARK    9  A    between atoms: CA_27  and  C_30 
ROOT
HETATM    1  O   UNK A   0       2.847  11.455  89.871  1.00  0.00    -0.388 OA
HETATM    2  N   UNK A   0       4.573   9.419  88.884  1.00  0.00     0.096 N 
HETATM    3  C   UNK A   0       3.799  10.276  87.976  1.00  0.00     0.299 C 
HETATM    4  C   UNK A   0       3.867   9.274  90.164  1.00  0.00     0.299 C 
HETATM    5  C   UNK A   0       3.542  11.629  88.635  1.00  0.00     0.198 C 
HETATM    6  C   UNK A   0       3.608  10.649  90.771  1.00  0.00     0.198 C 
ENDROOT
BRANCH   2   7
HETATM    7  C   UNK A   0       4.822   8.112  88.277  1.00  0.00     0.311 C 
BRANCH   7   8
HETATM    8  C   UNK A   0       6.038   7.451  88.830  1.00  0.00    -0.030 A 
HETATM    9  C   UNK A   0       7.294   8.029  88.638  1.00  0.00     0.010 A 
HETATM   10  C   UNK A   0       8.433   7.410  89.154  1.00  0.00     0.021 A 
HETATM   11  C   UNK A   0       8.315   6.215  89.862  1.00  0.00     0.018 A 
HETATM   12  C   UNK A   0       7.062   5.637  90.055  1.00  0.00     0.021 A 
HETATM   13  C   UNK A   0       5.923   6.255  89.539  1.00  0.00     0.010 A 
BRANCH  11  14
HETATM   14  C   UNK A   0       9.483   5.582  90.393  1.00  0.00    -0.061 C 
HETATM   15  C   UNK A   0      10.464   5.050  90.839  1.00  0.00    -0.061 C 
BRANCH  15  16
HETATM   16  C   UNK A   0      11.631   4.416  91.370  1.00  0.00     0.018 A 
HETATM   17  C   UNK A   0      12.778   4.298  90.585  1.00  0.00     0.022 A 
HETATM   18  C   UNK A   0      13.917   3.683  91.104  1.00  0.00     0.018 A 
HETATM   19  C   UNK A   0      13.884   3.200  92.395  1.00  0.00     0.032 A 
HETATM   20  C   UNK A   0      12.763   3.304  93.192  1.00  0.00     0.018 A 
HETATM   21  C   UNK A   0      11.623   3.919  92.673  1.00  0.00     0.022 A 
BRANCH  19  22
HETATM   22  C   UNK A   0      15.097   2.543  92.947  1.00  0.00     0.252 C 
HETATM   23  O   UNK A   0      15.695   3.073  93.880  1.00  0.00    -0.268 OA
ENDBRANCH  19  22
ENDBRANCH  15  16
ENDBRANCH  11  14
ENDBRANCH   7   8
ENDBRANCH   2   7
TORSDOF 9
ENDMDL
MODEL 5
REMARK VINA RESULT:      -6.9      1.477      2.082
REMARK  9 active torsions:
REMARK  status: ('A' for Active; 'I' for Inactive)
REMARK    1  A    between atoms: N_3  and  C_6 
REMARK    2  A    between atoms: C_6  and  C_9 
REMARK    3  A    between atoms: C_14  and  C_17 
REMARK       I    between atoms: N_26  and  C_15 
REMARK    4  A    between atoms: C_15  and  C_16 
REMARK    5  A    between atoms: C_20  and  C_23 
REMARK    6  A    between atoms: OG1_24  and  CB_28 
REMARK    7  A    between atoms: N_26  and  CA_27 
REMARK    8  A    between atoms: CA_27  and  CB_28 
REMARK    9  A    between atoms: CA_27  and  C_30 
ROOT
HETATM    1  O   UNK A   0       4.948  11.318  88.582  1.00  0.00    -0.388 OA
HETATM    2  N   UNK A   0       5.219   8.486  88.657  1.00  0.00     0.096 N 
HETATM    3  C   UNK A   0       6.366   9.373  88.894  1.00  0.00     0.299 C 
HETATM    4  C   UNK A   0       4.250   9.142  87.768  1.00  0.00     0.299 C 
HETATM    5  C   UNK A   0       5.881  10.701  89.471  1.00  0.00     0.198 C 
HETATM    6  C   UNK A   0       3.816  10.475  88.370  1.00  0.00     0.198 C 
ENDROOT
BRANCH   2   7
HETATM    7  C   UNK A   0       5.660   7.211  88.094  1.00  0.00     0.311 C 
BRANCH   7   8
HETATM    8  C   UNK A   0       6.847   6.656  88.805  1.00  0.00    -0.030 A 
HETATM    9  C   UNK A   0       6.710   6.152  90.099  1.00  0.00     0.010 A 
HETATM   10  C   UNK A   0       7.820   5.635  90.767  1.00  0.00     0.021 A 
HETATM   11  C   UNK A   0       9.065   5.619  90.139  1.00  0.00     0.018 A 
HETATM   12  C   UNK A   0       9.202   6.121  88.846  1.00  0.00     0.021 A 
HETATM   13  C   UNK A   0       8.093   6.640  88.179  1.00  0.00     0.010 A 
BRANCH  11  14
HETATM   14  C   UNK A   0      10.203   5.086  90.822  1.00  0.00    -0.061 C 
HETATM   15  C   UNK A   0      11.160   4.638  91.397  1.00  0.00    -0.061 C 
BRANCH  15  16
HETATM   16  C   UNK A   0      12.298   4.105  92.079  1.00  0.00     0.018 A 
HETATM   17  C   UNK A   0      13.536   4.057  91.437  1.00  0.00     0.022 A 
HETATM   18  C   UNK A   0      14.646   3.540  92.104  1.00  0.00     0.018 A 
HETATM   19  C   UNK A   0      14.495   3.085  93.397  1.00  0.00     0.032 A 
HETATM   20  C   UNK A   0      13.282   3.121  94.053  1.00  0.00     0.018 A 
HETATM   21  C   UNK A   0      12.171   3.638  93.387  1.00  0.00     0.022 A 
BRANCH  19  22
HETATM   22  C   UNK A   0      15.678   2.532  94.107  1.00  0.00     0.252 C 
HETATM   23  O   UNK A   0      16.803   2.783  93.682  1.00  0.00    -0.268 OA
ENDBRANCH  19  22
ENDBRANCH  15  16
ENDBRANCH  11  14
ENDBRANCH   7   8
ENDBRANCH   2   7
TORSDOF 9
ENDMDL
MODEL 6
REMARK VINA RESULT:      -6.6      3.920     10.416
REMARK  9 active torsions:
REMARK  status: ('A' for Active; 'I' for Inactive)
REMARK    1  A    between atoms: N_3  and  C_6 
REMARK    2  A    between atoms: C_6  and  C_9 
REMARK    3  A    between atoms: C_14  and  C_17 
REMARK       I    between atoms: N_26  and  C_15 
REMARK    4  A    between atoms: C_15  and  C_16 
REMARK    5  A    between atoms: C_20  and  C_23 
REMARK    6  A    between atoms: OG1_24  and  CB_28 
REMARK    7  A    between atoms: N_26  and  CA_27 
REMARK    8  A    between atoms: CA_27  and  CB_28 
REMARK    9  A    between atoms: CA_27  and  C_30 
ROOT
HETATM    1  O   UNK A   0      14.564   3.287  92.189  1.00  0.00    -0.388 OA
HETATM    2  N   UNK A   0      11.840   4.110  92.250  1.00  0.00     0.096 N 
HETATM    3  C   UNK A   0      12.413   3.272  93.313  1.00  0.00     0.299 C 
HETATM    4  C   UNK A   0      12.540   3.864  90.982  1.00  0.00     0.299 C 
HETATM    5  C   UNK A   0      13.910   3.542  93.433  1.00  0.00     0.198 C 
HETATM    6  C   UNK A   0      14.034   4.120  91.157  1.00  0.00     0.198 C 
ENDROOT
BRANCH   2   7
HETATM    7  C   UNK A   0      10.406   3.859  92.109  1.00  0.00     0.311 C 
BRANCH   7   8
HETATM    8  C   UNK A   0       9.635   5.106  91.843  1.00  0.00    -0.030 A 
HETATM    9  C   UNK A   0       8.623   5.108  90.882  1.00  0.00     0.010 A 
HETATM   10  C   UNK A   0       7.902   6.275  90.630  1.00  0.00     0.021 A 
HETATM   11  C   UNK A   0       8.192   7.439  91.342  1.00  0.00     0.018 A 
HETATM   12  C   UNK A   0       9.201   7.439  92.302  1.00  0.00     0.021 A 
HETATM   13  C   UNK A   0       9.923   6.272  92.553  1.00  0.00     0.010 A 
BRANCH  11  14
HETATM   14  C   UNK A   0       7.451   8.636  91.085  1.00  0.00    -0.061 C 
HETATM   15  C   UNK A   0       6.828   9.641  90.870  1.00  0.00    -0.061 C 
BRANCH  15  16
HETATM   16  C   UNK A   0       6.088  10.838  90.614  1.00  0.00     0.018 A 
HETATM   17  C   UNK A   0       5.287  11.389  91.615  1.00  0.00     0.022 A 
HETATM   18  C   UNK A   0       4.567  12.557  91.366  1.00  0.00     0.018 A 
HETATM   19  C   UNK A   0       4.664  13.148  90.124  1.00  0.00     0.032 A 
HETATM   20  C   UNK A   0       5.448  12.623  89.118  1.00  0.00     0.018 A 
HETATM   21  C   UNK A   0       6.168  11.454  89.366  1.00  0.00     0.022 A 
BRANCH  19  22
HETATM   22  C   UNK A   0       3.896  14.392  89.859  1.00  0.00     0.252 C 
HETATM   23  O   UNK A   0       4.503  15.438  89.641  1.00  0.00    -0.268 OA
ENDBRANCH  19  22
ENDBRANCH  15  16
ENDBRANCH  11  14
ENDBRANCH   7   8
ENDBRANCH   2   7
TORSDOF 9
ENDMDL
MODEL 7
REMARK VINA RESULT:      -6.4      1.775      2.469
REMARK  9 active torsions:
REMARK  status: ('A' for Active; 'I' for Inactive)
REMARK    1  A    between atoms: N_3  and  C_6 
REMARK    2  A    between atoms: C_6  and  C_9 
REMARK    3  A    between atoms: C_14  and  C_17 
REMARK       I    between atoms: N_26  and  C_15 
REMARK    4  A    between atoms: C_15  and  C_16 
REMARK    5  A    between atoms: C_20  and  C_23 
REMARK    6  A    between atoms: OG1_24  and  CB_28 
REMARK    7  A    between atoms: N_26  and  CA_27 
REMARK    8  A    between atoms: CA_27  and  CB_28 
REMARK    9  A    between atoms: CA_27  and  C_30 
ROOT
HETATM    1  O   UNK A   0       3.201  11.266  88.711  1.00  0.00    -0.388 OA
HETATM    2  N   UNK A   0       4.330   8.851  89.708  1.00  0.00     0.096 N 
HETATM    3  C   UNK A   0       3.637   8.898  88.413  1.00  0.00     0.299 C 
HETATM    4  C   UNK A   0       3.779   9.872  90.610  1.00  0.00     0.299 C 
HETATM    5  C   UNK A   0       3.751  10.298  87.816  1.00  0.00     0.198 C 
HETATM    6  C   UNK A   0       3.889  11.249  89.962  1.00  0.00     0.198 C 
ENDROOT
BRANCH   2   7
HETATM    7  C   UNK A   0       4.224   7.520  90.304  1.00  0.00     0.311 C 
BRANCH   7   8
HETATM    8  C   UNK A   0       5.557   6.934  90.623  1.00  0.00    -0.030 A 
HETATM    9  C   UNK A   0       6.040   6.974  91.932  1.00  0.00     0.010 A 
HETATM   10  C   UNK A   0       7.288   6.428  92.232  1.00  0.00     0.021 A 
HETATM   11  C   UNK A   0       8.051   5.840  91.223  1.00  0.00     0.018 A 
HETATM   12  C   UNK A   0       7.570   5.799  89.916  1.00  0.00     0.021 A 
HETATM   13  C   UNK A   0       6.322   6.346  89.616  1.00  0.00     0.010 A 
BRANCH  11  14
HETATM   14  C   UNK A   0       9.330   5.278  91.531  1.00  0.00    -0.061 C 
HETATM   15  C   UNK A   0      10.405   4.804  91.790  1.00  0.00    -0.061 C 
BRANCH  15  16
HETATM   16  C   UNK A   0      11.683   4.243  92.097  1.00  0.00     0.018 A 
HETATM   17  C   UNK A   0      11.953   3.791  93.389  1.00  0.00     0.022 A 
HETATM   18  C   UNK A   0      13.199   3.240  93.687  1.00  0.00     0.018 A 
HETATM   19  C   UNK A   0      14.146   3.153  92.689  1.00  0.00     0.032 A 
HETATM   20  C   UNK A   0      13.904   3.593  91.404  1.00  0.00     0.018 A 
HETATM   21  C   UNK A   0      12.658   4.144  91.104  1.00  0.00     0.022 A 
BRANCH  19  22
HETATM   22  C   UNK A   0      15.475   2.568  93.008  1.00  0.00     0.252 C 
HETATM   23  O   UNK A   0      16.296   3.245  93.623  1.00  0.00    -0.268 OA
ENDBRANCH  19  22
ENDBRANCH  15  16
ENDBRANCH  11  14
ENDBRANCH   7   8
ENDBRANCH   2   7
TORSDOF 9
ENDMDL
MODEL 8
REMARK VINA RESULT:      -6.3      4.928     10.349
REMARK  9 active torsions:
REMARK  status: ('A' for Active; 'I' for Inactive)
REMARK    1  A    between atoms: N_3  and  C_6 
REMARK    2  A    between atoms: C_6  and  C_9 
REMARK    3  A    between atoms: C_14  and  C_17 
REMARK       I    between atoms: N_26  and  C_15 
REMARK    4  A    between atoms: C_15  and  C_16 
REMARK    5  A    between atoms: C_20  and  C_23 
REMARK    6  A    between atoms: OG1_24  and  CB_28 
REMARK    7  A    between atoms: N_26  and  CA_27 
REMARK    8  A    between atoms: CA_27  and  CB_28 
REMARK    9  A    between atoms: CA_27  and  C_30 
ROOT
HETATM    1  O   UNK A   0      11.051   3.825  89.079  1.00  0.00    -0.388 OA
HETATM    2  N   UNK A   0       9.410   5.883  87.996  1.00  0.00     0.096 N 
HETATM    3  C   UNK A   0      10.003   4.845  87.142  1.00  0.00     0.299 C 
HETATM    4  C   UNK A   0      10.263   6.117  89.170  1.00  0.00     0.299 C 
HETATM    5  C   UNK A   0      10.212   3.567  87.951  1.00  0.00     0.198 C 
HETATM    6  C   UNK A   0      10.466   4.811  89.930  1.00  0.00     0.198 C 
ENDROOT
BRANCH   2   7
HETATM    7  C   UNK A   0       9.210   7.121  87.244  1.00  0.00     0.311 C 
BRANCH   7   8
HETATM    8  C   UNK A   0       8.404   8.121  87.999  1.00  0.00    -0.030 A 
HETATM    9  C   UNK A   0       8.976   9.337  88.376  1.00  0.00     0.010 A 
HETATM   10  C   UNK A   0       8.223  10.272  89.084  1.00  0.00     0.021 A 
HETATM   11  C   UNK A   0       6.897   9.993  89.414  1.00  0.00     0.018 A 
HETATM   12  C   UNK A   0       6.325   8.780  89.039  1.00  0.00     0.021 A 
HETATM   13  C   UNK A   0       7.078   7.843  88.331  1.00  0.00     0.010 A 
BRANCH  11  14
HETATM   14  C   UNK A   0       6.124  10.954  90.140  1.00  0.00    -0.061 C 
HETATM   15  C   UNK A   0       5.474  11.762  90.748  1.00  0.00    -0.061 C 
BRANCH  15  16
HETATM   16  C   UNK A   0       4.701  12.721  91.473  1.00  0.00     0.018 A 
HETATM   17  C   UNK A   0       4.167  12.388  92.718  1.00  0.00     0.022 A 
HETATM   18  C   UNK A   0       3.414  13.326  93.426  1.00  0.00     0.018 A 
HETATM   19  C   UNK A   0       3.214  14.574  92.874  1.00  0.00     0.032 A 
HETATM   20  C   UNK A   0       3.731  14.927  91.645  1.00  0.00     0.018 A 
HETATM   21  C   UNK A   0       4.483  13.990  90.936  1.00  0.00     0.022 A 
BRANCH  19  22
HETATM   22  C   UNK A   0       2.411  15.572  93.627  1.00  0.00     0.252 C 
HETATM   23  O   UNK A   0       1.193  15.606  93.467  1.00  0.00    -0.268 OA
ENDBRANCH  19  22
ENDBRANCH  15  16
ENDBRANCH  11  14
ENDBRANCH   7   8
ENDBRANCH   2   7
TORSDOF 9
ENDMDL
MODEL 9
REMARK VINA RESULT:      -6.2      2.068      3.043
REMARK  9 active torsions:
REMARK  status: ('A' for Active; 'I' for Inactive)
REMARK    1  A    between atoms: N_3  and  C_6 
REMARK    2  A    between atoms: C_6  and  C_9 
REMARK    3  A    between atoms: C_14  and  C_17 
REMARK       I    between atoms: N_26  and  C_15 
REMARK    4  A    between atoms: C_15  and  C_16 
REMARK    5  A    between atoms: C_20  and  C_23 
REMARK    6  A    between atoms: OG1_24  and  CB_28 
REMARK    7  A    between atoms: N_26  and  CA_27 
REMARK    8  A    between atoms: CA_27  and  CB_28 
REMARK    9  A    between atoms: CA_27  and  C_30 
ROOT
HETATM    1  O   UNK A   0       1.996   9.810  87.846  1.00  0.00    -0.388 OA
HETATM    2  N   UNK A   0       3.827   9.067  89.895  1.00  0.00     0.096 N 
HETATM    3  C   UNK A   0       2.629   8.265  89.608  1.00  0.00     0.299 C 
HETATM    4  C   UNK A   0       3.583  10.475  89.556  1.00  0.00     0.299 C 
HETATM    5  C   UNK A   0       2.235   8.433  88.142  1.00  0.00     0.198 C 
HETATM    6  C   UNK A   0       3.166  10.591  88.094  1.00  0.00     0.198 C 
ENDROOT
BRANCH   2   7
HETATM    7  C   UNK A   0       4.217   8.929  91.297  1.00  0.00     0.311 C 
BRANCH   7   8
HETATM    8  C   UNK A   0       5.489   8.169  91.461  1.00  0.00    -0.030 A 
HETATM    9  C   UNK A   0       6.528   8.346  90.547  1.00  0.00     0.010 A 
HETATM   10  C   UNK A   0       7.718   7.633  90.698  1.00  0.00     0.021 A 
HETATM   11  C   UNK A   0       7.868   6.747  91.764  1.00  0.00     0.018 A 
HETATM   12  C   UNK A   0       6.831   6.570  92.677  1.00  0.00     0.021 A 
HETATM   13  C   UNK A   0       5.641   7.281  92.526  1.00  0.00     0.010 A 
BRANCH  11  14
HETATM   14  C   UNK A   0       9.089   6.017  91.920  1.00  0.00    -0.061 C 
HETATM   15  C   UNK A   0      10.115   5.405  92.052  1.00  0.00    -0.061 C 
BRANCH  15  16
HETATM   16  C   UNK A   0      11.336   4.677  92.208  1.00  0.00     0.018 A 
HETATM   17  C   UNK A   0      12.162   4.457  91.106  1.00  0.00     0.022 A 
HETATM   18  C   UNK A   0      13.354   3.749  91.260  1.00  0.00     0.018 A 
HETATM   19  C   UNK A   0      13.692   3.277  92.511  1.00  0.00     0.032 A 
HETATM   20  C   UNK A   0      12.892   3.481  93.616  1.00  0.00     0.018 A 
HETATM   21  C   UNK A   0      11.700   4.189  93.463  1.00  0.00     0.022 A 
BRANCH  19  22
HETATM   22  C   UNK A   0      14.961   2.521  92.674  1.00  0.00     0.252 C 
HETATM   23  O   UNK A   0      15.591   2.626  93.723  1.00  0.00    -0.268 OA
ENDBRANCH  19  22
ENDBRANCH  15  16
ENDBRANCH  11  14
ENDBRANCH   7   8
ENDBRANCH   2   7
TORSDOF 9
ENDMDL
