MODEL 1
REMARK VINA RESULT:      -6.9      0.000      0.000
REMARK  10 active torsions:
REMARK  status: ('A' for Active; 'I' for Inactive)
REMARK    1  A    between atoms: O_2  and  C_16 
REMARK    2  A    between atoms: N_5  and  C_9 
REMARK    3  A    between atoms: N_6  and  C_13 
REMARK       I    between atoms: N_6  and  C_22 
REMARK    4  A    between atoms: C_9  and  C_12 
REMARK    5  A    between atoms: C_13  and  C_16 
REMARK    6  A    between atoms: C_13  and  C_21 
REMARK    7  A    between atoms: C_19  and  C_24 
REMARK    8  A    between atoms: C_22  and  C_23 
REMARK    9  A    between atoms: C_27  and  C_30 
REMARK   10  A    between atoms: N_33  and  S_34 
ROOT
HETATM    1  C   UNL     1       5.598  10.787  89.590  1.00  0.00     0.056 A 
HETATM    2  C   UNL     1       6.844  11.089  90.096  1.00  0.00     0.005 A 
HETATM    3  C   UNL     1       5.190   9.489  89.363  1.00  0.00     0.005 A 
HETATM    4  C   UNL     1       7.336   8.725  90.167  1.00  0.00     0.042 A 
HETATM    5  C   UNL     1       7.724  10.046  90.388  1.00  0.00     0.008 A 
HETATM    6  C   UNL     1       6.069   8.446  89.655  1.00  0.00     0.008 A 
ENDROOT
BRANCH   1   7
HETATM    7  C   UNL     1       4.660  11.897  89.281  1.00  0.00     0.254 C 
HETATM    8  O   UNL     1       4.429  12.179  88.108  1.00  0.00    -0.268 OA
HETATM    9  N   UNL     1       4.085  12.529  90.375  1.00  0.00    -0.337 N 
HETATM   10  HN  UNL     1       4.304  12.225  91.317  1.00  0.00     0.164 HD
BRANCH   9  11
HETATM   11  C   UNL     1       3.138  13.607  90.239  1.00  0.00     0.172 C 
BRANCH  11  12
HETATM   12  C   UNL     1       1.912  13.438  91.145  1.00  0.00     0.136 C 
HETATM   13  C   UNL     1       2.059  12.270  92.114  1.00  0.00     0.034 C 
BRANCH  12  14
HETATM   14  O   UNL     1       1.701  14.636  91.891  1.00  0.00    -0.383 OA
HETATM   15  H   UNL     1       2.545  14.893  92.300  1.00  0.00     0.210 HD
ENDBRANCH  12  14
ENDBRANCH  11  12
BRANCH  11  16
HETATM   16  C   UNL     1       3.871  14.911  90.535  1.00  0.00     0.398 A 
HETATM   17  O   UNL     1       4.975  15.181  90.065  1.00  0.00    -0.136 OA
HETATM   18  N   UNL     1       4.927  15.540  91.542  1.00  0.00     0.142 N 
HETATM   19  HN  UNL     1       5.840  15.844  91.350  1.00  0.00     0.338 HD
BRANCH  18  20
HETATM   20  S   UNL     1       4.261  15.272  92.732  1.00  0.00     0.076 SA
HETATM   21  H   UNL     1       4.457  16.024  93.631  1.00  0.00     0.136 HD
ENDBRANCH  18  20
ENDBRANCH  11  16
ENDBRANCH   9  11
ENDBRANCH   1   7
BRANCH   4  22
HETATM   22  C   UNL     1       8.238   7.656  90.463  1.00  0.00    -0.059 C 
HETATM   23  C   UNL     1       8.998   6.758  90.711  1.00  0.00    -0.059 C 
BRANCH  23  24
HETATM   24  C   UNL     1       9.902   5.689  91.008  1.00  0.00     0.042 A 
HETATM   25  C   UNL     1      10.155   5.339  92.334  1.00  0.00     0.008 A 
HETATM   26  C   UNL     1      11.038   4.299  92.623  1.00  0.00    -0.002 A 
HETATM   27  C   UNL     1      11.666   3.608  91.585  1.00  0.00     0.011 A 
HETATM   28  C   UNL     1      11.410   3.959  90.260  1.00  0.00    -0.002 A 
HETATM   29  C   UNL     1      10.528   5.000  89.971  1.00  0.00     0.008 A 
BRANCH  27  30
HETATM   30  C   UNL     1      12.607   2.495  91.896  1.00  0.00     0.277 C 
BRANCH  30  31
HETATM   31  N   UNL     1      13.639   2.889  92.854  1.00  0.00     0.147 N 
HETATM   32  C   UNL     1      14.547   1.767  93.131  1.00  0.00     0.283 C 
HETATM   33  C   UNL     1      15.621   2.204  94.124  1.00  0.00     0.178 C 
HETATM   34  O   UNL     1      16.349   3.321  93.609  1.00  0.00    -0.350 OA
HETATM   35  C   UNL     1      15.478   4.426  93.366  1.00  0.00     0.178 C 
HETATM   36  C   UNL     1      14.401   4.042  92.356  1.00  0.00     0.283 C 
ENDBRANCH  30  31
ENDBRANCH  27  30
ENDBRANCH  23  24
ENDBRANCH   4  22
TORSDOF 10
ENDMDL
