MODEL 1
REMARK VINA RESULT:      -6.8      0.000      0.000
REMARK  11 active torsions:
REMARK  status: ('A' for Active; 'I' for Inactive)
REMARK    1  A    between atoms: O_2  and  C_18 
REMARK    2  A    between atoms: O_5  and  P_8 
REMARK    3  A    between atoms: N_6  and  C_11 
REMARK    4  A    between atoms: N_7  and  C_15 
REMARK       I    between atoms: N_7  and  C_24 
REMARK    5  A    between atoms: P_8  and  C_23 
REMARK    6  A    between atoms: C_11  and  C_14 
REMARK    7  A    between atoms: C_15  and  C_18 
REMARK    8  A    between atoms: C_15  and  C_23 
REMARK    9  A    between atoms: C_21  and  C_26 
REMARK   10  A    between atoms: C_24  and  C_25 
REMARK   11  A    between atoms: C_29  and  C_32 
ROOT
HETATM    1  O   UNL     1      16.086   3.946  94.124  1.00  0.00     0.000 OA
HETATM    2  N   UNL     1      14.268   2.555  92.433  1.00  0.00     0.000 N 
HETATM    3  C   UNL     1      14.310   4.023  92.471  1.00  0.00     0.000 C 
HETATM    4  C   UNL     1      14.686   2.005  93.730  1.00  0.00     0.000 C 
HETATM    5  C   UNL     1      15.712   4.490  92.857  1.00  0.00     0.000 C 
HETATM    6  C   UNL     1      16.077   2.519  94.086  1.00  0.00     0.000 C 
ENDROOT
BRANCH   2   7
HETATM    7  C   UNL     1      12.930   2.085  92.076  1.00  0.00     0.000 C 
BRANCH   7   8
HETATM    8  C   UNL     1      11.998   3.206  91.769  1.00  0.00     0.000 A 
HETATM    9  C   UNL     1      11.230   3.773  92.788  1.00  0.00     0.000 A 
HETATM   10  C   UNL     1      10.356   4.821  92.501  1.00  0.00     0.000 A 
HETATM   11  C   UNL     1      10.250   5.303  91.197  1.00  0.00     0.000 A 
HETATM   12  C   UNL     1      11.016   4.738  90.179  1.00  0.00     0.000 A 
HETATM   13  C   UNL     1      11.890   3.690  90.465  1.00  0.00     0.000 A 
BRANCH  11  14
HETATM   14  C   UNL     1       9.354   6.379  90.904  1.00  0.00     0.000 C 
HETATM   15  C   UNL     1       8.602   7.284  90.658  1.00  0.00     0.000 C 
BRANCH  15  16
HETATM   16  C   UNL     1       7.708   8.360  90.364  1.00  0.00     0.000 A 
HETATM   17  C   UNL     1       6.354   8.102  90.150  1.00  0.00     0.000 A 
HETATM   18  C   UNL     1       5.481   9.152  89.866  1.00  0.00     0.000 A 
HETATM   19  C   UNL     1       5.980  10.436  89.804  1.00  0.00     0.000 A 
HETATM   20  C   UNL     1       7.315  10.717  90.012  1.00  0.00     0.000 A 
HETATM   21  C   UNL     1       8.188   9.668  90.295  1.00  0.00     0.000 A 
BRANCH  19  22
HETATM   22  C   UNL     1       5.050  11.554  89.500  1.00  0.00     0.000 C 
HETATM   23  O   UNL     1       4.735  11.772  88.333  1.00  0.00     0.000 OA
HETATM   24  N   UNL     1       4.581  12.269  90.594  1.00  0.00     0.000 N 
HETATM   25  HN  UNL     1       4.866  12.016  91.533  1.00  0.00     0.000 HD
BRANCH  24  26
HETATM   26  C   UNL     1       3.654  13.365  90.464  1.00  0.00     0.000 C 
BRANCH  26  27
HETATM   27  C   UNL     1       2.415  13.202  91.352  1.00  0.00     0.000 C 
HETATM   28  C   UNL     1       2.635  12.208  92.487  1.00  0.00     0.000 C 
BRANCH  27  29
HETATM   29  O   UNL     1       2.056  14.467  91.908  1.00  0.00     0.000 OA
HETATM   30  H   UNL     1       2.105  15.135  91.203  1.00  0.00     0.000 HD
ENDBRANCH  27  29
ENDBRANCH  26  27
BRANCH  26  31
HETATM   31  C   UNL     1       4.406  14.651  90.791  1.00  0.00     0.000 C 
HETATM   32  O   UNL     1       4.561  15.063  91.939  1.00  0.00     0.000 OA
BRANCH  31  33
HETATM   33  P   UNL     1       4.844  15.298  89.661  1.00  0.00     0.000 P 
HETATM   34  H   UNL     1       3.739  15.604  88.893  1.00  0.00     0.000 HD
BRANCH  33  35
HETATM   35  O   UNL     1       5.741  14.580  88.856  1.00  0.00     0.000 OA
HETATM   36  H   UNL     1       5.159  13.867  88.540  1.00  0.00     0.000 HD
ENDBRANCH  33  35
ENDBRANCH  31  33
ENDBRANCH  26  31
ENDBRANCH  24  26
ENDBRANCH  19  22
ENDBRANCH  15  16
ENDBRANCH  11  14
ENDBRANCH   7   8
ENDBRANCH   2   7
TORSDOF 11
ENDMDL
MODEL 2
REMARK VINA RESULT:      -5.9      1.623      2.272
REMARK  11 active torsions:
REMARK  status: ('A' for Active; 'I' for Inactive)
REMARK    1  A    between atoms: O_2  and  C_18 
REMARK    2  A    between atoms: O_5  and  P_8 
REMARK    3  A    between atoms: N_6  and  C_11 
REMARK    4  A    between atoms: N_7  and  C_15 
REMARK       I    between atoms: N_7  and  C_24 
REMARK    5  A    between atoms: P_8  and  C_23 
REMARK    6  A    between atoms: C_11  and  C_14 
REMARK    7  A    between atoms: C_15  and  C_18 
REMARK    8  A    between atoms: C_15  and  C_23 
REMARK    9  A    between atoms: C_21  and  C_26 
REMARK   10  A    between atoms: C_24  and  C_25 
REMARK   11  A    between atoms: C_29  and  C_32 
ROOT
HETATM    1  O   UNL     1      16.328   3.025  93.758  1.00  0.00     0.000 OA
HETATM    2  N   UNL     1      13.722   3.021  92.616  1.00  0.00     0.000 N 
HETATM    3  C   UNL     1      14.407   1.770  92.968  1.00  0.00     0.000 C 
HETATM    4  C   UNL     1      14.707   4.058  92.279  1.00  0.00     0.000 C 
HETATM    5  C   UNL     1      15.379   2.020  94.119  1.00  0.00     0.000 C 
HETATM    6  C   UNL     1      15.672   4.253  93.444  1.00  0.00     0.000 C 
ENDROOT
BRANCH   2   7
HETATM    7  C   UNL     1      12.792   2.808  91.507  1.00  0.00     0.000 C 
BRANCH   7   8
HETATM    8  C   UNL     1      11.652   3.767  91.530  1.00  0.00     0.000 A 
HETATM    9  C   UNL     1      10.927   4.015  90.363  1.00  0.00     0.000 A 
HETATM   10  C   UNL     1       9.861   4.914  90.383  1.00  0.00     0.000 A 
HETATM   11  C   UNL     1       9.519   5.563  91.569  1.00  0.00     0.000 A 
HETATM   12  C   UNL     1      10.242   5.316  92.734  1.00  0.00     0.000 A 
HETATM   13  C   UNL     1      11.308   4.418  92.715  1.00  0.00     0.000 A 
BRANCH  11  14
HETATM   14  C   UNL     1       8.424   6.484  91.589  1.00  0.00     0.000 C 
HETATM   15  C   UNL     1       7.503   7.257  91.605  1.00  0.00     0.000 C 
BRANCH  15  16
HETATM   16  C   UNL     1       6.409   8.177  91.624  1.00  0.00     0.000 A 
HETATM   17  C   UNL     1       5.261   7.909  90.878  1.00  0.00     0.000 A 
HETATM   18  C   UNL     1       4.192   8.804  90.899  1.00  0.00     0.000 A 
HETATM   19  C   UNL     1       4.294   9.946  91.666  1.00  0.00     0.000 A 
HETATM   20  C   UNL     1       5.418  10.234  92.411  1.00  0.00     0.000 A 
HETATM   21  C   UNL     1       6.488   9.339  92.391  1.00  0.00     0.000 A 
BRANCH  19  22
HETATM   22  C   UNL     1       3.156  10.901  91.686  1.00  0.00     0.000 C 
HETATM   23  O   UNL     1       2.016  10.480  91.505  1.00  0.00     0.000 OA
HETATM   24  N   UNL     1       3.479  12.227  91.940  1.00  0.00     0.000 N 
HETATM   25  HN  UNL     1       4.441  12.498  92.105  1.00  0.00     0.000 HD
BRANCH  24  26
HETATM   26  C   UNL     1       2.484  13.267  92.016  1.00  0.00     0.000 C 
BRANCH  26  27
HETATM   27  C   UNL     1       2.750  14.260  93.155  1.00  0.00     0.000 C 
HETATM   28  C   UNL     1       4.164  14.827  93.117  1.00  0.00     0.000 C 
BRANCH  27  29
HETATM   29  O   UNL     1       1.817  15.337  93.075  1.00  0.00     0.000 OA
HETATM   30  H   UNL     1       1.343  15.269  92.229  1.00  0.00     0.000 HD
ENDBRANCH  27  29
ENDBRANCH  26  27
BRANCH  26  31
HETATM   31  C   UNL     1       2.443  13.972  90.664  1.00  0.00     0.000 C 
HETATM   32  O   UNL     1       1.458  14.586  90.259  1.00  0.00     0.000 OA
BRANCH  31  33
HETATM   33  P   UNL     1       3.607  13.803  89.955  1.00  0.00     0.000 P 
HETATM   34  H   UNL     1       4.032  15.047  89.536  1.00  0.00     0.000 HD
BRANCH  33  35
HETATM   35  O   UNL     1       3.519  12.976  88.826  1.00  0.00     0.000 OA
HETATM   36  H   UNL     1       3.949  13.541  88.162  1.00  0.00     0.000 HD
ENDBRANCH  33  35
ENDBRANCH  31  33
ENDBRANCH  26  31
ENDBRANCH  24  26
ENDBRANCH  19  22
ENDBRANCH  15  16
ENDBRANCH  11  14
ENDBRANCH   7   8
ENDBRANCH   2   7
TORSDOF 11
ENDMDL
MODEL 3
REMARK VINA RESULT:      -5.6      3.600     12.230
REMARK  11 active torsions:
REMARK  status: ('A' for Active; 'I' for Inactive)
REMARK    1  A    between atoms: O_2  and  C_18 
REMARK    2  A    between atoms: O_5  and  P_8 
REMARK    3  A    between atoms: N_6  and  C_11 
REMARK    4  A    between atoms: N_7  and  C_15 
REMARK       I    between atoms: N_7  and  C_24 
REMARK    5  A    between atoms: P_8  and  C_23 
REMARK    6  A    between atoms: C_11  and  C_14 
REMARK    7  A    between atoms: C_15  and  C_18 
REMARK    8  A    between atoms: C_15  and  C_23 
REMARK    9  A    between atoms: C_21  and  C_26 
REMARK   10  A    between atoms: C_24  and  C_25 
REMARK   11  A    between atoms: C_29  and  C_32 
ROOT
HETATM    1  O   UNL     1       3.203  14.871  94.098  1.00  0.00     0.000 OA
HETATM    2  N   UNL     1       2.772  14.707  91.289  1.00  0.00     0.000 N 
HETATM    3  C   UNL     1       1.851  14.078  92.246  1.00  0.00     0.000 C 
HETATM    4  C   UNL     1       4.126  14.763  91.857  1.00  0.00     0.000 C 
HETATM    5  C   UNL     1       1.877  14.841  93.567  1.00  0.00     0.000 C 
HETATM    6  C   UNL     1       4.099  15.509  93.187  1.00  0.00     0.000 C 
ENDROOT
BRANCH   2   7
HETATM    7  C   UNL     1       2.771  13.985  90.018  1.00  0.00     0.000 C 
BRANCH   7   8
HETATM    8  C   UNL     1       3.766  12.875  89.994  1.00  0.00     0.000 A 
HETATM    9  C   UNL     1       3.503  11.690  90.683  1.00  0.00     0.000 A 
HETATM   10  C   UNL     1       4.434  10.651  90.663  1.00  0.00     0.000 A 
HETATM   11  C   UNL     1       5.626  10.798  89.954  1.00  0.00     0.000 A 
HETATM   12  C   UNL     1       5.889  11.981  89.266  1.00  0.00     0.000 A 
HETATM   13  C   UNL     1       4.959  13.020  89.286  1.00  0.00     0.000 A 
BRANCH  11  14
HETATM   14  C   UNL     1       6.579   9.731  89.932  1.00  0.00     0.000 C 
HETATM   15  C   UNL     1       7.381   8.835  89.913  1.00  0.00     0.000 C 
BRANCH  15  16
HETATM   16  C   UNL     1       8.335   7.770  89.891  1.00  0.00     0.000 A 
HETATM   17  C   UNL     1       8.432   6.900  90.977  1.00  0.00     0.000 A 
HETATM   18  C   UNL     1       9.361   5.860  90.954  1.00  0.00     0.000 A 
HETATM   19  C   UNL     1      10.169   5.712  89.846  1.00  0.00     0.000 A 
HETATM   20  C   UNL     1      10.092   6.559  88.760  1.00  0.00     0.000 A 
HETATM   21  C   UNL     1       9.164   7.600  88.782  1.00  0.00     0.000 A 
BRANCH  19  22
HETATM   22  C   UNL     1      11.160   4.605  89.823  1.00  0.00     0.000 C 
HETATM   23  O   UNL     1      11.317   3.962  88.788  1.00  0.00     0.000 OA
HETATM   24  N   UNL     1      11.865   4.395  91.000  1.00  0.00     0.000 N 
HETATM   25  HN  UNL     1      11.700   4.983  91.808  1.00  0.00     0.000 HD
BRANCH  24  26
HETATM   26  C   UNL     1      12.876   3.376  91.127  1.00  0.00     0.000 C 
BRANCH  26  27
HETATM   27  C   UNL     1      14.298   3.950  91.149  1.00  0.00     0.000 C 
HETATM   28  C   UNL     1      15.315   3.016  90.503  1.00  0.00     0.000 C 
BRANCH  27  29
HETATM   29  O   UNL     1      14.318   5.202  90.465  1.00  0.00     0.000 OA
HETATM   30  H   UNL     1      13.957   5.068  89.573  1.00  0.00     0.000 HD
ENDBRANCH  27  29
ENDBRANCH  26  27
BRANCH  26  31
HETATM   31  C   UNL     1      12.579   2.581  92.394  1.00  0.00     0.000 C 
HETATM   32  O   UNL     1      12.092   1.452  92.377  1.00  0.00     0.000 OA
BRANCH  31  33
HETATM   33  P   UNL     1      12.881   3.287  93.533  1.00  0.00     0.000 P 
HETATM   34  H   UNL     1      13.158   2.378  94.534  1.00  0.00     0.000 HD
BRANCH  33  35
HETATM   35  O   UNL     1      11.879   4.149  94.000  1.00  0.00     0.000 OA
HETATM   36  H   UNL     1      11.227   4.064  93.283  1.00  0.00     0.000 HD
ENDBRANCH  33  35
ENDBRANCH  31  33
ENDBRANCH  26  31
ENDBRANCH  24  26
ENDBRANCH  19  22
ENDBRANCH  15  16
ENDBRANCH  11  14
ENDBRANCH   7   8
ENDBRANCH   2   7
TORSDOF 11
ENDMDL
MODEL 4
REMARK VINA RESULT:      -5.3      1.892      2.600
REMARK  11 active torsions:
REMARK  status: ('A' for Active; 'I' for Inactive)
REMARK    1  A    between atoms: O_2  and  C_18 
REMARK    2  A    between atoms: O_5  and  P_8 
REMARK    3  A    between atoms: N_6  and  C_11 
REMARK    4  A    between atoms: N_7  and  C_15 
REMARK       I    between atoms: N_7  and  C_24 
REMARK    5  A    between atoms: P_8  and  C_23 
REMARK    6  A    between atoms: C_11  and  C_14 
REMARK    7  A    between atoms: C_15  and  C_18 
REMARK    8  A    between atoms: C_15  and  C_23 
REMARK    9  A    between atoms: C_21  and  C_26 
REMARK   10  A    between atoms: C_24  and  C_25 
REMARK   11  A    between atoms: C_29  and  C_32 
ROOT
HETATM    1  O   UNL     1      15.821   4.479  93.543  1.00  0.00     0.000 OA
HETATM    2  N   UNL     1      13.930   2.667  92.430  1.00  0.00     0.000 N 
HETATM    3  C   UNL     1      14.086   4.031  91.907  1.00  0.00     0.000 C 
HETATM    4  C   UNL     1      14.281   2.631  93.856  1.00  0.00     0.000 C 
HETATM    5  C   UNL     1      15.513   4.517  92.149  1.00  0.00     0.000 C 
HETATM    6  C   UNL     1      15.702   3.151  94.053  1.00  0.00     0.000 C 
ENDROOT
BRANCH   2   7
HETATM    7  C   UNL     1      12.567   2.184  92.218  1.00  0.00     0.000 C 
BRANCH   7   8
HETATM    8  C   UNL     1      11.557   3.276  92.311  1.00  0.00     0.000 A 
HETATM    9  C   UNL     1      10.567   3.394  91.334  1.00  0.00     0.000 A 
HETATM   10  C   UNL     1       9.622   4.417  91.419  1.00  0.00     0.000 A 
HETATM   11  C   UNL     1       9.667   5.320  92.480  1.00  0.00     0.000 A 
HETATM   12  C   UNL     1      10.655   5.204  93.456  1.00  0.00     0.000 A 
HETATM   13  C   UNL     1      11.600   4.181  93.371  1.00  0.00     0.000 A 
BRANCH  11  14
HETATM   14  C   UNL     1       8.697   6.368  92.568  1.00  0.00     0.000 C 
HETATM   15  C   UNL     1       7.883   7.249  92.642  1.00  0.00     0.000 C 
BRANCH  15  16
HETATM   16  C   UNL     1       6.914   8.297  92.729  1.00  0.00     0.000 A 
HETATM   17  C   UNL     1       6.828   9.253  91.716  1.00  0.00     0.000 A 
HETATM   18  C   UNL     1       5.881  10.273  91.800  1.00  0.00     0.000 A 
HETATM   19  C   UNL     1       5.042  10.316  92.893  1.00  0.00     0.000 A 
HETATM   20  C   UNL     1       5.107   9.384  93.908  1.00  0.00     0.000 A 
HETATM   21  C   UNL     1       6.054   8.362  93.825  1.00  0.00     0.000 A 
BRANCH  19  22
HETATM   22  C   UNL     1       4.034  11.404  92.983  1.00  0.00     0.000 C 
HETATM   23  O   UNL     1       3.235  11.406  93.916  1.00  0.00     0.000 OA
HETATM   24  N   UNL     1       4.095  12.372  91.991  1.00  0.00     0.000 N 
HETATM   25  HN  UNL     1       4.800  12.319  91.265  1.00  0.00     0.000 HD
BRANCH  24  26
HETATM   26  C   UNL     1       3.203  13.503  91.954  1.00  0.00     0.000 C 
BRANCH  26  27
HETATM   27  C   UNL     1       3.819  14.766  92.570  1.00  0.00     0.000 C 
HETATM   28  C   UNL     1       4.688  15.534  91.581  1.00  0.00     0.000 C 
BRANCH  27  29
HETATM   29  O   UNL     1       2.780  15.624  93.039  1.00  0.00     0.000 OA
HETATM   30  H   UNL     1       3.187  16.350  93.542  1.00  0.00     0.000 HD
ENDBRANCH  27  29
ENDBRANCH  26  27
BRANCH  26  31
HETATM   31  C   UNL     1       2.803  13.734  90.501  1.00  0.00     0.000 C 
HETATM   32  O   UNL     1       1.913  14.515  90.168  1.00  0.00     0.000 OA
BRANCH  31  33
HETATM   33  P   UNL     1       3.520  12.946  89.634  1.00  0.00     0.000 P 
HETATM   34  H   UNL     1       4.350  13.770  88.902  1.00  0.00     0.000 HD
BRANCH  33  35
HETATM   35  O   UNL     1       2.762  12.188  88.730  1.00  0.00     0.000 OA
HETATM   36  H   UNL     1       3.472  11.747  88.234  1.00  0.00     0.000 HD
ENDBRANCH  33  35
ENDBRANCH  31  33
ENDBRANCH  26  31
ENDBRANCH  24  26
ENDBRANCH  19  22
ENDBRANCH  15  16
ENDBRANCH  11  14
ENDBRANCH   7   8
ENDBRANCH   2   7
TORSDOF 11
ENDMDL
MODEL 5
REMARK VINA RESULT:      -5.2      2.142      2.900
REMARK  11 active torsions:
REMARK  status: ('A' for Active; 'I' for Inactive)
REMARK    1  A    between atoms: O_2  and  C_18 
REMARK    2  A    between atoms: O_5  and  P_8 
REMARK    3  A    between atoms: N_6  and  C_11 
REMARK    4  A    between atoms: N_7  and  C_15 
REMARK       I    between atoms: N_7  and  C_24 
REMARK    5  A    between atoms: P_8  and  C_23 
REMARK    6  A    between atoms: C_11  and  C_14 
REMARK    7  A    between atoms: C_15  and  C_18 
REMARK    8  A    between atoms: C_15  and  C_23 
REMARK    9  A    between atoms: C_21  and  C_26 
REMARK   10  A    between atoms: C_24  and  C_25 
REMARK   11  A    between atoms: C_29  and  C_32 
ROOT
HETATM    1  O   UNL     1      15.586   4.011  91.892  1.00  0.00     0.000 OA
HETATM    2  N   UNL     1      13.221   2.428  91.842  1.00  0.00     0.000 N 
HETATM    3  C   UNL     1      13.295   3.720  91.146  1.00  0.00     0.000 C 
HETATM    4  C   UNL     1      14.120   2.430  93.004  1.00  0.00     0.000 C 
HETATM    5  C   UNL     1      14.739   4.008  90.742  1.00  0.00     0.000 C 
HETATM    6  C   UNL     1      15.543   2.748  92.557  1.00  0.00     0.000 C 
ENDROOT
BRANCH   2   7
HETATM    7  C   UNL     1      11.847   2.137  92.248  1.00  0.00     0.000 C 
BRANCH   7   8
HETATM    8  C   UNL     1      11.009   3.366  92.339  1.00  0.00     0.000 A 
HETATM    9  C   UNL     1      11.106   4.195  93.457  1.00  0.00     0.000 A 
HETATM   10  C   UNL     1      10.321   5.344  93.544  1.00  0.00     0.000 A 
HETATM   11  C   UNL     1       9.441   5.666  92.512  1.00  0.00     0.000 A 
HETATM   12  C   UNL     1       9.343   4.839  91.394  1.00  0.00     0.000 A 
HETATM   13  C   UNL     1      10.127   3.689  91.307  1.00  0.00     0.000 A 
BRANCH  11  14
HETATM   14  C   UNL     1       8.637   6.846  92.600  1.00  0.00     0.000 C 
HETATM   15  C   UNL     1       7.962   7.838  92.674  1.00  0.00     0.000 C 
BRANCH  15  16
HETATM   16  C   UNL     1       7.158   9.017  92.761  1.00  0.00     0.000 A 
HETATM   17  C   UNL     1       6.115   9.218  91.857  1.00  0.00     0.000 A 
HETATM   18  C   UNL     1       5.329  10.367  91.944  1.00  0.00     0.000 A 
HETATM   19  C   UNL     1       5.604  11.289  92.932  1.00  0.00     0.000 A 
HETATM   20  C   UNL     1       6.629  11.114  93.838  1.00  0.00     0.000 A 
HETATM   21  C   UNL     1       7.416   9.965  93.751  1.00  0.00     0.000 A 
BRANCH  19  22
HETATM   22  C   UNL     1       4.768  12.514  93.023  1.00  0.00     0.000 C 
HETATM   23  O   UNL     1       4.577  13.030  94.122  1.00  0.00     0.000 OA
HETATM   24  N   UNL     1       4.275  13.004  91.822  1.00  0.00     0.000 N 
HETATM   25  HN  UNL     1       4.495  12.539  90.949  1.00  0.00     0.000 HD
BRANCH  24  26
HETATM   26  C   UNL     1       3.469  14.196  91.743  1.00  0.00     0.000 C 
BRANCH  26  27
HETATM   27  C   UNL     1       3.536  14.868  90.366  1.00  0.00     0.000 C 
HETATM   28  C   UNL     1       4.935  15.369  90.027  1.00  0.00     0.000 C 
BRANCH  27  29
HETATM   29  O   UNL     1       3.120  13.941  89.363  1.00  0.00     0.000 OA
HETATM   30  H   UNL     1       3.723  14.022  88.604  1.00  0.00     0.000 HD
ENDBRANCH  27  29
ENDBRANCH  26  27
BRANCH  26  31
HETATM   31  C   UNL     1       2.038  13.816  92.107  1.00  0.00     0.000 C 
HETATM   32  O   UNL     1       1.436  12.887  91.573  1.00  0.00     0.000 OA
BRANCH  31  33
HETATM   33  P   UNL     1       1.505  14.652  93.058  1.00  0.00     0.000 P 
HETATM   34  H   UNL     1       1.008  15.766  92.413  1.00  0.00     0.000 HD
BRANCH  33  35
HETATM   35  O   UNL     1       2.392  15.090  94.052  1.00  0.00     0.000 OA
HETATM   36  H   UNL     1       2.684  14.236  94.413  1.00  0.00     0.000 HD
ENDBRANCH  33  35
ENDBRANCH  31  33
ENDBRANCH  26  31
ENDBRANCH  24  26
ENDBRANCH  19  22
ENDBRANCH  15  16
ENDBRANCH  11  14
ENDBRANCH   7   8
ENDBRANCH   2   7
TORSDOF 11
ENDMDL
MODEL 6
REMARK VINA RESULT:      -4.8      3.474     12.401
REMARK  11 active torsions:
REMARK  status: ('A' for Active; 'I' for Inactive)
REMARK    1  A    between atoms: O_2  and  C_18 
REMARK    2  A    between atoms: O_5  and  P_8 
REMARK    3  A    between atoms: N_6  and  C_11 
REMARK    4  A    between atoms: N_7  and  C_15 
REMARK       I    between atoms: N_7  and  C_24 
REMARK    5  A    between atoms: P_8  and  C_23 
REMARK    6  A    between atoms: C_11  and  C_14 
REMARK    7  A    between atoms: C_15  and  C_18 
REMARK    8  A    between atoms: C_15  and  C_23 
REMARK    9  A    between atoms: C_21  and  C_26 
REMARK   10  A    between atoms: C_24  and  C_25 
REMARK   11  A    between atoms: C_29  and  C_32 
ROOT
HETATM    1  O   UNL     1       4.782  15.046  91.258  1.00  0.00     0.000 OA
HETATM    2  N   UNL     1       3.788  13.234  89.300  1.00  0.00     0.000 N 
HETATM    3  C   UNL     1       3.578  13.004  90.736  1.00  0.00     0.000 C 
HETATM    4  C   UNL     1       5.030  13.990  89.088  1.00  0.00     0.000 C 
HETATM    5  C   UNL     1       3.560  14.340  91.476  1.00  0.00     0.000 C 
HETATM    6  C   UNL     1       4.979  15.300  89.867  1.00  0.00     0.000 C 
ENDROOT
BRANCH   2   7
HETATM    7  C   UNL     1       3.820  11.967  88.572  1.00  0.00     0.000 C 
BRANCH   7   8
HETATM    8  C   UNL     1       4.805  11.007  89.146  1.00  0.00     0.000 A 
HETATM    9  C   UNL     1       6.161  11.336  89.179  1.00  0.00     0.000 A 
HETATM   10  C   UNL     1       7.084  10.438  89.714  1.00  0.00     0.000 A 
HETATM   11  C   UNL     1       6.650   9.211  90.217  1.00  0.00     0.000 A 
HETATM   12  C   UNL     1       5.297   8.882  90.185  1.00  0.00     0.000 A 
HETATM   13  C   UNL     1       4.374   9.780  89.650  1.00  0.00     0.000 A 
BRANCH  11  14
HETATM   14  C   UNL     1       7.597   8.291  90.767  1.00  0.00     0.000 C 
HETATM   15  C   UNL     1       8.393   7.517  91.229  1.00  0.00     0.000 C 
BRANCH  15  16
HETATM   16  C   UNL     1       9.340   6.597  91.779  1.00  0.00     0.000 A 
HETATM   17  C   UNL     1      10.015   5.709  90.941  1.00  0.00     0.000 A 
HETATM   18  C   UNL     1      10.940   4.814  91.478  1.00  0.00     0.000 A 
HETATM   19  C   UNL     1      11.171   4.827  92.838  1.00  0.00     0.000 A 
HETATM   20  C   UNL     1      10.516   5.696  93.686  1.00  0.00     0.000 A 
HETATM   21  C   UNL     1       9.590   6.591  93.151  1.00  0.00     0.000 A 
BRANCH  19  22
HETATM   22  C   UNL     1      12.155   3.872  93.409  1.00  0.00     0.000 C 
HETATM   23  O   UNL     1      11.751   2.856  93.967  1.00  0.00     0.000 OA
HETATM   24  N   UNL     1      13.493   4.203  93.238  1.00  0.00     0.000 N 
HETATM   25  HN  UNL     1      13.753   5.048  92.743  1.00  0.00     0.000 HD
BRANCH  24  26
HETATM   26  C   UNL     1      14.565   3.367  93.714  1.00  0.00     0.000 C 
BRANCH  26  27
HETATM   27  C   UNL     1      14.851   2.181  92.784  1.00  0.00     0.000 C 
HETATM   28  C   UNL     1      14.337   0.861  93.346  1.00  0.00     0.000 C 
BRANCH  27  29
HETATM   29  O   UNL     1      14.240   2.413  91.514  1.00  0.00     0.000 OA
HETATM   30  H   UNL     1      13.332   2.068  91.545  1.00  0.00     0.000 HD
ENDBRANCH  27  29
ENDBRANCH  26  27
BRANCH  26  31
HETATM   31  C   UNL     1      15.800   4.246  93.887  1.00  0.00     0.000 C 
HETATM   32  O   UNL     1      15.769   5.471  93.787  1.00  0.00     0.000 OA
BRANCH  31  33
HETATM   33  P   UNL     1      16.933   3.507  94.124  1.00  0.00     0.000 P 
HETATM   34  H   UNL     1      17.410   3.852  95.372  1.00  0.00     0.000 HD
BRANCH  33  35
HETATM   35  O   UNL     1      17.977   3.679  93.203  1.00  0.00     0.000 OA
HETATM   36  H   UNL     1      18.544   4.296  93.696  1.00  0.00     0.000 HD
ENDBRANCH  33  35
ENDBRANCH  31  33
ENDBRANCH  26  31
ENDBRANCH  24  26
ENDBRANCH  19  22
ENDBRANCH  15  16
ENDBRANCH  11  14
ENDBRANCH   7   8
ENDBRANCH   2   7
TORSDOF 11
ENDMDL
