MODEL 1
REMARK VINA RESULT:      -6.2      0.000      0.000
REMARK  11 active torsions:
REMARK  status: ('A' for Active; 'I' for Inactive)
REMARK    1  A    between atoms: O_2  and  C_18 
REMARK    2  A    between atoms: O_5  and  P_8 
REMARK    3  A    between atoms: N_6  and  C_11 
REMARK    4  A    between atoms: N_7  and  C_15 
REMARK       I    between atoms: N_7  and  C_24 
REMARK    5  A    between atoms: P_8  and  C_23 
REMARK    6  A    between atoms: C_11  and  C_14 
REMARK    7  A    between atoms: C_15  and  C_18 
REMARK    8  A    between atoms: C_15  and  C_23 
REMARK    9  A    between atoms: C_21  and  C_26 
REMARK   10  A    between atoms: C_24  and  C_25 
REMARK   11  A    between atoms: C_29  and  C_32 
ROOT
HETATM    1  O   UNL     1      16.957   3.761  93.705  1.00  0.00     0.000 OA
HETATM    2  N   UNL     1      14.297   3.038  92.997  1.00  0.00     0.000 N 
HETATM    3  C   UNL     1      15.358   2.030  93.126  1.00  0.00     0.000 C 
HETATM    4  C   UNL     1      14.874   4.329  92.598  1.00  0.00     0.000 C 
HETATM    5  C   UNL     1      16.409   2.510  94.124  1.00  0.00     0.000 C 
HETATM    6  C   UNL     1      15.936   4.755  93.607  1.00  0.00     0.000 C 
ENDROOT
BRANCH   2   7
HETATM    7  C   UNL     1      13.284   2.603  92.037  1.00  0.00     0.000 C 
BRANCH   7   8
HETATM    8  C   UNL     1      12.213   3.621  91.841  1.00  0.00     0.000 A 
HETATM    9  C   UNL     1      11.957   4.126  90.565  1.00  0.00     0.000 A 
HETATM   10  C   UNL     1      10.957   5.081  90.381  1.00  0.00     0.000 A 
HETATM   11  C   UNL     1      10.211   5.527  91.472  1.00  0.00     0.000 A 
HETATM   12  C   UNL     1      10.465   5.023  92.746  1.00  0.00     0.000 A 
HETATM   13  C   UNL     1      11.466   4.069  92.930  1.00  0.00     0.000 A 
BRANCH  11  14
HETATM   14  C   UNL     1       9.184   6.505  91.282  1.00  0.00     0.000 C 
HETATM   15  C   UNL     1       8.320   7.326  91.123  1.00  0.00     0.000 C 
BRANCH  15  16
HETATM   16  C   UNL     1       7.293   8.303  90.935  1.00  0.00     0.000 A 
HETATM   17  C   UNL     1       7.011   9.220  91.947  1.00  0.00     0.000 A 
HETATM   18  C   UNL     1       6.011  10.175  91.762  1.00  0.00     0.000 A 
HETATM   19  C   UNL     1       5.317  10.192  90.570  1.00  0.00     0.000 A 
HETATM   20  C   UNL     1       5.578   9.296  89.554  1.00  0.00     0.000 A 
HETATM   21  C   UNL     1       6.577   8.340  89.738  1.00  0.00     0.000 A 
BRANCH  19  22
HETATM   22  C   UNL     1       4.251  11.208  90.373  1.00  0.00     0.000 C 
HETATM   23  O   UNL     1       3.266  10.920  89.698  1.00  0.00     0.000 OA
HETATM   24  N   UNL     1       4.449  12.427  91.007  1.00  0.00     0.000 N 
HETATM   25  HN  UNL     1       5.276  12.583  91.570  1.00  0.00     0.000 HD
BRANCH  24  26
HETATM   26  C   UNL     1       3.494  13.503  90.933  1.00  0.00     0.000 C 
BRANCH  26  27
HETATM   27  C   UNL     1       2.378  13.381  91.978  1.00  0.00     0.000 C 
HETATM   28  C   UNL     1       1.363  14.515  91.884  1.00  0.00     0.000 C 
BRANCH  27  29
HETATM   29  O   UNL     1       1.700  12.137  91.808  1.00  0.00     0.000 OA
HETATM   30  H   UNL     1       1.463  11.796  92.687  1.00  0.00     0.000 HD
ENDBRANCH  27  29
ENDBRANCH  26  27
BRANCH  26  31
HETATM   31  C   UNL     1       4.258  14.814  91.088  1.00  0.00     0.000 C 
HETATM   32  O   UNL     1       4.293  15.448  92.141  1.00  0.00     0.000 OA
BRANCH  31  33
HETATM   33  P   UNL     1       4.856  15.209  89.916  1.00  0.00     0.000 P 
HETATM   34  H   UNL     1       4.473  16.511  89.663  1.00  0.00     0.000 HD
BRANCH  33  35
HETATM   35  O   UNL     1       4.545  14.442  88.784  1.00  0.00     0.000 OA
HETATM   36  H   UNL     1       3.578  14.542  88.766  1.00  0.00     0.000 HD
ENDBRANCH  33  35
ENDBRANCH  31  33
ENDBRANCH  26  31
ENDBRANCH  24  26
ENDBRANCH  19  22
ENDBRANCH  15  16
ENDBRANCH  11  14
ENDBRANCH   7   8
ENDBRANCH   2   7
TORSDOF 11
ENDMDL
MODEL 2
REMARK VINA RESULT:      -5.6      1.369      2.093
REMARK  11 active torsions:
REMARK  status: ('A' for Active; 'I' for Inactive)
REMARK    1  A    between atoms: O_2  and  C_18 
REMARK    2  A    between atoms: O_5  and  P_8 
REMARK    3  A    between atoms: N_6  and  C_11 
REMARK    4  A    between atoms: N_7  and  C_15 
REMARK       I    between atoms: N_7  and  C_24 
REMARK    5  A    between atoms: P_8  and  C_23 
REMARK    6  A    between atoms: C_11  and  C_14 
REMARK    7  A    between atoms: C_15  and  C_18 
REMARK    8  A    between atoms: C_15  and  C_23 
REMARK    9  A    between atoms: C_21  and  C_26 
REMARK   10  A    between atoms: C_24  and  C_25 
REMARK   11  A    between atoms: C_29  and  C_32 
ROOT
HETATM    1  O   UNL     1      16.607   2.907  93.797  1.00  0.00     0.000 OA
HETATM    2  N   UNL     1      13.895   2.879  92.935  1.00  0.00     0.000 N 
HETATM    3  C   UNL     1      14.675   1.640  93.055  1.00  0.00     0.000 C 
HETATM    4  C   UNL     1      14.786   4.007  92.632  1.00  0.00     0.000 C 
HETATM    5  C   UNL     1      15.752   1.809  94.123  1.00  0.00     0.000 C 
HETATM    6  C   UNL     1      15.861   4.121  93.708  1.00  0.00     0.000 C 
ENDROOT
BRANCH   2   7
HETATM    7  C   UNL     1      12.862   2.743  91.909  1.00  0.00     0.000 C 
BRANCH   7   8
HETATM    8  C   UNL     1      11.824   3.808  92.003  1.00  0.00     0.000 A 
HETATM    9  C   UNL     1      11.390   4.249  93.254  1.00  0.00     0.000 A 
HETATM   10  C   UNL     1      10.416   5.244  93.344  1.00  0.00     0.000 A 
HETATM   11  C   UNL     1       9.879   5.799  92.183  1.00  0.00     0.000 A 
HETATM   12  C   UNL     1      10.312   5.360  90.934  1.00  0.00     0.000 A 
HETATM   13  C   UNL     1      11.285   4.365  90.843  1.00  0.00     0.000 A 
BRANCH  11  14
HETATM   14  C   UNL     1       8.882   6.821  92.276  1.00  0.00     0.000 C 
HETATM   15  C   UNL     1       8.044   7.680  92.353  1.00  0.00     0.000 C 
BRANCH  15  16
HETATM   16  C   UNL     1       7.048   8.701  92.446  1.00  0.00     0.000 A 
HETATM   17  C   UNL     1       6.004   8.742  91.521  1.00  0.00     0.000 A 
HETATM   18  C   UNL     1       5.031   9.736  91.614  1.00  0.00     0.000 A 
HETATM   19  C   UNL     1       5.122  10.666  92.629  1.00  0.00     0.000 A 
HETATM   20  C   UNL     1       6.144  10.647  93.555  1.00  0.00     0.000 A 
HETATM   21  C   UNL     1       7.118   9.653  93.463  1.00  0.00     0.000 A 
BRANCH  19  22
HETATM   22  C   UNL     1       4.086  11.727  92.726  1.00  0.00     0.000 C 
HETATM   23  O   UNL     1       3.134  11.567  93.486  1.00  0.00     0.000 OA
HETATM   24  N   UNL     1       4.295  12.855  91.945  1.00  0.00     0.000 N 
HETATM   25  HN  UNL     1       5.119  12.927  91.359  1.00  0.00     0.000 HD
BRANCH  24  26
HETATM   26  C   UNL     1       3.393  13.978  91.948  1.00  0.00     0.000 C 
BRANCH  26  27
HETATM   27  C   UNL     1       3.702  14.985  93.063  1.00  0.00     0.000 C 
HETATM   28  C   UNL     1       2.455  15.403  93.834  1.00  0.00     0.000 C 
BRANCH  27  29
HETATM   29  O   UNL     1       4.640  14.414  93.975  1.00  0.00     0.000 OA
HETATM   30  H   UNL     1       4.490  13.454  94.005  1.00  0.00     0.000 HD
ENDBRANCH  27  29
ENDBRANCH  26  27
BRANCH  26  31
HETATM   31  C   UNL     1       3.463  14.636  90.573  1.00  0.00     0.000 C 
HETATM   32  O   UNL     1       2.584  14.507  89.724  1.00  0.00     0.000 OA
BRANCH  31  33
HETATM   33  P   UNL     1       4.628  15.343  90.395  1.00  0.00     0.000 P 
HETATM   34  H   UNL     1       4.339  16.682  90.557  1.00  0.00     0.000 HD
BRANCH  33  35
HETATM   35  O   UNL     1       5.252  15.186  89.149  1.00  0.00     0.000 OA
HETATM   36  H   UNL     1       5.513  16.105  88.968  1.00  0.00     0.000 HD
ENDBRANCH  33  35
ENDBRANCH  31  33
ENDBRANCH  26  31
ENDBRANCH  24  26
ENDBRANCH  19  22
ENDBRANCH  15  16
ENDBRANCH  11  14
ENDBRANCH   7   8
ENDBRANCH   2   7
TORSDOF 11
ENDMDL
MODEL 3
REMARK VINA RESULT:      -5.6      1.687      2.795
REMARK  11 active torsions:
REMARK  status: ('A' for Active; 'I' for Inactive)
REMARK    1  A    between atoms: O_2  and  C_18 
REMARK    2  A    between atoms: O_5  and  P_8 
REMARK    3  A    between atoms: N_6  and  C_11 
REMARK    4  A    between atoms: N_7  and  C_15 
REMARK       I    between atoms: N_7  and  C_24 
REMARK    5  A    between atoms: P_8  and  C_23 
REMARK    6  A    between atoms: C_11  and  C_14 
REMARK    7  A    between atoms: C_15  and  C_18 
REMARK    8  A    between atoms: C_15  and  C_23 
REMARK    9  A    between atoms: C_21  and  C_26 
REMARK   10  A    between atoms: C_24  and  C_25 
REMARK   11  A    between atoms: C_29  and  C_32 
ROOT
HETATM    1  O   UNL     1      16.783   2.594  92.970  1.00  0.00     0.000 OA
HETATM    2  N   UNL     1      13.959   2.870  93.182  1.00  0.00     0.000 N 
HETATM    3  C   UNL     1      14.663   1.717  93.760  1.00  0.00     0.000 C 
HETATM    4  C   UNL     1      14.695   3.378  92.016  1.00  0.00     0.000 C 
HETATM    5  C   UNL     1      16.092   2.114  94.124  1.00  0.00     0.000 C 
HETATM    6  C   UNL     1      16.122   3.734  92.420  1.00  0.00     0.000 C 
ENDROOT
BRANCH   2   7
HETATM    7  C   UNL     1      12.590   2.511  92.816  1.00  0.00     0.000 C 
BRANCH   7   8
HETATM    8  C   UNL     1      11.670   3.684  92.833  1.00  0.00     0.000 A 
HETATM    9  C   UNL     1      11.458   4.386  94.020  1.00  0.00     0.000 A 
HETATM   10  C   UNL     1      10.596   5.483  94.037  1.00  0.00     0.000 A 
HETATM   11  C   UNL     1       9.949   5.878  92.867  1.00  0.00     0.000 A 
HETATM   12  C   UNL     1      10.161   5.178  91.681  1.00  0.00     0.000 A 
HETATM   13  C   UNL     1      11.022   4.081  91.663  1.00  0.00     0.000 A 
BRANCH  11  14
HETATM   14  C   UNL     1       9.067   7.004  92.884  1.00  0.00     0.000 C 
HETATM   15  C   UNL     1       8.326   7.951  92.898  1.00  0.00     0.000 C 
BRANCH  15  16
HETATM   16  C   UNL     1       7.444   9.076  92.914  1.00  0.00     0.000 A 
HETATM   17  C   UNL     1       6.818   9.487  91.737  1.00  0.00     0.000 A 
HETATM   18  C   UNL     1       5.955  10.583  91.754  1.00  0.00     0.000 A 
HETATM   19  C   UNL     1       5.738  11.242  92.946  1.00  0.00     0.000 A 
HETATM   20  C   UNL     1       6.344  10.855  94.122  1.00  0.00     0.000 A 
HETATM   21  C   UNL     1       7.207   9.759  94.107  1.00  0.00     0.000 A 
BRANCH  19  22
HETATM   22  C   UNL     1       4.820  12.411  92.963  1.00  0.00     0.000 C 
HETATM   23  O   UNL     1       4.605  12.989  94.025  1.00  0.00     0.000 OA
HETATM   24  N   UNL     1       4.283  12.780  91.738  1.00  0.00     0.000 N 
HETATM   25  HN  UNL     1       4.526  12.270  90.897  1.00  0.00     0.000 HD
BRANCH  24  26
HETATM   26  C   UNL     1       3.397  13.906  91.587  1.00  0.00     0.000 C 
BRANCH  26  27
HETATM   27  C   UNL     1       3.364  14.448  90.152  1.00  0.00     0.000 C 
HETATM   28  C   UNL     1       4.681  15.098  89.744  1.00  0.00     0.000 C 
BRANCH  27  29
HETATM   29  O   UNL     1       3.072  13.384  89.247  1.00  0.00     0.000 OA
HETATM   30  H   UNL     1       2.113  13.374  89.087  1.00  0.00     0.000 HD
ENDBRANCH  27  29
ENDBRANCH  26  27
BRANCH  26  31
HETATM   31  C   UNL     1       2.009  13.471  92.047  1.00  0.00     0.000 C 
HETATM   32  O   UNL     1       1.493  12.409  91.706  1.00  0.00     0.000 OA
BRANCH  31  33
HETATM   33  P   UNL     1       1.406  14.415  92.843  1.00  0.00     0.000 P 
HETATM   34  H   UNL     1       1.304  15.581  92.111  1.00  0.00     0.000 HD
BRANCH  33  35
HETATM   35  O   UNL     1       2.069  14.717  94.041  1.00  0.00     0.000 OA
HETATM   36  H   UNL     1       1.691  14.037  94.625  1.00  0.00     0.000 HD
ENDBRANCH  33  35
ENDBRANCH  31  33
ENDBRANCH  26  31
ENDBRANCH  24  26
ENDBRANCH  19  22
ENDBRANCH  15  16
ENDBRANCH  11  14
ENDBRANCH   7   8
ENDBRANCH   2   7
TORSDOF 11
ENDMDL
MODEL 4
REMARK VINA RESULT:      -5.0      3.708     12.436
REMARK  11 active torsions:
REMARK  status: ('A' for Active; 'I' for Inactive)
REMARK    1  A    between atoms: O_2  and  C_18 
REMARK    2  A    between atoms: O_5  and  P_8 
REMARK    3  A    between atoms: N_6  and  C_11 
REMARK    4  A    between atoms: N_7  and  C_15 
REMARK       I    between atoms: N_7  and  C_24 
REMARK    5  A    between atoms: P_8  and  C_23 
REMARK    6  A    between atoms: C_11  and  C_14 
REMARK    7  A    between atoms: C_15  and  C_18 
REMARK    8  A    between atoms: C_15  and  C_23 
REMARK    9  A    between atoms: C_21  and  C_26 
REMARK   10  A    between atoms: C_24  and  C_25 
REMARK   11  A    between atoms: C_29  and  C_32 
ROOT
HETATM    1  O   UNL     1       3.139  14.770  93.864  1.00  0.00     0.000 OA
HETATM    2  N   UNL     1       2.709  14.700  91.051  1.00  0.00     0.000 N 
HETATM    3  C   UNL     1       1.864  13.932  91.977  1.00  0.00     0.000 C 
HETATM    4  C   UNL     1       4.054  14.868  91.620  1.00  0.00     0.000 C 
HETATM    5  C   UNL     1       1.820  14.629  93.334  1.00  0.00     0.000 C 
HETATM    6  C   UNL     1       3.959  15.541  92.985  1.00  0.00     0.000 C 
ENDROOT
BRANCH   2   7
HETATM    7  C   UNL     1       2.775  14.045  89.746  1.00  0.00     0.000 C 
BRANCH   7   8
HETATM    8  C   UNL     1       3.771  12.936  89.716  1.00  0.00     0.000 A 
HETATM    9  C   UNL     1       3.429  11.678  90.212  1.00  0.00     0.000 A 
HETATM   10  C   UNL     1       4.361  10.641  90.187  1.00  0.00     0.000 A 
HETATM   11  C   UNL     1       5.635  10.862  89.663  1.00  0.00     0.000 A 
HETATM   12  C   UNL     1       5.978  12.118  89.167  1.00  0.00     0.000 A 
HETATM   13  C   UNL     1       5.046  13.156  89.193  1.00  0.00     0.000 A 
BRANCH  11  14
HETATM   14  C   UNL     1       6.590   9.798  89.635  1.00  0.00     0.000 C 
HETATM   15  C   UNL     1       7.393   8.903  89.610  1.00  0.00     0.000 C 
BRANCH  15  16
HETATM   16  C   UNL     1       8.349   7.840  89.582  1.00  0.00     0.000 A 
HETATM   17  C   UNL     1       8.542   7.047  90.713  1.00  0.00     0.000 A 
HETATM   18  C   UNL     1       9.473   6.008  90.684  1.00  0.00     0.000 A 
HETATM   19  C   UNL     1      10.187   5.785  89.526  1.00  0.00     0.000 A 
HETATM   20  C   UNL     1      10.014   6.555  88.395  1.00  0.00     0.000 A 
HETATM   21  C   UNL     1       9.084   7.594  88.423  1.00  0.00     0.000 A 
BRANCH  19  22
HETATM   22  C   UNL     1      11.180   4.680  89.496  1.00  0.00     0.000 C 
HETATM   23  O   UNL     1      11.396   4.097  88.437  1.00  0.00     0.000 OA
HETATM   24  N   UNL     1      11.817   4.403  90.698  1.00  0.00     0.000 N 
HETATM   25  HN  UNL     1      11.605   4.944  91.528  1.00  0.00     0.000 HD
BRANCH  24  26
HETATM   26  C   UNL     1      12.821   3.377  90.824  1.00  0.00     0.000 C 
BRANCH  26  27
HETATM   27  C   UNL     1      14.223   3.946  91.077  1.00  0.00     0.000 C 
HETATM   28  C   UNL     1      15.322   3.082  90.470  1.00  0.00     0.000 C 
BRANCH  27  29
HETATM   29  O   UNL     1      14.310   5.261  90.529  1.00  0.00     0.000 OA
HETATM   30  H   UNL     1      14.519   5.879  91.250  1.00  0.00     0.000 HD
ENDBRANCH  27  29
ENDBRANCH  26  27
BRANCH  26  31
HETATM   31  C   UNL     1      12.391   2.441  91.949  1.00  0.00     0.000 C 
HETATM   32  O   UNL     1      12.871   1.320  92.107  1.00  0.00     0.000 OA
BRANCH  31  33
HETATM   33  P   UNL     1      11.393   2.982  92.722  1.00  0.00     0.000 P 
HETATM   34  H   UNL     1      11.484   2.426  93.982  1.00  0.00     0.000 HD
BRANCH  33  35
HETATM   35  O   UNL     1      10.085   2.782  92.258  1.00  0.00     0.000 OA
HETATM   36  H   UNL     1      10.133   3.237  91.399  1.00  0.00     0.000 HD
ENDBRANCH  33  35
ENDBRANCH  31  33
ENDBRANCH  26  31
ENDBRANCH  24  26
ENDBRANCH  19  22
ENDBRANCH  15  16
ENDBRANCH  11  14
ENDBRANCH   7   8
ENDBRANCH   2   7
TORSDOF 11
ENDMDL
MODEL 5
REMARK VINA RESULT:      -4.5      3.462     12.505
REMARK  11 active torsions:
REMARK  status: ('A' for Active; 'I' for Inactive)
REMARK    1  A    between atoms: O_2  and  C_18 
REMARK    2  A    between atoms: O_5  and  P_8 
REMARK    3  A    between atoms: N_6  and  C_11 
REMARK    4  A    between atoms: N_7  and  C_15 
REMARK       I    between atoms: N_7  and  C_24 
REMARK    5  A    between atoms: P_8  and  C_23 
REMARK    6  A    between atoms: C_11  and  C_14 
REMARK    7  A    between atoms: C_15  and  C_18 
REMARK    8  A    between atoms: C_15  and  C_23 
REMARK    9  A    between atoms: C_21  and  C_26 
REMARK   10  A    between atoms: C_24  and  C_25 
REMARK   11  A    between atoms: C_29  and  C_32 
ROOT
HETATM    1  O   UNL     1       2.928  14.813  93.672  1.00  0.00     0.000 OA
HETATM    2  N   UNL     1       2.701  14.340  90.874  1.00  0.00     0.000 N 
HETATM    3  C   UNL     1       1.798  13.695  91.838  1.00  0.00     0.000 C 
HETATM    4  C   UNL     1       4.000  14.611  91.505  1.00  0.00     0.000 C 
HETATM    5  C   UNL     1       1.651  14.575  93.077  1.00  0.00     0.000 C 
HETATM    6  C   UNL     1       3.802  15.468  92.751  1.00  0.00     0.000 C 
ENDROOT
BRANCH   2   7
HETATM    7  C   UNL     1       2.865  13.509  89.683  1.00  0.00     0.000 C 
BRANCH   7   8
HETATM    8  C   UNL     1       3.895  12.447  89.868  1.00  0.00     0.000 A 
HETATM    9  C   UNL     1       3.625  11.351  90.688  1.00  0.00     0.000 A 
HETATM   10  C   UNL     1       4.589  10.358  90.864  1.00  0.00     0.000 A 
HETATM   11  C   UNL     1       5.820  10.461  90.218  1.00  0.00     0.000 A 
HETATM   12  C   UNL     1       6.090  11.555  89.399  1.00  0.00     0.000 A 
HETATM   13  C   UNL     1       5.128  12.549  89.223  1.00  0.00     0.000 A 
BRANCH  11  14
HETATM   14  C   UNL     1       6.808   9.441  90.397  1.00  0.00     0.000 C 
HETATM   15  C   UNL     1       7.637   8.584  90.547  1.00  0.00     0.000 C 
BRANCH  15  16
HETATM   16  C   UNL     1       8.624   7.565  90.725  1.00  0.00     0.000 A 
HETATM   17  C   UNL     1       9.087   7.260  92.005  1.00  0.00     0.000 A 
HETATM   18  C   UNL     1      10.048   6.264  92.178  1.00  0.00     0.000 A 
HETATM   19  C   UNL     1      10.524   5.595  91.070  1.00  0.00     0.000 A 
HETATM   20  C   UNL     1      10.082   5.879  89.794  1.00  0.00     0.000 A 
HETATM   21  C   UNL     1       9.121   6.875  89.619  1.00  0.00     0.000 A 
BRANCH  19  22
HETATM   22  C   UNL     1      11.549   4.536  91.255  1.00  0.00     0.000 C 
HETATM   23  O   UNL     1      11.834   3.806  90.309  1.00  0.00     0.000 OA
HETATM   24  N   UNL     1      12.135   4.470  92.511  1.00  0.00     0.000 N 
HETATM   25  HN  UNL     1      11.866   5.124  93.237  1.00  0.00     0.000 HD
BRANCH  24  26
HETATM   26  C   UNL     1      13.162   3.514  92.839  1.00  0.00     0.000 C 
BRANCH  26  27
HETATM   27  C   UNL     1      13.018   2.199  92.062  1.00  0.00     0.000 C 
HETATM   28  C   UNL     1      14.015   1.140  92.518  1.00  0.00     0.000 C 
BRANCH  27  29
HETATM   29  O   UNL     1      11.695   1.691  92.224  1.00  0.00     0.000 OA
HETATM   30  H   UNL     1      11.131   2.409  92.558  1.00  0.00     0.000 HD
ENDBRANCH  27  29
ENDBRANCH  26  27
BRANCH  26  31
HETATM   31  C   UNL     1      14.512   4.171  92.573  1.00  0.00     0.000 C 
HETATM   32  O   UNL     1      14.820   4.651  91.484  1.00  0.00     0.000 OA
BRANCH  31  33
HETATM   33  P   UNL     1      15.338   4.123  93.670  1.00  0.00     0.000 P 
HETATM   34  H   UNL     1      14.551   4.247  94.797  1.00  0.00     0.000 HD
BRANCH  33  35
HETATM   35  O   UNL     1      16.332   5.110  93.729  1.00  0.00     0.000 OA
HETATM   36  H   UNL     1      16.704   5.037  92.834  1.00  0.00     0.000 HD
ENDBRANCH  33  35
ENDBRANCH  31  33
ENDBRANCH  26  31
ENDBRANCH  24  26
ENDBRANCH  19  22
ENDBRANCH  15  16
ENDBRANCH  11  14
ENDBRANCH   7   8
ENDBRANCH   2   7
TORSDOF 11
ENDMDL
MODEL 6
REMARK VINA RESULT:      -4.3      3.491     12.552
REMARK  11 active torsions:
REMARK  status: ('A' for Active; 'I' for Inactive)
REMARK    1  A    between atoms: O_2  and  C_18 
REMARK    2  A    between atoms: O_5  and  P_8 
REMARK    3  A    between atoms: N_6  and  C_11 
REMARK    4  A    between atoms: N_7  and  C_15 
REMARK       I    between atoms: N_7  and  C_24 
REMARK    5  A    between atoms: P_8  and  C_23 
REMARK    6  A    between atoms: C_11  and  C_14 
REMARK    7  A    between atoms: C_15  and  C_18 
REMARK    8  A    between atoms: C_15  and  C_23 
REMARK    9  A    between atoms: C_21  and  C_26 
REMARK   10  A    between atoms: C_24  and  C_25 
REMARK   11  A    between atoms: C_29  and  C_32 
ROOT
HETATM    1  O   UNL     1       4.791  15.116  91.328  1.00  0.00     0.000 OA
HETATM    2  N   UNL     1       3.708  13.379  89.350  1.00  0.00     0.000 N 
HETATM    3  C   UNL     1       3.512  13.126  90.784  1.00  0.00     0.000 C 
HETATM    4  C   UNL     1       4.971  14.098  89.133  1.00  0.00     0.000 C 
HETATM    5  C   UNL     1       3.549  14.446  91.552  1.00  0.00     0.000 C 
HETATM    6  C   UNL     1       4.975  15.393  89.939  1.00  0.00     0.000 C 
ENDROOT
BRANCH   2   7
HETATM    7  C   UNL     1       3.686  12.127  88.596  1.00  0.00     0.000 C 
BRANCH   7   8
HETATM    8  C   UNL     1       4.681  11.140  89.105  1.00  0.00     0.000 A 
HETATM    9  C   UNL     1       6.045  11.369  88.921  1.00  0.00     0.000 A 
HETATM   10  C   UNL     1       6.977  10.446  89.395  1.00  0.00     0.000 A 
HETATM   11  C   UNL     1       6.544   9.295  90.054  1.00  0.00     0.000 A 
HETATM   12  C   UNL     1       5.182   9.066  90.238  1.00  0.00     0.000 A 
HETATM   13  C   UNL     1       4.250   9.989  89.764  1.00  0.00     0.000 A 
BRANCH  11  14
HETATM   14  C   UNL     1       7.500   8.349  90.541  1.00  0.00     0.000 C 
HETATM   15  C   UNL     1       8.304   7.555  90.951  1.00  0.00     0.000 C 
BRANCH  15  16
HETATM   16  C   UNL     1       9.260   6.610  91.439  1.00  0.00     0.000 A 
HETATM   17  C   UNL     1      10.094   5.938  90.545  1.00  0.00     0.000 A 
HETATM   18  C   UNL     1      11.028   5.018  91.021  1.00  0.00     0.000 A 
HETATM   19  C   UNL     1      11.108   4.792  92.379  1.00  0.00     0.000 A 
HETATM   20  C   UNL     1      10.295   5.443  93.283  1.00  0.00     0.000 A 
HETATM   21  C   UNL     1       9.361   6.363  92.808  1.00  0.00     0.000 A 
BRANCH  19  22
HETATM   22  C   UNL     1      12.102   3.811  92.886  1.00  0.00     0.000 C 
HETATM   23  O   UNL     1      11.708   2.748  93.360  1.00  0.00     0.000 OA
HETATM   24  N   UNL     1      13.435   4.175  92.758  1.00  0.00     0.000 N 
HETATM   25  HN  UNL     1      13.687   5.059  92.333  1.00  0.00     0.000 HD
BRANCH  24  26
HETATM   26  C   UNL     1      14.516   3.321  93.180  1.00  0.00     0.000 C 
BRANCH  26  27
HETATM   27  C   UNL     1      14.961   2.341  92.086  1.00  0.00     0.000 C 
HETATM   28  C   UNL     1      14.321   0.966  92.239  1.00  0.00     0.000 C 
BRANCH  27  29
HETATM   29  O   UNL     1      14.621   2.871  90.805  1.00  0.00     0.000 OA
HETATM   30  H   UNL     1      14.586   3.839  90.875  1.00  0.00     0.000 HD
ENDBRANCH  27  29
ENDBRANCH  26  27
BRANCH  26  31
HETATM   31  C   UNL     1      15.669   4.214  93.626  1.00  0.00     0.000 C 
HETATM   32  O   UNL     1      15.633   5.441  93.552  1.00  0.00     0.000 OA
BRANCH  31  33
HETATM   33  P   UNL     1      16.745   3.487  94.075  1.00  0.00     0.000 P 
HETATM   34  H   UNL     1      17.306   4.172  95.134  1.00  0.00     0.000 HD
BRANCH  33  35
HETATM   35  O   UNL     1      17.757   3.250  93.133  1.00  0.00     0.000 OA
HETATM   36  H   UNL     1      18.471   3.796  93.503  1.00  0.00     0.000 HD
ENDBRANCH  33  35
ENDBRANCH  31  33
ENDBRANCH  26  31
ENDBRANCH  24  26
ENDBRANCH  19  22
ENDBRANCH  15  16
ENDBRANCH  11  14
ENDBRANCH   7   8
ENDBRANCH   2   7
TORSDOF 11
ENDMDL
MODEL 7
REMARK VINA RESULT:      -4.2      3.612     12.652
REMARK  11 active torsions:
REMARK  status: ('A' for Active; 'I' for Inactive)
REMARK    1  A    between atoms: O_2  and  C_18 
REMARK    2  A    between atoms: O_5  and  P_8 
REMARK    3  A    between atoms: N_6  and  C_11 
REMARK    4  A    between atoms: N_7  and  C_15 
REMARK       I    between atoms: N_7  and  C_24 
REMARK    5  A    between atoms: P_8  and  C_23 
REMARK    6  A    between atoms: C_11  and  C_14 
REMARK    7  A    between atoms: C_15  and  C_18 
REMARK    8  A    between atoms: C_15  and  C_23 
REMARK    9  A    between atoms: C_21  and  C_26 
REMARK   10  A    between atoms: C_24  and  C_25 
REMARK   11  A    between atoms: C_29  and  C_32 
ROOT
HETATM    1  O   UNL     1       4.100  14.605  89.760  1.00  0.00     0.000 OA
HETATM    2  N   UNL     1       2.796  13.580  92.073  1.00  0.00     0.000 N 
HETATM    3  C   UNL     1       4.093  14.267  92.163  1.00  0.00     0.000 C 
HETATM    4  C   UNL     1       2.661  12.929  90.763  1.00  0.00     0.000 C 
HETATM    5  C   UNL     1       4.228  15.268  91.019  1.00  0.00     0.000 C 
HETATM    6  C   UNL     1       2.830  13.961  89.652  1.00  0.00     0.000 C 
ENDROOT
BRANCH   2   7
HETATM    7  C   UNL     1       2.650  12.608  93.155  1.00  0.00     0.000 C 
BRANCH   7   8
HETATM    8  C   UNL     1       3.696  11.547  93.110  1.00  0.00     0.000 A 
HETATM    9  C   UNL     1       3.592  10.504  92.189  1.00  0.00     0.000 A 
HETATM   10  C   UNL     1       4.570   9.510  92.147  1.00  0.00     0.000 A 
HETATM   11  C   UNL     1       5.651   9.560  93.026  1.00  0.00     0.000 A 
HETATM   12  C   UNL     1       5.756  10.601  93.947  1.00  0.00     0.000 A 
HETATM   13  C   UNL     1       4.779  11.595  93.989  1.00  0.00     0.000 A 
BRANCH  11  14
HETATM   14  C   UNL     1       6.655   8.541  92.982  1.00  0.00     0.000 C 
HETATM   15  C   UNL     1       7.498   7.685  92.946  1.00  0.00     0.000 C 
BRANCH  15  16
HETATM   16  C   UNL     1       8.501   6.667  92.903  1.00  0.00     0.000 A 
HETATM   17  C   UNL     1       8.398   5.628  91.977  1.00  0.00     0.000 A 
HETATM   18  C   UNL     1       9.378   4.636  91.934  1.00  0.00     0.000 A 
HETATM   19  C   UNL     1      10.437   4.705  92.815  1.00  0.00     0.000 A 
HETATM   20  C   UNL     1      10.560   5.721  93.739  1.00  0.00     0.000 A 
HETATM   21  C   UNL     1       9.581   6.714  93.784  1.00  0.00     0.000 A 
BRANCH  19  22
HETATM   22  C   UNL     1      11.479   3.647  92.769  1.00  0.00     0.000 C 
HETATM   23  O   UNL     1      11.166   2.512  92.418  1.00  0.00     0.000 OA
HETATM   24  N   UNL     1      12.763   4.043  93.115  1.00  0.00     0.000 N 
HETATM   25  HN  UNL     1      12.952   5.005  93.371  1.00  0.00     0.000 HD
BRANCH  24  26
HETATM   26  C   UNL     1      13.885   3.139  93.096  1.00  0.00     0.000 C 
BRANCH  26  27
HETATM   27  C   UNL     1      14.227   2.646  91.684  1.00  0.00     0.000 C 
HETATM   28  C   UNL     1      14.342   3.787  90.679  1.00  0.00     0.000 C 
BRANCH  27  29
HETATM   29  O   UNL     1      15.460   1.929  91.714  1.00  0.00     0.000 OA
HETATM   30  H   UNL     1      15.578   1.562  92.607  1.00  0.00     0.000 HD
ENDBRANCH  27  29
ENDBRANCH  26  27
BRANCH  26  31
HETATM   31  C   UNL     1      15.071   3.855  93.735  1.00  0.00     0.000 C 
HETATM   32  O   UNL     1      15.133   5.078  93.848  1.00  0.00     0.000 OA
BRANCH  31  33
HETATM   33  P   UNL     1      16.057   2.980  94.124  1.00  0.00     0.000 P 
HETATM   34  H   UNL     1      16.294   3.182  95.469  1.00  0.00     0.000 HD
BRANCH  33  35
HETATM   35  O   UNL     1      17.280   3.100  93.449  1.00  0.00     0.000 OA
HETATM   36  H   UNL     1      17.501   4.025  93.653  1.00  0.00     0.000 HD
ENDBRANCH  33  35
ENDBRANCH  31  33
ENDBRANCH  26  31
ENDBRANCH  24  26
ENDBRANCH  19  22
ENDBRANCH  15  16
ENDBRANCH  11  14
ENDBRANCH   7   8
ENDBRANCH   2   7
TORSDOF 11
ENDMDL
MODEL 8
REMARK VINA RESULT:      -3.9      3.207     12.796
REMARK  11 active torsions:
REMARK  status: ('A' for Active; 'I' for Inactive)
REMARK    1  A    between atoms: O_2  and  C_18 
REMARK    2  A    between atoms: O_5  and  P_8 
REMARK    3  A    between atoms: N_6  and  C_11 
REMARK    4  A    between atoms: N_7  and  C_15 
REMARK       I    between atoms: N_7  and  C_24 
REMARK    5  A    between atoms: P_8  and  C_23 
REMARK    6  A    between atoms: C_11  and  C_14 
REMARK    7  A    between atoms: C_15  and  C_18 
REMARK    8  A    between atoms: C_15  and  C_23 
REMARK    9  A    between atoms: C_21  and  C_26 
REMARK   10  A    between atoms: C_24  and  C_25 
REMARK   11  A    between atoms: C_29  and  C_32 
ROOT
HETATM    1  O   UNL     1       2.922  14.772  90.258  1.00  0.00     0.000 OA
HETATM    2  N   UNL     1       3.395  11.990  90.631  1.00  0.00     0.000 N 
HETATM    3  C   UNL     1       3.392  12.596  89.292  1.00  0.00     0.000 C 
HETATM    4  C   UNL     1       2.510  12.747  91.528  1.00  0.00     0.000 C 
HETATM    5  C   UNL     1       3.805  14.063  89.388  1.00  0.00     0.000 C 
HETATM    6  C   UNL     1       2.943  14.209  91.570  1.00  0.00     0.000 C 
ENDROOT
BRANCH   2   7
HETATM    7  C   UNL     1       2.991  10.587  90.565  1.00  0.00     0.000 C 
BRANCH   7   8
HETATM    8  C   UNL     1       4.139   9.656  90.763  1.00  0.00     0.000 A 
HETATM    9  C   UNL     1       4.307   9.008  91.987  1.00  0.00     0.000 A 
HETATM   10  C   UNL     1       5.382   8.139  92.174  1.00  0.00     0.000 A 
HETATM   11  C   UNL     1       6.285   7.916  91.135  1.00  0.00     0.000 A 
HETATM   12  C   UNL     1       6.118   8.562  89.912  1.00  0.00     0.000 A 
HETATM   13  C   UNL     1       5.044   9.432  89.726  1.00  0.00     0.000 A 
BRANCH  11  14
HETATM   14  C   UNL     1       7.386   7.022  91.326  1.00  0.00     0.000 C 
HETATM   15  C   UNL     1       8.312   6.272  91.487  1.00  0.00     0.000 C 
BRANCH  15  16
HETATM   16  C   UNL     1       9.413   5.380  91.678  1.00  0.00     0.000 A 
HETATM   17  C   UNL     1      10.204   5.485  92.822  1.00  0.00     0.000 A 
HETATM   18  C   UNL     1      11.275   4.612  93.010  1.00  0.00     0.000 A 
HETATM   19  C   UNL     1      11.532   3.655  92.051  1.00  0.00     0.000 A 
HETATM   20  C   UNL     1      10.766   3.531  90.911  1.00  0.00     0.000 A 
HETATM   21  C   UNL     1       9.693   4.403  90.722  1.00  0.00     0.000 A 
BRANCH  19  22
HETATM   22  C   UNL     1      12.675   2.727  92.250  1.00  0.00     0.000 C 
HETATM   23  O   UNL     1      12.522   1.529  92.024  1.00  0.00     0.000 OA
HETATM   24  N   UNL     1      13.865   3.309  92.665  1.00  0.00     0.000 N 
HETATM   25  HN  UNL     1      13.924   4.310  92.808  1.00  0.00     0.000 HD
BRANCH  24  26
HETATM   26  C   UNL     1      15.069   2.546  92.878  1.00  0.00     0.000 C 
BRANCH  26  27
HETATM   27  C   UNL     1      15.757   2.144  91.568  1.00  0.00     0.000 C 
HETATM   28  C   UNL     1      15.340   3.025  90.395  1.00  0.00     0.000 C 
BRANCH  27  29
HETATM   29  O   UNL     1      17.173   2.224  91.728  1.00  0.00     0.000 OA
HETATM   30  H   UNL     1      17.506   2.929  91.147  1.00  0.00     0.000 HD
ENDBRANCH  27  29
ENDBRANCH  26  27
BRANCH  26  31
HETATM   31  C   UNL     1      15.996   3.376  93.760  1.00  0.00     0.000 C 
HETATM   32  O   UNL     1      17.103   2.982  94.124  1.00  0.00     0.000 OA
BRANCH  31  33
HETATM   33  P   UNL     1      15.434   4.576  94.120  1.00  0.00     0.000 P 
HETATM   34  H   UNL     1      14.352   4.802  93.292  1.00  0.00     0.000 HD
BRANCH  33  35
HETATM   35  O   UNL     1      16.277   5.694  94.039  1.00  0.00     0.000 OA
HETATM   36  H   UNL     1      15.635   6.378  93.784  1.00  0.00     0.000 HD
ENDBRANCH  33  35
ENDBRANCH  31  33
ENDBRANCH  26  31
ENDBRANCH  24  26
ENDBRANCH  19  22
ENDBRANCH  15  16
ENDBRANCH  11  14
ENDBRANCH   7   8
ENDBRANCH   2   7
TORSDOF 11
ENDMDL
