MODEL 1
REMARK VINA RESULT:      -6.1      0.000      0.000
REMARK  10 active torsions:
REMARK  status: ('A' for Active; 'I' for Inactive)
REMARK    1  A    between atoms: O_2  and  C_18 
REMARK    2  A    between atoms: O_5  and  N_8 
REMARK    3  A    between atoms: N_6  and  C_11 
REMARK    4  A    between atoms: N_7  and  C_15 
REMARK       I    between atoms: N_7  and  C_24 
REMARK       I    between atoms: N_8  and  C_23 
REMARK    5  A    between atoms: C_11  and  C_14 
REMARK    6  A    between atoms: C_15  and  C_18 
REMARK    7  A    between atoms: C_15  and  C_23 
REMARK    8  A    between atoms: C_21  and  C_26 
REMARK    9  A    between atoms: C_24  and  C_25 
REMARK   10  A    between atoms: C_29  and  C_32 
ROOT
HETATM    1  O   UNK     0      16.531   2.942  93.930  0.00  0.00    -0.388 OA
HETATM    2  N   UNK     0      13.920   3.133  92.813  0.00  0.00     0.096 N 
HETATM    3  C   UNK     0      14.603   1.839  92.952  0.00  0.00     0.299 C 
HETATM    4  C   UNK     0      14.907   4.208  92.647  0.00  0.00     0.299 C 
HETATM    5  C   UNK     0      15.580   1.893  94.124  0.00  0.00     0.198 C 
HETATM    6  C   UNK     0      15.877   4.207  93.825  0.00  0.00     0.198 C 
ENDROOT
BRANCH   2   7
HETATM    7  C   UNK     0      12.987   3.107  91.688  0.00  0.00     0.311 C 
BRANCH   7   8
HETATM    8  C   UNK     0      11.844   4.045  91.877  0.00  0.00    -0.030 A 
HETATM    9  C   UNK     0      11.394   4.344  93.163  0.00  0.00     0.010 A 
HETATM   10  C   UNK     0      10.323   5.220  93.342  0.00  0.00     0.021 A 
HETATM   11  C   UNK     0       9.704   5.797  92.233  0.00  0.00     0.018 A 
HETATM   12  C   UNK     0      10.153   5.500  90.948  0.00  0.00     0.021 A 
HETATM   13  C   UNK     0      11.223   4.624  90.770  0.00  0.00     0.010 A 
BRANCH  11  14
HETATM   14  C   UNK     0       8.607   6.697  92.416  0.00  0.00    -0.061 C 
HETATM   15  C   UNK     0       7.685   7.454  92.570  0.00  0.00    -0.061 C 
BRANCH  15  16
HETATM   16  C   UNK     0       6.589   8.351  92.753  0.00  0.00     0.018 A 
HETATM   17  C   UNK     0       5.644   8.513  91.739  0.00  0.00     0.022 A 
HETATM   18  C   UNK     0       4.573   9.388  91.918  0.00  0.00     0.018 A 
HETATM   19  C   UNK     0       4.468  10.080  93.106  0.00  0.00     0.032 A 
HETATM   20  C   UNK     0       5.388   9.938  94.124  0.00  0.00     0.018 A 
HETATM   21  C   UNK     0       6.460   9.064  93.945  0.00  0.00     0.022 A 
BRANCH  19  22
HETATM   22  C   UNK     0       3.327  11.013  93.295  0.00  0.00     0.252 C 
HETATM   23  O   UNK     0       2.315  10.615  93.866  0.00  0.00    -0.268 OA
HETATM   24  N   UNK     0       3.513  12.304  92.820  0.00  0.00    -0.341 N 
HETATM   25  H   UNK     0       4.387  12.569  92.381  0.00  0.00     0.163 HD
BRANCH  24  26
HETATM   26  C   UNK     0       2.509  13.330  92.951  0.00  0.00     0.207 C 
BRANCH  26  27
HETATM   27  C   UNK     0       2.951  14.480  93.865  0.00  0.00     0.146 C 
HETATM   28  C   UNK     0       4.370  14.951  93.566  0.00  0.00     0.042 C 
BRANCH  27  29
HETATM   29  O   UNK     0       2.055  15.581  93.714  0.00  0.00    -0.393 OA
HETATM   30  H   UNK     0       2.495  16.380  94.049  0.00  0.00     0.210 HD
ENDBRANCH  27  29
ENDBRANCH  26  27
BRANCH  26  31
HETATM   31  C   UNK     0       2.172  13.833  91.551  0.00  0.00     0.266 C 
HETATM   32  O   UNK     0       1.223  14.579  91.318  0.00  0.00    -0.269 OA
HETATM   33  N   UNK     0       3.022  13.325  90.598  0.00  0.00    -0.236 N 
HETATM   34  H   UNK     0       3.755  12.640  90.742  0.00  0.00     0.197 HD
BRANCH  33  35
HETATM   35  O   UNK     0       2.756  13.709  89.276  0.00  0.00    -0.287 OA
HETATM   36  H   UNK     0       2.012  14.319  89.418  0.00  0.00     0.244 HD
ENDBRANCH  33  35
ENDBRANCH  26  31
ENDBRANCH  24  26
ENDBRANCH  19  22
ENDBRANCH  15  16
ENDBRANCH  11  14
ENDBRANCH   7   8
ENDBRANCH   2   7
TORSDOF 10
ENDMDL
