MODEL 1
REMARK VINA RESULT:      -6.9      0.000      0.000
REMARK  11 active torsions:
REMARK  status: ('A' for Active; 'I' for Inactive)
REMARK    1  A    between atoms: O_2  and  C_18 
REMARK    2  A    between atoms: O_5  and  P_8 
REMARK    3  A    between atoms: N_6  and  C_11 
REMARK    4  A    between atoms: N_7  and  C_15 
REMARK       I    between atoms: N_7  and  C_24 
REMARK    5  A    between atoms: P_8  and  C_23 
REMARK    6  A    between atoms: C_11  and  C_14 
REMARK    7  A    between atoms: C_15  and  C_18 
REMARK    8  A    between atoms: C_15  and  C_23 
REMARK    9  A    between atoms: C_21  and  C_26 
REMARK   10  A    between atoms: C_24  and  C_25 
REMARK   11  A    between atoms: C_29  and  C_32 
ROOT
HETATM    1  O   UNL     1      16.217   4.186  94.123  1.00  0.00     0.000 OA
HETATM    2  N   UNL     1      14.484   2.579  92.538  1.00  0.00     0.000 N 
HETATM    3  C   UNL     1      14.359   4.043  92.569  1.00  0.00     0.000 C 
HETATM    4  C   UNL     1      15.031   2.093  93.812  1.00  0.00     0.000 C 
HETATM    5  C   UNL     1      15.716   4.671  92.876  1.00  0.00     0.000 C 
HETATM    6  C   UNL     1      16.371   2.767  94.091  1.00  0.00     0.000 C 
ENDROOT
BRANCH   2   7
HETATM    7  C   UNL     1      13.192   1.956  92.255  1.00  0.00     0.000 C 
BRANCH   7   8
HETATM    8  C   UNL     1      12.131   2.959  91.955  1.00  0.00     0.000 A 
HETATM    9  C   UNL     1      11.473   3.610  92.999  1.00  0.00     0.000 A 
HETATM   10  C   UNL     1      10.478   4.547  92.719  1.00  0.00     0.000 A 
HETATM   11  C   UNL     1      10.144   4.834  91.396  1.00  0.00     0.000 A 
HETATM   12  C   UNL     1      10.800   4.184  90.353  1.00  0.00     0.000 A 
HETATM   13  C   UNL     1      11.794   3.246  90.632  1.00  0.00     0.000 A 
BRANCH  11  14
HETATM   14  C   UNL     1       9.125   5.796  91.110  1.00  0.00     0.000 C 
HETATM   15  C   UNL     1       8.269   6.605  90.868  1.00  0.00     0.000 C 
BRANCH  15  16
HETATM   16  C   UNL     1       7.250   7.567  90.581  1.00  0.00     0.000 A 
HETATM   17  C   UNL     1       6.986   8.593  91.489  1.00  0.00     0.000 A 
HETATM   18  C   UNL     1       5.994   9.533  91.207  1.00  0.00     0.000 A 
HETATM   19  C   UNL     1       5.290   9.426  90.026  1.00  0.00     0.000 A 
HETATM   20  C   UNL     1       5.532   8.421  89.113  1.00  0.00     0.000 A 
HETATM   21  C   UNL     1       6.524   7.480  89.393  1.00  0.00     0.000 A 
BRANCH  19  22
HETATM   22  C   UNL     1       4.232  10.426  89.728  1.00  0.00     0.000 C 
HETATM   23  O   UNL     1       3.187  10.054  89.200  1.00  0.00     0.000 OA
HETATM   24  N   UNL     1       4.509  11.733  90.102  1.00  0.00     0.000 N 
HETATM   25  HN  UNL     1       5.384  11.962  90.558  1.00  0.00     0.000 HD
BRANCH  24  26
HETATM   26  C   UNL     1       3.574  12.811  89.903  1.00  0.00     0.000 C 
BRANCH  26  27
HETATM   27  C   UNL     1       2.803  13.172  91.178  1.00  0.00     0.000 C 
HETATM   28  C   UNL     1       3.726  13.535  92.336  1.00  0.00     0.000 C 
BRANCH  27  29
HETATM   29  O   UNL     1       1.935  14.275  90.916  1.00  0.00     0.000 OA
HETATM   30  H   UNL     1       2.482  15.061  90.751  1.00  0.00     0.000 HD
ENDBRANCH  27  29
ENDBRANCH  26  27
BRANCH  26  31
HETATM   31  C   UNL     1       4.351  14.009  89.367  1.00  0.00     0.000 C 
HETATM   32  O   UNL     1       4.234  15.143  89.826  1.00  0.00     0.000 OA
BRANCH  31  33
HETATM   33  P   UNL     1       5.152  13.673  88.302  1.00  0.00     0.000 P 
HETATM   34  H   UNL     1       5.629  14.843  87.746  1.00  0.00     0.000 HD
BRANCH  33  35
HETATM   35  O   UNL     1       4.535  12.934  87.284  1.00  0.00     0.000 OA
HETATM   36  H   UNL     1       5.279  12.375  86.999  1.00  0.00     0.000 HD
ENDBRANCH  33  35
ENDBRANCH  31  33
ENDBRANCH  26  31
ENDBRANCH  24  26
ENDBRANCH  19  22
ENDBRANCH  15  16
ENDBRANCH  11  14
ENDBRANCH   7   8
ENDBRANCH   2   7
TORSDOF 11
ENDMDL
MODEL 2
REMARK VINA RESULT:      -6.6      1.918      2.883
REMARK  11 active torsions:
REMARK  status: ('A' for Active; 'I' for Inactive)
REMARK    1  A    between atoms: O_2  and  C_18 
REMARK    2  A    between atoms: O_5  and  P_8 
REMARK    3  A    between atoms: N_6  and  C_11 
REMARK    4  A    between atoms: N_7  and  C_15 
REMARK       I    between atoms: N_7  and  C_24 
REMARK    5  A    between atoms: P_8  and  C_23 
REMARK    6  A    between atoms: C_11  and  C_14 
REMARK    7  A    between atoms: C_15  and  C_18 
REMARK    8  A    between atoms: C_15  and  C_23 
REMARK    9  A    between atoms: C_21  and  C_26 
REMARK   10  A    between atoms: C_24  and  C_25 
REMARK   11  A    between atoms: C_29  and  C_32 
ROOT
HETATM    1  O   UNL     1      16.487   4.057  94.122  1.00  0.00     0.000 OA
HETATM    2  N   UNL     1      14.424   2.734  92.674  1.00  0.00     0.000 N 
HETATM    3  C   UNL     1      14.540   4.199  92.681  1.00  0.00     0.000 C 
HETATM    4  C   UNL     1      14.962   2.181  93.925  1.00  0.00     0.000 C 
HETATM    5  C   UNL     1      15.997   4.602  92.895  1.00  0.00     0.000 C 
HETATM    6  C   UNL     1      16.407   2.631  94.111  1.00  0.00     0.000 C 
ENDROOT
BRANCH   2   7
HETATM    7  C   UNL     1      13.034   2.325  92.480  1.00  0.00     0.000 C 
BRANCH   7   8
HETATM    8  C   UNL     1      12.091   3.479  92.528  1.00  0.00     0.000 A 
HETATM    9  C   UNL     1      11.528   3.967  91.348  1.00  0.00     0.000 A 
HETATM   10  C   UNL     1      10.647   5.048  91.391  1.00  0.00     0.000 A 
HETATM   11  C   UNL     1      10.328   5.638  92.614  1.00  0.00     0.000 A 
HETATM   12  C   UNL     1      10.890   5.151  93.793  1.00  0.00     0.000 A 
HETATM   13  C   UNL     1      11.771   4.071  93.750  1.00  0.00     0.000 A 
BRANCH  11  14
HETATM   14  C   UNL     1       9.423   6.745  92.658  1.00  0.00     0.000 C 
HETATM   15  C   UNL     1       8.662   7.675  92.696  1.00  0.00     0.000 C 
BRANCH  15  16
HETATM   16  C   UNL     1       7.758   8.782  92.741  1.00  0.00     0.000 A 
HETATM   17  C   UNL     1       7.707   9.594  93.874  1.00  0.00     0.000 A 
HETATM   18  C   UNL     1       6.827  10.675  93.917  1.00  0.00     0.000 A 
HETATM   19  C   UNL     1       6.019  10.920  92.827  1.00  0.00     0.000 A 
HETATM   20  C   UNL     1       6.050  10.132  91.695  1.00  0.00     0.000 A 
HETATM   21  C   UNL     1       6.930   9.051  91.651  1.00  0.00     0.000 A 
BRANCH  19  22
HETATM   22  C   UNL     1       5.080  12.071  92.873  1.00  0.00     0.000 C 
HETATM   23  O   UNL     1       4.872  12.632  93.946  1.00  0.00     0.000 OA
HETATM   24  N   UNL     1       4.516  12.445  91.661  1.00  0.00     0.000 N 
HETATM   25  HN  UNL     1       4.754  11.950  90.810  1.00  0.00     0.000 HD
BRANCH  24  26
HETATM   26  C   UNL     1       3.606  13.556  91.540  1.00  0.00     0.000 C 
BRANCH  26  27
HETATM   27  C   UNL     1       3.604  14.170  90.134  1.00  0.00     0.000 C 
HETATM   28  C   UNL     1       5.012  14.371  89.583  1.00  0.00     0.000 C 
BRANCH  27  29
HETATM   29  O   UNL     1       2.874  13.325  89.245  1.00  0.00     0.000 OA
HETATM   30  H   UNL     1       3.082  13.591  88.333  1.00  0.00     0.000 HD
ENDBRANCH  27  29
ENDBRANCH  26  27
BRANCH  26  31
HETATM   31  C   UNL     1       2.216  13.065  91.932  1.00  0.00     0.000 C 
HETATM   32  O   UNL     1       1.725  12.025  91.495  1.00  0.00     0.000 OA
BRANCH  31  33
HETATM   33  P   UNL     1       1.581  13.933  92.786  1.00  0.00     0.000 P 
HETATM   34  H   UNL     1       0.328  14.193  92.270  1.00  0.00     0.000 HD
BRANCH  33  35
HETATM   35  O   UNL     1       2.223  15.161  92.996  1.00  0.00     0.000 OA
HETATM   36  H   UNL     1       3.093  14.972  92.607  1.00  0.00     0.000 HD
ENDBRANCH  33  35
ENDBRANCH  31  33
ENDBRANCH  26  31
ENDBRANCH  24  26
ENDBRANCH  19  22
ENDBRANCH  15  16
ENDBRANCH  11  14
ENDBRANCH   7   8
ENDBRANCH   2   7
TORSDOF 11
ENDMDL
MODEL 3
REMARK VINA RESULT:      -4.9      3.531     12.484
REMARK  11 active torsions:
REMARK  status: ('A' for Active; 'I' for Inactive)
REMARK    1  A    between atoms: O_2  and  C_18 
REMARK    2  A    between atoms: O_5  and  P_8 
REMARK    3  A    between atoms: N_6  and  C_11 
REMARK    4  A    between atoms: N_7  and  C_15 
REMARK       I    between atoms: N_7  and  C_24 
REMARK    5  A    between atoms: P_8  and  C_23 
REMARK    6  A    between atoms: C_11  and  C_14 
REMARK    7  A    between atoms: C_15  and  C_18 
REMARK    8  A    between atoms: C_15  and  C_23 
REMARK    9  A    between atoms: C_21  and  C_26 
REMARK   10  A    between atoms: C_24  and  C_25 
REMARK   11  A    between atoms: C_29  and  C_32 
ROOT
HETATM    1  O   UNL     1       4.663  14.661  89.758  1.00  0.00     0.000 OA
HETATM    2  N   UNL     1       3.122  13.504  91.853  1.00  0.00     0.000 N 
HETATM    3  C   UNL     1       4.381  14.210  92.126  1.00  0.00     0.000 C 
HETATM    4  C   UNL     1       3.158  12.912  90.508  1.00  0.00     0.000 C 
HETATM    5  C   UNL     1       4.625  15.267  91.052  1.00  0.00     0.000 C 
HETATM    6  C   UNL     1       3.431  13.998  89.472  1.00  0.00     0.000 C 
ENDROOT
BRANCH   2   7
HETATM    7  C   UNL     1       2.873  12.479  92.865  1.00  0.00     0.000 C 
BRANCH   7   8
HETATM    8  C   UNL     1       3.921  11.419  92.869  1.00  0.00     0.000 A 
HETATM    9  C   UNL     1       5.009  11.519  93.737  1.00  0.00     0.000 A 
HETATM   10  C   UNL     1       5.992  10.529  93.740  1.00  0.00     0.000 A 
HETATM   11  C   UNL     1       5.884   9.438  92.878  1.00  0.00     0.000 A 
HETATM   12  C   UNL     1       4.798   9.337  92.011  1.00  0.00     0.000 A 
HETATM   13  C   UNL     1       3.816  10.327  92.007  1.00  0.00     0.000 A 
BRANCH  11  14
HETATM   14  C   UNL     1       6.891   8.422  92.883  1.00  0.00     0.000 C 
HETATM   15  C   UNL     1       7.737   7.568  92.887  1.00  0.00     0.000 C 
BRANCH  15  16
HETATM   16  C   UNL     1       8.744   6.552  92.893  1.00  0.00     0.000 A 
HETATM   17  C   UNL     1       8.871   5.692  91.802  1.00  0.00     0.000 A 
HETATM   18  C   UNL     1       9.855   4.703  91.807  1.00  0.00     0.000 A 
HETATM   19  C   UNL     1      10.689   4.597  92.901  1.00  0.00     0.000 A 
HETATM   20  C   UNL     1      10.583   5.435  93.991  1.00  0.00     0.000 A 
HETATM   21  C   UNL     1       9.599   6.424  93.987  1.00  0.00     0.000 A 
BRANCH  19  22
HETATM   22  C   UNL     1      11.735   3.542  92.906  1.00  0.00     0.000 C 
HETATM   23  O   UNL     1      11.400   2.364  92.805  1.00  0.00     0.000 OA
HETATM   24  N   UNL     1      13.046   3.987  93.004  1.00  0.00     0.000 N 
HETATM   25  HN  UNL     1      13.249   4.978  93.059  1.00  0.00     0.000 HD
BRANCH  24  26
HETATM   26  C   UNL     1      14.172   3.088  92.998  1.00  0.00     0.000 C 
BRANCH  26  27
HETATM   27  C   UNL     1      14.604   2.687  91.582  1.00  0.00     0.000 C 
HETATM   28  C   UNL     1      14.302   3.769  90.551  1.00  0.00     0.000 C 
BRANCH  27  29
HETATM   29  O   UNL     1      16.005   2.414  91.569  1.00  0.00     0.000 OA
HETATM   30  H   UNL     1      16.147   1.571  91.107  1.00  0.00     0.000 HD
ENDBRANCH  27  29
ENDBRANCH  26  27
BRANCH  26  31
HETATM   31  C   UNL     1      15.311   3.764  93.754  1.00  0.00     0.000 C 
HETATM   32  O   UNL     1      15.348   4.974  93.970  1.00  0.00     0.000 OA
BRANCH  31  33
HETATM   33  P   UNL     1      16.290   2.873  94.123  1.00  0.00     0.000 P 
HETATM   34  H   UNL     1      16.463   2.975  95.488  1.00  0.00     0.000 HD
BRANCH  33  35
HETATM   35  O   UNL     1      17.541   3.055  93.516  1.00  0.00     0.000 OA
HETATM   36  H   UNL     1      17.955   3.664  94.151  1.00  0.00     0.000 HD
ENDBRANCH  33  35
ENDBRANCH  31  33
ENDBRANCH  26  31
ENDBRANCH  24  26
ENDBRANCH  19  22
ENDBRANCH  15  16
ENDBRANCH  11  14
ENDBRANCH   7   8
ENDBRANCH   2   7
TORSDOF 11
ENDMDL
MODEL 4
REMARK VINA RESULT:      -4.3      3.684     12.506
REMARK  11 active torsions:
REMARK  status: ('A' for Active; 'I' for Inactive)
REMARK    1  A    between atoms: O_2  and  C_18 
REMARK    2  A    between atoms: O_5  and  P_8 
REMARK    3  A    between atoms: N_6  and  C_11 
REMARK    4  A    between atoms: N_7  and  C_15 
REMARK       I    between atoms: N_7  and  C_24 
REMARK    5  A    between atoms: P_8  and  C_23 
REMARK    6  A    between atoms: C_11  and  C_14 
REMARK    7  A    between atoms: C_15  and  C_18 
REMARK    8  A    between atoms: C_15  and  C_23 
REMARK    9  A    between atoms: C_21  and  C_26 
REMARK   10  A    between atoms: C_24  and  C_25 
REMARK   11  A    between atoms: C_29  and  C_32 
ROOT
HETATM    1  O   UNL     1       2.637  13.761  93.619  1.00  0.00     0.000 OA
HETATM    2  N   UNL     1       2.983  13.180  90.854  1.00  0.00     0.000 N 
HETATM    3  C   UNL     1       2.028  12.431  91.683  1.00  0.00     0.000 C 
HETATM    4  C   UNL     1       4.096  13.665  91.683  1.00  0.00     0.000 C 
HETATM    5  C   UNL     1       1.536  13.312  92.828  1.00  0.00     0.000 C 
HETATM    6  C   UNL     1       3.555  14.516  92.827  1.00  0.00     0.000 C 
ENDROOT
BRANCH   2   7
HETATM    7  C   UNL     1       3.477  12.351  89.756  1.00  0.00     0.000 C 
BRANCH   7   8
HETATM    8  C   UNL     1       4.478  11.343  90.210  1.00  0.00     0.000 A 
HETATM    9  C   UNL     1       5.811  11.715  90.383  1.00  0.00     0.000 A 
HETATM   10  C   UNL     1       6.749  10.773  90.805  1.00  0.00     0.000 A 
HETATM   11  C   UNL     1       6.352   9.460  91.057  1.00  0.00     0.000 A 
HETATM   12  C   UNL     1       5.020   9.088  90.885  1.00  0.00     0.000 A 
HETATM   13  C   UNL     1       4.082  10.029  90.462  1.00  0.00     0.000 A 
BRANCH  11  14
HETATM   14  C   UNL     1       7.313   8.494  91.493  1.00  0.00     0.000 C 
HETATM   15  C   UNL     1       8.121   7.683  91.860  1.00  0.00     0.000 C 
BRANCH  15  16
HETATM   16  C   UNL     1       9.081   6.717  92.296  1.00  0.00     0.000 A 
HETATM   17  C   UNL     1       9.530   6.729  93.617  1.00  0.00     0.000 A 
HETATM   18  C   UNL     1      10.464   5.785  94.043  1.00  0.00     0.000 A 
HETATM   19  C   UNL     1      10.928   4.851  93.140  1.00  0.00     0.000 A 
HETATM   20  C   UNL     1      10.500   4.819  91.829  1.00  0.00     0.000 A 
HETATM   21  C   UNL     1       9.566   5.763  91.402  1.00  0.00     0.000 A 
BRANCH  19  22
HETATM   22  C   UNL     1      11.925   3.847  93.593  1.00  0.00     0.000 C 
HETATM   23  O   UNL     1      11.534   2.810  94.123  1.00  0.00     0.000 OA
HETATM   24  N   UNL     1      13.256   4.161  93.353  1.00  0.00     0.000 N 
HETATM   25  HN  UNL     1      13.503   5.026  92.888  1.00  0.00     0.000 HD
BRANCH  24  26
HETATM   26  C   UNL     1      14.337   3.279  93.713  1.00  0.00     0.000 C 
BRANCH  26  27
HETATM   27  C   UNL     1      14.480   2.093  92.750  1.00  0.00     0.000 C 
HETATM   28  C   UNL     1      14.760   0.782  93.477  1.00  0.00     0.000 C 
BRANCH  27  29
HETATM   29  O   UNL     1      13.284   1.952  91.984  1.00  0.00     0.000 OA
HETATM   30  H   UNL     1      13.254   1.048  91.630  1.00  0.00     0.000 HD
ENDBRANCH  27  29
ENDBRANCH  26  27
BRANCH  26  31
HETATM   31  C   UNL     1      15.616   4.107  93.766  1.00  0.00     0.000 C 
HETATM   32  O   UNL     1      15.651   5.304  93.483  1.00  0.00     0.000 OA
BRANCH  31  33
HETATM   33  P   UNL     1      16.708   3.355  94.124  1.00  0.00     0.000 P 
HETATM   34  H   UNL     1      17.278   3.938  95.237  1.00  0.00     0.000 HD
BRANCH  33  35
HETATM   35  O   UNL     1      17.707   3.225  93.148  1.00  0.00     0.000 OA
HETATM   36  H   UNL     1      18.371   2.717  93.645  1.00  0.00     0.000 HD
ENDBRANCH  33  35
ENDBRANCH  31  33
ENDBRANCH  26  31
ENDBRANCH  24  26
ENDBRANCH  19  22
ENDBRANCH  15  16
ENDBRANCH  11  14
ENDBRANCH   7   8
ENDBRANCH   2   7
TORSDOF 11
ENDMDL
MODEL 5
REMARK VINA RESULT:      -4.1      3.249     12.638
REMARK  11 active torsions:
REMARK  status: ('A' for Active; 'I' for Inactive)
REMARK    1  A    between atoms: O_2  and  C_18 
REMARK    2  A    between atoms: O_5  and  P_8 
REMARK    3  A    between atoms: N_6  and  C_11 
REMARK    4  A    between atoms: N_7  and  C_15 
REMARK       I    between atoms: N_7  and  C_24 
REMARK    5  A    between atoms: P_8  and  C_23 
REMARK    6  A    between atoms: C_11  and  C_14 
REMARK    7  A    between atoms: C_15  and  C_18 
REMARK    8  A    between atoms: C_15  and  C_23 
REMARK    9  A    between atoms: C_21  and  C_26 
REMARK   10  A    between atoms: C_24  and  C_25 
REMARK   11  A    between atoms: C_29  and  C_32 
ROOT
HETATM    1  O   UNL     1       2.584  14.101  89.692  1.00  0.00     0.000 OA
HETATM    2  N   UNL     1       3.442  12.319  91.738  1.00  0.00     0.000 N 
HETATM    3  C   UNL     1       3.292  11.874  90.346  1.00  0.00     0.000 C 
HETATM    4  C   UNL     1       2.510  13.420  92.019  1.00  0.00     0.000 C 
HETATM    5  C   UNL     1       3.509  13.053  89.400  1.00  0.00     0.000 C 
HETATM    6  C   UNL     1       2.745  14.561  91.034  1.00  0.00     0.000 C 
ENDROOT
BRANCH   2   7
HETATM    7  C   UNL     1       3.228  11.207  92.663  1.00  0.00     0.000 C 
BRANCH   7   8
HETATM    8  C   UNL     1       4.347  10.223  92.638  1.00  0.00     0.000 A 
HETATM    9  C   UNL     1       4.480   9.346  91.561  1.00  0.00     0.000 A 
HETATM   10  C   UNL     1       5.526   8.424  91.538  1.00  0.00     0.000 A 
HETATM   11  C   UNL     1       6.440   8.381  92.590  1.00  0.00     0.000 A 
HETATM   12  C   UNL     1       6.309   9.257  93.666  1.00  0.00     0.000 A 
HETATM   13  C   UNL     1       5.262  10.179  93.690  1.00  0.00     0.000 A 
BRANCH  11  14
HETATM   14  C   UNL     1       7.514   7.436  92.565  1.00  0.00     0.000 C 
HETATM   15  C   UNL     1       8.417   6.643  92.545  1.00  0.00     0.000 C 
BRANCH  15  16
HETATM   16  C   UNL     1       9.490   5.698  92.521  1.00  0.00     0.000 A 
HETATM   17  C   UNL     1      10.495   5.761  93.487  1.00  0.00     0.000 A 
HETATM   18  C   UNL     1      11.540   4.838  93.465  1.00  0.00     0.000 A 
HETATM   19  C   UNL     1      11.558   3.874  92.479  1.00  0.00     0.000 A 
HETATM   20  C   UNL     1      10.577   3.791  91.512  1.00  0.00     0.000 A 
HETATM   21  C   UNL     1       9.531   4.714  91.533  1.00  0.00     0.000 A 
BRANCH  19  22
HETATM   22  C   UNL     1      12.673   2.892  92.454  1.00  0.00     0.000 C 
HETATM   23  O   UNL     1      12.478   1.775  91.981  1.00  0.00     0.000 OA
HETATM   24  N   UNL     1      13.886   3.337  92.961  1.00  0.00     0.000 N 
HETATM   25  HN  UNL     1      13.979   4.283  93.313  1.00  0.00     0.000 HD
BRANCH  24  26
HETATM   26  C   UNL     1      15.067   2.511  92.984  1.00  0.00     0.000 C 
BRANCH  26  27
HETATM   27  C   UNL     1      15.557   2.138  91.580  1.00  0.00     0.000 C 
HETATM   28  C   UNL     1      15.084   3.121  90.515  1.00  0.00     0.000 C 
BRANCH  27  29
HETATM   29  O   UNL     1      16.984   2.095  91.568  1.00  0.00     0.000 OA
HETATM   30  H   UNL     1      17.260   1.188  91.352  1.00  0.00     0.000 HD
ENDBRANCH  27  29
ENDBRANCH  26  27
BRANCH  26  31
HETATM   31  C   UNL     1      16.142   3.258  93.767  1.00  0.00     0.000 C 
HETATM   32  O   UNL     1      17.195   2.734  94.124  1.00  0.00     0.000 OA
BRANCH  31  33
HETATM   33  P   UNL     1      15.774   4.551  94.051  1.00  0.00     0.000 P 
HETATM   34  H   UNL     1      14.397   4.620  93.998  1.00  0.00     0.000 HD
BRANCH  33  35
HETATM   35  O   UNL     1      16.287   5.533  93.192  1.00  0.00     0.000 OA
HETATM   36  H   UNL     1      15.507   5.705  92.638  1.00  0.00     0.000 HD
ENDBRANCH  33  35
ENDBRANCH  31  33
ENDBRANCH  26  31
ENDBRANCH  24  26
ENDBRANCH  19  22
ENDBRANCH  15  16
ENDBRANCH  11  14
ENDBRANCH   7   8
ENDBRANCH   2   7
TORSDOF 11
ENDMDL
MODEL 6
REMARK VINA RESULT:      -4.0      1.419      2.106
REMARK  11 active torsions:
REMARK  status: ('A' for Active; 'I' for Inactive)
REMARK    1  A    between atoms: O_2  and  C_18 
REMARK    2  A    between atoms: O_5  and  P_8 
REMARK    3  A    between atoms: N_6  and  C_11 
REMARK    4  A    between atoms: N_7  and  C_15 
REMARK       I    between atoms: N_7  and  C_24 
REMARK    5  A    between atoms: P_8  and  C_23 
REMARK    6  A    between atoms: C_11  and  C_14 
REMARK    7  A    between atoms: C_15  and  C_18 
REMARK    8  A    between atoms: C_15  and  C_23 
REMARK    9  A    between atoms: C_21  and  C_26 
REMARK   10  A    between atoms: C_24  and  C_25 
REMARK   11  A    between atoms: C_29  and  C_32 
ROOT
HETATM    1  O   UNL     1      16.719   3.929  93.175  1.00  0.00     0.000 OA
HETATM    2  N   UNL     1      14.694   1.969  92.778  1.00  0.00     0.000 N 
HETATM    3  C   UNL     1      14.921   3.047  91.805  1.00  0.00     0.000 C 
HETATM    4  C   UNL     1      15.077   2.416  94.124  1.00  0.00     0.000 C 
HETATM    5  C   UNL     1      16.380   3.492  91.858  1.00  0.00     0.000 C 
HETATM    6  C   UNL     1      16.531   2.877  94.122  1.00  0.00     0.000 C 
ENDROOT
BRANCH   2   7
HETATM    7  C   UNL     1      13.299   1.533  92.752  1.00  0.00     0.000 C 
BRANCH   7   8
HETATM    8  C   UNL     1      12.367   2.635  92.380  1.00  0.00     0.000 A 
HETATM    9  C   UNL     1      11.983   3.575  93.338  1.00  0.00     0.000 A 
HETATM   10  C   UNL     1      11.109   4.606  92.992  1.00  0.00     0.000 A 
HETATM   11  C   UNL     1      10.621   4.697  91.689  1.00  0.00     0.000 A 
HETATM   12  C   UNL     1      11.004   3.760  90.732  1.00  0.00     0.000 A 
HETATM   13  C   UNL     1      11.878   2.728  91.077  1.00  0.00     0.000 A 
BRANCH  11  14
HETATM   14  C   UNL     1       9.727   5.756  91.333  1.00  0.00     0.000 C 
HETATM   15  C   UNL     1       8.975   6.646  91.036  1.00  0.00     0.000 C 
BRANCH  15  16
HETATM   16  C   UNL     1       8.082   7.704  90.681  1.00  0.00     0.000 A 
HETATM   17  C   UNL     1       8.564   9.006  90.545  1.00  0.00     0.000 A 
HETATM   18  C   UNL     1       7.692  10.038  90.196  1.00  0.00     0.000 A 
HETATM   19  C   UNL     1       6.360   9.745  89.990  1.00  0.00     0.000 A 
HETATM   20  C   UNL     1       5.860   8.466  90.118  1.00  0.00     0.000 A 
HETATM   21  C   UNL     1       6.730   7.434  90.468  1.00  0.00     0.000 A 
BRANCH  19  22
HETATM   22  C   UNL     1       5.432  10.845  89.620  1.00  0.00     0.000 C 
HETATM   23  O   UNL     1       4.651  10.682  88.686  1.00  0.00     0.000 OA
HETATM   24  N   UNL     1       5.509  11.992  90.398  1.00  0.00     0.000 N 
HETATM   25  HN  UNL     1       6.162  12.045  91.170  1.00  0.00     0.000 HD
BRANCH  24  26
HETATM   26  C   UNL     1       4.658  13.134  90.179  1.00  0.00     0.000 C 
BRANCH  26  27
HETATM   27  C   UNL     1       4.991  13.883  88.882  1.00  0.00     0.000 C 
HETATM   28  C   UNL     1       5.077  15.392  89.085  1.00  0.00     0.000 C 
BRANCH  27  29
HETATM   29  O   UNL     1       6.237  13.413  88.367  1.00  0.00     0.000 OA
HETATM   30  H   UNL     1       6.541  12.679  88.926  1.00  0.00     0.000 HD
ENDBRANCH  27  29
ENDBRANCH  26  27
BRANCH  26  31
HETATM   31  C   UNL     1       3.213  12.647  90.183  1.00  0.00     0.000 C 
HETATM   32  O   UNL     1       2.561  12.479  89.154  1.00  0.00     0.000 OA
BRANCH  31  33
HETATM   33  P   UNL     1       2.731  12.462  91.456  1.00  0.00     0.000 P 
HETATM   34  H   UNL     1       1.969  11.311  91.457  1.00  0.00     0.000 HD
BRANCH  33  35
HETATM   35  O   UNL     1       1.940  13.502  91.966  1.00  0.00     0.000 OA
HETATM   36  H   UNL     1       1.060  13.090  91.920  1.00  0.00     0.000 HD
ENDBRANCH  33  35
ENDBRANCH  31  33
ENDBRANCH  26  31
ENDBRANCH  24  26
ENDBRANCH  19  22
ENDBRANCH  15  16
ENDBRANCH  11  14
ENDBRANCH   7   8
ENDBRANCH   2   7
TORSDOF 11
ENDMDL
