MODEL 1
REMARK VINA RESULT:      -7.0      0.000      0.000
REMARK  9 active torsions:
REMARK  status: ('A' for Active; 'I' for Inactive)
REMARK    1  A    between atoms: O_2  and  C_17 
REMARK    2  A    between atoms: N_5  and  C_10 
REMARK    3  A    between atoms: N_6  and  C_14 
REMARK       I    between atoms: N_6  and  C_23 
REMARK       I    between atoms: N_7  and  C_22 
REMARK    4  A    between atoms: C_10  and  C_13 
REMARK    5  A    between atoms: C_14  and  C_17 
REMARK    6  A    between atoms: C_14  and  C_22 
REMARK    7  A    between atoms: C_20  and  C_25 
REMARK    8  A    between atoms: C_23  and  C_24 
REMARK    9  A    between atoms: C_28  and  C_31 
ROOT
HETATM    1  O   UNL     1      16.970   3.983  93.793  1.00  0.00    -0.388 OA
HETATM    2  N   UNL     1      14.451   2.781  93.240  1.00  0.00     0.096 N 
HETATM    3  C   UNL     1      15.700   2.010  93.173  1.00  0.00     0.299 C 
HETATM    4  C   UNL     1      14.713   4.193  92.931  1.00  0.00     0.299 C 
HETATM    5  C   UNL     1      16.731   2.614  94.124  1.00  0.00     0.198 C 
HETATM    6  C   UNL     1      15.766   4.745  93.886  1.00  0.00     0.198 C 
ENDROOT
BRANCH   2   7
HETATM    7  C   UNL     1      13.452   2.226  92.328  1.00  0.00     0.311 C 
BRANCH   7   8
HETATM    8  C   UNL     1      12.410   3.224  91.952  1.00  0.00    -0.030 A 
HETATM    9  C   UNL     1      12.227   3.568  90.612  1.00  0.00     0.010 A 
HETATM   10  C   UNL     1      11.254   4.503  90.260  1.00  0.00     0.021 A 
HETATM   11  C   UNL     1      10.463   5.091  91.246  1.00  0.00     0.018 A 
HETATM   12  C   UNL     1      10.645   4.747  92.584  1.00  0.00     0.021 A 
HETATM   13  C   UNL     1      11.618   3.813  92.938  1.00  0.00     0.010 A 
BRANCH  11  14
HETATM   14  C   UNL     1       9.463   6.048  90.884  1.00  0.00    -0.061 C 
HETATM   15  C   UNL     1       8.624   6.854  90.580  1.00  0.00    -0.061 C 
BRANCH  15  16
HETATM   16  C   UNL     1       7.625   7.811  90.218  1.00  0.00     0.018 A 
HETATM   17  C   UNL     1       7.928   9.173  90.234  1.00  0.00     0.022 A 
HETATM   18  C   UNL     1       6.954  10.106  89.878  1.00  0.00     0.018 A 
HETATM   19  C   UNL     1       5.702   9.658  89.513  1.00  0.00     0.032 A 
HETATM   20  C   UNL     1       5.379   8.317  89.489  1.00  0.00     0.018 A 
HETATM   21  C   UNL     1       6.351   7.383  89.845  1.00  0.00     0.022 A 
BRANCH  19  22
HETATM   22  C   UNL     1       4.665  10.653  89.135  1.00  0.00     0.252 C 
HETATM   23  O   UNL     1       3.647  10.270  88.564  1.00  0.00    -0.268 OA
HETATM   24  N   UNL     1       4.928  11.969  89.491  1.00  0.00    -0.342 N 
HETATM   25  H   UNL     1       5.780  12.207  89.984  1.00  0.00     0.163 HD
BRANCH  24  26
HETATM   26  C   UNL     1       4.009  13.044  89.216  1.00  0.00     0.199 C 
BRANCH  26  27
HETATM   27  C   UNL     1       3.431  13.672  90.490  1.00  0.00     0.145 C 
HETATM   28  C   UNL     1       2.602  12.684  91.304  1.00  0.00     0.042 C 
BRANCH  27  29
HETATM   29  O   UNL     1       4.496  14.164  91.304  1.00  0.00    -0.393 OA
HETATM   30  H   UNL     1       4.180  14.954  91.774  1.00  0.00     0.210 HD
ENDBRANCH  27  29
ENDBRANCH  26  27
BRANCH  26  31
HETATM   31  C   UNL     1       4.743  14.080  88.371  1.00  0.00     0.220 C 
HETATM   32  O   UNL     1       5.119  15.163  88.816  1.00  0.00    -0.278 OA
HETATM   33  N   UNL     1       4.894  13.674  87.067  1.00  0.00    -0.271 NA
HETATM   34  H   UNL     1       4.520  12.831  86.647  1.00  0.00     0.127 HD
HETATM   35  H   UNL     1       4.239  14.156  85.923  1.00  0.00     0.127 HD
ENDBRANCH  26  31
ENDBRANCH  24  26
ENDBRANCH  19  22
ENDBRANCH  15  16
ENDBRANCH  11  14
ENDBRANCH   7   8
ENDBRANCH   2   7
TORSDOF 9
ENDMDL
