MODEL 1
REMARK VINA RESULT:      -7.6      0.000      0.000
REMARK  9 active torsions:
REMARK  status: ('A' for Active; 'I' for Inactive)
REMARK    1  A    between atoms: N_3  and  C_6 
REMARK    2  A    between atoms: C_6  and  C_9 
REMARK    3  A    between atoms: C_14  and  C_17 
REMARK       I    between atoms: N_26  and  C_15 
REMARK    4  A    between atoms: C_15  and  C_16 
REMARK    5  A    between atoms: C_20  and  C_23 
REMARK    6  A    between atoms: OG1_24  and  CB_28 
REMARK    7  A    between atoms: N_26  and  CA_27 
REMARK    8  A    between atoms: CA_27  and  CB_28 
REMARK    9  A    between atoms: CA_27  and  C_30 
ROOT
HETATM    1  O   UNK A   0       1.886   8.324  87.931  1.00  0.00    -0.388 OA
HETATM    2  N   UNK A   0       4.636   7.631  87.692  1.00  0.00     0.096 N 
HETATM    3  C   UNK A   0       4.200   9.033  87.760  1.00  0.00     0.299 C 
HETATM    4  C   UNK A   0       3.580   6.804  87.091  1.00  0.00     0.299 C 
HETATM    5  C   UNK A   0       2.894   9.130  88.543  1.00  0.00     0.198 C 
HETATM    6  C   UNK A   0       2.289   6.954  87.889  1.00  0.00     0.198 C 
ENDROOT
BRANCH   2   7
HETATM    7  C   UNK A   0       5.882   7.513  86.936  1.00  0.00     0.311 C 
BRANCH   7   8
HETATM    8  C   UNK A   0       6.985   6.922  87.747  1.00  0.00    -0.030 A 
HETATM    9  C   UNK A   0       6.759   6.573  89.079  1.00  0.00     0.010 A 
HETATM   10  C   UNK A   0       7.791   6.023  89.840  1.00  0.00     0.021 A 
HETATM   11  C   UNK A   0       9.046   5.820  89.268  1.00  0.00     0.018 A 
HETATM   12  C   UNK A   0       9.272   6.168  87.938  1.00  0.00     0.021 A 
HETATM   13  C   UNK A   0       8.241   6.719  87.177  1.00  0.00     0.010 A 
BRANCH  11  14
HETATM   14  C   UNK A   0      10.103   5.253  90.047  1.00  0.00    -0.061 C 
HETATM   15  C   UNK A   0      10.992   4.777  90.703  1.00  0.00    -0.061 C 
BRANCH  15  16
HETATM   16  C   UNK A   0      12.048   4.211  91.483  1.00  0.00     0.018 A 
HETATM   17  C   UNK A   0      11.830   3.895  92.825  1.00  0.00     0.022 A 
HETATM   18  C   UNK A   0      12.860   3.340  93.584  1.00  0.00     0.018 A 
HETATM   19  C   UNK A   0      14.082   3.113  92.987  1.00  0.00     0.032 A 
HETATM   20  C   UNK A   0      14.322   3.417  91.663  1.00  0.00     0.018 A 
HETATM   21  C   UNK A   0      13.293   3.972  90.902  1.00  0.00     0.022 A 
BRANCH  19  22
HETATM   22  C   UNK A   0      15.179   2.523  93.798  1.00  0.00     0.252 C 
HETATM   23  O   UNK A   0      16.326   2.936  93.645  1.00  0.00    -0.268 OA
ENDBRANCH  19  22
ENDBRANCH  15  16
ENDBRANCH  11  14
ENDBRANCH   7   8
ENDBRANCH   2   7
TORSDOF 9
ENDMDL
MODEL 2
REMARK VINA RESULT:      -7.6      0.152      1.432
REMARK  9 active torsions:
REMARK  status: ('A' for Active; 'I' for Inactive)
REMARK    1  A    between atoms: N_3  and  C_6 
REMARK    2  A    between atoms: C_6  and  C_9 
REMARK    3  A    between atoms: C_14  and  C_17 
REMARK       I    between atoms: N_26  and  C_15 
REMARK    4  A    between atoms: C_15  and  C_16 
REMARK    5  A    between atoms: C_20  and  C_23 
REMARK    6  A    between atoms: OG1_24  and  CB_28 
REMARK    7  A    between atoms: N_26  and  CA_27 
REMARK    8  A    between atoms: CA_27  and  CB_28 
REMARK    9  A    between atoms: CA_27  and  C_30 
ROOT
HETATM    1  O   UNK A   0       1.942   8.091  87.832  1.00  0.00    -0.388 OA
HETATM    2  N   UNK A   0       4.733   7.552  87.681  1.00  0.00     0.096 N 
HETATM    3  C   UNK A   0       4.219   8.927  87.760  1.00  0.00     0.299 C 
HETATM    4  C   UNK A   0       3.745   6.683  87.026  1.00  0.00     0.299 C 
HETATM    5  C   UNK A   0       2.882   8.937  88.497  1.00  0.00     0.198 C 
HETATM    6  C   UNK A   0       2.420   6.746  87.778  1.00  0.00     0.198 C 
ENDROOT
BRANCH   2   7
HETATM    7  C   UNK A   0       6.009   7.517  86.970  1.00  0.00     0.311 C 
BRANCH   7   8
HETATM    8  C   UNK A   0       7.099   6.912  87.788  1.00  0.00    -0.030 A 
HETATM    9  C   UNK A   0       8.336   6.635  87.204  1.00  0.00     0.010 A 
HETATM   10  C   UNK A   0       9.355   6.066  87.968  1.00  0.00     0.021 A 
HETATM   11  C   UNK A   0       9.137   5.777  89.315  1.00  0.00     0.018 A 
HETATM   12  C   UNK A   0       7.903   6.053  89.898  1.00  0.00     0.021 A 
HETATM   13  C   UNK A   0       6.883   6.621  89.135  1.00  0.00     0.010 A 
BRANCH  11  14
HETATM   14  C   UNK A   0      10.184   5.196  90.098  1.00  0.00    -0.061 C 
HETATM   15  C   UNK A   0      11.064   4.707  90.756  1.00  0.00    -0.061 C 
BRANCH  15  16
HETATM   16  C   UNK A   0      12.110   4.127  91.539  1.00  0.00     0.018 A 
HETATM   17  C   UNK A   0      13.369   3.920  90.975  1.00  0.00     0.022 A 
HETATM   18  C   UNK A   0      14.390   3.356  91.740  1.00  0.00     0.018 A 
HETATM   19  C   UNK A   0      14.130   3.013  93.050  1.00  0.00     0.032 A 
HETATM   20  C   UNK A   0      12.895   3.207  93.630  1.00  0.00     0.018 A 
HETATM   21  C   UNK A   0      11.872   3.770  92.867  1.00  0.00     0.022 A 
BRANCH  19  22
HETATM   22  C   UNK A   0      15.218   2.411  93.863  1.00  0.00     0.252 C 
HETATM   23  O   UNK A   0      16.367   2.825  93.729  1.00  0.00    -0.268 OA
ENDBRANCH  19  22
ENDBRANCH  15  16
ENDBRANCH  11  14
ENDBRANCH   7   8
ENDBRANCH   2   7
TORSDOF 9
ENDMDL
MODEL 3
REMARK VINA RESULT:      -6.9      1.457      2.235
REMARK  9 active torsions:
REMARK  status: ('A' for Active; 'I' for Inactive)
REMARK    1  A    between atoms: N_3  and  C_6 
REMARK    2  A    between atoms: C_6  and  C_9 
REMARK    3  A    between atoms: C_14  and  C_17 
REMARK       I    between atoms: N_26  and  C_15 
REMARK    4  A    between atoms: C_15  and  C_16 
REMARK    5  A    between atoms: C_20  and  C_23 
REMARK    6  A    between atoms: OG1_24  and  CB_28 
REMARK    7  A    between atoms: N_26  and  CA_27 
REMARK    8  A    between atoms: CA_27  and  CB_28 
REMARK    9  A    between atoms: CA_27  and  C_30 
ROOT
HETATM    1  O   UNK A   0       2.806  11.220  89.750  1.00  0.00    -0.388 OA
HETATM    2  N   UNK A   0       4.640   9.281  88.761  1.00  0.00     0.096 N 
HETATM    3  C   UNK A   0       3.839  10.113  87.853  1.00  0.00     0.299 C 
HETATM    4  C   UNK A   0       3.924   9.085  90.028  1.00  0.00     0.299 C 
HETATM    5  C   UNK A   0       3.510  11.443  88.526  1.00  0.00     0.198 C 
HETATM    6  C   UNK A   0       3.591  10.437  90.650  1.00  0.00     0.198 C 
ENDROOT
BRANCH   2   7
HETATM    7  C   UNK A   0       4.959   7.996  88.140  1.00  0.00     0.311 C 
BRANCH   7   8
HETATM    8  C   UNK A   0       6.164   7.358  88.741  1.00  0.00    -0.030 A 
HETATM    9  C   UNK A   0       7.426   7.917  88.533  1.00  0.00     0.010 A 
HETATM   10  C   UNK A   0       8.555   7.319  89.093  1.00  0.00     0.021 A 
HETATM   11  C   UNK A   0       8.421   6.164  89.864  1.00  0.00     0.018 A 
HETATM   12  C   UNK A   0       7.162   5.606  90.073  1.00  0.00     0.021 A 
HETATM   13  C   UNK A   0       6.033   6.203  89.512  1.00  0.00     0.010 A 
BRANCH  11  14
HETATM   14  C   UNK A   0       9.579   5.553  90.441  1.00  0.00    -0.061 C 
HETATM   15  C   UNK A   0      10.551   5.038  90.926  1.00  0.00    -0.061 C 
BRANCH  15  16
HETATM   16  C   UNK A   0      11.708   4.426  91.501  1.00  0.00     0.018 A 
HETATM   17  C   UNK A   0      12.856   4.243  90.729  1.00  0.00     0.022 A 
HETATM   18  C   UNK A   0      13.985   3.649  91.292  1.00  0.00     0.018 A 
HETATM   19  C   UNK A   0      13.942   3.252  92.612  1.00  0.00     0.032 A 
HETATM   20  C   UNK A   0      12.820   3.422  93.396  1.00  0.00     0.018 A 
HETATM   21  C   UNK A   0      11.690   4.016  92.834  1.00  0.00     0.022 A 
BRANCH  19  22
HETATM   22  C   UNK A   0      15.145   2.617  93.210  1.00  0.00     0.252 C 
HETATM   23  O   UNK A   0      15.981   3.324  93.768  1.00  0.00    -0.268 OA
ENDBRANCH  19  22
ENDBRANCH  15  16
ENDBRANCH  11  14
ENDBRANCH   7   8
ENDBRANCH   2   7
TORSDOF 9
ENDMDL
MODEL 4
REMARK VINA RESULT:      -6.6      3.886     10.405
REMARK  9 active torsions:
REMARK  status: ('A' for Active; 'I' for Inactive)
REMARK    1  A    between atoms: N_3  and  C_6 
REMARK    2  A    between atoms: C_6  and  C_9 
REMARK    3  A    between atoms: C_14  and  C_17 
REMARK       I    between atoms: N_26  and  C_15 
REMARK    4  A    between atoms: C_15  and  C_16 
REMARK    5  A    between atoms: C_20  and  C_23 
REMARK    6  A    between atoms: OG1_24  and  CB_28 
REMARK    7  A    between atoms: N_26  and  CA_27 
REMARK    8  A    between atoms: CA_27  and  CB_28 
REMARK    9  A    between atoms: CA_27  and  C_30 
ROOT
HETATM    1  O   UNK A   0      14.591   3.364  92.115  1.00  0.00    -0.388 OA
HETATM    2  N   UNK A   0      11.868   4.174  92.299  1.00  0.00     0.096 N 
HETATM    3  C   UNK A   0      12.480   3.301  93.311  1.00  0.00     0.299 C 
HETATM    4  C   UNK A   0      12.525   3.976  91.000  1.00  0.00     0.299 C 
HETATM    5  C   UNK A   0      13.980   3.573  93.389  1.00  0.00     0.198 C 
HETATM    6  C   UNK A   0      14.023   4.231  91.132  1.00  0.00     0.198 C 
ENDROOT
BRANCH   2   7
HETATM    7  C   UNK A   0      10.432   3.923  92.199  1.00  0.00     0.311 C 
BRANCH   7   8
HETATM    8  C   UNK A   0       9.657   5.165  91.916  1.00  0.00    -0.030 A 
HETATM    9  C   UNK A   0       9.904   6.324  92.652  1.00  0.00     0.010 A 
HETATM   10  C   UNK A   0       9.178   7.485  92.389  1.00  0.00     0.021 A 
HETATM   11  C   UNK A   0       8.207   7.488  91.389  1.00  0.00     0.018 A 
HETATM   12  C   UNK A   0       7.959   6.331  90.652  1.00  0.00     0.021 A 
HETATM   13  C   UNK A   0       8.684   5.169  90.916  1.00  0.00     0.010 A 
BRANCH  11  14
HETATM   14  C   UNK A   0       7.463   8.680  91.118  1.00  0.00    -0.061 C 
HETATM   15  C   UNK A   0       6.838   9.682  90.891  1.00  0.00    -0.061 C 
BRANCH  15  16
HETATM   16  C   UNK A   0       6.096  10.873  90.621  1.00  0.00     0.018 A 
HETATM   17  C   UNK A   0       5.254  11.406  91.597  1.00  0.00     0.022 A 
HETATM   18  C   UNK A   0       4.532  12.570  91.335  1.00  0.00     0.018 A 
HETATM   19  C   UNK A   0       4.668  13.175  90.103  1.00  0.00     0.032 A 
HETATM   20  C   UNK A   0       5.494  12.668  89.121  1.00  0.00     0.018 A 
HETATM   21  C   UNK A   0       6.216  11.504  89.382  1.00  0.00     0.022 A 
BRANCH  19  22
HETATM   22  C   UNK A   0       3.898  14.414  89.823  1.00  0.00     0.252 C 
HETATM   23  O   UNK A   0       4.494  15.485  89.734  1.00  0.00    -0.268 OA
ENDBRANCH  19  22
ENDBRANCH  15  16
ENDBRANCH  11  14
ENDBRANCH   7   8
ENDBRANCH   2   7
TORSDOF 9
ENDMDL
MODEL 5
REMARK VINA RESULT:      -6.6      3.486     10.354
REMARK  9 active torsions:
REMARK  status: ('A' for Active; 'I' for Inactive)
REMARK    1  A    between atoms: N_3  and  C_6 
REMARK    2  A    between atoms: C_6  and  C_9 
REMARK    3  A    between atoms: C_14  and  C_17 
REMARK       I    between atoms: N_26  and  C_15 
REMARK    4  A    between atoms: C_15  and  C_16 
REMARK    5  A    between atoms: C_20  and  C_23 
REMARK    6  A    between atoms: OG1_24  and  CB_28 
REMARK    7  A    between atoms: N_26  and  CA_27 
REMARK    8  A    between atoms: CA_27  and  CB_28 
REMARK    9  A    between atoms: CA_27  and  C_30 
ROOT
HETATM    1  O   UNK A   0      16.196   3.158  93.614  1.00  0.00    -0.388 OA
HETATM    2  N   UNK A   0      13.469   2.854  92.857  1.00  0.00     0.096 N 
HETATM    3  C   UNK A   0      14.328   1.690  93.119  1.00  0.00     0.299 C 
HETATM    4  C   UNK A   0      14.280   3.979  92.374  1.00  0.00     0.299 C 
HETATM    5  C   UNK A   0      15.420   2.068  94.116  1.00  0.00     0.198 C 
HETATM    6  C   UNK A   0      15.373   4.303  93.387  1.00  0.00     0.198 C 
ENDROOT
BRANCH   2   7
HETATM    7  C   UNK A   0      12.420   2.517  91.896  1.00  0.00     0.311 C 
BRANCH   7   8
HETATM    8  C   UNK A   0      11.563   3.689  91.557  1.00  0.00    -0.030 A 
HETATM    9  C   UNK A   0      11.426   4.090  90.227  1.00  0.00     0.010 A 
HETATM   10  C   UNK A   0      10.626   5.187  89.909  1.00  0.00     0.021 A 
HETATM   11  C   UNK A   0       9.962   5.882  90.920  1.00  0.00     0.018 A 
HETATM   12  C   UNK A   0      10.099   5.482  92.248  1.00  0.00     0.021 A 
HETATM   13  C   UNK A   0      10.899   4.385  92.567  1.00  0.00     0.010 A 
BRANCH  11  14
HETATM   14  C   UNK A   0       9.140   7.006  90.594  1.00  0.00    -0.061 C 
HETATM   15  C   UNK A   0       8.449   7.951  90.318  1.00  0.00    -0.061 C 
BRANCH  15  16
HETATM   16  C   UNK A   0       7.627   9.074  89.991  1.00  0.00     0.018 A 
HETATM   17  C   UNK A   0       6.238   8.959  90.047  1.00  0.00     0.022 A 
HETATM   18  C   UNK A   0       5.436  10.056  89.731  1.00  0.00     0.018 A 
HETATM   19  C   UNK A   0       6.040  11.241  89.367  1.00  0.00     0.032 A 
HETATM   20  C   UNK A   0       7.411  11.380  89.305  1.00  0.00     0.018 A 
HETATM   21  C   UNK A   0       8.214  10.284  89.621  1.00  0.00     0.022 A 
BRANCH  19  22
HETATM   22  C   UNK A   0       5.186  12.409  89.029  1.00  0.00     0.252 C 
HETATM   23  O   UNK A   0       4.987  12.684  87.848  1.00  0.00    -0.268 OA
ENDBRANCH  19  22
ENDBRANCH  15  16
ENDBRANCH  11  14
ENDBRANCH   7   8
ENDBRANCH   2   7
TORSDOF 9
ENDMDL
MODEL 6
REMARK VINA RESULT:      -6.3      1.966      2.675
REMARK  9 active torsions:
REMARK  status: ('A' for Active; 'I' for Inactive)
REMARK    1  A    between atoms: N_3  and  C_6 
REMARK    2  A    between atoms: C_6  and  C_9 
REMARK    3  A    between atoms: C_14  and  C_17 
REMARK       I    between atoms: N_26  and  C_15 
REMARK    4  A    between atoms: C_15  and  C_16 
REMARK    5  A    between atoms: C_20  and  C_23 
REMARK    6  A    between atoms: OG1_24  and  CB_28 
REMARK    7  A    between atoms: N_26  and  CA_27 
REMARK    8  A    between atoms: CA_27  and  CB_28 
REMARK    9  A    between atoms: CA_27  and  C_30 
ROOT
HETATM    1  O   UNK A   0       2.479  10.100  87.963  1.00  0.00    -0.388 OA
HETATM    2  N   UNK A   0       3.965   8.745  89.978  1.00  0.00     0.096 N 
HETATM    3  C   UNK A   0       2.614   8.311  89.598  1.00  0.00     0.299 C 
HETATM    4  C   UNK A   0       4.110  10.190  89.756  1.00  0.00     0.299 C 
HETATM    5  C   UNK A   0       2.338   8.689  88.145  1.00  0.00     0.198 C 
HETATM    6  C   UNK A   0       3.800  10.525  88.301  1.00  0.00     0.198 C 
ENDROOT
BRANCH   2   7
HETATM    7  C   UNK A   0       4.246   8.402  91.371  1.00  0.00     0.311 C 
BRANCH   7   8
HETATM    8  C   UNK A   0       5.551   7.697  91.530  1.00  0.00    -0.030 A 
HETATM    9  C   UNK A   0       6.297   7.869  92.696  1.00  0.00     0.010 A 
HETATM   10  C   UNK A   0       7.519   7.212  92.845  1.00  0.00     0.021 A 
HETATM   11  C   UNK A   0       7.991   6.382  91.829  1.00  0.00     0.018 A 
HETATM   12  C   UNK A   0       7.246   6.210  90.664  1.00  0.00     0.021 A 
HETATM   13  C   UNK A   0       6.025   6.867  90.514  1.00  0.00     0.010 A 
BRANCH  11  14
HETATM   14  C   UNK A   0       9.243   5.707  91.983  1.00  0.00    -0.061 C 
HETATM   15  C   UNK A   0      10.296   5.140  92.111  1.00  0.00    -0.061 C 
BRANCH  15  16
HETATM   16  C   UNK A   0      11.547   4.466  92.265  1.00  0.00     0.018 A 
HETATM   17  C   UNK A   0      11.904   3.934  93.505  1.00  0.00     0.022 A 
HETATM   18  C   UNK A   0      13.124   3.274  93.654  1.00  0.00     0.018 A 
HETATM   19  C   UNK A   0      13.958   3.160  92.561  1.00  0.00     0.032 A 
HETATM   20  C   UNK A   0      13.628   3.677  91.326  1.00  0.00     0.018 A 
HETATM   21  C   UNK A   0      12.409   4.337  91.176  1.00  0.00     0.022 A 
BRANCH  19  22
HETATM   22  C   UNK A   0      15.258   2.458  92.721  1.00  0.00     0.252 C 
HETATM   23  O   UNK A   0      16.127   2.961  93.430  1.00  0.00    -0.268 OA
ENDBRANCH  19  22
ENDBRANCH  15  16
ENDBRANCH  11  14
ENDBRANCH   7   8
ENDBRANCH   2   7
TORSDOF 9
ENDMDL
MODEL 7
REMARK VINA RESULT:      -6.2      2.384      3.178
REMARK  9 active torsions:
REMARK  status: ('A' for Active; 'I' for Inactive)
REMARK    1  A    between atoms: N_3  and  C_6 
REMARK    2  A    between atoms: C_6  and  C_9 
REMARK    3  A    between atoms: C_14  and  C_17 
REMARK       I    between atoms: N_26  and  C_15 
REMARK    4  A    between atoms: C_15  and  C_16 
REMARK    5  A    between atoms: C_20  and  C_23 
REMARK    6  A    between atoms: OG1_24  and  CB_28 
REMARK    7  A    between atoms: N_26  and  CA_27 
REMARK    8  A    between atoms: CA_27  and  CB_28 
REMARK    9  A    between atoms: CA_27  and  C_30 
ROOT
HETATM    1  O   UNK A   0       3.958  13.382  89.436  1.00  0.00    -0.388 OA
HETATM    2  N   UNK A   0       4.820  10.671  89.314  1.00  0.00     0.096 N 
HETATM    3  C   UNK A   0       4.242  11.347  88.144  1.00  0.00     0.299 C 
HETATM    4  C   UNK A   0       4.274  11.250  90.549  1.00  0.00     0.299 C 
HETATM    5  C   UNK A   0       4.507  12.848  88.229  1.00  0.00     0.198 C 
HETATM    6  C   UNK A   0       4.538  12.752  90.579  1.00  0.00     0.198 C 
ENDROOT
BRANCH   2   7
HETATM    7  C   UNK A   0       4.568   9.233  89.258  1.00  0.00     0.311 C 
BRANCH   7   8
HETATM    8  C   UNK A   0       5.749   8.432  89.687  1.00  0.00    -0.030 A 
HETATM    9  C   UNK A   0       5.628   7.054  89.870  1.00  0.00     0.010 A 
HETATM   10  C   UNK A   0       6.732   6.304  90.273  1.00  0.00     0.021 A 
HETATM   11  C   UNK A   0       7.958   6.932  90.492  1.00  0.00     0.018 A 
HETATM   12  C   UNK A   0       8.081   8.308  90.310  1.00  0.00     0.021 A 
HETATM   13  C   UNK A   0       6.976   9.058  89.907  1.00  0.00     0.010 A 
BRANCH  11  14
HETATM   14  C   UNK A   0       9.091   6.162  90.904  1.00  0.00    -0.061 C 
HETATM   15  C   UNK A   0      10.044   5.516  91.250  1.00  0.00    -0.061 C 
BRANCH  15  16
HETATM   16  C   UNK A   0      11.177   4.747  91.662  1.00  0.00     0.018 A 
HETATM   17  C   UNK A   0      12.144   4.375  90.727  1.00  0.00     0.022 A 
HETATM   18  C   UNK A   0      13.250   3.627  91.130  1.00  0.00     0.018 A 
HETATM   19  C   UNK A   0      13.366   3.270  92.457  1.00  0.00     0.032 A 
HETATM   20  C   UNK A   0      12.425   3.625  93.400  1.00  0.00     0.018 A 
HETATM   21  C   UNK A   0      11.318   4.373  92.998  1.00  0.00     0.022 A 
BRANCH  19  22
HETATM   22  C   UNK A   0      14.544   2.472  92.885  1.00  0.00     0.252 C 
HETATM   23  O   UNK A   0      14.702   2.228  94.079  1.00  0.00    -0.268 OA
ENDBRANCH  19  22
ENDBRANCH  15  16
ENDBRANCH  11  14
ENDBRANCH   7   8
ENDBRANCH   2   7
TORSDOF 9
ENDMDL
MODEL 8
REMARK VINA RESULT:      -6.2      4.761     10.054
REMARK  9 active torsions:
REMARK  status: ('A' for Active; 'I' for Inactive)
REMARK    1  A    between atoms: N_3  and  C_6 
REMARK    2  A    between atoms: C_6  and  C_9 
REMARK    3  A    between atoms: C_14  and  C_17 
REMARK       I    between atoms: N_26  and  C_15 
REMARK    4  A    between atoms: C_15  and  C_16 
REMARK    5  A    between atoms: C_20  and  C_23 
REMARK    6  A    between atoms: OG1_24  and  CB_28 
REMARK    7  A    between atoms: N_26  and  CA_27 
REMARK    8  A    between atoms: CA_27  and  CB_28 
REMARK    9  A    between atoms: CA_27  and  C_30 
ROOT
HETATM    1  O   UNK A   0       9.936   3.102  88.796  1.00  0.00    -0.388 OA
HETATM    2  N   UNK A   0       9.547   5.700  87.700  1.00  0.00     0.096 N 
HETATM    3  C   UNK A   0       8.670   5.172  88.754  1.00  0.00     0.299 C 
HETATM    4  C   UNK A   0      10.083   4.596  86.891  1.00  0.00     0.299 C 
HETATM    5  C   UNK A   0       9.436   4.166  89.609  1.00  0.00     0.198 C 
HETATM    6  C   UNK A   0      10.815   3.604  87.789  1.00  0.00     0.198 C 
ENDROOT
BRANCH   2   7
HETATM    7  C   UNK A   0       8.830   6.659  86.862  1.00  0.00     0.311 C 
BRANCH   7   8
HETATM    8  C   UNK A   0       8.118   7.694  87.664  1.00  0.00    -0.030 A 
HETATM    9  C   UNK A   0       8.840   8.715  88.283  1.00  0.00     0.010 A 
HETATM   10  C   UNK A   0       8.175   9.682  89.036  1.00  0.00     0.021 A 
HETATM   11  C   UNK A   0       6.788   9.629  89.168  1.00  0.00     0.018 A 
HETATM   12  C   UNK A   0       6.065   8.611  88.550  1.00  0.00     0.021 A 
HETATM   13  C   UNK A   0       6.730   7.643  87.798  1.00  0.00     0.010 A 
BRANCH  11  14
HETATM   14  C   UNK A   0       6.106  10.623  89.939  1.00  0.00    -0.061 C 
HETATM   15  C   UNK A   0       5.531  11.458  90.586  1.00  0.00    -0.061 C 
BRANCH  15  16
HETATM   16  C   UNK A   0       4.849  12.451  91.356  1.00  0.00     0.018 A 
HETATM   17  C   UNK A   0       4.499  13.668  90.771  1.00  0.00     0.022 A 
HETATM   18  C   UNK A   0       3.831  14.634  91.522  1.00  0.00     0.018 A 
HETATM   19  C   UNK A   0       3.527  14.363  92.840  1.00  0.00     0.032 A 
HETATM   20  C   UNK A   0       3.862  13.168  93.441  1.00  0.00     0.018 A 
HETATM   21  C   UNK A   0       4.531  12.200  92.691  1.00  0.00     0.022 A 
BRANCH  19  22
HETATM   22  C   UNK A   0       2.817  15.394  93.640  1.00  0.00     0.252 C 
HETATM   23  O   UNK A   0       1.618  15.582  93.447  1.00  0.00    -0.268 OA
ENDBRANCH  19  22
ENDBRANCH  15  16
ENDBRANCH  11  14
ENDBRANCH   7   8
ENDBRANCH   2   7
TORSDOF 9
ENDMDL
MODEL 9
REMARK VINA RESULT:      -6.1      1.896      2.780
REMARK  9 active torsions:
REMARK  status: ('A' for Active; 'I' for Inactive)
REMARK    1  A    between atoms: N_3  and  C_6 
REMARK    2  A    between atoms: C_6  and  C_9 
REMARK    3  A    between atoms: C_14  and  C_17 
REMARK       I    between atoms: N_26  and  C_15 
REMARK    4  A    between atoms: C_15  and  C_16 
REMARK    5  A    between atoms: C_20  and  C_23 
REMARK    6  A    between atoms: OG1_24  and  CB_28 
REMARK    7  A    between atoms: N_26  and  CA_27 
REMARK    8  A    between atoms: CA_27  and  CB_28 
REMARK    9  A    between atoms: CA_27  and  C_30 
ROOT
HETATM    1  O   UNK A   0       5.477  10.940  88.607  1.00  0.00    -0.388 OA
HETATM    2  N   UNK A   0       4.552   8.659  90.036  1.00  0.00     0.096 N 
HETATM    3  C   UNK A   0       5.915   9.176  90.215  1.00  0.00     0.299 C 
HETATM    4  C   UNK A   0       4.072   8.964  88.681  1.00  0.00     0.299 C 
HETATM    5  C   UNK A   0       5.940  10.676  89.932  1.00  0.00     0.198 C 
HETATM    6  C   UNK A   0       4.141  10.467  88.433  1.00  0.00     0.198 C 
ENDROOT
BRANCH   2   7
HETATM    7  C   UNK A   0       4.506   7.220  90.291  1.00  0.00     0.311 C 
BRANCH   7   8
HETATM    8  C   UNK A   0       5.847   6.660  90.627  1.00  0.00    -0.030 A 
HETATM    9  C   UNK A   0       6.626   6.073  89.629  1.00  0.00     0.010 A 
HETATM   10  C   UNK A   0       7.879   5.547  89.942  1.00  0.00     0.021 A 
HETATM   11  C   UNK A   0       8.353   5.610  91.252  1.00  0.00     0.018 A 
HETATM   12  C   UNK A   0       7.576   6.197  92.249  1.00  0.00     0.021 A 
HETATM   13  C   UNK A   0       6.323   6.723  91.936  1.00  0.00     0.010 A 
BRANCH  11  14
HETATM   14  C   UNK A   0       9.640   5.073  91.573  1.00  0.00    -0.061 C 
HETATM   15  C   UNK A   0      10.721   4.622  91.842  1.00  0.00    -0.061 C 
BRANCH  15  16
HETATM   16  C   UNK A   0      12.007   4.085  92.164  1.00  0.00     0.018 A 
HETATM   17  C   UNK A   0      13.001   4.026  91.187  1.00  0.00     0.022 A 
HETATM   18  C   UNK A   0      14.256   3.505  91.501  1.00  0.00     0.018 A 
HETATM   19  C   UNK A   0      14.489   3.055  92.784  1.00  0.00     0.032 A 
HETATM   20  C   UNK A   0      13.522   3.102  93.767  1.00  0.00     0.018 A 
HETATM   21  C   UNK A   0      12.267   3.623  93.454  1.00  0.00     0.022 A 
BRANCH  19  22
HETATM   22  C   UNK A   0      15.825   2.498  93.118  1.00  0.00     0.252 C 
HETATM   23  O   UNK A   0      16.428   2.932  94.096  1.00  0.00    -0.268 OA
ENDBRANCH  19  22
ENDBRANCH  15  16
ENDBRANCH  11  14
ENDBRANCH   7   8
ENDBRANCH   2   7
TORSDOF 9
ENDMDL
