MODEL 1
REMARK VINA RESULT:      -7.0      0.000      0.000
REMARK  9 active torsions:
REMARK  status: ('A' for Active; 'I' for Inactive)
REMARK    1  A    between atoms: O_2  and  C_17 
REMARK    2  A    between atoms: N_5  and  C_10 
REMARK    3  A    between atoms: N_6  and  C_14 
REMARK       I    between atoms: N_6  and  C_23 
REMARK       I    between atoms: N_7  and  C_22 
REMARK    4  A    between atoms: C_10  and  C_13 
REMARK    5  A    between atoms: C_14  and  C_17 
REMARK    6  A    between atoms: C_14  and  C_22 
REMARK    7  A    between atoms: C_20  and  C_25 
REMARK    8  A    between atoms: C_23  and  C_24 
REMARK    9  A    between atoms: C_28  and  C_31 
ROOT
HETATM    1  O   UNL     1      16.995   3.957  93.843  1.00  0.00    -0.388 OA
HETATM    2  N   UNL     1      14.460   2.818  93.229  1.00  0.00     0.096 N 
HETATM    3  C   UNL     1      15.697   2.029  93.145  1.00  0.00     0.299 C 
HETATM    4  C   UNL     1      14.749   4.236  92.971  1.00  0.00     0.299 C 
HETATM    5  C   UNL     1      16.730   2.582  94.124  1.00  0.00     0.198 C 
HETATM    6  C   UNL     1      15.804   4.736  93.952  1.00  0.00     0.198 C 
ENDROOT
BRANCH   2   7
HETATM    7  C   UNL     1      13.459   2.313  92.291  1.00  0.00     0.311 C 
BRANCH   7   8
HETATM    8  C   UNL     1      12.447   3.346  91.928  1.00  0.00    -0.030 A 
HETATM    9  C   UNL     1      12.325   3.766  90.603  1.00  0.00     0.010 A 
HETATM   10  C   UNL     1      11.380   4.734  90.263  1.00  0.00     0.021 A 
HETATM   11  C   UNL     1      10.558   5.280  91.248  1.00  0.00     0.018 A 
HETATM   12  C   UNL     1      10.679   4.862  92.571  1.00  0.00     0.021 A 
HETATM   13  C   UNL     1      11.624   3.894  92.912  1.00  0.00     0.010 A 
BRANCH  11  14
HETATM   14  C   UNL     1       9.587   6.272  90.898  1.00  0.00    -0.061 C 
HETATM   15  C   UNL     1       8.771   7.105  90.605  1.00  0.00    -0.061 C 
BRANCH  15  16
HETATM   16  C   UNL     1       7.802   8.096  90.257  1.00  0.00     0.018 A 
HETATM   17  C   UNL     1       6.934   7.876  89.186  1.00  0.00     0.022 A 
HETATM   18  C   UNL     1       5.987   8.842  88.848  1.00  0.00     0.018 A 
HETATM   19  C   UNL     1       5.927  10.005  89.588  1.00  0.00     0.032 A 
HETATM   20  C   UNL     1       6.773  10.246  90.650  1.00  0.00     0.018 A 
HETATM   21  C   UNL     1       7.721   9.281  90.989  1.00  0.00     0.022 A 
BRANCH  19  22
HETATM   22  C   UNL     1       4.918  11.034  89.226  1.00  0.00     0.252 C 
HETATM   23  O   UNL     1       4.045  10.757  88.408  1.00  0.00    -0.268 OA
HETATM   24  N   UNL     1       5.033  12.254  89.879  1.00  0.00    -0.342 N 
HETATM   25  H   UNL     1       5.766  12.402  90.563  1.00  0.00     0.163 HD
BRANCH  24  26
HETATM   26  C   UNL     1       4.117  13.343  89.654  1.00  0.00     0.199 C 
BRANCH  26  27
HETATM   27  C   UNL     1       3.682  14.030  90.955  1.00  0.00     0.145 C 
HETATM   28  C   UNL     1       2.181  13.918  91.200  1.00  0.00     0.042 C 
BRANCH  27  29
HETATM   29  O   UNL     1       4.376  13.448  92.058  1.00  0.00    -0.393 OA
HETATM   30  H   UNL     1       5.322  13.409  91.837  1.00  0.00     0.210 HD
ENDBRANCH  27  29
ENDBRANCH  26  27
BRANCH  26  31
HETATM   31  C   UNL     1       4.790  14.329  88.705  1.00  0.00     0.220 C 
HETATM   32  O   UNL     1       4.936  15.520  88.970  1.00  0.00    -0.278 OA
HETATM   33  N   UNL     1       5.168  13.737  87.524  1.00  0.00    -0.271 NA
HETATM   34  H   UNL     1       4.983  12.782  87.237  1.00  0.00     0.127 HD
HETATM   35  H   UNL     1       4.601  13.895  86.249  1.00  0.00     0.127 HD
ENDBRANCH  26  31
ENDBRANCH  24  26
ENDBRANCH  19  22
ENDBRANCH  15  16
ENDBRANCH  11  14
ENDBRANCH   7   8
ENDBRANCH   2   7
TORSDOF 9
ENDMDL
