MODEL 1
REMARK VINA RESULT:      -6.6      0.000      0.000
REMARK  14 active torsions:
REMARK  status: ('A' for Active; 'I' for Inactive)
REMARK    1  A    between atoms: O_2  and  C_18 
REMARK    2  A    between atoms: C_5  and  C_8 
REMARK    3  A    between atoms: C_5  and  O_35 
REMARK    4  A    between atoms: C_5  and  C_36 
REMARK    5  A    between atoms: N_6  and  C_11 
REMARK    6  A    between atoms: N_7  and  C_15 
REMARK       I    between atoms: N_7  and  C_24 
REMARK    7  A    between atoms: C_8  and  C_23 
REMARK    8  A    between atoms: C_11  and  C_14 
REMARK    9  A    between atoms: C_15  and  C_18 
REMARK   10  A    between atoms: C_15  and  C_23 
REMARK   11  A    between atoms: C_21  and  C_26 
REMARK   12  A    between atoms: C_24  and  C_25 
REMARK   13  A    between atoms: C_29  and  C_32 
REMARK   14  A    between atoms: C_36  and  O_39 
ROOT
HETATM    1  O   UNL     1      16.539   3.277  93.925  1.00  0.00    -0.350 OA
HETATM    2  N   UNL     1      14.018   3.099  92.616  1.00  0.00     0.147 N 
HETATM    3  C   UNL     1      14.826   1.903  92.893  1.00  0.00     0.283 C 
HETATM    4  C   UNL     1      14.891   4.268  92.446  1.00  0.00     0.283 C 
HETATM    5  C   UNL     1      15.696   2.140  94.124  1.00  0.00     0.178 C 
HETATM    6  C   UNL     1      15.760   4.450  93.686  1.00  0.00     0.178 C 
ENDROOT
BRANCH   2   7
HETATM    7  C   UNL     1      13.183   2.897  91.434  1.00  0.00     0.277 C 
BRANCH   7   8
HETATM    8  C   UNL     1      12.003   3.808  91.410  1.00  0.00     0.011 A 
HETATM    9  C   UNL     1      11.447   4.195  90.190  1.00  0.00    -0.002 A 
HETATM   10  C   UNL     1      10.344   5.049  90.166  1.00  0.00     0.008 A 
HETATM   11  C   UNL     1       9.797   5.514  91.361  1.00  0.00     0.042 A 
HETATM   12  C   UNL     1      10.352   5.128  92.580  1.00  0.00     0.008 A 
HETATM   13  C   UNL     1      11.455   4.274  92.604  1.00  0.00    -0.002 A 
BRANCH  11  14
HETATM   14  C   UNL     1       8.665   6.388  91.337  1.00  0.00    -0.059 C 
HETATM   15  C   UNL     1       7.714   7.124  91.317  1.00  0.00    -0.059 C 
BRANCH  15  16
HETATM   16  C   UNL     1       6.583   7.998  91.292  1.00  0.00     0.042 A 
HETATM   17  C   UNL     1       5.317   7.491  91.000  1.00  0.00     0.008 A 
HETATM   18  C   UNL     1       4.213   8.344  90.978  1.00  0.00     0.005 A 
HETATM   19  C   UNL     1       4.400   9.683  91.249  1.00  0.00     0.056 A 
HETATM   20  C   UNL     1       5.642  10.209  91.540  1.00  0.00     0.005 A 
HETATM   21  C   UNL     1       6.746   9.357  91.562  1.00  0.00     0.008 A 
BRANCH  19  22
HETATM   22  C   UNL     1       3.225  10.591  91.224  1.00  0.00     0.254 C 
HETATM   23  O   UNL     1       2.114  10.128  90.976  1.00  0.00    -0.268 OA
HETATM   24  N   UNL     1       3.480  11.924  91.516  1.00  0.00    -0.335 N 
HETATM   25  HN  UNL     1       4.420  12.230  91.736  1.00  0.00     0.164 HD
BRANCH  24  26
HETATM   26  C   UNL     1       2.441  12.922  91.555  1.00  0.00     0.169 C 
BRANCH  26  27
HETATM   27  C   UNL     1       2.323  13.602  92.925  1.00  0.00     0.138 C 
HETATM   28  C   UNL     1       3.661  13.691  93.650  1.00  0.00     0.034 C 
BRANCH  27  29
HETATM   29  O   UNL     1       1.796  14.918  92.760  1.00  0.00    -0.383 OA
HETATM   30  H   UNL     1       2.423  15.549  93.153  1.00  0.00     0.210 HD
ENDBRANCH  27  29
ENDBRANCH  26  27
BRANCH  26  31
HETATM   31  C   UNL     1       2.730  13.938  90.455  1.00  0.00     0.194 C 
HETATM   32  O   UNL     1       1.845  14.558  89.867  1.00  0.00    -0.289 OA
BRANCH  31  33
HETATM   33  C   UNL     1       4.072  14.042  90.183  1.00  0.00     0.053 C 
BRANCH  33  34
HETATM   34  C   UNL     1       4.414  14.155  88.828  1.00  0.00     0.220 C 
BRANCH  34  35
HETATM   35  O   UNL     1       5.409  14.899  88.747  1.00  0.00    -0.371 OA
HETATM   36  H   UNL     1       5.489  14.913  87.806  1.00  0.00     0.211 HD
ENDBRANCH  34  35
BRANCH  34  37
HETATM   37  C   UNL     1       4.620  12.917  88.196  1.00  0.00     0.185 C 
HETATM   38  O   UNL     1       5.884  13.143  88.519  1.00  0.00    -0.647 OA
BRANCH  37  39
HETATM   39  O   UNL     1       3.956  12.109  87.618  1.00  0.00    -0.774 OA
HETATM   40  H   UNL     1       3.808  12.391  86.529  1.00  0.00     0.167 HD
ENDBRANCH  37  39
ENDBRANCH  34  37
ENDBRANCH  33  34
ENDBRANCH  31  33
ENDBRANCH  26  31
ENDBRANCH  24  26
ENDBRANCH  19  22
ENDBRANCH  15  16
ENDBRANCH  11  14
ENDBRANCH   7   8
ENDBRANCH   2   7
TORSDOF 14
ENDMDL
MODEL 2
REMARK VINA RESULT:      -6.1      1.371      1.820
REMARK  14 active torsions:
REMARK  status: ('A' for Active; 'I' for Inactive)
REMARK    1  A    between atoms: O_2  and  C_18 
REMARK    2  A    between atoms: C_5  and  C_8 
REMARK    3  A    between atoms: C_5  and  O_35 
REMARK    4  A    between atoms: C_5  and  C_36 
REMARK    5  A    between atoms: N_6  and  C_11 
REMARK    6  A    between atoms: N_7  and  C_15 
REMARK       I    between atoms: N_7  and  C_24 
REMARK    7  A    between atoms: C_8  and  C_23 
REMARK    8  A    between atoms: C_11  and  C_14 
REMARK    9  A    between atoms: C_15  and  C_18 
REMARK   10  A    between atoms: C_15  and  C_23 
REMARK   11  A    between atoms: C_21  and  C_26 
REMARK   12  A    between atoms: C_24  and  C_25 
REMARK   13  A    between atoms: C_29  and  C_32 
REMARK   14  A    between atoms: C_36  and  O_39 
ROOT
HETATM    1  O   UNL     1      16.355   4.268  94.007  1.00  0.00    -0.350 OA
HETATM    2  N   UNL     1      14.513   2.675  92.533  1.00  0.00     0.147 N 
HETATM    3  C   UNL     1      14.525   4.140  92.418  1.00  0.00     0.283 C 
HETATM    4  C   UNL     1      14.985   2.271  93.865  1.00  0.00     0.283 C 
HETATM    5  C   UNL     1      15.927   4.670  92.704  1.00  0.00     0.178 C 
HETATM    6  C   UNL     1      16.376   2.844  94.117  1.00  0.00     0.178 C 
ENDROOT
BRANCH   2   7
HETATM    7  C   UNL     1      13.175   2.146  92.274  1.00  0.00     0.277 C 
BRANCH   7   8
HETATM    8  C   UNL     1      12.127   3.206  92.315  1.00  0.00     0.011 A 
HETATM    9  C   UNL     1      11.819   3.833  93.523  1.00  0.00    -0.002 A 
HETATM   10  C   UNL     1      10.837   4.823  93.564  1.00  0.00     0.008 A 
HETATM   11  C   UNL     1      10.166   5.187  92.397  1.00  0.00     0.042 A 
HETATM   12  C   UNL     1      10.474   4.561  91.190  1.00  0.00     0.008 A 
HETATM   13  C   UNL     1      11.455   3.571  91.149  1.00  0.00    -0.002 A 
BRANCH  11  14
HETATM   14  C   UNL     1       9.161   6.204  92.439  1.00  0.00    -0.059 C 
HETATM   15  C   UNL     1       8.316   7.058  92.474  1.00  0.00    -0.059 C 
BRANCH  15  16
HETATM   16  C   UNL     1       7.311   8.074  92.517  1.00  0.00     0.042 A 
HETATM   17  C   UNL     1       6.035   7.772  92.992  1.00  0.00     0.008 A 
HETATM   18  C   UNL     1       5.055   8.765  93.036  1.00  0.00     0.005 A 
HETATM   19  C   UNL     1       5.374  10.035  92.605  1.00  0.00     0.056 A 
HETATM   20  C   UNL     1       6.628  10.359  92.130  1.00  0.00     0.005 A 
HETATM   21  C   UNL     1       7.608   9.367  92.086  1.00  0.00     0.008 A 
BRANCH  19  22
HETATM   22  C   UNL     1       4.330  11.092  92.650  1.00  0.00     0.254 C 
HETATM   23  O   UNL     1       3.385  10.968  93.425  1.00  0.00    -0.268 OA
HETATM   24  N   UNL     1       4.525  12.176  91.806  1.00  0.00    -0.335 N 
HETATM   25  HN  UNL     1       5.344  12.222  91.211  1.00  0.00     0.164 HD
BRANCH  24  26
HETATM   26  C   UNL     1       3.614  13.291  91.753  1.00  0.00     0.169 C 
BRANCH  26  27
HETATM   27  C   UNL     1       3.969  14.396  92.756  1.00  0.00     0.138 C 
HETATM   28  C   UNL     1       2.748  15.187  93.210  1.00  0.00     0.034 C 
BRANCH  27  29
HETATM   29  O   UNL     1       4.599  13.819  93.899  1.00  0.00    -0.383 OA
HETATM   30  H   UNL     1       5.536  14.076  93.894  1.00  0.00     0.210 HD
ENDBRANCH  27  29
ENDBRANCH  26  27
BRANCH  26  31
HETATM   31  C   UNL     1       3.609  13.821  90.323  1.00  0.00     0.194 C 
HETATM   32  O   UNL     1       2.600  14.259  89.774  1.00  0.00    -0.289 OA
BRANCH  31  33
HETATM   33  C   UNL     1       4.841  13.712  89.725  1.00  0.00     0.053 C 
BRANCH  33  34
HETATM   34  C   UNL     1       4.835  13.297  88.385  1.00  0.00     0.220 C 
BRANCH  34  35
HETATM   35  O   UNL     1       6.007  13.349  87.966  1.00  0.00    -0.371 OA
HETATM   36  H   UNL     1       6.035  14.272  87.764  1.00  0.00     0.211 HD
ENDBRANCH  34  35
BRANCH  34  37
HETATM   37  C   UNL     1       4.255  12.032  88.194  1.00  0.00     0.185 C 
HETATM   38  O   UNL     1       5.359  11.612  88.794  1.00  0.00    -0.647 OA
BRANCH  37  39
HETATM   39  O   UNL     1       3.268  11.590  87.686  1.00  0.00    -0.774 OA
HETATM   40  H   UNL     1       2.616  12.413  87.256  1.00  0.00     0.167 HD
ENDBRANCH  37  39
ENDBRANCH  34  37
ENDBRANCH  33  34
ENDBRANCH  31  33
ENDBRANCH  26  31
ENDBRANCH  24  26
ENDBRANCH  19  22
ENDBRANCH  15  16
ENDBRANCH  11  14
ENDBRANCH   7   8
ENDBRANCH   2   7
TORSDOF 14
ENDMDL
MODEL 3
REMARK VINA RESULT:      -5.0      2.647     12.995
REMARK  14 active torsions:
REMARK  status: ('A' for Active; 'I' for Inactive)
REMARK    1  A    between atoms: O_2  and  C_18 
REMARK    2  A    between atoms: C_5  and  C_8 
REMARK    3  A    between atoms: C_5  and  O_35 
REMARK    4  A    between atoms: C_5  and  C_36 
REMARK    5  A    between atoms: N_6  and  C_11 
REMARK    6  A    between atoms: N_7  and  C_15 
REMARK       I    between atoms: N_7  and  C_24 
REMARK    7  A    between atoms: C_8  and  C_23 
REMARK    8  A    between atoms: C_11  and  C_14 
REMARK    9  A    between atoms: C_15  and  C_18 
REMARK   10  A    between atoms: C_15  and  C_23 
REMARK   11  A    between atoms: C_21  and  C_26 
REMARK   12  A    between atoms: C_24  and  C_25 
REMARK   13  A    between atoms: C_29  and  C_32 
REMARK   14  A    between atoms: C_36  and  O_39 
ROOT
HETATM    1  O   UNL     1       3.097  14.816  94.054  1.00  0.00    -0.350 OA
HETATM    2  N   UNL     1       2.877  14.662  91.220  1.00  0.00     0.147 N 
HETATM    3  C   UNL     1       1.833  14.122  92.101  1.00  0.00     0.283 C 
HETATM    4  C   UNL     1       4.182  14.610  91.894  1.00  0.00     0.283 C 
HETATM    5  C   UNL     1       1.819  14.892  93.419  1.00  0.00     0.178 C 
HETATM    6  C   UNL     1       4.113  15.368  93.216  1.00  0.00     0.178 C 
ENDROOT
BRANCH   2   7
HETATM    7  C   UNL     1       2.916  13.931  89.955  1.00  0.00     0.277 C 
BRANCH   7   8
HETATM    8  C   UNL     1       3.885  12.799  89.982  1.00  0.00     0.011 A 
HETATM    9  C   UNL     1       5.093  12.899  89.291  1.00  0.00    -0.002 A 
HETATM   10  C   UNL     1       6.000  11.839  89.314  1.00  0.00     0.008 A 
HETATM   11  C   UNL     1       5.699  10.681  90.030  1.00  0.00     0.042 A 
HETATM   12  C   UNL     1       4.493  10.580  90.721  1.00  0.00     0.008 A 
HETATM   13  C   UNL     1       3.586  11.639  90.698  1.00  0.00    -0.002 A 
BRANCH  11  14
HETATM   14  C   UNL     1       6.630   9.595  90.056  1.00  0.00    -0.059 C 
HETATM   15  C   UNL     1       7.412   8.682  90.078  1.00  0.00    -0.059 C 
BRANCH  15  16
HETATM   16  C   UNL     1       8.342   7.596  90.103  1.00  0.00     0.042 A 
HETATM   17  C   UNL     1       7.961   6.366  90.642  1.00  0.00     0.008 A 
HETATM   18  C   UNL     1       8.868   5.306  90.664  1.00  0.00     0.005 A 
HETATM   19  C   UNL     1      10.132   5.499  90.147  1.00  0.00     0.056 A 
HETATM   20  C   UNL     1      10.532   6.705  89.611  1.00  0.00     0.005 A 
HETATM   21  C   UNL     1       9.627   7.766  89.588  1.00  0.00     0.008 A 
BRANCH  19  22
HETATM   22  C   UNL     1      11.098   4.370  90.173  1.00  0.00     0.254 C 
HETATM   23  O   UNL     1      11.025   3.499  89.310  1.00  0.00    -0.268 OA
HETATM   24  N   UNL     1      12.047   4.405  91.185  1.00  0.00    -0.335 N 
HETATM   25  HN  UNL     1      12.062   5.171  91.848  1.00  0.00     0.164 HD
BRANCH  24  26
HETATM   26  C   UNL     1      13.065   3.396  91.328  1.00  0.00     0.169 C 
BRANCH  26  27
HETATM   27  C   UNL     1      14.416   3.828  90.742  1.00  0.00     0.138 C 
HETATM   28  C   UNL     1      14.774   3.062  89.474  1.00  0.00     0.034 C 
BRANCH  27  29
HETATM   29  O   UNL     1      14.383   5.224  90.447  1.00  0.00    -0.383 OA
HETATM   30  H   UNL     1      13.906   5.676  91.164  1.00  0.00     0.210 HD
ENDBRANCH  27  29
ENDBRANCH  26  27
BRANCH  26  31
HETATM   31  C   UNL     1      13.186   3.062  92.811  1.00  0.00     0.194 C 
HETATM   32  O   UNL     1      12.395   2.326  93.398  1.00  0.00    -0.289 OA
BRANCH  31  33
HETATM   33  C   UNL     1      14.244   3.707  93.404  1.00  0.00     0.053 C 
BRANCH  33  34
HETATM   34  C   UNL     1      15.129   2.893  94.124  1.00  0.00     0.220 C 
BRANCH  34  35
HETATM   35  O   UNL     1      14.979   1.722  93.725  1.00  0.00    -0.371 OA
HETATM   36  H   UNL     1      15.794   1.636  93.255  1.00  0.00     0.211 HD
ENDBRANCH  34  35
BRANCH  34  37
HETATM   37  C   UNL     1      16.468   3.315  94.046  1.00  0.00     0.185 C 
HETATM   38  O   UNL     1      15.915   4.507  93.885  1.00  0.00    -0.647 OA
BRANCH  37  39
HETATM   39  O   UNL     1      17.548   2.806  94.070  1.00  0.00    -0.774 OA
HETATM   40  H   UNL     1      17.962   2.656  93.024  1.00  0.00     0.167 HD
ENDBRANCH  37  39
ENDBRANCH  34  37
ENDBRANCH  33  34
ENDBRANCH  31  33
ENDBRANCH  26  31
ENDBRANCH  24  26
ENDBRANCH  19  22
ENDBRANCH  15  16
ENDBRANCH  11  14
ENDBRANCH   7   8
ENDBRANCH   2   7
TORSDOF 14
ENDMDL
MODEL 4
REMARK VINA RESULT:      -4.6      2.880     12.351
REMARK  14 active torsions:
REMARK  status: ('A' for Active; 'I' for Inactive)
REMARK    1  A    between atoms: O_2  and  C_18 
REMARK    2  A    between atoms: C_5  and  C_8 
REMARK    3  A    between atoms: C_5  and  O_35 
REMARK    4  A    between atoms: C_5  and  C_36 
REMARK    5  A    between atoms: N_6  and  C_11 
REMARK    6  A    between atoms: N_7  and  C_15 
REMARK       I    between atoms: N_7  and  C_24 
REMARK    7  A    between atoms: C_8  and  C_23 
REMARK    8  A    between atoms: C_11  and  C_14 
REMARK    9  A    between atoms: C_15  and  C_18 
REMARK   10  A    between atoms: C_15  and  C_23 
REMARK   11  A    between atoms: C_21  and  C_26 
REMARK   12  A    between atoms: C_24  and  C_25 
REMARK   13  A    between atoms: C_29  and  C_32 
REMARK   14  A    between atoms: C_36  and  O_39 
ROOT
HETATM    1  O   UNL     1       3.196  14.898  94.095  1.00  0.00    -0.350 OA
HETATM    2  N   UNL     1       2.687  14.817  91.296  1.00  0.00     0.147 N 
HETATM    3  C   UNL     1       1.807  14.138  92.256  1.00  0.00     0.283 C 
HETATM    4  C   UNL     1       4.055  14.883  91.826  1.00  0.00     0.283 C 
HETATM    5  C   UNL     1       1.856  14.858  93.602  1.00  0.00     0.178 C 
HETATM    6  C   UNL     1       4.052  15.584  93.181  1.00  0.00     0.178 C 
ENDROOT
BRANCH   2   7
HETATM    7  C   UNL     1       2.663  14.138  90.002  1.00  0.00     0.277 C 
BRANCH   7   8
HETATM    8  C   UNL     1       3.652  13.025  89.926  1.00  0.00     0.011 A 
HETATM    9  C   UNL     1       4.888  13.232  89.312  1.00  0.00    -0.002 A 
HETATM   10  C   UNL     1       5.813  12.190  89.240  1.00  0.00     0.008 A 
HETATM   11  C   UNL     1       5.503  10.944  89.783  1.00  0.00     0.042 A 
HETATM   12  C   UNL     1       4.269  10.737  90.396  1.00  0.00     0.008 A 
HETATM   13  C   UNL     1       3.343  11.777  90.469  1.00  0.00    -0.002 A 
BRANCH  11  14
HETATM   14  C   UNL     1       6.453   9.877  89.710  1.00  0.00    -0.059 C 
HETATM   15  C   UNL     1       7.251   8.980  89.649  1.00  0.00    -0.059 C 
BRANCH  15  16
HETATM   16  C   UNL     1       8.200   7.913  89.577  1.00  0.00     0.042 A 
HETATM   17  C   UNL     1       7.812   6.613  89.902  1.00  0.00     0.008 A 
HETATM   18  C   UNL     1       8.737   5.571  89.829  1.00  0.00     0.005 A 
HETATM   19  C   UNL     1      10.028   5.853  89.432  1.00  0.00     0.056 A 
HETATM   20  C   UNL     1      10.436   7.129  89.106  1.00  0.00     0.005 A 
HETATM   21  C   UNL     1       9.512   8.171  89.179  1.00  0.00     0.008 A 
BRANCH  19  22
HETATM   22  C   UNL     1      11.014   4.743  89.356  1.00  0.00     0.254 C 
HETATM   23  O   UNL     1      11.112   4.099  88.315  1.00  0.00    -0.268 OA
HETATM   24  N   UNL     1      11.782   4.534  90.493  1.00  0.00    -0.335 N 
HETATM   25  HN  UNL     1      11.662   5.123  91.308  1.00  0.00     0.164 HD
BRANCH  24  26
HETATM   26  C   UNL     1      12.797   3.514  90.566  1.00  0.00     0.169 C 
BRANCH  26  27
HETATM   27  C   UNL     1      14.216   4.091  90.631  1.00  0.00     0.138 C 
HETATM   28  C   UNL     1      14.657   4.397  92.058  1.00  0.00     0.034 C 
BRANCH  27  29
HETATM   29  O   UNL     1      15.135   3.166  90.050  1.00  0.00    -0.383 OA
HETATM   30  H   UNL     1      16.014   3.579  90.034  1.00  0.00     0.210 HD
ENDBRANCH  27  29
ENDBRANCH  26  27
BRANCH  26  31
HETATM   31  C   UNL     1      12.495   2.644  91.782  1.00  0.00     0.194 C 
HETATM   32  O   UNL     1      13.296   1.830  92.238  1.00  0.00    -0.289 OA
BRANCH  31  33
HETATM   33  C   UNL     1      11.228   2.853  92.269  1.00  0.00     0.053 C 
BRANCH  33  34
HETATM   34  C   UNL     1      11.129   3.734  93.356  1.00  0.00     0.220 C 
BRANCH  34  35
HETATM   35  O   UNL     1      12.283   3.967  93.762  1.00  0.00    -0.371 OA
HETATM   36  H   UNL     1      12.749   3.387  93.179  1.00  0.00     0.211 HD
ENDBRANCH  34  35
BRANCH  34  37
HETATM   37  C   UNL     1      10.419   4.910  93.061  1.00  0.00     0.185 C 
HETATM   38  O   UNL     1       9.515   4.059  92.601  1.00  0.00    -0.647 OA
BRANCH  37  39
HETATM   39  O   UNL     1      10.601   6.087  93.152  1.00  0.00    -0.774 OA
HETATM   40  H   UNL     1      10.285   6.482  94.168  1.00  0.00     0.167 HD
ENDBRANCH  37  39
ENDBRANCH  34  37
ENDBRANCH  33  34
ENDBRANCH  31  33
ENDBRANCH  26  31
ENDBRANCH  24  26
ENDBRANCH  19  22
ENDBRANCH  15  16
ENDBRANCH  11  14
ENDBRANCH   7   8
ENDBRANCH   2   7
TORSDOF 14
ENDMDL
MODEL 5
REMARK VINA RESULT:      -3.8      1.714      3.105
REMARK  14 active torsions:
REMARK  status: ('A' for Active; 'I' for Inactive)
REMARK    1  A    between atoms: O_2  and  C_18 
REMARK    2  A    between atoms: C_5  and  C_8 
REMARK    3  A    between atoms: C_5  and  O_35 
REMARK    4  A    between atoms: C_5  and  C_36 
REMARK    5  A    between atoms: N_6  and  C_11 
REMARK    6  A    between atoms: N_7  and  C_15 
REMARK       I    between atoms: N_7  and  C_24 
REMARK    7  A    between atoms: C_8  and  C_23 
REMARK    8  A    between atoms: C_11  and  C_14 
REMARK    9  A    between atoms: C_15  and  C_18 
REMARK   10  A    between atoms: C_15  and  C_23 
REMARK   11  A    between atoms: C_21  and  C_26 
REMARK   12  A    between atoms: C_24  and  C_25 
REMARK   13  A    between atoms: C_29  and  C_32 
REMARK   14  A    between atoms: C_36  and  O_39 
ROOT
HETATM    1  O   UNL     1      16.931   3.056  93.648  1.00  0.00    -0.350 OA
HETATM    2  N   UNL     1      14.169   2.433  93.354  1.00  0.00     0.147 N 
HETATM    3  C   UNL     1      15.203   1.390  93.295  1.00  0.00     0.283 C 
HETATM    4  C   UNL     1      14.721   3.715  92.894  1.00  0.00     0.283 C 
HETATM    5  C   UNL     1      16.413   1.813  94.124  1.00  0.00     0.178 C 
HETATM    6  C   UNL     1      15.942   4.083  93.731  1.00  0.00     0.178 C 
ENDROOT
BRANCH   2   7
HETATM    7  C   UNL     1      13.004   2.053  92.557  1.00  0.00     0.277 C 
BRANCH   7   8
HETATM    8  C   UNL     1      12.147   3.223  92.211  1.00  0.00     0.011 A 
HETATM    9  C   UNL     1      11.440   3.889  93.213  1.00  0.00    -0.002 A 
HETATM   10  C   UNL     1      10.636   4.982  92.889  1.00  0.00     0.008 A 
HETATM   11  C   UNL     1      10.542   5.409  91.565  1.00  0.00     0.042 A 
HETATM   12  C   UNL     1      11.247   4.745  90.565  1.00  0.00     0.008 A 
HETATM   13  C   UNL     1      12.051   3.651  90.887  1.00  0.00    -0.002 A 
BRANCH  11  14
HETATM   14  C   UNL     1       9.719   6.532  91.234  1.00  0.00    -0.059 C 
HETATM   15  C   UNL     1       9.027   7.475  90.957  1.00  0.00    -0.059 C 
BRANCH  15  16
HETATM   16  C   UNL     1       8.205   8.597  90.627  1.00  0.00     0.042 A 
HETATM   17  C   UNL     1       7.298   8.510  89.570  1.00  0.00     0.008 A 
HETATM   18  C   UNL     1       6.494   9.604  89.250  1.00  0.00     0.005 A 
HETATM   19  C   UNL     1       6.614  10.760  89.993  1.00  0.00     0.056 A 
HETATM   20  C   UNL     1       7.503  10.871  91.042  1.00  0.00     0.005 A 
HETATM   21  C   UNL     1       8.307   9.778  91.363  1.00  0.00     0.008 A 
BRANCH  19  22
HETATM   22  C   UNL     1       5.759  11.925  89.651  1.00  0.00     0.254 C 
HETATM   23  O   UNL     1       5.737  12.333  88.492  1.00  0.00    -0.268 OA
HETATM   24  N   UNL     1       5.015  12.461  90.693  1.00  0.00    -0.335 N 
HETATM   25  HN  UNL     1       5.066  12.055  91.620  1.00  0.00     0.164 HD
BRANCH  24  26
HETATM   26  C   UNL     1       4.121  13.576  90.514  1.00  0.00     0.169 C 
BRANCH  26  27
HETATM   27  C   UNL     1       2.741  13.154  89.993  1.00  0.00     0.138 C 
HETATM   28  C   UNL     1       1.733  14.297  90.020  1.00  0.00     0.034 C 
BRANCH  27  29
HETATM   29  O   UNL     1       2.863  12.674  88.655  1.00  0.00    -0.383 OA
HETATM   30  H   UNL     1       3.729  12.951  88.309  1.00  0.00     0.210 HD
ENDBRANCH  27  29
ENDBRANCH  26  27
BRANCH  26  31
HETATM   31  C   UNL     1       4.010  14.303  91.851  1.00  0.00     0.194 C 
HETATM   32  O   UNL     1       4.342  15.477  92.004  1.00  0.00    -0.289 OA
BRANCH  31  33
HETATM   33  C   UNL     1       3.539  13.485  92.849  1.00  0.00     0.053 C 
BRANCH  33  34
HETATM   34  C   UNL     1       4.317  12.353  93.127  1.00  0.00     0.220 C 
BRANCH  34  35
HETATM   35  O   UNL     1       5.228  12.698  93.903  1.00  0.00    -0.371 OA
HETATM   36  H   UNL     1       5.463  13.509  93.479  1.00  0.00     0.211 HD
ENDBRANCH  34  35
BRANCH  34  37
HETATM   37  C   UNL     1       3.572  11.271  93.627  1.00  0.00     0.185 C 
HETATM   38  O   UNL     1       4.646  10.578  93.280  1.00  0.00    -0.647 OA
BRANCH  37  39
HETATM   39  O   UNL     1       2.483  11.097  94.086  1.00  0.00    -0.774 OA
HETATM   40  H   UNL     1       2.183  10.004  94.050  1.00  0.00     0.167 HD
ENDBRANCH  37  39
ENDBRANCH  34  37
ENDBRANCH  33  34
ENDBRANCH  31  33
ENDBRANCH  26  31
ENDBRANCH  24  26
ENDBRANCH  19  22
ENDBRANCH  15  16
ENDBRANCH  11  14
ENDBRANCH   7   8
ENDBRANCH   2   7
TORSDOF 14
ENDMDL
