MODEL 1
REMARK VINA RESULT:      -7.0      0.000      0.000
REMARK  10 active torsions:
REMARK  status: ('A' for Active; 'I' for Inactive)
REMARK    1  A    between atoms: O_2  and  C_18 
REMARK    2  A    between atoms: O_5  and  N_8 
REMARK    3  A    between atoms: N_6  and  C_11 
REMARK    4  A    between atoms: N_7  and  C_15 
REMARK       I    between atoms: N_7  and  C_24 
REMARK       I    between atoms: N_8  and  C_23 
REMARK    5  A    between atoms: C_11  and  C_14 
REMARK    6  A    between atoms: C_15  and  C_18 
REMARK    7  A    between atoms: C_15  and  C_23 
REMARK    8  A    between atoms: C_21  and  C_26 
REMARK    9  A    between atoms: C_24  and  C_25 
REMARK   10  A    between atoms: C_29  and  C_32 
ROOT
HETATM    1  O   UNK     0      16.753   4.372  94.074  0.00  0.00    -0.388 OA
HETATM    2  N   UNK     0      14.846   2.620  92.892  0.00  0.00     0.096 N 
HETATM    3  C   UNK     0      14.687   4.080  92.835  0.00  0.00     0.299 C 
HETATM    4  C   UNK     0      15.591   2.242  94.100  0.00  0.00     0.299 C 
HETATM    5  C   UNK     0      16.057   4.752  92.886  0.00  0.00     0.198 C 
HETATM    6  C   UNK     0      16.939   2.957  94.123  0.00  0.00     0.198 C 
ENDROOT
BRANCH   2   7
HETATM    7  C   UNK     0      13.545   1.956  92.855  0.00  0.00     0.311 C 
BRANCH   7   8
HETATM    8  C   UNK     0      12.439   2.892  92.503  0.00  0.00    -0.030 A 
HETATM    9  C   UNK     0      11.907   3.739  93.476  0.00  0.00     0.010 A 
HETATM   10  C   UNK     0      10.871   4.614  93.148  0.00  0.00     0.021 A 
HETATM   11  C   UNK     0      10.369   4.642  91.848  0.00  0.00     0.018 A 
HETATM   12  C   UNK     0      10.900   3.797  90.875  0.00  0.00     0.021 A 
HETATM   13  C   UNK     0      11.935   2.922  91.203  0.00  0.00     0.010 A 
BRANCH  11  14
HETATM   14  C   UNK     0       9.308   5.541  91.511  0.00  0.00    -0.061 C 
HETATM   15  C   UNK     0       8.417   6.296  91.228  0.00  0.00    -0.061 C 
BRANCH  15  16
HETATM   16  C   UNK     0       7.357   7.195  90.893  0.00  0.00     0.018 A 
HETATM   17  C   UNK     0       7.278   7.730  89.607  0.00  0.00     0.022 A 
HETATM   18  C   UNK     0       6.243   8.605  89.279  0.00  0.00     0.018 A 
HETATM   19  C   UNK     0       5.310   8.925  90.243  0.00  0.00     0.032 A 
HETATM   20  C   UNK     0       5.366   8.410  91.521  0.00  0.00     0.018 A 
HETATM   21  C   UNK     0       6.401   7.536  91.850  0.00  0.00     0.022 A 
BRANCH  19  22
HETATM   22  C   UNK     0       4.208   9.859  89.894  0.00  0.00     0.252 C 
HETATM   23  O   UNK     0       3.161   9.408  89.437  0.00  0.00    -0.268 OA
HETATM   24  N   UNK     0       4.450  11.204  90.141  0.00  0.00    -0.341 N 
HETATM   25  H   UNK     0       5.331  11.501  90.544  0.00  0.00     0.163 HD
BRANCH  24  26
HETATM   26  C   UNK     0       3.471  12.228  89.878  0.00  0.00     0.207 C 
BRANCH  26  27
HETATM   27  C   UNK     0       2.980  12.921  91.156  0.00  0.00     0.146 C 
HETATM   28  C   UNK     0       2.226  11.973  92.082  0.00  0.00     0.042 C 
BRANCH  27  29
HETATM   29  O   UNK     0       4.094  13.469  91.860  0.00  0.00    -0.393 OA
HETATM   30  H   UNK     0       4.727  13.815  91.208  0.00  0.00     0.210 HD
ENDBRANCH  27  29
ENDBRANCH  26  27
BRANCH  26  31
HETATM   31  C   UNK     0       4.092  13.228  88.909  0.00  0.00     0.266 C 
HETATM   32  O   UNK     0       4.345  14.392  89.217  0.00  0.00    -0.269 OA
HETATM   33  N   UNK     0       4.294  12.686  87.662  0.00  0.00    -0.236 N 
HETATM   34  H   UNK     0       4.016  11.763  87.350  0.00  0.00     0.197 HD
BRANCH  33  35
HETATM   35  O   UNK     0       4.828  13.554  86.699  0.00  0.00    -0.287 OA
HETATM   36  H   UNK     0       5.775  13.481  86.905  0.00  0.00     0.244 HD
ENDBRANCH  33  35
ENDBRANCH  26  31
ENDBRANCH  24  26
ENDBRANCH  19  22
ENDBRANCH  15  16
ENDBRANCH  11  14
ENDBRANCH   7   8
ENDBRANCH   2   7
TORSDOF 10
ENDMDL
