MODEL 1
REMARK VINA RESULT:      -7.0      0.000      0.000
REMARK  10 active torsions:
REMARK  status: ('A' for Active; 'I' for Inactive)
REMARK    1  A    between atoms: O_2  and  C_18 
REMARK    2  A    between atoms: O_5  and  N_8 
REMARK    3  A    between atoms: N_6  and  C_11 
REMARK    4  A    between atoms: N_7  and  C_15 
REMARK       I    between atoms: N_7  and  C_24 
REMARK       I    between atoms: N_8  and  C_23 
REMARK    5  A    between atoms: C_11  and  C_14 
REMARK    6  A    between atoms: C_15  and  C_18 
REMARK    7  A    between atoms: C_15  and  C_23 
REMARK    8  A    between atoms: C_21  and  C_26 
REMARK    9  A    between atoms: C_24  and  C_25 
REMARK   10  A    between atoms: C_29  and  C_32 
ROOT
HETATM    1  O   UNK     0      16.942   4.424  94.118  0.00  0.00    -0.388 OA
HETATM    2  N   UNK     0      15.039   2.711  92.874  0.00  0.00     0.096 N 
HETATM    3  C   UNK     0      14.881   4.172  92.861  0.00  0.00     0.299 C 
HETATM    4  C   UNK     0      15.779   2.295  94.072  0.00  0.00     0.299 C 
HETATM    5  C   UNK     0      16.250   4.841  92.939  0.00  0.00     0.198 C 
HETATM    6  C   UNK     0      17.127   3.009  94.122  0.00  0.00     0.198 C 
ENDROOT
BRANCH   2   7
HETATM    7  C   UNK     0      13.738   2.049  92.811  0.00  0.00     0.311 C 
BRANCH   7   8
HETATM    8  C   UNK     0      12.642   2.984  92.428  0.00  0.00    -0.030 A 
HETATM    9  C   UNK     0      12.017   3.762  93.404  0.00  0.00     0.010 A 
HETATM   10  C   UNK     0      10.990   4.635  93.047  0.00  0.00     0.021 A 
HETATM   11  C   UNK     0      10.591   4.733  91.714  0.00  0.00     0.018 A 
HETATM   12  C   UNK     0      11.215   3.957  90.739  0.00  0.00     0.021 A 
HETATM   13  C   UNK     0      12.241   3.083  91.096  0.00  0.00     0.010 A 
BRANCH  11  14
HETATM   14  C   UNK     0       9.539   5.631  91.348  0.00  0.00    -0.061 C 
HETATM   15  C   UNK     0       8.655   6.386  91.039  0.00  0.00    -0.061 C 
BRANCH  15  16
HETATM   16  C   UNK     0       7.606   7.284  90.673  0.00  0.00     0.018 A 
HETATM   17  C   UNK     0       6.587   6.854  89.821  0.00  0.00     0.022 A 
HETATM   18  C   UNK     0       5.562   7.730  89.464  0.00  0.00     0.018 A 
HETATM   19  C   UNK     0       5.576   9.014  89.967  0.00  0.00     0.032 A 
HETATM   20  C   UNK     0       6.571   9.463  90.811  0.00  0.00     0.018 A 
HETATM   21  C   UNK     0       7.597   8.588  91.167  0.00  0.00     0.022 A 
BRANCH  19  22
HETATM   22  C   UNK     0       4.484   9.946  89.586  0.00  0.00     0.252 C 
HETATM   23  O   UNK     0       3.615   9.565  88.806  0.00  0.00    -0.268 OA
HETATM   24  N   UNK     0       4.523  11.202  90.177  0.00  0.00    -0.341 N 
HETATM   25  H   UNK     0       5.259  11.438  90.832  0.00  0.00     0.163 HD
BRANCH  24  26
HETATM   26  C   UNK     0       3.522  12.208  89.927  0.00  0.00     0.207 C 
BRANCH  26  27
HETATM   27  C   UNK     0       3.028  12.885  91.211  0.00  0.00     0.146 C 
HETATM   28  C   UNK     0       2.142  11.971  92.050  0.00  0.00     0.042 C 
BRANCH  27  29
HETATM   29  O   UNK     0       4.147  13.295  91.996  0.00  0.00    -0.393 OA
HETATM   30  H   UNK     0       4.771  12.551  92.048  0.00  0.00     0.210 HD
ENDBRANCH  27  29
ENDBRANCH  26  27
BRANCH  26  31
HETATM   31  C   UNK     0       4.115  13.224  88.956  0.00  0.00     0.266 C 
HETATM   32  O   UNK     0       4.315  14.399  89.257  0.00  0.00    -0.269 OA
HETATM   33  N   UNK     0       4.356  12.680  87.718  0.00  0.00    -0.236 N 
HETATM   34  H   UNK     0       4.121  11.743  87.411  0.00  0.00     0.197 HD
BRANCH  33  35
HETATM   35  O   UNK     0       4.868  13.560  86.754  0.00  0.00    -0.287 OA
HETATM   36  H   UNK     0       4.102  13.630  86.159  0.00  0.00     0.244 HD
ENDBRANCH  33  35
ENDBRANCH  26  31
ENDBRANCH  24  26
ENDBRANCH  19  22
ENDBRANCH  15  16
ENDBRANCH  11  14
ENDBRANCH   7   8
ENDBRANCH   2   7
TORSDOF 10
ENDMDL
MODEL 2
REMARK VINA RESULT:      -6.1      1.955      2.705
REMARK  10 active torsions:
REMARK  status: ('A' for Active; 'I' for Inactive)
REMARK    1  A    between atoms: O_2  and  C_18 
REMARK    2  A    between atoms: O_5  and  N_8 
REMARK    3  A    between atoms: N_6  and  C_11 
REMARK    4  A    between atoms: N_7  and  C_15 
REMARK       I    between atoms: N_7  and  C_24 
REMARK       I    between atoms: N_8  and  C_23 
REMARK    5  A    between atoms: C_11  and  C_14 
REMARK    6  A    between atoms: C_15  and  C_18 
REMARK    7  A    between atoms: C_15  and  C_23 
REMARK    8  A    between atoms: C_21  and  C_26 
REMARK    9  A    between atoms: C_24  and  C_25 
REMARK   10  A    between atoms: C_29  and  C_32 
ROOT
HETATM    1  O   UNK     0      16.249   2.990  93.826  0.00  0.00    -0.388 OA
HETATM    2  N   UNK     0      13.665   3.111  92.638  0.00  0.00     0.096 N 
HETATM    3  C   UNK     0      14.310   1.827  92.946  0.00  0.00     0.299 C 
HETATM    4  C   UNK     0      14.684   4.133  92.366  0.00  0.00     0.299 C 
HETATM    5  C   UNK     0      15.266   1.997  94.124  0.00  0.00     0.198 C 
HETATM    6  C   UNK     0      15.632   4.250  93.556  0.00  0.00     0.198 C 
ENDROOT
BRANCH   2   7
HETATM    7  C   UNK     0      12.752   2.973  91.505  0.00  0.00     0.311 C 
BRANCH   7   8
HETATM    8  C   UNK     0      11.607   3.925  91.580  0.00  0.00    -0.030 A 
HETATM    9  C   UNK     0      11.121   4.334  92.822  0.00  0.00     0.010 A 
HETATM   10  C   UNK     0      10.049   5.223  92.894  0.00  0.00     0.021 A 
HETATM   11  C   UNK     0       9.464   5.703  91.722  0.00  0.00     0.018 A 
HETATM   12  C   UNK     0       9.948   5.296  90.481  0.00  0.00     0.021 A 
HETATM   13  C   UNK     0      11.020   4.406  90.410  0.00  0.00     0.010 A 
BRANCH  11  14
HETATM   14  C   UNK     0       8.365   6.617  91.795  0.00  0.00    -0.061 C 
HETATM   15  C   UNK     0       7.441   7.384  91.856  0.00  0.00    -0.061 C 
BRANCH  15  16
HETATM   16  C   UNK     0       6.344   8.297  91.928  0.00  0.00     0.018 A 
HETATM   17  C   UNK     0       6.534   9.641  91.606  0.00  0.00     0.022 A 
HETATM   18  C   UNK     0       5.463  10.532  91.674  0.00  0.00     0.018 A 
HETATM   19  C   UNK     0       4.227  10.060  92.062  0.00  0.00     0.032 A 
HETATM   20  C   UNK     0       4.013   8.737  92.386  0.00  0.00     0.018 A 
HETATM   21  C   UNK     0       5.083   7.845  92.319  0.00  0.00     0.022 A 
BRANCH  19  22
HETATM   22  C   UNK     0       3.087  11.010  92.136  0.00  0.00     0.252 C 
HETATM   23  O   UNK     0       1.980  10.652  91.739  0.00  0.00    -0.268 OA
HETATM   24  N   UNK     0       3.366  12.253  92.686  0.00  0.00    -0.341 N 
HETATM   25  H   UNK     0       4.299  12.470  93.016  0.00  0.00     0.163 HD
BRANCH  24  26
HETATM   26  C   UNK     0       2.361  13.273  92.848  0.00  0.00     0.207 C 
BRANCH  26  27
HETATM   27  C   UNK     0       2.723  14.296  93.933  0.00  0.00     0.146 C 
HETATM   28  C   UNK     0       4.178  14.744  93.851  0.00  0.00     0.042 C 
BRANCH  27  29
HETATM   29  O   UNK     0       1.878  15.440  93.811  0.00  0.00    -0.393 OA
HETATM   30  H   UNK     0       1.340  15.509  94.617  0.00  0.00     0.210 HD
ENDBRANCH  27  29
ENDBRANCH  26  27
BRANCH  26  31
HETATM   31  C   UNK     0       2.159  13.948  91.495  0.00  0.00     0.266 C 
HETATM   32  O   UNK     0       1.253  14.750  91.275  0.00  0.00    -0.269 OA
HETATM   33  N   UNK     0       3.075  13.524  90.563  0.00  0.00    -0.236 N 
HETATM   34  H   UNK     0       3.775  12.802  90.684  0.00  0.00     0.197 HD
BRANCH  33  35
HETATM   35  O   UNK     0       2.934  14.069  89.279  0.00  0.00    -0.287 OA
HETATM   36  H   UNK     0       3.065  13.273  88.736  0.00  0.00     0.244 HD
ENDBRANCH  33  35
ENDBRANCH  26  31
ENDBRANCH  24  26
ENDBRANCH  19  22
ENDBRANCH  15  16
ENDBRANCH  11  14
ENDBRANCH   7   8
ENDBRANCH   2   7
TORSDOF 10
ENDMDL
MODEL 3
REMARK VINA RESULT:      -5.7      2.010      3.367
REMARK  10 active torsions:
REMARK  status: ('A' for Active; 'I' for Inactive)
REMARK    1  A    between atoms: O_2  and  C_18 
REMARK    2  A    between atoms: O_5  and  N_8 
REMARK    3  A    between atoms: N_6  and  C_11 
REMARK    4  A    between atoms: N_7  and  C_15 
REMARK       I    between atoms: N_7  and  C_24 
REMARK       I    between atoms: N_8  and  C_23 
REMARK    5  A    between atoms: C_11  and  C_14 
REMARK    6  A    between atoms: C_15  and  C_18 
REMARK    7  A    between atoms: C_15  and  C_23 
REMARK    8  A    between atoms: C_21  and  C_26 
REMARK    9  A    between atoms: C_24  and  C_25 
REMARK   10  A    between atoms: C_29  and  C_32 
ROOT
HETATM    1  O   UNK     0      16.603   3.703  94.053  0.00  0.00    -0.388 OA
HETATM    2  N   UNK     0      14.131   2.887  92.902  0.00  0.00     0.096 N 
HETATM    3  C   UNK     0      14.318   4.242  93.439  0.00  0.00     0.299 C 
HETATM    4  C   UNK     0      14.996   1.939  93.617  0.00  0.00     0.299 C 
HETATM    5  C   UNK     0      15.789   4.638  93.342  0.00  0.00     0.198 C 
HETATM    6  C   UNK     0      16.451   2.389  93.517  0.00  0.00     0.198 C 
ENDROOT
BRANCH   2   7
HETATM    7  C   UNK     0      12.729   2.483  92.995  0.00  0.00     0.311 C 
BRANCH   7   8
HETATM    8  C   UNK     0      11.799   3.648  92.975  0.00  0.00    -0.030 A 
HETATM    9  C   UNK     0      11.109   3.968  91.805  0.00  0.00     0.010 A 
HETATM   10  C   UNK     0      10.240   5.059  91.785  0.00  0.00     0.021 A 
HETATM   11  C   UNK     0      10.061   5.828  92.935  0.00  0.00     0.018 A 
HETATM   12  C   UNK     0      10.750   5.508  94.104  0.00  0.00     0.021 A 
HETATM   13  C   UNK     0      11.619   4.418  94.124  0.00  0.00     0.010 A 
BRANCH  11  14
HETATM   14  C   UNK     0       9.168   6.946  92.915  0.00  0.00    -0.061 C 
HETATM   15  C   UNK     0       8.418   7.885  92.897  0.00  0.00    -0.061 C 
BRANCH  15  16
HETATM   16  C   UNK     0       7.528   9.002  92.878  0.00  0.00     0.018 A 
HETATM   17  C   UNK     0       6.959   9.461  94.067  0.00  0.00     0.022 A 
HETATM   18  C   UNK     0       6.092  10.553  94.049  0.00  0.00     0.018 A 
HETATM   19  C   UNK     0       5.812  11.162  92.844  0.00  0.00     0.032 A 
HETATM   20  C   UNK     0       6.360  10.728  91.655  0.00  0.00     0.018 A 
HETATM   21  C   UNK     0       7.227   9.636  91.673  0.00  0.00     0.022 A 
BRANCH  19  22
HETATM   22  C   UNK     0       4.885  12.324  92.825  0.00  0.00     0.252 C 
HETATM   23  O   UNK     0       4.383  12.707  93.878  0.00  0.00    -0.268 OA
HETATM   24  N   UNK     0       4.675  12.913  91.586  0.00  0.00    -0.341 N 
HETATM   25  H   UNK     0       5.145  12.557  90.762  0.00  0.00     0.163 HD
BRANCH  24  26
HETATM   26  C   UNK     0       3.824  14.062  91.409  0.00  0.00     0.207 C 
BRANCH  26  27
HETATM   27  C   UNK     0       3.571  14.391  89.932  0.00  0.00     0.146 C 
HETATM   28  C   UNK     0       4.848  14.767  89.190  0.00  0.00     0.042 C 
BRANCH  27  29
HETATM   29  O   UNK     0       2.975  13.265  89.288  0.00  0.00    -0.393 OA
HETATM   30  H   UNK     0       2.470  12.766  89.952  0.00  0.00     0.210 HD
ENDBRANCH  27  29
ENDBRANCH  26  27
BRANCH  26  31
HETATM   31  C   UNK     0       2.518  13.794  92.149  0.00  0.00     0.266 C 
HETATM   32  O   UNK     0       1.680  12.984  91.756  0.00  0.00    -0.269 OA
HETATM   33  N   UNK     0       2.383  14.582  93.266  0.00  0.00    -0.236 N 
HETATM   34  H   UNK     0       3.010  15.319  93.568  0.00  0.00     0.197 HD
BRANCH  33  35
HETATM   35  O   UNK     0       1.189  14.424  93.984  0.00  0.00    -0.287 OA
HETATM   36  H   UNK     0       1.483  13.808  94.677  0.00  0.00     0.244 HD
ENDBRANCH  33  35
ENDBRANCH  26  31
ENDBRANCH  24  26
ENDBRANCH  19  22
ENDBRANCH  15  16
ENDBRANCH  11  14
ENDBRANCH   7   8
ENDBRANCH   2   7
TORSDOF 10
ENDMDL
MODEL 4
REMARK VINA RESULT:      -5.6      2.979     12.281
REMARK  10 active torsions:
REMARK  status: ('A' for Active; 'I' for Inactive)
REMARK    1  A    between atoms: O_2  and  C_18 
REMARK    2  A    between atoms: O_5  and  N_8 
REMARK    3  A    between atoms: N_6  and  C_11 
REMARK    4  A    between atoms: N_7  and  C_15 
REMARK       I    between atoms: N_7  and  C_24 
REMARK       I    between atoms: N_8  and  C_23 
REMARK    5  A    between atoms: C_11  and  C_14 
REMARK    6  A    between atoms: C_15  and  C_18 
REMARK    7  A    between atoms: C_15  and  C_23 
REMARK    8  A    between atoms: C_21  and  C_26 
REMARK    9  A    between atoms: C_24  and  C_25 
REMARK   10  A    between atoms: C_29  and  C_32 
ROOT
HETATM    1  O   UNK     0       3.081  14.887  94.121  0.00  0.00    -0.388 OA
HETATM    2  N   UNK     0       2.776  14.790  91.292  0.00  0.00     0.096 N 
HETATM    3  C   UNK     0       1.828  14.116  92.190  0.00  0.00     0.299 C 
HETATM    4  C   UNK     0       4.102  14.859  91.920  0.00  0.00     0.299 C 
HETATM    5  C   UNK     0       1.780  14.844  93.531  0.00  0.00     0.198 C 
HETATM    6  C   UNK     0       4.001  15.568  93.267  0.00  0.00     0.198 C 
ENDROOT
BRANCH   2   7
HETATM    7  C   UNK     0       2.846  14.103  90.004  0.00  0.00     0.311 C 
BRANCH   7   8
HETATM    8  C   UNK     0       3.844  12.996  90.004  0.00  0.00    -0.030 A 
HETATM    9  C   UNK     0       3.614  11.851  90.769  0.00  0.00     0.010 A 
HETATM   10  C   UNK     0       4.548  10.815  90.772  0.00  0.00     0.021 A 
HETATM   11  C   UNK     0       5.711  10.924  90.009  0.00  0.00     0.018 A 
HETATM   12  C   UNK     0       5.941  12.066  89.246  0.00  0.00     0.021 A 
HETATM   13  C   UNK     0       5.008  13.103  89.243  0.00  0.00     0.010 A 
BRANCH  11  14
HETATM   14  C   UNK     0       6.668   9.860  90.011  0.00  0.00    -0.061 C 
HETATM   15  C   UNK     0       7.472   8.966  90.013  0.00  0.00    -0.061 C 
BRANCH  15  16
HETATM   16  C   UNK     0       8.429   7.905  90.014  0.00  0.00     0.018 A 
HETATM   17  C   UNK     0       9.251   7.707  88.904  0.00  0.00     0.022 A 
HETATM   18  C   UNK     0      10.187   6.672  88.907  0.00  0.00     0.018 A 
HETATM   19  C   UNK     0      10.280   5.860  90.017  0.00  0.00     0.032 A 
HETATM   20  C   UNK     0       9.479   6.035  91.126  0.00  0.00     0.018 A 
HETATM   21  C   UNK     0       8.542   7.069  91.124  0.00  0.00     0.022 A 
BRANCH  19  22
HETATM   22  C   UNK     0      11.275   4.757  90.018  0.00  0.00     0.252 C 
HETATM   23  O   UNK     0      11.427   4.085  89.001  0.00  0.00    -0.268 OA
HETATM   24  N   UNK     0      11.991   4.585  91.195  0.00  0.00    -0.341 N 
HETATM   25  H   UNK     0      11.829   5.195  91.988  0.00  0.00     0.163 HD
BRANCH  24  26
HETATM   26  C   UNK     0      13.008   3.575  91.344  0.00  0.00     0.207 C 
BRANCH  26  27
HETATM   27  C   UNK     0      14.174   4.032  92.228  0.00  0.00     0.146 C 
HETATM   28  C   UNK     0      13.754   4.263  93.676  0.00  0.00     0.042 C 
BRANCH  27  29
HETATM   29  O   UNK     0      15.210   3.050  92.198  0.00  0.00    -0.393 OA
HETATM   30  H   UNK     0      15.610   3.001  93.082  0.00  0.00     0.210 HD
ENDBRANCH  27  29
ENDBRANCH  26  27
BRANCH  26  31
HETATM   31  C   UNK     0      12.342   2.323  91.907  0.00  0.00     0.266 C 
HETATM   32  O   UNK     0      12.897   1.226  91.940  0.00  0.00    -0.269 OA
HETATM   33  N   UNK     0      11.056   2.564  92.328  0.00  0.00    -0.236 N 
HETATM   34  H   UNK     0      10.539   3.430  92.234  0.00  0.00     0.197 HD
BRANCH  33  35
HETATM   35  O   UNK     0      10.359   1.454  92.825  0.00  0.00    -0.287 OA
HETATM   36  H   UNK     0      10.850   1.295  93.650  0.00  0.00     0.244 HD
ENDBRANCH  33  35
ENDBRANCH  26  31
ENDBRANCH  24  26
ENDBRANCH  19  22
ENDBRANCH  15  16
ENDBRANCH  11  14
ENDBRANCH   7   8
ENDBRANCH   2   7
TORSDOF 10
ENDMDL
MODEL 5
REMARK VINA RESULT:      -5.1      1.998     12.407
REMARK  10 active torsions:
REMARK  status: ('A' for Active; 'I' for Inactive)
REMARK    1  A    between atoms: O_2  and  C_18 
REMARK    2  A    between atoms: O_5  and  N_8 
REMARK    3  A    between atoms: N_6  and  C_11 
REMARK    4  A    between atoms: N_7  and  C_15 
REMARK       I    between atoms: N_7  and  C_24 
REMARK       I    between atoms: N_8  and  C_23 
REMARK    5  A    between atoms: C_11  and  C_14 
REMARK    6  A    between atoms: C_15  and  C_18 
REMARK    7  A    between atoms: C_15  and  C_23 
REMARK    8  A    between atoms: C_21  and  C_26 
REMARK    9  A    between atoms: C_24  and  C_25 
REMARK   10  A    between atoms: C_29  and  C_32 
ROOT
HETATM    1  O   UNK     0       5.700  15.055  89.175  0.00  0.00    -0.388 OA
HETATM    2  N   UNK     0       3.623  13.389  90.181  0.00  0.00     0.096 N 
HETATM    3  C   UNK     0       4.201  14.471  90.991  0.00  0.00     0.299 C 
HETATM    4  C   UNK     0       4.624  12.881  89.233  0.00  0.00     0.299 C 
HETATM    5  C   UNK     0       4.724  15.577  90.079  0.00  0.00     0.198 C 
HETATM    6  C   UNK     0       5.138  14.024  88.362  0.00  0.00     0.198 C 
ENDROOT
BRANCH   2   7
HETATM    7  C   UNK     0       3.124  12.313  91.036  0.00  0.00     0.311 C 
BRANCH   7   8
HETATM    8  C   UNK     0       4.151  11.260  91.281  0.00  0.00    -0.030 A 
HETATM    9  C   UNK     0       5.065  11.409  92.325  0.00  0.00     0.010 A 
HETATM   10  C   UNK     0       6.027  10.426  92.554  0.00  0.00     0.021 A 
HETATM   11  C   UNK     0       6.074   9.294  91.741  0.00  0.00     0.018 A 
HETATM   12  C   UNK     0       5.162   9.144  90.699  0.00  0.00     0.021 A 
HETATM   13  C   UNK     0       4.199  10.127  90.469  0.00  0.00     0.010 A 
BRANCH  11  14
HETATM   14  C   UNK     0       7.060   8.284  91.978  0.00  0.00    -0.061 C 
HETATM   15  C   UNK     0       7.888   7.436  92.177  0.00  0.00    -0.061 C 
BRANCH  15  16
HETATM   16  C   UNK     0       8.872   6.427  92.414  0.00  0.00     0.018 A 
HETATM   17  C   UNK     0       9.032   5.381  91.504  0.00  0.00     0.022 A 
HETATM   18  C   UNK     0       9.993   4.398  91.735  0.00  0.00     0.018 A 
HETATM   19  C   UNK     0      10.774   4.481  92.868  0.00  0.00     0.032 A 
HETATM   20  C   UNK     0      10.636   5.504  93.783  0.00  0.00     0.018 A 
HETATM   21  C   UNK     0       9.674   6.488  93.554  0.00  0.00     0.022 A 
BRANCH  19  22
HETATM   22  C   UNK     0      11.797   3.432  93.114  0.00  0.00     0.252 C 
HETATM   23  O   UNK     0      11.515   2.257  92.897  0.00  0.00    -0.268 OA
HETATM   24  N   UNK     0      13.033   3.881  93.560  0.00  0.00    -0.341 N 
HETATM   25  H   UNK     0      13.202   4.871  93.693  0.00  0.00     0.163 HD
BRANCH  24  26
HETATM   26  C   UNK     0      14.134   2.988  93.820  0.00  0.00     0.207 C 
BRANCH  26  27
HETATM   27  C   UNK     0      14.228   1.848  92.798  0.00  0.00     0.146 C 
HETATM   28  C   UNK     0      14.990   2.252  91.540  0.00  0.00     0.042 C 
BRANCH  27  29
HETATM   29  O   UNK     0      14.879   0.726  93.393  0.00  0.00    -0.393 OA
HETATM   30  H   UNK     0      15.435   1.048  94.122  0.00  0.00     0.210 HD
ENDBRANCH  27  29
ENDBRANCH  26  27
BRANCH  26  31
HETATM   31  C   UNK     0      15.412   3.820  93.841  0.00  0.00     0.266 C 
HETATM   32  O   UNK     0      15.427   5.032  93.632  0.00  0.00    -0.269 OA
HETATM   33  N   UNK     0      16.527   3.053  94.081  0.00  0.00    -0.236 N 
HETATM   34  H   UNK     0      16.561   2.044  94.169  0.00  0.00     0.197 HD
BRANCH  33  35
HETATM   35  O   UNK     0      17.750   3.737  94.080  0.00  0.00    -0.287 OA
HETATM   36  H   UNK     0      17.443   4.643  93.903  0.00  0.00     0.244 HD
ENDBRANCH  33  35
ENDBRANCH  26  31
ENDBRANCH  24  26
ENDBRANCH  19  22
ENDBRANCH  15  16
ENDBRANCH  11  14
ENDBRANCH   7   8
ENDBRANCH   2   7
TORSDOF 10
ENDMDL
MODEL 6
REMARK VINA RESULT:      -5.1      2.114     12.498
REMARK  10 active torsions:
REMARK  status: ('A' for Active; 'I' for Inactive)
REMARK    1  A    between atoms: O_2  and  C_18 
REMARK    2  A    between atoms: O_5  and  N_8 
REMARK    3  A    between atoms: N_6  and  C_11 
REMARK    4  A    between atoms: N_7  and  C_15 
REMARK       I    between atoms: N_7  and  C_24 
REMARK       I    between atoms: N_8  and  C_23 
REMARK    5  A    between atoms: C_11  and  C_14 
REMARK    6  A    between atoms: C_15  and  C_18 
REMARK    7  A    between atoms: C_15  and  C_23 
REMARK    8  A    between atoms: C_21  and  C_26 
REMARK    9  A    between atoms: C_24  and  C_25 
REMARK   10  A    between atoms: C_29  and  C_32 
ROOT
HETATM    1  O   UNK     0       3.338  14.483  92.210  0.00  0.00    -0.388 OA
HETATM    2  N   UNK     0       3.890  13.932  89.473  0.00  0.00     0.096 N 
HETATM    3  C   UNK     0       2.899  13.152  90.229  0.00  0.00     0.299 C 
HETATM    4  C   UNK     0       4.928  14.439  90.379  0.00  0.00     0.299 C 
HETATM    5  C   UNK     0       2.306  14.012  91.342  0.00  0.00     0.198 C 
HETATM    6  C   UNK     0       4.288  15.268  91.489  0.00  0.00     0.198 C 
ENDROOT
BRANCH   2   7
HETATM    7  C   UNK     0       4.480  13.124  88.407  0.00  0.00     0.311 C 
BRANCH   7   8
HETATM    8  C   UNK     0       5.336  12.024  88.936  0.00  0.00    -0.030 A 
HETATM    9  C   UNK     0       6.726  12.133  88.875  0.00  0.00     0.010 A 
HETATM   10  C   UNK     0       7.528  11.103  89.368  0.00  0.00     0.021 A 
HETATM   11  C   UNK     0       6.940   9.967  89.922  0.00  0.00     0.018 A 
HETATM   12  C   UNK     0       5.552   9.857  89.983  0.00  0.00     0.021 A 
HETATM   13  C   UNK     0       4.749  10.886  89.490  0.00  0.00     0.010 A 
BRANCH  11  14
HETATM   14  C   UNK     0       7.763   8.912  90.429  0.00  0.00    -0.061 C 
HETATM   15  C   UNK     0       8.454   8.025  90.854  0.00  0.00    -0.061 C 
BRANCH  15  16
HETATM   16  C   UNK     0       9.275   6.971  91.360  0.00  0.00     0.018 A 
HETATM   17  C   UNK     0       9.993   6.162  90.478  0.00  0.00     0.022 A 
HETATM   18  C   UNK     0      10.796   5.134  90.972  0.00  0.00     0.018 A 
HETATM   19  C   UNK     0      10.864   4.937  92.335  0.00  0.00     0.032 A 
HETATM   20  C   UNK     0      10.164   5.722  93.228  0.00  0.00     0.018 A 
HETATM   21  C   UNK     0       9.360   6.750  92.735  0.00  0.00     0.022 A 
BRANCH  19  22
HETATM   22  C   UNK     0      11.718   3.841  92.860  0.00  0.00     0.252 C 
HETATM   23  O   UNK     0      11.247   2.711  92.964  0.00  0.00    -0.268 OA
HETATM   24  N   UNK     0      13.024   4.186  93.178  0.00  0.00    -0.341 N 
HETATM   25  H   UNK     0      13.351   5.136  93.043  0.00  0.00     0.163 HD
BRANCH  24  26
HETATM   26  C   UNK     0      13.980   3.230  93.676  0.00  0.00     0.207 C 
BRANCH  26  27
HETATM   27  C   UNK     0      14.055   1.963  92.814  0.00  0.00     0.146 C 
HETATM   28  C   UNK     0      14.713   2.214  91.462  0.00  0.00     0.042 C 
BRANCH  27  29
HETATM   29  O   UNK     0      14.792   0.956  93.509  0.00  0.00    -0.393 OA
HETATM   30  H   UNK     0      14.290   0.125  93.464  0.00  0.00     0.210 HD
ENDBRANCH  27  29
ENDBRANCH  26  27
BRANCH  26  31
HETATM   31  C   UNK     0      15.335   3.925  93.757  0.00  0.00     0.266 C 
HETATM   32  O   UNK     0      15.487   5.125  93.535  0.00  0.00    -0.269 OA
HETATM   33  N   UNK     0      16.349   3.051  94.067  0.00  0.00    -0.236 N 
HETATM   34  H   UNK     0      16.274   2.046  94.168  0.00  0.00     0.197 HD
BRANCH  33  35
HETATM   35  O   UNK     0      17.636   3.606  94.124  0.00  0.00    -0.287 OA
HETATM   36  H   UNK     0      17.472   4.470  93.710  0.00  0.00     0.244 HD
ENDBRANCH  33  35
ENDBRANCH  26  31
ENDBRANCH  24  26
ENDBRANCH  19  22
ENDBRANCH  15  16
ENDBRANCH  11  14
ENDBRANCH   7   8
ENDBRANCH   2   7
TORSDOF 10
ENDMDL
MODEL 7
REMARK VINA RESULT:      -4.6      2.271     12.443
REMARK  10 active torsions:
REMARK  status: ('A' for Active; 'I' for Inactive)
REMARK    1  A    between atoms: O_2  and  C_18 
REMARK    2  A    between atoms: O_5  and  N_8 
REMARK    3  A    between atoms: N_6  and  C_11 
REMARK    4  A    between atoms: N_7  and  C_15 
REMARK       I    between atoms: N_7  and  C_24 
REMARK       I    between atoms: N_8  and  C_23 
REMARK    5  A    between atoms: C_11  and  C_14 
REMARK    6  A    between atoms: C_15  and  C_18 
REMARK    7  A    between atoms: C_15  and  C_23 
REMARK    8  A    between atoms: C_21  and  C_26 
REMARK    9  A    between atoms: C_24  and  C_25 
REMARK   10  A    between atoms: C_29  and  C_32 
ROOT
HETATM    1  O   UNK     0       4.598  14.831  89.621  0.00  0.00    -0.388 OA
HETATM    2  N   UNK     0       3.164  13.660  91.784  0.00  0.00     0.096 N 
HETATM    3  C   UNK     0       4.130  14.745  92.001  0.00  0.00     0.299 C 
HETATM    4  C   UNK     0       3.544  12.877  90.601  0.00  0.00     0.299 C 
HETATM    5  C   UNK     0       4.218  15.618  90.752  0.00  0.00     0.198 C 
HETATM    6  C   UNK     0       3.647  13.792  89.384  0.00  0.00     0.198 C 
ENDROOT
BRANCH   2   7
HETATM    7  C   UNK     0       3.071  12.804  92.965  0.00  0.00     0.311 C 
BRANCH   7   8
HETATM    8  C   UNK     0       4.085  11.711  92.956  0.00  0.00    -0.030 A 
HETATM    9  C   UNK     0       3.777  10.481  92.373  0.00  0.00     0.010 A 
HETATM   10  C   UNK     0       4.724   9.457  92.365  0.00  0.00     0.021 A 
HETATM   11  C   UNK     0       5.978   9.664  92.939  0.00  0.00     0.018 A 
HETATM   12  C   UNK     0       6.286  10.892  93.520  0.00  0.00     0.021 A 
HETATM   13  C   UNK     0       5.340  11.916  93.529  0.00  0.00     0.010 A 
BRANCH  11  14
HETATM   14  C   UNK     0       6.950   8.614  92.929  0.00  0.00    -0.061 C 
HETATM   15  C   UNK     0       7.767   7.732  92.921  0.00  0.00    -0.061 C 
BRANCH  15  16
HETATM   16  C   UNK     0       8.738   6.684  92.910  0.00  0.00     0.018 A 
HETATM   17  C   UNK     0       8.864   5.862  91.788  0.00  0.00     0.022 A 
HETATM   18  C   UNK     0       9.813   4.840  91.776  0.00  0.00     0.018 A 
HETATM   19  C   UNK     0      10.615   4.662  92.884  0.00  0.00     0.032 A 
HETATM   20  C   UNK     0      10.510   5.460  94.005  0.00  0.00     0.018 A 
HETATM   21  C   UNK     0       9.561   6.481  94.017  0.00  0.00     0.022 A 
BRANCH  19  22
HETATM   22  C   UNK     0      11.624   3.572  92.872  0.00  0.00     0.252 C 
HETATM   23  O   UNK     0      11.246   2.404  92.913  0.00  0.00    -0.268 OA
HETATM   24  N   UNK     0      12.951   3.973  92.788  0.00  0.00    -0.341 N 
HETATM   25  H   UNK     0      13.187   4.956  92.732  0.00  0.00     0.163 HD
BRANCH  24  26
HETATM   26  C   UNK     0      14.043   3.034  92.741  0.00  0.00     0.207 C 
BRANCH  26  27
HETATM   27  C   UNK     0      14.425   2.639  91.309  0.00  0.00     0.146 C 
HETATM   28  C   UNK     0      14.047   3.706  90.288  0.00  0.00     0.042 C 
BRANCH  27  29
HETATM   29  O   UNK     0      15.831   2.406  91.237  0.00  0.00    -0.393 OA
HETATM   30  H   UNK     0      16.132   2.630  90.341  0.00  0.00     0.210 HD
ENDBRANCH  27  29
ENDBRANCH  26  27
BRANCH  26  31
HETATM   31  C   UNK     0      15.224   3.656  93.478  0.00  0.00     0.266 C 
HETATM   32  O   UNK     0      15.190   4.785  93.964  0.00  0.00    -0.269 OA
HETATM   33  N   UNK     0      16.320   2.828  93.496  0.00  0.00    -0.236 N 
HETATM   34  H   UNK     0      16.411   1.932  93.031  0.00  0.00     0.197 HD
BRANCH  33  35
HETATM   35  O   UNK     0      17.463   3.342  94.124  0.00  0.00    -0.287 OA
HETATM   36  H   UNK     0      18.151   3.038  93.508  0.00  0.00     0.244 HD
ENDBRANCH  33  35
ENDBRANCH  26  31
ENDBRANCH  24  26
ENDBRANCH  19  22
ENDBRANCH  15  16
ENDBRANCH  11  14
ENDBRANCH   7   8
ENDBRANCH   2   7
TORSDOF 10
ENDMDL
