MODEL 1
REMARK VINA RESULT:      -7.0      0.000      0.000
REMARK  9 active torsions:
REMARK  status: ('A' for Active; 'I' for Inactive)
REMARK    1  A    between atoms: O_2  and  C_17 
REMARK    2  A    between atoms: N_5  and  C_10 
REMARK    3  A    between atoms: N_6  and  C_14 
REMARK       I    between atoms: N_6  and  C_23 
REMARK       I    between atoms: N_7  and  C_22 
REMARK    4  A    between atoms: C_10  and  C_13 
REMARK    5  A    between atoms: C_14  and  C_17 
REMARK    6  A    between atoms: C_14  and  C_22 
REMARK    7  A    between atoms: C_20  and  C_25 
REMARK    8  A    between atoms: C_23  and  C_24 
REMARK    9  A    between atoms: C_28  and  C_31 
ROOT
HETATM    1  O   UNL     1      16.710   3.473  93.742  1.00  0.00    -0.388 OA
HETATM    2  N   UNL     1      14.012   2.755  93.184  1.00  0.00     0.096 N 
HETATM    3  C   UNL     1      15.090   1.756  93.177  1.00  0.00     0.299 C 
HETATM    4  C   UNL     1      14.547   4.075  92.823  1.00  0.00     0.299 C 
HETATM    5  C   UNL     1      16.205   2.192  94.124  1.00  0.00     0.198 C 
HETATM    6  C   UNL     1      15.674   4.456  93.777  1.00  0.00     0.198 C 
ENDROOT
BRANCH   2   7
HETATM    7  C   UNL     1      12.937   2.363  92.275  1.00  0.00     0.311 C 
BRANCH   7   8
HETATM    8  C   UNL     1      12.036   3.502  91.936  1.00  0.00    -0.030 A 
HETATM    9  C   UNL     1      11.869   3.885  90.605  1.00  0.00     0.010 A 
HETATM   10  C   UNL     1      11.028   4.952  90.287  1.00  0.00     0.021 A 
HETATM   11  C   UNL     1      10.353   5.632  91.300  1.00  0.00     0.018 A 
HETATM   12  C   UNL     1      10.519   5.250  92.630  1.00  0.00     0.021 A 
HETATM   13  C   UNL     1      11.361   4.184  92.948  1.00  0.00     0.010 A 
BRANCH  11  14
HETATM   14  C   UNL     1       9.489   6.725  90.974  1.00  0.00    -0.061 C 
HETATM   15  C   UNL     1       8.763   7.643  90.701  1.00  0.00    -0.061 C 
BRANCH  15  16
HETATM   16  C   UNL     1       7.900   8.736  90.375  1.00  0.00     0.018 A 
HETATM   17  C   UNL     1       6.516   8.576  90.447  1.00  0.00     0.022 A 
HETATM   18  C   UNL     1       5.675   9.642  90.132  1.00  0.00     0.018 A 
HETATM   19  C   UNL     1       6.235  10.844  89.752  1.00  0.00     0.032 A 
HETATM   20  C   UNL     1       7.599  11.027  89.672  1.00  0.00     0.018 A 
HETATM   21  C   UNL     1       8.442   9.961  89.987  1.00  0.00     0.022 A 
BRANCH  19  22
HETATM   22  C   UNL     1       5.338  11.979  89.414  1.00  0.00     0.252 C 
HETATM   23  O   UNL     1       5.245  12.343  88.244  1.00  0.00    -0.268 OA
HETATM   24  N   UNL     1       4.638  12.538  90.475  1.00  0.00    -0.342 N 
HETATM   25  H   UNL     1       4.747  12.168  91.412  1.00  0.00     0.163 HD
BRANCH  24  26
HETATM   26  C   UNL     1       3.712  13.628  90.304  1.00  0.00     0.199 C 
BRANCH  26  27
HETATM   27  C   UNL     1       2.560  13.592  91.316  1.00  0.00     0.145 C 
HETATM   28  C   UNL     1       2.965  12.953  92.640  1.00  0.00     0.042 C 
BRANCH  27  29
HETATM   29  O   UNL     1       2.101  14.921  91.565  1.00  0.00    -0.393 OA
HETATM   30  H   UNL     1       2.873  15.511  91.586  1.00  0.00     0.210 HD
ENDBRANCH  27  29
ENDBRANCH  26  27
BRANCH  26  31
HETATM   31  C   UNL     1       4.501  14.930  90.408  1.00  0.00     0.220 C 
HETATM   32  O   UNL     1       4.731  15.490  91.478  1.00  0.00    -0.278 OA
HETATM   33  N   UNL     1       4.879  15.407  89.177  1.00  0.00    -0.271 NA
HETATM   34  H   UNL     1       4.631  15.020  88.274  1.00  0.00     0.127 HD
HETATM   35  H   UNL     1       4.381  16.521  88.483  1.00  0.00     0.127 HD
ENDBRANCH  26  31
ENDBRANCH  24  26
ENDBRANCH  19  22
ENDBRANCH  15  16
ENDBRANCH  11  14
ENDBRANCH   7   8
ENDBRANCH   2   7
TORSDOF 9
ENDMDL
MODEL 2
REMARK VINA RESULT:      -6.4      1.833      2.616
REMARK  9 active torsions:
REMARK  status: ('A' for Active; 'I' for Inactive)
REMARK    1  A    between atoms: O_2  and  C_17 
REMARK    2  A    between atoms: N_5  and  C_10 
REMARK    3  A    between atoms: N_6  and  C_14 
REMARK       I    between atoms: N_6  and  C_23 
REMARK       I    between atoms: N_7  and  C_22 
REMARK    4  A    between atoms: C_10  and  C_13 
REMARK    5  A    between atoms: C_14  and  C_17 
REMARK    6  A    between atoms: C_14  and  C_22 
REMARK    7  A    between atoms: C_20  and  C_25 
REMARK    8  A    between atoms: C_23  and  C_24 
REMARK    9  A    between atoms: C_28  and  C_31 
ROOT
HETATM    1  O   UNL     1      16.176   3.933  94.052  1.00  0.00    -0.388 OA
HETATM    2  N   UNL     1      14.221   2.589  92.478  1.00  0.00     0.096 N 
HETATM    3  C   UNL     1      14.396   4.046  92.406  1.00  0.00     0.299 C 
HETATM    4  C   UNL     1      14.603   2.102  93.811  1.00  0.00     0.299 C 
HETATM    5  C   UNL     1      15.838   4.411  92.748  1.00  0.00     0.198 C 
HETATM    6  C   UNL     1      16.038   2.513  94.121  1.00  0.00     0.198 C 
ENDROOT
BRANCH   2   7
HETATM    7  C   UNL     1      12.843   2.216  92.164  1.00  0.00     0.311 C 
BRANCH   7   8
HETATM    8  C   UNL     1      11.912   3.379  92.225  1.00  0.00    -0.030 A 
HETATM    9  C   UNL     1      11.257   3.808  91.070  1.00  0.00     0.010 A 
HETATM   10  C   UNL     1      10.388   4.898  91.126  1.00  0.00     0.021 A 
HETATM   11  C   UNL     1      10.173   5.556  92.336  1.00  0.00     0.018 A 
HETATM   12  C   UNL     1      10.827   5.128  93.490  1.00  0.00     0.021 A 
HETATM   13  C   UNL     1      11.697   4.039  93.435  1.00  0.00     0.010 A 
BRANCH  11  14
HETATM   14  C   UNL     1       9.279   6.672  92.394  1.00  0.00    -0.061 C 
HETATM   15  C   UNL     1       8.529   7.610  92.442  1.00  0.00    -0.061 C 
BRANCH  15  16
HETATM   16  C   UNL     1       7.636   8.726  92.498  1.00  0.00     0.018 A 
HETATM   17  C   UNL     1       7.170   9.305  91.318  1.00  0.00     0.022 A 
HETATM   18  C   UNL     1       6.297  10.391  91.373  1.00  0.00     0.018 A 
HETATM   19  C   UNL     1       5.910  10.873  92.606  1.00  0.00     0.032 A 
HETATM   20  C   UNL     1       6.357  10.318  93.787  1.00  0.00     0.018 A 
HETATM   21  C   UNL     1       7.230   9.232  93.733  1.00  0.00     0.022 A 
BRANCH  19  22
HETATM   22  C   UNL     1       4.981  12.032  92.664  1.00  0.00     0.252 C 
HETATM   23  O   UNL     1       4.680  12.504  93.757  1.00  0.00    -0.268 OA
HETATM   24  N   UNL     1       4.536  12.516  91.442  1.00  0.00    -0.342 N 
HETATM   25  H   UNL     1       4.847  12.090  90.577  1.00  0.00     0.163 HD
BRANCH  24  26
HETATM   26  C   UNL     1       3.651  13.648  91.332  1.00  0.00     0.199 C 
BRANCH  26  27
HETATM   27  C   UNL     1       3.724  14.327  89.959  1.00  0.00     0.145 C 
HETATM   28  C   UNL     1       4.948  15.224  89.814  1.00  0.00     0.042 C 
BRANCH  27  29
HETATM   29  O   UNL     1       3.755  13.332  88.936  1.00  0.00    -0.393 OA
HETATM   30  H   UNL     1       2.851  13.210  88.601  1.00  0.00     0.210 HD
ENDBRANCH  27  29
ENDBRANCH  26  27
BRANCH  26  31
HETATM   31  C   UNL     1       2.237  13.166  91.639  1.00  0.00     0.220 C 
HETATM   32  O   UNL     1       1.920  11.978  91.642  1.00  0.00    -0.278 OA
HETATM   33  N   UNL     1       1.372  14.209  91.868  1.00  0.00    -0.271 NA
HETATM   34  H   UNL     1       1.578  15.198  91.785  1.00  0.00     0.127 HD
HETATM   35  H   UNL     1       0.337  14.679  91.044  1.00  0.00     0.127 HD
ENDBRANCH  26  31
ENDBRANCH  24  26
ENDBRANCH  19  22
ENDBRANCH  15  16
ENDBRANCH  11  14
ENDBRANCH   7   8
ENDBRANCH   2   7
TORSDOF 9
ENDMDL
MODEL 3
REMARK VINA RESULT:      -5.7      2.380     12.355
REMARK  9 active torsions:
REMARK  status: ('A' for Active; 'I' for Inactive)
REMARK    1  A    between atoms: O_2  and  C_17 
REMARK    2  A    between atoms: N_5  and  C_10 
REMARK    3  A    between atoms: N_6  and  C_14 
REMARK       I    between atoms: N_6  and  C_23 
REMARK       I    between atoms: N_7  and  C_22 
REMARK    4  A    between atoms: C_10  and  C_13 
REMARK    5  A    between atoms: C_14  and  C_17 
REMARK    6  A    between atoms: C_14  and  C_22 
REMARK    7  A    between atoms: C_20  and  C_25 
REMARK    8  A    between atoms: C_23  and  C_24 
REMARK    9  A    between atoms: C_28  and  C_31 
ROOT
HETATM    1  O   UNL     1       2.590  14.403  94.122  1.00  0.00    -0.388 OA
HETATM    2  N   UNL     1       2.389  14.523  91.285  1.00  0.00     0.096 N 
HETATM    3  C   UNL     1       1.596  13.568  92.071  1.00  0.00     0.299 C 
HETATM    4  C   UNL     1       3.648  14.825  91.980  1.00  0.00     0.299 C 
HETATM    5  C   UNL     1       1.349  14.128  93.470  1.00  0.00     0.198 C 
HETATM    6  C   UNL     1       3.353  15.355  93.380  1.00  0.00     0.198 C 
ENDROOT
BRANCH   2   7
HETATM    7  C   UNL     1       2.647  14.002  89.944  1.00  0.00     0.311 C 
BRANCH   7   8
HETATM    8  C   UNL     1       3.656  12.905  89.946  1.00  0.00    -0.030 A 
HETATM    9  C   UNL     1       4.917  13.117  89.388  1.00  0.00     0.010 A 
HETATM   10  C   UNL     1       5.861  12.090  89.387  1.00  0.00     0.021 A 
HETATM   11  C   UNL     1       5.544  10.853  89.946  1.00  0.00     0.018 A 
HETATM   12  C   UNL     1       4.285  10.640  90.504  1.00  0.00     0.021 A 
HETATM   13  C   UNL     1       3.341  11.666  90.504  1.00  0.00     0.010 A 
BRANCH  11  14
HETATM   14  C   UNL     1       6.513   9.800  89.947  1.00  0.00    -0.061 C 
HETATM   15  C   UNL     1       7.327   8.915  89.949  1.00  0.00    -0.061 C 
BRANCH  15  16
HETATM   16  C   UNL     1       8.295   7.863  89.949  1.00  0.00     0.018 A 
HETATM   17  C   UNL     1       8.765   7.348  88.741  1.00  0.00     0.022 A 
HETATM   18  C   UNL     1       9.712   6.323  88.742  1.00  0.00     0.018 A 
HETATM   19  C   UNL     1      10.166   5.837  89.950  1.00  0.00     0.032 A 
HETATM   20  C   UNL     1       9.717   6.328  91.157  1.00  0.00     0.018 A 
HETATM   21  C   UNL     1       8.770   7.353  91.158  1.00  0.00     0.022 A 
BRANCH  19  22
HETATM   22  C   UNL     1      11.173   4.744  89.950  1.00  0.00     0.252 C 
HETATM   23  O   UNL     1      11.365   4.105  88.919  1.00  0.00    -0.268 OA
HETATM   24  N   UNL     1      11.852   4.543  91.144  1.00  0.00    -0.342 N 
HETATM   25  H   UNL     1      11.658   5.128  91.949  1.00  0.00     0.163 HD
BRANCH  24  26
HETATM   26  C   UNL     1      12.874   3.539  91.295  1.00  0.00     0.199 C 
BRANCH  26  27
HETATM   27  C   UNL     1      14.191   4.109  91.837  1.00  0.00     0.145 C 
HETATM   28  C   UNL     1      15.267   3.041  91.999  1.00  0.00     0.042 C 
BRANCH  27  29
HETATM   29  O   UNL     1      14.672   5.121  90.953  1.00  0.00    -0.393 OA
HETATM   30  H   UNL     1      15.145   5.786  91.481  1.00  0.00     0.210 HD
ENDBRANCH  27  29
ENDBRANCH  26  27
BRANCH  26  31
HETATM   31  C   UNL     1      12.324   2.449  92.210  1.00  0.00     0.220 C 
HETATM   32  O   UNL     1      11.914   1.368  91.791  1.00  0.00    -0.278 OA
HETATM   33  N   UNL     1      12.308   2.836  93.528  1.00  0.00    -0.271 NA
HETATM   34  H   UNL     1      12.554   3.748  93.895  1.00  0.00     0.127 HD
HETATM   35  H   UNL     1      11.202   3.162  94.328  1.00  0.00     0.127 HD
ENDBRANCH  26  31
ENDBRANCH  24  26
ENDBRANCH  19  22
ENDBRANCH  15  16
ENDBRANCH  11  14
ENDBRANCH   7   8
ENDBRANCH   2   7
TORSDOF 9
ENDMDL
MODEL 4
REMARK VINA RESULT:      -5.1      1.645     12.399
REMARK  9 active torsions:
REMARK  status: ('A' for Active; 'I' for Inactive)
REMARK    1  A    between atoms: O_2  and  C_17 
REMARK    2  A    between atoms: N_5  and  C_10 
REMARK    3  A    between atoms: N_6  and  C_14 
REMARK       I    between atoms: N_6  and  C_23 
REMARK       I    between atoms: N_7  and  C_22 
REMARK    4  A    between atoms: C_10  and  C_13 
REMARK    5  A    between atoms: C_14  and  C_17 
REMARK    6  A    between atoms: C_14  and  C_22 
REMARK    7  A    between atoms: C_20  and  C_25 
REMARK    8  A    between atoms: C_23  and  C_24 
REMARK    9  A    between atoms: C_28  and  C_31 
ROOT
HETATM    1  O   UNL     1       3.534  14.053  92.127  1.00  0.00    -0.388 OA
HETATM    2  N   UNL     1       3.503  12.815  89.564  1.00  0.00     0.096 N 
HETATM    3  C   UNL     1       2.776  12.238  90.704  1.00  0.00     0.299 C 
HETATM    4  C   UNL     1       4.672  13.567  90.041  1.00  0.00     0.299 C 
HETATM    5  C   UNL     1       2.377  13.346  91.676  1.00  0.00     0.198 C 
HETATM    6  C   UNL     1       4.229  14.642  91.028  1.00  0.00     0.198 C 
ENDROOT
BRANCH   2   7
HETATM    7  C   UNL     1       3.905  11.770  88.625  1.00  0.00     0.311 C 
BRANCH   7   8
HETATM    8  C   UNL     1       4.907  10.834  89.211  1.00  0.00    -0.030 A 
HETATM    9  C   UNL     1       4.501   9.587  89.687  1.00  0.00     0.010 A 
HETATM   10  C   UNL     1       5.437   8.712  90.237  1.00  0.00     0.021 A 
HETATM   11  C   UNL     1       6.780   9.084  90.310  1.00  0.00     0.018 A 
HETATM   12  C   UNL     1       7.186  10.329  89.835  1.00  0.00     0.021 A 
HETATM   13  C   UNL     1       6.250  11.204  89.285  1.00  0.00     0.010 A 
BRANCH  11  14
HETATM   14  C   UNL     1       7.740   8.185  90.872  1.00  0.00    -0.061 C 
HETATM   15  C   UNL     1       8.548   7.430  91.346  1.00  0.00    -0.061 C 
BRANCH  15  16
HETATM   16  C   UNL     1       9.507   6.532  91.909  1.00  0.00     0.018 A 
HETATM   17  C   UNL     1      10.270   5.715  91.074  1.00  0.00     0.022 A 
HETATM   18  C   UNL     1      11.207   4.841  91.624  1.00  0.00     0.018 A 
HETATM   19  C   UNL     1      11.362   4.804  92.994  1.00  0.00     0.032 A 
HETATM   20  C   UNL     1      10.621   5.602  93.840  1.00  0.00     0.018 A 
HETATM   21  C   UNL     1       9.682   6.476  93.292  1.00  0.00     0.022 A 
BRANCH  19  22
HETATM   22  C   UNL     1      12.360   3.871  93.579  1.00  0.00     0.252 C 
HETATM   23  O   UNL     1      11.971   2.842  94.124  1.00  0.00    -0.268 OA
HETATM   24  N   UNL     1      13.691   4.238  93.436  1.00  0.00    -0.342 N 
HETATM   25  H   UNL     1      13.939   5.092  92.951  1.00  0.00     0.163 HD
BRANCH  24  26
HETATM   26  C   UNL     1      14.776   3.426  93.928  1.00  0.00     0.199 C 
BRANCH  26  27
HETATM   27  C   UNL     1      14.940   2.117  93.145  1.00  0.00     0.145 C 
HETATM   28  C   UNL     1      14.708   0.885  94.013  1.00  0.00     0.042 C 
BRANCH  27  29
HETATM   29  O   UNL     1      14.021   2.095  92.054  1.00  0.00    -0.393 OA
HETATM   30  H   UNL     1      14.520   2.234  91.232  1.00  0.00     0.210 HD
ENDBRANCH  27  29
ENDBRANCH  26  27
BRANCH  26  31
HETATM   31  C   UNL     1      16.047   4.267  93.875  1.00  0.00     0.220 C 
HETATM   32  O   UNL     1      16.040   5.481  93.682  1.00  0.00    -0.278 OA
HETATM   33  N   UNL     1      17.180   3.505  94.028  1.00  0.00    -0.271 NA
HETATM   34  H   UNL     1      17.227   2.495  94.099  1.00  0.00     0.127 HD
HETATM   35  H   UNL     1      18.139   3.165  93.061  1.00  0.00     0.127 HD
ENDBRANCH  26  31
ENDBRANCH  24  26
ENDBRANCH  19  22
ENDBRANCH  15  16
ENDBRANCH  11  14
ENDBRANCH   7   8
ENDBRANCH   2   7
TORSDOF 9
ENDMDL
MODEL 5
REMARK VINA RESULT:      -5.0      1.520     12.452
REMARK  9 active torsions:
REMARK  status: ('A' for Active; 'I' for Inactive)
REMARK    1  A    between atoms: O_2  and  C_17 
REMARK    2  A    between atoms: N_5  and  C_10 
REMARK    3  A    between atoms: N_6  and  C_14 
REMARK       I    between atoms: N_6  and  C_23 
REMARK       I    between atoms: N_7  and  C_22 
REMARK    4  A    between atoms: C_10  and  C_13 
REMARK    5  A    between atoms: C_14  and  C_17 
REMARK    6  A    between atoms: C_14  and  C_22 
REMARK    7  A    between atoms: C_20  and  C_25 
REMARK    8  A    between atoms: C_23  and  C_24 
REMARK    9  A    between atoms: C_28  and  C_31 
ROOT
HETATM    1  O   UNL     1       3.821  14.320  91.735  1.00  0.00    -0.388 OA
HETATM    2  N   UNL     1       3.163  12.635  89.537  1.00  0.00     0.096 N 
HETATM    3  C   UNL     1       2.911  12.221  90.925  1.00  0.00     0.299 C 
HETATM    4  C   UNL     1       4.310  13.552  89.487  1.00  0.00     0.299 C 
HETATM    5  C   UNL     1       2.687  13.453  91.799  1.00  0.00     0.198 C 
HETATM    6  C   UNL     1       4.054  14.752  90.394  1.00  0.00     0.198 C 
ENDROOT
BRANCH   2   7
HETATM    7  C   UNL     1       3.391  11.470  88.684  1.00  0.00     0.311 C 
BRANCH   7   8
HETATM    8  C   UNL     1       4.472  10.586  89.206  1.00  0.00    -0.030 A 
HETATM    9  C   UNL     1       4.180   9.272  89.574  1.00  0.00     0.010 A 
HETATM   10  C   UNL     1       5.190   8.444  90.064  1.00  0.00     0.021 A 
HETATM   11  C   UNL     1       6.491   8.931  90.185  1.00  0.00     0.018 A 
HETATM   12  C   UNL     1       6.784  10.242  89.817  1.00  0.00     0.021 A 
HETATM   13  C   UNL     1       5.774  11.070  89.327  1.00  0.00     0.010 A 
BRANCH  11  14
HETATM   14  C   UNL     1       7.527   8.081  90.686  1.00  0.00    -0.061 C 
HETATM   15  C   UNL     1       8.398   7.366  91.107  1.00  0.00    -0.061 C 
BRANCH  15  16
HETATM   16  C   UNL     1       9.434   6.518  91.607  1.00  0.00     0.018 A 
HETATM   17  C   UNL     1      10.143   5.693  90.732  1.00  0.00     0.022 A 
HETATM   18  C   UNL     1      11.155   4.867  91.220  1.00  0.00     0.018 A 
HETATM   19  C   UNL     1      11.437   4.885  92.570  1.00  0.00     0.032 A 
HETATM   20  C   UNL     1      10.751   5.690  93.455  1.00  0.00     0.018 A 
HETATM   21  C   UNL     1       9.738   6.516  92.968  1.00  0.00     0.022 A 
BRANCH  19  22
HETATM   22  C   UNL     1      12.514   4.003  93.090  1.00  0.00     0.252 C 
HETATM   23  O   UNL     1      12.295   3.307  94.078  1.00  0.00    -0.268 OA
HETATM   24  N   UNL     1      13.708   4.020  92.382  1.00  0.00    -0.342 N 
HETATM   25  H   UNL     1      13.808   4.603  91.559  1.00  0.00     0.163 HD
BRANCH  24  26
HETATM   26  C   UNL     1      14.838   3.203  92.747  1.00  0.00     0.199 C 
BRANCH  26  27
HETATM   27  C   UNL     1      15.627   3.776  93.930  1.00  0.00     0.145 C 
HETATM   28  C   UNL     1      16.973   3.086  94.124  1.00  0.00     0.042 C 
BRANCH  27  29
HETATM   29  O   UNL     1      15.847   5.172  93.727  1.00  0.00    -0.393 OA
HETATM   30  H   UNL     1      16.357   5.513  94.481  1.00  0.00     0.210 HD
ENDBRANCH  27  29
ENDBRANCH  26  27
BRANCH  26  31
HETATM   31  C   UNL     1      14.320   1.802  93.052  1.00  0.00     0.220 C 
HETATM   32  O   UNL     1      14.787   1.094  93.942  1.00  0.00    -0.278 OA
HETATM   33  N   UNL     1      13.313   1.423  92.197  1.00  0.00    -0.271 NA
HETATM   34  H   UNL     1      12.966   1.943  91.399  1.00  0.00     0.127 HD
HETATM   35  H   UNL     1      13.359   0.478  91.161  1.00  0.00     0.127 HD
ENDBRANCH  26  31
ENDBRANCH  24  26
ENDBRANCH  19  22
ENDBRANCH  15  16
ENDBRANCH  11  14
ENDBRANCH   7   8
ENDBRANCH   2   7
TORSDOF 9
ENDMDL
MODEL 6
REMARK VINA RESULT:      -4.0      2.078      2.358
REMARK  9 active torsions:
REMARK  status: ('A' for Active; 'I' for Inactive)
REMARK    1  A    between atoms: O_2  and  C_17 
REMARK    2  A    between atoms: N_5  and  C_10 
REMARK    3  A    between atoms: N_6  and  C_14 
REMARK       I    between atoms: N_6  and  C_23 
REMARK       I    between atoms: N_7  and  C_22 
REMARK    4  A    between atoms: C_10  and  C_13 
REMARK    5  A    between atoms: C_14  and  C_17 
REMARK    6  A    between atoms: C_14  and  C_22 
REMARK    7  A    between atoms: C_20  and  C_25 
REMARK    8  A    between atoms: C_23  and  C_24 
REMARK    9  A    between atoms: C_28  and  C_31 
ROOT
HETATM    1  O   UNL     1      15.719   2.742  91.202  1.00  0.00    -0.388 OA
HETATM    2  N   UNL     1      13.461   3.131  92.891  1.00  0.00     0.096 N 
HETATM    3  C   UNL     1      14.504   2.150  93.218  1.00  0.00     0.299 C 
HETATM    4  C   UNL     1      13.370   3.303  91.434  1.00  0.00     0.299 C 
HETATM    5  C   UNL     1      15.836   2.592  92.618  1.00  0.00     0.198 C 
HETATM    6  C   UNL     1      14.728   3.717  90.876  1.00  0.00     0.198 C 
ENDROOT
BRANCH   2   7
HETATM    7  C   UNL     1      12.172   2.722  93.447  1.00  0.00     0.311 C 
BRANCH   7   8
HETATM    8  C   UNL     1      11.115   3.755  93.252  1.00  0.00    -0.030 A 
HETATM    9  C   UNL     1      10.211   3.636  92.197  1.00  0.00     0.010 A 
HETATM   10  C   UNL     1       9.223   4.603  92.012  1.00  0.00     0.021 A 
HETATM   11  C   UNL     1       9.139   5.687  92.885  1.00  0.00     0.018 A 
HETATM   12  C   UNL     1      10.041   5.807  93.940  1.00  0.00     0.021 A 
HETATM   13  C   UNL     1      11.030   4.841  94.124  1.00  0.00     0.010 A 
BRANCH  11  14
HETATM   14  C   UNL     1       8.124   6.678  92.697  1.00  0.00    -0.061 C 
HETATM   15  C   UNL     1       7.271   7.511  92.538  1.00  0.00    -0.061 C 
BRANCH  15  16
HETATM   16  C   UNL     1       6.257   8.501  92.350  1.00  0.00     0.018 A 
HETATM   17  C   UNL     1       4.916   8.121  92.290  1.00  0.00     0.022 A 
HETATM   18  C   UNL     1       3.926   9.087  92.109  1.00  0.00     0.018 A 
HETATM   19  C   UNL     1       4.299  10.410  91.993  1.00  0.00     0.032 A 
HETATM   20  C   UNL     1       5.617  10.811  92.048  1.00  0.00     0.018 A 
HETATM   21  C   UNL     1       6.608   9.845  92.229  1.00  0.00     0.022 A 
BRANCH  19  22
HETATM   22  C   UNL     1       3.244  11.438  91.798  1.00  0.00     0.252 C 
HETATM   23  O   UNL     1       2.081  11.080  91.628  1.00  0.00    -0.268 OA
HETATM   24  N   UNL     1       3.666  12.759  91.849  1.00  0.00    -0.342 N 
HETATM   25  H   UNL     1       4.641  12.980  92.018  1.00  0.00     0.163 HD
BRANCH  24  26
HETATM   26  C   UNL     1       2.760  13.869  91.702  1.00  0.00     0.199 C 
BRANCH  26  27
HETATM   27  C   UNL     1       2.650  14.718  92.975  1.00  0.00     0.145 C 
HETATM   28  C   UNL     1       1.630  14.162  93.962  1.00  0.00     0.042 C 
BRANCH  27  29
HETATM   29  O   UNL     1       3.924  14.786  93.614  1.00  0.00    -0.393 OA
HETATM   30  H   UNL     1       3.856  14.344  94.477  1.00  0.00     0.210 HD
ENDBRANCH  27  29
ENDBRANCH  26  27
BRANCH  26  31
HETATM   31  C   UNL     1       3.234  14.705  90.517  1.00  0.00     0.220 C 
HETATM   32  O   UNL     1       4.042  15.625  90.628  1.00  0.00    -0.278 OA
HETATM   33  N   UNL     1       2.626  14.332  89.343  1.00  0.00    -0.271 NA
HETATM   34  H   UNL     1       1.893  13.641  89.232  1.00  0.00     0.127 HD
HETATM   35  H   UNL     1       1.650  15.024  88.609  1.00  0.00     0.127 HD
ENDBRANCH  26  31
ENDBRANCH  24  26
ENDBRANCH  19  22
ENDBRANCH  15  16
ENDBRANCH  11  14
ENDBRANCH   7   8
ENDBRANCH   2   7
TORSDOF 9
ENDMDL
MODEL 7
REMARK VINA RESULT:      -4.0      2.211     12.395
REMARK  9 active torsions:
REMARK  status: ('A' for Active; 'I' for Inactive)
REMARK    1  A    between atoms: O_2  and  C_17 
REMARK    2  A    between atoms: N_5  and  C_10 
REMARK    3  A    between atoms: N_6  and  C_14 
REMARK       I    between atoms: N_6  and  C_23 
REMARK       I    between atoms: N_7  and  C_22 
REMARK    4  A    between atoms: C_10  and  C_13 
REMARK    5  A    between atoms: C_14  and  C_17 
REMARK    6  A    between atoms: C_14  and  C_22 
REMARK    7  A    between atoms: C_20  and  C_25 
REMARK    8  A    between atoms: C_23  and  C_24 
REMARK    9  A    between atoms: C_28  and  C_31 
ROOT
HETATM    1  O   UNL     1       3.451  14.965  94.096  1.00  0.00    -0.388 OA
HETATM    2  N   UNL     1       2.656  14.190  91.475  1.00  0.00     0.096 N 
HETATM    3  C   UNL     1       2.098  13.541  92.670  1.00  0.00     0.299 C 
HETATM    4  C   UNL     1       4.015  14.676  91.754  1.00  0.00     0.299 C 
HETATM    5  C   UNL     1       2.118  14.517  93.844  1.00  0.00     0.198 C 
HETATM    6  C   UNL     1       3.990  15.624  92.949  1.00  0.00     0.198 C 
ENDROOT
BRANCH   2   7
HETATM    7  C   UNL     1       2.657  13.269  90.339  1.00  0.00     0.311 C 
BRANCH   7   8
HETATM    8  C   UNL     1       3.616  12.142  90.522  1.00  0.00    -0.030 A 
HETATM    9  C   UNL     1       4.796  12.105  89.779  1.00  0.00     0.010 A 
HETATM   10  C   UNL     1       5.693  11.050  89.948  1.00  0.00     0.021 A 
HETATM   11  C   UNL     1       5.410  10.035  90.861  1.00  0.00     0.018 A 
HETATM   12  C   UNL     1       4.232  10.071  91.603  1.00  0.00     0.021 A 
HETATM   13  C   UNL     1       3.334  11.125  91.434  1.00  0.00     0.010 A 
BRANCH  11  14
HETATM   14  C   UNL     1       6.331   8.954  91.035  1.00  0.00    -0.061 C 
HETATM   15  C   UNL     1       7.105   8.045  91.182  1.00  0.00    -0.061 C 
BRANCH  15  16
HETATM   16  C   UNL     1       8.024   6.964  91.357  1.00  0.00     0.018 A 
HETATM   17  C   UNL     1       8.323   6.124  90.284  1.00  0.00     0.022 A 
HETATM   18  C   UNL     1       9.223   5.072  90.454  1.00  0.00     0.018 A 
HETATM   19  C   UNL     1       9.803   4.883  91.690  1.00  0.00     0.032 A 
HETATM   20  C   UNL     1       9.524   5.700  92.766  1.00  0.00     0.018 A 
HETATM   21  C   UNL     1       8.624   6.752  92.598  1.00  0.00     0.022 A 
BRANCH  19  22
HETATM   22  C   UNL     1      10.759   3.761  91.871  1.00  0.00     0.252 C 
HETATM   23  O   UNL     1      10.341   2.674  92.262  1.00  0.00    -0.268 OA
HETATM   24  N   UNL     1      12.082   4.032  91.551  1.00  0.00    -0.342 N 
HETATM   25  H   UNL     1      12.350   4.947  91.209  1.00  0.00     0.163 HD
BRANCH  24  26
HETATM   26  C   UNL     1      13.123   3.040  91.650  1.00  0.00     0.199 C 
BRANCH  26  27
HETATM   27  C   UNL     1      14.401   3.444  90.903  1.00  0.00     0.145 C 
HETATM   28  C   UNL     1      14.911   4.819  91.321  1.00  0.00     0.042 C 
BRANCH  27  29
HETATM   29  O   UNL     1      15.422   2.477  91.147  1.00  0.00    -0.393 OA
HETATM   30  H   UNL     1      15.074   1.817  91.771  1.00  0.00     0.210 HD
ENDBRANCH  27  29
ENDBRANCH  26  27
BRANCH  26  31
HETATM   31  C   UNL     1      13.398   2.800  93.131  1.00  0.00     0.220 C 
HETATM   32  O   UNL     1      13.947   1.785  93.554  1.00  0.00    -0.278 OA
HETATM   33  N   UNL     1      12.929   3.823  93.918  1.00  0.00    -0.271 NA
HETATM   34  H   UNL     1      12.395   4.629  93.613  1.00  0.00     0.127 HD
HETATM   35  H   UNL     1      11.827   3.819  94.788  1.00  0.00     0.127 HD
ENDBRANCH  26  31
ENDBRANCH  24  26
ENDBRANCH  19  22
ENDBRANCH  15  16
ENDBRANCH  11  14
ENDBRANCH   7   8
ENDBRANCH   2   7
TORSDOF 9
ENDMDL
