MODEL 1
REMARK VINA RESULT:      -7.0      0.000      0.000
REMARK  10 active torsions:
REMARK  status: ('A' for Active; 'I' for Inactive)
REMARK    1  A    between atoms: O_2  and  C_16 
REMARK    2  A    between atoms: N_5  and  C_9 
REMARK    3  A    between atoms: N_6  and  C_13 
REMARK       I    between atoms: N_6  and  C_22 
REMARK    4  A    between atoms: C_9  and  C_12 
REMARK    5  A    between atoms: C_13  and  C_16 
REMARK    6  A    between atoms: C_13  and  C_21 
REMARK    7  A    between atoms: C_19  and  C_24 
REMARK    8  A    between atoms: C_22  and  C_23 
REMARK    9  A    between atoms: C_27  and  C_30 
REMARK   10  A    between atoms: N_33  and  S_34 
ROOT
HETATM    1  C   UNL     1       5.404  10.715  89.339  1.00  0.00     0.056 A 
HETATM    2  C   UNL     1       6.738  11.021  89.510  1.00  0.00     0.005 A 
HETATM    3  C   UNL     1       4.924   9.426  89.450  1.00  0.00     0.005 A 
HETATM    4  C   UNL     1       7.173   8.681  89.922  1.00  0.00     0.042 A 
HETATM    5  C   UNL     1       7.633   9.993  89.805  1.00  0.00     0.008 A 
HETATM    6  C   UNL     1       5.819   8.397  89.745  1.00  0.00     0.008 A 
ENDROOT
BRANCH   1   7
HETATM    7  C   UNL     1       4.450  11.811  89.027  1.00  0.00     0.254 C 
HETATM    8  O   UNL     1       4.089  11.978  87.865  1.00  0.00    -0.268 OA
HETATM    9  N   UNL     1       4.014  12.563  90.108  1.00  0.00    -0.337 N 
HETATM   10  HN  UNL     1       4.337  12.350  91.045  1.00  0.00     0.164 HD
BRANCH   9  11
HETATM   11  C   UNL     1       3.071  13.644  89.971  1.00  0.00     0.172 C 
BRANCH  11  12
HETATM   12  C   UNL     1       1.934  13.573  90.998  1.00  0.00     0.136 C 
HETATM   13  C   UNL     1       2.176  12.511  92.065  1.00  0.00     0.034 C 
BRANCH  12  14
HETATM   14  O   UNL     1       1.785  14.843  91.633  1.00  0.00    -0.383 OA
HETATM   15  H   UNL     1       1.077  15.329  91.179  1.00  0.00     0.210 HD
ENDBRANCH  12  14
ENDBRANCH  11  12
BRANCH  11  16
HETATM   16  C   UNL     1       3.843  14.954  90.088  1.00  0.00     0.398 A 
HETATM   17  O   UNL     1       4.866  15.188  89.446  1.00  0.00    -0.136 OA
HETATM   18  N   UNL     1       5.039  15.621  90.893  1.00  0.00     0.142 N 
HETATM   19  HN  UNL     1       5.914  15.906  90.552  1.00  0.00     0.338 HD
BRANCH  18  20
HETATM   20  S   UNL     1       4.556  15.421  92.181  1.00  0.00     0.076 SA
HETATM   21  H   UNL     1       3.965  14.408  92.375  1.00  0.00     0.136 HD
ENDBRANCH  18  20
ENDBRANCH  11  16
ENDBRANCH   9  11
ENDBRANCH   1   7
BRANCH   4  22
HETATM   22  C   UNL     1       8.091   7.626  90.221  1.00  0.00    -0.059 C 
HETATM   23  C   UNL     1       8.862   6.739  90.473  1.00  0.00    -0.059 C 
BRANCH  23  24
HETATM   24  C   UNL     1       9.781   5.684  90.772  1.00  0.00     0.042 A 
HETATM   25  C   UNL     1       9.890   5.204  92.076  1.00  0.00     0.008 A 
HETATM   26  C   UNL     1      10.787   4.177  92.368  1.00  0.00    -0.002 A 
HETATM   27  C   UNL     1      11.573   3.628  91.354  1.00  0.00     0.011 A 
HETATM   28  C   UNL     1      11.462   4.109  90.049  1.00  0.00    -0.002 A 
HETATM   29  C   UNL     1      10.566   5.137  89.758  1.00  0.00     0.008 A 
BRANCH  27  30
HETATM   30  C   UNL     1      12.530   2.528  91.667  1.00  0.00     0.277 C 
BRANCH  30  31
HETATM   31  N   UNL     1      13.490   2.903  92.703  1.00  0.00     0.147 N 
HETATM   32  C   UNL     1      14.353   1.765  93.049  1.00  0.00     0.283 C 
HETATM   33  C   UNL     1      15.353   2.183  94.124  1.00  0.00     0.178 C 
HETATM   34  O   UNL     1      16.140   3.285  93.668  1.00  0.00    -0.350 OA
HETATM   35  C   UNL     1      15.312   4.406  93.359  1.00  0.00     0.178 C 
HETATM   36  C   UNL     1      14.310   4.042  92.268  1.00  0.00     0.283 C 
ENDBRANCH  30  31
ENDBRANCH  27  30
ENDBRANCH  23  24
ENDBRANCH   4  22
TORSDOF 10
ENDMDL
MODEL 2
REMARK VINA RESULT:      -6.8      0.333      1.249
REMARK  10 active torsions:
REMARK  status: ('A' for Active; 'I' for Inactive)
REMARK    1  A    between atoms: O_2  and  C_16 
REMARK    2  A    between atoms: N_5  and  C_9 
REMARK    3  A    between atoms: N_6  and  C_13 
REMARK       I    between atoms: N_6  and  C_22 
REMARK    4  A    between atoms: C_9  and  C_12 
REMARK    5  A    between atoms: C_13  and  C_16 
REMARK    6  A    between atoms: C_13  and  C_21 
REMARK    7  A    between atoms: C_19  and  C_24 
REMARK    8  A    between atoms: C_22  and  C_23 
REMARK    9  A    between atoms: C_27  and  C_30 
REMARK   10  A    between atoms: N_33  and  S_34 
ROOT
HETATM    1  C   UNL     1       5.599  10.870  89.584  1.00  0.00     0.056 A 
HETATM    2  C   UNL     1       5.126   9.575  89.543  1.00  0.00     0.005 A 
HETATM    3  C   UNL     1       6.908  11.166  89.900  1.00  0.00     0.005 A 
HETATM    4  C   UNL     1       7.331   8.801  90.154  1.00  0.00     0.042 A 
HETATM    5  C   UNL     1       6.001   8.528  89.832  1.00  0.00     0.008 A 
HETATM    6  C   UNL     1       7.785  10.120  90.188  1.00  0.00     0.008 A 
ENDROOT
BRANCH   1   7
HETATM    7  C   UNL     1       4.666  11.985  89.275  1.00  0.00     0.254 C 
HETATM    8  O   UNL     1       4.476  12.299  88.102  1.00  0.00    -0.268 OA
HETATM    9  N   UNL     1       4.050  12.582  90.365  1.00  0.00    -0.337 N 
HETATM   10  HN  UNL     1       4.237  12.252  91.305  1.00  0.00     0.164 HD
BRANCH   9  11
HETATM   11  C   UNL     1       3.102  13.659  90.227  1.00  0.00     0.172 C 
BRANCH  11  12
HETATM   12  C   UNL     1       1.879  13.494  91.138  1.00  0.00     0.136 C 
HETATM   13  C   UNL     1       2.109  12.471  92.245  1.00  0.00     0.034 C 
BRANCH  12  14
HETATM   14  O   UNL     1       1.552  14.751  91.729  1.00  0.00    -0.383 OA
HETATM   15  H   UNL     1       1.902  14.762  92.636  1.00  0.00     0.210 HD
ENDBRANCH  12  14
ENDBRANCH  11  12
BRANCH  11  16
HETATM   16  C   UNL     1       3.836  14.964  90.514  1.00  0.00     0.398 A 
HETATM   17  O   UNL     1       4.924  15.245  90.015  1.00  0.00    -0.136 OA
HETATM   18  N   UNL     1       4.917  15.590  91.495  1.00  0.00     0.142 N 
HETATM   19  HN  UNL     1       5.822  15.902  91.280  1.00  0.00     0.338 HD
BRANCH  18  20
HETATM   20  S   UNL     1       4.287  15.307  92.702  1.00  0.00     0.076 SA
HETATM   21  H   UNL     1       4.778  15.772  93.679  1.00  0.00     0.136 HD
ENDBRANCH  18  20
ENDBRANCH  11  16
ENDBRANCH   9  11
ENDBRANCH   1   7
BRANCH   4  22
HETATM   22  C   UNL     1       8.228   7.728  90.453  1.00  0.00    -0.059 C 
HETATM   23  C   UNL     1       8.982   6.826  90.705  1.00  0.00    -0.059 C 
BRANCH  23  24
HETATM   24  C   UNL     1       9.879   5.752  91.004  1.00  0.00     0.042 A 
HETATM   25  C   UNL     1      10.566   5.112  89.973  1.00  0.00     0.008 A 
HETATM   26  C   UNL     1      11.438   4.064  90.264  1.00  0.00    -0.002 A 
HETATM   27  C   UNL     1      11.625   3.658  91.586  1.00  0.00     0.011 A 
HETATM   28  C   UNL     1      10.937   4.300  92.616  1.00  0.00    -0.002 A 
HETATM   29  C   UNL     1      10.064   5.348  92.324  1.00  0.00     0.008 A 
BRANCH  27  30
HETATM   30  C   UNL     1      12.559   2.539  91.897  1.00  0.00     0.277 C 
BRANCH  30  31
HETATM   31  N   UNL     1      13.602   2.930  92.843  1.00  0.00     0.147 N 
HETATM   32  C   UNL     1      14.486   1.795  93.143  1.00  0.00     0.283 C 
HETATM   33  C   UNL     1      15.572   2.230  94.124  1.00  0.00     0.178 C 
HETATM   34  O   UNL     1      16.324   3.318  93.582  1.00  0.00    -0.350 OA
HETATM   35  C   UNL     1      15.477   4.436  93.317  1.00  0.00     0.178 C 
HETATM   36  C   UNL     1      14.389   4.055  92.319  1.00  0.00     0.283 C 
ENDBRANCH  30  31
ENDBRANCH  27  30
ENDBRANCH  23  24
ENDBRANCH   4  22
TORSDOF 10
ENDMDL
MODEL 3
REMARK VINA RESULT:      -6.8      1.571      2.339
REMARK  10 active torsions:
REMARK  status: ('A' for Active; 'I' for Inactive)
REMARK    1  A    between atoms: O_2  and  C_16 
REMARK    2  A    between atoms: N_5  and  C_9 
REMARK    3  A    between atoms: N_6  and  C_13 
REMARK       I    between atoms: N_6  and  C_22 
REMARK    4  A    between atoms: C_9  and  C_12 
REMARK    5  A    between atoms: C_13  and  C_16 
REMARK    6  A    between atoms: C_13  and  C_21 
REMARK    7  A    between atoms: C_19  and  C_24 
REMARK    8  A    between atoms: C_22  and  C_23 
REMARK    9  A    between atoms: C_27  and  C_30 
REMARK   10  A    between atoms: N_33  and  S_34 
ROOT
HETATM    1  C   UNL     1       5.332  10.516  90.938  1.00  0.00     0.056 A 
HETATM    2  C   UNL     1       5.133   9.317  90.286  1.00  0.00     0.005 A 
HETATM    3  C   UNL     1       6.446  10.756  91.714  1.00  0.00     0.005 A 
HETATM    4  C   UNL     1       7.226   8.529  91.198  1.00  0.00     0.042 A 
HETATM    5  C   UNL     1       6.090   8.311  90.417  1.00  0.00     0.008 A 
HETATM    6  C   UNL     1       7.404   9.751  91.846  1.00  0.00     0.008 A 
ENDROOT
BRANCH   1   7
HETATM    7  C   UNL     1       4.313  11.588  90.796  1.00  0.00     0.254 C 
HETATM    8  O   UNL     1       3.287  11.360  90.160  1.00  0.00    -0.268 OA
HETATM    9  N   UNL     1       4.599  12.788  91.433  1.00  0.00    -0.337 N 
HETATM   10  HN  UNL     1       5.457  12.895  91.962  1.00  0.00     0.164 HD
BRANCH   9  11
HETATM   11  C   UNL     1       3.700  13.913  91.408  1.00  0.00     0.172 C 
BRANCH  11  12
HETATM   12  C   UNL     1       3.636  14.592  90.034  1.00  0.00     0.136 C 
HETATM   13  C   UNL     1       4.984  14.594  89.321  1.00  0.00     0.034 C 
BRANCH  12  14
HETATM   14  O   UNL     1       2.679  13.923  89.215  1.00  0.00    -0.383 OA
HETATM   15  H   UNL     1       3.144  13.248  88.692  1.00  0.00     0.210 HD
ENDBRANCH  12  14
ENDBRANCH  11  12
BRANCH  11  16
HETATM   16  C   UNL     1       2.325  13.420  91.847  1.00  0.00     0.398 A 
HETATM   17  O   UNL     1       1.285  14.027  91.598  1.00  0.00    -0.136 OA
HETATM   18  N   UNL     1       1.284  13.547  93.041  1.00  0.00     0.142 N 
HETATM   19  HN  UNL     1       0.397  13.965  93.028  1.00  0.00     0.338 HD
BRANCH  18  20
HETATM   20  S   UNL     1       2.114  13.142  94.080  1.00  0.00     0.076 SA
HETATM   21  H   UNL     1       2.434  11.998  94.089  1.00  0.00     0.136 HD
ENDBRANCH  18  20
ENDBRANCH  11  16
ENDBRANCH   9  11
ENDBRANCH   1   7
BRANCH   4  22
HETATM   22  C   UNL     1       8.206   7.497  91.334  1.00  0.00    -0.059 C 
HETATM   23  C   UNL     1       9.030   6.629  91.449  1.00  0.00    -0.059 C 
BRANCH  23  24
HETATM   24  C   UNL     1      10.011   5.596  91.585  1.00  0.00     0.042 A 
HETATM   25  C   UNL     1      10.507   4.953  90.451  1.00  0.00     0.008 A 
HETATM   26  C   UNL     1      11.461   3.945  90.584  1.00  0.00    -0.002 A 
HETATM   27  C   UNL     1      11.921   3.582  91.850  1.00  0.00     0.011 A 
HETATM   28  C   UNL     1      11.425   4.227  92.983  1.00  0.00    -0.002 A 
HETATM   29  C   UNL     1      10.469   5.234  92.850  1.00  0.00     0.008 A 
BRANCH  27  30
HETATM   30  C   UNL     1      12.944   2.506  91.991  1.00  0.00     0.277 C 
BRANCH  30  31
HETATM   31  N   UNL     1      13.969   2.838  92.978  1.00  0.00     0.147 N 
HETATM   32  C   UNL     1      14.949   1.749  93.096  1.00  0.00     0.283 C 
HETATM   33  C   UNL     1      16.015   2.122  94.124  1.00  0.00     0.178 C 
HETATM   34  O   UNL     1      16.663   3.338  93.748  1.00  0.00    -0.350 OA
HETATM   35  C   UNL     1      15.722   4.409  93.661  1.00  0.00     0.178 C 
HETATM   36  C   UNL     1      14.650   4.091  92.624  1.00  0.00     0.283 C 
ENDBRANCH  30  31
ENDBRANCH  27  30
ENDBRANCH  23  24
ENDBRANCH   4  22
TORSDOF 10
ENDMDL
MODEL 4
REMARK VINA RESULT:      -6.5      1.738      2.118
REMARK  10 active torsions:
REMARK  status: ('A' for Active; 'I' for Inactive)
REMARK    1  A    between atoms: O_2  and  C_16 
REMARK    2  A    between atoms: N_5  and  C_9 
REMARK    3  A    between atoms: N_6  and  C_13 
REMARK       I    between atoms: N_6  and  C_22 
REMARK    4  A    between atoms: C_9  and  C_12 
REMARK    5  A    between atoms: C_13  and  C_16 
REMARK    6  A    between atoms: C_13  and  C_21 
REMARK    7  A    between atoms: C_19  and  C_24 
REMARK    8  A    between atoms: C_22  and  C_23 
REMARK    9  A    between atoms: C_27  and  C_30 
REMARK   10  A    between atoms: N_33  and  S_34 
ROOT
HETATM    1  C   UNL     1       4.792  10.225  91.327  1.00  0.00     0.056 A 
HETATM    2  C   UNL     1       4.625   9.036  90.649  1.00  0.00     0.005 A 
HETATM    3  C   UNL     1       5.920  10.494  92.075  1.00  0.00     0.005 A 
HETATM    4  C   UNL     1       6.779   8.318  91.473  1.00  0.00     0.042 A 
HETATM    5  C   UNL     1       5.630   8.071  90.722  1.00  0.00     0.008 A 
HETATM    6  C   UNL     1       6.925   9.529  92.149  1.00  0.00     0.008 A 
ENDROOT
BRANCH   1   7
HETATM    7  C   UNL     1       3.723  11.254  91.247  1.00  0.00     0.254 C 
HETATM    8  O   UNL     1       2.611  10.931  90.837  1.00  0.00    -0.268 OA
HETATM    9  N   UNL     1       4.070  12.527  91.677  1.00  0.00    -0.337 N 
HETATM   10  HN  UNL     1       5.003  12.713  92.027  1.00  0.00     0.164 HD
BRANCH   9  11
HETATM   11  C   UNL     1       3.137  13.625  91.683  1.00  0.00     0.172 C 
BRANCH  11  12
HETATM   12  C   UNL     1       3.482  14.690  92.731  1.00  0.00     0.136 C 
HETATM   13  C   UNL     1       2.278  15.088  93.577  1.00  0.00     0.034 C 
BRANCH  12  14
HETATM   14  O   UNL     1       4.510  14.200  93.591  1.00  0.00    -0.383 OA
HETATM   15  H   UNL     1       5.359  14.271  93.122  1.00  0.00     0.210 HD
ENDBRANCH  12  14
ENDBRANCH  11  12
BRANCH  11  16
HETATM   16  C   UNL     1       3.107  14.218  90.278  1.00  0.00     0.398 A 
HETATM   17  O   UNL     1       2.897  13.544  89.271  1.00  0.00    -0.136 OA
HETATM   18  N   UNL     1       4.049  14.507  89.033  1.00  0.00     0.142 N 
HETATM   19  HN  UNL     1       4.018  14.097  88.142  1.00  0.00     0.338 HD
BRANCH  18  20
HETATM   20  S   UNL     1       5.015  15.270  89.679  1.00  0.00     0.076 SA
HETATM   21  H   UNL     1       5.874  14.673  90.243  1.00  0.00     0.136 HD
ENDBRANCH  18  20
ENDBRANCH  11  16
ENDBRANCH   9  11
ENDBRANCH   1   7
BRANCH   4  22
HETATM   22  C   UNL     1       7.808   7.328  91.550  1.00  0.00    -0.059 C 
HETATM   23  C   UNL     1       8.672   6.495  91.615  1.00  0.00    -0.059 C 
BRANCH  23  24
HETATM   24  C   UNL     1       9.701   5.504  91.692  1.00  0.00     0.042 A 
HETATM   25  C   UNL     1      10.141   4.866  90.533  1.00  0.00     0.008 A 
HETATM   26  C   UNL     1      11.143   3.899  90.608  1.00  0.00    -0.002 A 
HETATM   27  C   UNL     1      11.706   3.571  91.842  1.00  0.00     0.011 A 
HETATM   28  C   UNL     1      11.265   4.211  93.000  1.00  0.00    -0.002 A 
HETATM   29  C   UNL     1      10.262   5.178  92.925  1.00  0.00     0.008 A 
BRANCH  27  30
HETATM   30  C   UNL     1      12.778   2.539  91.921  1.00  0.00     0.277 C 
BRANCH  30  31
HETATM   31  N   UNL     1      13.817   2.886  92.889  1.00  0.00     0.147 N 
HETATM   32  C   UNL     1      14.716   1.747  93.119  1.00  0.00     0.283 C 
HETATM   33  C   UNL     1      15.797   2.137  94.124  1.00  0.00     0.178 C 
HETATM   34  O   UNL     1      16.533   3.266  93.649  1.00  0.00    -0.350 OA
HETATM   35  C   UNL     1      15.670   4.387  93.453  1.00  0.00     0.178 C 
HETATM   36  C   UNL     1      14.587   4.052  92.433  1.00  0.00     0.283 C 
ENDBRANCH  30  31
ENDBRANCH  27  30
ENDBRANCH  23  24
ENDBRANCH   4  22
TORSDOF 10
ENDMDL
MODEL 5
REMARK VINA RESULT:      -6.4      1.274      1.798
REMARK  10 active torsions:
REMARK  status: ('A' for Active; 'I' for Inactive)
REMARK    1  A    between atoms: O_2  and  C_16 
REMARK    2  A    between atoms: N_5  and  C_9 
REMARK    3  A    between atoms: N_6  and  C_13 
REMARK       I    between atoms: N_6  and  C_22 
REMARK    4  A    between atoms: C_9  and  C_12 
REMARK    5  A    between atoms: C_13  and  C_16 
REMARK    6  A    between atoms: C_13  and  C_21 
REMARK    7  A    between atoms: C_19  and  C_24 
REMARK    8  A    between atoms: C_22  and  C_23 
REMARK    9  A    between atoms: C_27  and  C_30 
REMARK   10  A    between atoms: N_33  and  S_34 
ROOT
HETATM    1  C   UNL     1       5.822   9.626  89.414  1.00  0.00     0.056 A 
HETATM    2  C   UNL     1       6.141   8.593  88.557  1.00  0.00     0.005 A 
HETATM    3  C   UNL     1       6.424   9.772  90.646  1.00  0.00     0.005 A 
HETATM    4  C   UNL     1       7.727   7.790  90.192  1.00  0.00     0.042 A 
HETATM    5  C   UNL     1       7.104   7.664  88.950  1.00  0.00     0.008 A 
HETATM    6  C   UNL     1       7.388   8.844  91.040  1.00  0.00     0.008 A 
ENDROOT
BRANCH   1   7
HETATM    7  C   UNL     1       4.797  10.616  88.994  1.00  0.00     0.254 C 
HETATM    8  O   UNL     1       4.248  10.485  87.903  1.00  0.00    -0.268 OA
HETATM    9  N   UNL     1       4.518  11.626  89.905  1.00  0.00    -0.337 N 
HETATM   10  HN  UNL     1       4.995  11.656  90.799  1.00  0.00     0.164 HD
BRANCH   9  11
HETATM   11  C   UNL     1       3.532  12.646  89.654  1.00  0.00     0.172 C 
BRANCH  11  12
HETATM   12  C   UNL     1       2.829  13.119  90.933  1.00  0.00     0.136 C 
HETATM   13  C   UNL     1       1.635  14.022  90.642  1.00  0.00     0.034 C 
BRANCH  12  14
HETATM   14  O   UNL     1       2.382  11.987  91.678  1.00  0.00    -0.383 OA
HETATM   15  H   UNL     1       1.496  11.743  91.362  1.00  0.00     0.210 HD
ENDBRANCH  12  14
ENDBRANCH  11  12
BRANCH  11  16
HETATM   16  C   UNL     1       4.229  13.803  88.945  1.00  0.00     0.398 A 
HETATM   17  O   UNL     1       5.233  13.655  88.250  1.00  0.00    -0.136 OA
HETATM   18  N   UNL     1       5.390  14.867  89.153  1.00  0.00     0.142 N 
HETATM   19  HN  UNL     1       6.245  14.932  88.677  1.00  0.00     0.338 HD
BRANCH  18  20
HETATM   20  S   UNL     1       4.927  15.448  90.328  1.00  0.00     0.076 SA
HETATM   21  H   UNL     1       3.748  15.477  90.478  1.00  0.00     0.136 HD
ENDBRANCH  18  20
ENDBRANCH  11  16
ENDBRANCH   9  11
ENDBRANCH   1   7
BRANCH   4  22
HETATM   22  C   UNL     1       8.713   6.836  90.596  1.00  0.00    -0.059 C 
HETATM   23  C   UNL     1       9.541   6.033  90.935  1.00  0.00    -0.059 C 
BRANCH  23  24
HETATM   24  C   UNL     1      10.528   5.079  91.339  1.00  0.00     0.042 A 
HETATM   25  C   UNL     1      11.228   4.352  90.376  1.00  0.00     0.008 A 
HETATM   26  C   UNL     1      12.188   3.420  90.769  1.00  0.00    -0.002 A 
HETATM   27  C   UNL     1      12.449   3.217  92.125  1.00  0.00     0.011 A 
HETATM   28  C   UNL     1      11.748   3.946  93.086  1.00  0.00    -0.002 A 
HETATM   29  C   UNL     1      10.787   4.877  92.692  1.00  0.00     0.008 A 
BRANCH  27  30
HETATM   30  C   UNL     1      13.477   2.223  92.544  1.00  0.00     0.277 C 
BRANCH  30  31
HETATM   31  N   UNL     1      14.509   2.813  93.394  1.00  0.00     0.147 N 
HETATM   32  C   UNL     1      15.785   2.101  93.236  1.00  0.00     0.283 C 
HETATM   33  C   UNL     1      16.849   2.741  94.124  1.00  0.00     0.178 C 
HETATM   34  O   UNL     1      17.005   4.123  93.795  1.00  0.00    -0.350 OA
HETATM   35  C   UNL     1      15.777   4.829  93.977  1.00  0.00     0.178 C 
HETATM   36  C   UNL     1      14.688   4.239  93.087  1.00  0.00     0.283 C 
ENDBRANCH  30  31
ENDBRANCH  27  30
ENDBRANCH  23  24
ENDBRANCH   4  22
TORSDOF 10
ENDMDL
MODEL 6
REMARK VINA RESULT:      -5.6      3.005      4.218
REMARK  10 active torsions:
REMARK  status: ('A' for Active; 'I' for Inactive)
REMARK    1  A    between atoms: O_2  and  C_16 
REMARK    2  A    between atoms: N_5  and  C_9 
REMARK    3  A    between atoms: N_6  and  C_13 
REMARK       I    between atoms: N_6  and  C_22 
REMARK    4  A    between atoms: C_9  and  C_12 
REMARK    5  A    between atoms: C_13  and  C_16 
REMARK    6  A    between atoms: C_13  and  C_21 
REMARK    7  A    between atoms: C_19  and  C_24 
REMARK    8  A    between atoms: C_22  and  C_23 
REMARK    9  A    between atoms: C_27  and  C_30 
REMARK   10  A    between atoms: N_33  and  S_34 
ROOT
HETATM    1  C   UNL     1       6.155   7.059  88.215  1.00  0.00     0.056 A 
HETATM    2  C   UNL     1       5.857   6.148  89.207  1.00  0.00     0.005 A 
HETATM    3  C   UNL     1       7.452   7.357  87.855  1.00  0.00     0.005 A 
HETATM    4  C   UNL     1       8.225   5.792  89.524  1.00  0.00     0.042 A 
HETATM    5  C   UNL     1       6.904   5.507  89.870  1.00  0.00     0.008 A 
HETATM    6  C   UNL     1       8.500   6.717  88.517  1.00  0.00     0.008 A 
ENDROOT
BRANCH   1   7
HETATM    7  C   UNL     1       5.039   7.740  87.508  1.00  0.00     0.254 C 
HETATM    8  O   UNL     1       5.153   7.991  86.311  1.00  0.00    -0.268 OA
HETATM    9  N   UNL     1       3.917   8.022  88.273  1.00  0.00    -0.337 N 
HETATM   10  HN  UNL     1       3.884   7.762  89.252  1.00  0.00     0.164 HD
BRANCH   9  11
HETATM   11  C   UNL     1       2.745   8.657  87.726  1.00  0.00     0.172 C 
BRANCH  11  12
HETATM   12  C   UNL     1       1.458   7.869  88.004  1.00  0.00     0.136 C 
HETATM   13  C   UNL     1       1.209   6.775  86.972  1.00  0.00     0.034 C 
BRANCH  12  14
HETATM   14  O   UNL     1       1.533   7.276  89.300  1.00  0.00    -0.383 OA
HETATM   15  H   UNL     1       2.329   7.613  89.744  1.00  0.00     0.210 HD
ENDBRANCH  12  14
ENDBRANCH  11  12
BRANCH  11  16
HETATM   16  C   UNL     1       2.667  10.067  88.302  1.00  0.00     0.398 A 
HETATM   17  O   UNL     1       3.188  11.041  87.762  1.00  0.00    -0.136 OA
HETATM   18  N   UNL     1       3.454  11.062  89.259  1.00  0.00     0.142 N 
HETATM   19  HN  UNL     1       3.906  11.899  89.021  1.00  0.00     0.338 HD
BRANCH  18  20
HETATM   20  S   UNL     1       3.506  10.258  90.392  1.00  0.00     0.076 SA
HETATM   21  H   UNL     1       4.147   9.261  90.307  1.00  0.00     0.136 HD
ENDBRANCH  18  20
ENDBRANCH  11  16
ENDBRANCH   9  11
ENDBRANCH   1   7
BRANCH   4  22
HETATM   22  C   UNL     1       9.298   5.138  90.206  1.00  0.00    -0.059 C 
HETATM   23  C   UNL     1      10.201   4.587  90.778  1.00  0.00    -0.059 C 
BRANCH  23  24
HETATM   24  C   UNL     1      11.275   3.932  91.459  1.00  0.00     0.042 A 
HETATM   25  C   UNL     1      12.325   3.375  90.730  1.00  0.00     0.008 A 
HETATM   26  C   UNL     1      13.372   2.735  91.393  1.00  0.00    -0.002 A 
HETATM   27  C   UNL     1      13.368   2.654  92.786  1.00  0.00     0.011 A 
HETATM   28  C   UNL     1      12.317   3.211  93.514  1.00  0.00    -0.002 A 
HETATM   29  C   UNL     1      11.271   3.851  92.850  1.00  0.00     0.008 A 
BRANCH  27  30
HETATM   30  C   UNL     1      14.488   1.971  93.494  1.00  0.00     0.277 C 
BRANCH  30  31
HETATM   31  N   UNL     1      15.486   2.914  93.998  1.00  0.00     0.147 N 
HETATM   32  C   UNL     1      16.838   2.504  93.597  1.00  0.00     0.283 C 
HETATM   33  C   UNL     1      17.860   3.508  94.124  1.00  0.00     0.178 C 
HETATM   34  O   UNL     1      17.569   4.818  93.634  1.00  0.00    -0.350 OA
HETATM   35  C   UNL     1      16.267   5.236  94.046  1.00  0.00     0.178 C 
HETATM   36  C   UNL     1      15.208   4.274  93.518  1.00  0.00     0.283 C 
ENDBRANCH  30  31
ENDBRANCH  27  30
ENDBRANCH  23  24
ENDBRANCH   4  22
TORSDOF 10
ENDMDL
MODEL 7
REMARK VINA RESULT:      -5.5      3.591     12.331
REMARK  10 active torsions:
REMARK  status: ('A' for Active; 'I' for Inactive)
REMARK    1  A    between atoms: O_2  and  C_16 
REMARK    2  A    between atoms: N_5  and  C_9 
REMARK    3  A    between atoms: N_6  and  C_13 
REMARK       I    between atoms: N_6  and  C_22 
REMARK    4  A    between atoms: C_9  and  C_12 
REMARK    5  A    between atoms: C_13  and  C_16 
REMARK    6  A    between atoms: C_13  and  C_21 
REMARK    7  A    between atoms: C_19  and  C_24 
REMARK    8  A    between atoms: C_22  and  C_23 
REMARK    9  A    between atoms: C_27  and  C_30 
REMARK   10  A    between atoms: N_33  and  S_34 
ROOT
HETATM    1  C   UNL     1      10.113   5.818  89.789  1.00  0.00     0.056 A 
HETATM    2  C   UNL     1       9.333   5.986  90.914  1.00  0.00     0.005 A 
HETATM    3  C   UNL     1      10.011   6.646  88.691  1.00  0.00     0.005 A 
HETATM    4  C   UNL     1       8.284   7.881  89.844  1.00  0.00     0.042 A 
HETATM    5  C   UNL     1       8.408   7.029  90.942  1.00  0.00     0.008 A 
HETATM    6  C   UNL     1       9.085   7.690  88.719  1.00  0.00     0.008 A 
ENDROOT
BRANCH   1   7
HETATM    7  C   UNL     1      11.101   4.708  89.760  1.00  0.00     0.254 C 
HETATM    8  O   UNL     1      11.265   4.079  88.718  1.00  0.00    -0.268 OA
HETATM    9  N   UNL     1      11.795   4.481  90.940  1.00  0.00    -0.337 N 
HETATM   10  HN  UNL     1      11.624   5.058  91.755  1.00  0.00     0.164 HD
BRANCH   9  11
HETATM   11  C   UNL     1      12.802   3.457  91.063  1.00  0.00     0.172 C 
BRANCH  11  12
HETATM   12  C   UNL     1      14.222   4.029  91.150  1.00  0.00     0.136 C 
HETATM   13  C   UNL     1      15.279   3.044  90.660  1.00  0.00     0.034 C 
BRANCH  12  14
HETATM   14  O   UNL     1      14.305   5.222  90.371  1.00  0.00    -0.383 OA
HETATM   15  H   UNL     1      13.404   5.479  90.110  1.00  0.00     0.210 HD
ENDBRANCH  12  14
ENDBRANCH  11  12
BRANCH  11  16
HETATM   16  C   UNL     1      12.465   2.618  92.291  1.00  0.00     0.398 A 
HETATM   17  O   UNL     1      11.359   2.629  92.827  1.00  0.00    -0.136 OA
HETATM   18  N   UNL     1      12.455   2.691  93.878  1.00  0.00     0.142 N 
HETATM   19  HN  UNL     1      11.680   2.680  94.480  1.00  0.00     0.338 HD
BRANCH  18  20
HETATM   20  S   UNL     1      13.790   3.024  94.077  1.00  0.00     0.076 SA
HETATM   21  H   UNL     1      14.404   3.356  93.114  1.00  0.00     0.136 HD
ENDBRANCH  18  20
ENDBRANCH  11  16
ENDBRANCH   9  11
ENDBRANCH   1   7
BRANCH   4  22
HETATM   22  C   UNL     1       7.334   8.948  89.872  1.00  0.00    -0.059 C 
HETATM   23  C   UNL     1       6.533   9.846  89.896  1.00  0.00    -0.059 C 
BRANCH  23  24
HETATM   24  C   UNL     1       5.582  10.914  89.924  1.00  0.00     0.042 A 
HETATM   25  C   UNL     1       4.371  10.749  90.597  1.00  0.00     0.008 A 
HETATM   26  C   UNL     1       3.443  11.789  90.624  1.00  0.00    -0.002 A 
HETATM   27  C   UNL     1       3.726  12.994  89.979  1.00  0.00     0.011 A 
HETATM   28  C   UNL     1       4.937  13.156  89.306  1.00  0.00    -0.002 A 
HETATM   29  C   UNL     1       5.865  12.116  89.280  1.00  0.00     0.008 A 
BRANCH  27  30
HETATM   30  C   UNL     1       2.733  14.106  90.009  1.00  0.00     0.277 C 
BRANCH  30  31
HETATM   31  N   UNL     1       2.697  14.785  91.304  1.00  0.00     0.147 N 
HETATM   32  C   UNL     1       1.771  14.107  92.221  1.00  0.00     0.283 C 
HETATM   33  C   UNL     1       1.759  14.826  93.568  1.00  0.00     0.178 C 
HETATM   34  O   UNL     1       3.075  14.863  94.124  1.00  0.00    -0.350 OA
HETATM   35  C   UNL     1       3.975  15.548  93.251  1.00  0.00     0.178 C 
HETATM   36  C   UNL     1       4.040  14.847  91.898  1.00  0.00     0.283 C 
ENDBRANCH  30  31
ENDBRANCH  27  30
ENDBRANCH  23  24
ENDBRANCH   4  22
TORSDOF 10
ENDMDL
MODEL 8
REMARK VINA RESULT:      -5.4      3.687     12.580
REMARK  10 active torsions:
REMARK  status: ('A' for Active; 'I' for Inactive)
REMARK    1  A    between atoms: O_2  and  C_16 
REMARK    2  A    between atoms: N_5  and  C_9 
REMARK    3  A    between atoms: N_6  and  C_13 
REMARK       I    between atoms: N_6  and  C_22 
REMARK    4  A    between atoms: C_9  and  C_12 
REMARK    5  A    between atoms: C_13  and  C_16 
REMARK    6  A    between atoms: C_13  and  C_21 
REMARK    7  A    between atoms: C_19  and  C_24 
REMARK    8  A    between atoms: C_22  and  C_23 
REMARK    9  A    between atoms: C_27  and  C_30 
REMARK   10  A    between atoms: N_33  and  S_34 
ROOT
HETATM    1  C   UNL     1      10.482   5.101  92.090  1.00  0.00     0.056 A 
HETATM    2  C   UNL     1       9.980   5.860  93.126  1.00  0.00     0.005 A 
HETATM    3  C   UNL     1      10.131   5.328  90.775  1.00  0.00     0.005 A 
HETATM    4  C   UNL     1       8.717   7.141  91.515  1.00  0.00     0.042 A 
HETATM    5  C   UNL     1       9.088   6.892  92.837  1.00  0.00     0.008 A 
HETATM    6  C   UNL     1       9.238   6.360  90.484  1.00  0.00     0.008 A 
ENDROOT
BRANCH   1   7
HETATM    7  C   UNL     1      11.434   4.003  92.398  1.00  0.00     0.254 C 
HETATM    8  O   UNL     1      11.034   2.842  92.388  1.00  0.00    -0.268 OA
HETATM    9  N   UNL     1      12.742   4.388  92.657  1.00  0.00    -0.337 N 
HETATM   10  HN  UNL     1      13.005   5.366  92.623  1.00  0.00     0.164 HD
BRANCH   9  11
HETATM   11  C   UNL     1      13.787   3.439  92.949  1.00  0.00     0.172 C 
BRANCH  11  12
HETATM   12  C   UNL     1      14.323   2.743  91.693  1.00  0.00     0.136 C 
HETATM   13  C   UNL     1      14.293   3.647  90.465  1.00  0.00     0.034 C 
BRANCH  12  14
HETATM   14  O   UNL     1      15.666   2.316  91.920  1.00  0.00    -0.383 OA
HETATM   15  H   UNL     1      16.243   3.098  91.895  1.00  0.00     0.210 HD
ENDBRANCH  12  14
ENDBRANCH  11  12
BRANCH  11  16
HETATM   16  C   UNL     1      14.896   4.180  93.689  1.00  0.00     0.398 A 
HETATM   17  O   UNL     1      15.429   5.198  93.251  1.00  0.00    -0.136 OA
HETATM   18  N   UNL     1      16.478   4.248  93.805  1.00  0.00     0.142 N 
HETATM   19  HN  UNL     1      17.074   4.982  93.542  1.00  0.00     0.338 HD
BRANCH  18  20
HETATM   20  S   UNL     1      16.718   2.917  94.124  1.00  0.00     0.076 SA
HETATM   21  H   UNL     1      16.370   2.109  93.325  1.00  0.00     0.136 HD
ENDBRANCH  18  20
ENDBRANCH  11  16
ENDBRANCH   9  11
ENDBRANCH   1   7
BRANCH   4  22
HETATM   22  C   UNL     1       7.800   8.197  91.218  1.00  0.00    -0.059 C 
HETATM   23  C   UNL     1       7.029   9.085  90.968  1.00  0.00    -0.059 C 
BRANCH  23  24
HETATM   24  C   UNL     1       6.111  10.141  90.670  1.00  0.00     0.042 A 
HETATM   25  C   UNL     1       4.918  10.248  91.384  1.00  0.00     0.008 A 
HETATM   26  C   UNL     1       4.022  11.277  91.093  1.00  0.00    -0.002 A 
HETATM   27  C   UNL     1       4.320  12.198  90.088  1.00  0.00     0.011 A 
HETATM   28  C   UNL     1       5.514  12.089  89.375  1.00  0.00    -0.002 A 
HETATM   29  C   UNL     1       6.410  11.060  89.667  1.00  0.00     0.008 A 
BRANCH  27  30
HETATM   30  C   UNL     1       3.363  13.298  89.779  1.00  0.00     0.277 C 
BRANCH  30  31
HETATM   31  N   UNL     1       3.169  14.203  90.911  1.00  0.00     0.147 N 
HETATM   32  C   UNL     1       1.979  13.821  91.684  1.00  0.00     0.283 C 
HETATM   33  C   UNL     1       1.804  14.772  92.865  1.00  0.00     0.178 C 
HETATM   34  O   UNL     1       2.967  14.752  93.696  1.00  0.00    -0.350 OA
HETATM   35  C   UNL     1       4.123  15.152  92.959  1.00  0.00     0.178 C 
HETATM   36  C   UNL     1       4.354  14.212  91.781  1.00  0.00     0.283 C 
ENDBRANCH  30  31
ENDBRANCH  27  30
ENDBRANCH  23  24
ENDBRANCH   4  22
TORSDOF 10
ENDMDL
MODEL 9
REMARK VINA RESULT:      -4.4      1.666      2.484
REMARK  10 active torsions:
REMARK  status: ('A' for Active; 'I' for Inactive)
REMARK    1  A    between atoms: O_2  and  C_16 
REMARK    2  A    between atoms: N_5  and  C_9 
REMARK    3  A    between atoms: N_6  and  C_13 
REMARK       I    between atoms: N_6  and  C_22 
REMARK    4  A    between atoms: C_9  and  C_12 
REMARK    5  A    between atoms: C_13  and  C_16 
REMARK    6  A    between atoms: C_13  and  C_21 
REMARK    7  A    between atoms: C_19  and  C_24 
REMARK    8  A    between atoms: C_22  and  C_23 
REMARK    9  A    between atoms: C_27  and  C_30 
REMARK   10  A    between atoms: N_33  and  S_34 
ROOT
HETATM    1  C   UNL     1       6.273   9.519  89.825  1.00  0.00     0.056 A 
HETATM    2  C   UNL     1       7.045   9.763  90.941  1.00  0.00     0.005 A 
HETATM    3  C   UNL     1       6.413   8.374  89.069  1.00  0.00     0.005 A 
HETATM    4  C   UNL     1       8.163   7.655  90.571  1.00  0.00     0.042 A 
HETATM    5  C   UNL     1       8.001   8.821  91.320  1.00  0.00     0.008 A 
HETATM    6  C   UNL     1       7.369   7.431  89.447  1.00  0.00     0.008 A 
ENDROOT
BRANCH   1   7
HETATM    7  C   UNL     1       5.253  10.523  89.424  1.00  0.00     0.254 C 
HETATM    8  O   UNL     1       4.321  10.175  88.703  1.00  0.00    -0.268 OA
HETATM    9  N   UNL     1       5.428  11.803  89.931  1.00  0.00    -0.337 N 
HETATM   10  HN  UNL     1       6.209  12.010  90.542  1.00  0.00     0.164 HD
BRANCH   9  11
HETATM   11  C   UNL     1       4.510  12.879  89.653  1.00  0.00     0.172 C 
BRANCH  11  12
HETATM   12  C   UNL     1       4.364  13.161  88.152  1.00  0.00     0.136 C 
HETATM   13  C   UNL     1       5.577  13.881  87.573  1.00  0.00     0.034 C 
BRANCH  12  14
HETATM   14  O   UNL     1       4.176  11.932  87.451  1.00  0.00    -0.383 OA
HETATM   15  H   UNL     1       3.222  11.798  87.323  1.00  0.00     0.210 HD
ENDBRANCH  12  14
ENDBRANCH  11  12
BRANCH  11  16
HETATM   16  C   UNL     1       3.168  12.521  90.283  1.00  0.00     0.398 A 
HETATM   17  O   UNL     1       2.092  12.707  89.718  1.00  0.00    -0.136 OA
HETATM   18  N   UNL     1       2.009  13.146  91.171  1.00  0.00     0.142 N 
HETATM   19  HN  UNL     1       1.083  13.339  90.909  1.00  0.00     0.338 HD
BRANCH  18  20
HETATM   20  S   UNL     1       2.776  13.543  92.260  1.00  0.00     0.076 SA
HETATM   21  H   UNL     1       3.851  13.988  92.019  1.00  0.00     0.136 HD
ENDBRANCH  18  20
ENDBRANCH  11  16
ENDBRANCH   9  11
ENDBRANCH   1   7
BRANCH   4  22
HETATM   22  C   UNL     1       9.145   6.690  90.957  1.00  0.00    -0.059 C 
HETATM   23  C   UNL     1       9.970   5.878  91.282  1.00  0.00    -0.059 C 
BRANCH  23  24
HETATM   24  C   UNL     1      10.953   4.912  91.668  1.00  0.00     0.042 A 
HETATM   25  C   UNL     1      10.959   4.407  92.968  1.00  0.00     0.008 A 
HETATM   26  C   UNL     1      11.918   3.467  93.345  1.00  0.00    -0.002 A 
HETATM   27  C   UNL     1      12.868   3.030  92.421  1.00  0.00     0.011 A 
HETATM   28  C   UNL     1      12.859   3.536  91.121  1.00  0.00    -0.002 A 
HETATM   29  C   UNL     1      11.901   4.477  90.745  1.00  0.00     0.008 A 
BRANCH  27  30
HETATM   30  C   UNL     1      13.891   2.024  92.825  1.00  0.00     0.277 C 
BRANCH  30  31
HETATM   31  N   UNL     1      15.042   2.634  93.488  1.00  0.00     0.147 N 
HETATM   32  C   UNL     1      16.297   2.172  92.880  1.00  0.00     0.283 C 
HETATM   33  C   UNL     1      17.483   2.830  93.581  1.00  0.00     0.178 C 
HETATM   34  O   UNL     1      17.382   4.253  93.498  1.00  0.00    -0.350 OA
HETATM   35  C   UNL     1      16.179   4.713  94.114  1.00  0.00     0.178 C 
HETATM   36  C   UNL     1      14.962   4.100  93.428  1.00  0.00     0.283 C 
ENDBRANCH  30  31
ENDBRANCH  27  30
ENDBRANCH  23  24
ENDBRANCH   4  22
TORSDOF 10
ENDMDL
