MODEL 1
REMARK VINA RESULT:      -7.5      0.000      0.000
REMARK  9 active torsions:
REMARK  status: ('A' for Active; 'I' for Inactive)
REMARK    1  A    between atoms: N_3  and  C_6 
REMARK    2  A    between atoms: C_6  and  C_9 
REMARK    3  A    between atoms: C_14  and  C_17 
REMARK       I    between atoms: N_26  and  C_15 
REMARK    4  A    between atoms: C_15  and  C_16 
REMARK    5  A    between atoms: C_20  and  C_23 
REMARK    6  A    between atoms: OG1_24  and  CB_28 
REMARK    7  A    between atoms: N_26  and  CA_27 
REMARK    8  A    between atoms: CA_27  and  CB_28 
REMARK    9  A    between atoms: CA_27  and  C_30 
ROOT
HETATM    1  O   UNK A   0       1.935   8.080  87.783  1.00  0.00    -0.388 OA
HETATM    2  N   UNK A   0       4.739   7.605  87.667  1.00  0.00     0.096 N 
HETATM    3  C   UNK A   0       4.193   8.967  87.751  1.00  0.00     0.299 C 
HETATM    4  C   UNK A   0       3.780   6.720  86.990  1.00  0.00     0.299 C 
HETATM    5  C   UNK A   0       2.846   8.940  88.468  1.00  0.00     0.198 C 
HETATM    6  C   UNK A   0       2.444   6.747  87.724  1.00  0.00     0.198 C 
ENDROOT
BRANCH   2   7
HETATM    7  C   UNK A   0       6.026   7.604  86.974  1.00  0.00     0.311 C 
BRANCH   7   8
HETATM    8  C   UNK A   0       7.110   6.986  87.789  1.00  0.00    -0.030 A 
HETATM    9  C   UNK A   0       6.925   6.788  89.158  1.00  0.00     0.010 A 
HETATM   10  C   UNK A   0       7.940   6.212  89.922  1.00  0.00     0.021 A 
HETATM   11  C   UNK A   0       9.137   5.833  89.317  1.00  0.00     0.018 A 
HETATM   12  C   UNK A   0       9.323   6.030  87.950  1.00  0.00     0.021 A 
HETATM   13  C   UNK A   0       8.309   6.607  87.186  1.00  0.00     0.010 A 
BRANCH  11  14
HETATM   14  C   UNK A   0      10.177   5.240  90.101  1.00  0.00    -0.061 C 
HETATM   15  C   UNK A   0      11.051   4.742  90.760  1.00  0.00    -0.061 C 
BRANCH  15  16
HETATM   16  C   UNK A   0      12.089   4.149  91.544  1.00  0.00     0.018 A 
HETATM   17  C   UNK A   0      13.349   3.937  90.984  1.00  0.00     0.022 A 
HETATM   18  C   UNK A   0      14.363   3.361  91.750  1.00  0.00     0.018 A 
HETATM   19  C   UNK A   0      14.095   3.011  93.056  1.00  0.00     0.032 A 
HETATM   20  C   UNK A   0      12.857   3.209  93.632  1.00  0.00     0.018 A 
HETATM   21  C   UNK A   0      11.843   3.785  92.868  1.00  0.00     0.022 A 
BRANCH  19  22
HETATM   22  C   UNK A   0      15.174   2.395  93.871  1.00  0.00     0.252 C 
HETATM   23  O   UNK A   0      16.322   2.822  93.767  1.00  0.00    -0.268 OA
ENDBRANCH  19  22
ENDBRANCH  15  16
ENDBRANCH  11  14
ENDBRANCH   7   8
ENDBRANCH   2   7
TORSDOF 9
ENDMDL
MODEL 2
REMARK VINA RESULT:      -7.5      0.218      1.439
REMARK  9 active torsions:
REMARK  status: ('A' for Active; 'I' for Inactive)
REMARK    1  A    between atoms: N_3  and  C_6 
REMARK    2  A    between atoms: C_6  and  C_9 
REMARK    3  A    between atoms: C_14  and  C_17 
REMARK       I    between atoms: N_26  and  C_15 
REMARK    4  A    between atoms: C_15  and  C_16 
REMARK    5  A    between atoms: C_20  and  C_23 
REMARK    6  A    between atoms: OG1_24  and  CB_28 
REMARK    7  A    between atoms: N_26  and  CA_27 
REMARK    8  A    between atoms: CA_27  and  CB_28 
REMARK    9  A    between atoms: CA_27  and  C_30 
ROOT
HETATM    1  O   UNK A   0       1.715   7.999  87.882  1.00  0.00    -0.388 OA
HETATM    2  N   UNK A   0       4.521   7.550  87.713  1.00  0.00     0.096 N 
HETATM    3  C   UNK A   0       3.967   8.904  87.847  1.00  0.00     0.299 C 
HETATM    4  C   UNK A   0       3.560   6.679  87.022  1.00  0.00     0.299 C 
HETATM    5  C   UNK A   0       2.630   8.846  88.581  1.00  0.00     0.198 C 
HETATM    6  C   UNK A   0       2.233   6.673  87.775  1.00  0.00     0.198 C 
ENDROOT
BRANCH   2   7
HETATM    7  C   UNK A   0       5.798   7.581  87.002  1.00  0.00     0.311 C 
BRANCH   7   8
HETATM    8  C   UNK A   0       6.905   6.976  87.796  1.00  0.00    -0.030 A 
HETATM    9  C   UNK A   0       8.141   6.732  87.195  1.00  0.00     0.010 A 
HETATM   10  C   UNK A   0       9.176   6.164  87.936  1.00  0.00     0.021 A 
HETATM   11  C   UNK A   0       8.977   5.842  89.278  1.00  0.00     0.018 A 
HETATM   12  C   UNK A   0       7.744   6.086  89.880  1.00  0.00     0.021 A 
HETATM   13  C   UNK A   0       6.708   6.654  89.138  1.00  0.00     0.010 A 
BRANCH  11  14
HETATM   14  C   UNK A   0      10.040   5.262  90.039  1.00  0.00    -0.061 C 
HETATM   15  C   UNK A   0      10.934   4.774  90.679  1.00  0.00    -0.061 C 
BRANCH  15  16
HETATM   16  C   UNK A   0      11.996   4.194  91.440  1.00  0.00     0.018 A 
HETATM   17  C   UNK A   0      11.779   3.821  92.767  1.00  0.00     0.022 A 
HETATM   18  C   UNK A   0      12.815   3.252  93.508  1.00  0.00     0.018 A 
HETATM   19  C   UNK A   0      14.042   3.069  92.907  1.00  0.00     0.032 A 
HETATM   20  C   UNK A   0      14.282   3.429  91.598  1.00  0.00     0.018 A 
HETATM   21  C   UNK A   0      13.247   3.998  90.855  1.00  0.00     0.022 A 
BRANCH  19  22
HETATM   22  C   UNK A   0      15.146   2.465  93.698  1.00  0.00     0.252 C 
HETATM   23  O   UNK A   0      16.134   3.144  93.965  1.00  0.00    -0.268 OA
ENDBRANCH  19  22
ENDBRANCH  15  16
ENDBRANCH  11  14
ENDBRANCH   7   8
ENDBRANCH   2   7
TORSDOF 9
ENDMDL
MODEL 3
REMARK VINA RESULT:      -6.9      0.937      1.484
REMARK  9 active torsions:
REMARK  status: ('A' for Active; 'I' for Inactive)
REMARK    1  A    between atoms: N_3  and  C_6 
REMARK    2  A    between atoms: C_6  and  C_9 
REMARK    3  A    between atoms: C_14  and  C_17 
REMARK       I    between atoms: N_26  and  C_15 
REMARK    4  A    between atoms: C_15  and  C_16 
REMARK    5  A    between atoms: C_20  and  C_23 
REMARK    6  A    between atoms: OG1_24  and  CB_28 
REMARK    7  A    between atoms: N_26  and  CA_27 
REMARK    8  A    between atoms: CA_27  and  CB_28 
REMARK    9  A    between atoms: CA_27  and  C_30 
ROOT
HETATM    1  O   UNK A   0       2.696  10.221  89.009  1.00  0.00    -0.388 OA
HETATM    2  N   UNK A   0       4.587   8.149  88.523  1.00  0.00     0.096 N 
HETATM    3  C   UNK A   0       4.994   9.560  88.591  1.00  0.00     0.299 C 
HETATM    4  C   UNK A   0       3.198   8.048  88.054  1.00  0.00     0.299 C 
HETATM    5  C   UNK A   0       4.035  10.331  89.495  1.00  0.00     0.198 C 
HETATM    6  C   UNK A   0       2.282   8.855  88.969  1.00  0.00     0.198 C 
ENDROOT
BRANCH   2   7
HETATM    7  C   UNK A   0       5.485   7.393  87.653  1.00  0.00     0.311 C 
BRANCH   7   8
HETATM    8  C   UNK A   0       6.647   6.823  88.393  1.00  0.00    -0.030 A 
HETATM    9  C   UNK A   0       6.518   6.493  89.743  1.00  0.00     0.010 A 
HETATM   10  C   UNK A   0       7.605   5.962  90.438  1.00  0.00     0.021 A 
HETATM   11  C   UNK A   0       8.818   5.759  89.782  1.00  0.00     0.018 A 
HETATM   12  C   UNK A   0       8.948   6.087  88.434  1.00  0.00     0.021 A 
HETATM   13  C   UNK A   0       7.862   6.619  87.739  1.00  0.00     0.010 A 
BRANCH  11  14
HETATM   14  C   UNK A   0       9.932   5.212  90.494  1.00  0.00    -0.061 C 
HETATM   15  C   UNK A   0      10.868   4.752  91.092  1.00  0.00    -0.061 C 
BRANCH  15  16
HETATM   16  C   UNK A   0      11.982   4.205  91.803  1.00  0.00     0.018 A 
HETATM   17  C   UNK A   0      11.795   3.650  93.069  1.00  0.00     0.022 A 
HETATM   18  C   UNK A   0      12.881   3.114  93.761  1.00  0.00     0.018 A 
HETATM   19  C   UNK A   0      14.128   3.144  93.172  1.00  0.00     0.032 A 
HETATM   20  C   UNK A   0      14.338   3.687  91.922  1.00  0.00     0.018 A 
HETATM   21  C   UNK A   0      13.253   4.223  91.229  1.00  0.00     0.022 A 
BRANCH  19  22
HETATM   22  C   UNK A   0      15.285   2.575  93.911  1.00  0.00     0.252 C 
HETATM   23  O   UNK A   0      16.424   2.823  93.524  1.00  0.00    -0.268 OA
ENDBRANCH  19  22
ENDBRANCH  15  16
ENDBRANCH  11  14
ENDBRANCH   7   8
ENDBRANCH   2   7
TORSDOF 9
ENDMDL
MODEL 4
REMARK VINA RESULT:      -6.9      1.463      2.045
REMARK  9 active torsions:
REMARK  status: ('A' for Active; 'I' for Inactive)
REMARK    1  A    between atoms: N_3  and  C_6 
REMARK    2  A    between atoms: C_6  and  C_9 
REMARK    3  A    between atoms: C_14  and  C_17 
REMARK       I    between atoms: N_26  and  C_15 
REMARK    4  A    between atoms: C_15  and  C_16 
REMARK    5  A    between atoms: C_20  and  C_23 
REMARK    6  A    between atoms: OG1_24  and  CB_28 
REMARK    7  A    between atoms: N_26  and  CA_27 
REMARK    8  A    between atoms: CA_27  and  CB_28 
REMARK    9  A    between atoms: CA_27  and  C_30 
ROOT
HETATM    1  O   UNK A   0       2.829  11.166  89.687  1.00  0.00    -0.388 OA
HETATM    2  N   UNK A   0       4.628   9.183  88.719  1.00  0.00     0.096 N 
HETATM    3  C   UNK A   0       3.785   9.967  87.805  1.00  0.00     0.299 C 
HETATM    4  C   UNK A   0       3.966   9.049  90.024  1.00  0.00     0.299 C 
HETATM    5  C   UNK A   0       3.479  11.329  88.425  1.00  0.00     0.198 C 
HETATM    6  C   UNK A   0       3.655  10.431  90.591  1.00  0.00     0.198 C 
ENDROOT
BRANCH   2   7
HETATM    7  C   UNK A   0       4.925   7.870  88.149  1.00  0.00     0.311 C 
BRANCH   7   8
HETATM    8  C   UNK A   0       6.145   7.255  88.746  1.00  0.00    -0.030 A 
HETATM    9  C   UNK A   0       7.401   7.803  88.482  1.00  0.00     0.010 A 
HETATM   10  C   UNK A   0       8.544   7.228  89.037  1.00  0.00     0.021 A 
HETATM   11  C   UNK A   0       8.430   6.106  89.858  1.00  0.00     0.018 A 
HETATM   12  C   UNK A   0       7.176   5.558  90.123  1.00  0.00     0.021 A 
HETATM   13  C   UNK A   0       6.033   6.133  89.567  1.00  0.00     0.010 A 
BRANCH  11  14
HETATM   14  C   UNK A   0       9.602   5.518  90.430  1.00  0.00    -0.061 C 
HETATM   15  C   UNK A   0      10.586   5.023  90.911  1.00  0.00    -0.061 C 
BRANCH  15  16
HETATM   16  C   UNK A   0      11.757   4.434  91.482  1.00  0.00     0.018 A 
HETATM   17  C   UNK A   0      12.918   4.311  90.719  1.00  0.00     0.022 A 
HETATM   18  C   UNK A   0      14.061   3.739  91.277  1.00  0.00     0.018 A 
HETATM   19  C   UNK A   0      14.018   3.303  92.585  1.00  0.00     0.032 A 
HETATM   20  C   UNK A   0      12.882   3.413  93.360  1.00  0.00     0.018 A 
HETATM   21  C   UNK A   0      11.739   3.985  92.803  1.00  0.00     0.022 A 
BRANCH  19  22
HETATM   22  C   UNK A   0      15.235   2.692  93.179  1.00  0.00     0.252 C 
HETATM   23  O   UNK A   0      15.874   3.322  94.018  1.00  0.00    -0.268 OA
ENDBRANCH  19  22
ENDBRANCH  15  16
ENDBRANCH  11  14
ENDBRANCH   7   8
ENDBRANCH   2   7
TORSDOF 9
ENDMDL
MODEL 5
REMARK VINA RESULT:      -6.6      3.910     10.455
REMARK  9 active torsions:
REMARK  status: ('A' for Active; 'I' for Inactive)
REMARK    1  A    between atoms: N_3  and  C_6 
REMARK    2  A    between atoms: C_6  and  C_9 
REMARK    3  A    between atoms: C_14  and  C_17 
REMARK       I    between atoms: N_26  and  C_15 
REMARK    4  A    between atoms: C_15  and  C_16 
REMARK    5  A    between atoms: C_20  and  C_23 
REMARK    6  A    between atoms: OG1_24  and  CB_28 
REMARK    7  A    between atoms: N_26  and  CA_27 
REMARK    8  A    between atoms: CA_27  and  CB_28 
REMARK    9  A    between atoms: CA_27  and  C_30 
ROOT
HETATM    1  O   UNK A   0      14.587   3.356  92.093  1.00  0.00    -0.388 OA
HETATM    2  N   UNK A   0      11.864   4.164  92.281  1.00  0.00     0.096 N 
HETATM    3  C   UNK A   0      12.474   3.281  93.285  1.00  0.00     0.299 C 
HETATM    4  C   UNK A   0      12.523   3.978  90.980  1.00  0.00     0.299 C 
HETATM    5  C   UNK A   0      13.974   3.553  93.369  1.00  0.00     0.198 C 
HETATM    6  C   UNK A   0      14.021   4.232  91.118  1.00  0.00     0.198 C 
ENDROOT
BRANCH   2   7
HETATM    7  C   UNK A   0      10.427   3.913  92.176  1.00  0.00     0.311 C 
BRANCH   7   8
HETATM    8  C   UNK A   0       9.654   5.155  91.890  1.00  0.00    -0.030 A 
HETATM    9  C   UNK A   0       9.877   6.305  92.649  1.00  0.00     0.010 A 
HETATM   10  C   UNK A   0       9.153   7.467  92.384  1.00  0.00     0.021 A 
HETATM   11  C   UNK A   0       8.207   7.479  91.360  1.00  0.00     0.018 A 
HETATM   12  C   UNK A   0       7.983   6.332  90.601  1.00  0.00     0.021 A 
HETATM   13  C   UNK A   0       8.707   5.169  90.866  1.00  0.00     0.010 A 
BRANCH  11  14
HETATM   14  C   UNK A   0       7.465   8.672  91.087  1.00  0.00    -0.061 C 
HETATM   15  C   UNK A   0       6.841   9.674  90.858  1.00  0.00    -0.061 C 
BRANCH  15  16
HETATM   16  C   UNK A   0       6.100  10.866  90.586  1.00  0.00     0.018 A 
HETATM   17  C   UNK A   0       5.264  11.405  91.565  1.00  0.00     0.022 A 
HETATM   18  C   UNK A   0       4.543  12.569  91.300  1.00  0.00     0.018 A 
HETATM   19  C   UNK A   0       4.674  13.168  90.065  1.00  0.00     0.032 A 
HETATM   20  C   UNK A   0       5.493  12.655  89.081  1.00  0.00     0.018 A 
HETATM   21  C   UNK A   0       6.214  11.491  89.344  1.00  0.00     0.022 A 
BRANCH  19  22
HETATM   22  C   UNK A   0       3.905  14.408  89.783  1.00  0.00     0.252 C 
HETATM   23  O   UNK A   0       4.503  15.477  89.690  1.00  0.00    -0.268 OA
ENDBRANCH  19  22
ENDBRANCH  15  16
ENDBRANCH  11  14
ENDBRANCH   7   8
ENDBRANCH   2   7
TORSDOF 9
ENDMDL
MODEL 6
REMARK VINA RESULT:      -6.6      3.905     10.417
REMARK  9 active torsions:
REMARK  status: ('A' for Active; 'I' for Inactive)
REMARK    1  A    between atoms: N_3  and  C_6 
REMARK    2  A    between atoms: C_6  and  C_9 
REMARK    3  A    between atoms: C_14  and  C_17 
REMARK       I    between atoms: N_26  and  C_15 
REMARK    4  A    between atoms: C_15  and  C_16 
REMARK    5  A    between atoms: C_20  and  C_23 
REMARK    6  A    between atoms: OG1_24  and  CB_28 
REMARK    7  A    between atoms: N_26  and  CA_27 
REMARK    8  A    between atoms: CA_27  and  CB_28 
REMARK    9  A    between atoms: CA_27  and  C_30 
ROOT
HETATM    1  O   UNK A   0      14.631   3.269  91.943  1.00  0.00    -0.388 OA
HETATM    2  N   UNK A   0      11.944   4.165  92.225  1.00  0.00     0.096 N 
HETATM    3  C   UNK A   0      12.601   3.365  93.269  1.00  0.00     0.299 C 
HETATM    4  C   UNK A   0      12.512   3.839  90.909  1.00  0.00     0.299 C 
HETATM    5  C   UNK A   0      14.109   3.602  93.230  1.00  0.00     0.198 C 
HETATM    6  C   UNK A   0      14.020   4.064  90.926  1.00  0.00     0.198 C 
ENDROOT
BRANCH   2   7
HETATM    7  C   UNK A   0      10.499   3.945  92.237  1.00  0.00     0.311 C 
BRANCH   7   8
HETATM    8  C   UNK A   0       9.733   5.185  91.924  1.00  0.00    -0.030 A 
HETATM    9  C   UNK A   0       8.793   5.181  90.893  1.00  0.00     0.010 A 
HETATM   10  C   UNK A   0       8.077   6.341  90.597  1.00  0.00     0.021 A 
HETATM   11  C   UNK A   0       8.301   7.504  91.334  1.00  0.00     0.018 A 
HETATM   12  C   UNK A   0       9.240   7.509  92.363  1.00  0.00     0.021 A 
HETATM   13  C   UNK A   0       9.956   6.349  92.659  1.00  0.00     0.010 A 
BRANCH  11  14
HETATM   14  C   UNK A   0       7.566   8.693  91.032  1.00  0.00    -0.061 C 
HETATM   15  C   UNK A   0       6.947   9.692  90.778  1.00  0.00    -0.061 C 
BRANCH  15  16
HETATM   16  C   UNK A   0       6.211  10.880  90.476  1.00  0.00     0.018 A 
HETATM   17  C   UNK A   0       6.399  11.523  89.252  1.00  0.00     0.022 A 
HETATM   18  C   UNK A   0       5.679  12.681  88.956  1.00  0.00     0.018 A 
HETATM   19  C   UNK A   0       4.788  13.169  89.890  1.00  0.00     0.032 A 
HETATM   20  C   UNK A   0       4.586  12.552  91.106  1.00  0.00     0.018 A 
HETATM   21  C   UNK A   0       5.305  11.394  91.403  1.00  0.00     0.022 A 
BRANCH  19  22
HETATM   22  C   UNK A   0       4.023  14.403  89.575  1.00  0.00     0.252 C 
HETATM   23  O   UNK A   0       4.563  15.497  89.721  1.00  0.00    -0.268 OA
ENDBRANCH  19  22
ENDBRANCH  15  16
ENDBRANCH  11  14
ENDBRANCH   7   8
ENDBRANCH   2   7
TORSDOF 9
ENDMDL
MODEL 7
REMARK VINA RESULT:      -6.4      4.830     10.226
REMARK  9 active torsions:
REMARK  status: ('A' for Active; 'I' for Inactive)
REMARK    1  A    between atoms: N_3  and  C_6 
REMARK    2  A    between atoms: C_6  and  C_9 
REMARK    3  A    between atoms: C_14  and  C_17 
REMARK       I    between atoms: N_26  and  C_15 
REMARK    4  A    between atoms: C_15  and  C_16 
REMARK    5  A    between atoms: C_20  and  C_23 
REMARK    6  A    between atoms: OG1_24  and  CB_28 
REMARK    7  A    between atoms: N_26  and  CA_27 
REMARK    8  A    between atoms: CA_27  and  CB_28 
REMARK    9  A    between atoms: CA_27  and  C_30 
ROOT
HETATM    1  O   UNK A   0      11.193   3.818  88.783  1.00  0.00    -0.388 OA
HETATM    2  N   UNK A   0       9.479   5.811  87.691  1.00  0.00     0.096 N 
HETATM    3  C   UNK A   0      10.162   4.832  86.834  1.00  0.00     0.299 C 
HETATM    4  C   UNK A   0      10.272   6.059  88.903  1.00  0.00     0.299 C 
HETATM    5  C   UNK A   0      10.413   3.546  87.616  1.00  0.00     0.198 C 
HETATM    6  C   UNK A   0      10.521   4.745  89.636  1.00  0.00     0.198 C 
ENDROOT
BRANCH   2   7
HETATM    7  C   UNK A   0       9.238   7.056  86.964  1.00  0.00     0.311 C 
BRANCH   7   8
HETATM    8  C   UNK A   0       8.441   8.033  87.760  1.00  0.00    -0.030 A 
HETATM    9  C   UNK A   0       9.018   9.237  88.165  1.00  0.00     0.010 A 
HETATM   10  C   UNK A   0       8.274  10.151  88.912  1.00  0.00     0.021 A 
HETATM   11  C   UNK A   0       6.953   9.861  89.250  1.00  0.00     0.018 A 
HETATM   12  C   UNK A   0       6.375   8.659  88.846  1.00  0.00     0.021 A 
HETATM   13  C   UNK A   0       7.119   7.745  88.100  1.00  0.00     0.010 A 
BRANCH  11  14
HETATM   14  C   UNK A   0       6.189  10.799  90.014  1.00  0.00    -0.061 C 
HETATM   15  C   UNK A   0       5.548  11.588  90.656  1.00  0.00    -0.061 C 
BRANCH  15  16
HETATM   16  C   UNK A   0       4.785  12.527  91.418  1.00  0.00     0.018 A 
HETATM   17  C   UNK A   0       4.435  13.757  90.861  1.00  0.00     0.022 A 
HETATM   18  C   UNK A   0       3.688  14.671  91.604  1.00  0.00     0.018 A 
HETATM   19  C   UNK A   0       3.308  14.335  92.886  1.00  0.00     0.032 A 
HETATM   20  C   UNK A   0       3.641  13.126  93.460  1.00  0.00     0.018 A 
HETATM   21  C   UNK A   0       4.388  12.211  92.718  1.00  0.00     0.022 A 
BRANCH  19  22
HETATM   22  C   UNK A   0       2.514  15.310  93.678  1.00  0.00     0.252 C 
HETATM   23  O   UNK A   0       1.329  15.482  93.403  1.00  0.00    -0.268 OA
ENDBRANCH  19  22
ENDBRANCH  15  16
ENDBRANCH  11  14
ENDBRANCH   7   8
ENDBRANCH   2   7
TORSDOF 9
ENDMDL
MODEL 8
REMARK VINA RESULT:      -6.2      1.213      1.923
REMARK  9 active torsions:
REMARK  status: ('A' for Active; 'I' for Inactive)
REMARK    1  A    between atoms: N_3  and  C_6 
REMARK    2  A    between atoms: C_6  and  C_9 
REMARK    3  A    between atoms: C_14  and  C_17 
REMARK       I    between atoms: N_26  and  C_15 
REMARK    4  A    between atoms: C_15  and  C_16 
REMARK    5  A    between atoms: C_20  and  C_23 
REMARK    6  A    between atoms: OG1_24  and  CB_28 
REMARK    7  A    between atoms: N_26  and  CA_27 
REMARK    8  A    between atoms: CA_27  and  CB_28 
REMARK    9  A    between atoms: CA_27  and  C_30 
ROOT
HETATM    1  O   UNK A   0       2.216   6.679  87.865  1.00  0.00    -0.388 OA
HETATM    2  N   UNK A   0       4.305   8.598  88.100  1.00  0.00     0.096 N 
HETATM    3  C   UNK A   0       4.572   7.156  88.194  1.00  0.00     0.299 C 
HETATM    4  C   UNK A   0       2.940   8.888  88.560  1.00  0.00     0.299 C 
HETATM    5  C   UNK A   0       3.530   6.384  87.389  1.00  0.00     0.198 C 
HETATM    6  C   UNK A   0       1.936   8.075  87.748  1.00  0.00     0.198 C 
ENDROOT
BRANCH   2   7
HETATM    7  C   UNK A   0       5.286   9.358  88.873  1.00  0.00     0.311 C 
BRANCH   7   8
HETATM    8  C   UNK A   0       6.402   8.503  89.371  1.00  0.00    -0.030 A 
HETATM    9  C   UNK A   0       7.513   8.268  88.561  1.00  0.00     0.010 A 
HETATM   10  C   UNK A   0       8.557   7.467  89.025  1.00  0.00     0.021 A 
HETATM   11  C   UNK A   0       8.489   6.904  90.299  1.00  0.00     0.018 A 
HETATM   12  C   UNK A   0       7.379   7.139  91.109  1.00  0.00     0.021 A 
HETATM   13  C   UNK A   0       6.335   7.939  90.645  1.00  0.00     0.010 A 
BRANCH  11  14
HETATM   14  C   UNK A   0       9.560   6.084  90.776  1.00  0.00    -0.061 C 
HETATM   15  C   UNK A   0      10.460   5.395  91.177  1.00  0.00    -0.061 C 
BRANCH  15  16
HETATM   16  C   UNK A   0      11.530   4.575  91.653  1.00  0.00     0.018 A 
HETATM   17  C   UNK A   0      12.621   4.304  90.826  1.00  0.00     0.022 A 
HETATM   18  C   UNK A   0      13.666   3.506  91.292  1.00  0.00     0.018 A 
HETATM   19  C   UNK A   0      13.597   2.998  92.573  1.00  0.00     0.032 A 
HETATM   20  C   UNK A   0      12.530   3.251  93.409  1.00  0.00     0.018 A 
HETATM   21  C   UNK A   0      11.484   4.049  92.944  1.00  0.00     0.022 A 
BRANCH  19  22
HETATM   22  C   UNK A   0      14.710   2.147  93.067  1.00  0.00     0.252 C 
HETATM   23  O   UNK A   0      15.770   2.675  93.393  1.00  0.00    -0.268 OA
ENDBRANCH  19  22
ENDBRANCH  15  16
ENDBRANCH  11  14
ENDBRANCH   7   8
ENDBRANCH   2   7
TORSDOF 9
ENDMDL
MODEL 9
REMARK VINA RESULT:      -6.2      2.730      3.615
REMARK  9 active torsions:
REMARK  status: ('A' for Active; 'I' for Inactive)
REMARK    1  A    between atoms: N_3  and  C_6 
REMARK    2  A    between atoms: C_6  and  C_9 
REMARK    3  A    between atoms: C_14  and  C_17 
REMARK       I    between atoms: N_26  and  C_15 
REMARK    4  A    between atoms: C_15  and  C_16 
REMARK    5  A    between atoms: C_20  and  C_23 
REMARK    6  A    between atoms: OG1_24  and  CB_28 
REMARK    7  A    between atoms: N_26  and  CA_27 
REMARK    8  A    between atoms: CA_27  and  CB_28 
REMARK    9  A    between atoms: CA_27  and  C_30 
ROOT
HETATM    1  O   UNK A   0       3.804  13.888  90.089  1.00  0.00    -0.388 OA
HETATM    2  N   UNK A   0       4.831  11.324  89.401  1.00  0.00     0.096 N 
HETATM    3  C   UNK A   0       4.400  12.280  88.371  1.00  0.00     0.299 C 
HETATM    4  C   UNK A   0       4.070  11.541  90.639  1.00  0.00     0.299 C 
HETATM    5  C   UNK A   0       4.561  13.706  88.891  1.00  0.00     0.198 C 
HETATM    6  C   UNK A   0       4.238  12.983  91.105  1.00  0.00     0.198 C 
ENDROOT
BRANCH   2   7
HETATM    7  C   UNK A   0       4.674   9.949  88.929  1.00  0.00     0.311 C 
BRANCH   7   8
HETATM    8  C   UNK A   0       5.781   9.062  89.388  1.00  0.00    -0.030 A 
HETATM    9  C   UNK A   0       7.070   9.575  89.535  1.00  0.00     0.010 A 
HETATM   10  C   UNK A   0       8.106   8.745  89.962  1.00  0.00     0.021 A 
HETATM   11  C   UNK A   0       7.853   7.403  90.244  1.00  0.00     0.018 A 
HETATM   12  C   UNK A   0       6.566   6.890  90.097  1.00  0.00     0.021 A 
HETATM   13  C   UNK A   0       5.529   7.719  89.669  1.00  0.00     0.010 A 
BRANCH  11  14
HETATM   14  C   UNK A   0       8.916   6.553  90.684  1.00  0.00    -0.061 C 
HETATM   15  C   UNK A   0       9.809   5.838  91.055  1.00  0.00    -0.061 C 
BRANCH  15  16
HETATM   16  C   UNK A   0      10.870   4.988  91.495  1.00  0.00     0.018 A 
HETATM   17  C   UNK A   0      10.985   4.660  92.846  1.00  0.00     0.022 A 
HETATM   18  C   UNK A   0      12.019   3.828  93.275  1.00  0.00     0.018 A 
HETATM   19  C   UNK A   0      12.914   3.342  92.345  1.00  0.00     0.032 A 
HETATM   20  C   UNK A   0      12.822   3.652  91.004  1.00  0.00     0.018 A 
HETATM   21  C   UNK A   0      11.788   4.484  90.574  1.00  0.00     0.022 A 
BRANCH  19  22
HETATM   22  C   UNK A   0      14.016   2.458  92.803  1.00  0.00     0.252 C 
HETATM   23  O   UNK A   0      14.611   2.730  93.842  1.00  0.00    -0.268 OA
ENDBRANCH  19  22
ENDBRANCH  15  16
ENDBRANCH  11  14
ENDBRANCH   7   8
ENDBRANCH   2   7
TORSDOF 9
ENDMDL
