MODEL 1
REMARK VINA RESULT:      -6.4      0.000      0.000
REMARK  12 active torsions:
REMARK  status: ('A' for Active; 'I' for Inactive)
REMARK    1  A    between atoms: O_2  and  C_16 
REMARK    2  A    between atoms: N_5  and  C_9 
REMARK    3  A    between atoms: N_6  and  C_13 
REMARK       I    between atoms: N_6  and  C_22 
REMARK    4  A    between atoms: C_9  and  C_12 
REMARK    5  A    between atoms: C_13  and  C_16 
REMARK    6  A    between atoms: C_13  and  C_21 
REMARK    7  A    between atoms: C_19  and  C_24 
REMARK    8  A    between atoms: C_21  and  C_33 
REMARK    9  A    between atoms: C_22  and  C_23 
REMARK   10  A    between atoms: C_27  and  C_30 
REMARK   11  A    between atoms: C_33  and  C_34 
REMARK   12  A    between atoms: C_34  and  C_35 
ROOT
HETATM    1  O   UNL     1      16.809   3.782  93.853  1.00  0.00    -0.350 OA
HETATM    2  N   UNL     1      14.247   3.047  92.855  1.00  0.00     0.147 N 
HETATM    3  C   UNL     1      15.326   2.060  93.001  1.00  0.00     0.283 C 
HETATM    4  C   UNL     1      14.814   4.381  92.611  1.00  0.00     0.283 C 
HETATM    5  C   UNL     1      16.268   2.487  94.123  1.00  0.00     0.178 C 
HETATM    6  C   UNL     1      15.768   4.753  93.741  1.00  0.00     0.178 C 
ENDROOT
BRANCH   2   7
HETATM    7  C   UNL     1      13.337   2.664  91.777  1.00  0.00     0.277 C 
BRANCH   7   8
HETATM    8  C   UNL     1      12.164   3.578  91.672  1.00  0.00     0.011 A 
HETATM    9  C   UNL     1      11.297   3.726  92.755  1.00  0.00    -0.002 A 
HETATM   10  C   UNL     1      10.198   4.580  92.657  1.00  0.00     0.008 A 
HETATM   11  C   UNL     1       9.968   5.285  91.477  1.00  0.00     0.042 A 
HETATM   12  C   UNL     1      10.832   5.138  90.394  1.00  0.00     0.008 A 
HETATM   13  C   UNL     1      11.931   4.284  90.492  1.00  0.00    -0.002 A 
BRANCH  11  14
HETATM   14  C   UNL     1       8.841   6.162  91.377  1.00  0.00    -0.059 C 
HETATM   15  C   UNL     1       7.895   6.899  91.293  1.00  0.00    -0.059 C 
BRANCH  15  16
HETATM   16  C   UNL     1       6.770   7.775  91.192  1.00  0.00     0.042 A 
HETATM   17  C   UNL     1       6.663   8.650  90.111  1.00  0.00     0.008 A 
HETATM   18  C   UNL     1       5.564   9.503  90.011  1.00  0.00     0.005 A 
HETATM   19  C   UNL     1       4.597   9.461  90.994  1.00  0.00     0.056 A 
HETATM   20  C   UNL     1       4.680   8.606  92.072  1.00  0.00     0.005 A 
HETATM   21  C   UNL     1       5.779   7.753  92.173  1.00  0.00     0.008 A 
BRANCH  19  22
HETATM   22  C   UNL     1       3.427  10.371  90.888  1.00  0.00     0.254 C 
HETATM   23  O   UNL     1       2.409   9.977  90.323  1.00  0.00    -0.268 OA
HETATM   24  N   UNL     1       3.573  11.620  91.475  1.00  0.00    -0.335 N 
HETATM   25  HN  UNL     1       4.436  11.867  91.947  1.00  0.00     0.164 HD
BRANCH  24  26
HETATM   26  C   UNL     1       2.521  12.604  91.478  1.00  0.00     0.166 C 
BRANCH  26  27
HETATM   27  C   UNL     1       2.329  13.265  92.849  1.00  0.00     0.138 C 
HETATM   28  C   UNL     1       3.649  13.483  93.581  1.00  0.00     0.034 C 
BRANCH  27  29
HETATM   29  O   UNL     1       1.677  14.524  92.685  1.00  0.00    -0.383 OA
HETATM   30  H   UNL     1       2.264  15.107  92.175  1.00  0.00     0.210 HD
ENDBRANCH  27  29
ENDBRANCH  26  27
BRANCH  26  31
HETATM   31  C   UNL     1       2.847  13.638  90.405  1.00  0.00     0.181 C 
HETATM   32  O   UNL     1       2.096  14.570  90.123  1.00  0.00    -0.294 OA
BRANCH  31  33
HETATM   33  C   UNL     1       4.315  14.290  90.623  1.00  0.00     0.138 C 
BRANCH  33  34
HETATM   34  C   UNL     1       4.749  14.440  89.287  1.00  0.00     0.208 C 
HETATM   35  O   UNL     1       5.023  15.566  88.940  1.00  0.00    -0.289 OA
BRANCH  34  36
HETATM   36  C   UNL     1       5.190  13.509  88.388  1.00  0.00     0.194 C 
HETATM   37  O   UNL     1       4.517  12.437  87.791  1.00  0.00    -0.185 OA
ENDBRANCH  34  36
ENDBRANCH  33  34
ENDBRANCH  31  33
ENDBRANCH  26  31
ENDBRANCH  24  26
ENDBRANCH  19  22
ENDBRANCH  15  16
ENDBRANCH  11  14
ENDBRANCH   7   8
ENDBRANCH   2   7
TORSDOF 12
ENDMDL
