MODEL 1
REMARK VINA RESULT:      -7.0      0.000      0.000
REMARK  9 active torsions:
REMARK  status: ('A' for Active; 'I' for Inactive)
REMARK    1  A    between atoms: O_2  and  C_17 
REMARK    2  A    between atoms: N_5  and  C_10 
REMARK    3  A    between atoms: N_6  and  C_14 
REMARK       I    between atoms: N_6  and  C_23 
REMARK       I    between atoms: N_7  and  C_22 
REMARK    4  A    between atoms: C_10  and  C_13 
REMARK    5  A    between atoms: C_14  and  C_17 
REMARK    6  A    between atoms: C_14  and  C_22 
REMARK    7  A    between atoms: C_20  and  C_25 
REMARK    8  A    between atoms: C_23  and  C_24 
REMARK    9  A    between atoms: C_28  and  C_31 
ROOT
HETATM    1  O   UNL     1      16.105   3.971  93.929  1.00  0.00    -0.388 OA
HETATM    2  N   UNL     1      14.183   2.526  92.406  1.00  0.00     0.096 N 
HETATM    3  C   UNL     1      14.355   3.977  92.247  1.00  0.00     0.299 C 
HETATM    4  C   UNL     1      14.542   2.123  93.773  1.00  0.00     0.299 C 
HETATM    5  C   UNL     1      15.790   4.368  92.593  1.00  0.00     0.198 C 
HETATM    6  C   UNL     1      15.970   2.558  94.083  1.00  0.00     0.198 C 
ENDROOT
BRANCH   2   7
HETATM    7  C   UNL     1      12.812   2.130  92.090  1.00  0.00     0.311 C 
BRANCH   7   8
HETATM    8  C   UNL     1      11.942   3.299  91.774  1.00  0.00    -0.030 A 
HETATM    9  C   UNL     1      11.686   3.638  90.445  1.00  0.00     0.010 A 
HETATM   10  C   UNL     1      10.873   4.732  90.149  1.00  0.00     0.021 A 
HETATM   11  C   UNL     1      10.316   5.485  91.182  1.00  0.00     0.018 A 
HETATM   12  C   UNL     1      10.570   5.147  92.509  1.00  0.00     0.021 A 
HETATM   13  C   UNL     1      11.383   4.053  92.806  1.00  0.00     0.010 A 
BRANCH  11  14
HETATM   14  C   UNL     1       9.480   6.606  90.877  1.00  0.00    -0.061 C 
HETATM   15  C   UNL     1       8.778   7.548  90.621  1.00  0.00    -0.061 C 
BRANCH  15  16
HETATM   16  C   UNL     1       7.943   8.668  90.317  1.00  0.00     0.018 A 
HETATM   17  C   UNL     1       6.595   8.648  90.675  1.00  0.00     0.022 A 
HETATM   18  C   UNL     1       5.781   9.742  90.381  1.00  0.00     0.018 A 
HETATM   19  C   UNL     1       6.332  10.830  89.737  1.00  0.00     0.032 A 
HETATM   20  C   UNL     1       7.662  10.873  89.372  1.00  0.00     0.018 A 
HETATM   21  C   UNL     1       8.477   9.780  89.666  1.00  0.00     0.022 A 
BRANCH  19  22
HETATM   22  C   UNL     1       5.464  11.994  89.422  1.00  0.00     0.252 C 
HETATM   23  O   UNL     1       5.451  12.440  88.277  1.00  0.00    -0.268 OA
HETATM   24  N   UNL     1       4.698  12.482  90.471  1.00  0.00    -0.342 N 
HETATM   25  H   UNL     1       4.742  12.046  91.385  1.00  0.00     0.163 HD
BRANCH  24  26
HETATM   26  C   UNL     1       3.789  13.590  90.317  1.00  0.00     0.199 C 
BRANCH  26  27
HETATM   27  C   UNL     1       2.500  13.417  91.130  1.00  0.00     0.145 C 
HETATM   28  C   UNL     1       2.726  12.648  92.427  1.00  0.00     0.042 C 
BRANCH  27  29
HETATM   29  O   UNL     1       1.955  14.699  91.440  1.00  0.00    -0.393 OA
HETATM   30  H   UNL     1       1.107  14.791  90.973  1.00  0.00     0.210 HD
ENDBRANCH  27  29
ENDBRANCH  26  27
BRANCH  26  31
HETATM   31  C   UNL     1       4.532  14.860  90.719  1.00  0.00     0.220 C 
HETATM   32  O   UNL     1       4.750  15.166  91.890  1.00  0.00    -0.278 OA
HETATM   33  N   UNL     1       4.883  15.622  89.632  1.00  0.00    -0.271 NA
HETATM   34  H   UNL     1       4.641  15.446  88.663  1.00  0.00     0.127 HD
HETATM   35  H   UNL     1       4.339  16.848  89.214  1.00  0.00     0.127 HD
ENDBRANCH  26  31
ENDBRANCH  24  26
ENDBRANCH  19  22
ENDBRANCH  15  16
ENDBRANCH  11  14
ENDBRANCH   7   8
ENDBRANCH   2   7
TORSDOF 9
ENDMDL
MODEL 2
REMARK VINA RESULT:      -6.7      1.872      2.782
REMARK  9 active torsions:
REMARK  status: ('A' for Active; 'I' for Inactive)
REMARK    1  A    between atoms: O_2  and  C_17 
REMARK    2  A    between atoms: N_5  and  C_10 
REMARK    3  A    between atoms: N_6  and  C_14 
REMARK       I    between atoms: N_6  and  C_23 
REMARK       I    between atoms: N_7  and  C_22 
REMARK    4  A    between atoms: C_10  and  C_13 
REMARK    5  A    between atoms: C_14  and  C_17 
REMARK    6  A    between atoms: C_14  and  C_22 
REMARK    7  A    between atoms: C_20  and  C_25 
REMARK    8  A    between atoms: C_23  and  C_24 
REMARK    9  A    between atoms: C_28  and  C_31 
ROOT
HETATM    1  O   UNL     1      16.741   3.109  93.487  1.00  0.00    -0.388 OA
HETATM    2  N   UNL     1      13.906   2.996  93.265  1.00  0.00     0.096 N 
HETATM    3  C   UNL     1      14.719   1.775  93.353  1.00  0.00     0.299 C 
HETATM    4  C   UNL     1      14.684   4.075  92.639  1.00  0.00     0.299 C 
HETATM    5  C   UNL     1      16.004   2.064  94.124  1.00  0.00     0.198 C 
HETATM    6  C   UNL     1      15.970   4.309  93.426  1.00  0.00     0.198 C 
ENDROOT
BRANCH   2   7
HETATM    7  C   UNL     1      12.673   2.745  92.520  1.00  0.00     0.311 C 
BRANCH   7   8
HETATM    8  C   UNL     1      11.728   3.897  92.582  1.00  0.00    -0.030 A 
HETATM    9  C   UNL     1      11.208   4.435  91.404  1.00  0.00     0.010 A 
HETATM   10  C   UNL     1      10.326   5.513  91.460  1.00  0.00     0.021 A 
HETATM   11  C   UNL     1       9.962   6.052  92.694  1.00  0.00     0.018 A 
HETATM   12  C   UNL     1      10.480   5.515  93.871  1.00  0.00     0.021 A 
HETATM   13  C   UNL     1      11.363   4.437  93.815  1.00  0.00     0.010 A 
BRANCH  11  14
HETATM   14  C   UNL     1       9.055   7.156  92.752  1.00  0.00    -0.061 C 
HETATM   15  C   UNL     1       8.293   8.085  92.800  1.00  0.00    -0.061 C 
BRANCH  15  16
HETATM   16  C   UNL     1       7.386   9.189  92.857  1.00  0.00     0.018 A 
HETATM   17  C   UNL     1       7.265   9.932  94.032  1.00  0.00     0.022 A 
HETATM   18  C   UNL     1       6.382  11.010  94.086  1.00  0.00     0.018 A 
HETATM   19  C   UNL     1       5.641  11.322  92.965  1.00  0.00     0.032 A 
HETATM   20  C   UNL     1       5.742  10.604  91.792  1.00  0.00     0.018 A 
HETATM   21  C   UNL     1       6.624   9.525  91.737  1.00  0.00     0.022 A 
BRANCH  19  22
HETATM   22  C   UNL     1       4.700  12.470  93.024  1.00  0.00     0.252 C 
HETATM   23  O   UNL     1       4.322  12.880  94.119  1.00  0.00    -0.268 OA
HETATM   24  N   UNL     1       4.331  13.018  91.803  1.00  0.00    -0.342 N 
HETATM   25  H   UNL     1       4.704  12.642  90.939  1.00  0.00     0.163 HD
BRANCH  24  26
HETATM   26  C   UNL     1       3.445  14.149  91.697  1.00  0.00     0.199 C 
BRANCH  26  27
HETATM   27  C   UNL     1       3.537  14.848  90.334  1.00  0.00     0.145 C 
HETATM   28  C   UNL     1       4.917  15.441  90.074  1.00  0.00     0.042 C 
BRANCH  27  29
HETATM   29  O   UNL     1       3.230  13.916  89.298  1.00  0.00    -0.393 OA
HETATM   30  H   UNL     1       2.368  13.514  89.495  1.00  0.00     0.210 HD
ENDBRANCH  27  29
ENDBRANCH  26  27
BRANCH  26  31
HETATM   31  C   UNL     1       2.028  13.658  91.974  1.00  0.00     0.220 C 
HETATM   32  O   UNL     1       1.195  14.326  92.583  1.00  0.00    -0.278 OA
HETATM   33  N   UNL     1       1.817  12.386  91.500  1.00  0.00    -0.271 NA
HETATM   34  H   UNL     1       2.505  11.775  91.074  1.00  0.00     0.127 HD
HETATM   35  H   UNL     1       1.677  11.196  92.231  1.00  0.00     0.127 HD
ENDBRANCH  26  31
ENDBRANCH  24  26
ENDBRANCH  19  22
ENDBRANCH  15  16
ENDBRANCH  11  14
ENDBRANCH   7   8
ENDBRANCH   2   7
TORSDOF 9
ENDMDL
MODEL 3
REMARK VINA RESULT:      -6.5      1.641      1.966
REMARK  9 active torsions:
REMARK  status: ('A' for Active; 'I' for Inactive)
REMARK    1  A    between atoms: O_2  and  C_17 
REMARK    2  A    between atoms: N_5  and  C_10 
REMARK    3  A    between atoms: N_6  and  C_14 
REMARK       I    between atoms: N_6  and  C_23 
REMARK       I    between atoms: N_7  and  C_22 
REMARK    4  A    between atoms: C_10  and  C_13 
REMARK    5  A    between atoms: C_14  and  C_17 
REMARK    6  A    between atoms: C_14  and  C_22 
REMARK    7  A    between atoms: C_20  and  C_25 
REMARK    8  A    between atoms: C_23  and  C_24 
REMARK    9  A    between atoms: C_28  and  C_31 
ROOT
HETATM    1  O   UNL     1      16.529   3.334  93.839  1.00  0.00    -0.388 OA
HETATM    2  N   UNL     1      13.892   2.912  92.855  1.00  0.00     0.096 N 
HETATM    3  C   UNL     1      14.845   1.802  92.997  1.00  0.00     0.299 C 
HETATM    4  C   UNL     1      14.613   4.167  92.606  1.00  0.00     0.299 C 
HETATM    5  C   UNL     1      15.839   2.114  94.113  1.00  0.00     0.198 C 
HETATM    6  C   UNL     1      15.612   4.423  93.731  1.00  0.00     0.198 C 
ENDROOT
BRANCH   2   7
HETATM    7  C   UNL     1      12.936   2.639  91.783  1.00  0.00     0.311 C 
BRANCH   7   8
HETATM    8  C   UNL     1      11.837   3.645  91.733  1.00  0.00    -0.030 A 
HETATM    9  C   UNL     1      11.375   4.111  90.501  1.00  0.00     0.010 A 
HETATM   10  C   UNL     1      10.348   5.054  90.453  1.00  0.00     0.021 A 
HETATM   11  C   UNL     1       9.783   5.529  91.636  1.00  0.00     0.018 A 
HETATM   12  C   UNL     1      10.244   5.064  92.866  1.00  0.00     0.021 A 
HETATM   13  C   UNL     1      11.271   4.122  92.915  1.00  0.00     0.010 A 
BRANCH  11  14
HETATM   14  C   UNL     1       8.728   6.494  91.586  1.00  0.00    -0.061 C 
HETATM   15  C   UNL     1       7.843   7.306  91.545  1.00  0.00    -0.061 C 
BRANCH  15  16
HETATM   16  C   UNL     1       6.789   8.272  91.495  1.00  0.00     0.018 A 
HETATM   17  C   UNL     1       5.589   7.960  90.856  1.00  0.00     0.022 A 
HETATM   18  C   UNL     1       4.560   8.901  90.810  1.00  0.00     0.018 A 
HETATM   19  C   UNL     1       4.755  10.131  91.403  1.00  0.00     0.032 A 
HETATM   20  C   UNL     1       5.932  10.463  92.039  1.00  0.00     0.018 A 
HETATM   21  C   UNL     1       6.961   9.523  92.086  1.00  0.00     0.022 A 
BRANCH  19  22
HETATM   22  C   UNL     1       3.659  11.134  91.351  1.00  0.00     0.252 C 
HETATM   23  O   UNL     1       2.584  10.822  90.845  1.00  0.00    -0.268 OA
HETATM   24  N   UNL     1       3.939  12.369  91.918  1.00  0.00    -0.342 N 
HETATM   25  H   UNL     1       4.843  12.547  92.342  1.00  0.00     0.163 HD
BRANCH  24  26
HETATM   26  C   UNL     1       2.973  13.437  91.968  1.00  0.00     0.199 C 
BRANCH  26  27
HETATM   27  C   UNL     1       3.018  14.217  93.288  1.00  0.00     0.145 C 
HETATM   28  C   UNL     1       4.441  14.440  93.786  1.00  0.00     0.042 C 
BRANCH  27  29
HETATM   29  O   UNL     1       2.383  15.484  93.115  1.00  0.00    -0.393 OA
HETATM   30  H   UNL     1       1.566  15.490  93.641  1.00  0.00     0.210 HD
ENDBRANCH  27  29
ENDBRANCH  26  27
BRANCH  26  31
HETATM   31  C   UNL     1       3.227  14.351  90.774  1.00  0.00     0.220 C 
HETATM   32  O   UNL     1       4.041  15.272  90.797  1.00  0.00    -0.278 OA
HETATM   33  N   UNL     1       2.419  14.046  89.705  1.00  0.00    -0.271 NA
HETATM   34  H   UNL     1       1.678  13.355  89.683  1.00  0.00     0.127 HD
HETATM   35  H   UNL     1       1.327  14.772  89.203  1.00  0.00     0.127 HD
ENDBRANCH  26  31
ENDBRANCH  24  26
ENDBRANCH  19  22
ENDBRANCH  15  16
ENDBRANCH  11  14
ENDBRANCH   7   8
ENDBRANCH   2   7
TORSDOF 9
ENDMDL
MODEL 4
REMARK VINA RESULT:      -5.9      2.303     12.277
REMARK  9 active torsions:
REMARK  status: ('A' for Active; 'I' for Inactive)
REMARK    1  A    between atoms: O_2  and  C_17 
REMARK    2  A    between atoms: N_5  and  C_10 
REMARK    3  A    between atoms: N_6  and  C_14 
REMARK       I    between atoms: N_6  and  C_23 
REMARK       I    between atoms: N_7  and  C_22 
REMARK    4  A    between atoms: C_10  and  C_13 
REMARK    5  A    between atoms: C_14  and  C_17 
REMARK    6  A    between atoms: C_14  and  C_22 
REMARK    7  A    between atoms: C_20  and  C_25 
REMARK    8  A    between atoms: C_23  and  C_24 
REMARK    9  A    between atoms: C_28  and  C_31 
ROOT
HETATM    1  O   UNL     1       2.985  14.914  94.026  1.00  0.00    -0.388 OA
HETATM    2  N   UNL     1       2.616  14.762  91.208  1.00  0.00     0.096 N 
HETATM    3  C   UNL     1       1.693  14.100  92.140  1.00  0.00     0.299 C 
HETATM    4  C   UNL     1       3.956  14.851  91.804  1.00  0.00     0.299 C 
HETATM    5  C   UNL     1       1.671  14.853  93.468  1.00  0.00     0.198 C 
HETATM    6  C   UNL     1       3.882  15.584  93.139  1.00  0.00     0.198 C 
ENDROOT
BRANCH   2   7
HETATM    7  C   UNL     1       2.660  14.052  89.931  1.00  0.00     0.311 C 
BRANCH   7   8
HETATM    8  C   UNL     1       3.666  12.951  89.928  1.00  0.00    -0.030 A 
HETATM    9  C   UNL     1       3.376  11.741  90.559  1.00  0.00     0.010 A 
HETATM   10  C   UNL     1       4.317  10.711  90.559  1.00  0.00     0.021 A 
HETATM   11  C   UNL     1       5.547  10.892  89.927  1.00  0.00     0.018 A 
HETATM   12  C   UNL     1       5.837  12.101  89.297  1.00  0.00     0.021 A 
HETATM   13  C   UNL     1       4.897  13.131  89.297  1.00  0.00     0.010 A 
BRANCH  11  14
HETATM   14  C   UNL     1       6.511   9.835  89.925  1.00  0.00    -0.061 C 
HETATM   15  C   UNL     1       7.321   8.947  89.923  1.00  0.00    -0.061 C 
BRANCH  15  16
HETATM   16  C   UNL     1       8.285   7.891  89.920  1.00  0.00     0.018 A 
HETATM   17  C   UNL     1       8.275   6.936  90.938  1.00  0.00     0.022 A 
HETATM   18  C   UNL     1       9.213   5.904  90.933  1.00  0.00     0.018 A 
HETATM   19  C   UNL     1      10.139   5.850  89.913  1.00  0.00     0.032 A 
HETATM   20  C   UNL     1      10.170   6.781  88.896  1.00  0.00     0.018 A 
HETATM   21  C   UNL     1       9.232   7.814  88.900  1.00  0.00     0.022 A 
BRANCH  19  22
HETATM   22  C   UNL     1      11.140   4.752  89.910  1.00  0.00     0.252 C 
HETATM   23  O   UNL     1      11.319   4.106  88.880  1.00  0.00    -0.268 OA
HETATM   24  N   UNL     1      11.829   4.553  91.098  1.00  0.00    -0.342 N 
HETATM   25  H   UNL     1      11.645   5.142  91.902  1.00  0.00     0.163 HD
BRANCH  24  26
HETATM   26  C   UNL     1      12.847   3.544  91.246  1.00  0.00     0.199 C 
BRANCH  26  27
HETATM   27  C   UNL     1      14.103   4.067  91.954  1.00  0.00     0.145 C 
HETATM   28  C   UNL     1      15.083   2.953  92.303  1.00  0.00     0.042 C 
BRANCH  27  29
HETATM   29  O   UNL     1      14.761   5.019  91.118  1.00  0.00    -0.393 OA
HETATM   30  H   UNL     1      14.517   5.910  91.420  1.00  0.00     0.210 HD
ENDBRANCH  27  29
ENDBRANCH  26  27
BRANCH  26  31
HETATM   31  C   UNL     1      12.233   2.370  92.001  1.00  0.00     0.220 C 
HETATM   32  O   UNL     1      12.722   1.242  91.997  1.00  0.00    -0.278 OA
HETATM   33  N   UNL     1      11.067   2.717  92.641  1.00  0.00    -0.271 NA
HETATM   34  H   UNL     1      10.591   3.610  92.592  1.00  0.00     0.127 HD
HETATM   35  H   UNL     1       9.752   2.354  92.312  1.00  0.00     0.127 HD
ENDBRANCH  26  31
ENDBRANCH  24  26
ENDBRANCH  19  22
ENDBRANCH  15  16
ENDBRANCH  11  14
ENDBRANCH   7   8
ENDBRANCH   2   7
TORSDOF 9
ENDMDL
MODEL 5
REMARK VINA RESULT:      -5.4      1.624     12.283
REMARK  9 active torsions:
REMARK  status: ('A' for Active; 'I' for Inactive)
REMARK    1  A    between atoms: O_2  and  C_17 
REMARK    2  A    between atoms: N_5  and  C_10 
REMARK    3  A    between atoms: N_6  and  C_14 
REMARK       I    between atoms: N_6  and  C_23 
REMARK       I    between atoms: N_7  and  C_22 
REMARK    4  A    between atoms: C_10  and  C_13 
REMARK    5  A    between atoms: C_14  and  C_17 
REMARK    6  A    between atoms: C_14  and  C_22 
REMARK    7  A    between atoms: C_20  and  C_25 
REMARK    8  A    between atoms: C_23  and  C_24 
REMARK    9  A    between atoms: C_28  and  C_31 
ROOT
HETATM    1  O   UNL     1       3.997  14.389  91.809  1.00  0.00    -0.388 OA
HETATM    2  N   UNL     1       3.639  12.896  89.412  1.00  0.00     0.096 N 
HETATM    3  C   UNL     1       3.012  12.483  90.675  1.00  0.00     0.299 C 
HETATM    4  C   UNL     1       4.885  13.626  89.684  1.00  0.00     0.299 C 
HETATM    5  C   UNL     1       2.768  13.706  91.555  1.00  0.00     0.198 C 
HETATM    6  C   UNL     1       4.599  14.821  90.588  1.00  0.00     0.198 C 
ENDROOT
BRANCH   2   7
HETATM    7  C   UNL     1       3.892  11.738  88.556  1.00  0.00     0.311 C 
BRANCH   7   8
HETATM    8  C   UNL     1       4.896  10.806  89.144  1.00  0.00    -0.030 A 
HETATM    9  C   UNL     1       6.221  11.214  89.294  1.00  0.00     0.010 A 
HETATM   10  C   UNL     1       7.162  10.342  89.842  1.00  0.00     0.021 A 
HETATM   11  C   UNL     1       6.775   9.063  90.241  1.00  0.00     0.018 A 
HETATM   12  C   UNL     1       5.452   8.654  90.092  1.00  0.00     0.021 A 
HETATM   13  C   UNL     1       4.511   9.526  89.543  1.00  0.00     0.010 A 
BRANCH  11  14
HETATM   14  C   UNL     1       7.740   8.169  90.805  1.00  0.00    -0.061 C 
HETATM   15  C   UNL     1       8.550   7.417  91.278  1.00  0.00    -0.061 C 
BRANCH  15  16
HETATM   16  C   UNL     1       9.514   6.524  91.841  1.00  0.00     0.018 A 
HETATM   17  C   UNL     1      10.182   5.614  91.021  1.00  0.00     0.022 A 
HETATM   18  C   UNL     1      11.124   4.744  91.570  1.00  0.00     0.018 A 
HETATM   19  C   UNL     1      11.378   4.804  92.924  1.00  0.00     0.032 A 
HETATM   20  C   UNL     1      10.731   5.694  93.756  1.00  0.00     0.018 A 
HETATM   21  C   UNL     1       9.788   6.564  93.208  1.00  0.00     0.022 A 
BRANCH  19  22
HETATM   22  C   UNL     1      12.381   3.876  93.509  1.00  0.00     0.252 C 
HETATM   23  O   UNL     1      11.994   2.883  94.120  1.00  0.00    -0.268 OA
HETATM   24  N   UNL     1      13.712   4.203  93.290  1.00  0.00    -0.342 N 
HETATM   25  H   UNL     1      13.956   5.027  92.753  1.00  0.00     0.163 HD
BRANCH  24  26
HETATM   26  C   UNL     1      14.799   3.390  93.772  1.00  0.00     0.199 C 
BRANCH  26  27
HETATM   27  C   UNL     1      15.150   2.241  92.817  1.00  0.00     0.145 C 
HETATM   28  C   UNL     1      14.528   0.917  93.245  1.00  0.00     0.042 C 
BRANCH  27  29
HETATM   29  O   UNL     1      14.701   2.561  91.501  1.00  0.00    -0.393 OA
HETATM   30  H   UNL     1      13.788   2.242  91.404  1.00  0.00     0.210 HD
ENDBRANCH  27  29
ENDBRANCH  26  27
BRANCH  26  31
HETATM   31  C   UNL     1      15.998   4.304  94.002  1.00  0.00     0.220 C 
HETATM   32  O   UNL     1      15.908   5.530  94.037  1.00  0.00    -0.278 OA
HETATM   33  N   UNL     1      17.172   3.601  94.124  1.00  0.00    -0.271 NA
HETATM   34  H   UNL     1      17.295   2.601  94.011  1.00  0.00     0.127 HD
HETATM   35  H   UNL     1      18.235   3.515  93.211  1.00  0.00     0.127 HD
ENDBRANCH  26  31
ENDBRANCH  24  26
ENDBRANCH  19  22
ENDBRANCH  15  16
ENDBRANCH  11  14
ENDBRANCH   7   8
ENDBRANCH   2   7
TORSDOF 9
ENDMDL
MODEL 6
REMARK VINA RESULT:      -5.1      1.968     12.396
REMARK  9 active torsions:
REMARK  status: ('A' for Active; 'I' for Inactive)
REMARK    1  A    between atoms: O_2  and  C_17 
REMARK    2  A    between atoms: N_5  and  C_10 
REMARK    3  A    between atoms: N_6  and  C_14 
REMARK       I    between atoms: N_6  and  C_23 
REMARK       I    between atoms: N_7  and  C_22 
REMARK    4  A    between atoms: C_10  and  C_13 
REMARK    5  A    between atoms: C_14  and  C_17 
REMARK    6  A    between atoms: C_14  and  C_22 
REMARK    7  A    between atoms: C_20  and  C_25 
REMARK    8  A    between atoms: C_23  and  C_24 
REMARK    9  A    between atoms: C_28  and  C_31 
ROOT
HETATM    1  O   UNL     1       5.666  14.991  89.199  1.00  0.00    -0.388 OA
HETATM    2  N   UNL     1       3.704  13.465  90.587  1.00  0.00     0.096 N 
HETATM    3  C   UNL     1       4.453  14.540  91.253  1.00  0.00     0.299 C 
HETATM    4  C   UNL     1       4.514  12.878  89.511  1.00  0.00     0.299 C 
HETATM    5  C   UNL     1       4.873  15.589  90.226  1.00  0.00     0.198 C 
HETATM    6  C   UNL     1       4.933  13.966  88.527  1.00  0.00     0.198 C 
ENDROOT
BRANCH   2   7
HETATM    7  C   UNL     1       3.301  12.443  91.551  1.00  0.00     0.311 C 
BRANCH   7   8
HETATM    8  C   UNL     1       4.345  11.396  91.739  1.00  0.00    -0.030 A 
HETATM    9  C   UNL     1       4.923  11.207  92.995  1.00  0.00     0.010 A 
HETATM   10  C   UNL     1       5.903  10.230  93.173  1.00  0.00     0.021 A 
HETATM   11  C   UNL     1       6.302   9.441  92.094  1.00  0.00     0.018 A 
HETATM   12  C   UNL     1       5.725   9.628  90.840  1.00  0.00     0.021 A 
HETATM   13  C   UNL     1       4.746  10.606  90.662  1.00  0.00     0.010 A 
BRANCH  11  14
HETATM   14  C   UNL     1       7.305   8.437  92.277  1.00  0.00    -0.061 C 
HETATM   15  C   UNL     1       8.147   7.593  92.429  1.00  0.00    -0.061 C 
BRANCH  15  16
HETATM   16  C   UNL     1       9.150   6.590  92.611  1.00  0.00     0.018 A 
HETATM   17  C   UNL     1       9.846   6.512  93.818  1.00  0.00     0.022 A 
HETATM   18  C   UNL     1      10.822   5.531  93.995  1.00  0.00     0.018 A 
HETATM   19  C   UNL     1      11.080   4.652  92.965  1.00  0.00     0.032 A 
HETATM   20  C   UNL     1      10.406   4.709  91.763  1.00  0.00     0.018 A 
HETATM   21  C   UNL     1       9.430   5.689  91.583  1.00  0.00     0.022 A 
BRANCH  19  22
HETATM   22  C   UNL     1      12.121   3.609  93.154  1.00  0.00     0.252 C 
HETATM   23  O   UNL     1      11.885   2.455  92.806  1.00  0.00    -0.268 OA
HETATM   24  N   UNL     1      13.321   4.041  93.702  1.00  0.00    -0.342 N 
HETATM   25  H   UNL     1      13.454   5.016  93.943  1.00  0.00     0.163 HD
BRANCH  24  26
HETATM   26  C   UNL     1      14.435   3.155  93.925  1.00  0.00     0.199 C 
BRANCH  26  27
HETATM   27  C   UNL     1      14.457   1.971  92.949  1.00  0.00     0.145 C 
HETATM   28  C   UNL     1      15.344   2.231  91.736  1.00  0.00     0.042 C 
BRANCH  27  29
HETATM   29  O   UNL     1      14.925   0.804  93.624  1.00  0.00    -0.393 OA
HETATM   30  H   UNL     1      15.250   0.176  92.957  1.00  0.00     0.210 HD
ENDBRANCH  27  29
ENDBRANCH  26  27
BRANCH  26  31
HETATM   31  C   UNL     1      15.714   3.980  93.825  1.00  0.00     0.220 C 
HETATM   32  O   UNL     1      15.724   5.160  93.481  1.00  0.00    -0.278 OA
HETATM   33  N   UNL     1      16.833   3.241  94.122  1.00  0.00    -0.271 NA
HETATM   34  H   UNL     1      16.869   2.248  94.321  1.00  0.00     0.127 HD
HETATM   35  H   UNL     1      17.832   2.781  93.249  1.00  0.00     0.127 HD
ENDBRANCH  26  31
ENDBRANCH  24  26
ENDBRANCH  19  22
ENDBRANCH  15  16
ENDBRANCH  11  14
ENDBRANCH   7   8
ENDBRANCH   2   7
TORSDOF 9
ENDMDL
MODEL 7
REMARK VINA RESULT:      -5.0      1.874     12.418
REMARK  9 active torsions:
REMARK  status: ('A' for Active; 'I' for Inactive)
REMARK    1  A    between atoms: O_2  and  C_17 
REMARK    2  A    between atoms: N_5  and  C_10 
REMARK    3  A    between atoms: N_6  and  C_14 
REMARK       I    between atoms: N_6  and  C_23 
REMARK       I    between atoms: N_7  and  C_22 
REMARK    4  A    between atoms: C_10  and  C_13 
REMARK    5  A    between atoms: C_14  and  C_17 
REMARK    6  A    between atoms: C_14  and  C_22 
REMARK    7  A    between atoms: C_20  and  C_25 
REMARK    8  A    between atoms: C_23  and  C_24 
REMARK    9  A    between atoms: C_28  and  C_31 
ROOT
HETATM    1  O   UNL     1       3.085  14.835  93.651  1.00  0.00    -0.388 OA
HETATM    2  N   UNL     1       2.984  13.818  90.995  1.00  0.00     0.096 N 
HETATM    3  C   UNL     1       1.934  13.509  91.975  1.00  0.00     0.299 C 
HETATM    4  C   UNL     1       4.263  14.048  91.682  1.00  0.00     0.299 C 
HETATM    5  C   UNL     1       1.831  14.641  92.995  1.00  0.00     0.198 C 
HETATM    6  C   UNL     1       4.105  15.165  92.708  1.00  0.00     0.198 C 
ENDROOT
BRANCH   2   7
HETATM    7  C   UNL     1       3.108  12.742  90.013  1.00  0.00     0.311 C 
BRANCH   7   8
HETATM    8  C   UNL     1       4.166  11.757  90.380  1.00  0.00    -0.030 A 
HETATM    9  C   UNL     1       5.330  11.669  89.616  1.00  0.00     0.010 A 
HETATM   10  C   UNL     1       6.320  10.747  89.957  1.00  0.00     0.021 A 
HETATM   11  C   UNL     1       6.145   9.916  91.063  1.00  0.00     0.018 A 
HETATM   12  C   UNL     1       4.983  10.003  91.826  1.00  0.00     0.021 A 
HETATM   13  C   UNL     1       3.993  10.924  91.485  1.00  0.00     0.010 A 
BRANCH  11  14
HETATM   14  C   UNL     1       7.161   8.971  91.414  1.00  0.00    -0.061 C 
HETATM   15  C   UNL     1       8.016   8.178  91.708  1.00  0.00    -0.061 C 
BRANCH  15  16
HETATM   16  C   UNL     1       9.031   7.235  92.059  1.00  0.00     0.018 A 
HETATM   17  C   UNL     1       9.572   6.398  91.082  1.00  0.00     0.022 A 
HETATM   18  C   UNL     1      10.565   5.480  91.424  1.00  0.00     0.018 A 
HETATM   19  C   UNL     1      10.995   5.420  92.733  1.00  0.00     0.032 A 
HETATM   20  C   UNL     1      10.477   6.237  93.716  1.00  0.00     0.018 A 
HETATM   21  C   UNL     1       9.484   7.155  93.376  1.00  0.00     0.022 A 
BRANCH  19  22
HETATM   22  C   UNL     1      12.052   4.441  93.097  1.00  0.00     0.252 C 
HETATM   23  O   UNL     1      11.927   3.778  94.123  1.00  0.00    -0.268 OA
HETATM   24  N   UNL     1      13.114   4.335  92.210  1.00  0.00    -0.342 N 
HETATM   25  H   UNL     1      13.138   4.898  91.368  1.00  0.00     0.163 HD
BRANCH  24  26
HETATM   26  C   UNL     1      14.203   3.413  92.411  1.00  0.00     0.199 C 
BRANCH  26  27
HETATM   27  C   UNL     1      15.038   3.743  93.655  1.00  0.00     0.145 C 
HETATM   28  C   UNL     1      16.261   2.844  93.793  1.00  0.00     0.042 C 
BRANCH  27  29
HETATM   29  O   UNL     1      15.467   5.103  93.595  1.00  0.00    -0.393 OA
HETATM   30  H   UNL     1      14.684   5.664  93.459  1.00  0.00     0.210 HD
ENDBRANCH  27  29
ENDBRANCH  26  27
BRANCH  26  31
HETATM   31  C   UNL     1      13.616   2.008  92.494  1.00  0.00     0.220 C 
HETATM   32  O   UNL     1      14.155   1.092  93.113  1.00  0.00    -0.278 OA
HETATM   33  N   UNL     1      12.452   1.889  91.774  1.00  0.00    -0.271 NA
HETATM   34  H   UNL     1      12.029   2.595  91.183  1.00  0.00     0.127 HD
HETATM   35  H   UNL     1      12.241   1.204  90.566  1.00  0.00     0.127 HD
ENDBRANCH  26  31
ENDBRANCH  24  26
ENDBRANCH  19  22
ENDBRANCH  15  16
ENDBRANCH  11  14
ENDBRANCH   7   8
ENDBRANCH   2   7
TORSDOF 9
ENDMDL
MODEL 8
REMARK VINA RESULT:      -4.6      2.368     12.409
REMARK  9 active torsions:
REMARK  status: ('A' for Active; 'I' for Inactive)
REMARK    1  A    between atoms: O_2  and  C_17 
REMARK    2  A    between atoms: N_5  and  C_10 
REMARK    3  A    between atoms: N_6  and  C_14 
REMARK       I    between atoms: N_6  and  C_23 
REMARK       I    between atoms: N_7  and  C_22 
REMARK    4  A    between atoms: C_10  and  C_13 
REMARK    5  A    between atoms: C_14  and  C_17 
REMARK    6  A    between atoms: C_14  and  C_22 
REMARK    7  A    between atoms: C_20  and  C_25 
REMARK    8  A    between atoms: C_23  and  C_24 
REMARK    9  A    between atoms: C_28  and  C_31 
ROOT
HETATM    1  O   UNL     1       3.549  14.462  89.692  1.00  0.00    -0.388 OA
HETATM    2  N   UNL     1       3.052  13.800  92.416  1.00  0.00     0.096 N 
HETATM    3  C   UNL     1       4.414  13.806  91.863  1.00  0.00     0.299 C 
HETATM    4  C   UNL     1       2.081  13.485  91.359  1.00  0.00     0.299 C 
HETATM    5  C   UNL     1       4.498  14.798  90.706  1.00  0.00     0.198 C 
HETATM    6  C   UNL     1       2.220  14.484  90.214  1.00  0.00     0.198 C 
ENDROOT
BRANCH   2   7
HETATM    7  C   UNL     1       2.946  12.847  93.519  1.00  0.00     0.311 C 
BRANCH   7   8
HETATM    8  C   UNL     1       3.943  11.744  93.416  1.00  0.00    -0.030 A 
HETATM    9  C   UNL     1       3.588  10.539  92.809  1.00  0.00     0.010 A 
HETATM   10  C   UNL     1       4.520   9.505  92.714  1.00  0.00     0.021 A 
HETATM   11  C   UNL     1       5.807   9.679  93.223  1.00  0.00     0.018 A 
HETATM   12  C   UNL     1       6.162  10.882  93.828  1.00  0.00     0.021 A 
HETATM   13  C   UNL     1       5.231  11.915  93.925  1.00  0.00     0.010 A 
BRANCH  11  14
HETATM   14  C   UNL     1       6.763   8.619  93.123  1.00  0.00    -0.061 C 
HETATM   15  C   UNL     1       7.567   7.729  93.039  1.00  0.00    -0.061 C 
BRANCH  15  16
HETATM   16  C   UNL     1       8.523   6.671  92.940  1.00  0.00     0.018 A 
HETATM   17  C   UNL     1       8.185   5.486  92.285  1.00  0.00     0.022 A 
HETATM   18  C   UNL     1       9.119   4.455  92.186  1.00  0.00     0.018 A 
HETATM   19  C   UNL     1      10.369   4.631  92.742  1.00  0.00     0.032 A 
HETATM   20  C   UNL     1      10.727   5.792  93.395  1.00  0.00     0.018 A 
HETATM   21  C   UNL     1       9.794   6.824  93.495  1.00  0.00     0.022 A 
BRANCH  19  22
HETATM   22  C   UNL     1      11.362   3.531  92.638  1.00  0.00     0.252 C 
HETATM   23  O   UNL     1      10.967   2.377  92.491  1.00  0.00    -0.268 OA
HETATM   24  N   UNL     1      12.696   3.910  92.694  1.00  0.00    -0.342 N 
HETATM   25  H   UNL     1      12.949   4.886  92.793  1.00  0.00     0.163 HD
BRANCH  24  26
HETATM   26  C   UNL     1      13.777   2.963  92.583  1.00  0.00     0.199 C 
BRANCH  26  27
HETATM   27  C   UNL     1      14.439   2.978  91.200  1.00  0.00     0.145 C 
HETATM   28  C   UNL     1      13.911   4.099  90.311  1.00  0.00     0.042 C 
BRANCH  27  29
HETATM   29  O   UNL     1      15.851   3.130  91.348  1.00  0.00    -0.393 OA
HETATM   30  H   UNL     1      16.287   2.649  90.625  1.00  0.00     0.210 HD
ENDBRANCH  27  29
ENDBRANCH  26  27
BRANCH  26  31
HETATM   31  C   UNL     1      14.785   3.275  93.684  1.00  0.00     0.220 C 
HETATM   32  O   UNL     1      14.993   4.414  94.098  1.00  0.00    -0.278 OA
HETATM   33  N   UNL     1      15.445   2.150  94.117  1.00  0.00    -0.271 NA
HETATM   34  H   UNL     1      15.363   1.215  93.737  1.00  0.00     0.127 HD
HETATM   35  H   UNL     1      16.781   1.784  93.892  1.00  0.00     0.127 HD
ENDBRANCH  26  31
ENDBRANCH  24  26
ENDBRANCH  19  22
ENDBRANCH  15  16
ENDBRANCH  11  14
ENDBRANCH   7   8
ENDBRANCH   2   7
TORSDOF 9
ENDMDL
MODEL 9
REMARK VINA RESULT:      -4.4      1.461      2.047
REMARK  9 active torsions:
REMARK  status: ('A' for Active; 'I' for Inactive)
REMARK    1  A    between atoms: O_2  and  C_17 
REMARK    2  A    between atoms: N_5  and  C_10 
REMARK    3  A    between atoms: N_6  and  C_14 
REMARK       I    between atoms: N_6  and  C_23 
REMARK       I    between atoms: N_7  and  C_22 
REMARK    4  A    between atoms: C_10  and  C_13 
REMARK    5  A    between atoms: C_14  and  C_17 
REMARK    6  A    between atoms: C_14  and  C_22 
REMARK    7  A    between atoms: C_20  and  C_25 
REMARK    8  A    between atoms: C_23  and  C_24 
REMARK    9  A    between atoms: C_28  and  C_31 
ROOT
HETATM    1  O   UNL     1      17.320   3.132  93.989  1.00  0.00    -0.388 OA
HETATM    2  N   UNL     1      14.707   2.920  92.880  1.00  0.00     0.096 N 
HETATM    3  C   UNL     1      14.956   3.665  94.121  1.00  0.00     0.299 C 
HETATM    4  C   UNL     1      15.694   1.841  92.734  1.00  0.00     0.299 C 
HETATM    5  C   UNL     1      16.384   4.204  94.124  1.00  0.00     0.198 C 
HETATM    6  C   UNL     1      17.104   2.421  92.770  1.00  0.00     0.198 C 
ENDROOT
BRANCH   2   7
HETATM    7  C   UNL     1      13.346   2.385  92.861  1.00  0.00     0.311 C 
BRANCH   7   8
HETATM    8  C   UNL     1      12.326   3.438  92.590  1.00  0.00    -0.030 A 
HETATM    9  C   UNL     1      12.001   3.772  91.275  1.00  0.00     0.010 A 
HETATM   10  C   UNL     1      11.049   4.758  91.021  1.00  0.00     0.021 A 
HETATM   11  C   UNL     1      10.420   5.409  92.082  1.00  0.00     0.018 A 
HETATM   12  C   UNL     1      10.744   5.077  93.396  1.00  0.00     0.021 A 
HETATM   13  C   UNL     1      11.697   4.091  93.650  1.00  0.00     0.010 A 
BRANCH  11  14
HETATM   14  C   UNL     1       9.442   6.420  91.821  1.00  0.00    -0.061 C 
HETATM   15  C   UNL     1       8.620   7.269  91.601  1.00  0.00    -0.061 C 
BRANCH  15  16
HETATM   16  C   UNL     1       7.641   8.279  91.339  1.00  0.00     0.018 A 
HETATM   17  C   UNL     1       6.476   8.334  92.105  1.00  0.00     0.022 A 
HETATM   18  C   UNL     1       5.523   9.321  91.851  1.00  0.00     0.018 A 
HETATM   19  C   UNL     1       5.757  10.229  90.840  1.00  0.00     0.032 A 
HETATM   20  C   UNL     1       6.900  10.194  90.069  1.00  0.00     0.018 A 
HETATM   21  C   UNL     1       7.853   9.208  90.321  1.00  0.00     0.022 A 
BRANCH  19  22
HETATM   22  C   UNL     1       4.740  11.278  90.569  1.00  0.00     0.252 C 
HETATM   23  O   UNL     1       3.841  11.049  89.763  1.00  0.00    -0.268 OA
HETATM   24  N   UNL     1       4.879  12.458  91.286  1.00  0.00    -0.342 N 
HETATM   25  H   UNL     1       5.633  12.567  91.953  1.00  0.00     0.163 HD
BRANCH  24  26
HETATM   26  C   UNL     1       3.959  13.560  91.152  1.00  0.00     0.199 C 
BRANCH  26  27
HETATM   27  C   UNL     1       4.079  14.272  89.799  1.00  0.00     0.145 C 
HETATM   28  C   UNL     1       5.446  14.917  89.598  1.00  0.00     0.042 C 
BRANCH  27  29
HETATM   29  O   UNL     1       3.849  13.337  88.745  1.00  0.00    -0.393 OA
HETATM   30  H   UNL     1       2.889  13.233  88.635  1.00  0.00     0.210 HD
ENDBRANCH  27  29
ENDBRANCH  26  27
BRANCH  26  31
HETATM   31  C   UNL     1       2.550  13.019  91.371  1.00  0.00     0.220 C 
HETATM   32  O   UNL     1       1.571  13.433  90.754  1.00  0.00    -0.278 OA
HETATM   33  N   UNL     1       2.509  12.059  92.353  1.00  0.00    -0.271 NA
HETATM   34  H   UNL     1       3.278  11.759  92.941  1.00  0.00     0.127 HD
HETATM   35  H   UNL     1       1.974  12.158  93.647  1.00  0.00     0.127 HD
ENDBRANCH  26  31
ENDBRANCH  24  26
ENDBRANCH  19  22
ENDBRANCH  15  16
ENDBRANCH  11  14
ENDBRANCH   7   8
ENDBRANCH   2   7
TORSDOF 9
ENDMDL
