MODEL 1
REMARK VINA RESULT:      -7.6      0.000      0.000
REMARK  9 active torsions:
REMARK  status: ('A' for Active; 'I' for Inactive)
REMARK    1  A    between atoms: N_3  and  C_6 
REMARK    2  A    between atoms: C_6  and  C_9 
REMARK    3  A    between atoms: C_14  and  C_17 
REMARK       I    between atoms: N_26  and  C_15 
REMARK    4  A    between atoms: C_15  and  C_16 
REMARK    5  A    between atoms: C_20  and  C_23 
REMARK    6  A    between atoms: OG1_24  and  CB_28 
REMARK    7  A    between atoms: N_26  and  CA_27 
REMARK    8  A    between atoms: CA_27  and  CB_28 
REMARK    9  A    between atoms: CA_27  and  C_30 
ROOT
HETATM    1  O   UNK A   0       1.916   8.083  87.848  1.00  0.00    -0.388 OA
HETATM    2  N   UNK A   0       4.704   7.532  87.686  1.00  0.00     0.096 N 
HETATM    3  C   UNK A   0       4.199   8.905  87.822  1.00  0.00     0.299 C 
HETATM    4  C   UNK A   0       3.714   6.699  86.990  1.00  0.00     0.299 C 
HETATM    5  C   UNK A   0       2.859   8.893  88.553  1.00  0.00     0.198 C 
HETATM    6  C   UNK A   0       2.386   6.739  87.739  1.00  0.00     0.198 C 
ENDROOT
BRANCH   2   7
HETATM    7  C   UNK A   0       5.984   7.519  86.979  1.00  0.00     0.311 C 
BRANCH   7   8
HETATM    8  C   UNK A   0       7.076   6.913  87.794  1.00  0.00    -0.030 A 
HETATM    9  C   UNK A   0       8.316   6.650  87.210  1.00  0.00     0.010 A 
HETATM   10  C   UNK A   0       9.338   6.082  87.970  1.00  0.00     0.021 A 
HETATM   11  C   UNK A   0       9.120   5.779  89.314  1.00  0.00     0.018 A 
HETATM   12  C   UNK A   0       7.882   6.042  89.898  1.00  0.00     0.021 A 
HETATM   13  C   UNK A   0       6.860   6.609  89.138  1.00  0.00     0.010 A 
BRANCH  11  14
HETATM   14  C   UNK A   0      10.169   5.198  90.094  1.00  0.00    -0.061 C 
HETATM   15  C   UNK A   0      11.050   4.710  90.750  1.00  0.00    -0.061 C 
BRANCH  15  16
HETATM   16  C   UNK A   0      12.098   4.128  91.530  1.00  0.00     0.018 A 
HETATM   17  C   UNK A   0      13.355   3.918  90.962  1.00  0.00     0.022 A 
HETATM   18  C   UNK A   0      14.377   3.353  91.724  1.00  0.00     0.018 A 
HETATM   19  C   UNK A   0      14.122   3.013  93.035  1.00  0.00     0.032 A 
HETATM   20  C   UNK A   0      12.888   3.210  93.620  1.00  0.00     0.018 A 
HETATM   21  C   UNK A   0      11.864   3.775  92.859  1.00  0.00     0.022 A 
BRANCH  19  22
HETATM   22  C   UNK A   0      15.211   2.409  93.846  1.00  0.00     0.252 C 
HETATM   23  O   UNK A   0      16.364   2.801  93.687  1.00  0.00    -0.268 OA
ENDBRANCH  19  22
ENDBRANCH  15  16
ENDBRANCH  11  14
ENDBRANCH   7   8
ENDBRANCH   2   7
TORSDOF 9
ENDMDL
MODEL 2
REMARK VINA RESULT:      -7.5      0.196      1.026
REMARK  9 active torsions:
REMARK  status: ('A' for Active; 'I' for Inactive)
REMARK    1  A    between atoms: N_3  and  C_6 
REMARK    2  A    between atoms: C_6  and  C_9 
REMARK    3  A    between atoms: C_14  and  C_17 
REMARK       I    between atoms: N_26  and  C_15 
REMARK    4  A    between atoms: C_15  and  C_16 
REMARK    5  A    between atoms: C_20  and  C_23 
REMARK    6  A    between atoms: OG1_24  and  CB_28 
REMARK    7  A    between atoms: N_26  and  CA_27 
REMARK    8  A    between atoms: CA_27  and  CB_28 
REMARK    9  A    between atoms: CA_27  and  C_30 
ROOT
HETATM    1  O   UNK A   0       1.738   7.942  87.915  1.00  0.00    -0.388 OA
HETATM    2  N   UNK A   0       4.543   7.493  87.735  1.00  0.00     0.096 N 
HETATM    3  C   UNK A   0       3.987   8.850  87.829  1.00  0.00     0.299 C 
HETATM    4  C   UNK A   0       3.578   6.598  87.083  1.00  0.00     0.299 C 
HETATM    5  C   UNK A   0       2.656   8.814  88.577  1.00  0.00     0.198 C 
HETATM    6  C   UNK A   0       2.258   6.614  87.847  1.00  0.00     0.198 C 
ENDROOT
BRANCH   2   7
HETATM    7  C   UNK A   0       5.814   7.504  87.013  1.00  0.00     0.311 C 
BRANCH   7   8
HETATM    8  C   UNK A   0       6.927   6.917  87.813  1.00  0.00    -0.030 A 
HETATM    9  C   UNK A   0       6.727   6.601  89.157  1.00  0.00     0.010 A 
HETATM   10  C   UNK A   0       7.768   6.054  89.907  1.00  0.00     0.021 A 
HETATM   11  C   UNK A   0       9.007   5.822  89.311  1.00  0.00     0.018 A 
HETATM   12  C   UNK A   0       9.208   6.137  87.969  1.00  0.00     0.021 A 
HETATM   13  C   UNK A   0       8.167   6.684  87.219  1.00  0.00     0.010 A 
BRANCH  11  14
HETATM   14  C   UNK A   0      10.075   5.259  90.080  1.00  0.00    -0.061 C 
HETATM   15  C   UNK A   0      10.971   4.785  90.726  1.00  0.00    -0.061 C 
BRANCH  15  16
HETATM   16  C   UNK A   0      12.038   4.222  91.494  1.00  0.00     0.018 A 
HETATM   17  C   UNK A   0      13.278   3.989  90.897  1.00  0.00     0.022 A 
HETATM   18  C   UNK A   0      14.319   3.443  91.647  1.00  0.00     0.018 A 
HETATM   19  C   UNK A   0      14.099   3.142  92.975  1.00  0.00     0.032 A 
HETATM   20  C   UNK A   0      12.883   3.363  93.587  1.00  0.00     0.018 A 
HETATM   21  C   UNK A   0      11.840   3.909  92.839  1.00  0.00     0.022 A 
BRANCH  19  22
HETATM   22  C   UNK A   0      15.208   2.558  93.773  1.00  0.00     0.252 C 
HETATM   23  O   UNK A   0      16.207   3.237  93.998  1.00  0.00    -0.268 OA
ENDBRANCH  19  22
ENDBRANCH  15  16
ENDBRANCH  11  14
ENDBRANCH   7   8
ENDBRANCH   2   7
TORSDOF 9
ENDMDL
MODEL 3
REMARK VINA RESULT:      -6.9      1.553      2.191
REMARK  9 active torsions:
REMARK  status: ('A' for Active; 'I' for Inactive)
REMARK    1  A    between atoms: N_3  and  C_6 
REMARK    2  A    between atoms: C_6  and  C_9 
REMARK    3  A    between atoms: C_14  and  C_17 
REMARK       I    between atoms: N_26  and  C_15 
REMARK    4  A    between atoms: C_15  and  C_16 
REMARK    5  A    between atoms: C_20  and  C_23 
REMARK    6  A    between atoms: OG1_24  and  CB_28 
REMARK    7  A    between atoms: N_26  and  CA_27 
REMARK    8  A    between atoms: CA_27  and  CB_28 
REMARK    9  A    between atoms: CA_27  and  C_30 
ROOT
HETATM    1  O   UNK A   0       2.886  11.265  89.786  1.00  0.00    -0.388 OA
HETATM    2  N   UNK A   0       4.672   9.287  88.788  1.00  0.00     0.096 N 
HETATM    3  C   UNK A   0       3.824  10.081  87.887  1.00  0.00     0.299 C 
HETATM    4  C   UNK A   0       4.020   9.143  90.097  1.00  0.00     0.299 C 
HETATM    5  C   UNK A   0       3.526  11.437  88.521  1.00  0.00     0.198 C 
HETATM    6  C   UNK A   0       3.716  10.520  90.678  1.00  0.00     0.198 C 
ENDROOT
BRANCH   2   7
HETATM    7  C   UNK A   0       4.962   7.977  88.205  1.00  0.00     0.311 C 
BRANCH   7   8
HETATM    8  C   UNK A   0       6.175   7.348  88.799  1.00  0.00    -0.030 A 
HETATM    9  C   UNK A   0       7.414   7.980  88.686  1.00  0.00     0.010 A 
HETATM   10  C   UNK A   0       8.551   7.391  89.239  1.00  0.00     0.021 A 
HETATM   11  C   UNK A   0       8.448   6.171  89.907  1.00  0.00     0.018 A 
HETATM   12  C   UNK A   0       7.211   5.538  90.020  1.00  0.00     0.021 A 
HETATM   13  C   UNK A   0       6.074   6.127  89.466  1.00  0.00     0.010 A 
BRANCH  11  14
HETATM   14  C   UNK A   0       9.613   5.567  90.476  1.00  0.00    -0.061 C 
HETATM   15  C   UNK A   0      10.593   5.061  90.954  1.00  0.00    -0.061 C 
BRANCH  15  16
HETATM   16  C   UNK A   0      11.758   4.459  91.524  1.00  0.00     0.018 A 
HETATM   17  C   UNK A   0      11.736   4.011  92.845  1.00  0.00     0.022 A 
HETATM   18  C   UNK A   0      12.871   3.421  93.400  1.00  0.00     0.018 A 
HETATM   19  C   UNK A   0      14.003   3.291  92.622  1.00  0.00     0.032 A 
HETATM   20  C   UNK A   0      14.050   3.726  91.314  1.00  0.00     0.018 A 
HETATM   21  C   UNK A   0      12.915   4.316  90.758  1.00  0.00     0.022 A 
BRANCH  19  22
HETATM   22  C   UNK A   0      15.213   2.665  93.214  1.00  0.00     0.252 C 
HETATM   23  O   UNK A   0      16.058   3.379  93.747  1.00  0.00    -0.268 OA
ENDBRANCH  19  22
ENDBRANCH  15  16
ENDBRANCH  11  14
ENDBRANCH   7   8
ENDBRANCH   2   7
TORSDOF 9
ENDMDL
MODEL 4
REMARK VINA RESULT:      -6.7      1.409      1.765
REMARK  9 active torsions:
REMARK  status: ('A' for Active; 'I' for Inactive)
REMARK    1  A    between atoms: N_3  and  C_6 
REMARK    2  A    between atoms: C_6  and  C_9 
REMARK    3  A    between atoms: C_14  and  C_17 
REMARK       I    between atoms: N_26  and  C_15 
REMARK    4  A    between atoms: C_15  and  C_16 
REMARK    5  A    between atoms: C_20  and  C_23 
REMARK    6  A    between atoms: OG1_24  and  CB_28 
REMARK    7  A    between atoms: N_26  and  CA_27 
REMARK    8  A    between atoms: CA_27  and  CB_28 
REMARK    9  A    between atoms: CA_27  and  C_30 
ROOT
HETATM    1  O   UNK A   0       4.692  11.405  88.581  1.00  0.00    -0.388 OA
HETATM    2  N   UNK A   0       4.958   8.574  88.700  1.00  0.00     0.096 N 
HETATM    3  C   UNK A   0       6.123   9.460  88.832  1.00  0.00     0.299 C 
HETATM    4  C   UNK A   0       3.928   9.215  87.871  1.00  0.00     0.299 C 
HETATM    5  C   UNK A   0       5.687  10.803  89.412  1.00  0.00     0.198 C 
HETATM    6  C   UNK A   0       3.544  10.563  88.473  1.00  0.00     0.198 C 
ENDROOT
BRANCH   2   7
HETATM    7  C   UNK A   0       5.351   7.284  88.135  1.00  0.00     0.311 C 
BRANCH   7   8
HETATM    8  C   UNK A   0       6.564   6.721  88.795  1.00  0.00    -0.030 A 
HETATM    9  C   UNK A   0       7.777   6.681  88.105  1.00  0.00     0.010 A 
HETATM   10  C   UNK A   0       8.912   6.153  88.720  1.00  0.00     0.021 A 
HETATM   11  C   UNK A   0       8.834   5.667  90.025  1.00  0.00     0.018 A 
HETATM   12  C   UNK A   0       7.624   5.706  90.714  1.00  0.00     0.021 A 
HETATM   13  C   UNK A   0       6.488   6.234  90.099  1.00  0.00     0.010 A 
BRANCH  11  14
HETATM   14  C   UNK A   0       9.998   5.127  90.657  1.00  0.00    -0.061 C 
HETATM   15  C   UNK A   0      10.977   4.672  91.188  1.00  0.00    -0.061 C 
BRANCH  15  16
HETATM   16  C   UNK A   0      12.140   4.132  91.819  1.00  0.00     0.018 A 
HETATM   17  C   UNK A   0      13.330   4.013  91.100  1.00  0.00     0.022 A 
HETATM   18  C   UNK A   0      14.466   3.488  91.717  1.00  0.00     0.018 A 
HETATM   19  C   UNK A   0      14.387   3.095  93.036  1.00  0.00     0.032 A 
HETATM   20  C   UNK A   0      13.223   3.203  93.768  1.00  0.00     0.018 A 
HETATM   21  C   UNK A   0      12.086   3.727  93.153  1.00  0.00     0.022 A 
BRANCH  19  22
HETATM   22  C   UNK A   0      15.597   2.535  93.692  1.00  0.00     0.252 C 
HETATM   23  O   UNK A   0      16.519   3.288  93.994  1.00  0.00    -0.268 OA
ENDBRANCH  19  22
ENDBRANCH  15  16
ENDBRANCH  11  14
ENDBRANCH   7   8
ENDBRANCH   2   7
TORSDOF 9
ENDMDL
MODEL 5
REMARK VINA RESULT:      -6.6      3.571     10.320
REMARK  9 active torsions:
REMARK  status: ('A' for Active; 'I' for Inactive)
REMARK    1  A    between atoms: N_3  and  C_6 
REMARK    2  A    between atoms: C_6  and  C_9 
REMARK    3  A    between atoms: C_14  and  C_17 
REMARK       I    between atoms: N_26  and  C_15 
REMARK    4  A    between atoms: C_15  and  C_16 
REMARK    5  A    between atoms: C_20  and  C_23 
REMARK    6  A    between atoms: OG1_24  and  CB_28 
REMARK    7  A    between atoms: N_26  and  CA_27 
REMARK    8  A    between atoms: CA_27  and  CB_28 
REMARK    9  A    between atoms: CA_27  and  C_30 
ROOT
HETATM    1  O   UNK A   0      16.238   3.213  93.615  1.00  0.00    -0.388 OA
HETATM    2  N   UNK A   0      13.511   2.938  92.847  1.00  0.00     0.096 N 
HETATM    3  C   UNK A   0      14.352   1.766  93.125  1.00  0.00     0.299 C 
HETATM    4  C   UNK A   0      14.339   4.047  92.356  1.00  0.00     0.299 C 
HETATM    5  C   UNK A   0      15.445   2.139  94.124  1.00  0.00     0.198 C 
HETATM    6  C   UNK A   0      15.432   4.367  93.371  1.00  0.00     0.198 C 
ENDROOT
BRANCH   2   7
HETATM    7  C   UNK A   0      12.463   2.605  91.884  1.00  0.00     0.311 C 
BRANCH   7   8
HETATM    8  C   UNK A   0      11.601   3.777  91.555  1.00  0.00    -0.030 A 
HETATM    9  C   UNK A   0      11.402   4.143  90.223  1.00  0.00     0.010 A 
HETATM   10  C   UNK A   0      10.599   5.240  89.914  1.00  0.00     0.021 A 
HETATM   11  C   UNK A   0       9.993   5.969  90.937  1.00  0.00     0.018 A 
HETATM   12  C   UNK A   0      10.191   5.604  92.267  1.00  0.00     0.021 A 
HETATM   13  C   UNK A   0      10.995   4.508  92.577  1.00  0.00     0.010 A 
BRANCH  11  14
HETATM   14  C   UNK A   0       9.166   7.093  90.620  1.00  0.00    -0.061 C 
HETATM   15  C   UNK A   0       8.472   8.038  90.354  1.00  0.00    -0.061 C 
BRANCH  15  16
HETATM   16  C   UNK A   0       7.648   9.162  90.037  1.00  0.00     0.018 A 
HETATM   17  C   UNK A   0       8.220  10.318  89.505  1.00  0.00     0.022 A 
HETATM   18  C   UNK A   0       7.415  11.414  89.193  1.00  0.00     0.018 A 
HETATM   19  C   UNK A   0       6.057  11.329  89.419  1.00  0.00     0.032 A 
HETATM   20  C   UNK A   0       5.467  10.197  89.943  1.00  0.00     0.018 A 
HETATM   21  C   UNK A   0       6.271   9.101  90.256  1.00  0.00     0.022 A 
BRANCH  19  22
HETATM   22  C   UNK A   0       5.200  12.496  89.088  1.00  0.00     0.252 C 
HETATM   23  O   UNK A   0       5.262  12.987  87.963  1.00  0.00    -0.268 OA
ENDBRANCH  19  22
ENDBRANCH  15  16
ENDBRANCH  11  14
ENDBRANCH   7   8
ENDBRANCH   2   7
TORSDOF 9
ENDMDL
MODEL 6
REMARK VINA RESULT:      -6.6      3.925     10.421
REMARK  9 active torsions:
REMARK  status: ('A' for Active; 'I' for Inactive)
REMARK    1  A    between atoms: N_3  and  C_6 
REMARK    2  A    between atoms: C_6  and  C_9 
REMARK    3  A    between atoms: C_14  and  C_17 
REMARK       I    between atoms: N_26  and  C_15 
REMARK    4  A    between atoms: C_15  and  C_16 
REMARK    5  A    between atoms: C_20  and  C_23 
REMARK    6  A    between atoms: OG1_24  and  CB_28 
REMARK    7  A    between atoms: N_26  and  CA_27 
REMARK    8  A    between atoms: CA_27  and  CB_28 
REMARK    9  A    between atoms: CA_27  and  C_30 
ROOT
HETATM    1  O   UNK A   0      14.621   3.350  92.115  1.00  0.00    -0.388 OA
HETATM    2  N   UNK A   0      11.899   4.166  92.292  1.00  0.00     0.096 N 
HETATM    3  C   UNK A   0      12.515   3.318  93.322  1.00  0.00     0.299 C 
HETATM    4  C   UNK A   0      12.550   3.936  90.995  1.00  0.00     0.299 C 
HETATM    5  C   UNK A   0      14.016   3.591  93.387  1.00  0.00     0.198 C 
HETATM    6  C   UNK A   0      14.049   4.193  91.114  1.00  0.00     0.198 C 
ENDROOT
BRANCH   2   7
HETATM    7  C   UNK A   0      10.462   3.914  92.205  1.00  0.00     0.311 C 
BRANCH   7   8
HETATM    8  C   UNK A   0       9.684   5.153  91.922  1.00  0.00    -0.030 A 
HETATM    9  C   UNK A   0       8.756   5.171  90.880  1.00  0.00     0.010 A 
HETATM   10  C   UNK A   0       8.029   6.331  90.613  1.00  0.00     0.021 A 
HETATM   11  C   UNK A   0       8.228   7.471  91.390  1.00  0.00     0.018 A 
HETATM   12  C   UNK A   0       9.153   7.455  92.432  1.00  0.00     0.021 A 
HETATM   13  C   UNK A   0       9.882   6.295  92.698  1.00  0.00     0.010 A 
BRANCH  11  14
HETATM   14  C   UNK A   0       7.480   8.660  91.118  1.00  0.00    -0.061 C 
HETATM   15  C   UNK A   0       6.851   9.659  90.889  1.00  0.00    -0.061 C 
BRANCH  15  16
HETATM   16  C   UNK A   0       6.103  10.847  90.618  1.00  0.00     0.018 A 
HETATM   17  C   UNK A   0       6.219  11.475  89.377  1.00  0.00     0.022 A 
HETATM   18  C   UNK A   0       5.487  12.632  89.112  1.00  0.00     0.018 A 
HETATM   19  C   UNK A   0       4.657  13.135  90.091  1.00  0.00     0.032 A 
HETATM   20  C   UNK A   0       4.526  12.534  91.326  1.00  0.00     0.018 A 
HETATM   21  C   UNK A   0       5.257  11.376  91.592  1.00  0.00     0.022 A 
BRANCH  19  22
HETATM   22  C   UNK A   0       3.879  14.370  89.809  1.00  0.00     0.252 C 
HETATM   23  O   UNK A   0       4.471  15.442  89.714  1.00  0.00    -0.268 OA
ENDBRANCH  19  22
ENDBRANCH  15  16
ENDBRANCH  11  14
ENDBRANCH   7   8
ENDBRANCH   2   7
TORSDOF 9
ENDMDL
MODEL 7
REMARK VINA RESULT:      -6.5      4.896     10.341
REMARK  9 active torsions:
REMARK  status: ('A' for Active; 'I' for Inactive)
REMARK    1  A    between atoms: N_3  and  C_6 
REMARK    2  A    between atoms: C_6  and  C_9 
REMARK    3  A    between atoms: C_14  and  C_17 
REMARK       I    between atoms: N_26  and  C_15 
REMARK    4  A    between atoms: C_15  and  C_16 
REMARK    5  A    between atoms: C_20  and  C_23 
REMARK    6  A    between atoms: OG1_24  and  CB_28 
REMARK    7  A    between atoms: N_26  and  CA_27 
REMARK    8  A    between atoms: CA_27  and  CB_28 
REMARK    9  A    between atoms: CA_27  and  C_30 
ROOT
HETATM    1  O   UNK A   0      11.231   4.017  88.906  1.00  0.00    -0.388 OA
HETATM    2  N   UNK A   0       9.444   5.963  87.848  1.00  0.00     0.096 N 
HETATM    3  C   UNK A   0      10.056   4.937  86.992  1.00  0.00     0.299 C 
HETATM    4  C   UNK A   0      10.328   6.267  88.981  1.00  0.00     0.299 C 
HETATM    5  C   UNK A   0      10.364   3.691  87.819  1.00  0.00     0.198 C 
HETATM    6  C   UNK A   0      10.630   4.991  89.760  1.00  0.00     0.198 C 
ENDROOT
BRANCH   2   7
HETATM    7  C   UNK A   0       9.150   7.171  87.078  1.00  0.00     0.311 C 
BRANCH   7   8
HETATM    8  C   UNK A   0       8.351   8.160  87.856  1.00  0.00    -0.030 A 
HETATM    9  C   UNK A   0       8.938   9.354  88.275  1.00  0.00     0.010 A 
HETATM   10  C   UNK A   0       8.192  10.279  89.006  1.00  0.00     0.021 A 
HETATM   11  C   UNK A   0       6.859  10.010  89.314  1.00  0.00     0.018 A 
HETATM   12  C   UNK A   0       6.271   8.818  88.896  1.00  0.00     0.021 A 
HETATM   13  C   UNK A   0       7.017   7.892  88.167  1.00  0.00     0.010 A 
BRANCH  11  14
HETATM   14  C   UNK A   0       6.093  10.960  90.061  1.00  0.00    -0.061 C 
HETATM   15  C   UNK A   0       5.450  11.759  90.689  1.00  0.00    -0.061 C 
BRANCH  15  16
HETATM   16  C   UNK A   0       4.684  12.709  91.434  1.00  0.00     0.018 A 
HETATM   17  C   UNK A   0       4.465  13.986  90.918  1.00  0.00     0.022 A 
HETATM   18  C   UNK A   0       3.715  14.911  91.645  1.00  0.00     0.018 A 
HETATM   19  C   UNK A   0       3.202  14.539  92.869  1.00  0.00     0.032 A 
HETATM   20  C   UNK A   0       3.404  13.282  93.401  1.00  0.00     0.018 A 
HETATM   21  C   UNK A   0       4.154  12.356  92.676  1.00  0.00     0.022 A 
BRANCH  19  22
HETATM   22  C   UNK A   0       2.405  15.525  93.644  1.00  0.00     0.252 C 
HETATM   23  O   UNK A   0       1.189  15.579  93.475  1.00  0.00    -0.268 OA
ENDBRANCH  19  22
ENDBRANCH  15  16
ENDBRANCH  11  14
ENDBRANCH   7   8
ENDBRANCH   2   7
TORSDOF 9
ENDMDL
MODEL 8
REMARK VINA RESULT:      -6.4      1.310      2.004
REMARK  9 active torsions:
REMARK  status: ('A' for Active; 'I' for Inactive)
REMARK    1  A    between atoms: N_3  and  C_6 
REMARK    2  A    between atoms: C_6  and  C_9 
REMARK    3  A    between atoms: C_14  and  C_17 
REMARK       I    between atoms: N_26  and  C_15 
REMARK    4  A    between atoms: C_15  and  C_16 
REMARK    5  A    between atoms: C_20  and  C_23 
REMARK    6  A    between atoms: OG1_24  and  CB_28 
REMARK    7  A    between atoms: N_26  and  CA_27 
REMARK    8  A    between atoms: CA_27  and  CB_28 
REMARK    9  A    between atoms: CA_27  and  C_30 
ROOT
HETATM    1  O   UNK A   0       4.366  10.337  90.011  1.00  0.00    -0.388 OA
HETATM    2  N   UNK A   0       5.437   8.474  88.145  1.00  0.00     0.096 N 
HETATM    3  C   UNK A   0       3.989   8.600  88.358  1.00  0.00     0.299 C 
HETATM    4  C   UNK A   0       6.160   8.835  89.372  1.00  0.00     0.299 C 
HETATM    5  C   UNK A   0       3.655  10.019  88.813  1.00  0.00     0.198 C 
HETATM    6  C   UNK A   0       5.776  10.246  89.803  1.00  0.00     0.198 C 
ENDROOT
BRANCH   2   7
HETATM    7  C   UNK A   0       5.781   7.119  87.718  1.00  0.00     0.311 C 
BRANCH   7   8
HETATM    8  C   UNK A   0       6.951   6.569  88.461  1.00  0.00    -0.030 A 
HETATM    9  C   UNK A   0       6.760   5.928  89.685  1.00  0.00     0.010 A 
HETATM   10  C   UNK A   0       7.854   5.415  90.382  1.00  0.00     0.021 A 
HETATM   11  C   UNK A   0       9.138   5.543  89.853  1.00  0.00     0.018 A 
HETATM   12  C   UNK A   0       9.330   6.183  88.631  1.00  0.00     0.021 A 
HETATM   13  C   UNK A   0       8.237   6.696  87.934  1.00  0.00     0.010 A 
BRANCH  11  14
HETATM   14  C   UNK A   0      10.261   5.015  90.567  1.00  0.00    -0.061 C 
HETATM   15  C   UNK A   0      11.204   4.572  91.167  1.00  0.00    -0.061 C 
BRANCH  15  16
HETATM   16  C   UNK A   0      12.325   4.046  91.881  1.00  0.00     0.018 A 
HETATM   17  C   UNK A   0      13.568   3.950  91.253  1.00  0.00     0.022 A 
HETATM   18  C   UNK A   0      14.662   3.439  91.950  1.00  0.00     0.018 A 
HETATM   19  C   UNK A   0      14.491   3.037  93.258  1.00  0.00     0.032 A 
HETATM   20  C   UNK A   0      13.273   3.122  93.901  1.00  0.00     0.018 A 
HETATM   21  C   UNK A   0      12.178   3.632  93.204  1.00  0.00     0.022 A 
BRANCH  19  22
HETATM   22  C   UNK A   0      15.657   2.491  94.000  1.00  0.00     0.252 C 
HETATM   23  O   UNK A   0      16.792   2.774  93.626  1.00  0.00    -0.268 OA
ENDBRANCH  19  22
ENDBRANCH  15  16
ENDBRANCH  11  14
ENDBRANCH   7   8
ENDBRANCH   2   7
TORSDOF 9
ENDMDL
MODEL 9
REMARK VINA RESULT:      -6.4      1.607      2.246
REMARK  9 active torsions:
REMARK  status: ('A' for Active; 'I' for Inactive)
REMARK    1  A    between atoms: N_3  and  C_6 
REMARK    2  A    between atoms: C_6  and  C_9 
REMARK    3  A    between atoms: C_14  and  C_17 
REMARK       I    between atoms: N_26  and  C_15 
REMARK    4  A    between atoms: C_15  and  C_16 
REMARK    5  A    between atoms: C_20  and  C_23 
REMARK    6  A    between atoms: OG1_24  and  CB_28 
REMARK    7  A    between atoms: N_26  and  CA_27 
REMARK    8  A    between atoms: CA_27  and  CB_28 
REMARK    9  A    between atoms: CA_27  and  C_30 
ROOT
HETATM    1  O   UNK A   0       4.073   6.846  86.699  1.00  0.00    -0.388 OA
HETATM    2  N   UNK A   0       4.618   8.645  88.837  1.00  0.00     0.096 N 
HETATM    3  C   UNK A   0       5.692   8.122  87.981  1.00  0.00     0.299 C 
HETATM    4  C   UNK A   0       3.515   7.677  88.909  1.00  0.00     0.299 C 
HETATM    5  C   UNK A   0       5.136   7.795  86.597  1.00  0.00     0.198 C 
HETATM    6  C   UNK A   0       3.011   7.360  87.505  1.00  0.00     0.198 C 
ENDROOT
BRANCH   2   7
HETATM    7  C   UNK A   0       5.126   8.956  90.172  1.00  0.00     0.311 C 
BRANCH   7   8
HETATM    8  C   UNK A   0       6.333   8.155  90.521  1.00  0.00    -0.030 A 
HETATM    9  C   UNK A   0       7.606   8.680  90.294  1.00  0.00     0.010 A 
HETATM   10  C   UNK A   0       8.737   7.930  90.618  1.00  0.00     0.021 A 
HETATM   11  C   UNK A   0       8.594   6.658  91.171  1.00  0.00     0.018 A 
HETATM   12  C   UNK A   0       7.324   6.133  91.398  1.00  0.00     0.021 A 
HETATM   13  C   UNK A   0       6.193   6.882  91.073  1.00  0.00     0.010 A 
BRANCH  11  14
HETATM   14  C   UNK A   0       9.754   5.890  91.505  1.00  0.00    -0.061 C 
HETATM   15  C   UNK A   0      10.729   5.245  91.786  1.00  0.00    -0.061 C 
BRANCH  15  16
HETATM   16  C   UNK A   0      11.889   4.477  92.119  1.00  0.00     0.018 A 
HETATM   17  C   UNK A   0      12.026   3.944  93.401  1.00  0.00     0.022 A 
HETATM   18  C   UNK A   0      13.156   3.194  93.725  1.00  0.00     0.018 A 
HETATM   19  C   UNK A   0      14.122   2.992  92.761  1.00  0.00     0.032 A 
HETATM   20  C   UNK A   0      14.009   3.509  91.487  1.00  0.00     0.018 A 
HETATM   21  C   UNK A   0      12.880   4.260  91.162  1.00  0.00     0.022 A 
BRANCH  19  22
HETATM   22  C   UNK A   0      15.327   2.194  93.108  1.00  0.00     0.252 C 
HETATM   23  O   UNK A   0      16.341   2.774  93.488  1.00  0.00    -0.268 OA
ENDBRANCH  19  22
ENDBRANCH  15  16
ENDBRANCH  11  14
ENDBRANCH   7   8
ENDBRANCH   2   7
TORSDOF 9
ENDMDL
