MODEL 1
REMARK VINA RESULT:      -5.8      0.000      0.000
REMARK  12 active torsions:
REMARK  status: ('A' for Active; 'I' for Inactive)
REMARK    1  A    between atoms: O_2  and  C_16 
REMARK    2  A    between atoms: N_5  and  C_9 
REMARK    3  A    between atoms: N_6  and  C_13 
REMARK       I    between atoms: N_6  and  C_22 
REMARK    4  A    between atoms: C_9  and  C_12 
REMARK    5  A    between atoms: C_13  and  C_16 
REMARK    6  A    between atoms: C_13  and  C_21 
REMARK    7  A    between atoms: C_19  and  C_24 
REMARK    8  A    between atoms: C_21  and  C_33 
REMARK    9  A    between atoms: C_22  and  C_23 
REMARK   10  A    between atoms: C_27  and  C_30 
REMARK   11  A    between atoms: C_33  and  C_34 
REMARK   12  A    between atoms: C_34  and  C_35 
ROOT
HETATM    1  O   UNL     1      16.931   3.686  93.783  1.00  0.00    -0.350 OA
HETATM    2  N   UNL     1      14.330   3.146  92.760  1.00  0.00     0.147 N 
HETATM    3  C   UNL     1      15.298   2.068  93.004  1.00  0.00     0.283 C 
HETATM    4  C   UNL     1      15.037   4.395  92.444  1.00  0.00     0.283 C 
HETATM    5  C   UNL     1      16.254   2.475  94.124  1.00  0.00     0.178 C 
HETATM    6  C   UNL     1      15.998   4.747  93.574  1.00  0.00     0.178 C 
ENDROOT
BRANCH   2   7
HETATM    7  C   UNL     1      13.411   2.782  91.683  1.00  0.00     0.277 C 
BRANCH   7   8
HETATM    8  C   UNL     1      12.213   3.668  91.635  1.00  0.00     0.011 A 
HETATM    9  C   UNL     1      11.490   3.926  92.801  1.00  0.00    -0.002 A 
HETATM   10  C   UNL     1      10.368   4.753  92.757  1.00  0.00     0.008 A 
HETATM   11  C   UNL     1       9.970   5.323  91.548  1.00  0.00     0.042 A 
HETATM   12  C   UNL     1      10.691   5.066  90.383  1.00  0.00     0.008 A 
HETATM   13  C   UNL     1      11.813   4.239  90.427  1.00  0.00    -0.002 A 
BRANCH  11  14
HETATM   14  C   UNL     1       8.821   6.173  91.503  1.00  0.00    -0.059 C 
HETATM   15  C   UNL     1       7.854   6.887  91.466  1.00  0.00    -0.059 C 
BRANCH  15  16
HETATM   16  C   UNL     1       6.705   7.737  91.422  1.00  0.00     0.042 A 
HETATM   17  C   UNL     1       6.864   9.117  91.290  1.00  0.00     0.008 A 
HETATM   18  C   UNL     1       5.742   9.945  91.244  1.00  0.00     0.005 A 
HETATM   19  C   UNL     1       4.489   9.376  91.331  1.00  0.00     0.056 A 
HETATM   20  C   UNL     1       4.306   8.016  91.463  1.00  0.00     0.005 A 
HETATM   21  C   UNL     1       5.426   7.186  91.509  1.00  0.00     0.008 A 
BRANCH  19  22
HETATM   22  C   UNL     1       3.295  10.259  91.285  1.00  0.00     0.254 C 
HETATM   23  O   UNL     1       2.219   9.795  90.916  1.00  0.00    -0.268 OA
HETATM   24  N   UNL     1       3.492  11.570  91.697  1.00  0.00    -0.335 N 
HETATM   25  HN  UNL     1       4.404  11.877  92.013  1.00  0.00     0.164 HD
BRANCH  24  26
HETATM   26  C   UNL     1       2.427  12.540  91.732  1.00  0.00     0.166 C 
BRANCH  26  27
HETATM   27  C   UNL     1       2.009  12.911  93.161  1.00  0.00     0.138 C 
HETATM   28  C   UNL     1       1.243  11.790  93.854  1.00  0.00     0.034 C 
BRANCH  27  29
HETATM   29  O   UNL     1       3.168  13.226  93.931  1.00  0.00    -0.383 OA
HETATM   30  H   UNL     1       2.914  13.248  94.869  1.00  0.00     0.210 HD
ENDBRANCH  27  29
ENDBRANCH  26  27
BRANCH  26  31
HETATM   31  C   UNL     1       2.889  13.767  90.953  1.00  0.00     0.181 C 
HETATM   32  O   UNL     1       2.516  14.909  91.219  1.00  0.00    -0.294 OA
BRANCH  31  33
HETATM   33  C   UNL     1       4.505  13.835  90.839  1.00  0.00     0.138 C 
BRANCH  33  34
HETATM   34  C   UNL     1       4.675  13.968  89.443  1.00  0.00     0.208 C 
HETATM   35  O   UNL     1       5.254  14.962  89.070  1.00  0.00    -0.289 OA
BRANCH  34  36
HETATM   36  C   UNL     1       4.557  13.042  88.443  1.00  0.00     0.194 C 
HETATM   37  O   UNL     1       5.169  11.792  88.291  1.00  0.00    -0.185 OA
ENDBRANCH  34  36
ENDBRANCH  33  34
ENDBRANCH  31  33
ENDBRANCH  26  31
ENDBRANCH  24  26
ENDBRANCH  19  22
ENDBRANCH  15  16
ENDBRANCH  11  14
ENDBRANCH   7   8
ENDBRANCH   2   7
TORSDOF 12
ENDMDL
MODEL 2
REMARK VINA RESULT:      -5.7      1.134      1.480
REMARK  12 active torsions:
REMARK  status: ('A' for Active; 'I' for Inactive)
REMARK    1  A    between atoms: O_2  and  C_16 
REMARK    2  A    between atoms: N_5  and  C_9 
REMARK    3  A    between atoms: N_6  and  C_13 
REMARK       I    between atoms: N_6  and  C_22 
REMARK    4  A    between atoms: C_9  and  C_12 
REMARK    5  A    between atoms: C_13  and  C_16 
REMARK    6  A    between atoms: C_13  and  C_21 
REMARK    7  A    between atoms: C_19  and  C_24 
REMARK    8  A    between atoms: C_21  and  C_33 
REMARK    9  A    between atoms: C_22  and  C_23 
REMARK   10  A    between atoms: C_27  and  C_30 
REMARK   11  A    between atoms: C_33  and  C_34 
REMARK   12  A    between atoms: C_34  and  C_35 
ROOT
HETATM    1  O   UNL     1      16.294   4.436  93.879  1.00  0.00    -0.350 OA
HETATM    2  N   UNL     1      14.510   2.646  92.570  1.00  0.00     0.147 N 
HETATM    3  C   UNL     1      14.470   4.093  92.316  1.00  0.00     0.283 C 
HETATM    4  C   UNL     1      14.996   2.387  93.932  1.00  0.00     0.283 C 
HETATM    5  C   UNL     1      15.853   4.697  92.546  1.00  0.00     0.178 C 
HETATM    6  C   UNL     1      16.366   3.031  94.124  1.00  0.00     0.178 C 
ENDROOT
BRANCH   2   7
HETATM    7  C   UNL     1      13.192   2.048  92.366  1.00  0.00     0.277 C 
BRANCH   7   8
HETATM    8  C   UNL     1      12.109   3.071  92.293  1.00  0.00     0.011 A 
HETATM    9  C   UNL     1      11.832   3.872  93.402  1.00  0.00    -0.002 A 
HETATM   10  C   UNL     1      10.818   4.827  93.336  1.00  0.00     0.008 A 
HETATM   11  C   UNL     1      10.084   4.983  92.160  1.00  0.00     0.042 A 
HETATM   12  C   UNL     1      10.360   4.184  91.053  1.00  0.00     0.008 A 
HETATM   13  C   UNL     1      11.373   3.227  91.119  1.00  0.00    -0.002 A 
BRANCH  11  14
HETATM   14  C   UNL     1       9.045   5.964  92.092  1.00  0.00    -0.059 C 
HETATM   15  C   UNL     1       8.172   6.789  92.034  1.00  0.00    -0.059 C 
BRANCH  15  16
HETATM   16  C   UNL     1       7.133   7.769  91.967  1.00  0.00     0.042 A 
HETATM   17  C   UNL     1       7.319   9.022  92.553  1.00  0.00     0.008 A 
HETATM   18  C   UNL     1       6.307   9.979  92.485  1.00  0.00     0.005 A 
HETATM   19  C   UNL     1       5.134   9.664  91.832  1.00  0.00     0.056 A 
HETATM   20  C   UNL     1       4.926   8.433  91.245  1.00  0.00     0.005 A 
HETATM   21  C   UNL     1       5.937   7.475  91.313  1.00  0.00     0.008 A 
BRANCH  19  22
HETATM   22  C   UNL     1       4.055  10.683  91.761  1.00  0.00     0.254 C 
HETATM   23  O   UNL     1       2.885  10.328  91.879  1.00  0.00    -0.268 OA
HETATM   24  N   UNL     1       4.470  11.996  91.586  1.00  0.00    -0.335 N 
HETATM   25  HN  UNL     1       5.457  12.218  91.522  1.00  0.00     0.164 HD
BRANCH  24  26
HETATM   26  C   UNL     1       3.546  13.100  91.523  1.00  0.00     0.166 C 
BRANCH  26  27
HETATM   27  C   UNL     1       3.517  13.925  92.816  1.00  0.00     0.138 C 
HETATM   28  C   UNL     1       2.211  13.759  93.585  1.00  0.00     0.034 C 
BRANCH  27  29
HETATM   29  O   UNL     1       4.602  13.534  93.656  1.00  0.00    -0.383 OA
HETATM   30  H   UNL     1       4.267  13.440  94.564  1.00  0.00     0.210 HD
ENDBRANCH  27  29
ENDBRANCH  26  27
BRANCH  26  31
HETATM   31  C   UNL     1       3.931  13.961  90.324  1.00  0.00     0.181 C 
HETATM   32  O   UNL     1       4.121  15.173  90.404  1.00  0.00    -0.294 OA
BRANCH  31  33
HETATM   33  C   UNL     1       5.208  13.354  89.531  1.00  0.00     0.138 C 
BRANCH  33  34
HETATM   34  C   UNL     1       4.599  12.897  88.341  1.00  0.00     0.208 C 
HETATM   35  O   UNL     1       4.927  13.464  87.324  1.00  0.00    -0.289 OA
BRANCH  34  36
HETATM   36  C   UNL     1       3.916  11.741  88.081  1.00  0.00     0.194 C 
HETATM   37  O   UNL     1       2.693  11.281  88.581  1.00  0.00    -0.185 OA
ENDBRANCH  34  36
ENDBRANCH  33  34
ENDBRANCH  31  33
ENDBRANCH  26  31
ENDBRANCH  24  26
ENDBRANCH  19  22
ENDBRANCH  15  16
ENDBRANCH  11  14
ENDBRANCH   7   8
ENDBRANCH   2   7
TORSDOF 12
ENDMDL
MODEL 3
REMARK VINA RESULT:      -5.1      1.071      1.583
REMARK  12 active torsions:
REMARK  status: ('A' for Active; 'I' for Inactive)
REMARK    1  A    between atoms: O_2  and  C_16 
REMARK    2  A    between atoms: N_5  and  C_9 
REMARK    3  A    between atoms: N_6  and  C_13 
REMARK       I    between atoms: N_6  and  C_22 
REMARK    4  A    between atoms: C_9  and  C_12 
REMARK    5  A    between atoms: C_13  and  C_16 
REMARK    6  A    between atoms: C_13  and  C_21 
REMARK    7  A    between atoms: C_19  and  C_24 
REMARK    8  A    between atoms: C_21  and  C_33 
REMARK    9  A    between atoms: C_22  and  C_23 
REMARK   10  A    between atoms: C_27  and  C_30 
REMARK   11  A    between atoms: C_33  and  C_34 
REMARK   12  A    between atoms: C_34  and  C_35 
ROOT
HETATM    1  O   UNL     1      16.190   4.343  94.027  1.00  0.00    -0.350 OA
HETATM    2  N   UNL     1      14.473   2.638  92.527  1.00  0.00     0.147 N 
HETATM    3  C   UNL     1      14.337   4.100  92.478  1.00  0.00     0.283 C 
HETATM    4  C   UNL     1      15.021   2.227  93.828  1.00  0.00     0.283 C 
HETATM    5  C   UNL     1      15.688   4.755  92.753  1.00  0.00     0.178 C 
HETATM    6  C   UNL     1      16.354   2.926  94.072  1.00  0.00     0.178 C 
ENDROOT
BRANCH   2   7
HETATM    7  C   UNL     1      13.187   1.989  92.276  1.00  0.00     0.277 C 
BRANCH   7   8
HETATM    8  C   UNL     1      12.092   2.973  92.041  1.00  0.00     0.011 A 
HETATM    9  C   UNL     1      11.629   3.202  90.745  1.00  0.00    -0.002 A 
HETATM   10  C   UNL     1      10.605   4.123  90.523  1.00  0.00     0.008 A 
HETATM   11  C   UNL     1      10.044   4.813  91.597  1.00  0.00     0.042 A 
HETATM   12  C   UNL     1      10.506   4.585  92.892  1.00  0.00     0.008 A 
HETATM   13  C   UNL     1      11.530   3.664  93.114  1.00  0.00    -0.002 A 
BRANCH  11  14
HETATM   14  C   UNL     1       8.993   5.756  91.370  1.00  0.00    -0.059 C 
HETATM   15  C   UNL     1       8.110   6.550  91.179  1.00  0.00    -0.059 C 
BRANCH  15  16
HETATM   16  C   UNL     1       7.060   7.493  90.951  1.00  0.00     0.042 A 
HETATM   17  C   UNL     1       6.748   7.887  89.649  1.00  0.00     0.008 A 
HETATM   18  C   UNL     1       5.722   8.805  89.427  1.00  0.00     0.005 A 
HETATM   19  C   UNL     1       5.031   9.308  90.509  1.00  0.00     0.056 A 
HETATM   20  C   UNL     1       5.320   8.935  91.805  1.00  0.00     0.005 A 
HETATM   21  C   UNL     1       6.346   8.017  92.029  1.00  0.00     0.008 A 
BRANCH  19  22
HETATM   22  C   UNL     1       3.939  10.287  90.272  1.00  0.00     0.254 C 
HETATM   23  O   UNL     1       3.216  10.152  89.288  1.00  0.00    -0.268 OA
HETATM   24  N   UNL     1       3.805  11.290  91.222  1.00  0.00    -0.335 N 
HETATM   25  HN  UNL     1       4.424  11.324  92.023  1.00  0.00     0.164 HD
BRANCH  24  26
HETATM   26  C   UNL     1       2.780  12.300  91.144  1.00  0.00     0.166 C 
BRANCH  26  27
HETATM   27  C   UNL     1       1.795  12.237  92.319  1.00  0.00     0.138 C 
HETATM   28  C   UNL     1       1.763  10.864  92.981  1.00  0.00     0.034 C 
BRANCH  27  29
HETATM   29  O   UNL     1       2.153  13.214  93.295  1.00  0.00    -0.383 OA
HETATM   30  H   UNL     1       2.037  14.095  92.901  1.00  0.00     0.210 HD
ENDBRANCH  27  29
ENDBRANCH  26  27
BRANCH  26  31
HETATM   31  C   UNL     1       3.468  13.658  91.070  1.00  0.00     0.181 C 
HETATM   32  O   UNL     1       4.650  13.827  91.366  1.00  0.00    -0.294 OA
BRANCH  31  33
HETATM   33  C   UNL     1       3.259  14.362  89.625  1.00  0.00     0.138 C 
BRANCH  33  34
HETATM   34  C   UNL     1       4.571  14.313  89.104  1.00  0.00     0.208 C 
HETATM   35  O   UNL     1       5.351  15.123  89.549  1.00  0.00    -0.289 OA
BRANCH  34  36
HETATM   36  C   UNL     1       5.208  13.333  88.393  1.00  0.00     0.194 C 
HETATM   37  O   UNL     1       6.043  12.297  88.827  1.00  0.00    -0.185 OA
ENDBRANCH  34  36
ENDBRANCH  33  34
ENDBRANCH  31  33
ENDBRANCH  26  31
ENDBRANCH  24  26
ENDBRANCH  19  22
ENDBRANCH  15  16
ENDBRANCH  11  14
ENDBRANCH   7   8
ENDBRANCH   2   7
TORSDOF 12
ENDMDL
MODEL 4
REMARK VINA RESULT:      -4.9      2.329     12.785
REMARK  12 active torsions:
REMARK  status: ('A' for Active; 'I' for Inactive)
REMARK    1  A    between atoms: O_2  and  C_16 
REMARK    2  A    between atoms: N_5  and  C_9 
REMARK    3  A    between atoms: N_6  and  C_13 
REMARK       I    between atoms: N_6  and  C_22 
REMARK    4  A    between atoms: C_9  and  C_12 
REMARK    5  A    between atoms: C_13  and  C_16 
REMARK    6  A    between atoms: C_13  and  C_21 
REMARK    7  A    between atoms: C_19  and  C_24 
REMARK    8  A    between atoms: C_21  and  C_33 
REMARK    9  A    between atoms: C_22  and  C_23 
REMARK   10  A    between atoms: C_27  and  C_30 
REMARK   11  A    between atoms: C_33  and  C_34 
REMARK   12  A    between atoms: C_34  and  C_35 
ROOT
HETATM    1  O   UNL     1       2.710  14.581  93.766  1.00  0.00    -0.350 OA
HETATM    2  N   UNL     1       2.773  14.453  90.923  1.00  0.00     0.147 N 
HETATM    3  C   UNL     1       1.689  13.832  91.695  1.00  0.00     0.283 C 
HETATM    4  C   UNL     1       4.008  14.479  91.719  1.00  0.00     0.283 C 
HETATM    5  C   UNL     1       1.496  14.581  93.011  1.00  0.00     0.178 C 
HETATM    6  C   UNL     1       3.761  15.211  93.034  1.00  0.00     0.178 C 
ENDROOT
BRANCH   2   7
HETATM    7  C   UNL     1       2.983  13.744  89.662  1.00  0.00     0.277 C 
BRANCH   7   8
HETATM    8  C   UNL     1       3.927  12.600  89.803  1.00  0.00     0.011 A 
HETATM    9  C   UNL     1       5.257  12.740  89.403  1.00  0.00    -0.002 A 
HETATM   10  C   UNL     1       6.141  11.669  89.533  1.00  0.00     0.008 A 
HETATM   11  C   UNL     1       5.695  10.460  90.065  1.00  0.00     0.042 A 
HETATM   12  C   UNL     1       4.368  10.318  90.466  1.00  0.00     0.008 A 
HETATM   13  C   UNL     1       3.484  11.389  90.335  1.00  0.00    -0.002 A 
BRANCH  11  14
HETATM   14  C   UNL     1       6.603   9.362  90.201  1.00  0.00    -0.059 C 
HETATM   15  C   UNL     1       7.365   8.439  90.314  1.00  0.00    -0.059 C 
BRANCH  15  16
HETATM   16  C   UNL     1       8.273   7.342  90.448  1.00  0.00     0.042 A 
HETATM   17  C   UNL     1       8.737   6.973  91.711  1.00  0.00     0.008 A 
HETATM   18  C   UNL     1       9.620   5.901  91.842  1.00  0.00     0.005 A 
HETATM   19  C   UNL     1      10.018   5.223  90.710  1.00  0.00     0.056 A 
HETATM   20  C   UNL     1       9.573   5.568  89.451  1.00  0.00     0.005 A 
HETATM   21  C   UNL     1       8.690   6.640  89.318  1.00  0.00     0.008 A 
BRANCH  19  22
HETATM   22  C   UNL     1      10.960   4.082  90.850  1.00  0.00     0.254 C 
HETATM   23  O   UNL     1      10.694   3.014  90.304  1.00  0.00    -0.268 OA
HETATM   24  N   UNL     1      12.109   4.330  91.588  1.00  0.00    -0.335 N 
HETATM   25  HN  UNL     1      12.273   5.246  91.989  1.00  0.00     0.164 HD
BRANCH  24  26
HETATM   26  C   UNL     1      13.129   3.333  91.793  1.00  0.00     0.166 C 
BRANCH  26  27
HETATM   27  C   UNL     1      14.434   3.659  91.056  1.00  0.00     0.138 C 
HETATM   28  C   UNL     1      14.392   3.253  89.587  1.00  0.00     0.034 C 
BRANCH  27  29
HETATM   29  O   UNL     1      14.694   5.060  91.142  1.00  0.00    -0.383 OA
HETATM   30  H   UNL     1      15.637   5.183  91.343  1.00  0.00     0.210 HD
ENDBRANCH  27  29
ENDBRANCH  26  27
BRANCH  26  31
HETATM   31  C   UNL     1      13.358   3.203  93.295  1.00  0.00     0.181 C 
HETATM   32  O   UNL     1      12.451   2.972  94.093  1.00  0.00    -0.294 OA
BRANCH  31  33
HETATM   33  C   UNL     1      14.540   2.147  93.635  1.00  0.00     0.138 C 
BRANCH  33  34
HETATM   34  C   UNL     1      15.648   3.013  93.774  1.00  0.00     0.208 C 
HETATM   35  O   UNL     1      16.683   2.636  93.276  1.00  0.00    -0.289 OA
BRANCH  34  36
HETATM   36  C   UNL     1      15.703   4.334  94.123  1.00  0.00     0.194 C 
HETATM   37  O   UNL     1      16.577   5.344  93.706  1.00  0.00    -0.185 OA
ENDBRANCH  34  36
ENDBRANCH  33  34
ENDBRANCH  31  33
ENDBRANCH  26  31
ENDBRANCH  24  26
ENDBRANCH  19  22
ENDBRANCH  15  16
ENDBRANCH  11  14
ENDBRANCH   7   8
ENDBRANCH   2   7
TORSDOF 12
ENDMDL
MODEL 5
REMARK VINA RESULT:      -4.5      2.990     12.334
REMARK  12 active torsions:
REMARK  status: ('A' for Active; 'I' for Inactive)
REMARK    1  A    between atoms: O_2  and  C_16 
REMARK    2  A    between atoms: N_5  and  C_9 
REMARK    3  A    between atoms: N_6  and  C_13 
REMARK       I    between atoms: N_6  and  C_22 
REMARK    4  A    between atoms: C_9  and  C_12 
REMARK    5  A    between atoms: C_13  and  C_16 
REMARK    6  A    between atoms: C_13  and  C_21 
REMARK    7  A    between atoms: C_19  and  C_24 
REMARK    8  A    between atoms: C_21  and  C_33 
REMARK    9  A    between atoms: C_22  and  C_23 
REMARK   10  A    between atoms: C_27  and  C_30 
REMARK   11  A    between atoms: C_33  and  C_34 
REMARK   12  A    between atoms: C_34  and  C_35 
ROOT
HETATM    1  O   UNL     1       2.850  14.814  94.008  1.00  0.00    -0.350 OA
HETATM    2  N   UNL     1       2.526  14.816  91.180  1.00  0.00     0.147 N 
HETATM    3  C   UNL     1       1.589  14.103  92.060  1.00  0.00     0.283 C 
HETATM    4  C   UNL     1       3.857  14.872  91.802  1.00  0.00     0.283 C 
HETATM    5  C   UNL     1       1.545  14.782  93.427  1.00  0.00     0.178 C 
HETATM    6  C   UNL     1       3.760  15.532  93.174  1.00  0.00     0.178 C 
ENDROOT
BRANCH   2   7
HETATM    7  C   UNL     1       2.592  14.175  89.868  1.00  0.00     0.277 C 
BRANCH   7   8
HETATM    8  C   UNL     1       3.584  13.063  89.828  1.00  0.00     0.011 A 
HETATM    9  C   UNL     1       4.855  13.282  89.296  1.00  0.00    -0.002 A 
HETATM   10  C   UNL     1       5.783  12.241  89.256  1.00  0.00     0.008 A 
HETATM   11  C   UNL     1       5.439  10.983  89.750  1.00  0.00     0.042 A 
HETATM   12  C   UNL     1       4.170  10.763  90.282  1.00  0.00     0.008 A 
HETATM   13  C   UNL     1       3.242  11.804  90.321  1.00  0.00    -0.002 A 
BRANCH  11  14
HETATM   14  C   UNL     1       6.392   9.916  89.711  1.00  0.00    -0.059 C 
HETATM   15  C   UNL     1       7.193   9.020  89.678  1.00  0.00    -0.059 C 
BRANCH  15  16
HETATM   16  C   UNL     1       8.145   7.954  89.640  1.00  0.00     0.042 A 
HETATM   17  C   UNL     1       7.909   6.783  90.360  1.00  0.00     0.008 A 
HETATM   18  C   UNL     1       8.837   5.742  90.321  1.00  0.00     0.005 A 
HETATM   19  C   UNL     1       9.978   5.895  89.562  1.00  0.00     0.056 A 
HETATM   20  C   UNL     1      10.235   7.043  88.842  1.00  0.00     0.005 A 
HETATM   21  C   UNL     1       9.308   8.084  88.881  1.00  0.00     0.008 A 
BRANCH  19  22
HETATM   22  C   UNL     1      10.967   4.787  89.522  1.00  0.00     0.254 C 
HETATM   23  O   UNL     1      11.108   4.146  88.483  1.00  0.00    -0.268 OA
HETATM   24  N   UNL     1      11.690   4.575  90.687  1.00  0.00    -0.335 N 
HETATM   25  HN  UNL     1      11.537   5.161  91.500  1.00  0.00     0.164 HD
BRANCH  24  26
HETATM   26  C   UNL     1      12.702   3.555  90.798  1.00  0.00     0.166 C 
BRANCH  26  27
HETATM   27  C   UNL     1      14.077   4.121  91.174  1.00  0.00     0.138 C 
HETATM   28  C   UNL     1      15.199   3.107  90.978  1.00  0.00     0.034 C 
BRANCH  27  29
HETATM   29  O   UNL     1      14.352   5.275  90.381  1.00  0.00    -0.383 OA
HETATM   30  H   UNL     1      13.625   5.908  90.502  1.00  0.00     0.210 HD
ENDBRANCH  27  29
ENDBRANCH  26  27
BRANCH  26  31
HETATM   31  C   UNL     1      12.223   2.532  91.823  1.00  0.00     0.181 C 
HETATM   32  O   UNL     1      12.747   1.429  91.964  1.00  0.00    -0.294 OA
BRANCH  31  33
HETATM   33  C   UNL     1      12.116   3.174  93.308  1.00  0.00     0.138 C 
BRANCH  33  34
HETATM   34  C   UNL     1      10.964   3.981  93.175  1.00  0.00     0.208 C 
HETATM   35  O   UNL     1       9.995   3.448  92.683  1.00  0.00    -0.289 OA
BRANCH  34  36
HETATM   36  C   UNL     1      10.645   5.176  93.758  1.00  0.00     0.194 C 
HETATM   37  O   UNL     1      10.464   6.441  93.188  1.00  0.00    -0.185 OA
ENDBRANCH  34  36
ENDBRANCH  33  34
ENDBRANCH  31  33
ENDBRANCH  26  31
ENDBRANCH  24  26
ENDBRANCH  19  22
ENDBRANCH  15  16
ENDBRANCH  11  14
ENDBRANCH   7   8
ENDBRANCH   2   7
TORSDOF 12
ENDMDL
MODEL 6
REMARK VINA RESULT:      -3.1      2.226      3.554
REMARK  12 active torsions:
REMARK  status: ('A' for Active; 'I' for Inactive)
REMARK    1  A    between atoms: O_2  and  C_16 
REMARK    2  A    between atoms: N_5  and  C_9 
REMARK    3  A    between atoms: N_6  and  C_13 
REMARK       I    between atoms: N_6  and  C_22 
REMARK    4  A    between atoms: C_9  and  C_12 
REMARK    5  A    between atoms: C_13  and  C_16 
REMARK    6  A    between atoms: C_13  and  C_21 
REMARK    7  A    between atoms: C_19  and  C_24 
REMARK    8  A    between atoms: C_21  and  C_33 
REMARK    9  A    between atoms: C_22  and  C_23 
REMARK   10  A    between atoms: C_27  and  C_30 
REMARK   11  A    between atoms: C_33  and  C_34 
REMARK   12  A    between atoms: C_34  and  C_35 
ROOT
HETATM    1  O   UNL     1      17.256   3.704  92.577  1.00  0.00    -0.350 OA
HETATM    2  N   UNL     1      15.251   1.759  93.125  1.00  0.00     0.147 N 
HETATM    3  C   UNL     1      15.455   2.290  91.770  1.00  0.00     0.283 C 
HETATM    4  C   UNL     1      15.642   2.763  94.124  1.00  0.00     0.283 C 
HETATM    5  C   UNL     1      16.910   2.722  91.598  1.00  0.00     0.178 C 
HETATM    6  C   UNL     1      17.090   3.184  93.897  1.00  0.00     0.178 C 
ENDROOT
BRANCH   2   7
HETATM    7  C   UNL     1      13.861   1.348  93.316  1.00  0.00     0.277 C 
BRANCH   7   8
HETATM    8  C   UNL     1      12.900   2.458  93.055  1.00  0.00     0.011 A 
HETATM    9  C   UNL     1      12.715   3.458  94.010  1.00  0.00    -0.002 A 
HETATM   10  C   UNL     1      11.815   4.495  93.767  1.00  0.00     0.008 A 
HETATM   11  C   UNL     1      11.102   4.533  92.569  1.00  0.00     0.042 A 
HETATM   12  C   UNL     1      11.287   3.535  91.615  1.00  0.00     0.008 A 
HETATM   13  C   UNL     1      12.187   2.497  91.857  1.00  0.00    -0.002 A 
BRANCH  11  14
HETATM   14  C   UNL     1      10.180   5.598  92.320  1.00  0.00    -0.059 C 
HETATM   15  C   UNL     1       9.405   6.493  92.111  1.00  0.00    -0.059 C 
BRANCH  15  16
HETATM   16  C   UNL     1       8.484   7.558  91.862  1.00  0.00     0.042 A 
HETATM   17  C   UNL     1       7.539   7.438  90.843  1.00  0.00     0.008 A 
HETATM   18  C   UNL     1       6.639   8.476  90.603  1.00  0.00     0.005 A 
HETATM   19  C   UNL     1       6.703   9.609  91.386  1.00  0.00     0.056 A 
HETATM   20  C   UNL     1       7.627   9.752  92.400  1.00  0.00     0.005 A 
HETATM   21  C   UNL     1       8.528   8.715  92.641  1.00  0.00     0.008 A 
BRANCH  19  22
HETATM   22  C   UNL     1       5.745  10.715  91.129  1.00  0.00     0.254 C 
HETATM   23  O   UNL     1       5.378  11.421  92.065  1.00  0.00    -0.268 OA
HETATM   24  N   UNL     1       5.349  10.881  89.809  1.00  0.00    -0.335 N 
HETATM   25  HN  UNL     1       5.713  10.275  89.084  1.00  0.00     0.164 HD
BRANCH  24  26
HETATM   26  C   UNL     1       4.444  11.924  89.396  1.00  0.00     0.166 C 
BRANCH  26  27
HETATM   27  C   UNL     1       5.126  12.997  88.538  1.00  0.00     0.138 C 
HETATM   28  C   UNL     1       4.832  14.410  89.029  1.00  0.00     0.034 C 
BRANCH  27  29
HETATM   29  O   UNL     1       6.538  12.788  88.546  1.00  0.00    -0.383 OA
HETATM   30  H   UNL     1       6.935  13.412  89.177  1.00  0.00     0.210 HD
ENDBRANCH  27  29
ENDBRANCH  26  27
BRANCH  26  31
HETATM   31  C   UNL     1       3.288  11.268  88.648  1.00  0.00     0.181 C 
HETATM   32  O   UNL     1       2.593  11.868  87.830  1.00  0.00    -0.294 OA
BRANCH  31  33
HETATM   33  C   UNL     1       3.742   9.888  87.929  1.00  0.00     0.138 C 
BRANCH  33  34
HETATM   34  C   UNL     1       2.860   8.963  88.532  1.00  0.00     0.208 C 
HETATM   35  O   UNL     1       2.331   9.323  89.558  1.00  0.00    -0.289 OA
BRANCH  34  36
HETATM   36  C   UNL     1       2.269   7.839  88.023  1.00  0.00     0.194 C 
HETATM   37  O   UNL     1       2.732   6.928  87.066  1.00  0.00    -0.185 OA
ENDBRANCH  34  36
ENDBRANCH  33  34
ENDBRANCH  31  33
ENDBRANCH  26  31
ENDBRANCH  24  26
ENDBRANCH  19  22
ENDBRANCH  15  16
ENDBRANCH  11  14
ENDBRANCH   7   8
ENDBRANCH   2   7
TORSDOF 12
ENDMDL
