MODEL 1
REMARK VINA RESULT:      -6.9      0.000      0.000
REMARK  11 active torsions:
REMARK  status: ('A' for Active; 'I' for Inactive)
REMARK    1  A    between atoms: O_2  and  C_18 
REMARK    2  A    between atoms: O_5  and  P_8 
REMARK    3  A    between atoms: N_6  and  C_11 
REMARK    4  A    between atoms: N_7  and  C_15 
REMARK       I    between atoms: N_7  and  C_24 
REMARK    5  A    between atoms: P_8  and  C_23 
REMARK    6  A    between atoms: C_11  and  C_14 
REMARK    7  A    between atoms: C_15  and  C_18 
REMARK    8  A    between atoms: C_15  and  C_23 
REMARK    9  A    between atoms: C_21  and  C_26 
REMARK   10  A    between atoms: C_24  and  C_25 
REMARK   11  A    between atoms: C_29  and  C_32 
ROOT
HETATM    1  O   UNL     1      15.890   3.884  94.124  1.00  0.00     0.000 OA
HETATM    2  N   UNL     1      14.112   2.559  92.338  1.00  0.00     0.000 N 
HETATM    3  C   UNL     1      14.162   4.025  92.424  1.00  0.00     0.000 C 
HETATM    4  C   UNL     1      14.490   1.966  93.628  1.00  0.00     0.000 C 
HETATM    5  C   UNL     1      15.555   4.470  92.864  1.00  0.00     0.000 C 
HETATM    6  C   UNL     1      15.873   2.459  94.040  1.00  0.00     0.000 C 
ENDROOT
BRANCH   2   7
HETATM    7  C   UNL     1      12.783   2.110  91.928  1.00  0.00     0.000 C 
BRANCH   7   8
HETATM    8  C   UNL     1      11.864   3.247  91.636  1.00  0.00     0.000 A 
HETATM    9  C   UNL     1      11.010   3.725  92.630  1.00  0.00     0.000 A 
HETATM   10  C   UNL     1      10.148   4.788  92.358  1.00  0.00     0.000 A 
HETATM   11  C   UNL     1      10.143   5.372  91.092  1.00  0.00     0.000 A 
HETATM   12  C   UNL     1      10.996   4.896  90.098  1.00  0.00     0.000 A 
HETATM   13  C   UNL     1      11.857   3.833  90.370  1.00  0.00     0.000 A 
BRANCH  11  14
HETATM   14  C   UNL     1       9.261   6.464  90.812  1.00  0.00     0.000 C 
HETATM   15  C   UNL     1       8.520   7.381  90.578  1.00  0.00     0.000 C 
BRANCH  15  16
HETATM   16  C   UNL     1       7.639   8.472  90.298  1.00  0.00     0.000 A 
HETATM   17  C   UNL     1       6.313   8.223  89.942  1.00  0.00     0.000 A 
HETATM   18  C   UNL     1       5.453   9.287  89.672  1.00  0.00     0.000 A 
HETATM   19  C   UNL     1       5.937  10.575  89.765  1.00  0.00     0.000 A 
HETATM   20  C   UNL     1       7.243  10.848  90.115  1.00  0.00     0.000 A 
HETATM   21  C   UNL     1       8.104   9.784  90.385  1.00  0.00     0.000 A 
BRANCH  19  22
HETATM   22  C   UNL     1       5.021  11.709  89.475  1.00  0.00     0.000 C 
HETATM   23  O   UNL     1       4.670  11.915  88.316  1.00  0.00     0.000 OA
HETATM   24  N   UNL     1       4.604  12.450  90.572  1.00  0.00     0.000 N 
HETATM   25  HN  UNL     1       4.916  12.205  91.505  1.00  0.00     0.000 HD
BRANCH  24  26
HETATM   26  C   UNL     1       3.697  13.563  90.457  1.00  0.00     0.000 C 
BRANCH  26  27
HETATM   27  C   UNL     1       2.375  13.331  91.198  1.00  0.00     0.000 C 
HETATM   28  C   UNL     1       2.353  12.006  91.952  1.00  0.00     0.000 C 
BRANCH  27  29
HETATM   29  O   UNL     1       2.152  14.394  92.123  1.00  0.00     0.000 OA
HETATM   30  H   UNL     1       1.671  14.037  92.888  1.00  0.00     0.000 HD
ENDBRANCH  27  29
ENDBRANCH  26  27
BRANCH  26  31
HETATM   31  C   UNL     1       4.415  14.804  90.979  1.00  0.00     0.000 C 
HETATM   32  O   UNL     1       4.556  15.042  92.177  1.00  0.00     0.000 OA
BRANCH  31  33
HETATM   33  P   UNL     1       4.839  15.624  89.962  1.00  0.00     0.000 P 
HETATM   34  H   UNL     1       3.838  16.540  89.711  1.00  0.00     0.000 HD
BRANCH  33  35
HETATM   35  O   UNL     1       5.152  14.986  88.753  1.00  0.00     0.000 OA
HETATM   36  H   UNL     1       4.504  15.406  88.162  1.00  0.00     0.000 HD
ENDBRANCH  33  35
ENDBRANCH  31  33
ENDBRANCH  26  31
ENDBRANCH  24  26
ENDBRANCH  19  22
ENDBRANCH  15  16
ENDBRANCH  11  14
ENDBRANCH   7   8
ENDBRANCH   2   7
TORSDOF 11
ENDMDL
MODEL 2
REMARK VINA RESULT:      -5.9      1.870      2.829
REMARK  11 active torsions:
REMARK  status: ('A' for Active; 'I' for Inactive)
REMARK    1  A    between atoms: O_2  and  C_18 
REMARK    2  A    between atoms: O_5  and  P_8 
REMARK    3  A    between atoms: N_6  and  C_11 
REMARK    4  A    between atoms: N_7  and  C_15 
REMARK       I    between atoms: N_7  and  C_24 
REMARK    5  A    between atoms: P_8  and  C_23 
REMARK    6  A    between atoms: C_11  and  C_14 
REMARK    7  A    between atoms: C_15  and  C_18 
REMARK    8  A    between atoms: C_15  and  C_23 
REMARK    9  A    between atoms: C_21  and  C_26 
REMARK   10  A    between atoms: C_24  and  C_25 
REMARK   11  A    between atoms: C_29  and  C_32 
ROOT
HETATM    1  O   UNL     1      16.181   3.712  93.990  1.00  0.00     0.000 OA
HETATM    2  N   UNL     1      14.181   2.357  92.485  1.00  0.00     0.000 N 
HETATM    3  C   UNL     1      14.361   3.812  92.387  1.00  0.00     0.000 C 
HETATM    4  C   UNL     1      14.592   1.887  93.815  1.00  0.00     0.000 C 
HETATM    5  C   UNL     1      15.814   4.174  92.688  1.00  0.00     0.000 C 
HETATM    6  C   UNL     1      16.038   2.294  94.083  1.00  0.00     0.000 C 
ENDROOT
BRANCH   2   7
HETATM    7  C   UNL     1      12.793   1.988  92.210  1.00  0.00     0.000 C 
BRANCH   7   8
HETATM    8  C   UNL     1      11.869   3.156  92.288  1.00  0.00     0.000 A 
HETATM    9  C   UNL     1      11.089   3.501  91.184  1.00  0.00     0.000 A 
HETATM   10  C   UNL     1      10.225   4.595  91.255  1.00  0.00     0.000 A 
HETATM   11  C   UNL     1      10.141   5.340  92.431  1.00  0.00     0.000 A 
HETATM   12  C   UNL     1      10.920   4.995  93.534  1.00  0.00     0.000 A 
HETATM   13  C   UNL     1      11.784   3.903  93.463  1.00  0.00     0.000 A 
BRANCH  11  14
HETATM   14  C   UNL     1       9.254   6.460  92.505  1.00  0.00     0.000 C 
HETATM   15  C   UNL     1       8.509   7.402  92.566  1.00  0.00     0.000 C 
BRANCH  15  16
HETATM   16  C   UNL     1       7.622   8.521  92.639  1.00  0.00     0.000 A 
HETATM   17  C   UNL     1       7.754   9.448  93.673  1.00  0.00     0.000 A 
HETATM   18  C   UNL     1       6.891  10.541  93.742  1.00  0.00     0.000 A 
HETATM   19  C   UNL     1       5.916  10.683  92.777  1.00  0.00     0.000 A 
HETATM   20  C   UNL     1       5.765   9.781  91.745  1.00  0.00     0.000 A 
HETATM   21  C   UNL     1       6.628   8.687  91.675  1.00  0.00     0.000 A 
BRANCH  19  22
HETATM   22  C   UNL     1       4.996  11.847  92.852  1.00  0.00     0.000 C 
HETATM   23  O   UNL     1       4.620  12.244  93.952  1.00  0.00     0.000 OA
HETATM   24  N   UNL     1       4.643  12.423  91.639  1.00  0.00     0.000 N 
HETATM   25  HN  UNL     1       5.012  12.055  90.770  1.00  0.00     0.000 HD
BRANCH  24  26
HETATM   26  C   UNL     1       3.778  13.571  91.549  1.00  0.00     0.000 C 
BRANCH  26  27
HETATM   27  C   UNL     1       4.043  14.417  90.296  1.00  0.00     0.000 C 
HETATM   28  C   UNL     1       4.932  15.622  90.583  1.00  0.00     0.000 C 
BRANCH  27  29
HETATM   29  O   UNL     1       4.666  13.609  89.298  1.00  0.00     0.000 OA
HETATM   30  H   UNL     1       4.239  12.735  89.303  1.00  0.00     0.000 HD
ENDBRANCH  27  29
ENDBRANCH  26  27
BRANCH  26  31
HETATM   31  C   UNL     1       2.337  13.074  91.587  1.00  0.00     0.000 C 
HETATM   32  O   UNL     1       1.980  12.015  91.074  1.00  0.00     0.000 OA
BRANCH  31  33
HETATM   33  P   UNL     1       1.498  13.959  92.220  1.00  0.00     0.000 P 
HETATM   34  H   UNL     1       0.805  14.653  91.249  1.00  0.00     0.000 HD
BRANCH  33  35
HETATM   35  O   UNL     1       2.121  14.897  93.056  1.00  0.00     0.000 OA
HETATM   36  H   UNL     1       2.963  14.444  93.230  1.00  0.00     0.000 HD
ENDBRANCH  33  35
ENDBRANCH  31  33
ENDBRANCH  26  31
ENDBRANCH  24  26
ENDBRANCH  19  22
ENDBRANCH  15  16
ENDBRANCH  11  14
ENDBRANCH   7   8
ENDBRANCH   2   7
TORSDOF 11
ENDMDL
MODEL 3
REMARK VINA RESULT:      -5.8      1.675      2.399
REMARK  11 active torsions:
REMARK  status: ('A' for Active; 'I' for Inactive)
REMARK    1  A    between atoms: O_2  and  C_18 
REMARK    2  A    between atoms: O_5  and  P_8 
REMARK    3  A    between atoms: N_6  and  C_11 
REMARK    4  A    between atoms: N_7  and  C_15 
REMARK       I    between atoms: N_7  and  C_24 
REMARK    5  A    between atoms: P_8  and  C_23 
REMARK    6  A    between atoms: C_11  and  C_14 
REMARK    7  A    between atoms: C_15  and  C_18 
REMARK    8  A    between atoms: C_15  and  C_23 
REMARK    9  A    between atoms: C_21  and  C_26 
REMARK   10  A    between atoms: C_24  and  C_25 
REMARK   11  A    between atoms: C_29  and  C_32 
ROOT
HETATM    1  O   UNL     1      16.104   2.603  94.046  1.00  0.00     0.000 OA
HETATM    2  N   UNL     1      13.804   3.170  92.468  1.00  0.00     0.000 N 
HETATM    3  C   UNL     1      14.187   1.790  92.798  1.00  0.00     0.000 C 
HETATM    4  C   UNL     1      14.996   4.027  92.425  1.00  0.00     0.000 C 
HETATM    5  C   UNL     1      14.947   1.768  94.123  1.00  0.00     0.000 C 
HETATM    6  C   UNL     1      15.737   3.952  93.756  1.00  0.00     0.000 C 
ENDROOT
BRANCH   2   7
HETATM    7  C   UNL     1      13.083   3.216  91.197  1.00  0.00     0.000 C 
BRANCH   7   8
HETATM    8  C   UNL     1      11.892   4.111  91.252  1.00  0.00     0.000 A 
HETATM    9  C   UNL     1      11.368   4.647  90.075  1.00  0.00     0.000 A 
HETATM   10  C   UNL     1      10.255   5.486  90.125  1.00  0.00     0.000 A 
HETATM   11  C   UNL     1       9.665   5.786  91.352  1.00  0.00     0.000 A 
HETATM   12  C   UNL     1      10.186   5.251  92.528  1.00  0.00     0.000 A 
HETATM   13  C   UNL     1      11.300   4.413  92.478  1.00  0.00     0.000 A 
BRANCH  11  14
HETATM   14  C   UNL     1       8.521   6.645  91.403  1.00  0.00     0.000 C 
HETATM   15  C   UNL     1       7.561   7.367  91.445  1.00  0.00     0.000 C 
BRANCH  15  16
HETATM   16  C   UNL     1       6.418   8.224  91.496  1.00  0.00     0.000 A 
HETATM   17  C   UNL     1       6.228   9.190  90.508  1.00  0.00     0.000 A 
HETATM   18  C   UNL     1       5.112  10.025  90.556  1.00  0.00     0.000 A 
HETATM   19  C   UNL     1       4.211   9.875  91.589  1.00  0.00     0.000 A 
HETATM   20  C   UNL     1       4.376   8.928  92.578  1.00  0.00     0.000 A 
HETATM   21  C   UNL     1       5.492   8.093  92.531  1.00  0.00     0.000 A 
BRANCH  19  22
HETATM   22  C   UNL     1       3.023  10.766  91.640  1.00  0.00     0.000 C 
HETATM   23  O   UNL     1       1.900  10.273  91.565  1.00  0.00     0.000 OA
HETATM   24  N   UNL     1       3.284  12.119  91.799  1.00  0.00     0.000 N 
HETATM   25  HN  UNL     1       4.238  12.451  91.879  1.00  0.00     0.000 HD
BRANCH  24  26
HETATM   26  C   UNL     1       2.238  13.106  91.891  1.00  0.00     0.000 C 
BRANCH  26  27
HETATM   27  C   UNL     1       2.327  13.948  93.169  1.00  0.00     0.000 C 
HETATM   28  C   UNL     1       3.764  14.299  93.538  1.00  0.00     0.000 C 
BRANCH  27  29
HETATM   29  O   UNL     1       1.585  15.156  92.998  1.00  0.00     0.000 OA
HETATM   30  H   UNL     1       0.846  15.151  93.629  1.00  0.00     0.000 HD
ENDBRANCH  27  29
ENDBRANCH  26  27
BRANCH  26  31
HETATM   31  C   UNL     1       2.312  13.981  90.644  1.00  0.00     0.000 C 
HETATM   32  O   UNL     1       1.365  14.654  90.241  1.00  0.00     0.000 OA
BRANCH  31  33
HETATM   33  P   UNL     1       3.533  13.893  90.019  1.00  0.00     0.000 P 
HETATM   34  H   UNL     1       3.939  15.173  89.701  1.00  0.00     0.000 HD
BRANCH  33  35
HETATM   35  O   UNL     1       3.563  13.128  88.845  1.00  0.00     0.000 OA
HETATM   36  H   UNL     1       3.121  12.318  89.152  1.00  0.00     0.000 HD
ENDBRANCH  33  35
ENDBRANCH  31  33
ENDBRANCH  26  31
ENDBRANCH  24  26
ENDBRANCH  19  22
ENDBRANCH  15  16
ENDBRANCH  11  14
ENDBRANCH   7   8
ENDBRANCH   2   7
TORSDOF 11
ENDMDL
MODEL 4
REMARK VINA RESULT:      -5.7      3.569     12.275
REMARK  11 active torsions:
REMARK  status: ('A' for Active; 'I' for Inactive)
REMARK    1  A    between atoms: O_2  and  C_18 
REMARK    2  A    between atoms: O_5  and  P_8 
REMARK    3  A    between atoms: N_6  and  C_11 
REMARK    4  A    between atoms: N_7  and  C_15 
REMARK       I    between atoms: N_7  and  C_24 
REMARK    5  A    between atoms: P_8  and  C_23 
REMARK    6  A    between atoms: C_11  and  C_14 
REMARK    7  A    between atoms: C_15  and  C_18 
REMARK    8  A    between atoms: C_15  and  C_23 
REMARK    9  A    between atoms: C_21  and  C_26 
REMARK   10  A    between atoms: C_24  and  C_25 
REMARK   11  A    between atoms: C_29  and  C_32 
ROOT
HETATM    1  O   UNL     1       2.957  14.836  94.077  1.00  0.00     0.000 OA
HETATM    2  N   UNL     1       2.683  14.752  91.245  1.00  0.00     0.000 N 
HETATM    3  C   UNL     1       1.699  14.115  92.131  1.00  0.00     0.000 C 
HETATM    4  C   UNL     1       4.003  14.770  91.890  1.00  0.00     0.000 C 
HETATM    5  C   UNL     1       1.662  14.843  93.472  1.00  0.00     0.000 C 
HETATM    6  C   UNL     1       3.913  15.482  93.236  1.00  0.00     0.000 C 
ENDROOT
BRANCH   2   7
HETATM    7  C   UNL     1       2.743  14.064  89.957  1.00  0.00     0.000 C 
BRANCH   7   8
HETATM    8  C   UNL     1       3.743  12.958  89.950  1.00  0.00     0.000 A 
HETATM    9  C   UNL     1       3.474  11.771  90.632  1.00  0.00     0.000 A 
HETATM   10  C   UNL     1       4.410  10.737  90.628  1.00  0.00     0.000 A 
HETATM   11  C   UNL     1       5.614  10.890  89.940  1.00  0.00     0.000 A 
HETATM   12  C   UNL     1       5.883  12.075  89.258  1.00  0.00     0.000 A 
HETATM   13  C   UNL     1       4.947  13.110  89.263  1.00  0.00     0.000 A 
BRANCH  11  14
HETATM   14  C   UNL     1       6.573   9.829  89.933  1.00  0.00     0.000 C 
HETATM   15  C   UNL     1       7.379   8.937  89.929  1.00  0.00     0.000 C 
BRANCH  15  16
HETATM   16  C   UNL     1       8.338   7.877  89.923  1.00  0.00     0.000 A 
HETATM   17  C   UNL     1       9.189   7.712  88.830  1.00  0.00     0.000 A 
HETATM   18  C   UNL     1      10.126   6.679  88.826  1.00  0.00     0.000 A 
HETATM   19  C   UNL     1      10.191   5.835  89.915  1.00  0.00     0.000 A 
HETATM   20  C   UNL     1       9.361   5.976  91.007  1.00  0.00     0.000 A 
HETATM   21  C   UNL     1       8.424   7.009  91.012  1.00  0.00     0.000 A 
BRANCH  19  22
HETATM   22  C   UNL     1      11.188   4.733  89.909  1.00  0.00     0.000 C 
HETATM   23  O   UNL     1      11.323   4.050  88.897  1.00  0.00     0.000 OA
HETATM   24  N   UNL     1      11.926   4.575  91.075  1.00  0.00     0.000 N 
HETATM   25  HN  UNL     1      11.778   5.193  91.863  1.00  0.00     0.000 HD
BRANCH  24  26
HETATM   26  C   UNL     1      12.947   3.567  91.216  1.00  0.00     0.000 C 
BRANCH  26  27
HETATM   27  C   UNL     1      14.304   4.151  91.627  1.00  0.00     0.000 C 
HETATM   28  C   UNL     1      15.394   3.089  91.716  1.00  0.00     0.000 C 
BRANCH  27  29
HETATM   29  O   UNL     1      14.702   5.146  90.684  1.00  0.00     0.000 OA
HETATM   30  H   UNL     1      14.638   6.016  91.113  1.00  0.00     0.000 HD
ENDBRANCH  27  29
ENDBRANCH  26  27
BRANCH  26  31
HETATM   31  C   UNL     1      12.452   2.543  92.231  1.00  0.00     0.000 C 
HETATM   32  O   UNL     1      12.034   1.431  91.912  1.00  0.00     0.000 OA
BRANCH  31  33
HETATM   33  P   UNL     1      12.496   3.024  93.517  1.00  0.00     0.000 P 
HETATM   34  H   UNL     1      12.212   1.977  94.371  1.00  0.00     0.000 HD
BRANCH  33  35
HETATM   35  O   UNL     1      11.608   4.069  93.809  1.00  0.00     0.000 OA
HETATM   36  H   UNL     1      11.232   4.229  92.926  1.00  0.00     0.000 HD
ENDBRANCH  33  35
ENDBRANCH  31  33
ENDBRANCH  26  31
ENDBRANCH  24  26
ENDBRANCH  19  22
ENDBRANCH  15  16
ENDBRANCH  11  14
ENDBRANCH   7   8
ENDBRANCH   2   7
TORSDOF 11
ENDMDL
MODEL 5
REMARK VINA RESULT:      -5.4      1.735      1.966
REMARK  11 active torsions:
REMARK  status: ('A' for Active; 'I' for Inactive)
REMARK    1  A    between atoms: O_2  and  C_18 
REMARK    2  A    between atoms: O_5  and  P_8 
REMARK    3  A    between atoms: N_6  and  C_11 
REMARK    4  A    between atoms: N_7  and  C_15 
REMARK       I    between atoms: N_7  and  C_24 
REMARK    5  A    between atoms: P_8  and  C_23 
REMARK    6  A    between atoms: C_11  and  C_14 
REMARK    7  A    between atoms: C_15  and  C_18 
REMARK    8  A    between atoms: C_15  and  C_23 
REMARK    9  A    between atoms: C_21  and  C_26 
REMARK   10  A    between atoms: C_24  and  C_25 
REMARK   11  A    between atoms: C_29  and  C_32 
ROOT
HETATM    1  O   UNL     1      16.041   4.420  93.912  1.00  0.00     0.000 OA
HETATM    2  N   UNL     1      14.328   2.800  92.317  1.00  0.00     0.000 N 
HETATM    3  C   UNL     1      14.434   4.250  92.101  1.00  0.00     0.000 C 
HETATM    4  C   UNL     1      14.597   2.480  93.725  1.00  0.00     0.000 C 
HETATM    5  C   UNL     1      15.813   4.738  92.538  1.00  0.00     0.000 C 
HETATM    6  C   UNL     1      15.971   3.010  94.124  1.00  0.00     0.000 C 
ENDROOT
BRANCH   2   7
HETATM    7  C   UNL     1      13.010   2.312  91.915  1.00  0.00     0.000 C 
BRANCH   7   8
HETATM    8  C   UNL     1      11.967   3.375  91.980  1.00  0.00     0.000 A 
HETATM    9  C   UNL     1      11.595   3.911  93.214  1.00  0.00     0.000 A 
HETATM   10  C   UNL     1      10.617   4.904  93.276  1.00  0.00     0.000 A 
HETATM   11  C   UNL     1      10.014   5.362  92.105  1.00  0.00     0.000 A 
HETATM   12  C   UNL     1      10.385   4.827  90.873  1.00  0.00     0.000 A 
HETATM   13  C   UNL     1      11.362   3.834  90.810  1.00  0.00     0.000 A 
BRANCH  11  14
HETATM   14  C   UNL     1       9.012   6.382  92.169  1.00  0.00     0.000 C 
HETATM   15  C   UNL     1       8.171   7.238  92.224  1.00  0.00     0.000 C 
BRANCH  15  16
HETATM   16  C   UNL     1       7.170   8.257  92.289  1.00  0.00     0.000 A 
HETATM   17  C   UNL     1       5.884   8.003  91.810  1.00  0.00     0.000 A 
HETATM   18  C   UNL     1       4.908   8.996  91.877  1.00  0.00     0.000 A 
HETATM   19  C   UNL     1       5.238  10.221  92.419  1.00  0.00     0.000 A 
HETATM   20  C   UNL     1       6.501  10.497  92.898  1.00  0.00     0.000 A 
HETATM   21  C   UNL     1       7.479   9.504  92.832  1.00  0.00     0.000 A 
BRANCH  19  22
HETATM   22  C   UNL     1       4.197  11.279  92.487  1.00  0.00     0.000 C 
HETATM   23  O   UNL     1       3.111  11.021  93.001  1.00  0.00     0.000 OA
HETATM   24  N   UNL     1       4.555  12.518  91.972  1.00  0.00     0.000 N 
HETATM   25  HN  UNL     1       5.481  12.664  91.586  1.00  0.00     0.000 HD
BRANCH  24  26
HETATM   26  C   UNL     1       3.665  13.651  91.988  1.00  0.00     0.000 C 
BRANCH  26  27
HETATM   27  C   UNL     1       3.724  14.434  93.306  1.00  0.00     0.000 C 
HETATM   28  C   UNL     1       2.445  14.298  94.124  1.00  0.00     0.000 C 
BRANCH  27  29
HETATM   29  O   UNL     1       4.825  13.971  94.087  1.00  0.00     0.000 OA
HETATM   30  H   UNL     1       4.678  14.239  95.010  1.00  0.00     0.000 HD
ENDBRANCH  27  29
ENDBRANCH  26  27
BRANCH  26  31
HETATM   31  C   UNL     1       4.020  14.538  90.799  1.00  0.00     0.000 C 
HETATM   32  O   UNL     1       4.599  15.616  90.918  1.00  0.00     0.000 OA
BRANCH  31  33
HETATM   33  P   UNL     1       3.585  14.009  89.608  1.00  0.00     0.000 P 
HETATM   34  H   UNL     1       2.697  12.993  89.896  1.00  0.00     0.000 HD
BRANCH  33  35
HETATM   35  O   UNL     1       4.582  13.484  88.774  1.00  0.00     0.000 OA
HETATM   36  H   UNL     1       4.059  12.851  88.254  1.00  0.00     0.000 HD
ENDBRANCH  33  35
ENDBRANCH  31  33
ENDBRANCH  26  31
ENDBRANCH  24  26
ENDBRANCH  19  22
ENDBRANCH  15  16
ENDBRANCH  11  14
ENDBRANCH   7   8
ENDBRANCH   2   7
TORSDOF 11
ENDMDL
MODEL 6
REMARK VINA RESULT:      -4.3      3.575     12.414
REMARK  11 active torsions:
REMARK  status: ('A' for Active; 'I' for Inactive)
REMARK    1  A    between atoms: O_2  and  C_18 
REMARK    2  A    between atoms: O_5  and  P_8 
REMARK    3  A    between atoms: N_6  and  C_11 
REMARK    4  A    between atoms: N_7  and  C_15 
REMARK       I    between atoms: N_7  and  C_24 
REMARK    5  A    between atoms: P_8  and  C_23 
REMARK    6  A    between atoms: C_11  and  C_14 
REMARK    7  A    between atoms: C_15  and  C_18 
REMARK    8  A    between atoms: C_15  and  C_23 
REMARK    9  A    between atoms: C_21  and  C_26 
REMARK   10  A    between atoms: C_24  and  C_25 
REMARK   11  A    between atoms: C_29  and  C_32 
ROOT
HETATM    1  O   UNL     1       5.688  15.242  89.976  1.00  0.00     0.000 OA
HETATM    2  N   UNL     1       3.636  13.280  89.780  1.00  0.00     0.000 N 
HETATM    3  C   UNL     1       4.053  13.827  91.079  1.00  0.00     0.000 C 
HETATM    4  C   UNL     1       4.760  13.314  88.835  1.00  0.00     0.000 C 
HETATM    5  C   UNL     1       4.593  15.244  90.893  1.00  0.00     0.000 C 
HETATM    6  C   UNL     1       5.283  14.741  88.702  1.00  0.00     0.000 C 
ENDROOT
BRANCH   2   7
HETATM    7  C   UNL     1       3.125  11.919  89.933  1.00  0.00     0.000 C 
BRANCH   7   8
HETATM    8  C   UNL     1       4.185  10.959  90.355  1.00  0.00     0.000 A 
HETATM    9  C   UNL     1       4.744  10.084  89.422  1.00  0.00     0.000 A 
HETATM   10  C   UNL     1       5.733   9.184  89.816  1.00  0.00     0.000 A 
HETATM   11  C   UNL     1       6.165   9.160  91.142  1.00  0.00     0.000 A 
HETATM   12  C   UNL     1       5.608  10.033  92.074  1.00  0.00     0.000 A 
HETATM   13  C   UNL     1       4.617  10.933  91.681  1.00  0.00     0.000 A 
BRANCH  11  14
HETATM   14  C   UNL     1       7.182   8.238  91.545  1.00  0.00     0.000 C 
HETATM   15  C   UNL     1       8.036   7.463  91.885  1.00  0.00     0.000 C 
BRANCH  15  16
HETATM   16  C   UNL     1       9.051   6.541  92.288  1.00  0.00     0.000 A 
HETATM   17  C   UNL     1       9.948   6.037  91.346  1.00  0.00     0.000 A 
HETATM   18  C   UNL     1      10.941   5.140  91.740  1.00  0.00     0.000 A 
HETATM   19  C   UNL     1      11.015   4.767  93.066  1.00  0.00     0.000 A 
HETATM   20  C   UNL     1      10.140   5.251  94.016  1.00  0.00     0.000 A 
HETATM   21  C   UNL     1       9.147   6.148  93.623  1.00  0.00     0.000 A 
BRANCH  19  22
HETATM   22  C   UNL     1      12.071   3.810  93.484  1.00  0.00     0.000 C 
HETATM   23  O   UNL     1      11.754   2.810  94.124  1.00  0.00     0.000 OA
HETATM   24  N   UNL     1      13.364   4.119  93.087  1.00  0.00     0.000 N 
HETATM   25  HN  UNL     1      13.547   4.951  92.538  1.00  0.00     0.000 HD
BRANCH  24  26
HETATM   26  C   UNL     1      14.492   3.277  93.394  1.00  0.00     0.000 C 
BRANCH  26  27
HETATM   27  C   UNL     1      14.847   2.318  92.251  1.00  0.00     0.000 C 
HETATM   28  C   UNL     1      14.053   1.018  92.312  1.00  0.00     0.000 C 
BRANCH  27  29
HETATM   29  O   UNL     1      14.596   2.956  90.998  1.00  0.00     0.000 OA
HETATM   30  H   UNL     1      15.348   3.539  90.798  1.00  0.00     0.000 HD
ENDBRANCH  27  29
ENDBRANCH  26  27
BRANCH  26  31
HETATM   31  C   UNL     1      15.668   4.183  93.743  1.00  0.00     0.000 C 
HETATM   32  O   UNL     1      15.616   5.409  93.663  1.00  0.00     0.000 OA
BRANCH  31  33
HETATM   33  P   UNL     1      16.783   3.469  94.111  1.00  0.00     0.000 P 
HETATM   34  H   UNL     1      17.346   4.097  95.204  1.00  0.00     0.000 HD
BRANCH  33  35
HETATM   35  O   UNL     1      17.776   3.339  93.130  1.00  0.00     0.000 OA
HETATM   36  H   UNL     1      17.676   2.399  92.904  1.00  0.00     0.000 HD
ENDBRANCH  33  35
ENDBRANCH  31  33
ENDBRANCH  26  31
ENDBRANCH  24  26
ENDBRANCH  19  22
ENDBRANCH  15  16
ENDBRANCH  11  14
ENDBRANCH   7   8
ENDBRANCH   2   7
TORSDOF 11
ENDMDL
