MODEL 1
REMARK VINA RESULT:      -7.5      0.000      0.000
REMARK  9 active torsions:
REMARK  status: ('A' for Active; 'I' for Inactive)
REMARK    1  A    between atoms: N_3  and  C_6 
REMARK    2  A    between atoms: C_6  and  C_9 
REMARK    3  A    between atoms: C_14  and  C_17 
REMARK       I    between atoms: N_26  and  C_15 
REMARK    4  A    between atoms: C_15  and  C_16 
REMARK    5  A    between atoms: C_20  and  C_23 
REMARK    6  A    between atoms: OG1_24  and  CB_28 
REMARK    7  A    between atoms: N_26  and  CA_27 
REMARK    8  A    between atoms: CA_27  and  CB_28 
REMARK    9  A    between atoms: CA_27  and  C_30 
ROOT
HETATM    1  O   UNK A   0       1.923   8.204  87.842  1.00  0.00    -0.388 OA
HETATM    2  N   UNK A   0       4.701   7.609  87.660  1.00  0.00     0.096 N 
HETATM    3  C   UNK A   0       4.215   8.994  87.726  1.00  0.00     0.299 C 
HETATM    4  C   UNK A   0       3.688   6.749  87.033  1.00  0.00     0.299 C 
HETATM    5  C   UNK A   0       2.889   9.042  88.480  1.00  0.00     0.198 C 
HETATM    6  C   UNK A   0       2.374   6.850  87.802  1.00  0.00     0.198 C 
ENDROOT
BRANCH   2   7
HETATM    7  C   UNK A   0       5.966   7.538  86.932  1.00  0.00     0.311 C 
BRANCH   7   8
HETATM    8  C   UNK A   0       7.060   6.941  87.751  1.00  0.00    -0.030 A 
HETATM    9  C   UNK A   0       8.297   6.666  87.166  1.00  0.00     0.010 A 
HETATM   10  C   UNK A   0       9.320   6.105  87.930  1.00  0.00     0.021 A 
HETATM   11  C   UNK A   0       9.106   5.822  89.279  1.00  0.00     0.018 A 
HETATM   12  C   UNK A   0       7.872   6.096  89.864  1.00  0.00     0.021 A 
HETATM   13  C   UNK A   0       6.848   6.656  89.100  1.00  0.00     0.010 A 
BRANCH  11  14
HETATM   14  C   UNK A   0      10.157   5.249  90.063  1.00  0.00    -0.061 C 
HETATM   15  C   UNK A   0      11.039   4.766  90.722  1.00  0.00    -0.061 C 
BRANCH  15  16
HETATM   16  C   UNK A   0      12.090   4.193  91.505  1.00  0.00     0.018 A 
HETATM   17  C   UNK A   0      11.862   3.864  92.842  1.00  0.00     0.022 A 
HETATM   18  C   UNK A   0      12.886   3.303  93.604  1.00  0.00     0.018 A 
HETATM   19  C   UNK A   0      14.113   3.083  93.015  1.00  0.00     0.032 A 
HETATM   20  C   UNK A   0      14.363   3.399  91.696  1.00  0.00     0.018 A 
HETATM   21  C   UNK A   0      13.340   3.961  90.932  1.00  0.00     0.022 A 
BRANCH  19  22
HETATM   22  C   UNK A   0      15.204   2.486  93.828  1.00  0.00     0.252 C 
HETATM   23  O   UNK A   0      16.361   2.852  93.639  1.00  0.00    -0.268 OA
ENDBRANCH  19  22
ENDBRANCH  15  16
ENDBRANCH  11  14
ENDBRANCH   7   8
ENDBRANCH   2   7
TORSDOF 9
ENDMDL
MODEL 2
REMARK VINA RESULT:      -7.5      0.383      1.077
REMARK  9 active torsions:
REMARK  status: ('A' for Active; 'I' for Inactive)
REMARK    1  A    between atoms: N_3  and  C_6 
REMARK    2  A    between atoms: C_6  and  C_9 
REMARK    3  A    between atoms: C_14  and  C_17 
REMARK       I    between atoms: N_26  and  C_15 
REMARK    4  A    between atoms: C_15  and  C_16 
REMARK    5  A    between atoms: C_20  and  C_23 
REMARK    6  A    between atoms: OG1_24  and  CB_28 
REMARK    7  A    between atoms: N_26  and  CA_27 
REMARK    8  A    between atoms: CA_27  and  CB_28 
REMARK    9  A    between atoms: CA_27  and  C_30 
ROOT
HETATM    1  O   UNK A   0       1.848   8.826  88.301  1.00  0.00    -0.388 OA
HETATM    2  N   UNK A   0       4.481   7.823  87.894  1.00  0.00     0.096 N 
HETATM    3  C   UNK A   0       4.211   9.266  87.964  1.00  0.00     0.299 C 
HETATM    4  C   UNK A   0       3.300   7.115  87.381  1.00  0.00     0.299 C 
HETATM    5  C   UNK A   0       2.980   9.520  88.830  1.00  0.00     0.198 C 
HETATM    6  C   UNK A   0       2.091   7.420  88.259  1.00  0.00     0.198 C 
ENDROOT
BRANCH   2   7
HETATM    7  C   UNK A   0       5.651   7.555  87.060  1.00  0.00     0.311 C 
BRANCH   7   8
HETATM    8  C   UNK A   0       6.775   6.955  87.834  1.00  0.00    -0.030 A 
HETATM    9  C   UNK A   0       8.045   6.866  87.263  1.00  0.00     0.010 A 
HETATM   10  C   UNK A   0       9.097   6.302  87.985  1.00  0.00     0.021 A 
HETATM   11  C   UNK A   0       8.878   5.831  89.279  1.00  0.00     0.018 A 
HETATM   12  C   UNK A   0       7.611   5.919  89.851  1.00  0.00     0.021 A 
HETATM   13  C   UNK A   0       6.558   6.482  89.128  1.00  0.00     0.010 A 
BRANCH  11  14
HETATM   14  C   UNK A   0       9.958   5.255  90.021  1.00  0.00    -0.061 C 
HETATM   15  C   UNK A   0      10.865   4.772  90.645  1.00  0.00    -0.061 C 
BRANCH  15  16
HETATM   16  C   UNK A   0      11.943   4.196  91.387  1.00  0.00     0.018 A 
HETATM   17  C   UNK A   0      13.190   4.025  90.785  1.00  0.00     0.022 A 
HETATM   18  C   UNK A   0      14.242   3.466  91.510  1.00  0.00     0.018 A 
HETATM   19  C   UNK A   0      14.025   3.093  92.820  1.00  0.00     0.032 A 
HETATM   20  C   UNK A   0      12.802   3.252  93.438  1.00  0.00     0.018 A 
HETATM   21  C   UNK A   0      11.749   3.810  92.714  1.00  0.00     0.022 A 
BRANCH  19  22
HETATM   22  C   UNK A   0      15.146   2.496  93.591  1.00  0.00     0.252 C 
HETATM   23  O   UNK A   0      16.242   3.050  93.582  1.00  0.00    -0.268 OA
ENDBRANCH  19  22
ENDBRANCH  15  16
ENDBRANCH  11  14
ENDBRANCH   7   8
ENDBRANCH   2   7
TORSDOF 9
ENDMDL
MODEL 3
REMARK VINA RESULT:      -7.5      0.225      1.026
REMARK  9 active torsions:
REMARK  status: ('A' for Active; 'I' for Inactive)
REMARK    1  A    between atoms: N_3  and  C_6 
REMARK    2  A    between atoms: C_6  and  C_9 
REMARK    3  A    between atoms: C_14  and  C_17 
REMARK       I    between atoms: N_26  and  C_15 
REMARK    4  A    between atoms: C_15  and  C_16 
REMARK    5  A    between atoms: C_20  and  C_23 
REMARK    6  A    between atoms: OG1_24  and  CB_28 
REMARK    7  A    between atoms: N_26  and  CA_27 
REMARK    8  A    between atoms: CA_27  and  CB_28 
REMARK    9  A    between atoms: CA_27  and  C_30 
ROOT
HETATM    1  O   UNK A   0       1.728   7.994  87.840  1.00  0.00    -0.388 OA
HETATM    2  N   UNK A   0       4.538   7.578  87.663  1.00  0.00     0.096 N 
HETATM    3  C   UNK A   0       3.967   8.928  87.769  1.00  0.00     0.299 C 
HETATM    4  C   UNK A   0       3.584   6.679  86.999  1.00  0.00     0.299 C 
HETATM    5  C   UNK A   0       2.635   8.869  88.513  1.00  0.00     0.198 C 
HETATM    6  C   UNK A   0       2.263   6.673  87.760  1.00  0.00     0.198 C 
ENDROOT
BRANCH   2   7
HETATM    7  C   UNK A   0       5.810   7.610  86.944  1.00  0.00     0.311 C 
BRANCH   7   8
HETATM    8  C   UNK A   0       6.922   7.001  87.729  1.00  0.00    -0.030 A 
HETATM    9  C   UNK A   0       6.683   6.522  89.018  1.00  0.00     0.010 A 
HETATM   10  C   UNK A   0       7.723   5.955  89.755  1.00  0.00     0.021 A 
HETATM   11  C   UNK A   0       9.000   5.864  89.201  1.00  0.00     0.018 A 
HETATM   12  C   UNK A   0       9.239   6.341  87.914  1.00  0.00     0.021 A 
HETATM   13  C   UNK A   0       8.200   6.910  87.177  1.00  0.00     0.010 A 
BRANCH  11  14
HETATM   14  C   UNK A   0      10.065   5.279  89.956  1.00  0.00    -0.061 C 
HETATM   15  C   UNK A   0      10.961   4.788  90.589  1.00  0.00    -0.061 C 
BRANCH  15  16
HETATM   16  C   UNK A   0      12.027   4.204  91.343  1.00  0.00     0.018 A 
HETATM   17  C   UNK A   0      11.816   3.824  92.669  1.00  0.00     0.022 A 
HETATM   18  C   UNK A   0      12.855   3.252  93.402  1.00  0.00     0.018 A 
HETATM   19  C   UNK A   0      14.080   3.072  92.795  1.00  0.00     0.032 A 
HETATM   20  C   UNK A   0      14.314   3.439  91.486  1.00  0.00     0.018 A 
HETATM   21  C   UNK A   0      13.275   4.011  90.751  1.00  0.00     0.022 A 
BRANCH  19  22
HETATM   22  C   UNK A   0      15.187   2.464  93.578  1.00  0.00     0.252 C 
HETATM   23  O   UNK A   0      16.172   3.145  93.852  1.00  0.00    -0.268 OA
ENDBRANCH  19  22
ENDBRANCH  15  16
ENDBRANCH  11  14
ENDBRANCH   7   8
ENDBRANCH   2   7
TORSDOF 9
ENDMDL
MODEL 4
REMARK VINA RESULT:      -7.1      1.096      1.546
REMARK  9 active torsions:
REMARK  status: ('A' for Active; 'I' for Inactive)
REMARK    1  A    between atoms: N_3  and  C_6 
REMARK    2  A    between atoms: C_6  and  C_9 
REMARK    3  A    between atoms: C_14  and  C_17 
REMARK       I    between atoms: N_26  and  C_15 
REMARK    4  A    between atoms: C_15  and  C_16 
REMARK    5  A    between atoms: C_20  and  C_23 
REMARK    6  A    between atoms: OG1_24  and  CB_28 
REMARK    7  A    between atoms: N_26  and  CA_27 
REMARK    8  A    between atoms: CA_27  and  CB_28 
REMARK    9  A    between atoms: CA_27  and  C_30 
ROOT
HETATM    1  O   UNK A   0       1.927   7.112  86.934  1.00  0.00    -0.388 OA
HETATM    2  N   UNK A   0       4.233   7.933  88.386  1.00  0.00     0.096 N 
HETATM    3  C   UNK A   0       3.029   8.772  88.318  1.00  0.00     0.299 C 
HETATM    4  C   UNK A   0       4.341   7.108  87.174  1.00  0.00     0.299 C 
HETATM    5  C   UNK A   0       1.796   7.894  88.122  1.00  0.00     0.198 C 
HETATM    6  C   UNK A   0       3.078   6.270  87.004  1.00  0.00     0.198 C 
ENDROOT
BRANCH   2   7
HETATM    7  C   UNK A   0       5.429   8.755  88.562  1.00  0.00     0.311 C 
BRANCH   7   8
HETATM    8  C   UNK A   0       6.569   7.984  89.137  1.00  0.00    -0.030 A 
HETATM    9  C   UNK A   0       7.861   8.188  88.652  1.00  0.00     0.010 A 
HETATM   10  C   UNK A   0       8.928   7.466  89.187  1.00  0.00     0.021 A 
HETATM   11  C   UNK A   0       8.702   6.543  90.208  1.00  0.00     0.018 A 
HETATM   12  C   UNK A   0       7.411   6.339  90.692  1.00  0.00     0.021 A 
HETATM   13  C   UNK A   0       6.344   7.060  90.157  1.00  0.00     0.010 A 
BRANCH  11  14
HETATM   14  C   UNK A   0       9.796   5.804  90.758  1.00  0.00    -0.061 C 
HETATM   15  C   UNK A   0      10.716   5.182  91.220  1.00  0.00    -0.061 C 
BRANCH  15  16
HETATM   16  C   UNK A   0      11.810   4.443  91.769  1.00  0.00     0.018 A 
HETATM   17  C   UNK A   0      12.922   4.155  90.978  1.00  0.00     0.022 A 
HETATM   18  C   UNK A   0      13.991   3.437  91.515  1.00  0.00     0.018 A 
HETATM   19  C   UNK A   0      13.924   3.024  92.829  1.00  0.00     0.032 A 
HETATM   20  C   UNK A   0      12.835   3.296  93.631  1.00  0.00     0.018 A 
HETATM   21  C   UNK A   0      11.766   4.014  93.096  1.00  0.00     0.022 A 
BRANCH  19  22
HETATM   22  C   UNK A   0      15.061   2.257  93.399  1.00  0.00     0.252 C 
HETATM   23  O   UNK A   0      16.088   2.853  93.716  1.00  0.00    -0.268 OA
ENDBRANCH  19  22
ENDBRANCH  15  16
ENDBRANCH  11  14
ENDBRANCH   7   8
ENDBRANCH   2   7
TORSDOF 9
ENDMDL
MODEL 5
REMARK VINA RESULT:      -6.9      1.406      1.819
REMARK  9 active torsions:
REMARK  status: ('A' for Active; 'I' for Inactive)
REMARK    1  A    between atoms: N_3  and  C_6 
REMARK    2  A    between atoms: C_6  and  C_9 
REMARK    3  A    between atoms: C_14  and  C_17 
REMARK       I    between atoms: N_26  and  C_15 
REMARK    4  A    between atoms: C_15  and  C_16 
REMARK    5  A    between atoms: C_20  and  C_23 
REMARK    6  A    between atoms: OG1_24  and  CB_28 
REMARK    7  A    between atoms: N_26  and  CA_27 
REMARK    8  A    between atoms: CA_27  and  CB_28 
REMARK    9  A    between atoms: CA_27  and  C_30 
ROOT
HETATM    1  O   UNK A   0       2.960  11.075  89.786  1.00  0.00    -0.388 OA
HETATM    2  N   UNK A   0       4.684   9.110  88.661  1.00  0.00     0.096 N 
HETATM    3  C   UNK A   0       3.657   9.782  87.854  1.00  0.00     0.299 C 
HETATM    4  C   UNK A   0       4.258   9.045  90.066  1.00  0.00     0.299 C 
HETATM    5  C   UNK A   0       3.380  11.171  88.424  1.00  0.00     0.198 C 
HETATM    6  C   UNK A   0       3.966  10.449  90.583  1.00  0.00     0.198 C 
ENDROOT
BRANCH   2   7
HETATM    7  C   UNK A   0       4.959   7.772  88.139  1.00  0.00     0.311 C 
BRANCH   7   8
HETATM    8  C   UNK A   0       6.186   7.170  88.736  1.00  0.00    -0.030 A 
HETATM    9  C   UNK A   0       7.439   7.711  88.445  1.00  0.00     0.010 A 
HETATM   10  C   UNK A   0       8.587   7.147  89.001  1.00  0.00     0.021 A 
HETATM   11  C   UNK A   0       8.481   6.045  89.849  1.00  0.00     0.018 A 
HETATM   12  C   UNK A   0       7.231   5.505  90.140  1.00  0.00     0.021 A 
HETATM   13  C   UNK A   0       6.082   6.067  89.584  1.00  0.00     0.010 A 
BRANCH  11  14
HETATM   14  C   UNK A   0       9.659   5.468  90.420  1.00  0.00    -0.061 C 
HETATM   15  C   UNK A   0      10.650   4.984  90.900  1.00  0.00    -0.061 C 
BRANCH  15  16
HETATM   16  C   UNK A   0      11.827   4.408  91.471  1.00  0.00     0.018 A 
HETATM   17  C   UNK A   0      11.827   4.001  92.806  1.00  0.00     0.022 A 
HETATM   18  C   UNK A   0      12.975   3.436  93.361  1.00  0.00     0.018 A 
HETATM   19  C   UNK A   0      14.096   3.292  92.572  1.00  0.00     0.032 A 
HETATM   20  C   UNK A   0      14.122   3.687  91.250  1.00  0.00     0.018 A 
HETATM   21  C   UNK A   0      12.974   4.251  90.693  1.00  0.00     0.022 A 
BRANCH  19  22
HETATM   22  C   UNK A   0      15.320   2.693  93.165  1.00  0.00     0.252 C 
HETATM   23  O   UNK A   0      16.011   3.368  93.924  1.00  0.00    -0.268 OA
ENDBRANCH  19  22
ENDBRANCH  15  16
ENDBRANCH  11  14
ENDBRANCH   7   8
ENDBRANCH   2   7
TORSDOF 9
ENDMDL
MODEL 6
REMARK VINA RESULT:      -6.7      1.174      1.727
REMARK  9 active torsions:
REMARK  status: ('A' for Active; 'I' for Inactive)
REMARK    1  A    between atoms: N_3  and  C_6 
REMARK    2  A    between atoms: C_6  and  C_9 
REMARK    3  A    between atoms: C_14  and  C_17 
REMARK       I    between atoms: N_26  and  C_15 
REMARK    4  A    between atoms: C_15  and  C_16 
REMARK    5  A    between atoms: C_20  and  C_23 
REMARK    6  A    between atoms: OG1_24  and  CB_28 
REMARK    7  A    between atoms: N_26  and  CA_27 
REMARK    8  A    between atoms: CA_27  and  CB_28 
REMARK    9  A    between atoms: CA_27  and  C_30 
ROOT
HETATM    1  O   UNK A   0       1.516   7.008  86.771  1.00  0.00    -0.388 OA
HETATM    2  N   UNK A   0       3.774   7.963  88.216  1.00  0.00     0.096 N 
HETATM    3  C   UNK A   0       2.564   8.781  88.055  1.00  0.00     0.299 C 
HETATM    4  C   UNK A   0       3.922   7.052  87.073  1.00  0.00     0.299 C 
HETATM    5  C   UNK A   0       1.346   7.875  87.894  1.00  0.00     0.198 C 
HETATM    6  C   UNK A   0       2.673   6.188  86.935  1.00  0.00     0.198 C 
ENDROOT
BRANCH   2   7
HETATM    7  C   UNK A   0       4.956   8.811  88.361  1.00  0.00     0.311 C 
BRANCH   7   8
HETATM    8  C   UNK A   0       6.113   8.078  88.950  1.00  0.00    -0.030 A 
HETATM    9  C   UNK A   0       6.151   7.823  90.321  1.00  0.00     0.010 A 
HETATM   10  C   UNK A   0       7.234   7.139  90.873  1.00  0.00     0.021 A 
HETATM   11  C   UNK A   0       8.277   6.708  90.053  1.00  0.00     0.018 A 
HETATM   12  C   UNK A   0       8.239   6.961  88.684  1.00  0.00     0.021 A 
HETATM   13  C   UNK A   0       7.157   7.646  88.131  1.00  0.00     0.010 A 
BRANCH  11  14
HETATM   14  C   UNK A   0       9.386   6.004  90.619  1.00  0.00    -0.061 C 
HETATM   15  C   UNK A   0      10.319   5.413  91.096  1.00  0.00    -0.061 C 
BRANCH  15  16
HETATM   16  C   UNK A   0      11.427   4.710  91.662  1.00  0.00     0.018 A 
HETATM   17  C   UNK A   0      11.395   4.324  93.003  1.00  0.00     0.022 A 
HETATM   18  C   UNK A   0      12.476   3.635  93.554  1.00  0.00     0.018 A 
HETATM   19  C   UNK A   0      13.561   3.347  92.754  1.00  0.00     0.032 A 
HETATM   20  C   UNK A   0      13.617   3.718  91.427  1.00  0.00     0.018 A 
HETATM   21  C   UNK A   0      12.537   4.407  90.874  1.00  0.00     0.022 A 
BRANCH  19  22
HETATM   22  C   UNK A   0      14.713   2.615  93.343  1.00  0.00     0.252 C 
HETATM   23  O   UNK A   0      14.715   1.387  93.325  1.00  0.00    -0.268 OA
ENDBRANCH  19  22
ENDBRANCH  15  16
ENDBRANCH  11  14
ENDBRANCH   7   8
ENDBRANCH   2   7
TORSDOF 9
ENDMDL
MODEL 7
REMARK VINA RESULT:      -6.6      3.929     10.466
REMARK  9 active torsions:
REMARK  status: ('A' for Active; 'I' for Inactive)
REMARK    1  A    between atoms: N_3  and  C_6 
REMARK    2  A    between atoms: C_6  and  C_9 
REMARK    3  A    between atoms: C_14  and  C_17 
REMARK       I    between atoms: N_26  and  C_15 
REMARK    4  A    between atoms: C_15  and  C_16 
REMARK    5  A    between atoms: C_20  and  C_23 
REMARK    6  A    between atoms: OG1_24  and  CB_28 
REMARK    7  A    between atoms: N_26  and  CA_27 
REMARK    8  A    between atoms: CA_27  and  CB_28 
REMARK    9  A    between atoms: CA_27  and  C_30 
ROOT
HETATM    1  O   UNK A   0      14.497   3.318  92.093  1.00  0.00    -0.388 OA
HETATM    2  N   UNK A   0      11.788   4.172  92.277  1.00  0.00     0.096 N 
HETATM    3  C   UNK A   0      12.389   3.298  93.294  1.00  0.00     0.299 C 
HETATM    4  C   UNK A   0      12.438   3.953  90.978  1.00  0.00     0.299 C 
HETATM    5  C   UNK A   0      13.893   3.547  93.367  1.00  0.00     0.198 C 
HETATM    6  C   UNK A   0      13.940   4.185  91.105  1.00  0.00     0.198 C 
ENDROOT
BRANCH   2   7
HETATM    7  C   UNK A   0      10.347   3.942  92.183  1.00  0.00     0.311 C 
BRANCH   7   8
HETATM    8  C   UNK A   0       9.591   5.193  91.891  1.00  0.00    -0.030 A 
HETATM    9  C   UNK A   0       9.861   6.355  92.615  1.00  0.00     0.010 A 
HETATM   10  C   UNK A   0       9.152   7.526  92.345  1.00  0.00     0.021 A 
HETATM   11  C   UNK A   0       8.176   7.534  91.349  1.00  0.00     0.018 A 
HETATM   12  C   UNK A   0       7.906   6.375  90.626  1.00  0.00     0.021 A 
HETATM   13  C   UNK A   0       8.613   5.204  90.896  1.00  0.00     0.010 A 
BRANCH  11  14
HETATM   14  C   UNK A   0       7.451   8.736  91.071  1.00  0.00    -0.061 C 
HETATM   15  C   UNK A   0       6.841   9.745  90.837  1.00  0.00    -0.061 C 
BRANCH  15  16
HETATM   16  C   UNK A   0       6.117  10.946  90.560  1.00  0.00     0.018 A 
HETATM   17  C   UNK A   0       6.276  11.587  89.331  1.00  0.00     0.022 A 
HETATM   18  C   UNK A   0       5.567  12.757  89.059  1.00  0.00     0.018 A 
HETATM   19  C   UNK A   0       4.715  13.260  90.020  1.00  0.00     0.032 A 
HETATM   20  C   UNK A   0       4.541  12.645  91.243  1.00  0.00     0.018 A 
HETATM   21  C   UNK A   0       5.249  11.475  91.516  1.00  0.00     0.022 A 
BRANCH  19  22
HETATM   22  C   UNK A   0       3.962  14.507  89.731  1.00  0.00     0.252 C 
HETATM   23  O   UNK A   0       4.564  15.577  89.698  1.00  0.00    -0.268 OA
ENDBRANCH  19  22
ENDBRANCH  15  16
ENDBRANCH  11  14
ENDBRANCH   7   8
ENDBRANCH   2   7
TORSDOF 9
ENDMDL
MODEL 8
REMARK VINA RESULT:      -6.6      3.459     10.313
REMARK  9 active torsions:
REMARK  status: ('A' for Active; 'I' for Inactive)
REMARK    1  A    between atoms: N_3  and  C_6 
REMARK    2  A    between atoms: C_6  and  C_9 
REMARK    3  A    between atoms: C_14  and  C_17 
REMARK       I    between atoms: N_26  and  C_15 
REMARK    4  A    between atoms: C_15  and  C_16 
REMARK    5  A    between atoms: C_20  and  C_23 
REMARK    6  A    between atoms: OG1_24  and  CB_28 
REMARK    7  A    between atoms: N_26  and  CA_27 
REMARK    8  A    between atoms: CA_27  and  CB_28 
REMARK    9  A    between atoms: CA_27  and  C_30 
ROOT
HETATM    1  O   UNK A   0      16.174   3.158  93.643  1.00  0.00    -0.388 OA
HETATM    2  N   UNK A   0      13.469   2.900  92.796  1.00  0.00     0.096 N 
HETATM    3  C   UNK A   0      14.297   1.722  93.091  1.00  0.00     0.299 C 
HETATM    4  C   UNK A   0      14.316   4.008  92.335  1.00  0.00     0.299 C 
HETATM    5  C   UNK A   0      15.362   2.085  94.123  1.00  0.00     0.198 C 
HETATM    6  C   UNK A   0      15.381   4.317  93.383  1.00  0.00     0.198 C 
ENDROOT
BRANCH   2   7
HETATM    7  C   UNK A   0      12.447   2.578  91.801  1.00  0.00     0.311 C 
BRANCH   7   8
HETATM    8  C   UNK A   0      11.597   3.753  91.459  1.00  0.00    -0.030 A 
HETATM    9  C   UNK A   0      11.420   4.121  90.125  1.00  0.00     0.010 A 
HETATM   10  C   UNK A   0      10.626   5.222  89.805  1.00  0.00     0.021 A 
HETATM   11  C   UNK A   0      10.007   5.953  90.818  1.00  0.00     0.018 A 
HETATM   12  C   UNK A   0      10.183   5.586  92.151  1.00  0.00     0.021 A 
HETATM   13  C   UNK A   0      10.977   4.486  92.472  1.00  0.00     0.010 A 
BRANCH  11  14
HETATM   14  C   UNK A   0       9.191   7.081  90.490  1.00  0.00    -0.061 C 
HETATM   15  C   UNK A   0       8.504   8.029  90.214  1.00  0.00    -0.061 C 
BRANCH  15  16
HETATM   16  C   UNK A   0       7.689   9.157  89.886  1.00  0.00     0.018 A 
HETATM   17  C   UNK A   0       6.299   9.038  89.897  1.00  0.00     0.022 A 
HETATM   18  C   UNK A   0       5.504  10.139  89.579  1.00  0.00     0.018 A 
HETATM   19  C   UNK A   0       6.115  11.333  89.260  1.00  0.00     0.032 A 
HETATM   20  C   UNK A   0       7.486  11.476  89.242  1.00  0.00     0.018 A 
HETATM   21  C   UNK A   0       8.283  10.375  89.559  1.00  0.00     0.022 A 
BRANCH  19  22
HETATM   22  C   UNK A   0       5.267  12.505  88.920  1.00  0.00     0.252 C 
HETATM   23  O   UNK A   0       4.839  12.623  87.774  1.00  0.00    -0.268 OA
ENDBRANCH  19  22
ENDBRANCH  15  16
ENDBRANCH  11  14
ENDBRANCH   7   8
ENDBRANCH   2   7
TORSDOF 9
ENDMDL
MODEL 9
REMARK VINA RESULT:      -6.6      3.920     10.437
REMARK  9 active torsions:
REMARK  status: ('A' for Active; 'I' for Inactive)
REMARK    1  A    between atoms: N_3  and  C_6 
REMARK    2  A    between atoms: C_6  and  C_9 
REMARK    3  A    between atoms: C_14  and  C_17 
REMARK       I    between atoms: N_26  and  C_15 
REMARK    4  A    between atoms: C_15  and  C_16 
REMARK    5  A    between atoms: C_20  and  C_23 
REMARK    6  A    between atoms: OG1_24  and  CB_28 
REMARK    7  A    between atoms: N_26  and  CA_27 
REMARK    8  A    between atoms: CA_27  and  CB_28 
REMARK    9  A    between atoms: CA_27  and  C_30 
ROOT
HETATM    1  O   UNK A   0      14.584   3.392  92.088  1.00  0.00    -0.388 OA
HETATM    2  N   UNK A   0      11.869   4.216  92.316  1.00  0.00     0.096 N 
HETATM    3  C   UNK A   0      12.496   3.349  93.324  1.00  0.00     0.299 C 
HETATM    4  C   UNK A   0      12.501   4.003  91.006  1.00  0.00     0.299 C 
HETATM    5  C   UNK A   0      13.999   3.616  93.372  1.00  0.00     0.198 C 
HETATM    6  C   UNK A   0      14.002   4.253  91.109  1.00  0.00     0.198 C 
ENDROOT
BRANCH   2   7
HETATM    7  C   UNK A   0      10.430   3.970  92.245  1.00  0.00     0.311 C 
BRANCH   7   8
HETATM    8  C   UNK A   0       9.656   5.209  91.948  1.00  0.00    -0.030 A 
HETATM    9  C   UNK A   0       9.843   6.351  92.729  1.00  0.00     0.010 A 
HETATM   10  C   UNK A   0       9.118   7.510  92.453  1.00  0.00     0.021 A 
HETATM   11  C   UNK A   0       8.208   7.528  91.396  1.00  0.00     0.018 A 
HETATM   12  C   UNK A   0       8.022   6.388  90.616  1.00  0.00     0.021 A 
HETATM   13  C   UNK A   0       8.746   5.229  90.892  1.00  0.00     0.010 A 
BRANCH  11  14
HETATM   14  C   UNK A   0       7.466   8.718  91.113  1.00  0.00    -0.061 C 
HETATM   15  C   UNK A   0       6.843   9.718  90.874  1.00  0.00    -0.061 C 
BRANCH  15  16
HETATM   16  C   UNK A   0       6.103  10.907  90.590  1.00  0.00     0.018 A 
HETATM   17  C   UNK A   0       5.241  11.437  91.551  1.00  0.00     0.022 A 
HETATM   18  C   UNK A   0       4.521  12.599  91.275  1.00  0.00     0.018 A 
HETATM   19  C   UNK A   0       4.678  13.205  90.046  1.00  0.00     0.032 A 
HETATM   20  C   UNK A   0       5.523  12.700  89.079  1.00  0.00     0.018 A 
HETATM   21  C   UNK A   0       6.244  11.538  89.354  1.00  0.00     0.022 A 
BRANCH  19  22
HETATM   22  C   UNK A   0       3.909  14.442  89.751  1.00  0.00     0.252 C 
HETATM   23  O   UNK A   0       4.494  15.521  89.728  1.00  0.00    -0.268 OA
ENDBRANCH  19  22
ENDBRANCH  15  16
ENDBRANCH  11  14
ENDBRANCH   7   8
ENDBRANCH   2   7
TORSDOF 9
ENDMDL
