MODEL 1
REMARK VINA RESULT:      -7.0      0.000      0.000
REMARK  14 active torsions:
REMARK  status: ('A' for Active; 'I' for Inactive)
REMARK    1  A    between atoms: O_2  and  C_18 
REMARK    2  A    between atoms: C_5  and  C_8 
REMARK    3  A    between atoms: C_5  and  O_35 
REMARK    4  A    between atoms: C_5  and  C_36 
REMARK    5  A    between atoms: N_6  and  C_11 
REMARK    6  A    between atoms: N_7  and  C_15 
REMARK       I    between atoms: N_7  and  C_24 
REMARK    7  A    between atoms: C_8  and  C_23 
REMARK    8  A    between atoms: C_11  and  C_14 
REMARK    9  A    between atoms: C_15  and  C_18 
REMARK   10  A    between atoms: C_15  and  C_23 
REMARK   11  A    between atoms: C_21  and  C_26 
REMARK   12  A    between atoms: C_24  and  C_25 
REMARK   13  A    between atoms: C_29  and  C_32 
REMARK   14  A    between atoms: C_36  and  O_39 
ROOT
HETATM    1  O   UNL     1      16.229   4.217  94.109  1.00  0.00    -0.350 OA
HETATM    2  N   UNL     1      14.389   2.718  92.537  1.00  0.00     0.147 N 
HETATM    3  C   UNL     1      14.392   4.187  92.523  1.00  0.00     0.283 C 
HETATM    4  C   UNL     1      14.870   2.226  93.836  1.00  0.00     0.283 C 
HETATM    5  C   UNL     1      15.794   4.704  92.838  1.00  0.00     0.178 C 
HETATM    6  C   UNL     1      16.259   2.789  94.121  1.00  0.00     0.178 C 
ENDROOT
BRANCH   2   7
HETATM    7  C   UNL     1      13.053   2.200  92.247  1.00  0.00     0.277 C 
BRANCH   7   8
HETATM    8  C   UNL     1      12.011   3.266  92.285  1.00  0.00     0.011 A 
HETATM    9  C   UNL     1      11.779   3.972  93.466  1.00  0.00    -0.002 A 
HETATM   10  C   UNL     1      10.803   4.967  93.503  1.00  0.00     0.008 A 
HETATM   11  C   UNL     1      10.061   5.257  92.358  1.00  0.00     0.042 A 
HETATM   12  C   UNL     1      10.291   4.553  91.179  1.00  0.00     0.008 A 
HETATM   13  C   UNL     1      11.267   3.557  91.141  1.00  0.00    -0.002 A 
BRANCH  11  14
HETATM   14  C   UNL     1       9.061   6.280  92.396  1.00  0.00    -0.059 C 
HETATM   15  C   UNL     1       8.220   7.139  92.428  1.00  0.00    -0.059 C 
BRANCH  15  16
HETATM   16  C   UNL     1       7.222   8.162  92.465  1.00  0.00     0.042 A 
HETATM   17  C   UNL     1       5.876   7.817  92.594  1.00  0.00     0.008 A 
HETATM   18  C   UNL     1       4.902   8.815  92.633  1.00  0.00     0.005 A 
HETATM   19  C   UNL     1       5.295  10.134  92.544  1.00  0.00     0.056 A 
HETATM   20  C   UNL     1       6.619  10.500  92.416  1.00  0.00     0.005 A 
HETATM   21  C   UNL     1       7.593   9.503  92.376  1.00  0.00     0.008 A 
BRANCH  19  22
HETATM   22  C   UNL     1       4.258  11.196  92.584  1.00  0.00     0.254 C 
HETATM   23  O   UNL     1       3.303  11.074  93.348  1.00  0.00    -0.268 OA
HETATM   24  N   UNL     1       4.469  12.284  91.749  1.00  0.00    -0.335 N 
HETATM   25  HN  UNL     1       5.294  12.328  91.163  1.00  0.00     0.164 HD
BRANCH  24  26
HETATM   26  C   UNL     1       3.565  13.405  91.692  1.00  0.00     0.169 C 
BRANCH  26  27
HETATM   27  C   UNL     1       4.139  14.664  92.356  1.00  0.00     0.138 C 
HETATM   28  C   UNL     1       4.947  15.518  91.386  1.00  0.00     0.034 C 
BRANCH  27  29
HETATM   29  O   UNL     1       3.073  15.450  92.889  1.00  0.00    -0.383 OA
HETATM   30  H   UNL     1       2.969  15.224  93.828  1.00  0.00     0.210 HD
ENDBRANCH  27  29
ENDBRANCH  26  27
BRANCH  26  31
HETATM   31  C   UNL     1       3.226  13.657  90.226  1.00  0.00     0.194 C 
HETATM   32  O   UNL     1       2.256  14.321  89.868  1.00  0.00    -0.289 OA
BRANCH  31  33
HETATM   33  C   UNL     1       4.102  13.027  89.376  1.00  0.00     0.053 C 
BRANCH  33  34
HETATM   34  C   UNL     1       3.519  12.225  88.384  1.00  0.00     0.220 C 
BRANCH  34  35
HETATM   35  O   UNL     1       4.220  12.318  87.359  1.00  0.00    -0.371 OA
HETATM   36  H   UNL     1       4.392  11.398  87.231  1.00  0.00     0.211 HD
ENDBRANCH  34  35
BRANCH  34  37
HETATM   37  C   UNL     1       3.331  10.890  88.782  1.00  0.00     0.185 C 
HETATM   38  O   UNL     1       4.156  10.642  87.777  1.00  0.00    -0.647 OA
BRANCH  37  39
HETATM   39  O   UNL     1       2.690  10.305  89.603  1.00  0.00    -0.774 OA
HETATM   40  H   UNL     1       3.010  10.577  90.656  1.00  0.00     0.167 HD
ENDBRANCH  37  39
ENDBRANCH  34  37
ENDBRANCH  33  34
ENDBRANCH  31  33
ENDBRANCH  26  31
ENDBRANCH  24  26
ENDBRANCH  19  22
ENDBRANCH  15  16
ENDBRANCH  11  14
ENDBRANCH   7   8
ENDBRANCH   2   7
TORSDOF 14
ENDMDL
