MODEL 1
REMARK VINA RESULT:      -6.9      0.000      0.000
REMARK  10 active torsions:
REMARK  status: ('A' for Active; 'I' for Inactive)
REMARK    1  A    between atoms: O_2  and  C_16 
REMARK    2  A    between atoms: N_5  and  C_9 
REMARK    3  A    between atoms: N_6  and  C_13 
REMARK       I    between atoms: N_6  and  C_22 
REMARK    4  A    between atoms: C_9  and  C_12 
REMARK    5  A    between atoms: C_13  and  C_16 
REMARK    6  A    between atoms: C_13  and  C_21 
REMARK    7  A    between atoms: C_19  and  C_24 
REMARK    8  A    between atoms: C_22  and  C_23 
REMARK    9  A    between atoms: C_27  and  C_30 
REMARK   10  A    between atoms: N_33  and  S_34 
ROOT
HETATM    1  C   UNL     1       5.822  11.207  89.642  1.00  0.00     0.056 A 
HETATM    2  C   UNL     1       5.274  10.032  90.114  1.00  0.00     0.005 A 
HETATM    3  C   UNL     1       7.176  11.349  89.419  1.00  0.00     0.005 A 
HETATM    4  C   UNL     1       7.489   9.070  90.158  1.00  0.00     0.042 A 
HETATM    5  C   UNL     1       6.116   8.952  90.375  1.00  0.00     0.008 A 
HETATM    6  C   UNL     1       8.019  10.269  89.680  1.00  0.00     0.008 A 
ENDROOT
BRANCH   1   7
HETATM    7  C   UNL     1       4.925  12.357  89.362  1.00  0.00     0.254 C 
HETATM    8  O   UNL     1       4.834  12.781  88.213  1.00  0.00    -0.268 OA
HETATM    9  N   UNL     1       4.222  12.859  90.449  1.00  0.00    -0.337 N 
HETATM   10  HN  UNL     1       4.329  12.441  91.366  1.00  0.00     0.164 HD
BRANCH   9  11
HETATM   11  C   UNL     1       3.295  13.956  90.334  1.00  0.00     0.172 C 
BRANCH  11  12
HETATM   12  C   UNL     1       1.942  13.661  90.994  1.00  0.00     0.136 C 
HETATM   13  C   UNL     1       2.012  12.495  91.974  1.00  0.00     0.034 C 
BRANCH  12  14
HETATM   14  O   UNL     1       1.487  14.823  91.688  1.00  0.00    -0.383 OA
HETATM   15  H   UNL     1       1.032  15.399  91.051  1.00  0.00     0.210 HD
ENDBRANCH  12  14
ENDBRANCH  11  12
BRANCH  11  16
HETATM   16  C   UNL     1       3.954  15.188  90.944  1.00  0.00     0.398 A 
HETATM   17  O   UNL     1       5.063  15.593  90.603  1.00  0.00    -0.136 OA
HETATM   18  N   UNL     1       4.935  15.618  92.117  1.00  0.00     0.142 N 
HETATM   19  HN  UNL     1       5.840  15.989  92.044  1.00  0.00     0.338 HD
BRANCH  18  20
HETATM   20  S   UNL     1       4.230  15.073  93.184  1.00  0.00     0.076 SA
HETATM   21  H   UNL     1       3.120  15.465  93.343  1.00  0.00     0.136 HD
ENDBRANCH  18  20
ENDBRANCH  11  16
ENDBRANCH   9  11
ENDBRANCH   1   7
BRANCH   4  22
HETATM   22  C   UNL     1       8.352   7.964  90.428  1.00  0.00    -0.059 C 
HETATM   23  C   UNL     1       9.079   7.033  90.656  1.00  0.00    -0.059 C 
BRANCH  23  24
HETATM   24  C   UNL     1       9.943   5.925  90.928  1.00  0.00     0.042 A 
HETATM   25  C   UNL     1      10.625   5.302  89.883  1.00  0.00     0.008 A 
HETATM   26  C   UNL     1      11.465   4.221  90.147  1.00  0.00    -0.002 A 
HETATM   27  C   UNL     1      11.625   3.765  91.456  1.00  0.00     0.011 A 
HETATM   28  C   UNL     1      10.942   4.390  92.500  1.00  0.00    -0.002 A 
HETATM   29  C   UNL     1      10.101   5.471  92.235  1.00  0.00     0.008 A 
BRANCH  27  30
HETATM   30  C   UNL     1      12.525   2.611  91.738  1.00  0.00     0.277 C 
BRANCH  30  31
HETATM   31  N   UNL     1      13.510   2.912  92.775  1.00  0.00     0.147 N 
HETATM   32  C   UNL     1      14.356   1.742  93.046  1.00  0.00     0.283 C 
HETATM   33  C   UNL     1      15.382   2.083  94.124  1.00  0.00     0.178 C 
HETATM   34  O   UNL     1      16.182   3.193  93.714  1.00  0.00    -0.350 OA
HETATM   35  C   UNL     1      15.370   4.344  93.479  1.00  0.00     0.178 C 
HETATM   36  C   UNL     1      14.344   4.058  92.387  1.00  0.00     0.283 C 
ENDBRANCH  30  31
ENDBRANCH  27  30
ENDBRANCH  23  24
ENDBRANCH   4  22
TORSDOF 10
ENDMDL
MODEL 2
REMARK VINA RESULT:      -6.6      1.429      1.927
REMARK  10 active torsions:
REMARK  status: ('A' for Active; 'I' for Inactive)
REMARK    1  A    between atoms: O_2  and  C_16 
REMARK    2  A    between atoms: N_5  and  C_9 
REMARK    3  A    between atoms: N_6  and  C_13 
REMARK       I    between atoms: N_6  and  C_22 
REMARK    4  A    between atoms: C_9  and  C_12 
REMARK    5  A    between atoms: C_13  and  C_16 
REMARK    6  A    between atoms: C_13  and  C_21 
REMARK    7  A    between atoms: C_19  and  C_24 
REMARK    8  A    between atoms: C_22  and  C_23 
REMARK    9  A    between atoms: C_27  and  C_30 
REMARK   10  A    between atoms: N_33  and  S_34 
ROOT
HETATM    1  C   UNL     1       5.291  10.548  90.917  1.00  0.00     0.056 A 
HETATM    2  C   UNL     1       5.025   9.452  91.710  1.00  0.00     0.005 A 
HETATM    3  C   UNL     1       6.478  10.688  90.229  1.00  0.00     0.005 A 
HETATM    4  C   UNL     1       7.197   8.567  91.134  1.00  0.00     0.042 A 
HETATM    5  C   UNL     1       5.988   8.449  91.821  1.00  0.00     0.008 A 
HETATM    6  C   UNL     1       7.442   9.686  90.338  1.00  0.00     0.008 A 
ENDROOT
BRANCH   1   7
HETATM    7  C   UNL     1       4.263  11.615  90.799  1.00  0.00     0.254 C 
HETATM    8  O   UNL     1       3.228  11.383  90.179  1.00  0.00    -0.268 OA
HETATM    9  N   UNL     1       4.553  12.813  91.436  1.00  0.00    -0.337 N 
HETATM   10  HN  UNL     1       5.419  12.923  91.951  1.00  0.00     0.164 HD
BRANCH   9  11
HETATM   11  C   UNL     1       3.647  13.933  91.432  1.00  0.00     0.172 C 
BRANCH  11  12
HETATM   12  C   UNL     1       3.576  14.635  90.071  1.00  0.00     0.136 C 
HETATM   13  C   UNL     1       4.954  14.861  89.458  1.00  0.00     0.034 C 
BRANCH  12  14
HETATM   14  O   UNL     1       2.792  13.853  89.170  1.00  0.00    -0.383 OA
HETATM   15  H   UNL     1       2.302  14.458  88.588  1.00  0.00     0.210 HD
ENDBRANCH  12  14
ENDBRANCH  11  12
BRANCH  11  16
HETATM   16  C   UNL     1       2.276  13.424  91.865  1.00  0.00     0.398 A 
HETATM   17  O   UNL     1       1.266  14.125  91.851  1.00  0.00    -0.136 OA
HETATM   18  N   UNL     1       1.335  13.325  93.142  1.00  0.00     0.142 N 
HETATM   19  HN  UNL     1       0.481  13.781  93.300  1.00  0.00     0.338 HD
BRANCH  18  20
HETATM   20  S   UNL     1       2.207  12.649  93.987  1.00  0.00     0.076 SA
HETATM   21  H   UNL     1       3.210  13.216  94.280  1.00  0.00     0.136 HD
ENDBRANCH  18  20
ENDBRANCH  11  16
ENDBRANCH   9  11
ENDBRANCH   1   7
BRANCH   4  22
HETATM   22  C   UNL     1       8.186   7.541  91.250  1.00  0.00    -0.059 C 
HETATM   23  C   UNL     1       9.019   6.679  91.346  1.00  0.00    -0.059 C 
BRANCH  23  24
HETATM   24  C   UNL     1      10.009   5.653  91.461  1.00  0.00     0.042 A 
HETATM   25  C   UNL     1      10.698   5.220  90.329  1.00  0.00     0.008 A 
HETATM   26  C   UNL     1      11.662   4.218  90.441  1.00  0.00    -0.002 A 
HETATM   27  C   UNL     1      11.938   3.652  91.686  1.00  0.00     0.011 A 
HETATM   28  C   UNL     1      11.249   4.087  92.818  1.00  0.00    -0.002 A 
HETATM   29  C   UNL     1      10.284   5.088  92.705  1.00  0.00     0.008 A 
BRANCH  27  30
HETATM   30  C   UNL     1      12.971   2.583  91.805  1.00  0.00     0.277 C 
BRANCH  30  31
HETATM   31  N   UNL     1      13.947   2.866  92.855  1.00  0.00     0.147 N 
HETATM   32  C   UNL     1      14.884   1.745  93.010  1.00  0.00     0.283 C 
HETATM   33  C   UNL     1      15.900   2.067  94.104  1.00  0.00     0.178 C 
HETATM   34  O   UNL     1      16.606   3.268  93.787  1.00  0.00    -0.350 OA
HETATM   35  C   UNL     1      15.706   4.369  93.665  1.00  0.00     0.178 C 
HETATM   36  C   UNL     1      14.686   4.103  92.563  1.00  0.00     0.283 C 
ENDBRANCH  30  31
ENDBRANCH  27  30
ENDBRANCH  23  24
ENDBRANCH   4  22
TORSDOF 10
ENDMDL
MODEL 3
REMARK VINA RESULT:      -5.8      1.929      2.560
REMARK  10 active torsions:
REMARK  status: ('A' for Active; 'I' for Inactive)
REMARK    1  A    between atoms: O_2  and  C_16 
REMARK    2  A    between atoms: N_5  and  C_9 
REMARK    3  A    between atoms: N_6  and  C_13 
REMARK       I    between atoms: N_6  and  C_22 
REMARK    4  A    between atoms: C_9  and  C_12 
REMARK    5  A    between atoms: C_13  and  C_16 
REMARK    6  A    between atoms: C_13  and  C_21 
REMARK    7  A    between atoms: C_19  and  C_24 
REMARK    8  A    between atoms: C_22  and  C_23 
REMARK    9  A    between atoms: C_27  and  C_30 
REMARK   10  A    between atoms: N_33  and  S_34 
ROOT
HETATM    1  C   UNL     1       5.366   8.897  90.398  1.00  0.00     0.056 A 
HETATM    2  C   UNL     1       6.339   9.358  91.260  1.00  0.00     0.005 A 
HETATM    3  C   UNL     1       5.417   7.638  89.836  1.00  0.00     0.005 A 
HETATM    4  C   UNL     1       7.487   7.247  91.017  1.00  0.00     0.042 A 
HETATM    5  C   UNL     1       7.412   8.524  91.573  1.00  0.00     0.008 A 
HETATM    6  C   UNL     1       6.490   6.804  90.148  1.00  0.00     0.008 A 
ENDROOT
BRANCH   1   7
HETATM    7  C   UNL     1       4.221   9.785  90.067  1.00  0.00     0.254 C 
HETATM    8  O   UNL     1       3.494   9.497  89.120  1.00  0.00    -0.268 OA
HETATM    9  N   UNL     1       4.048  10.887  90.892  1.00  0.00    -0.337 N 
HETATM   10  HN  UNL     1       4.675  11.047  91.672  1.00  0.00     0.164 HD
BRANCH   9  11
HETATM   11  C   UNL     1       2.970  11.827  90.715  1.00  0.00     0.172 C 
BRANCH  11  12
HETATM   12  C   UNL     1       2.141  12.027  91.990  1.00  0.00     0.136 C 
HETATM   13  C   UNL     1       2.421  10.960  93.042  1.00  0.00     0.034 C 
BRANCH  12  14
HETATM   14  O   UNL     1       2.424  13.311  92.546  1.00  0.00    -0.383 OA
HETATM   15  H   UNL     1       2.441  13.227  93.514  1.00  0.00     0.210 HD
ENDBRANCH  12  14
ENDBRANCH  11  12
BRANCH  11  16
HETATM   16  C   UNL     1       3.574  13.142  90.233  1.00  0.00     0.398 A 
HETATM   17  O   UNL     1       2.892  14.097  89.867  1.00  0.00    -0.136 OA
HETATM   18  N   UNL     1       4.051  13.876  88.908  1.00  0.00     0.142 N 
HETATM   19  HN  UNL     1       3.659  14.666  88.479  1.00  0.00     0.338 HD
BRANCH  18  20
HETATM   20  S   UNL     1       4.964  12.926  88.464  1.00  0.00     0.076 SA
HETATM   21  H   UNL     1       4.518  11.995  87.876  1.00  0.00     0.136 HD
ENDBRANCH  18  20
ENDBRANCH  11  16
ENDBRANCH   9  11
ENDBRANCH   1   7
BRANCH   4  22
HETATM   22  C   UNL     1       8.589   6.393  91.335  1.00  0.00    -0.059 C 
HETATM   23  C   UNL     1       9.515   5.674  91.603  1.00  0.00    -0.059 C 
BRANCH  23  24
HETATM   24  C   UNL     1      10.617   4.819  91.922  1.00  0.00     0.042 A 
HETATM   25  C   UNL     1      10.890   4.502  93.252  1.00  0.00     0.008 A 
HETATM   26  C   UNL     1      11.965   3.670  93.563  1.00  0.00    -0.002 A 
HETATM   27  C   UNL     1      12.766   3.154  92.543  1.00  0.00     0.011 A 
HETATM   28  C   UNL     1      12.491   3.473  91.213  1.00  0.00    -0.002 A 
HETATM   29  C   UNL     1      11.416   4.305  90.902  1.00  0.00     0.008 A 
BRANCH  27  30
HETATM   30  C   UNL     1      13.914   2.263  92.876  1.00  0.00     0.277 C 
BRANCH  30  31
HETATM   31  N   UNL     1      14.971   2.965  93.601  1.00  0.00     0.147 N 
HETATM   32  C   UNL     1      16.274   2.328  93.366  1.00  0.00     0.283 C 
HETATM   33  C   UNL     1      17.363   3.084  94.124  1.00  0.00     0.178 C 
HETATM   34  O   UNL     1      17.395   4.452  93.714  1.00  0.00    -0.350 OA
HETATM   35  C   UNL     1      16.142   5.087  93.968  1.00  0.00     0.178 C 
HETATM   36  C   UNL     1      15.024   4.380  93.208  1.00  0.00     0.283 C 
ENDBRANCH  30  31
ENDBRANCH  27  30
ENDBRANCH  23  24
ENDBRANCH   4  22
TORSDOF 10
ENDMDL
MODEL 4
REMARK VINA RESULT:      -5.4      3.621     12.420
REMARK  10 active torsions:
REMARK  status: ('A' for Active; 'I' for Inactive)
REMARK    1  A    between atoms: O_2  and  C_16 
REMARK    2  A    between atoms: N_5  and  C_9 
REMARK    3  A    between atoms: N_6  and  C_13 
REMARK       I    between atoms: N_6  and  C_22 
REMARK    4  A    between atoms: C_9  and  C_12 
REMARK    5  A    between atoms: C_13  and  C_16 
REMARK    6  A    between atoms: C_13  and  C_21 
REMARK    7  A    between atoms: C_19  and  C_24 
REMARK    8  A    between atoms: C_22  and  C_23 
REMARK    9  A    between atoms: C_27  and  C_30 
REMARK   10  A    between atoms: N_33  and  S_34 
ROOT
HETATM    1  C   UNL     1      10.225   5.750  89.955  1.00  0.00     0.056 A 
HETATM    2  C   UNL     1      10.152   6.568  88.847  1.00  0.00     0.005 A 
HETATM    3  C   UNL     1       9.405   5.920  91.051  1.00  0.00     0.005 A 
HETATM    4  C   UNL     1       8.377   7.798  89.930  1.00  0.00     0.042 A 
HETATM    5  C   UNL     1       9.218   7.604  88.834  1.00  0.00     0.008 A 
HETATM    6  C   UNL     1       8.470   6.956  91.039  1.00  0.00     0.008 A 
ENDROOT
BRANCH   1   7
HETATM    7  C   UNL     1      11.218   4.646  89.968  1.00  0.00     0.254 C 
HETATM    8  O   UNL     1      11.394   3.985  88.947  1.00  0.00    -0.268 OA
HETATM    9  N   UNL     1      11.905   4.460  91.160  1.00  0.00    -0.337 N 
HETATM   10  HN  UNL     1      11.725   5.061  91.955  1.00  0.00     0.164 HD
BRANCH   9  11
HETATM   11  C   UNL     1      12.917   3.446  91.322  1.00  0.00     0.172 C 
BRANCH  11  12
HETATM   12  C   UNL     1      14.338   3.991  91.134  1.00  0.00     0.136 C 
HETATM   13  C   UNL     1      15.257   2.996  90.432  1.00  0.00     0.034 C 
BRANCH  12  14
HETATM   14  O   UNL     1      14.291   5.196  90.370  1.00  0.00    -0.383 OA
HETATM   15  H   UNL     1      13.555   5.127  89.738  1.00  0.00     0.210 HD
ENDBRANCH  12  14
ENDBRANCH  11  12
BRANCH  11  16
HETATM   16  C   UNL     1      12.739   2.827  92.704  1.00  0.00     0.398 A 
HETATM   17  O   UNL     1      12.173   3.407  93.630  1.00  0.00    -0.136 OA
HETATM   18  N   UNL     1      13.446   2.737  94.124  1.00  0.00     0.142 N 
HETATM   19  HN  UNL     1      13.136   3.106  94.979  1.00  0.00     0.338 HD
BRANCH  18  20
HETATM   20  S   UNL     1      14.676   2.241  93.709  1.00  0.00     0.076 SA
HETATM   21  H   UNL     1      14.670   1.539  92.750  1.00  0.00     0.136 HD
ENDBRANCH  18  20
ENDBRANCH  11  16
ENDBRANCH   9  11
ENDBRANCH   1   7
BRANCH   4  22
HETATM   22  C   UNL     1       7.422   8.861  89.918  1.00  0.00    -0.059 C 
HETATM   23  C   UNL     1       6.618   9.755  89.908  1.00  0.00    -0.059 C 
BRANCH  23  24
HETATM   24  C   UNL     1       5.661  10.819  89.896  1.00  0.00     0.042 A 
HETATM   25  C   UNL     1       5.967  12.023  89.263  1.00  0.00     0.008 A 
HETATM   26  C   UNL     1       5.036  13.061  89.254  1.00  0.00    -0.002 A 
HETATM   27  C   UNL     1       3.798  12.893  89.875  1.00  0.00     0.011 A 
HETATM   28  C   UNL     1       3.493  11.687  90.507  1.00  0.00    -0.002 A 
HETATM   29  C   UNL     1       4.425  10.650  90.517  1.00  0.00     0.008 A 
BRANCH  27  30
HETATM   30  C   UNL     1       2.802  14.002  89.862  1.00  0.00     0.277 C 
BRANCH  30  31
HETATM   31  N   UNL     1       2.689  14.665  91.160  1.00  0.00     0.147 N 
HETATM   32  C   UNL     1       1.726  13.964  92.021  1.00  0.00     0.283 C 
HETATM   33  C   UNL     1       1.634  14.667  93.373  1.00  0.00     0.178 C 
HETATM   34  O   UNL     1       2.919  14.715  93.997  1.00  0.00    -0.350 OA
HETATM   35  C   UNL     1       3.853  15.421  93.181  1.00  0.00     0.178 C 
HETATM   36  C   UNL     1       3.998  14.738  91.825  1.00  0.00     0.283 C 
ENDBRANCH  30  31
ENDBRANCH  27  30
ENDBRANCH  23  24
ENDBRANCH   4  22
TORSDOF 10
ENDMDL
MODEL 5
REMARK VINA RESULT:      -5.2      3.571     12.531
REMARK  10 active torsions:
REMARK  status: ('A' for Active; 'I' for Inactive)
REMARK    1  A    between atoms: O_2  and  C_16 
REMARK    2  A    between atoms: N_5  and  C_9 
REMARK    3  A    between atoms: N_6  and  C_13 
REMARK       I    between atoms: N_6  and  C_22 
REMARK    4  A    between atoms: C_9  and  C_12 
REMARK    5  A    between atoms: C_13  and  C_16 
REMARK    6  A    between atoms: C_13  and  C_21 
REMARK    7  A    between atoms: C_19  and  C_24 
REMARK    8  A    between atoms: C_22  and  C_23 
REMARK    9  A    between atoms: C_27  and  C_30 
REMARK   10  A    between atoms: N_33  and  S_34 
ROOT
HETATM    1  C   UNL     1       9.931   5.204  90.662  1.00  0.00     0.056 A 
HETATM    2  C   UNL     1      10.104   6.135  89.659  1.00  0.00     0.005 A 
HETATM    3  C   UNL     1       8.895   5.284  91.570  1.00  0.00     0.005 A 
HETATM    4  C   UNL     1       8.146   7.297  90.464  1.00  0.00     0.042 A 
HETATM    5  C   UNL     1       9.202   7.194  89.559  1.00  0.00     0.008 A 
HETATM    6  C   UNL     1       7.992   6.343  91.470  1.00  0.00     0.008 A 
ENDROOT
BRANCH   1   7
HETATM    7  C   UNL     1      10.891   4.075  90.768  1.00  0.00     0.254 C 
HETATM    8  O   UNL     1      10.722   3.077  90.072  1.00  0.00    -0.268 OA
HETATM    9  N   UNL     1      11.945   4.254  91.653  1.00  0.00    -0.337 N 
HETATM   10  HN  UNL     1      12.034   5.117  92.177  1.00  0.00     0.164 HD
BRANCH   9  11
HETATM   11  C   UNL     1      12.970   3.261  91.849  1.00  0.00     0.172 C 
BRANCH  11  12
HETATM   12  C   UNL     1      14.049   3.299  90.758  1.00  0.00     0.136 C 
HETATM   13  C   UNL     1      14.450   4.721  90.383  1.00  0.00     0.034 C 
BRANCH  12  14
HETATM   14  O   UNL     1      15.206   2.594  91.207  1.00  0.00    -0.383 OA
HETATM   15  H   UNL     1      15.411   2.889  92.110  1.00  0.00     0.210 HD
ENDBRANCH  12  14
ENDBRANCH  11  12
BRANCH  11  16
HETATM   16  C   UNL     1      13.573   3.480  93.232  1.00  0.00     0.398 A 
HETATM   17  O   UNL     1      14.391   4.366  93.474  1.00  0.00    -0.136 OA
HETATM   18  N   UNL     1      14.819   3.060  94.123  1.00  0.00     0.142 N 
HETATM   19  HN  UNL     1      15.554   3.627  94.443  1.00  0.00     0.338 HD
BRANCH  18  20
HETATM   20  S   UNL     1      14.661   1.680  94.060  1.00  0.00     0.076 SA
HETATM   21  H   UNL     1      13.970   1.264  93.188  1.00  0.00     0.136 HD
ENDBRANCH  18  20
ENDBRANCH  11  16
ENDBRANCH   9  11
ENDBRANCH   1   7
BRANCH   4  22
HETATM   22  C   UNL     1       7.223   8.384  90.363  1.00  0.00    -0.059 C 
HETATM   23  C   UNL     1       6.446   9.298  90.278  1.00  0.00    -0.059 C 
BRANCH  23  24
HETATM   24  C   UNL     1       5.522  10.386  90.177  1.00  0.00     0.042 A 
HETATM   25  C   UNL     1       4.273  10.297  90.791  1.00  0.00     0.008 A 
HETATM   26  C   UNL     1       3.371  11.356  90.691  1.00  0.00    -0.002 A 
HETATM   27  C   UNL     1       3.720  12.505  89.980  1.00  0.00     0.011 A 
HETATM   28  C   UNL     1       4.970  12.592  89.367  1.00  0.00    -0.002 A 
HETATM   29  C   UNL     1       5.871  11.532  89.466  1.00  0.00     0.008 A 
BRANCH  27  30
HETATM   30  C   UNL     1       2.756  13.637  89.876  1.00  0.00     0.277 C 
BRANCH  30  31
HETATM   31  N   UNL     1       2.773  14.493  91.061  1.00  0.00     0.147 N 
HETATM   32  C   UNL     1       1.832  13.997  92.074  1.00  0.00     0.283 C 
HETATM   33  C   UNL     1       1.874  14.899  93.305  1.00  0.00     0.178 C 
HETATM   34  O   UNL     1       3.199  14.951  93.838  1.00  0.00    -0.350 OA
HETATM   35  C   UNL     1       4.115  15.462  92.868  1.00  0.00     0.178 C 
HETATM   36  C   UNL     1       4.126  14.575  91.628  1.00  0.00     0.283 C 
ENDBRANCH  30  31
ENDBRANCH  27  30
ENDBRANCH  23  24
ENDBRANCH   4  22
TORSDOF 10
ENDMDL
MODEL 6
REMARK VINA RESULT:      -5.2      3.643     12.619
REMARK  10 active torsions:
REMARK  status: ('A' for Active; 'I' for Inactive)
REMARK    1  A    between atoms: O_2  and  C_16 
REMARK    2  A    between atoms: N_5  and  C_9 
REMARK    3  A    between atoms: N_6  and  C_13 
REMARK       I    between atoms: N_6  and  C_22 
REMARK    4  A    between atoms: C_9  and  C_12 
REMARK    5  A    between atoms: C_13  and  C_16 
REMARK    6  A    between atoms: C_13  and  C_21 
REMARK    7  A    between atoms: C_19  and  C_24 
REMARK    8  A    between atoms: C_22  and  C_23 
REMARK    9  A    between atoms: C_27  and  C_30 
REMARK   10  A    between atoms: N_33  and  S_34 
ROOT
HETATM    1  C   UNL     1      10.345   5.064  92.229  1.00  0.00     0.056 A 
HETATM    2  C   UNL     1      10.128   5.452  90.924  1.00  0.00     0.005 A 
HETATM    3  C   UNL     1       9.695   5.658  93.291  1.00  0.00     0.005 A 
HETATM    4  C   UNL     1       8.551   7.097  91.725  1.00  0.00     0.042 A 
HETATM    5  C   UNL     1       9.221   6.480  90.667  1.00  0.00     0.008 A 
HETATM    6  C   UNL     1       8.788   6.686  93.036  1.00  0.00     0.008 A 
ENDROOT
BRANCH   1   7
HETATM    7  C   UNL     1      11.310   3.968  92.501  1.00  0.00     0.254 C 
HETATM    8  O   UNL     1      10.926   2.802  92.444  1.00  0.00    -0.268 OA
HETATM    9  N   UNL     1      12.612   4.359  92.783  1.00  0.00    -0.337 N 
HETATM   10  HN  UNL     1      12.862   5.341  92.788  1.00  0.00     0.164 HD
BRANCH   9  11
HETATM   11  C   UNL     1      13.667   3.413  93.044  1.00  0.00     0.172 C 
BRANCH  11  12
HETATM   12  C   UNL     1      14.159   2.707  91.774  1.00  0.00     0.136 C 
HETATM   13  C   UNL     1      14.248   3.650  90.579  1.00  0.00     0.034 C 
BRANCH  12  14
HETATM   14  O   UNL     1      15.445   2.137  92.013  1.00  0.00    -0.383 OA
HETATM   15  H   UNL     1      15.727   1.672  91.207  1.00  0.00     0.210 HD
ENDBRANCH  12  14
ENDBRANCH  11  12
BRANCH  11  16
HETATM   16  C   UNL     1      14.801   4.160  93.737  1.00  0.00     0.398 A 
HETATM   17  O   UNL     1      15.320   5.173  93.271  1.00  0.00    -0.136 OA
HETATM   18  N   UNL     1      16.387   4.228  93.798  1.00  0.00     0.142 N 
HETATM   19  HN  UNL     1      16.974   4.959  93.507  1.00  0.00     0.338 HD
BRANCH  18  20
HETATM   20  S   UNL     1      16.637   2.899  94.122  1.00  0.00     0.076 SA
HETATM   21  H   UNL     1      15.751   2.131  93.932  1.00  0.00     0.136 HD
ENDBRANCH  18  20
ENDBRANCH  11  16
ENDBRANCH   9  11
ENDBRANCH   1   7
BRANCH   4  22
HETATM   22  C   UNL     1       7.623   8.152  91.463  1.00  0.00    -0.059 C 
HETATM   23  C   UNL     1       6.842   9.040  91.242  1.00  0.00    -0.059 C 
BRANCH  23  24
HETATM   24  C   UNL     1       5.913  10.096  90.981  1.00  0.00     0.042 A 
HETATM   25  C   UNL     1       4.709  10.153  91.682  1.00  0.00     0.008 A 
HETATM   26  C   UNL     1       3.802  11.182  91.426  1.00  0.00    -0.002 A 
HETATM   27  C   UNL     1       4.101  12.153  90.470  1.00  0.00     0.011 A 
HETATM   28  C   UNL     1       5.306  12.094  89.770  1.00  0.00    -0.002 A 
HETATM   29  C   UNL     1       6.212  11.065  90.026  1.00  0.00     0.008 A 
BRANCH  27  30
HETATM   30  C   UNL     1       3.132  13.253  90.199  1.00  0.00     0.277 C 
BRANCH  30  31
HETATM   31  N   UNL     1       3.047  14.205  91.305  1.00  0.00     0.147 N 
HETATM   32  C   UNL     1       1.905  13.890  92.175  1.00  0.00     0.283 C 
HETATM   33  C   UNL     1       1.842  14.889  93.328  1.00  0.00     0.178 C 
HETATM   34  O   UNL     1       3.061  14.865  94.074  1.00  0.00    -0.350 OA
HETATM   35  C   UNL     1       4.171  15.200  93.242  1.00  0.00     0.178 C 
HETATM   36  C   UNL     1       4.290  14.210  92.088  1.00  0.00     0.283 C 
ENDBRANCH  30  31
ENDBRANCH  27  30
ENDBRANCH  23  24
ENDBRANCH   4  22
TORSDOF 10
ENDMDL
MODEL 7
REMARK VINA RESULT:      -5.0      3.780     12.641
REMARK  10 active torsions:
REMARK  status: ('A' for Active; 'I' for Inactive)
REMARK    1  A    between atoms: O_2  and  C_16 
REMARK    2  A    between atoms: N_5  and  C_9 
REMARK    3  A    between atoms: N_6  and  C_13 
REMARK       I    between atoms: N_6  and  C_22 
REMARK    4  A    between atoms: C_9  and  C_12 
REMARK    5  A    between atoms: C_13  and  C_16 
REMARK    6  A    between atoms: C_13  and  C_21 
REMARK    7  A    between atoms: C_19  and  C_24 
REMARK    8  A    between atoms: C_22  and  C_23 
REMARK    9  A    between atoms: C_27  and  C_30 
REMARK   10  A    between atoms: N_33  and  S_34 
ROOT
HETATM    1  C   UNL     1      10.596   4.872  92.807  1.00  0.00     0.056 A 
HETATM    2  C   UNL     1      10.346   5.559  93.977  1.00  0.00     0.005 A 
HETATM    3  C   UNL     1       9.897   5.119  91.645  1.00  0.00     0.005 A 
HETATM    4  C   UNL     1       8.628   6.804  92.822  1.00  0.00     0.042 A 
HETATM    5  C   UNL     1       9.350   6.536  93.985  1.00  0.00     0.008 A 
HETATM    6  C   UNL     1       8.901   6.096  91.652  1.00  0.00     0.008 A 
ENDROOT
BRANCH   1   7
HETATM    7  C   UNL     1      11.658   3.833  92.799  1.00  0.00     0.254 C 
HETATM    8  O   UNL     1      11.368   2.682  92.482  1.00  0.00    -0.268 OA
HETATM    9  N   UNL     1      12.934   4.264  93.136  1.00  0.00    -0.337 N 
HETATM   10  HN  UNL     1      13.103   5.237  93.362  1.00  0.00     0.164 HD
BRANCH   9  11
HETATM   11  C   UNL     1      14.072   3.381  93.149  1.00  0.00     0.172 C 
BRANCH  11  12
HETATM   12  C   UNL     1      14.395   2.807  91.764  1.00  0.00     0.136 C 
HETATM   13  C   UNL     1      14.206   3.830  90.649  1.00  0.00     0.034 C 
BRANCH  12  14
HETATM   14  O   UNL     1      15.744   2.342  91.742  1.00  0.00    -0.383 OA
HETATM   15  H   UNL     1      15.905   1.836  92.556  1.00  0.00     0.210 HD
ENDBRANCH  12  14
ENDBRANCH  11  12
BRANCH  11  16
HETATM   16  C   UNL     1      15.256   4.157  93.717  1.00  0.00     0.398 A 
HETATM   17  O   UNL     1      15.772   5.111  93.137  1.00  0.00    -0.136 OA
HETATM   18  N   UNL     1      16.845   4.189  93.695  1.00  0.00     0.142 N 
HETATM   19  HN  UNL     1      17.431   4.875  93.311  1.00  0.00     0.338 HD
BRANCH  18  20
HETATM   20  S   UNL     1      17.082   2.888  94.124  1.00  0.00     0.076 SA
HETATM   21  H   UNL     1      16.125   2.222  94.356  1.00  0.00     0.136 HD
ENDBRANCH  18  20
ENDBRANCH  11  16
ENDBRANCH   9  11
ENDBRANCH   1   7
BRANCH   4  22
HETATM   22  C   UNL     1       7.606   7.803  92.831  1.00  0.00    -0.059 C 
HETATM   23  C   UNL     1       6.746   8.644  92.839  1.00  0.00    -0.059 C 
BRANCH  23  24
HETATM   24  C   UNL     1       5.724   9.645  92.848  1.00  0.00     0.042 A 
HETATM   25  C   UNL     1       4.796   9.701  91.809  1.00  0.00     0.008 A 
HETATM   26  C   UNL     1       3.800  10.678  91.817  1.00  0.00    -0.002 A 
HETATM   27  C   UNL     1       3.732  11.596  92.865  1.00  0.00     0.011 A 
HETATM   28  C   UNL     1       4.661  11.538  93.904  1.00  0.00    -0.002 A 
HETATM   29  C   UNL     1       5.657  10.561  93.896  1.00  0.00     0.008 A 
BRANCH  27  30
HETATM   30  C   UNL     1       2.666  12.639  92.874  1.00  0.00     0.277 C 
BRANCH  30  31
HETATM   31  N   UNL     1       2.994  13.777  92.018  1.00  0.00     0.147 N 
HETATM   32  C   UNL     1       4.245  14.413  92.455  1.00  0.00     0.283 C 
HETATM   33  C   UNL     1       4.572  15.592  91.541  1.00  0.00     0.178 C 
HETATM   34  O   UNL     1       4.682  15.154  90.185  1.00  0.00    -0.350 OA
HETATM   35  C   UNL     1       3.460  14.562  89.743  1.00  0.00     0.178 C 
HETATM   36  C   UNL     1       3.105  13.361  90.613  1.00  0.00     0.283 C 
ENDBRANCH  30  31
ENDBRANCH  27  30
ENDBRANCH  23  24
ENDBRANCH   4  22
TORSDOF 10
ENDMDL
MODEL 8
REMARK VINA RESULT:      -4.8      1.299      1.637
REMARK  10 active torsions:
REMARK  status: ('A' for Active; 'I' for Inactive)
REMARK    1  A    between atoms: O_2  and  C_16 
REMARK    2  A    between atoms: N_5  and  C_9 
REMARK    3  A    between atoms: N_6  and  C_13 
REMARK       I    between atoms: N_6  and  C_22 
REMARK    4  A    between atoms: C_9  and  C_12 
REMARK    5  A    between atoms: C_13  and  C_16 
REMARK    6  A    between atoms: C_13  and  C_21 
REMARK    7  A    between atoms: C_19  and  C_24 
REMARK    8  A    between atoms: C_22  and  C_23 
REMARK    9  A    between atoms: C_27  and  C_30 
REMARK   10  A    between atoms: N_33  and  S_34 
ROOT
HETATM    1  C   UNL     1       4.913   9.964  90.082  1.00  0.00     0.056 A 
HETATM    2  C   UNL     1       6.090  10.052  89.370  1.00  0.00     0.005 A 
HETATM    3  C   UNL     1       4.686   8.967  91.008  1.00  0.00     0.005 A 
HETATM    4  C   UNL     1       6.881   8.083  90.523  1.00  0.00     0.042 A 
HETATM    5  C   UNL     1       7.086   9.101  89.592  1.00  0.00     0.008 A 
HETATM    6  C   UNL     1       5.682   8.016  91.231  1.00  0.00     0.008 A 
ENDROOT
BRANCH   1   7
HETATM    7  C   UNL     1       3.853  10.978  89.847  1.00  0.00     0.254 C 
HETATM    8  O   UNL     1       2.981  10.751  89.012  1.00  0.00    -0.268 OA
HETATM    9  N   UNL     1       3.923  12.123  90.628  1.00  0.00    -0.337 N 
HETATM   10  HN  UNL     1       4.659  12.230  91.316  1.00  0.00     0.164 HD
BRANCH   9  11
HETATM   11  C   UNL     1       2.955  13.186  90.535  1.00  0.00     0.172 C 
BRANCH  11  12
HETATM   12  C   UNL     1       2.538  13.732  91.906  1.00  0.00     0.136 C 
HETATM   13  C   UNL     1       1.196  13.178  92.372  1.00  0.00     0.034 C 
BRANCH  12  14
HETATM   14  O   UNL     1       3.536  13.406  92.873  1.00  0.00    -0.383 OA
HETATM   15  H   UNL     1       3.864  12.511  92.682  1.00  0.00     0.210 HD
ENDBRANCH  12  14
ENDBRANCH  11  12
BRANCH  11  16
HETATM   16  C   UNL     1       3.551  14.283  89.659  1.00  0.00     0.398 A 
HETATM   17  O   UNL     1       4.172  14.050  88.623  1.00  0.00    -0.136 OA
HETATM   18  N   UNL     1       4.892  15.108  89.444  1.00  0.00     0.142 N 
HETATM   19  HN  UNL     1       5.502  15.082  88.676  1.00  0.00     0.338 HD
BRANCH  18  20
HETATM   20  S   UNL     1       5.026  15.619  90.730  1.00  0.00     0.076 SA
HETATM   21  H   UNL     1       4.390  15.088  91.582  1.00  0.00     0.136 HD
ENDBRANCH  18  20
ENDBRANCH  11  16
ENDBRANCH   9  11
ENDBRANCH   1   7
BRANCH   4  22
HETATM   22  C   UNL     1       7.901   7.107  90.749  1.00  0.00    -0.059 C 
HETATM   23  C   UNL     1       8.758   6.285  90.939  1.00  0.00    -0.059 C 
BRANCH  23  24
HETATM   24  C   UNL     1       9.778   5.307  91.164  1.00  0.00     0.042 A 
HETATM   25  C   UNL     1      10.512   4.807  90.089  1.00  0.00     0.008 A 
HETATM   26  C   UNL     1      11.505   3.852  90.308  1.00  0.00    -0.002 A 
HETATM   27  C   UNL     1      11.764   3.400  91.603  1.00  0.00     0.011 A 
HETATM   28  C   UNL     1      11.029   3.902  92.677  1.00  0.00    -0.002 A 
HETATM   29  C   UNL     1      10.036   4.856  92.457  1.00  0.00     0.008 A 
BRANCH  27  30
HETATM   30  C   UNL     1      12.828   2.381  91.836  1.00  0.00     0.277 C 
BRANCH  30  31
HETATM   31  N   UNL     1      13.818   2.824  92.816  1.00  0.00     0.147 N 
HETATM   32  C   UNL     1      14.777   1.750  93.108  1.00  0.00     0.283 C 
HETATM   33  C   UNL     1      15.806   2.238  94.124  1.00  0.00     0.178 C 
HETATM   34  O   UNL     1      16.486   3.393  93.628  1.00  0.00    -0.350 OA
HETATM   35  C   UNL     1      15.563   4.452  93.371  1.00  0.00     0.178 C 
HETATM   36  C   UNL     1      14.529   4.018  92.338  1.00  0.00     0.283 C 
ENDBRANCH  30  31
ENDBRANCH  27  30
ENDBRANCH  23  24
ENDBRANCH   4  22
TORSDOF 10
ENDMDL
