MODEL 1
REMARK VINA RESULT:      -6.1      0.000      0.000
REMARK  12 active torsions:
REMARK  status: ('A' for Active; 'I' for Inactive)
REMARK    1  A    between atoms: O_2  and  C_16 
REMARK    2  A    between atoms: N_5  and  C_9 
REMARK    3  A    between atoms: N_6  and  C_13 
REMARK       I    between atoms: N_6  and  C_22 
REMARK    4  A    between atoms: C_9  and  C_12 
REMARK    5  A    between atoms: C_13  and  C_16 
REMARK    6  A    between atoms: C_13  and  C_21 
REMARK    7  A    between atoms: C_19  and  C_24 
REMARK    8  A    between atoms: C_21  and  C_33 
REMARK    9  A    between atoms: C_22  and  C_23 
REMARK   10  A    between atoms: C_27  and  C_30 
REMARK   11  A    between atoms: C_33  and  C_34 
REMARK   12  A    between atoms: C_34  and  C_35 
ROOT
HETATM    1  O   UNL     1      16.656   3.560  93.788  1.00  0.00    -0.350 OA
HETATM    2  N   UNL     1      14.077   3.095  92.675  1.00  0.00     0.147 N 
HETATM    3  C   UNL     1      14.995   1.988  92.974  1.00  0.00     0.283 C 
HETATM    4  C   UNL     1      14.841   4.312  92.365  1.00  0.00     0.283 C 
HETATM    5  C   UNL     1      15.922   2.380  94.122  1.00  0.00     0.178 C 
HETATM    6  C   UNL     1      15.771   4.650  93.526  1.00  0.00     0.178 C 
ENDROOT
BRANCH   2   7
HETATM    7  C   UNL     1      13.186   2.745  91.570  1.00  0.00     0.277 C 
BRANCH   7   8
HETATM    8  C   UNL     1      12.014   3.661  91.473  1.00  0.00     0.011 A 
HETATM    9  C   UNL     1      11.766   4.351  90.286  1.00  0.00    -0.002 A 
HETATM   10  C   UNL     1      10.671   5.210  90.195  1.00  0.00     0.008 A 
HETATM   11  C   UNL     1       9.824   5.377  91.291  1.00  0.00     0.042 A 
HETATM   12  C   UNL     1      10.071   4.688  92.476  1.00  0.00     0.008 A 
HETATM   13  C   UNL     1      11.166   3.829  92.568  1.00  0.00    -0.002 A 
BRANCH  11  14
HETATM   14  C   UNL     1       8.699   6.256  91.196  1.00  0.00    -0.059 C 
HETATM   15  C   UNL     1       7.754   6.995  91.118  1.00  0.00    -0.059 C 
BRANCH  15  16
HETATM   16  C   UNL     1       6.630   7.874  91.025  1.00  0.00     0.042 A 
HETATM   17  C   UNL     1       6.425   8.848  92.002  1.00  0.00     0.008 A 
HETATM   18  C   UNL     1       5.330   9.708  91.909  1.00  0.00     0.005 A 
HETATM   19  C   UNL     1       4.466   9.574  90.843  1.00  0.00     0.056 A 
HETATM   20  C   UNL     1       4.646   8.619  89.864  1.00  0.00     0.005 A 
HETATM   21  C   UNL     1       5.741   7.759  89.956  1.00  0.00     0.008 A 
BRANCH  19  22
HETATM   22  C   UNL     1       3.299  10.488  90.745  1.00  0.00     0.254 C 
HETATM   23  O   UNL     1       2.330  10.154  90.067  1.00  0.00    -0.268 OA
HETATM   24  N   UNL     1       3.389  11.669  91.469  1.00  0.00    -0.335 N 
HETATM   25  HN  UNL     1       4.211  11.866  92.028  1.00  0.00     0.164 HD
BRANCH  24  26
HETATM   26  C   UNL     1       2.330  12.645  91.496  1.00  0.00     0.166 C 
BRANCH  26  27
HETATM   27  C   UNL     1       1.719  12.821  92.892  1.00  0.00     0.138 C 
HETATM   28  C   UNL     1       1.471  11.489  93.592  1.00  0.00     0.034 C 
BRANCH  27  29
HETATM   29  O   UNL     1       2.591  13.613  93.699  1.00  0.00    -0.383 OA
HETATM   30  H   UNL     1       3.245  13.023  94.110  1.00  0.00     0.210 HD
ENDBRANCH  27  29
ENDBRANCH  26  27
BRANCH  26  31
HETATM   31  C   UNL     1       2.896  13.960  90.969  1.00  0.00     0.181 C 
HETATM   32  O   UNL     1       2.635  15.051  91.474  1.00  0.00    -0.294 OA
BRANCH  31  33
HETATM   33  C   UNL     1       4.509  13.905  90.819  1.00  0.00     0.138 C 
BRANCH  33  34
HETATM   34  C   UNL     1       4.671  14.289  89.470  1.00  0.00     0.208 C 
HETATM   35  O   UNL     1       5.170  15.375  89.282  1.00  0.00    -0.289 OA
BRANCH  34  36
HETATM   36  C   UNL     1       4.630  13.544  88.324  1.00  0.00     0.194 C 
HETATM   37  O   UNL     1       5.237  13.761  87.081  1.00  0.00    -0.185 OA
ENDBRANCH  34  36
ENDBRANCH  33  34
ENDBRANCH  31  33
ENDBRANCH  26  31
ENDBRANCH  24  26
ENDBRANCH  19  22
ENDBRANCH  15  16
ENDBRANCH  11  14
ENDBRANCH   7   8
ENDBRANCH   2   7
TORSDOF 12
ENDMDL
MODEL 2
REMARK VINA RESULT:      -5.9      1.405      2.007
REMARK  12 active torsions:
REMARK  status: ('A' for Active; 'I' for Inactive)
REMARK    1  A    between atoms: O_2  and  C_16 
REMARK    2  A    between atoms: N_5  and  C_9 
REMARK    3  A    between atoms: N_6  and  C_13 
REMARK       I    between atoms: N_6  and  C_22 
REMARK    4  A    between atoms: C_9  and  C_12 
REMARK    5  A    between atoms: C_13  and  C_16 
REMARK    6  A    between atoms: C_13  and  C_21 
REMARK    7  A    between atoms: C_19  and  C_24 
REMARK    8  A    between atoms: C_21  and  C_33 
REMARK    9  A    between atoms: C_22  and  C_23 
REMARK   10  A    between atoms: C_27  and  C_30 
REMARK   11  A    between atoms: C_33  and  C_34 
REMARK   12  A    between atoms: C_34  and  C_35 
ROOT
HETATM    1  O   UNL     1      16.486   4.355  93.987  1.00  0.00    -0.350 OA
HETATM    2  N   UNL     1      14.658   2.682  92.586  1.00  0.00     0.147 N 
HETATM    3  C   UNL     1      14.623   4.145  92.445  1.00  0.00     0.283 C 
HETATM    4  C   UNL     1      15.174   2.316  93.912  1.00  0.00     0.283 C 
HETATM    5  C   UNL     1      16.016   4.720  92.688  1.00  0.00     0.178 C 
HETATM    6  C   UNL     1      16.552   2.935  94.121  1.00  0.00     0.178 C 
ENDROOT
BRANCH   2   7
HETATM    7  C   UNL     1      13.331   2.110  92.367  1.00  0.00     0.277 C 
BRANCH   7   8
HETATM    8  C   UNL     1      12.266   3.151  92.310  1.00  0.00     0.011 A 
HETATM    9  C   UNL     1      11.953   3.890  93.452  1.00  0.00    -0.002 A 
HETATM   10  C   UNL     1      10.955   4.863  93.400  1.00  0.00     0.008 A 
HETATM   11  C   UNL     1      10.272   5.097  92.207  1.00  0.00     0.042 A 
HETATM   12  C   UNL     1      10.583   4.359  91.067  1.00  0.00     0.008 A 
HETATM   13  C   UNL     1      11.581   3.386  91.118  1.00  0.00    -0.002 A 
BRANCH  11  14
HETATM   14  C   UNL     1       9.249   6.097  92.154  1.00  0.00    -0.059 C 
HETATM   15  C   UNL     1       8.390   6.937  92.110  1.00  0.00    -0.059 C 
BRANCH  15  16
HETATM   16  C   UNL     1       7.369   7.936  92.057  1.00  0.00     0.042 A 
HETATM   17  C   UNL     1       7.718   9.286  92.013  1.00  0.00     0.008 A 
HETATM   18  C   UNL     1       6.722  10.261  91.958  1.00  0.00     0.005 A 
HETATM   19  C   UNL     1       5.401   9.865  91.948  1.00  0.00     0.056 A 
HETATM   20  C   UNL     1       5.030   8.537  91.992  1.00  0.00     0.005 A 
HETATM   21  C   UNL     1       6.026   7.561  92.046  1.00  0.00     0.008 A 
BRANCH  19  22
HETATM   22  C   UNL     1       4.340  10.903  91.892  1.00  0.00     0.254 C 
HETATM   23  O   UNL     1       3.188  10.602  92.197  1.00  0.00    -0.268 OA
HETATM   24  N   UNL     1       4.752  12.173  91.513  1.00  0.00    -0.335 N 
HETATM   25  HN  UNL     1       5.726  12.354  91.300  1.00  0.00     0.164 HD
BRANCH  24  26
HETATM   26  C   UNL     1       3.846  13.291  91.435  1.00  0.00     0.166 C 
BRANCH  26  27
HETATM   27  C   UNL     1       3.741  14.063  92.757  1.00  0.00     0.138 C 
HETATM   28  C   UNL     1       2.437  14.845  92.874  1.00  0.00     0.034 C 
BRANCH  27  29
HETATM   29  O   UNL     1       3.835  13.152  93.851  1.00  0.00    -0.383 OA
HETATM   30  H   UNL     1       2.941  13.000  94.199  1.00  0.00     0.210 HD
ENDBRANCH  27  29
ENDBRANCH  26  27
BRANCH  26  31
HETATM   31  C   UNL     1       4.319  14.195  90.301  1.00  0.00     0.181 C 
HETATM   32  O   UNL     1       4.693  15.353  90.479  1.00  0.00    -0.294 OA
BRANCH  31  33
HETATM   33  C   UNL     1       5.464  13.484  89.401  1.00  0.00     0.138 C 
BRANCH  33  34
HETATM   34  C   UNL     1       4.716  13.091  88.268  1.00  0.00     0.208 C 
HETATM   35  O   UNL     1       5.025  13.611  87.221  1.00  0.00    -0.289 OA
BRANCH  34  36
HETATM   36  C   UNL     1       3.890  12.017  88.079  1.00  0.00     0.194 C 
HETATM   37  O   UNL     1       4.195  10.680  87.799  1.00  0.00    -0.185 OA
ENDBRANCH  34  36
ENDBRANCH  33  34
ENDBRANCH  31  33
ENDBRANCH  26  31
ENDBRANCH  24  26
ENDBRANCH  19  22
ENDBRANCH  15  16
ENDBRANCH  11  14
ENDBRANCH   7   8
ENDBRANCH   2   7
TORSDOF 12
ENDMDL
MODEL 3
REMARK VINA RESULT:      -4.2      2.862     12.355
REMARK  12 active torsions:
REMARK  status: ('A' for Active; 'I' for Inactive)
REMARK    1  A    between atoms: O_2  and  C_16 
REMARK    2  A    between atoms: N_5  and  C_9 
REMARK    3  A    between atoms: N_6  and  C_13 
REMARK       I    between atoms: N_6  and  C_22 
REMARK    4  A    between atoms: C_9  and  C_12 
REMARK    5  A    between atoms: C_13  and  C_16 
REMARK    6  A    between atoms: C_13  and  C_21 
REMARK    7  A    between atoms: C_19  and  C_24 
REMARK    8  A    between atoms: C_21  and  C_33 
REMARK    9  A    between atoms: C_22  and  C_23 
REMARK   10  A    between atoms: C_27  and  C_30 
REMARK   11  A    between atoms: C_33  and  C_34 
REMARK   12  A    between atoms: C_34  and  C_35 
ROOT
HETATM    1  O   UNL     1       3.171  14.940  93.850  1.00  0.00    -0.350 OA
HETATM    2  N   UNL     1       2.731  14.778  91.042  1.00  0.00     0.147 N 
HETATM    3  C   UNL     1       1.837  14.111  91.999  1.00  0.00     0.283 C 
HETATM    4  C   UNL     1       4.085  14.878  91.604  1.00  0.00     0.283 C 
HETATM    5  C   UNL     1       1.844  14.867  93.326  1.00  0.00     0.178 C 
HETATM    6  C   UNL     1       4.039  15.614  92.939  1.00  0.00     0.178 C 
ENDROOT
BRANCH   2   7
HETATM    7  C   UNL     1       2.749  14.064  89.767  1.00  0.00     0.277 C 
BRANCH   7   8
HETATM    8  C   UNL     1       3.694  12.912  89.773  1.00  0.00     0.011 A 
HETATM    9  C   UNL     1       3.312  11.700  90.351  1.00  0.00    -0.002 A 
HETATM   10  C   UNL     1       4.196  10.622  90.360  1.00  0.00     0.008 A 
HETATM   11  C   UNL     1       5.462  10.755  89.790  1.00  0.00     0.042 A 
HETATM   12  C   UNL     1       5.845  11.964  89.213  1.00  0.00     0.008 A 
HETATM   13  C   UNL     1       4.961  13.043  89.204  1.00  0.00    -0.002 A 
BRANCH  11  14
HETATM   14  C   UNL     1       6.368   9.648  89.797  1.00  0.00    -0.059 C 
HETATM   15  C   UNL     1       7.130   8.718  89.803  1.00  0.00    -0.059 C 
BRANCH  15  16
HETATM   16  C   UNL     1       8.036   7.612  89.809  1.00  0.00     0.042 A 
HETATM   17  C   UNL     1       7.561   6.324  90.056  1.00  0.00     0.008 A 
HETATM   18  C   UNL     1       8.446   5.245  90.060  1.00  0.00     0.005 A 
HETATM   19  C   UNL     1       9.783   5.478  89.817  1.00  0.00     0.056 A 
HETATM   20  C   UNL     1      10.277   6.742  89.571  1.00  0.00     0.005 A 
HETATM   21  C   UNL     1       9.394   7.821  89.567  1.00  0.00     0.008 A 
BRANCH  19  22
HETATM   22  C   UNL     1      10.724   4.328  89.823  1.00  0.00     0.254 C 
HETATM   23  O   UNL     1      10.542   3.399  89.041  1.00  0.00    -0.268 OA
HETATM   24  N   UNL     1      11.779   4.411  90.722  1.00  0.00    -0.335 N 
HETATM   25  HN  UNL     1      11.880   5.222  91.321  1.00  0.00     0.164 HD
BRANCH  24  26
HETATM   26  C   UNL     1      12.788   3.388  90.831  1.00  0.00     0.166 C 
BRANCH  26  27
HETATM   27  C   UNL     1      14.190   3.961  91.073  1.00  0.00     0.138 C 
HETATM   28  C   UNL     1      15.294   3.006  90.634  1.00  0.00     0.034 C 
BRANCH  27  29
HETATM   29  O   UNL     1      14.332   5.191  90.363  1.00  0.00    -0.383 OA
HETATM   30  H   UNL     1      13.446   5.509  90.123  1.00  0.00     0.210 HD
ENDBRANCH  27  29
ENDBRANCH  26  27
BRANCH  26  31
HETATM   31  C   UNL     1      12.374   2.442  91.953  1.00  0.00     0.181 C 
HETATM   32  O   UNL     1      12.868   1.327  92.105  1.00  0.00    -0.294 OA
BRANCH  31  33
HETATM   33  C   UNL     1      12.434   3.165  93.403  1.00  0.00     0.138 C 
BRANCH  33  34
HETATM   34  C   UNL     1      11.249   3.934  93.375  1.00  0.00     0.208 C 
HETATM   35  O   UNL     1      10.257   3.369  92.974  1.00  0.00    -0.289 OA
BRANCH  34  36
HETATM   36  C   UNL     1      10.947   5.121  93.984  1.00  0.00     0.194 C 
HETATM   37  O   UNL     1      10.173   6.196  93.535  1.00  0.00    -0.185 OA
ENDBRANCH  34  36
ENDBRANCH  33  34
ENDBRANCH  31  33
ENDBRANCH  26  31
ENDBRANCH  24  26
ENDBRANCH  19  22
ENDBRANCH  15  16
ENDBRANCH  11  14
ENDBRANCH   7   8
ENDBRANCH   2   7
TORSDOF 12
ENDMDL
MODEL 4
REMARK VINA RESULT:      -3.3      2.374     12.907
REMARK  12 active torsions:
REMARK  status: ('A' for Active; 'I' for Inactive)
REMARK    1  A    between atoms: O_2  and  C_16 
REMARK    2  A    between atoms: N_5  and  C_9 
REMARK    3  A    between atoms: N_6  and  C_13 
REMARK       I    between atoms: N_6  and  C_22 
REMARK    4  A    between atoms: C_9  and  C_12 
REMARK    5  A    between atoms: C_13  and  C_16 
REMARK    6  A    between atoms: C_13  and  C_21 
REMARK    7  A    between atoms: C_19  and  C_24 
REMARK    8  A    between atoms: C_21  and  C_33 
REMARK    9  A    between atoms: C_22  and  C_23 
REMARK   10  A    between atoms: C_27  and  C_30 
REMARK   11  A    between atoms: C_33  and  C_34 
REMARK   12  A    between atoms: C_34  and  C_35 
ROOT
HETATM    1  O   UNL     1       2.853  14.290  94.088  1.00  0.00    -0.350 OA
HETATM    2  N   UNL     1       2.378  14.163  91.285  1.00  0.00     0.147 N 
HETATM    3  C   UNL     1       2.105  13.016  92.163  1.00  0.00     0.283 C 
HETATM    4  C   UNL     1       3.465  14.977  91.844  1.00  0.00     0.283 C 
HETATM    5  C   UNL     1       1.774  13.510  93.569  1.00  0.00     0.178 C 
HETATM    6  C   UNL     1       3.104  15.424  93.257  1.00  0.00     0.178 C 
ENDROOT
BRANCH   2   7
HETATM    7  C   UNL     1       2.708  13.713  89.933  1.00  0.00     0.277 C 
BRANCH   7   8
HETATM    8  C   UNL     1       3.698  12.599  89.931  1.00  0.00     0.011 A 
HETATM    9  C   UNL     1       3.294  11.307  90.269  1.00  0.00    -0.002 A 
HETATM   10  C   UNL     1       4.221  10.264  90.270  1.00  0.00     0.008 A 
HETATM   11  C   UNL     1       5.550  10.514  89.931  1.00  0.00     0.042 A 
HETATM   12  C   UNL     1       5.955  11.804  89.593  1.00  0.00     0.008 A 
HETATM   13  C   UNL     1       5.029  12.847  89.593  1.00  0.00    -0.002 A 
BRANCH  11  14
HETATM   14  C   UNL     1       6.500   9.444  89.930  1.00  0.00    -0.059 C 
HETATM   15  C   UNL     1       7.299   8.545  89.929  1.00  0.00    -0.059 C 
BRANCH  15  16
HETATM   16  C   UNL     1       8.247   7.475  89.928  1.00  0.00     0.042 A 
HETATM   17  C   UNL     1       8.633   6.888  88.723  1.00  0.00     0.008 A 
HETATM   18  C   UNL     1       9.561   5.847  88.722  1.00  0.00     0.005 A 
HETATM   19  C   UNL     1      10.081   5.416  89.924  1.00  0.00     0.056 A 
HETATM   20  C   UNL     1       9.716   5.980  91.129  1.00  0.00     0.005 A 
HETATM   21  C   UNL     1       8.788   7.021  91.131  1.00  0.00     0.008 A 
BRANCH  19  22
HETATM   22  C   UNL     1      11.068   4.305  89.922  1.00  0.00     0.254 C 
HETATM   23  O   UNL     1      11.069   3.505  88.990  1.00  0.00    -0.268 OA
HETATM   24  N   UNL     1      11.950   4.273  90.994  1.00  0.00    -0.335 N 
HETATM   25  HN  UNL     1      11.906   4.983  91.716  1.00  0.00     0.164 HD
BRANCH  24  26
HETATM   26  C   UNL     1      12.979   3.273  91.122  1.00  0.00     0.166 C 
BRANCH  26  27
HETATM   27  C   UNL     1      14.389   3.844  90.927  1.00  0.00     0.138 C 
HETATM   28  C   UNL     1      15.177   3.100  89.854  1.00  0.00     0.034 C 
BRANCH  27  29
HETATM   29  O   UNL     1      14.301   5.221  90.564  1.00  0.00    -0.383 OA
HETATM   30  H   UNL     1      13.368   5.491  90.615  1.00  0.00     0.210 HD
ENDBRANCH  27  29
ENDBRANCH  26  27
BRANCH  26  31
HETATM   31  C   UNL     1      12.829   2.623  92.493  1.00  0.00     0.181 C 
HETATM   32  O   UNL     1      13.133   1.453  92.717  1.00  0.00    -0.294 OA
BRANCH  31  33
HETATM   33  C   UNL     1      13.533   3.504  93.658  1.00  0.00     0.138 C 
BRANCH  33  34
HETATM   34  C   UNL     1      14.705   2.752  93.898  1.00  0.00     0.208 C 
HETATM   35  O   UNL     1      14.555   1.558  94.019  1.00  0.00    -0.289 OA
BRANCH  34  36
HETATM   36  C   UNL     1      16.021   3.086  93.738  1.00  0.00     0.194 C 
HETATM   37  O   UNL     1      16.971   2.609  92.828  1.00  0.00    -0.185 OA
ENDBRANCH  34  36
ENDBRANCH  33  34
ENDBRANCH  31  33
ENDBRANCH  26  31
ENDBRANCH  24  26
ENDBRANCH  19  22
ENDBRANCH  15  16
ENDBRANCH  11  14
ENDBRANCH   7   8
ENDBRANCH   2   7
TORSDOF 12
ENDMDL
