MODEL 1
REMARK VINA RESULT:      -6.9      0.000      0.000
REMARK  10 active torsions:
REMARK  status: ('A' for Active; 'I' for Inactive)
REMARK    1  A    between atoms: O_2  and  C_18 
REMARK    2  A    between atoms: O_5  and  N_8 
REMARK    3  A    between atoms: N_6  and  C_11 
REMARK    4  A    between atoms: N_7  and  C_15 
REMARK       I    between atoms: N_7  and  C_24 
REMARK       I    between atoms: N_8  and  C_23 
REMARK    5  A    between atoms: C_11  and  C_14 
REMARK    6  A    between atoms: C_15  and  C_18 
REMARK    7  A    between atoms: C_15  and  C_23 
REMARK    8  A    between atoms: C_21  and  C_26 
REMARK    9  A    between atoms: C_24  and  C_25 
REMARK   10  A    between atoms: C_29  and  C_32 
ROOT
HETATM    1  O   UNK     0      16.351   4.249  94.034  0.00  0.00    -0.388 OA
HETATM    2  N   UNK     0      14.579   2.495  92.660  0.00  0.00     0.096 N 
HETATM    3  C   UNK     0      14.442   3.955  92.563  0.00  0.00     0.299 C 
HETATM    4  C   UNK     0      15.172   2.129  93.953  0.00  0.00     0.299 C 
HETATM    5  C   UNK     0      15.804   4.616  92.766  0.00  0.00     0.198 C 
HETATM    6  C   UNK     0      16.515   2.833  94.124  0.00  0.00     0.198 C 
ENDROOT
BRANCH   2   7
HETATM    7  C   UNK     0      13.284   1.841  92.479  0.00  0.00     0.311 C 
BRANCH   7   8
HETATM    8  C   UNK     0      12.196   2.812  92.165  0.00  0.00    -0.030 A 
HETATM    9  C   UNK     0      11.765   2.973  90.848  0.00  0.00     0.010 A 
HETATM   10  C   UNK     0      10.750   3.882  90.553  0.00  0.00     0.021 A 
HETATM   11  C   UNK     0      10.164   4.628  91.575  0.00  0.00     0.018 A 
HETATM   12  C   UNK     0      10.594   4.468  92.891  0.00  0.00     0.021 A 
HETATM   13  C   UNK     0      11.610   3.559  93.186  0.00  0.00     0.010 A 
BRANCH  11  14
HETATM   14  C   UNK     0       9.121   5.559  91.273  0.00  0.00    -0.061 C 
HETATM   15  C   UNK     0       8.244   6.342  91.019  0.00  0.00    -0.061 C 
BRANCH  15  16
HETATM   16  C   UNK     0       7.201   7.271  90.717  0.00  0.00     0.018 A 
HETATM   17  C   UNK     0       6.033   6.829  90.096  0.00  0.00     0.022 A 
HETATM   18  C   UNK     0       5.013   7.735  89.803  0.00  0.00     0.018 A 
HETATM   19  C   UNK     0       5.185   9.062  90.138  0.00  0.00     0.032 A 
HETATM   20  C   UNK     0       6.330   9.524  90.752  0.00  0.00     0.018 A 
HETATM   21  C   UNK     0       7.350   8.618  91.044  0.00  0.00     0.022 A 
BRANCH  19  22
HETATM   22  C   UNK     0       4.099  10.027  89.825  0.00  0.00     0.252 C 
HETATM   23  O   UNK     0       3.044   9.610  89.354  0.00  0.00    -0.268 OA
HETATM   24  N   UNK     0       4.364  11.357  90.120  0.00  0.00    -0.341 N 
HETATM   25  H   UNK     0       5.251  11.624  90.532  0.00  0.00     0.163 HD
BRANCH  24  26
HETATM   26  C   UNK     0       3.404  12.407  89.896  0.00  0.00     0.207 C 
BRANCH  26  27
HETATM   27  C   UNK     0       3.011  13.138  91.187  0.00  0.00     0.146 C 
HETATM   28  C   UNK     0       2.421  12.199  92.232  0.00  0.00     0.042 C 
BRANCH  27  29
HETATM   29  O   UNK     0       4.159  13.783  91.738  0.00  0.00    -0.393 OA
HETATM   30  H   UNK     0       4.867  13.768  91.072  0.00  0.00     0.210 HD
ENDBRANCH  27  29
ENDBRANCH  26  27
BRANCH  26  31
HETATM   31  C   UNK     0       3.997  13.370  88.873  0.00  0.00     0.266 C 
HETATM   32  O   UNK     0       4.133  14.574  89.085  0.00  0.00    -0.269 OA
HETATM   33  N   UNK     0       4.316  12.742  87.693  0.00  0.00    -0.236 N 
HETATM   34  H   UNK     0       4.136  11.774  87.453  0.00  0.00     0.197 HD
BRANCH  33  35
HETATM   35  O   UNK     0       4.833  13.566  86.683  0.00  0.00    -0.287 OA
HETATM   36  H   UNK     0       5.410  12.934  86.221  0.00  0.00     0.244 HD
ENDBRANCH  33  35
ENDBRANCH  26  31
ENDBRANCH  24  26
ENDBRANCH  19  22
ENDBRANCH  15  16
ENDBRANCH  11  14
ENDBRANCH   7   8
ENDBRANCH   2   7
TORSDOF 10
ENDMDL
