MODEL 1
REMARK VINA RESULT:      -6.9      0.000      0.000
REMARK  10 active torsions:
REMARK  status: ('A' for Active; 'I' for Inactive)
REMARK    1  A    between atoms: O_2  and  C_18 
REMARK    2  A    between atoms: O_5  and  N_8 
REMARK    3  A    between atoms: N_6  and  C_11 
REMARK    4  A    between atoms: N_7  and  C_15 
REMARK       I    between atoms: N_7  and  C_24 
REMARK       I    between atoms: N_8  and  C_23 
REMARK    5  A    between atoms: C_11  and  C_14 
REMARK    6  A    between atoms: C_15  and  C_18 
REMARK    7  A    between atoms: C_15  and  C_23 
REMARK    8  A    between atoms: C_21  and  C_26 
REMARK    9  A    between atoms: C_24  and  C_25 
REMARK   10  A    between atoms: C_29  and  C_32 
ROOT
HETATM    1  O   UNK     0      16.423   4.350  93.970  0.00  0.00    -0.388 OA
HETATM    2  N   UNK     0      14.638   2.536  92.696  0.00  0.00     0.096 N 
HETATM    3  C   UNK     0      14.499   3.990  92.536  0.00  0.00     0.299 C 
HETATM    4  C   UNK     0      15.247   2.228  93.997  0.00  0.00     0.299 C 
HETATM    5  C   UNK     0      15.861   4.660  92.694  0.00  0.00     0.198 C 
HETATM    6  C   UNK     0      16.591   2.940  94.121  0.00  0.00     0.198 C 
ENDROOT
BRANCH   2   7
HETATM    7  C   UNK     0      13.342   1.873  92.560  0.00  0.00     0.311 C 
BRANCH   7   8
HETATM    8  C   UNK     0      12.246   2.831  92.238  0.00  0.00    -0.030 A 
HETATM    9  C   UNK     0      11.777   2.938  90.928  0.00  0.00     0.010 A 
HETATM   10  C   UNK     0      10.753   3.835  90.626  0.00  0.00     0.021 A 
HETATM   11  C   UNK     0      10.197   4.623  91.633  0.00  0.00     0.018 A 
HETATM   12  C   UNK     0      10.665   4.517  92.941  0.00  0.00     0.021 A 
HETATM   13  C   UNK     0      11.690   3.621  93.244  0.00  0.00     0.010 A 
BRANCH  11  14
HETATM   14  C   UNK     0       9.145   5.542  91.323  0.00  0.00    -0.061 C 
HETATM   15  C   UNK     0       8.261   6.314  91.062  0.00  0.00    -0.061 C 
BRANCH  15  16
HETATM   16  C   UNK     0       7.212   7.233  90.752  0.00  0.00     0.018 A 
HETATM   17  C   UNK     0       6.996   7.625  89.430  0.00  0.00     0.022 A 
HETATM   18  C   UNK     0       5.970   8.520  89.127  0.00  0.00     0.018 A 
HETATM   19  C   UNK     0       5.183   9.003  90.151  0.00  0.00     0.032 A 
HETATM   20  C   UNK     0       5.375   8.632  91.466  0.00  0.00     0.018 A 
HETATM   21  C   UNK     0       6.402   7.738  91.769  0.00  0.00     0.022 A 
BRANCH  19  22
HETATM   22  C   UNK     0       4.091   9.958  89.828  0.00  0.00     0.252 C 
HETATM   23  O   UNK     0       3.021   9.526  89.408  0.00  0.00    -0.268 OA
HETATM   24  N   UNK     0       4.369  11.299  90.056  0.00  0.00    -0.341 N 
HETATM   25  H   UNK     0       5.269  11.580  90.428  0.00  0.00     0.163 HD
BRANCH  24  26
HETATM   26  C   UNK     0       3.406  12.342  89.815  0.00  0.00     0.207 C 
BRANCH  26  27
HETATM   27  C   UNK     0       2.938  13.028  91.105  0.00  0.00     0.146 C 
HETATM   28  C   UNK     0       2.304  12.052  92.089  0.00  0.00     0.042 C 
BRANCH  27  29
HETATM   29  O   UNK     0       4.049  13.666  91.735  0.00  0.00    -0.393 OA
HETATM   30  H   UNK     0       4.274  13.163  92.536  0.00  0.00     0.210 HD
ENDBRANCH  27  29
ENDBRANCH  26  27
BRANCH  26  31
HETATM   31  C   UNK     0       4.034  13.343  88.851  0.00  0.00     0.266 C 
HETATM   32  O   UNK     0       4.221  14.524  89.139  0.00  0.00    -0.269 OA
HETATM   33  N   UNK     0       4.323  12.779  87.632  0.00  0.00    -0.236 N 
HETATM   34  H   UNK     0       4.102  11.837  87.332  0.00  0.00     0.197 HD
BRANCH  33  35
HETATM   35  O   UNK     0       4.870  13.644  86.674  0.00  0.00    -0.287 OA
HETATM   36  H   UNK     0       5.700  13.178  86.472  0.00  0.00     0.244 HD
ENDBRANCH  33  35
ENDBRANCH  26  31
ENDBRANCH  24  26
ENDBRANCH  19  22
ENDBRANCH  15  16
ENDBRANCH  11  14
ENDBRANCH   7   8
ENDBRANCH   2   7
TORSDOF 10
ENDMDL
MODEL 2
REMARK VINA RESULT:      -6.3      1.648      2.121
REMARK  10 active torsions:
REMARK  status: ('A' for Active; 'I' for Inactive)
REMARK    1  A    between atoms: O_2  and  C_18 
REMARK    2  A    between atoms: O_5  and  N_8 
REMARK    3  A    between atoms: N_6  and  C_11 
REMARK    4  A    between atoms: N_7  and  C_15 
REMARK       I    between atoms: N_7  and  C_24 
REMARK       I    between atoms: N_8  and  C_23 
REMARK    5  A    between atoms: C_11  and  C_14 
REMARK    6  A    between atoms: C_15  and  C_18 
REMARK    7  A    between atoms: C_15  and  C_23 
REMARK    8  A    between atoms: C_21  and  C_26 
REMARK    9  A    between atoms: C_24  and  C_25 
REMARK   10  A    between atoms: C_29  and  C_32 
ROOT
HETATM    1  O   UNK     0      16.662   4.285  94.051  0.00  0.00    -0.388 OA
HETATM    2  N   UNK     0      14.708   2.695  92.726  0.00  0.00     0.096 N 
HETATM    3  C   UNK     0      14.684   4.162  92.650  0.00  0.00     0.299 C 
HETATM    4  C   UNK     0      15.318   2.266  93.992  0.00  0.00     0.299 C 
HETATM    5  C   UNK     0      16.099   4.712  92.808  0.00  0.00     0.198 C 
HETATM    6  C   UNK     0      16.718   2.860  94.119  0.00  0.00     0.198 C 
ENDROOT
BRANCH   2   7
HETATM    7  C   UNK     0      13.360   2.147  92.587  0.00  0.00     0.311 C 
BRANCH   7   8
HETATM    8  C   UNK     0      12.314   3.208  92.579  0.00  0.00    -0.030 A 
HETATM    9  C   UNK     0      12.082   3.967  93.727  0.00  0.00     0.010 A 
HETATM   10  C   UNK     0      11.101   4.959  93.721  0.00  0.00     0.021 A 
HETATM   11  C   UNK     0      10.355   5.193  92.567  0.00  0.00     0.018 A 
HETATM   12  C   UNK     0      10.586   4.437  91.420  0.00  0.00     0.021 A 
HETATM   13  C   UNK     0      11.566   3.444  91.425  0.00  0.00     0.010 A 
BRANCH  11  14
HETATM   14  C   UNK     0       9.351   6.212  92.560  0.00  0.00    -0.061 C 
HETATM   15  C   UNK     0       8.507   7.069  92.554  0.00  0.00    -0.061 C 
BRANCH  15  16
HETATM   16  C   UNK     0       7.505   8.087  92.549  0.00  0.00     0.018 A 
HETATM   17  C   UNK     0       7.876   9.430  92.458  0.00  0.00     0.022 A 
HETATM   18  C   UNK     0       6.898  10.424  92.451  0.00  0.00     0.018 A 
HETATM   19  C   UNK     0       5.572  10.055  92.533  0.00  0.00     0.032 A 
HETATM   20  C   UNK     0       5.179   8.736  92.623  0.00  0.00     0.018 A 
HETATM   21  C   UNK     0       6.156   7.742  92.632  0.00  0.00     0.022 A 
BRANCH  19  22
HETATM   22  C   UNK     0       4.530  11.115  92.527  0.00  0.00     0.252 C 
HETATM   23  O   UNK     0       3.705  11.150  93.436  0.00  0.00    -0.268 OA
HETATM   24  N   UNK     0       4.591  12.021  91.476  0.00  0.00    -0.341 N 
HETATM   25  H   UNK     0       5.317  11.944  90.774  0.00  0.00     0.163 HD
BRANCH  24  26
HETATM   26  C   UNK     0       3.666  13.118  91.345  0.00  0.00     0.207 C 
BRANCH  26  27
HETATM   27  C   UNK     0       4.177  14.406  92.002  0.00  0.00     0.146 C 
HETATM   28  C   UNK     0       4.800  15.368  90.996  0.00  0.00     0.042 C 
BRANCH  27  29
HETATM   29  O   UNK     0       3.098  15.064  92.665  0.00  0.00    -0.393 OA
HETATM   30  H   UNK     0       3.176  14.891  93.618  0.00  0.00     0.210 HD
ENDBRANCH  27  29
ENDBRANCH  26  27
BRANCH  26  31
HETATM   31  C   UNK     0       3.396  13.324  89.858  0.00  0.00     0.266 C 
HETATM   32  O   UNK     0       2.559  14.117  89.433  0.00  0.00    -0.269 OA
HETATM   33  N   UNK     0       4.163  12.498  89.072  0.00  0.00    -0.236 N 
HETATM   34  H   UNK     0       4.795  11.773  89.390  0.00  0.00     0.197 HD
BRANCH  33  35
HETATM   35  O   UNK     0       3.947  12.598  87.690  0.00  0.00    -0.287 OA
HETATM   36  H   UNK     0       4.255  13.506  87.531  0.00  0.00     0.244 HD
ENDBRANCH  33  35
ENDBRANCH  26  31
ENDBRANCH  24  26
ENDBRANCH  19  22
ENDBRANCH  15  16
ENDBRANCH  11  14
ENDBRANCH   7   8
ENDBRANCH   2   7
TORSDOF 10
ENDMDL
MODEL 3
REMARK VINA RESULT:      -5.9      1.403      2.620
REMARK  10 active torsions:
REMARK  status: ('A' for Active; 'I' for Inactive)
REMARK    1  A    between atoms: O_2  and  C_18 
REMARK    2  A    between atoms: O_5  and  N_8 
REMARK    3  A    between atoms: N_6  and  C_11 
REMARK    4  A    between atoms: N_7  and  C_15 
REMARK       I    between atoms: N_7  and  C_24 
REMARK       I    between atoms: N_8  and  C_23 
REMARK    5  A    between atoms: C_11  and  C_14 
REMARK    6  A    between atoms: C_15  and  C_18 
REMARK    7  A    between atoms: C_15  and  C_23 
REMARK    8  A    between atoms: C_21  and  C_26 
REMARK    9  A    between atoms: C_24  and  C_25 
REMARK   10  A    between atoms: C_29  and  C_32 
ROOT
HETATM    1  O   UNK     0      16.108   4.241  93.957  0.00  0.00    -0.388 OA
HETATM    2  N   UNK     0      14.331   2.637  92.416  0.00  0.00     0.096 N 
HETATM    3  C   UNK     0      14.390   4.096  92.248  0.00  0.00     0.299 C 
HETATM    4  C   UNK     0      14.697   2.273  93.791  0.00  0.00     0.299 C 
HETATM    5  C   UNK     0      15.784   4.602  92.613  0.00  0.00     0.198 C 
HETATM    6  C   UNK     0      16.083   2.822  94.121  0.00  0.00     0.198 C 
ENDROOT
BRANCH   2   7
HETATM    7  C   UNK     0      13.001   2.131  92.082  0.00  0.00     0.311 C 
BRANCH   7   8
HETATM    8  C   UNK     0      12.003   3.225  91.913  0.00  0.00    -0.030 A 
HETATM    9  C   UNK     0      11.481   3.872  93.034  0.00  0.00     0.010 A 
HETATM   10  C   UNK     0      10.546   4.894  92.877  0.00  0.00     0.021 A 
HETATM   11  C   UNK     0      10.134   5.271  91.599  0.00  0.00     0.018 A 
HETATM   12  C   UNK     0      10.655   4.627  90.479  0.00  0.00     0.021 A 
HETATM   13  C   UNK     0      11.590   3.604  90.635  0.00  0.00     0.010 A 
BRANCH  11  14
HETATM   14  C   UNK     0       9.177   6.322  91.438  0.00  0.00    -0.061 C 
HETATM   15  C   UNK     0       8.372   7.205  91.303  0.00  0.00    -0.061 C 
BRANCH  15  16
HETATM   16  C   UNK     0       7.414   8.253  91.143  0.00  0.00     0.018 A 
HETATM   17  C   UNK     0       6.723   8.742  92.253  0.00  0.00     0.022 A 
HETATM   18  C   UNK     0       5.790   9.766  92.097  0.00  0.00     0.018 A 
HETATM   19  C   UNK     0       5.568  10.280  90.836  0.00  0.00     0.032 A 
HETATM   20  C   UNK     0       6.237   9.815  89.723  0.00  0.00     0.018 A 
HETATM   21  C   UNK     0       7.170   8.789  89.879  0.00  0.00     0.022 A 
BRANCH  19  22
HETATM   22  C   UNK     0       4.572  11.370  90.670  0.00  0.00     0.252 C 
HETATM   23  O   UNK     0       3.520  11.137  90.080  0.00  0.00    -0.268 OA
HETATM   24  N   UNK     0       4.910  12.593  91.233  0.00  0.00    -0.341 N 
HETATM   25  H   UNK     0       5.787  12.705  91.728  0.00  0.00     0.163 HD
BRANCH  24  26
HETATM   26  C   UNK     0       4.039  13.740  91.177  0.00  0.00     0.207 C 
BRANCH  26  27
HETATM   27  C   UNK     0       3.870  14.288  89.755  0.00  0.00     0.146 C 
HETATM   28  C   UNK     0       5.198  14.419  89.018  0.00  0.00     0.042 C 
BRANCH  27  29
HETATM   29  O   UNK     0       3.010  13.426  89.010  0.00  0.00    -0.393 OA
HETATM   30  H   UNK     0       3.529  12.661  88.712  0.00  0.00     0.210 HD
ENDBRANCH  27  29
ENDBRANCH  26  27
BRANCH  26  31
HETATM   31  C   UNK     0       2.697  13.335  91.779  0.00  0.00     0.266 C 
HETATM   32  O   UNK     0       1.648  13.930  91.538  0.00  0.00    -0.269 OA
HETATM   33  N   UNK     0       2.814  12.268  92.636  0.00  0.00    -0.236 N 
HETATM   34  H   UNK     0       3.671  11.812  92.925  0.00  0.00     0.197 HD
BRANCH  33  35
HETATM   35  O   UNK     0       1.628  11.856  93.262  0.00  0.00    -0.287 OA
HETATM   36  H   UNK     0       1.723  10.890  93.197  0.00  0.00     0.244 HD
ENDBRANCH  33  35
ENDBRANCH  26  31
ENDBRANCH  24  26
ENDBRANCH  19  22
ENDBRANCH  15  16
ENDBRANCH  11  14
ENDBRANCH   7   8
ENDBRANCH   2   7
TORSDOF 10
ENDMDL
MODEL 4
REMARK VINA RESULT:      -5.9      1.817      2.317
REMARK  10 active torsions:
REMARK  status: ('A' for Active; 'I' for Inactive)
REMARK    1  A    between atoms: O_2  and  C_18 
REMARK    2  A    between atoms: O_5  and  N_8 
REMARK    3  A    between atoms: N_6  and  C_11 
REMARK    4  A    between atoms: N_7  and  C_15 
REMARK       I    between atoms: N_7  and  C_24 
REMARK       I    between atoms: N_8  and  C_23 
REMARK    5  A    between atoms: C_11  and  C_14 
REMARK    6  A    between atoms: C_15  and  C_18 
REMARK    7  A    between atoms: C_15  and  C_23 
REMARK    8  A    between atoms: C_21  and  C_26 
REMARK    9  A    between atoms: C_24  and  C_25 
REMARK   10  A    between atoms: C_29  and  C_32 
ROOT
HETATM    1  O   UNK     0      16.499   4.294  94.123  0.00  0.00    -0.388 OA
HETATM    2  N   UNK     0      14.636   2.794  92.580  0.00  0.00     0.096 N 
HETATM    3  C   UNK     0      14.620   4.264  92.588  0.00  0.00     0.299 C 
HETATM    4  C   UNK     0      15.157   2.290  93.858  0.00  0.00     0.299 C 
HETATM    5  C   UNK     0      16.023   4.794  92.872  0.00  0.00     0.198 C 
HETATM    6  C   UNK     0      16.547   2.867  94.113  0.00  0.00     0.198 C 
ENDROOT
BRANCH   2   7
HETATM    7  C   UNK     0      13.299   2.264  92.320  0.00  0.00     0.311 C 
BRANCH   7   8
HETATM    8  C   UNK     0      12.247   3.319  92.383  0.00  0.00    -0.030 A 
HETATM    9  C   UNK     0      11.986   3.971  93.588  0.00  0.00     0.010 A 
HETATM   10  C   UNK     0      11.001   4.957  93.648  0.00  0.00     0.021 A 
HETATM   11  C   UNK     0      10.279   5.290  92.503  0.00  0.00     0.018 A 
HETATM   12  C   UNK     0      10.538   4.639  91.299  0.00  0.00     0.021 A 
HETATM   13  C   UNK     0      11.523   3.653  91.238  0.00  0.00     0.010 A 
BRANCH  11  14
HETATM   14  C   UNK     0       9.270   6.303  92.565  0.00  0.00    -0.061 C 
HETATM   15  C   UNK     0       8.422   7.154  92.616  0.00  0.00    -0.061 C 
BRANCH  15  16
HETATM   16  C   UNK     0       7.414   8.165  92.679  0.00  0.00     0.018 A 
HETATM   17  C   UNK     0       6.181   7.959  92.058  0.00  0.00     0.022 A 
HETATM   18  C   UNK     0       5.197   8.945  92.121  0.00  0.00     0.018 A 
HETATM   19  C   UNK     0       5.465  10.113  92.803  0.00  0.00     0.032 A 
HETATM   20  C   UNK     0       6.674  10.341  93.425  0.00  0.00     0.018 A 
HETATM   21  C   UNK     0       7.660   9.356  93.362  0.00  0.00     0.022 A 
BRANCH  19  22
HETATM   22  C   UNK     0       4.416  11.163  92.868  0.00  0.00     0.252 C 
HETATM   23  O   UNK     0       3.495  11.042  93.673  0.00  0.00    -0.268 OA
HETATM   24  N   UNK     0       4.579  12.239  92.007  0.00  0.00    -0.341 N 
HETATM   25  H   UNK     0       5.379  12.283  91.387  0.00  0.00     0.163 HD
BRANCH  24  26
HETATM   26  C   UNK     0       3.660  13.348  91.969  0.00  0.00     0.207 C 
BRANCH  26  27
HETATM   27  C   UNK     0       3.905  14.362  93.094  0.00  0.00     0.146 C 
HETATM   28  C   UNK     0       2.619  14.769  93.803  0.00  0.00     0.042 C 
BRANCH  27  29
HETATM   29  O   UNK     0       4.806  13.804  94.050  0.00  0.00    -0.393 OA
HETATM   30  H   UNK     0       5.626  13.559  93.590  0.00  0.00     0.210 HD
ENDBRANCH  27  29
ENDBRANCH  26  27
BRANCH  26  31
HETATM   31  C   UNK     0       3.777  14.004  90.596  0.00  0.00     0.266 C 
HETATM   32  O   UNK     0       2.981  13.793  89.683  0.00  0.00    -0.269 OA
HETATM   33  N   UNK     0       4.884  14.811  90.500  0.00  0.00    -0.236 N 
HETATM   34  H   UNK     0       5.607  14.937  91.200  0.00  0.00     0.197 HD
BRANCH  33  35
HETATM   35  O   UNK     0       5.087  15.423  89.255  0.00  0.00    -0.287 OA
HETATM   36  H   UNK     0       5.979  15.788  89.383  0.00  0.00     0.244 HD
ENDBRANCH  33  35
ENDBRANCH  26  31
ENDBRANCH  24  26
ENDBRANCH  19  22
ENDBRANCH  15  16
ENDBRANCH  11  14
ENDBRANCH   7   8
ENDBRANCH   2   7
TORSDOF 10
ENDMDL
MODEL 5
REMARK VINA RESULT:      -5.3      2.577     12.630
REMARK  10 active torsions:
REMARK  status: ('A' for Active; 'I' for Inactive)
REMARK    1  A    between atoms: O_2  and  C_18 
REMARK    2  A    between atoms: O_5  and  N_8 
REMARK    3  A    between atoms: N_6  and  C_11 
REMARK    4  A    between atoms: N_7  and  C_15 
REMARK       I    between atoms: N_7  and  C_24 
REMARK       I    between atoms: N_8  and  C_23 
REMARK    5  A    between atoms: C_11  and  C_14 
REMARK    6  A    between atoms: C_15  and  C_18 
REMARK    7  A    between atoms: C_15  and  C_23 
REMARK    8  A    between atoms: C_21  and  C_26 
REMARK    9  A    between atoms: C_24  and  C_25 
REMARK   10  A    between atoms: C_29  and  C_32 
ROOT
HETATM    1  O   UNK     0       1.792  15.309  93.116  0.00  0.00    -0.388 OA
HETATM    2  N   UNK     0       3.262  13.297  91.741  0.00  0.00     0.096 N 
HETATM    3  C   UNK     0       3.680  14.706  91.716  0.00  0.00     0.299 C 
HETATM    4  C   UNK     0       1.805  13.207  91.904  0.00  0.00     0.299 C 
HETATM    5  C   UNK     0       3.212  15.406  92.989  0.00  0.00     0.198 C 
HETATM    6  C   UNK     0       1.380  13.943  93.172  0.00  0.00     0.198 C 
ENDROOT
BRANCH   2   7
HETATM    7  C   UNK     0       3.692  12.609  90.525  0.00  0.00     0.311 C 
BRANCH   7   8
HETATM    8  C   UNK     0       4.684  11.532  90.803  0.00  0.00    -0.030 A 
HETATM    9  C   UNK     0       5.254  10.820  89.746  0.00  0.00     0.010 A 
HETATM   10  C   UNK     0       6.181   9.811  90.005  0.00  0.00     0.021 A 
HETATM   11  C   UNK     0       6.540   9.515  91.320  0.00  0.00     0.018 A 
HETATM   12  C   UNK     0       5.972  10.225  92.376  0.00  0.00     0.021 A 
HETATM   13  C   UNK     0       5.044  11.234  92.117  0.00  0.00     0.010 A 
BRANCH  11  14
HETATM   14  C   UNK     0       7.492   8.481  91.585  0.00  0.00    -0.061 C 
HETATM   15  C   UNK     0       8.293   7.612  91.808  0.00  0.00    -0.061 C 
BRANCH  15  16
HETATM   16  C   UNK     0       9.243   6.579  92.073  0.00  0.00     0.018 A 
HETATM   17  C   UNK     0       9.847   5.898  91.015  0.00  0.00     0.022 A 
HETATM   18  C   UNK     0      10.777   4.891  91.274  0.00  0.00     0.018 A 
HETATM   19  C   UNK     0      11.083   4.587  92.584  0.00  0.00     0.032 A 
HETATM   20  C   UNK     0      10.500   5.244  93.648  0.00  0.00     0.018 A 
HETATM   21  C   UNK     0       9.570   6.251  93.389  0.00  0.00     0.022 A 
BRANCH  19  22
HETATM   22  C   UNK     0      12.071   3.513  92.860  0.00  0.00     0.252 C 
HETATM   23  O   UNK     0      11.880   2.389  92.401  0.00  0.00    -0.268 OA
HETATM   24  N   UNK     0      13.176   3.882  93.615  0.00  0.00    -0.341 N 
HETATM   25  H   UNK     0      13.280   4.837  93.939  0.00  0.00     0.163 HD
BRANCH  24  26
HETATM   26  C   UNK     0      14.233   2.960  93.945  0.00  0.00     0.207 C 
BRANCH  26  27
HETATM   27  C   UNK     0      14.297   1.764  92.987  0.00  0.00     0.146 C 
HETATM   28  C   UNK     0      15.147   2.048  91.754  0.00  0.00     0.042 C 
BRANCH  27  29
HETATM   29  O   UNK     0      14.838   0.634  93.672  0.00  0.00    -0.393 OA
HETATM   30  H   UNK     0      14.132  -0.028  93.772  0.00  0.00     0.210 HD
ENDBRANCH  27  29
ENDBRANCH  26  27
BRANCH  26  31
HETATM   31  C   UNK     0      15.545   3.738  93.949  0.00  0.00     0.266 C 
HETATM   32  O   UNK     0      16.639   3.205  94.124  0.00  0.00    -0.269 OA
HETATM   33  N   UNK     0      15.349   5.087  93.775  0.00  0.00    -0.236 N 
HETATM   34  H   UNK     0      14.460   5.569  93.718  0.00  0.00     0.197 HD
BRANCH  33  35
HETATM   35  O   UNK     0      16.505   5.880  93.805  0.00  0.00    -0.287 OA
HETATM   36  H   UNK     0      16.298   6.463  94.555  0.00  0.00     0.244 HD
ENDBRANCH  33  35
ENDBRANCH  26  31
ENDBRANCH  24  26
ENDBRANCH  19  22
ENDBRANCH  15  16
ENDBRANCH  11  14
ENDBRANCH   7   8
ENDBRANCH   2   7
TORSDOF 10
ENDMDL
MODEL 6
REMARK VINA RESULT:      -5.3      1.950     12.348
REMARK  10 active torsions:
REMARK  status: ('A' for Active; 'I' for Inactive)
REMARK    1  A    between atoms: O_2  and  C_18 
REMARK    2  A    between atoms: O_5  and  N_8 
REMARK    3  A    between atoms: N_6  and  C_11 
REMARK    4  A    between atoms: N_7  and  C_15 
REMARK       I    between atoms: N_7  and  C_24 
REMARK       I    between atoms: N_8  and  C_23 
REMARK    5  A    between atoms: C_11  and  C_14 
REMARK    6  A    between atoms: C_15  and  C_18 
REMARK    7  A    between atoms: C_15  and  C_23 
REMARK    8  A    between atoms: C_21  and  C_26 
REMARK    9  A    between atoms: C_24  and  C_25 
REMARK   10  A    between atoms: C_29  and  C_32 
ROOT
HETATM    1  O   UNK     0       5.570  14.807  88.974  0.00  0.00    -0.388 OA
HETATM    2  N   UNK     0       3.654  13.203  90.339  0.00  0.00     0.096 N 
HETATM    3  C   UNK     0       4.196  14.430  90.939  0.00  0.00     0.299 C 
HETATM    4  C   UNK     0       4.642  12.611  89.427  0.00  0.00     0.299 C 
HETATM    5  C   UNK     0       4.604  15.407  89.839  0.00  0.00     0.198 C 
HETATM    6  C   UNK     0       5.040  13.630  88.363  0.00  0.00     0.198 C 
ENDROOT
BRANCH   2   7
HETATM    7  C   UNK     0       3.266  12.248  91.375  0.00  0.00     0.311 C 
BRANCH   7   8
HETATM    8  C   UNK     0       4.296  11.191  91.588  0.00  0.00    -0.030 A 
HETATM    9  C   UNK     0       5.321  11.393  92.513  0.00  0.00     0.010 A 
HETATM   10  C   UNK     0       6.286  10.406  92.712  0.00  0.00     0.021 A 
HETATM   11  C   UNK     0       6.225   9.217  91.986  0.00  0.00     0.018 A 
HETATM   12  C   UNK     0       5.203   9.014  91.061  0.00  0.00     0.021 A 
HETATM   13  C   UNK     0       4.238  10.001  90.862  0.00  0.00     0.010 A 
BRANCH  11  14
HETATM   14  C   UNK     0       7.214   8.204  92.191  0.00  0.00    -0.061 C 
HETATM   15  C   UNK     0       8.046   7.353  92.364  0.00  0.00    -0.061 C 
BRANCH  15  16
HETATM   16  C   UNK     0       9.035   6.342  92.568  0.00  0.00     0.018 A 
HETATM   17  C   UNK     0       9.233   5.355  91.601  0.00  0.00     0.022 A 
HETATM   18  C   UNK     0      10.199   4.370  91.799  0.00  0.00     0.018 A 
HETATM   19  C   UNK     0      10.946   4.391  92.958  0.00  0.00     0.032 A 
HETATM   20  C   UNK     0      10.770   5.354  93.929  0.00  0.00     0.018 A 
HETATM   21  C   UNK     0       9.803   6.340  93.732  0.00  0.00     0.022 A 
BRANCH  19  22
HETATM   22  C   UNK     0      11.974   3.340  93.169  0.00  0.00     0.252 C 
HETATM   23  O   UNK     0      11.735   2.187  92.816  0.00  0.00    -0.268 OA
HETATM   24  N   UNK     0      13.166   3.761  93.743  0.00  0.00    -0.341 N 
HETATM   25  H   UNK     0      13.302   4.735  93.987  0.00  0.00     0.163 HD
BRANCH  24  26
HETATM   26  C   UNK     0      14.267   2.865  93.990  0.00  0.00     0.207 C 
BRANCH  26  27
HETATM   27  C   UNK     0      14.333   1.713  92.979  0.00  0.00     0.146 C 
HETATM   28  C   UNK     0      15.039   2.109  91.687  0.00  0.00     0.042 C 
BRANCH  27  29
HETATM   29  O   UNK     0      15.020   0.606  93.561  0.00  0.00    -0.393 OA
HETATM   30  H   UNK     0      14.402   0.139  94.149  0.00  0.00     0.210 HD
ENDBRANCH  27  29
ENDBRANCH  26  27
BRANCH  26  31
HETATM   31  C   UNK     0      15.550   3.689  93.975  0.00  0.00     0.266 C 
HETATM   32  O   UNK     0      16.666   3.194  94.124  0.00  0.00    -0.269 OA
HETATM   33  N   UNK     0      15.303   5.031  93.817  0.00  0.00    -0.236 N 
HETATM   34  H   UNK     0      14.396   5.481  93.781  0.00  0.00     0.197 HD
BRANCH  33  35
HETATM   35  O   UNK     0      16.430   5.865  93.831  0.00  0.00    -0.287 OA
HETATM   36  H   UNK     0      16.002   6.738  93.826  0.00  0.00     0.244 HD
ENDBRANCH  33  35
ENDBRANCH  26  31
ENDBRANCH  24  26
ENDBRANCH  19  22
ENDBRANCH  15  16
ENDBRANCH  11  14
ENDBRANCH   7   8
ENDBRANCH   2   7
TORSDOF 10
ENDMDL
MODEL 7
REMARK VINA RESULT:      -4.0      1.885      2.498
REMARK  10 active torsions:
REMARK  status: ('A' for Active; 'I' for Inactive)
REMARK    1  A    between atoms: O_2  and  C_18 
REMARK    2  A    between atoms: O_5  and  N_8 
REMARK    3  A    between atoms: N_6  and  C_11 
REMARK    4  A    between atoms: N_7  and  C_15 
REMARK       I    between atoms: N_7  and  C_24 
REMARK       I    between atoms: N_8  and  C_23 
REMARK    5  A    between atoms: C_11  and  C_14 
REMARK    6  A    between atoms: C_15  and  C_18 
REMARK    7  A    between atoms: C_15  and  C_23 
REMARK    8  A    between atoms: C_21  and  C_26 
REMARK    9  A    between atoms: C_24  and  C_25 
REMARK   10  A    between atoms: C_29  and  C_32 
ROOT
HETATM    1  O   UNK     0      15.803   2.899  91.078  0.00  0.00    -0.388 OA
HETATM    2  N   UNK     0      13.643   3.145  92.915  0.00  0.00     0.096 N 
HETATM    3  C   UNK     0      14.697   2.138  93.100  0.00  0.00     0.299 C 
HETATM    4  C   UNK     0      13.473   3.440  91.486  0.00  0.00     0.299 C 
HETATM    5  C   UNK     0      15.997   2.629  92.467  0.00  0.00     0.198 C 
HETATM    6  C   UNK     0      14.801   3.899  90.891  0.00  0.00     0.198 C 
ENDROOT
BRANCH   2   7
HETATM    7  C   UNK     0      12.384   2.691  93.504  0.00  0.00     0.311 C 
BRANCH   7   8
HETATM    8  C   UNK     0      11.273   3.661  93.288  0.00  0.00    -0.030 A 
HETATM    9  C   UNK     0      11.145   4.771  94.123  0.00  0.00     0.010 A 
HETATM   10  C   UNK     0      10.104   5.678  93.923  0.00  0.00     0.021 A 
HETATM   11  C   UNK     0       9.194   5.476  92.886  0.00  0.00     0.018 A 
HETATM   12  C   UNK     0       9.322   4.368  92.051  0.00  0.00     0.021 A 
HETATM   13  C   UNK     0      10.361   3.460  92.251  0.00  0.00     0.010 A 
BRANCH  11  14
HETATM   14  C   UNK     0       8.128   6.408  92.679  0.00  0.00    -0.061 C 
HETATM   15  C   UNK     0       7.233   7.191  92.506  0.00  0.00    -0.061 C 
BRANCH  15  16
HETATM   16  C   UNK     0       6.167   8.120  92.300  0.00  0.00     0.018 A 
HETATM   17  C   UNK     0       6.353   9.471  92.600  0.00  0.00     0.022 A 
HETATM   18  C   UNK     0       5.314  10.379  92.397  0.00  0.00     0.018 A 
HETATM   19  C   UNK     0       4.113   9.918  91.900  0.00  0.00     0.032 A 
HETATM   20  C   UNK     0       3.904   8.589  91.596  0.00  0.00     0.018 A 
HETATM   21  C   UNK     0       4.942   7.680  91.799  0.00  0.00     0.022 A 
BRANCH  19  22
HETATM   22  C   UNK     0       3.006  10.886  91.686  0.00  0.00     0.252 C 
HETATM   23  O   UNK     0       1.868  10.463  91.500  0.00  0.00    -0.268 OA
HETATM   24  N   UNK     0       3.353  12.228  91.739  0.00  0.00    -0.341 N 
HETATM   25  H   UNK     0       4.311  12.503  91.922  0.00  0.00     0.163 HD
BRANCH  24  26
HETATM   26  C   UNK     0       2.389  13.286  91.576  0.00  0.00     0.207 C 
BRANCH  26  27
HETATM   27  C   UNK     0       2.232  14.147  92.835  0.00  0.00     0.146 C 
HETATM   28  C   UNK     0       1.798  13.332  94.049  0.00  0.00     0.042 C 
BRANCH  27  29
HETATM   29  O   UNK     0       3.471  14.792  93.130  0.00  0.00    -0.393 OA
HETATM   30  H   UNK     0       3.399  15.725  92.866  0.00  0.00     0.210 HD
ENDBRANCH  27  29
ENDBRANCH  26  27
BRANCH  26  31
HETATM   31  C   UNK     0       2.818  14.128  90.379  0.00  0.00     0.266 C 
HETATM   32  O   UNK     0       2.018  14.669  89.618  0.00  0.00    -0.269 OA
HETATM   33  N   UNK     0       4.184  14.171  90.238  0.00  0.00    -0.236 N 
HETATM   34  H   UNK     0       4.868  13.666  90.791  0.00  0.00     0.197 HD
BRANCH  33  35
HETATM   35  O   UNK     0       4.662  14.895  89.137  0.00  0.00    -0.287 OA
HETATM   36  H   UNK     0       5.549  15.133  89.456  0.00  0.00     0.244 HD
ENDBRANCH  33  35
ENDBRANCH  26  31
ENDBRANCH  24  26
ENDBRANCH  19  22
ENDBRANCH  15  16
ENDBRANCH  11  14
ENDBRANCH   7   8
ENDBRANCH   2   7
TORSDOF 10
ENDMDL
