MODEL 1
REMARK VINA RESULT:      -5.8      0.000      0.000
REMARK  14 active torsions:
REMARK  status: ('A' for Active; 'I' for Inactive)
REMARK    1  A    between atoms: O_2  and  C_18 
REMARK    2  A    between atoms: C_5  and  C_8 
REMARK    3  A    between atoms: C_5  and  O_35 
REMARK    4  A    between atoms: C_5  and  C_36 
REMARK    5  A    between atoms: N_6  and  C_11 
REMARK    6  A    between atoms: N_7  and  C_15 
REMARK       I    between atoms: N_7  and  C_24 
REMARK    7  A    between atoms: C_8  and  C_23 
REMARK    8  A    between atoms: C_11  and  C_14 
REMARK    9  A    between atoms: C_15  and  C_18 
REMARK   10  A    between atoms: C_15  and  C_23 
REMARK   11  A    between atoms: C_21  and  C_26 
REMARK   12  A    between atoms: C_24  and  C_25 
REMARK   13  A    between atoms: C_29  and  C_32 
REMARK   14  A    between atoms: C_36  and  O_39 
ROOT
HETATM    1  O   UNL     1      17.445   4.606  93.597  1.00  0.00    -0.350 OA
HETATM    2  N   UNL     1      15.267   2.850  94.121  1.00  0.00     0.147 N 
HETATM    3  C   UNL     1      16.550   2.350  93.608  1.00  0.00     0.283 C 
HETATM    4  C   UNL     1      15.049   4.232  93.672  1.00  0.00     0.283 C 
HETATM    5  C   UNL     1      17.681   3.273  94.055  1.00  0.00     0.178 C 
HETATM    6  C   UNL     1      16.214   5.110  94.116  1.00  0.00     0.178 C 
ENDROOT
BRANCH   2   7
HETATM    7  C   UNL     1      14.168   1.985  93.695  1.00  0.00     0.277 C 
BRANCH   7   8
HETATM    8  C   UNL     1      13.098   2.738  92.979  1.00  0.00     0.011 A 
HETATM    9  C   UNL     1      13.031   2.697  91.586  1.00  0.00    -0.002 A 
HETATM   10  C   UNL     1      12.032   3.403  90.915  1.00  0.00     0.008 A 
HETATM   11  C   UNL     1      11.100   4.146  91.638  1.00  0.00     0.042 A 
HETATM   12  C   UNL     1      11.166   4.187  93.029  1.00  0.00     0.008 A 
HETATM   13  C   UNL     1      12.165   3.483  93.701  1.00  0.00    -0.002 A 
BRANCH  11  14
HETATM   14  C   UNL     1      10.074   4.868  90.950  1.00  0.00    -0.059 C 
HETATM   15  C   UNL     1       9.212   5.476  90.372  1.00  0.00    -0.059 C 
BRANCH  15  16
HETATM   16  C   UNL     1       8.188   6.197  89.684  1.00  0.00     0.042 A 
HETATM   17  C   UNL     1       8.490   6.885  88.508  1.00  0.00     0.008 A 
HETATM   18  C   UNL     1       7.489   7.587  87.836  1.00  0.00     0.005 A 
HETATM   19  C   UNL     1       6.211   7.585  88.352  1.00  0.00     0.056 A 
HETATM   20  C   UNL     1       5.887   6.913  89.513  1.00  0.00     0.005 A 
HETATM   21  C   UNL     1       6.886   6.211  90.186  1.00  0.00     0.008 A 
BRANCH  19  22
HETATM   22  C   UNL     1       5.146   8.334  87.636  1.00  0.00     0.254 C 
HETATM   23  O   UNL     1       5.060   8.234  86.415  1.00  0.00    -0.268 OA
HETATM   24  N   UNL     1       4.295   9.089  88.431  1.00  0.00    -0.335 N 
HETATM   25  HN  UNL     1       4.411   9.104  89.438  1.00  0.00     0.164 HD
BRANCH  24  26
HETATM   26  C   UNL     1       3.200   9.852  87.888  1.00  0.00     0.169 C 
BRANCH  26  27
HETATM   27  C   UNL     1       1.847   9.146  88.049  1.00  0.00     0.138 C 
HETATM   28  C   UNL     1       1.824   7.772  87.389  1.00  0.00     0.034 C 
BRANCH  27  29
HETATM   29  O   UNL     1       1.548   8.998  89.437  1.00  0.00    -0.383 OA
HETATM   30  H   UNL     1       1.084   9.798  89.735  1.00  0.00     0.210 HD
ENDBRANCH  27  29
ENDBRANCH  26  27
BRANCH  26  31
HETATM   31  C   UNL     1       3.198  11.216  88.570  1.00  0.00     0.194 C 
HETATM   32  O   UNL     1       2.426  11.507  89.483  1.00  0.00    -0.289 OA
BRANCH  31  33
HETATM   33  C   UNL     1       4.121  12.072  88.021  1.00  0.00     0.053 C 
BRANCH  33  34
HETATM   34  C   UNL     1       5.086  12.577  88.904  1.00  0.00     0.220 C 
BRANCH  34  35
HETATM   35  O   UNL     1       6.085  11.836  88.839  1.00  0.00    -0.371 OA
HETATM   36  H   UNL     1       6.423  12.142  88.011  1.00  0.00     0.211 HD
ENDBRANCH  34  35
BRANCH  34  37
HETATM   37  C   UNL     1       5.405  13.926  88.674  1.00  0.00     0.185 C 
HETATM   38  O   UNL     1       6.564  13.419  88.284  1.00  0.00    -0.647 OA
BRANCH  37  39
HETATM   39  O   UNL     1       4.876  14.986  88.821  1.00  0.00    -0.774 OA
HETATM   40  H   UNL     1       4.223  15.004  89.749  1.00  0.00     0.167 HD
ENDBRANCH  37  39
ENDBRANCH  34  37
ENDBRANCH  33  34
ENDBRANCH  31  33
ENDBRANCH  26  31
ENDBRANCH  24  26
ENDBRANCH  19  22
ENDBRANCH  15  16
ENDBRANCH  11  14
ENDBRANCH   7   8
ENDBRANCH   2   7
TORSDOF 14
ENDMDL
MODEL 2
REMARK VINA RESULT:      -5.1      3.166      4.590
REMARK  14 active torsions:
REMARK  status: ('A' for Active; 'I' for Inactive)
REMARK    1  A    between atoms: O_2  and  C_18 
REMARK    2  A    between atoms: C_5  and  C_8 
REMARK    3  A    between atoms: C_5  and  O_35 
REMARK    4  A    between atoms: C_5  and  C_36 
REMARK    5  A    between atoms: N_6  and  C_11 
REMARK    6  A    between atoms: N_7  and  C_15 
REMARK       I    between atoms: N_7  and  C_24 
REMARK    7  A    between atoms: C_8  and  C_23 
REMARK    8  A    between atoms: C_11  and  C_14 
REMARK    9  A    between atoms: C_15  and  C_18 
REMARK   10  A    between atoms: C_15  and  C_23 
REMARK   11  A    between atoms: C_21  and  C_26 
REMARK   12  A    between atoms: C_24  and  C_25 
REMARK   13  A    between atoms: C_29  and  C_32 
REMARK   14  A    between atoms: C_36  and  O_39 
ROOT
HETATM    1  O   UNL     1      16.464   2.611  92.668  1.00  0.00    -0.350 OA
HETATM    2  N   UNL     1      13.640   2.893  92.888  1.00  0.00     0.147 N 
HETATM    3  C   UNL     1      14.390   1.974  93.755  1.00  0.00     0.283 C 
HETATM    4  C   UNL     1      14.330   3.044  91.599  1.00  0.00     0.283 C 
HETATM    5  C   UNL     1      15.818   2.483  93.936  1.00  0.00     0.178 C 
HETATM    6  C   UNL     1      15.758   3.527  91.830  1.00  0.00     0.178 C 
ENDROOT
BRANCH   2   7
HETATM    7  C   UNL     1      12.271   2.418  92.692  1.00  0.00     0.277 C 
BRANCH   7   8
HETATM    8  C   UNL     1      11.272   3.522  92.762  1.00  0.00     0.011 A 
HETATM    9  C   UNL     1      11.369   4.487  93.766  1.00  0.00    -0.002 A 
HETATM   10  C   UNL     1      10.434   5.519  93.834  1.00  0.00     0.008 A 
HETATM   11  C   UNL     1       9.403   5.587  92.896  1.00  0.00     0.042 A 
HETATM   12  C   UNL     1       9.306   4.625  91.893  1.00  0.00     0.008 A 
HETATM   13  C   UNL     1      10.240   3.592  91.826  1.00  0.00    -0.002 A 
BRANCH  11  14
HETATM   14  C   UNL     1       8.445   6.648  92.965  1.00  0.00    -0.059 C 
HETATM   15  C   UNL     1       7.639   7.538  93.023  1.00  0.00    -0.059 C 
BRANCH  15  16
HETATM   16  C   UNL     1       6.682   8.598  93.092  1.00  0.00     0.042 A 
HETATM   17  C   UNL     1       7.037   9.885  92.687  1.00  0.00     0.008 A 
HETATM   18  C   UNL     1       6.102  10.918  92.752  1.00  0.00     0.005 A 
HETATM   19  C   UNL     1       4.835  10.642  93.219  1.00  0.00     0.056 A 
HETATM   20  C   UNL     1       4.459   9.379  93.626  1.00  0.00     0.005 A 
HETATM   21  C   UNL     1       5.393   8.345  93.562  1.00  0.00     0.008 A 
BRANCH  19  22
HETATM   22  C   UNL     1       3.840  11.743  93.290  1.00  0.00     0.254 C 
HETATM   23  O   UNL     1       2.939  11.685  94.124  1.00  0.00    -0.268 OA
HETATM   24  N   UNL     1       4.028  12.791  92.399  1.00  0.00    -0.335 N 
HETATM   25  HN  UNL     1       4.810  12.782  91.755  1.00  0.00     0.164 HD
BRANCH  24  26
HETATM   26  C   UNL     1       3.162  13.942  92.361  1.00  0.00     0.169 C 
BRANCH  26  27
HETATM   27  C   UNL     1       3.881  15.238  92.754  1.00  0.00     0.138 C 
HETATM   28  C   UNL     1       4.551  15.143  94.121  1.00  0.00     0.034 C 
BRANCH  27  29
HETATM   29  O   UNL     1       4.871  15.551  91.774  1.00  0.00    -0.383 OA
HETATM   30  H   UNL     1       5.054  14.748  91.259  1.00  0.00     0.210 HD
ENDBRANCH  27  29
ENDBRANCH  26  27
BRANCH  26  31
HETATM   31  C   UNL     1       2.575  14.037  90.957  1.00  0.00     0.194 C 
HETATM   32  O   UNL     1       1.780  14.913  90.622  1.00  0.00    -0.289 OA
BRANCH  31  33
HETATM   33  C   UNL     1       3.007  13.019  90.143  1.00  0.00     0.053 C 
BRANCH  33  34
HETATM   34  C   UNL     1       3.622  13.414  88.946  1.00  0.00     0.220 C 
BRANCH  34  35
HETATM   35  O   UNL     1       4.338  14.402  89.195  1.00  0.00    -0.371 OA
HETATM   36  H   UNL     1       4.606  14.156  90.067  1.00  0.00     0.211 HD
ENDBRANCH  34  35
BRANCH  34  37
HETATM   37  C   UNL     1       4.338  12.381  88.317  1.00  0.00     0.185 C 
HETATM   38  O   UNL     1       5.226  12.635  89.265  1.00  0.00    -0.647 OA
BRANCH  37  39
HETATM   39  O   UNL     1       4.198  11.676  87.362  1.00  0.00    -0.774 OA
HETATM   40  H   UNL     1       3.103  11.536  87.103  1.00  0.00     0.167 HD
ENDBRANCH  37  39
ENDBRANCH  34  37
ENDBRANCH  33  34
ENDBRANCH  31  33
ENDBRANCH  26  31
ENDBRANCH  24  26
ENDBRANCH  19  22
ENDBRANCH  15  16
ENDBRANCH  11  14
ENDBRANCH   7   8
ENDBRANCH   2   7
TORSDOF 14
ENDMDL
MODEL 3
REMARK VINA RESULT:      -5.0      3.569     12.566
REMARK  14 active torsions:
REMARK  status: ('A' for Active; 'I' for Inactive)
REMARK    1  A    between atoms: O_2  and  C_18 
REMARK    2  A    between atoms: C_5  and  C_8 
REMARK    3  A    between atoms: C_5  and  O_35 
REMARK    4  A    between atoms: C_5  and  C_36 
REMARK    5  A    between atoms: N_6  and  C_11 
REMARK    6  A    between atoms: N_7  and  C_15 
REMARK       I    between atoms: N_7  and  C_24 
REMARK    7  A    between atoms: C_8  and  C_23 
REMARK    8  A    between atoms: C_11  and  C_14 
REMARK    9  A    between atoms: C_15  and  C_18 
REMARK   10  A    between atoms: C_15  and  C_23 
REMARK   11  A    between atoms: C_21  and  C_26 
REMARK   12  A    between atoms: C_24  and  C_25 
REMARK   13  A    between atoms: C_29  and  C_32 
REMARK   14  A    between atoms: C_36  and  O_39 
ROOT
HETATM    1  O   UNL     1       3.215  14.827  94.078  1.00  0.00    -0.350 OA
HETATM    2  N   UNL     1       2.861  14.648  91.259  1.00  0.00     0.147 N 
HETATM    3  C   UNL     1       1.871  14.095  92.194  1.00  0.00     0.283 C 
HETATM    4  C   UNL     1       4.197  14.625  91.869  1.00  0.00     0.283 C 
HETATM    5  C   UNL     1       1.906  14.875  93.506  1.00  0.00     0.178 C 
HETATM    6  C   UNL     1       4.178  15.391  93.187  1.00  0.00     0.178 C 
ENDROOT
BRANCH   2   7
HETATM    7  C   UNL     1       2.852  13.908  89.998  1.00  0.00     0.277 C 
BRANCH   7   8
HETATM    8  C   UNL     1       3.795  12.753  90.011  1.00  0.00     0.011 A 
HETATM    9  C   UNL     1       3.500  11.621  90.771  1.00  0.00    -0.002 A 
HETATM   10  C   UNL     1       4.382  10.541  90.785  1.00  0.00     0.008 A 
HETATM   11  C   UNL     1       5.558  10.593  90.037  1.00  0.00     0.042 A 
HETATM   12  C   UNL     1       5.853  11.723  89.277  1.00  0.00     0.008 A 
HETATM   13  C   UNL     1       4.971  12.803  89.263  1.00  0.00    -0.002 A 
BRANCH  11  14
HETATM   14  C   UNL     1       6.462   9.484  90.050  1.00  0.00    -0.059 C 
HETATM   15  C   UNL     1       7.221   8.552  90.061  1.00  0.00    -0.059 C 
BRANCH  15  16
HETATM   16  C   UNL     1       8.124   7.443  90.074  1.00  0.00     0.042 A 
HETATM   17  C   UNL     1       8.113   6.548  91.144  1.00  0.00     0.008 A 
HETATM   18  C   UNL     1       8.992   5.465  91.155  1.00  0.00     0.005 A 
HETATM   19  C   UNL     1       9.860   5.301  90.096  1.00  0.00     0.056 A 
HETATM   20  C   UNL     1       9.891   6.172  89.027  1.00  0.00     0.005 A 
HETATM   21  C   UNL     1       9.012   7.255  89.015  1.00  0.00     0.008 A 
BRANCH  19  22
HETATM   22  C   UNL     1      10.798   4.148  90.109  1.00  0.00     0.254 C 
HETATM   23  O   UNL     1      10.505   3.130  89.488  1.00  0.00    -0.268 OA
HETATM   24  N   UNL     1      11.974   4.329  90.823  1.00  0.00    -0.335 N 
HETATM   25  HN  UNL     1      12.160   5.208  91.291  1.00  0.00     0.164 HD
BRANCH  24  26
HETATM   26  C   UNL     1      12.993   3.314  90.909  1.00  0.00     0.169 C 
BRANCH  26  27
HETATM   27  C   UNL     1      14.412   3.884  90.789  1.00  0.00     0.138 C 
HETATM   28  C   UNL     1      15.270   3.111  89.794  1.00  0.00     0.034 C 
BRANCH  27  29
HETATM   29  O   UNL     1      14.344   5.250  90.378  1.00  0.00    -0.383 OA
HETATM   30  H   UNL     1      15.092   5.427  89.784  1.00  0.00     0.210 HD
ENDBRANCH  27  29
ENDBRANCH  26  27
BRANCH  26  31
HETATM   31  C   UNL     1      12.803   2.575  92.230  1.00  0.00     0.194 C 
HETATM   32  O   UNL     1      12.268   1.470  92.308  1.00  0.00    -0.289 OA
BRANCH  31  33
HETATM   33  C   UNL     1      13.260   3.302  93.302  1.00  0.00     0.053 C 
BRANCH  33  34
HETATM   34  C   UNL     1      14.377   2.774  93.965  1.00  0.00     0.220 C 
BRANCH  34  35
HETATM   35  O   UNL     1      14.567   1.621  93.532  1.00  0.00    -0.371 OA
HETATM   36  H   UNL     1      14.896   1.854  92.677  1.00  0.00     0.211 HD
ENDBRANCH  34  35
BRANCH  34  37
HETATM   37  C   UNL     1      15.524   3.579  93.860  1.00  0.00     0.185 C 
HETATM   38  O   UNL     1      16.068   2.466  93.393  1.00  0.00    -0.647 OA
BRANCH  37  39
HETATM   39  O   UNL     1      15.829   4.704  94.122  1.00  0.00    -0.774 OA
HETATM   40  H   UNL     1      14.961   5.419  93.971  1.00  0.00     0.167 HD
ENDBRANCH  37  39
ENDBRANCH  34  37
ENDBRANCH  33  34
ENDBRANCH  31  33
ENDBRANCH  26  31
ENDBRANCH  24  26
ENDBRANCH  19  22
ENDBRANCH  15  16
ENDBRANCH  11  14
ENDBRANCH   7   8
ENDBRANCH   2   7
TORSDOF 14
ENDMDL
MODEL 4
REMARK VINA RESULT:      -4.6      2.440      3.676
REMARK  14 active torsions:
REMARK  status: ('A' for Active; 'I' for Inactive)
REMARK    1  A    between atoms: O_2  and  C_18 
REMARK    2  A    between atoms: C_5  and  C_8 
REMARK    3  A    between atoms: C_5  and  O_35 
REMARK    4  A    between atoms: C_5  and  C_36 
REMARK    5  A    between atoms: N_6  and  C_11 
REMARK    6  A    between atoms: N_7  and  C_15 
REMARK       I    between atoms: N_7  and  C_24 
REMARK    7  A    between atoms: C_8  and  C_23 
REMARK    8  A    between atoms: C_11  and  C_14 
REMARK    9  A    between atoms: C_15  and  C_18 
REMARK   10  A    between atoms: C_15  and  C_23 
REMARK   11  A    between atoms: C_21  and  C_26 
REMARK   12  A    between atoms: C_24  and  C_25 
REMARK   13  A    between atoms: C_29  and  C_32 
REMARK   14  A    between atoms: C_36  and  O_39 
ROOT
HETATM    1  O   UNL     1      17.104   4.252  93.680  1.00  0.00    -0.350 OA
HETATM    2  N   UNL     1      14.682   2.759  93.763  1.00  0.00     0.147 N 
HETATM    3  C   UNL     1      15.946   2.147  93.332  1.00  0.00     0.283 C 
HETATM    4  C   UNL     1      14.689   4.196  93.460  1.00  0.00     0.283 C 
HETATM    5  C   UNL     1      17.120   2.859  94.000  1.00  0.00     0.178 C 
HETATM    6  C   UNL     1      15.890   4.860  94.124  1.00  0.00     0.178 C 
ENDROOT
BRANCH   2   7
HETATM    7  C   UNL     1      13.544   2.098  93.126  1.00  0.00     0.277 C 
BRANCH   7   8
HETATM    8  C   UNL     1      12.368   3.004  92.984  1.00  0.00     0.011 A 
HETATM    9  C   UNL     1      12.162   4.028  93.909  1.00  0.00    -0.002 A 
HETATM   10  C   UNL     1      11.062   4.875  93.778  1.00  0.00     0.008 A 
HETATM   11  C   UNL     1      10.169   4.698  92.722  1.00  0.00     0.042 A 
HETATM   12  C   UNL     1      10.373   3.676  91.797  1.00  0.00     0.008 A 
HETATM   13  C   UNL     1      11.473   2.828  91.928  1.00  0.00    -0.002 A 
BRANCH  11  14
HETATM   14  C   UNL     1       9.041   5.568  92.587  1.00  0.00    -0.059 C 
HETATM   15  C   UNL     1       8.093   6.299  92.472  1.00  0.00    -0.059 C 
BRANCH  15  16
HETATM   16  C   UNL     1       6.965   7.167  92.337  1.00  0.00     0.042 A 
HETATM   17  C   UNL     1       5.684   6.630  92.208  1.00  0.00     0.008 A 
HETATM   18  C   UNL     1       4.584   7.478  92.079  1.00  0.00     0.005 A 
HETATM   19  C   UNL     1       4.789   8.842  92.083  1.00  0.00     0.056 A 
HETATM   20  C   UNL     1       6.045   9.397  92.209  1.00  0.00     0.005 A 
HETATM   21  C   UNL     1       7.146   8.550  92.338  1.00  0.00     0.008 A 
BRANCH  19  22
HETATM   22  C   UNL     1       3.617   9.744  91.944  1.00  0.00     0.254 C 
HETATM   23  O   UNL     1       2.487   9.288  92.099  1.00  0.00    -0.268 OA
HETATM   24  N   UNL     1       3.903  11.073  91.665  1.00  0.00    -0.335 N 
HETATM   25  HN  UNL     1       4.863  11.383  91.575  1.00  0.00     0.164 HD
BRANCH  24  26
HETATM   26  C   UNL     1       2.876  12.075  91.525  1.00  0.00     0.169 C 
BRANCH  26  27
HETATM   27  C   UNL     1       2.961  13.167  92.599  1.00  0.00     0.138 C 
HETATM   28  C   UNL     1       1.628  13.871  92.823  1.00  0.00     0.034 C 
BRANCH  27  29
HETATM   29  O   UNL     1       3.394  12.591  93.831  1.00  0.00    -0.383 OA
HETATM   30  H   UNL     1       2.811  12.912  94.539  1.00  0.00     0.210 HD
ENDBRANCH  27  29
ENDBRANCH  26  27
BRANCH  26  31
HETATM   31  C   UNL     1       2.989  12.665  90.124  1.00  0.00     0.194 C 
HETATM   32  O   UNL     1       2.451  13.721  89.797  1.00  0.00    -0.289 OA
BRANCH  31  33
HETATM   33  C   UNL     1       3.720  11.864  89.280  1.00  0.00     0.053 C 
BRANCH  33  34
HETATM   34  C   UNL     1       2.987  10.918  88.550  1.00  0.00     0.220 C 
BRANCH  34  35
HETATM   35  O   UNL     1       2.573  11.474  87.515  1.00  0.00    -0.371 OA
HETATM   36  H   UNL     1       1.699  11.114  87.512  1.00  0.00     0.211 HD
ENDBRANCH  34  35
BRANCH  34  37
HETATM   37  C   UNL     1       3.708   9.743  88.273  1.00  0.00     0.185 C 
HETATM   38  O   UNL     1       4.369  10.535  87.443  1.00  0.00    -0.647 OA
BRANCH  37  39
HETATM   39  O   UNL     1       3.675   8.598  88.610  1.00  0.00    -0.774 OA
HETATM   40  H   UNL     1       2.930   8.003  87.995  1.00  0.00     0.167 HD
ENDBRANCH  37  39
ENDBRANCH  34  37
ENDBRANCH  33  34
ENDBRANCH  31  33
ENDBRANCH  26  31
ENDBRANCH  24  26
ENDBRANCH  19  22
ENDBRANCH  15  16
ENDBRANCH  11  14
ENDBRANCH   7   8
ENDBRANCH   2   7
TORSDOF 14
ENDMDL
MODEL 5
REMARK VINA RESULT:      -4.5      2.262      3.891
REMARK  14 active torsions:
REMARK  status: ('A' for Active; 'I' for Inactive)
REMARK    1  A    between atoms: O_2  and  C_18 
REMARK    2  A    between atoms: C_5  and  C_8 
REMARK    3  A    between atoms: C_5  and  O_35 
REMARK    4  A    between atoms: C_5  and  C_36 
REMARK    5  A    between atoms: N_6  and  C_11 
REMARK    6  A    between atoms: N_7  and  C_15 
REMARK       I    between atoms: N_7  and  C_24 
REMARK    7  A    between atoms: C_8  and  C_23 
REMARK    8  A    between atoms: C_11  and  C_14 
REMARK    9  A    between atoms: C_15  and  C_18 
REMARK   10  A    between atoms: C_15  and  C_23 
REMARK   11  A    between atoms: C_21  and  C_26 
REMARK   12  A    between atoms: C_24  and  C_25 
REMARK   13  A    between atoms: C_29  and  C_32 
REMARK   14  A    between atoms: C_36  and  O_39 
ROOT
HETATM    1  O   UNL     1      17.201   4.206  93.177  1.00  0.00    -0.350 OA
HETATM    2  N   UNL     1      14.799   2.715  93.512  1.00  0.00     0.147 N 
HETATM    3  C   UNL     1      15.844   2.287  92.572  1.00  0.00     0.283 C 
HETATM    4  C   UNL     1      14.824   4.177  93.660  1.00  0.00     0.283 C 
HETATM    5  C   UNL     1      17.206   2.783  93.051  1.00  0.00     0.178 C 
HETATM    6  C   UNL     1      16.208   4.629  94.113  1.00  0.00     0.178 C 
ENDROOT
BRANCH   2   7
HETATM    7  C   UNL     1      13.484   2.259  93.067  1.00  0.00     0.277 C 
BRANCH   7   8
HETATM    8  C   UNL     1      12.514   3.382  92.919  1.00  0.00     0.011 A 
HETATM    9  C   UNL     1      12.164   3.837  91.647  1.00  0.00    -0.002 A 
HETATM   10  C   UNL     1      11.259   4.889  91.508  1.00  0.00     0.008 A 
HETATM   11  C   UNL     1      10.702   5.483  92.640  1.00  0.00     0.042 A 
HETATM   12  C   UNL     1      11.050   5.029  93.910  1.00  0.00     0.008 A 
HETATM   13  C   UNL     1      11.956   3.978  94.050  1.00  0.00    -0.002 A 
BRANCH  11  14
HETATM   14  C   UNL     1       9.771   6.560  92.497  1.00  0.00    -0.059 C 
HETATM   15  C   UNL     1       8.988   7.465  92.377  1.00  0.00    -0.059 C 
BRANCH  15  16
HETATM   16  C   UNL     1       8.059   8.542  92.235  1.00  0.00     0.042 A 
HETATM   17  C   UNL     1       7.658   9.269  93.356  1.00  0.00     0.008 A 
HETATM   18  C   UNL     1       6.753  10.321  93.217  1.00  0.00     0.005 A 
HETATM   19  C   UNL     1       6.270  10.623  91.961  1.00  0.00     0.056 A 
HETATM   20  C   UNL     1       6.650   9.919  90.837  1.00  0.00     0.005 A 
HETATM   21  C   UNL     1       7.555   8.866  90.975  1.00  0.00     0.008 A 
BRANCH  19  22
HETATM   22  C   UNL     1       5.304  11.742  91.813  1.00  0.00     0.254 C 
HETATM   23  O   UNL     1       4.721  12.167  92.808  1.00  0.00    -0.268 OA
HETATM   24  N   UNL     1       5.152  12.249  90.530  1.00  0.00    -0.335 N 
HETATM   25  HN  UNL     1       5.686  11.864  89.760  1.00  0.00     0.164 HD
BRANCH  24  26
HETATM   26  C   UNL     1       4.272  13.349  90.230  1.00  0.00     0.169 C 
BRANCH  26  27
HETATM   27  C   UNL     1       4.811  14.253  89.114  1.00  0.00     0.138 C 
HETATM   28  C   UNL     1       5.601  15.440  89.654  1.00  0.00     0.034 C 
BRANCH  27  29
HETATM   29  O   UNL     1       5.652  13.492  88.247  1.00  0.00    -0.383 OA
HETATM   30  H   UNL     1       6.081  12.796  88.773  1.00  0.00     0.210 HD
ENDBRANCH  27  29
ENDBRANCH  26  27
BRANCH  26  31
HETATM   31  C   UNL     1       2.909  12.770  89.865  1.00  0.00     0.194 C 
HETATM   32  O   UNL     1       1.871  13.083  90.444  1.00  0.00    -0.289 OA
BRANCH  31  33
HETATM   33  C   UNL     1       2.993  11.844  88.853  1.00  0.00     0.053 C 
BRANCH  33  34
HETATM   34  C   UNL     1       3.270  10.529  89.252  1.00  0.00     0.220 C 
BRANCH  34  35
HETATM   35  O   UNL     1       2.601  10.292  90.276  1.00  0.00    -0.371 OA
HETATM   36  H   UNL     1       3.262  10.501  90.918  1.00  0.00     0.211 HD
ENDBRANCH  34  35
BRANCH  34  37
HETATM   37  C   UNL     1       3.051   9.578  88.240  1.00  0.00     0.185 C 
HETATM   38  O   UNL     1       4.080  10.185  87.669  1.00  0.00    -0.647 OA
BRANCH  37  39
HETATM   39  O   UNL     1       2.272   8.700  88.019  1.00  0.00    -0.774 OA
HETATM   40  H   UNL     1       2.285   8.394  86.927  1.00  0.00     0.167 HD
ENDBRANCH  37  39
ENDBRANCH  34  37
ENDBRANCH  33  34
ENDBRANCH  31  33
ENDBRANCH  26  31
ENDBRANCH  24  26
ENDBRANCH  19  22
ENDBRANCH  15  16
ENDBRANCH  11  14
ENDBRANCH   7   8
ENDBRANCH   2   7
TORSDOF 14
ENDMDL
MODEL 6
REMARK VINA RESULT:      -4.5      3.746     12.086
REMARK  14 active torsions:
REMARK  status: ('A' for Active; 'I' for Inactive)
REMARK    1  A    between atoms: O_2  and  C_18 
REMARK    2  A    between atoms: C_5  and  C_8 
REMARK    3  A    between atoms: C_5  and  O_35 
REMARK    4  A    between atoms: C_5  and  C_36 
REMARK    5  A    between atoms: N_6  and  C_11 
REMARK    6  A    between atoms: N_7  and  C_15 
REMARK       I    between atoms: N_7  and  C_24 
REMARK    7  A    between atoms: C_8  and  C_23 
REMARK    8  A    between atoms: C_11  and  C_14 
REMARK    9  A    between atoms: C_15  and  C_18 
REMARK   10  A    between atoms: C_15  and  C_23 
REMARK   11  A    between atoms: C_21  and  C_26 
REMARK   12  A    between atoms: C_24  and  C_25 
REMARK   13  A    between atoms: C_29  and  C_32 
REMARK   14  A    between atoms: C_36  and  O_39 
ROOT
HETATM    1  O   UNL     1       2.765  14.616  93.992  1.00  0.00    -0.350 OA
HETATM    2  N   UNL     1       2.573  14.722  91.154  1.00  0.00     0.147 N 
HETATM    3  C   UNL     1       1.562  14.032  91.966  1.00  0.00     0.283 C 
HETATM    4  C   UNL     1       3.874  14.691  91.836  1.00  0.00     0.283 C 
HETATM    5  C   UNL     1       1.489  14.669  93.351  1.00  0.00     0.178 C 
HETATM    6  C   UNL     1       3.747  15.312  93.223  1.00  0.00     0.178 C 
ENDROOT
BRANCH   2   7
HETATM    7  C   UNL     1       2.668  14.121  89.825  1.00  0.00     0.277 C 
BRANCH   7   8
HETATM    8  C   UNL     1       3.663  13.012  89.773  1.00  0.00     0.011 A 
HETATM    9  C   UNL     1       3.303  11.732  90.195  1.00  0.00    -0.002 A 
HETATM   10  C   UNL     1       4.234  10.695  90.149  1.00  0.00     0.008 A 
HETATM   11  C   UNL     1       5.524  10.937  89.679  1.00  0.00     0.042 A 
HETATM   12  C   UNL     1       5.885  12.215  89.257  1.00  0.00     0.008 A 
HETATM   13  C   UNL     1       4.955  13.253  89.304  1.00  0.00    -0.002 A 
BRANCH  11  14
HETATM   14  C   UNL     1       6.478   9.872  89.630  1.00  0.00    -0.059 C 
HETATM   15  C   UNL     1       7.280   8.977  89.589  1.00  0.00    -0.059 C 
BRANCH  15  16
HETATM   16  C   UNL     1       8.233   7.912  89.539  1.00  0.00     0.042 A 
HETATM   17  C   UNL     1       7.837   6.609  89.840  1.00  0.00     0.008 A 
HETATM   18  C   UNL     1       8.766   5.570  89.789  1.00  0.00     0.005 A 
HETATM   19  C   UNL     1      10.069   5.857  89.438  1.00  0.00     0.056 A 
HETATM   20  C   UNL     1      10.485   7.137  89.136  1.00  0.00     0.005 A 
HETATM   21  C   UNL     1       9.556   8.177  89.187  1.00  0.00     0.008 A 
BRANCH  19  22
HETATM   22  C   UNL     1      11.059   4.750  89.385  1.00  0.00     0.254 C 
HETATM   23  O   UNL     1      11.168   4.092  88.354  1.00  0.00    -0.268 OA
HETATM   24  N   UNL     1      11.819   4.560  90.531  1.00  0.00    -0.335 N 
HETATM   25  HN  UNL     1      11.690   5.160  91.337  1.00  0.00     0.164 HD
BRANCH  24  26
HETATM   26  C   UNL     1      12.836   3.544  90.627  1.00  0.00     0.169 C 
BRANCH  26  27
HETATM   27  C   UNL     1      14.250   4.128  90.742  1.00  0.00     0.138 C 
HETATM   28  C   UNL     1      14.656   4.392  92.187  1.00  0.00     0.034 C 
BRANCH  27  29
HETATM   29  O   UNL     1      15.188   3.227  90.154  1.00  0.00    -0.383 OA
HETATM   30  H   UNL     1      15.879   3.036  90.810  1.00  0.00     0.210 HD
ENDBRANCH  27  29
ENDBRANCH  26  27
BRANCH  26  31
HETATM   31  C   UNL     1      12.501   2.661  91.825  1.00  0.00     0.194 C 
HETATM   32  O   UNL     1      13.289   1.841  92.293  1.00  0.00    -0.289 OA
BRANCH  31  33
HETATM   33  C   UNL     1      11.221   2.866  92.279  1.00  0.00     0.053 C 
BRANCH  33  34
HETATM   34  C   UNL     1      11.094   3.740  93.369  1.00  0.00     0.220 C 
BRANCH  34  35
HETATM   35  O   UNL     1      12.236   3.967  93.810  1.00  0.00    -0.371 OA
HETATM   36  H   UNL     1      12.230   4.908  93.717  1.00  0.00     0.211 HD
ENDBRANCH  34  35
BRANCH  34  37
HETATM   37  C   UNL     1      10.396   4.921  93.061  1.00  0.00     0.185 C 
HETATM   38  O   UNL     1       9.484   4.074  92.608  1.00  0.00    -0.647 OA
BRANCH  37  39
HETATM   39  O   UNL     1      10.590   6.097  93.140  1.00  0.00    -0.774 OA
HETATM   40  H   UNL     1       9.834   6.600  93.820  1.00  0.00     0.167 HD
ENDBRANCH  37  39
ENDBRANCH  34  37
ENDBRANCH  33  34
ENDBRANCH  31  33
ENDBRANCH  26  31
ENDBRANCH  24  26
ENDBRANCH  19  22
ENDBRANCH  15  16
ENDBRANCH  11  14
ENDBRANCH   7   8
ENDBRANCH   2   7
TORSDOF 14
ENDMDL
MODEL 7
REMARK VINA RESULT:      -3.7      2.476      3.567
REMARK  14 active torsions:
REMARK  status: ('A' for Active; 'I' for Inactive)
REMARK    1  A    between atoms: O_2  and  C_18 
REMARK    2  A    between atoms: C_5  and  C_8 
REMARK    3  A    between atoms: C_5  and  O_35 
REMARK    4  A    between atoms: C_5  and  C_36 
REMARK    5  A    between atoms: N_6  and  C_11 
REMARK    6  A    between atoms: N_7  and  C_15 
REMARK       I    between atoms: N_7  and  C_24 
REMARK    7  A    between atoms: C_8  and  C_23 
REMARK    8  A    between atoms: C_11  and  C_14 
REMARK    9  A    between atoms: C_15  and  C_18 
REMARK   10  A    between atoms: C_15  and  C_23 
REMARK   11  A    between atoms: C_21  and  C_26 
REMARK   12  A    between atoms: C_24  and  C_25 
REMARK   13  A    between atoms: C_29  and  C_32 
REMARK   14  A    between atoms: C_36  and  O_39 
ROOT
HETATM    1  O   UNL     1      16.648   3.332  94.018  1.00  0.00    -0.350 OA
HETATM    2  N   UNL     1      14.168   3.053  92.648  1.00  0.00     0.147 N 
HETATM    3  C   UNL     1      15.060   1.906  92.862  1.00  0.00     0.283 C 
HETATM    4  C   UNL     1      14.953   4.294  92.573  1.00  0.00     0.283 C 
HETATM    5  C   UNL     1      15.891   2.125  94.124  1.00  0.00     0.178 C 
HETATM    6  C   UNL     1      15.786   4.457  93.840  1.00  0.00     0.178 C 
ENDROOT
BRANCH   2   7
HETATM    7  C   UNL     1      13.370   2.870  91.437  1.00  0.00     0.277 C 
BRANCH   7   8
HETATM    8  C   UNL     1      12.160   3.741  91.417  1.00  0.00     0.011 A 
HETATM    9  C   UNL     1      11.515   4.066  92.611  1.00  0.00    -0.002 A 
HETATM   10  C   UNL     1      10.382   4.879  92.593  1.00  0.00     0.008 A 
HETATM   11  C   UNL     1       9.896   5.369  91.381  1.00  0.00     0.042 A 
HETATM   12  C   UNL     1      10.539   5.045  90.188  1.00  0.00     0.008 A 
HETATM   13  C   UNL     1      11.672   4.231  90.206  1.00  0.00    -0.002 A 
BRANCH  11  14
HETATM   14  C   UNL     1       8.735   6.205  91.363  1.00  0.00    -0.059 C 
HETATM   15  C   UNL     1       7.759   6.907  91.347  1.00  0.00    -0.059 C 
BRANCH  15  16
HETATM   16  C   UNL     1       6.599   7.742  91.329  1.00  0.00     0.042 A 
HETATM   17  C   UNL     1       5.388   7.240  90.851  1.00  0.00     0.008 A 
HETATM   18  C   UNL     1       4.255   8.054  90.836  1.00  0.00     0.005 A 
HETATM   19  C   UNL     1       4.358   9.349  91.300  1.00  0.00     0.056 A 
HETATM   20  C   UNL     1       5.543   9.868  91.778  1.00  0.00     0.005 A 
HETATM   21  C   UNL     1       6.677   9.055  91.793  1.00  0.00     0.008 A 
BRANCH  19  22
HETATM   22  C   UNL     1       3.151  10.216  91.282  1.00  0.00     0.254 C 
HETATM   23  O   UNL     1       2.067   9.728  90.975  1.00  0.00    -0.268 OA
HETATM   24  N   UNL     1       3.349  11.540  91.647  1.00  0.00    -0.335 N 
HETATM   25  HN  UNL     1       4.270  11.867  91.913  1.00  0.00     0.164 HD
BRANCH  24  26
HETATM   26  C   UNL     1       2.274  12.498  91.703  1.00  0.00     0.169 C 
BRANCH  26  27
HETATM   27  C   UNL     1       1.952  12.948  93.133  1.00  0.00     0.138 C 
HETATM   28  C   UNL     1       3.050  12.574  94.123  1.00  0.00     0.034 C 
BRANCH  27  29
HETATM   29  O   UNL     1       1.767  14.363  93.159  1.00  0.00    -0.383 OA
HETATM   30  H   UNL     1       2.389  14.740  93.804  1.00  0.00     0.210 HD
ENDBRANCH  27  29
ENDBRANCH  26  27
BRANCH  26  31
HETATM   31  C   UNL     1       2.660  13.682  90.823  1.00  0.00     0.194 C 
HETATM   32  O   UNL     1       1.842  14.498  90.402  1.00  0.00    -0.289 OA
BRANCH  31  33
HETATM   33  C   UNL     1       4.003  13.699  90.534  1.00  0.00     0.053 C 
BRANCH  33  34
HETATM   34  C   UNL     1       4.344  14.133  89.245  1.00  0.00     0.220 C 
BRANCH  34  35
HETATM   35  O   UNL     1       5.101  15.115  89.363  1.00  0.00    -0.371 OA
HETATM   36  H   UNL     1       4.487  15.786  89.104  1.00  0.00     0.211 HD
ENDBRANCH  34  35
BRANCH  34  37
HETATM   37  C   UNL     1       4.903  13.122  88.444  1.00  0.00     0.185 C 
HETATM   38  O   UNL     1       5.463  12.749  89.584  1.00  0.00    -0.647 OA
BRANCH  37  39
HETATM   39  O   UNL     1       4.891  12.815  87.289  1.00  0.00    -0.774 OA
HETATM   40  H   UNL     1       5.281  11.762  87.132  1.00  0.00     0.167 HD
ENDBRANCH  37  39
ENDBRANCH  34  37
ENDBRANCH  33  34
ENDBRANCH  31  33
ENDBRANCH  26  31
ENDBRANCH  24  26
ENDBRANCH  19  22
ENDBRANCH  15  16
ENDBRANCH  11  14
ENDBRANCH   7   8
ENDBRANCH   2   7
TORSDOF 14
ENDMDL
