MODEL 1
REMARK VINA RESULT:      -7.1      0.000      0.000
REMARK  10 active torsions:
REMARK  status: ('A' for Active; 'I' for Inactive)
REMARK    1  A    between atoms: O_2  and  C_18 
REMARK    2  A    between atoms: O_5  and  N_8 
REMARK    3  A    between atoms: N_6  and  C_11 
REMARK    4  A    between atoms: N_7  and  C_15 
REMARK       I    between atoms: N_7  and  C_24 
REMARK       I    between atoms: N_8  and  C_23 
REMARK    5  A    between atoms: C_11  and  C_14 
REMARK    6  A    between atoms: C_15  and  C_18 
REMARK    7  A    between atoms: C_15  and  C_23 
REMARK    8  A    between atoms: C_21  and  C_26 
REMARK    9  A    between atoms: C_24  and  C_25 
REMARK   10  A    between atoms: C_29  and  C_32 
ROOT
HETATM    1  O   UNK     0      16.544   4.335  94.099  0.00  0.00    -0.388 OA
HETATM    2  N   UNK     0      14.757   2.599  92.721  0.00  0.00     0.096 N 
HETATM    3  C   UNK     0      14.587   4.059  92.690  0.00  0.00     0.299 C 
HETATM    4  C   UNK     0      15.407   2.195  93.974  0.00  0.00     0.299 C 
HETATM    5  C   UNK     0      15.941   4.741  92.868  0.00  0.00     0.198 C 
HETATM    6  C   UNK     0      16.741   2.920  94.124  0.00  0.00     0.198 C 
ENDROOT
BRANCH   2   7
HETATM    7  C   UNK     0      13.470   1.925  92.561  0.00  0.00     0.311 C 
BRANCH   7   8
HETATM    8  C   UNK     0      12.369   2.873  92.230  0.00  0.00    -0.030 A 
HETATM    9  C   UNK     0      11.946   3.015  90.907  0.00  0.00     0.010 A 
HETATM   10  C   UNK     0      10.918   3.904  90.595  0.00  0.00     0.021 A 
HETATM   11  C   UNK     0      10.311   4.648  91.606  0.00  0.00     0.018 A 
HETATM   12  C   UNK     0      10.732   4.508  92.927  0.00  0.00     0.021 A 
HETATM   13  C   UNK     0      11.761   3.620  93.239  0.00  0.00     0.010 A 
BRANCH  11  14
HETATM   14  C   UNK     0       9.254   5.558  91.286  0.00  0.00    -0.061 C 
HETATM   15  C   UNK     0       8.366   6.323  91.017  0.00  0.00    -0.061 C 
BRANCH  15  16
HETATM   16  C   UNK     0       7.312   7.233  90.698  0.00  0.00     0.018 A 
HETATM   17  C   UNK     0       7.468   8.597  90.949  0.00  0.00     0.022 A 
HETATM   18  C   UNK     0       6.439   9.485  90.636  0.00  0.00     0.018 A 
HETATM   19  C   UNK     0       5.278   8.992  90.080  0.00  0.00     0.032 A 
HETATM   20  C   UNK     0       5.098   7.649  89.823  0.00  0.00     0.018 A 
HETATM   21  C   UNK     0       6.126   6.760  90.136  0.00  0.00     0.022 A 
BRANCH  19  22
HETATM   22  C   UNK     0       4.182   9.939  89.749  0.00  0.00     0.252 C 
HETATM   23  O   UNK     0       3.173   9.516  89.188  0.00  0.00    -0.268 OA
HETATM   24  N   UNK     0       4.381  11.258  90.132  0.00  0.00    -0.341 N 
HETATM   25  H   UNK     0       5.230  11.529  90.615  0.00  0.00     0.163 HD
BRANCH  24  26
HETATM   26  C   UNK     0       3.401  12.288  89.903  0.00  0.00     0.207 C 
BRANCH  26  27
HETATM   27  C   UNK     0       2.958  12.984  91.197  0.00  0.00     0.146 C 
HETATM   28  C   UNK     0       2.245  12.036  92.155  0.00  0.00     0.042 C 
BRANCH  27  29
HETATM   29  O   UNK     0       4.096  13.538  91.855  0.00  0.00    -0.393 OA
HETATM   30  H   UNK     0       4.890  13.085  91.524  0.00  0.00     0.210 HD
ENDBRANCH  27  29
ENDBRANCH  26  27
BRANCH  26  31
HETATM   31  C   UNK     0       3.995  13.285  88.914  0.00  0.00     0.266 C 
HETATM   32  O   UNK     0       4.164  14.473  89.180  0.00  0.00    -0.269 OA
HETATM   33  N   UNK     0       4.275  12.706  87.699  0.00  0.00    -0.236 N 
HETATM   34  H   UNK     0       4.066  11.755  87.418  0.00  0.00     0.197 HD
BRANCH  33  35
HETATM   35  O   UNK     0       4.790  13.565  86.718  0.00  0.00    -0.287 OA
HETATM   36  H   UNK     0       5.477  14.024  87.231  0.00  0.00     0.244 HD
ENDBRANCH  33  35
ENDBRANCH  26  31
ENDBRANCH  24  26
ENDBRANCH  19  22
ENDBRANCH  15  16
ENDBRANCH  11  14
ENDBRANCH   7   8
ENDBRANCH   2   7
TORSDOF 10
ENDMDL
MODEL 2
REMARK VINA RESULT:      -6.7      0.492      1.302
REMARK  10 active torsions:
REMARK  status: ('A' for Active; 'I' for Inactive)
REMARK    1  A    between atoms: O_2  and  C_18 
REMARK    2  A    between atoms: O_5  and  N_8 
REMARK    3  A    between atoms: N_6  and  C_11 
REMARK    4  A    between atoms: N_7  and  C_15 
REMARK       I    between atoms: N_7  and  C_24 
REMARK       I    between atoms: N_8  and  C_23 
REMARK    5  A    between atoms: C_11  and  C_14 
REMARK    6  A    between atoms: C_15  and  C_18 
REMARK    7  A    between atoms: C_15  and  C_23 
REMARK    8  A    between atoms: C_21  and  C_26 
REMARK    9  A    between atoms: C_24  and  C_25 
REMARK   10  A    between atoms: C_29  and  C_32 
ROOT
HETATM    1  O   UNK     0      16.531   4.440  94.018  0.00  0.00    -0.388 OA
HETATM    2  N   UNK     0      14.756   2.642  92.707  0.00  0.00     0.096 N 
HETATM    3  C   UNK     0      14.596   4.099  92.594  0.00  0.00     0.299 C 
HETATM    4  C   UNK     0      15.382   2.303  93.992  0.00  0.00     0.299 C 
HETATM    5  C   UNK     0      15.951   4.782  92.758  0.00  0.00     0.198 C 
HETATM    6  C   UNK     0      16.719   3.028  94.124  0.00  0.00     0.198 C 
ENDROOT
BRANCH   2   7
HETATM    7  C   UNK     0      13.467   1.967  92.564  0.00  0.00     0.311 C 
BRANCH   7   8
HETATM    8  C   UNK     0      12.350   2.923  92.319  0.00  0.00    -0.030 A 
HETATM    9  C   UNK     0      11.859   3.704  93.366  0.00  0.00     0.010 A 
HETATM   10  C   UNK     0      10.812   4.597  93.139  0.00  0.00     0.021 A 
HETATM   11  C   UNK     0      10.258   4.710  91.864  0.00  0.00     0.018 A 
HETATM   12  C   UNK     0      10.747   3.931  90.818  0.00  0.00     0.021 A 
HETATM   13  C   UNK     0      11.793   3.037  91.045  0.00  0.00     0.010 A 
BRANCH  11  14
HETATM   14  C   UNK     0       9.185   5.628  91.630  0.00  0.00    -0.061 C 
HETATM   15  C   UNK     0       8.284   6.399  91.435  0.00  0.00    -0.061 C 
BRANCH  15  16
HETATM   16  C   UNK     0       7.212   7.314  91.201  0.00  0.00     0.018 A 
HETATM   17  C   UNK     0       6.018   6.860  90.640  0.00  0.00     0.022 A 
HETATM   18  C   UNK     0       4.970   7.753  90.415  0.00  0.00     0.018 A 
HETATM   19  C   UNK     0       5.139   9.079  90.755  0.00  0.00     0.032 A 
HETATM   20  C   UNK     0       6.309   9.553  91.310  0.00  0.00     0.018 A 
HETATM   21  C   UNK     0       7.357   8.661  91.535  0.00  0.00     0.022 A 
BRANCH  19  22
HETATM   22  C   UNK     0       4.023  10.030  90.512  0.00  0.00     0.252 C 
HETATM   23  O   UNK     0       2.902   9.590  90.273  0.00  0.00    -0.268 OA
HETATM   24  N   UNK     0       4.343  11.378  90.602  0.00  0.00    -0.341 N 
HETATM   25  H   UNK     0       5.287  11.667  90.828  0.00  0.00     0.163 HD
BRANCH  24  26
HETATM   26  C   UNK     0       3.366  12.420  90.417  0.00  0.00     0.207 C 
BRANCH  26  27
HETATM   27  C   UNK     0       3.122  13.238  91.691  0.00  0.00     0.146 C 
HETATM   28  C   UNK     0       2.840  12.358  92.904  0.00  0.00     0.042 C 
BRANCH  27  29
HETATM   29  O   UNK     0       4.263  14.051  91.963  0.00  0.00    -0.393 OA
HETATM   30  H   UNK     0       4.592  13.827  92.850  0.00  0.00     0.210 HD
ENDBRANCH  27  29
ENDBRANCH  26  27
BRANCH  26  31
HETATM   31  C   UNK     0       3.843  13.308  89.272  0.00  0.00     0.266 C 
HETATM   32  O   UNK     0       3.798  14.536  89.313  0.00  0.00    -0.269 OA
HETATM   33  N   UNK     0       4.284  12.575  88.196  0.00  0.00    -0.236 N 
HETATM   34  H   UNK     0       4.252  11.568  88.094  0.00  0.00     0.197 HD
BRANCH  33  35
HETATM   35  O   UNK     0       4.705  13.318  87.084  0.00  0.00    -0.287 OA
HETATM   36  H   UNK     0       4.974  12.599  86.486  0.00  0.00     0.244 HD
ENDBRANCH  33  35
ENDBRANCH  26  31
ENDBRANCH  24  26
ENDBRANCH  19  22
ENDBRANCH  15  16
ENDBRANCH  11  14
ENDBRANCH   7   8
ENDBRANCH   2   7
TORSDOF 10
ENDMDL
MODEL 3
REMARK VINA RESULT:      -6.4      1.765      2.349
REMARK  10 active torsions:
REMARK  status: ('A' for Active; 'I' for Inactive)
REMARK    1  A    between atoms: O_2  and  C_18 
REMARK    2  A    between atoms: O_5  and  N_8 
REMARK    3  A    between atoms: N_6  and  C_11 
REMARK    4  A    between atoms: N_7  and  C_15 
REMARK       I    between atoms: N_7  and  C_24 
REMARK       I    between atoms: N_8  and  C_23 
REMARK    5  A    between atoms: C_11  and  C_14 
REMARK    6  A    between atoms: C_15  and  C_18 
REMARK    7  A    between atoms: C_15  and  C_23 
REMARK    8  A    between atoms: C_21  and  C_26 
REMARK    9  A    between atoms: C_24  and  C_25 
REMARK   10  A    between atoms: C_29  and  C_32 
ROOT
HETATM    1  O   UNK     0      16.588   4.296  94.055  0.00  0.00    -0.388 OA
HETATM    2  N   UNK     0      14.652   2.823  92.578  0.00  0.00     0.096 N 
HETATM    3  C   UNK     0      14.699   4.291  92.531  0.00  0.00     0.299 C 
HETATM    4  C   UNK     0      15.159   2.344  93.870  0.00  0.00     0.299 C 
HETATM    5  C   UNK     0      16.125   4.771  92.789  0.00  0.00     0.198 C 
HETATM    6  C   UNK     0      16.574   2.869  94.098  0.00  0.00     0.198 C 
ENDROOT
BRANCH   2   7
HETATM    7  C   UNK     0      13.291   2.342  92.344  0.00  0.00     0.311 C 
BRANCH   7   8
HETATM    8  C   UNK     0      12.281   3.435  92.421  0.00  0.00    -0.030 A 
HETATM    9  C   UNK     0      11.737   3.965  91.250  0.00  0.00     0.010 A 
HETATM   10  C   UNK     0      10.793   4.989  91.322  0.00  0.00     0.021 A 
HETATM   11  C   UNK     0      10.392   5.481  92.563  0.00  0.00     0.018 A 
HETATM   12  C   UNK     0      10.934   4.953  93.733  0.00  0.00     0.021 A 
HETATM   13  C   UNK     0      11.879   3.929  93.662  0.00  0.00     0.010 A 
BRANCH  11  14
HETATM   14  C   UNK     0       9.422   6.531  92.636  0.00  0.00    -0.061 C 
HETATM   15  C   UNK     0       8.607   7.412  92.697  0.00  0.00    -0.061 C 
BRANCH  15  16
HETATM   16  C   UNK     0       7.639   8.461  92.770  0.00  0.00     0.018 A 
HETATM   17  C   UNK     0       7.145   8.868  94.010  0.00  0.00     0.022 A 
HETATM   18  C   UNK     0       6.202   9.893  94.082  0.00  0.00     0.018 A 
HETATM   19  C   UNK     0       5.774  10.489  92.914  0.00  0.00     0.032 A 
HETATM   20  C   UNK     0       6.246  10.105  91.676  0.00  0.00     0.018 A 
HETATM   21  C   UNK     0       7.189   9.079  91.604  0.00  0.00     0.022 A 
BRANCH  19  22
HETATM   22  C   UNK     0       4.768  11.580  92.991  0.00  0.00     0.252 C 
HETATM   23  O   UNK     0       4.214  11.810  94.064  0.00  0.00    -0.268 OA
HETATM   24  N   UNK     0       4.546  12.286  91.817  0.00  0.00    -0.341 N 
HETATM   25  H   UNK     0       5.059  12.055  90.975  0.00  0.00     0.163 HD
BRANCH  24  26
HETATM   26  C   UNK     0       3.619  13.386  91.738  0.00  0.00     0.207 C 
BRANCH  26  27
HETATM   27  C   UNK     0       4.290  14.746  91.972  0.00  0.00     0.146 C 
HETATM   28  C   UNK     0       4.762  15.395  90.675  0.00  0.00     0.042 C 
BRANCH  27  29
HETATM   29  O   UNK     0       3.374  15.625  92.623  0.00  0.00    -0.393 OA
HETATM   30  H   UNK     0       3.064  16.278  91.974  0.00  0.00     0.210 HD
ENDBRANCH  27  29
ENDBRANCH  26  27
BRANCH  26  31
HETATM   31  C   UNK     0       2.944  13.329  90.372  0.00  0.00     0.266 C 
HETATM   32  O   UNK     0       2.159  14.189  89.976  0.00  0.00    -0.269 OA
HETATM   33  N   UNK     0       3.286  12.199  89.670  0.00  0.00    -0.236 N 
HETATM   34  H   UNK     0       3.857  11.429  90.001  0.00  0.00     0.197 HD
BRANCH  33  35
HETATM   35  O   UNK     0       2.677  12.050  88.416  0.00  0.00    -0.287 OA
HETATM   36  H   UNK     0       2.393  12.966  88.251  0.00  0.00     0.244 HD
ENDBRANCH  33  35
ENDBRANCH  26  31
ENDBRANCH  24  26
ENDBRANCH  19  22
ENDBRANCH  15  16
ENDBRANCH  11  14
ENDBRANCH   7   8
ENDBRANCH   2   7
TORSDOF 10
ENDMDL
MODEL 4
REMARK VINA RESULT:      -6.4      1.826      2.633
REMARK  10 active torsions:
REMARK  status: ('A' for Active; 'I' for Inactive)
REMARK    1  A    between atoms: O_2  and  C_18 
REMARK    2  A    between atoms: O_5  and  N_8 
REMARK    3  A    between atoms: N_6  and  C_11 
REMARK    4  A    between atoms: N_7  and  C_15 
REMARK       I    between atoms: N_7  and  C_24 
REMARK       I    between atoms: N_8  and  C_23 
REMARK    5  A    between atoms: C_11  and  C_14 
REMARK    6  A    between atoms: C_15  and  C_18 
REMARK    7  A    between atoms: C_15  and  C_23 
REMARK    8  A    between atoms: C_21  and  C_26 
REMARK    9  A    between atoms: C_24  and  C_25 
REMARK   10  A    between atoms: C_29  and  C_32 
ROOT
HETATM    1  O   UNK     0      17.210   4.450  93.843  0.00  0.00    -0.388 OA
HETATM    2  N   UNK     0      15.126   2.538  93.519  0.00  0.00     0.096 N 
HETATM    3  C   UNK     0      16.532   2.192  93.266  0.00  0.00     0.299 C 
HETATM    4  C   UNK     0      14.905   3.967  93.260  0.00  0.00     0.299 C 
HETATM    5  C   UNK     0      17.442   3.068  94.123  0.00  0.00     0.198 C 
HETATM    6  C   UNK     0      15.853   4.802  94.116  0.00  0.00     0.198 C 
ENDROOT
BRANCH   2   7
HETATM    7  C   UNK     0      14.236   1.718  92.700  0.00  0.00     0.311 C 
BRANCH   7   8
HETATM    8  C   UNK     0      13.132   2.514  92.089  0.00  0.00    -0.030 A 
HETATM    9  C   UNK     0      13.355   3.220  90.907  0.00  0.00     0.010 A 
HETATM   10  C   UNK     0      12.324   3.966  90.336  0.00  0.00     0.021 A 
HETATM   11  C   UNK     0      11.071   4.004  90.946  0.00  0.00     0.018 A 
HETATM   12  C   UNK     0      10.848   3.299  92.127  0.00  0.00     0.021 A 
HETATM   13  C   UNK     0      11.878   2.553  92.699  0.00  0.00     0.010 A 
BRANCH  11  14
HETATM   14  C   UNK     0      10.013   4.767  90.359  0.00  0.00    -0.061 C 
HETATM   15  C   UNK     0       9.124   5.410  89.866  0.00  0.00    -0.061 C 
BRANCH  15  16
HETATM   16  C   UNK     0       8.068   6.173  89.281  0.00  0.00     0.018 A 
HETATM   17  C   UNK     0       6.740   5.795  89.484  0.00  0.00     0.022 A 
HETATM   18  C   UNK     0       5.708   6.541  88.915  0.00  0.00     0.018 A 
HETATM   19  C   UNK     0       6.026   7.648  88.156  0.00  0.00     0.032 A 
HETATM   20  C   UNK     0       7.330   8.043  87.940  0.00  0.00     0.018 A 
HETATM   21  C   UNK     0       8.362   7.296  88.508  0.00  0.00     0.022 A 
BRANCH  19  22
HETATM   22  C   UNK     0       4.927   8.442  87.548  0.00  0.00     0.252 C 
HETATM   23  O   UNK     0       4.638   8.261  86.368  0.00  0.00    -0.268 OA
HETATM   24  N   UNK     0       4.280   9.333  88.394  0.00  0.00    -0.341 N 
HETATM   25  H   UNK     0       4.558   9.411  89.365  0.00  0.00     0.163 HD
BRANCH  24  26
HETATM   26  C   UNK     0       3.180  10.155  87.960  0.00  0.00     0.207 C 
BRANCH  26  27
HETATM   27  C   UNK     0       1.815   9.575  88.351  0.00  0.00     0.146 C 
HETATM   28  C   UNK     0       1.454   8.334  87.542  0.00  0.00     0.042 C 
BRANCH  27  29
HETATM   29  O   UNK     0       1.819   9.238  89.739  0.00  0.00    -0.393 OA
HETATM   30  H   UNK     0       2.318   8.412  89.850  0.00  0.00     0.210 HD
ENDBRANCH  27  29
ENDBRANCH  26  27
BRANCH  26  31
HETATM   31  C   UNK     0       3.379  11.548  88.546  0.00  0.00     0.266 C 
HETATM   32  O   UNK     0       2.815  11.931  89.570  0.00  0.00    -0.269 OA
HETATM   33  N   UNK     0       4.220  12.318  87.781  0.00  0.00    -0.236 N 
HETATM   34  H   UNK     0       4.629  12.067  86.888  0.00  0.00     0.197 HD
BRANCH  33  35
HETATM   35  O   UNK     0       4.427  13.630  88.232  0.00  0.00    -0.287 OA
HETATM   36  H   UNK     0       4.361  13.496  89.193  0.00  0.00     0.244 HD
ENDBRANCH  33  35
ENDBRANCH  26  31
ENDBRANCH  24  26
ENDBRANCH  19  22
ENDBRANCH  15  16
ENDBRANCH  11  14
ENDBRANCH   7   8
ENDBRANCH   2   7
TORSDOF 10
ENDMDL
MODEL 5
REMARK VINA RESULT:      -6.4      1.467      2.323
REMARK  10 active torsions:
REMARK  status: ('A' for Active; 'I' for Inactive)
REMARK    1  A    between atoms: O_2  and  C_18 
REMARK    2  A    between atoms: O_5  and  N_8 
REMARK    3  A    between atoms: N_6  and  C_11 
REMARK    4  A    between atoms: N_7  and  C_15 
REMARK       I    between atoms: N_7  and  C_24 
REMARK       I    between atoms: N_8  and  C_23 
REMARK    5  A    between atoms: C_11  and  C_14 
REMARK    6  A    between atoms: C_15  and  C_18 
REMARK    7  A    between atoms: C_15  and  C_23 
REMARK    8  A    between atoms: C_21  and  C_26 
REMARK    9  A    between atoms: C_24  and  C_25 
REMARK   10  A    between atoms: C_29  and  C_32 
ROOT
HETATM    1  O   UNK     0      16.866   3.479  93.437  0.00  0.00    -0.388 OA
HETATM    2  N   UNK     0      14.122   2.727  93.339  0.00  0.00     0.096 N 
HETATM    3  C   UNK     0      15.196   1.729  93.238  0.00  0.00     0.299 C 
HETATM    4  C   UNK     0      14.584   4.018  92.813  0.00  0.00     0.299 C 
HETATM    5  C   UNK     0      16.436   2.227  93.976  0.00  0.00     0.198 C 
HETATM    6  C   UNK     0      15.839   4.463  93.559  0.00  0.00     0.198 C 
ENDROOT
BRANCH   2   7
HETATM    7  C   UNK     0      12.927   2.275  92.630  0.00  0.00     0.311 C 
BRANCH   7   8
HETATM    8  C   UNK     0      12.024   3.403  92.262  0.00  0.00    -0.030 A 
HETATM    9  C   UNK     0      11.877   3.769  90.924  0.00  0.00     0.010 A 
HETATM   10  C   UNK     0      11.034   4.826  90.579  0.00  0.00     0.021 A 
HETATM   11  C   UNK     0      10.338   5.513  91.572  0.00  0.00     0.018 A 
HETATM   12  C   UNK     0      10.483   5.148  92.908  0.00  0.00     0.021 A 
HETATM   13  C   UNK     0      11.327   4.093  93.254  0.00  0.00     0.010 A 
BRANCH  11  14
HETATM   14  C   UNK     0       9.471   6.596  91.217  0.00  0.00    -0.061 C 
HETATM   15  C   UNK     0       8.744   7.505  90.919  0.00  0.00    -0.061 C 
BRANCH  15  16
HETATM   16  C   UNK     0       7.879   8.587  90.566  0.00  0.00     0.018 A 
HETATM   17  C   UNK     0       6.506   8.482  90.790  0.00  0.00     0.022 A 
HETATM   18  C   UNK     0       5.662   9.539  90.448  0.00  0.00     0.018 A 
HETATM   19  C   UNK     0       6.209  10.676  89.890  0.00  0.00     0.032 A 
HETATM   20  C   UNK     0       7.562  10.804  89.658  0.00  0.00     0.018 A 
HETATM   21  C   UNK     0       8.407   9.747  90.000  0.00  0.00     0.022 A 
BRANCH  19  22
HETATM   22  C   UNK     0       5.309  11.800  89.524  0.00  0.00     0.252 C 
HETATM   23  O   UNK     0       5.296  12.204  88.364  0.00  0.00    -0.268 OA
HETATM   24  N   UNK     0       4.515  12.301  90.546  0.00  0.00    -0.341 N 
HETATM   25  H   UNK     0       4.561  11.899  91.475  0.00  0.00     0.163 HD
BRANCH  24  26
HETATM   26  C   UNK     0       3.574  13.373  90.343  0.00  0.00     0.207 C 
BRANCH  26  27
HETATM   27  C   UNK     0       2.189  13.067  90.927  0.00  0.00     0.146 C 
HETATM   28  C   UNK     0       2.234  11.983  91.998  0.00  0.00     0.042 C 
BRANCH  27  29
HETATM   29  O   UNK     0       1.637  14.255  91.493  0.00  0.00    -0.393 OA
HETATM   30  H   UNK     0       2.113  15.018  91.124  0.00  0.00     0.210 HD
ENDBRANCH  27  29
ENDBRANCH  26  27
BRANCH  26  31
HETATM   31  C   UNK     0       4.168  14.637  90.957  0.00  0.00     0.266 C 
HETATM   32  O   UNK     0       4.473  15.625  90.292  0.00  0.00    -0.269 OA
HETATM   33  N   UNK     0       4.352  14.517  92.314  0.00  0.00    -0.236 N 
HETATM   34  H   UNK     0       4.196  13.689  92.876  0.00  0.00     0.197 HD
BRANCH  33  35
HETATM   35  O   UNK     0       4.931  15.624  92.951  0.00  0.00    -0.287 OA
HETATM   36  H   UNK     0       4.348  15.704  93.725  0.00  0.00     0.244 HD
ENDBRANCH  33  35
ENDBRANCH  26  31
ENDBRANCH  24  26
ENDBRANCH  19  22
ENDBRANCH  15  16
ENDBRANCH  11  14
ENDBRANCH   7   8
ENDBRANCH   2   7
TORSDOF 10
ENDMDL
MODEL 6
REMARK VINA RESULT:      -6.2      1.723      2.397
REMARK  10 active torsions:
REMARK  status: ('A' for Active; 'I' for Inactive)
REMARK    1  A    between atoms: O_2  and  C_18 
REMARK    2  A    between atoms: O_5  and  N_8 
REMARK    3  A    between atoms: N_6  and  C_11 
REMARK    4  A    between atoms: N_7  and  C_15 
REMARK       I    between atoms: N_7  and  C_24 
REMARK       I    between atoms: N_8  and  C_23 
REMARK    5  A    between atoms: C_11  and  C_14 
REMARK    6  A    between atoms: C_15  and  C_18 
REMARK    7  A    between atoms: C_15  and  C_23 
REMARK    8  A    between atoms: C_21  and  C_26 
REMARK    9  A    between atoms: C_24  and  C_25 
REMARK   10  A    between atoms: C_29  and  C_32 
ROOT
HETATM    1  O   UNK     0      16.385   2.896  93.856  0.00  0.00    -0.388 OA
HETATM    2  N   UNK     0      13.844   3.036  92.581  0.00  0.00     0.096 N 
HETATM    3  C   UNK     0      14.466   1.747  92.915  0.00  0.00     0.299 C 
HETATM    4  C   UNK     0      14.881   4.047  92.340  0.00  0.00     0.299 C 
HETATM    5  C   UNK     0      15.383   1.913  94.124  0.00  0.00     0.198 C 
HETATM    6  C   UNK     0      15.789   4.160  93.561  0.00  0.00     0.198 C 
ENDROOT
BRANCH   2   7
HETATM    7  C   UNK     0      12.968   2.902  91.419  0.00  0.00     0.311 C 
BRANCH   7   8
HETATM    8  C   UNK     0      11.853   3.891  91.431  0.00  0.00    -0.030 A 
HETATM    9  C   UNK     0      11.325   4.361  90.227  0.00  0.00     0.010 A 
HETATM   10  C   UNK     0      10.283   5.288  90.238  0.00  0.00     0.021 A 
HETATM   11  C   UNK     0       9.768   5.743  91.451  0.00  0.00     0.018 A 
HETATM   12  C   UNK     0      10.294   5.274  92.653  0.00  0.00     0.021 A 
HETATM   13  C   UNK     0      11.336   4.348  92.643  0.00  0.00     0.010 A 
BRANCH  11  14
HETATM   14  C   UNK     0       8.698   6.693  91.461  0.00  0.00    -0.061 C 
HETATM   15  C   UNK     0       7.798   7.490  91.470  0.00  0.00    -0.061 C 
BRANCH  15  16
HETATM   16  C   UNK     0       6.729   8.437  91.480  0.00  0.00     0.018 A 
HETATM   17  C   UNK     0       5.427   8.021  91.197  0.00  0.00     0.022 A 
HETATM   18  C   UNK     0       4.382   8.945  91.208  0.00  0.00     0.018 A 
HETATM   19  C   UNK     0       4.661  10.264  91.502  0.00  0.00     0.032 A 
HETATM   20  C   UNK     0       5.938  10.700  91.784  0.00  0.00     0.018 A 
HETATM   21  C   UNK     0       6.984   9.777  91.773  0.00  0.00     0.022 A 
BRANCH  19  22
HETATM   22  C   UNK     0       3.548  11.248  91.512  0.00  0.00     0.252 C 
HETATM   23  O   UNK     0       2.502  10.977  90.927  0.00  0.00    -0.268 OA
HETATM   24  N   UNK     0       3.777  12.418  92.222  0.00  0.00    -0.341 N 
HETATM   25  H   UNK     0       4.658  12.563  92.702  0.00  0.00     0.163 HD
BRANCH  24  26
HETATM   26  C   UNK     0       2.787  13.458  92.344  0.00  0.00     0.207 C 
BRANCH  26  27
HETATM   27  C   UNK     0       2.959  14.294  93.619  0.00  0.00     0.146 C 
HETATM   28  C   UNK     0       4.423  14.581  93.935  0.00  0.00     0.042 C 
BRANCH  27  29
HETATM   29  O   UNK     0       2.265  15.533  93.474  0.00  0.00    -0.393 OA
HETATM   30  H   UNK     0       1.544  15.556  94.126  0.00  0.00     0.210 HD
ENDBRANCH  27  29
ENDBRANCH  26  27
BRANCH  26  31
HETATM   31  C   UNK     0       2.868  14.328  91.095  0.00  0.00     0.266 C 
HETATM   32  O   UNK     0       1.897  14.563  90.378  0.00  0.00    -0.269 OA
HETATM   33  N   UNK     0       4.145  14.774  90.855  0.00  0.00    -0.236 N 
HETATM   34  H   UNK     0       4.981  14.527  91.371  0.00  0.00     0.197 HD
BRANCH  33  35
HETATM   35  O   UNK     0       4.313  15.552  89.700  0.00  0.00    -0.287 OA
HETATM   36  H   UNK     0       3.945  14.950  89.030  0.00  0.00     0.244 HD
ENDBRANCH  33  35
ENDBRANCH  26  31
ENDBRANCH  24  26
ENDBRANCH  19  22
ENDBRANCH  15  16
ENDBRANCH  11  14
ENDBRANCH   7   8
ENDBRANCH   2   7
TORSDOF 10
ENDMDL
MODEL 7
REMARK VINA RESULT:      -5.4      2.057      2.249
REMARK  10 active torsions:
REMARK  status: ('A' for Active; 'I' for Inactive)
REMARK    1  A    between atoms: O_2  and  C_18 
REMARK    2  A    between atoms: O_5  and  N_8 
REMARK    3  A    between atoms: N_6  and  C_11 
REMARK    4  A    between atoms: N_7  and  C_15 
REMARK       I    between atoms: N_7  and  C_24 
REMARK       I    between atoms: N_8  and  C_23 
REMARK    5  A    between atoms: C_11  and  C_14 
REMARK    6  A    between atoms: C_15  and  C_18 
REMARK    7  A    between atoms: C_15  and  C_23 
REMARK    8  A    between atoms: C_21  and  C_26 
REMARK    9  A    between atoms: C_24  and  C_25 
REMARK   10  A    between atoms: C_29  and  C_32 
ROOT
HETATM    1  O   UNK     0      16.155   3.988  94.116  0.00  0.00    -0.388 OA
HETATM    2  N   UNK     0      14.287   2.621  92.460  0.00  0.00     0.096 N 
HETATM    3  C   UNK     0      14.380   4.087  92.465  0.00  0.00     0.299 C 
HETATM    4  C   UNK     0      14.688   2.087  93.768  0.00  0.00     0.299 C 
HETATM    5  C   UNK     0      15.797   4.515  92.837  0.00  0.00     0.198 C 
HETATM    6  C   UNK     0      16.097   2.561  94.111  0.00  0.00     0.198 C 
ENDROOT
BRANCH   2   7
HETATM    7  C   UNK     0      12.934   2.189  92.115  0.00  0.00     0.311 C 
BRANCH   7   8
HETATM    8  C   UNK     0      11.950   3.307  92.168  0.00  0.00    -0.030 A 
HETATM    9  C   UNK     0      11.335   3.750  90.996  0.00  0.00     0.010 A 
HETATM   10  C   UNK     0      10.416   4.798  91.044  0.00  0.00     0.021 A 
HETATM   11  C   UNK     0      10.110   5.401  92.264  0.00  0.00     0.018 A 
HETATM   12  C   UNK     0      10.724   4.960  93.434  0.00  0.00     0.021 A 
HETATM   13  C   UNK     0      11.643   3.913  93.387  0.00  0.00     0.010 A 
BRANCH  11  14
HETATM   14  C   UNK     0       9.166   6.475  92.313  0.00  0.00    -0.061 C 
HETATM   15  C   UNK     0       8.372   7.377  92.354  0.00  0.00    -0.061 C 
BRANCH  15  16
HETATM   16  C   UNK     0       7.430   8.450  92.404  0.00  0.00     0.018 A 
HETATM   17  C   UNK     0       7.605   9.570  91.590  0.00  0.00     0.022 A 
HETATM   18  C   UNK     0       6.684  10.616  91.637  0.00  0.00     0.018 A 
HETATM   19  C   UNK     0       5.609  10.520  92.495  0.00  0.00     0.032 A 
HETATM   20  C   UNK     0       5.414   9.425  93.311  0.00  0.00     0.018 A 
HETATM   21  C   UNK     0       6.335   8.379  93.264  0.00  0.00     0.022 A 
BRANCH  19  22
HETATM   22  C   UNK     0       4.629  11.636  92.547  0.00  0.00     0.252 C 
HETATM   23  O   UNK     0       4.703  12.458  93.457  0.00  0.00    -0.268 OA
HETATM   24  N   UNK     0       3.698  11.676  91.518  0.00  0.00    -0.341 N 
HETATM   25  H   UNK     0       3.714  10.976  90.785  0.00  0.00     0.163 HD
BRANCH  24  26
HETATM   26  C   UNK     0       2.699  12.709  91.415  0.00  0.00     0.207 C 
BRANCH  26  27
HETATM   27  C   UNK     0       1.617  12.598  92.497  0.00  0.00     0.146 C 
HETATM   28  C   UNK     0       1.215  11.154  92.775  0.00  0.00     0.042 C 
BRANCH  27  29
HETATM   29  O   UNK     0       2.090  13.189  93.707  0.00  0.00    -0.393 OA
HETATM   30  H   UNK     0       1.402  13.787  94.043  0.00  0.00     0.210 HD
ENDBRANCH  27  29
ENDBRANCH  26  27
BRANCH  26  31
HETATM   31  C   UNK     0       3.413  14.055  91.481  0.00  0.00     0.266 C 
HETATM   32  O   UNK     0       3.033  14.981  92.195  0.00  0.00    -0.269 OA
HETATM   33  N   UNK     0       4.490  14.114  90.629  0.00  0.00    -0.236 N 
HETATM   34  H   UNK     0       4.777  13.405  89.964  0.00  0.00     0.197 HD
BRANCH  33  35
HETATM   35  O   UNK     0       5.179  15.334  90.601  0.00  0.00    -0.287 OA
HETATM   36  H   UNK     0       4.960  15.679  91.484  0.00  0.00     0.244 HD
ENDBRANCH  33  35
ENDBRANCH  26  31
ENDBRANCH  24  26
ENDBRANCH  19  22
ENDBRANCH  15  16
ENDBRANCH  11  14
ENDBRANCH   7   8
ENDBRANCH   2   7
TORSDOF 10
ENDMDL
MODEL 8
REMARK VINA RESULT:      -5.0      2.086     12.511
REMARK  10 active torsions:
REMARK  status: ('A' for Active; 'I' for Inactive)
REMARK    1  A    between atoms: O_2  and  C_18 
REMARK    2  A    between atoms: O_5  and  N_8 
REMARK    3  A    between atoms: N_6  and  C_11 
REMARK    4  A    between atoms: N_7  and  C_15 
REMARK       I    between atoms: N_7  and  C_24 
REMARK       I    between atoms: N_8  and  C_23 
REMARK    5  A    between atoms: C_11  and  C_14 
REMARK    6  A    between atoms: C_15  and  C_18 
REMARK    7  A    between atoms: C_15  and  C_23 
REMARK    8  A    between atoms: C_21  and  C_26 
REMARK    9  A    between atoms: C_24  and  C_25 
REMARK   10  A    between atoms: C_29  and  C_32 
ROOT
HETATM    1  O   UNK     0       3.147  14.200  92.133  0.00  0.00    -0.388 OA
HETATM    2  N   UNK     0       3.964  13.800  89.436  0.00  0.00     0.096 N 
HETATM    3  C   UNK     0       2.769  13.142  89.982  0.00  0.00     0.299 C 
HETATM    4  C   UNK     0       4.941  14.039  90.506  0.00  0.00     0.299 C 
HETATM    5  C   UNK     0       2.178  13.992  91.103  0.00  0.00     0.198 C 
HETATM    6  C   UNK     0       4.299  14.867  91.616  0.00  0.00     0.198 C 
ENDROOT
BRANCH   2   7
HETATM    7  C   UNK     0       4.554  12.997  88.365  0.00  0.00     0.311 C 
BRANCH   7   8
HETATM    8  C   UNK     0       5.416  11.899  88.888  0.00  0.00    -0.030 A 
HETATM    9  C   UNK     0       4.833  10.728  89.375  0.00  0.00     0.010 A 
HETATM   10  C   UNK     0       5.639   9.701  89.867  0.00  0.00     0.021 A 
HETATM   11  C   UNK     0       7.026   9.844  89.868  0.00  0.00     0.018 A 
HETATM   12  C   UNK     0       7.608  11.012  89.382  0.00  0.00     0.021 A 
HETATM   13  C   UNK     0       6.803  12.040  88.891  0.00  0.00     0.010 A 
BRANCH  11  14
HETATM   14  C   UNK     0       7.852   8.789  90.371  0.00  0.00    -0.061 C 
HETATM   15  C   UNK     0       8.547   7.903  90.792  0.00  0.00    -0.061 C 
BRANCH  15  16
HETATM   16  C   UNK     0       9.371   6.849  91.293  0.00  0.00     0.018 A 
HETATM   17  C   UNK     0      10.139   6.086  90.412  0.00  0.00     0.022 A 
HETATM   18  C   UNK     0      10.945   5.058  90.900  0.00  0.00     0.018 A 
HETATM   19  C   UNK     0      10.967   4.816  92.258  0.00  0.00     0.032 A 
HETATM   20  C   UNK     0      10.217   5.554  93.149  0.00  0.00     0.018 A 
HETATM   21  C   UNK     0       9.410   6.582  92.661  0.00  0.00     0.022 A 
BRANCH  19  22
HETATM   22  C   UNK     0      11.824   3.719  92.778  0.00  0.00     0.252 C 
HETATM   23  O   UNK     0      11.397   2.568  92.767  0.00  0.00    -0.268 OA
HETATM   24  N   UNK     0      13.085   4.093  93.224  0.00  0.00    -0.341 N 
HETATM   25  H   UNK     0      13.378   5.061  93.179  0.00  0.00     0.163 HD
BRANCH  24  26
HETATM   26  C   UNK     0      14.040   3.142  93.733  0.00  0.00     0.207 C 
BRANCH  26  27
HETATM   27  C   UNK     0      14.161   1.892  92.852  0.00  0.00     0.146 C 
HETATM   28  C   UNK     0      15.036   2.124  91.626  0.00  0.00     0.042 C 
BRANCH  27  29
HETATM   29  O   UNK     0      14.711   0.820  93.618  0.00  0.00    -0.393 OA
HETATM   30  H   UNK     0      13.986   0.225  93.873  0.00  0.00     0.210 HD
ENDBRANCH  27  29
ENDBRANCH  26  27
BRANCH  26  31
HETATM   31  C   UNK     0      15.381   3.856  93.869  0.00  0.00     0.266 C 
HETATM   32  O   UNK     0      15.498   5.079  93.807  0.00  0.00    -0.269 OA
HETATM   33  N   UNK     0      16.424   2.976  94.027  0.00  0.00    -0.236 N 
HETATM   34  H   UNK     0      16.375   1.965  93.994  0.00  0.00     0.197 HD
BRANCH  33  35
HETATM   35  O   UNK     0      17.699   3.552  94.122  0.00  0.00    -0.287 OA
HETATM   36  H   UNK     0      17.589   4.089  94.925  0.00  0.00     0.244 HD
ENDBRANCH  33  35
ENDBRANCH  26  31
ENDBRANCH  24  26
ENDBRANCH  19  22
ENDBRANCH  15  16
ENDBRANCH  11  14
ENDBRANCH   7   8
ENDBRANCH   2   7
TORSDOF 10
ENDMDL
MODEL 9
REMARK VINA RESULT:      -4.8      2.326     12.489
REMARK  10 active torsions:
REMARK  status: ('A' for Active; 'I' for Inactive)
REMARK    1  A    between atoms: O_2  and  C_18 
REMARK    2  A    between atoms: O_5  and  N_8 
REMARK    3  A    between atoms: N_6  and  C_11 
REMARK    4  A    between atoms: N_7  and  C_15 
REMARK       I    between atoms: N_7  and  C_24 
REMARK       I    between atoms: N_8  and  C_23 
REMARK    5  A    between atoms: C_11  and  C_14 
REMARK    6  A    between atoms: C_15  and  C_18 
REMARK    7  A    between atoms: C_15  and  C_23 
REMARK    8  A    between atoms: C_21  and  C_26 
REMARK    9  A    between atoms: C_24  and  C_25 
REMARK   10  A    between atoms: C_29  and  C_32 
ROOT
HETATM    1  O   UNK     0       4.550  14.586  89.166  0.00  0.00    -0.388 OA
HETATM    2  N   UNK     0       3.451  13.996  91.725  0.00  0.00     0.096 N 
HETATM    3  C   UNK     0       4.753  14.662  91.584  0.00  0.00     0.299 C 
HETATM    4  C   UNK     0       3.198  13.134  90.563  0.00  0.00     0.299 C 
HETATM    5  C   UNK     0       4.791  15.451  90.277  0.00  0.00     0.198 C 
HETATM    6  C   UNK     0       3.273  13.958  89.280  0.00  0.00     0.198 C 
ENDROOT
BRANCH   2   7
HETATM    7  C   UNK     0       3.396  13.224  92.965  0.00  0.00     0.311 C 
BRANCH   7   8
HETATM    8  C   UNK     0       4.370  12.095  92.976  0.00  0.00    -0.030 A 
HETATM    9  C   UNK     0       4.509  11.285  91.848  0.00  0.00     0.010 A 
HETATM   10  C   UNK     0       5.418  10.227  91.858  0.00  0.00     0.021 A 
HETATM   11  C   UNK     0       6.189   9.982  92.993  0.00  0.00     0.018 A 
HETATM   12  C   UNK     0       6.051  10.791  94.120  0.00  0.00     0.021 A 
HETATM   13  C   UNK     0       5.142  11.848  94.111  0.00  0.00     0.010 A 
BRANCH  11  14
HETATM   14  C   UNK     0       7.123   8.899  93.002  0.00  0.00    -0.061 C 
HETATM   15  C   UNK     0       7.908   7.988  93.010  0.00  0.00    -0.061 C 
BRANCH  15  16
HETATM   16  C   UNK     0       8.842   6.907  93.019  0.00  0.00     0.018 A 
HETATM   17  C   UNK     0       9.817   6.837  94.015  0.00  0.00     0.022 A 
HETATM   18  C   UNK     0      10.728   5.780  94.025  0.00  0.00     0.018 A 
HETATM   19  C   UNK     0      10.644   4.818  93.041  0.00  0.00     0.032 A 
HETATM   20  C   UNK     0       9.690   4.864  92.045  0.00  0.00     0.018 A 
HETATM   21  C   UNK     0       8.780   5.921  92.034  0.00  0.00     0.022 A 
BRANCH  19  22
HETATM   22  C   UNK     0      11.616   3.694  93.051  0.00  0.00     0.252 C 
HETATM   23  O   UNK     0      11.267   2.595  92.625  0.00  0.00    -0.268 OA
HETATM   24  N   UNK     0      12.883   3.990  93.533  0.00  0.00    -0.341 N 
HETATM   25  H   UNK     0      13.107   4.927  93.845  0.00  0.00     0.163 HD
BRANCH  24  26
HETATM   26  C   UNK     0      13.941   3.013  93.584  0.00  0.00     0.207 C 
BRANCH  26  27
HETATM   27  C   UNK     0      13.982   2.117  92.340  0.00  0.00     0.146 C 
HETATM   28  C   UNK     0      14.499   2.851  91.108  0.00  0.00     0.042 C 
BRANCH  27  29
HETATM   29  O   UNK     0      14.818   0.988  92.592  0.00  0.00    -0.393 OA
HETATM   30  H   UNK     0      15.337   0.808  91.790  0.00  0.00     0.210 HD
ENDBRANCH  27  29
ENDBRANCH  26  27
BRANCH  26  31
HETATM   31  C   UNK     0      15.257   3.761  93.771  0.00  0.00     0.266 C 
HETATM   32  O   UNK     0      15.346   4.986  93.705  0.00  0.00    -0.269 OA
HETATM   33  N   UNK     0      16.314   2.909  93.980  0.00  0.00    -0.236 N 
HETATM   34  H   UNK     0      16.291   1.896  93.951  0.00  0.00     0.197 HD
BRANCH  33  35
HETATM   35  O   UNK     0      17.569   3.517  94.124  0.00  0.00    -0.287 OA
HETATM   36  H   UNK     0      17.528   3.783  95.058  0.00  0.00     0.244 HD
ENDBRANCH  33  35
ENDBRANCH  26  31
ENDBRANCH  24  26
ENDBRANCH  19  22
ENDBRANCH  15  16
ENDBRANCH  11  14
ENDBRANCH   7   8
ENDBRANCH   2   7
TORSDOF 10
ENDMDL
