MODEL 1
REMARK VINA RESULT:      -7.2      0.000      0.000
REMARK  9 active torsions:
REMARK  status: ('A' for Active; 'I' for Inactive)
REMARK    1  A    between atoms: O_2  and  C_17 
REMARK    2  A    between atoms: N_5  and  C_10 
REMARK    3  A    between atoms: N_6  and  C_14 
REMARK       I    between atoms: N_6  and  C_23 
REMARK       I    between atoms: N_7  and  C_22 
REMARK    4  A    between atoms: C_10  and  C_13 
REMARK    5  A    between atoms: C_14  and  C_17 
REMARK    6  A    between atoms: C_14  and  C_22 
REMARK    7  A    between atoms: C_20  and  C_25 
REMARK    8  A    between atoms: C_23  and  C_24 
REMARK    9  A    between atoms: C_28  and  C_31 
ROOT
HETATM    1  O   UNL     1      17.138   4.188  93.668  1.00  0.00    -0.388 OA
HETATM    2  N   UNL     1      14.584   2.933  93.619  1.00  0.00     0.096 N 
HETATM    3  C   UNL     1      15.819   2.169  93.398  1.00  0.00     0.299 C 
HETATM    4  C   UNL     1      14.766   4.323  93.178  1.00  0.00     0.299 C 
HETATM    5  C   UNL     1      16.981   2.843  94.124  1.00  0.00     0.198 C 
HETATM    6  C   UNL     1      15.952   4.946  93.908  1.00  0.00     0.198 C 
ENDROOT
BRANCH   2   7
HETATM    7  C   UNL     1      13.458   2.311  92.924  1.00  0.00     0.311 C 
BRANCH   7   8
HETATM    8  C   UNL     1      12.457   3.311  92.456  1.00  0.00    -0.030 A 
HETATM    9  C   UNL     1      11.692   4.018  93.384  1.00  0.00     0.010 A 
HETATM   10  C   UNL     1      10.753   4.952  92.947  1.00  0.00     0.021 A 
HETATM   11  C   UNL     1      10.580   5.180  91.583  1.00  0.00     0.018 A 
HETATM   12  C   UNL     1      11.344   4.475  90.654  1.00  0.00     0.021 A 
HETATM   13  C   UNL     1      12.282   3.540  91.091  1.00  0.00     0.010 A 
BRANCH  11  14
HETATM   14  C   UNL     1       9.619   6.140  91.135  1.00  0.00    -0.061 C 
HETATM   15  C   UNL     1       8.811   6.947  90.758  1.00  0.00    -0.061 C 
BRANCH  15  16
HETATM   16  C   UNL     1       7.850   7.906  90.310  1.00  0.00     0.018 A 
HETATM   17  C   UNL     1       7.670   9.095  91.018  1.00  0.00     0.022 A 
HETATM   18  C   UNL     1       6.735  10.032  90.579  1.00  0.00     0.018 A 
HETATM   19  C   UNL     1       6.002   9.760  89.443  1.00  0.00     0.032 A 
HETATM   20  C   UNL     1       6.161   8.593  88.726  1.00  0.00     0.018 A 
HETATM   21  C   UNL     1       7.096   7.655  89.164  1.00  0.00     0.022 A 
BRANCH  19  22
HETATM   22  C   UNL     1       5.004  10.758  88.977  1.00  0.00     0.252 C 
HETATM   23  O   UNL     1       4.329  10.510  87.980  1.00  0.00    -0.268 OA
HETATM   24  N   UNL     1       4.895  11.911  89.740  1.00  0.00    -0.342 N 
HETATM   25  H   UNL     1       5.469  12.036  90.566  1.00  0.00     0.163 HD
BRANCH  24  26
HETATM   26  C   UNL     1       3.957  12.960  89.431  1.00  0.00     0.199 C 
BRANCH  26  27
HETATM   27  C   UNL     1       3.398  13.645  90.685  1.00  0.00     0.145 C 
HETATM   28  C   UNL     1       2.426  12.755  91.452  1.00  0.00     0.042 C 
BRANCH  27  29
HETATM   29  O   UNL     1       4.474  14.010  91.549  1.00  0.00    -0.393 OA
HETATM   30  H   UNL     1       4.383  13.509  92.378  1.00  0.00     0.210 HD
ENDBRANCH  27  29
ENDBRANCH  26  27
BRANCH  26  31
HETATM   31  C   UNL     1       4.661  13.961  88.520  1.00  0.00     0.220 C 
HETATM   32  O   UNL     1       5.028  15.071  88.902  1.00  0.00    -0.278 OA
HETATM   33  N   UNL     1       4.794  13.490  87.237  1.00  0.00    -0.271 NA
HETATM   34  H   UNL     1       4.425  12.621  86.868  1.00  0.00     0.127 HD
HETATM   35  H   UNL     1       4.111  13.902  86.082  1.00  0.00     0.127 HD
ENDBRANCH  26  31
ENDBRANCH  24  26
ENDBRANCH  19  22
ENDBRANCH  15  16
ENDBRANCH  11  14
ENDBRANCH   7   8
ENDBRANCH   2   7
TORSDOF 9
ENDMDL
