MODEL 1
REMARK VINA RESULT:      -7.0      0.000      0.000
REMARK  14 active torsions:
REMARK  status: ('A' for Active; 'I' for Inactive)
REMARK    1  A    between atoms: O_2  and  C_18 
REMARK    2  A    between atoms: C_5  and  C_8 
REMARK    3  A    between atoms: C_5  and  O_35 
REMARK    4  A    between atoms: C_5  and  C_36 
REMARK    5  A    between atoms: N_6  and  C_11 
REMARK    6  A    between atoms: N_7  and  C_15 
REMARK       I    between atoms: N_7  and  C_24 
REMARK    7  A    between atoms: C_8  and  C_23 
REMARK    8  A    between atoms: C_11  and  C_14 
REMARK    9  A    between atoms: C_15  and  C_18 
REMARK   10  A    between atoms: C_15  and  C_23 
REMARK   11  A    between atoms: C_21  and  C_26 
REMARK   12  A    between atoms: C_24  and  C_25 
REMARK   13  A    between atoms: C_29  and  C_32 
REMARK   14  A    between atoms: C_36  and  O_39 
ROOT
HETATM    1  O   UNL     1      16.105   4.302  93.990  1.00  0.00    -0.350 OA
HETATM    2  N   UNL     1      14.296   2.676  92.511  1.00  0.00     0.147 N 
HETATM    3  C   UNL     1      14.297   4.139  92.379  1.00  0.00     0.283 C 
HETATM    4  C   UNL     1      14.754   2.291  93.854  1.00  0.00     0.283 C 
HETATM    5  C   UNL     1      15.692   4.684  92.677  1.00  0.00     0.178 C 
HETATM    6  C   UNL     1      16.136   2.880  94.118  1.00  0.00     0.178 C 
ENDROOT
BRANCH   2   7
HETATM    7  C   UNL     1      12.966   2.132  92.240  1.00  0.00     0.277 C 
BRANCH   7   8
HETATM    8  C   UNL     1      11.932   3.199  92.114  1.00  0.00     0.011 A 
HETATM    9  C   UNL     1      11.560   3.945  93.233  1.00  0.00    -0.002 A 
HETATM   10  C   UNL     1      10.591   4.941  93.116  1.00  0.00     0.008 A 
HETATM   11  C   UNL     1       9.996   5.192  91.880  1.00  0.00     0.042 A 
HETATM   12  C   UNL     1      10.367   4.448  90.762  1.00  0.00     0.008 A 
HETATM   13  C   UNL     1      11.336   3.451  90.878  1.00  0.00    -0.002 A 
BRANCH  11  14
HETATM   14  C   UNL     1       9.004   6.216  91.759  1.00  0.00    -0.059 C 
HETATM   15  C   UNL     1       8.170   7.076  91.659  1.00  0.00    -0.059 C 
BRANCH  15  16
HETATM   16  C   UNL     1       7.178   8.099  91.540  1.00  0.00     0.042 A 
HETATM   17  C   UNL     1       7.565   9.434  91.426  1.00  0.00     0.008 A 
HETATM   18  C   UNL     1       6.597  10.432  91.307  1.00  0.00     0.005 A 
HETATM   19  C   UNL     1       5.266  10.072  91.303  1.00  0.00     0.056 A 
HETATM   20  C   UNL     1       4.858   8.759  91.415  1.00  0.00     0.005 A 
HETATM   21  C   UNL     1       5.825   7.761  91.534  1.00  0.00     0.008 A 
BRANCH  19  22
HETATM   22  C   UNL     1       4.236  11.135  91.179  1.00  0.00     0.254 C 
HETATM   23  O   UNL     1       3.119  10.842  90.759  1.00  0.00    -0.268 OA
HETATM   24  N   UNL     1       4.622  12.406  91.581  1.00  0.00    -0.335 N 
HETATM   25  HN  UNL     1       5.555  12.569  91.941  1.00  0.00     0.164 HD
BRANCH  24  26
HETATM   26  C   UNL     1       3.729  13.537  91.543  1.00  0.00     0.169 C 
BRANCH  26  27
HETATM   27  C   UNL     1       3.438  14.110  92.935  1.00  0.00     0.138 C 
HETATM   28  C   UNL     1       4.506  13.734  93.957  1.00  0.00     0.034 C 
BRANCH  27  29
HETATM   29  O   UNL     1       3.353  15.533  92.857  1.00  0.00    -0.383 OA
HETATM   30  H   UNL     1       3.224  15.780  91.926  1.00  0.00     0.210 HD
ENDBRANCH  27  29
ENDBRANCH  26  27
BRANCH  26  31
HETATM   31  C   UNL     1       4.347  14.588  90.628  1.00  0.00     0.194 C 
HETATM   32  O   UNL     1       5.140  15.440  91.026  1.00  0.00    -0.289 OA
BRANCH  31  33
HETATM   33  C   UNL     1       3.885  14.490  89.338  1.00  0.00     0.053 C 
BRANCH  33  34
HETATM   34  C   UNL     1       4.764  13.901  88.418  1.00  0.00     0.220 C 
BRANCH  34  35
HETATM   35  O   UNL     1       5.920  14.024  88.865  1.00  0.00    -0.371 OA
HETATM   36  H   UNL     1       5.769  14.774  89.420  1.00  0.00     0.211 HD
ENDBRANCH  34  35
BRANCH  34  37
HETATM   37  C   UNL     1       4.447  12.566  88.116  1.00  0.00     0.185 C 
HETATM   38  O   UNL     1       5.711  12.358  88.448  1.00  0.00    -0.647 OA
BRANCH  37  39
HETATM   39  O   UNL     1       3.499  11.963  87.711  1.00  0.00    -0.774 OA
HETATM   40  H   UNL     1       3.774  11.281  86.847  1.00  0.00     0.167 HD
ENDBRANCH  37  39
ENDBRANCH  34  37
ENDBRANCH  33  34
ENDBRANCH  31  33
ENDBRANCH  26  31
ENDBRANCH  24  26
ENDBRANCH  19  22
ENDBRANCH  15  16
ENDBRANCH  11  14
ENDBRANCH   7   8
ENDBRANCH   2   7
TORSDOF 14
ENDMDL
