MODEL 1
REMARK VINA RESULT:      -7.1      0.000      0.000
REMARK  9 active torsions:
REMARK  status: ('A' for Active; 'I' for Inactive)
REMARK    1  A    between atoms: O_2  and  C_17 
REMARK    2  A    between atoms: N_5  and  C_10 
REMARK    3  A    between atoms: N_6  and  C_14 
REMARK       I    between atoms: N_6  and  C_23 
REMARK       I    between atoms: N_7  and  C_22 
REMARK    4  A    between atoms: C_10  and  C_13 
REMARK    5  A    between atoms: C_14  and  C_17 
REMARK    6  A    between atoms: C_14  and  C_22 
REMARK    7  A    between atoms: C_20  and  C_25 
REMARK    8  A    between atoms: C_23  and  C_24 
REMARK    9  A    between atoms: C_28  and  C_31 
ROOT
HETATM    1  O   UNL     1      15.983   3.930  94.119  1.00  0.00    -0.388 OA
HETATM    2  N   UNL     1      14.103   2.566  92.475  1.00  0.00     0.096 N 
HETATM    3  C   UNL     1      14.167   4.033  92.512  1.00  0.00     0.299 C 
HETATM    4  C   UNL     1      14.545   2.009  93.761  1.00  0.00     0.299 C 
HETATM    5  C   UNL     1      15.585   4.479  92.862  1.00  0.00     0.198 C 
HETATM    6  C   UNL     1      15.952   2.503  94.082  1.00  0.00     0.198 C 
ENDROOT
BRANCH   2   7
HETATM    7  C   UNL     1      12.750   2.115  92.152  1.00  0.00     0.311 C 
BRANCH   7   8
HETATM    8  C   UNL     1      11.839   3.247  91.818  1.00  0.00    -0.030 A 
HETATM    9  C   UNL     1      11.733   3.691  90.499  1.00  0.00     0.010 A 
HETATM   10  C   UNL     1      10.883   4.751  90.186  1.00  0.00     0.021 A 
HETATM   11  C   UNL     1      10.137   5.366  91.192  1.00  0.00     0.018 A 
HETATM   12  C   UNL     1      10.242   4.923  92.509  1.00  0.00     0.021 A 
HETATM   13  C   UNL     1      11.093   3.864  92.822  1.00  0.00     0.010 A 
BRANCH  11  14
HETATM   14  C   UNL     1       9.264   6.452  90.870  1.00  0.00    -0.061 C 
HETATM   15  C   UNL     1       8.529   7.365  90.600  1.00  0.00    -0.061 C 
BRANCH  15  16
HETATM   16  C   UNL     1       7.657   8.451  90.279  1.00  0.00     0.018 A 
HETATM   17  C   UNL     1       6.546   8.234  89.464  1.00  0.00     0.022 A 
HETATM   18  C   UNL     1       5.693   9.293  89.153  1.00  0.00     0.018 A 
HETATM   19  C   UNL     1       5.970  10.544  89.664  1.00  0.00     0.032 A 
HETATM   20  C   UNL     1       7.062  10.784  90.472  1.00  0.00     0.018 A 
HETATM   21  C   UNL     1       7.915   9.726  90.783  1.00  0.00     0.022 A 
BRANCH  19  22
HETATM   22  C   UNL     1       5.062  11.672  89.331  1.00  0.00     0.252 C 
HETATM   23  O   UNL     1       4.574  11.737  88.205  1.00  0.00    -0.268 OA
HETATM   24  N   UNL     1       4.813  12.575  90.355  1.00  0.00    -0.342 N 
HETATM   25  H   UNL     1       5.232  12.443  91.268  1.00  0.00     0.163 HD
BRANCH  24  26
HETATM   26  C   UNL     1       3.936  13.707  90.195  1.00  0.00     0.199 C 
BRANCH  26  27
HETATM   27  C   UNL     1       3.223  14.094  91.497  1.00  0.00     0.145 C 
HETATM   28  C   UNL     1       1.888  13.377  91.667  1.00  0.00     0.042 C 
BRANCH  27  29
HETATM   29  O   UNL     1       4.060  13.785  92.610  1.00  0.00    -0.393 OA
HETATM   30  H   UNL     1       3.903  14.449  93.303  1.00  0.00     0.210 HD
ENDBRANCH  27  29
ENDBRANCH  26  27
BRANCH  26  31
HETATM   31  C   UNL     1       4.766  14.866  89.652  1.00  0.00     0.220 C 
HETATM   32  O   UNL     1       4.938  15.061  88.450  1.00  0.00    -0.278 OA
HETATM   33  N   UNL     1       5.317  15.625  90.655  1.00  0.00    -0.271 NA
HETATM   34  H   UNL     1       5.270  15.441  91.651  1.00  0.00     0.127 HD
HETATM   35  H   UNL     1       6.661  15.699  91.054  1.00  0.00     0.127 HD
ENDBRANCH  26  31
ENDBRANCH  24  26
ENDBRANCH  19  22
ENDBRANCH  15  16
ENDBRANCH  11  14
ENDBRANCH   7   8
ENDBRANCH   2   7
TORSDOF 9
ENDMDL
MODEL 2
REMARK VINA RESULT:      -6.7      1.581      2.541
REMARK  9 active torsions:
REMARK  status: ('A' for Active; 'I' for Inactive)
REMARK    1  A    between atoms: O_2  and  C_17 
REMARK    2  A    between atoms: N_5  and  C_10 
REMARK    3  A    between atoms: N_6  and  C_14 
REMARK       I    between atoms: N_6  and  C_23 
REMARK       I    between atoms: N_7  and  C_22 
REMARK    4  A    between atoms: C_10  and  C_13 
REMARK    5  A    between atoms: C_14  and  C_17 
REMARK    6  A    between atoms: C_14  and  C_22 
REMARK    7  A    between atoms: C_20  and  C_25 
REMARK    8  A    between atoms: C_23  and  C_24 
REMARK    9  A    between atoms: C_28  and  C_31 
ROOT
HETATM    1  O   UNL     1      16.050   3.948  94.120  1.00  0.00    -0.388 OA
HETATM    2  N   UNL     1      14.191   2.679  92.379  1.00  0.00     0.096 N 
HETATM    3  C   UNL     1      14.373   4.137  92.376  1.00  0.00     0.299 C 
HETATM    4  C   UNL     1      14.490   2.136  93.711  1.00  0.00     0.299 C 
HETATM    5  C   UNL     1      15.793   4.481  92.820  1.00  0.00     0.198 C 
HETATM    6  C   UNL     1      15.905   2.527  94.124  1.00  0.00     0.198 C 
ENDROOT
BRANCH   2   7
HETATM    7  C   UNL     1      12.833   2.326  91.967  1.00  0.00     0.311 C 
BRANCH   7   8
HETATM    8  C   UNL     1      11.895   3.481  92.056  1.00  0.00    -0.030 A 
HETATM    9  C   UNL     1      11.360   4.035  90.892  1.00  0.00     0.010 A 
HETATM   10  C   UNL     1      10.484   5.117  90.974  1.00  0.00     0.021 A 
HETATM   11  C   UNL     1      10.141   5.643  92.219  1.00  0.00     0.018 A 
HETATM   12  C   UNL     1      10.674   5.090  93.382  1.00  0.00     0.021 A 
HETATM   13  C   UNL     1      11.551   4.009  93.300  1.00  0.00     0.010 A 
BRANCH  11  14
HETATM   14  C   UNL     1       9.240   6.752  92.303  1.00  0.00    -0.061 C 
HETATM   15  C   UNL     1       8.483   7.683  92.374  1.00  0.00    -0.061 C 
BRANCH  15  16
HETATM   16  C   UNL     1       7.584   8.791  92.458  1.00  0.00     0.018 A 
HETATM   17  C   UNL     1       6.847   9.177  91.338  1.00  0.00     0.022 A 
HETATM   18  C   UNL     1       5.968  10.257  91.421  1.00  0.00     0.018 A 
HETATM   19  C   UNL     1       5.845  10.925  92.621  1.00  0.00     0.032 A 
HETATM   20  C   UNL     1       6.562  10.563  93.743  1.00  0.00     0.018 A 
HETATM   21  C   UNL     1       7.442   9.484  93.661  1.00  0.00     0.022 A 
BRANCH  19  22
HETATM   22  C   UNL     1       4.909  12.076  92.709  1.00  0.00     0.252 C 
HETATM   23  O   UNL     1       4.574  12.494  93.815  1.00  0.00    -0.268 OA
HETATM   24  N   UNL     1       4.497  12.618  91.499  1.00  0.00    -0.342 N 
HETATM   25  H   UNL     1       4.836  12.236  90.624  1.00  0.00     0.163 HD
BRANCH  24  26
HETATM   26  C   UNL     1       3.611  13.751  91.419  1.00  0.00     0.199 C 
BRANCH  26  27
HETATM   27  C   UNL     1       3.622  14.417  90.037  1.00  0.00     0.145 C 
HETATM   28  C   UNL     1       4.884  15.237  89.795  1.00  0.00     0.042 C 
BRANCH  27  29
HETATM   29  O   UNL     1       3.518  13.416  89.025  1.00  0.00    -0.393 OA
HETATM   30  H   UNL     1       4.242  13.549  88.390  1.00  0.00     0.210 HD
ENDBRANCH  27  29
ENDBRANCH  26  27
BRANCH  26  31
HETATM   31  C   UNL     1       2.211  13.275  91.794  1.00  0.00     0.220 C 
HETATM   32  O   UNL     1       1.435  13.946  92.473  1.00  0.00    -0.278 OA
HETATM   33  N   UNL     1       1.947  12.013  91.320  1.00  0.00    -0.271 NA
HETATM   34  H   UNL     1       2.592  11.400  90.836  1.00  0.00     0.127 HD
HETATM   35  H   UNL     1       1.845  10.814  92.043  1.00  0.00     0.127 HD
ENDBRANCH  26  31
ENDBRANCH  24  26
ENDBRANCH  19  22
ENDBRANCH  15  16
ENDBRANCH  11  14
ENDBRANCH   7   8
ENDBRANCH   2   7
TORSDOF 9
ENDMDL
MODEL 3
REMARK VINA RESULT:      -6.6      1.374      1.858
REMARK  9 active torsions:
REMARK  status: ('A' for Active; 'I' for Inactive)
REMARK    1  A    between atoms: O_2  and  C_17 
REMARK    2  A    between atoms: N_5  and  C_10 
REMARK    3  A    between atoms: N_6  and  C_14 
REMARK       I    between atoms: N_6  and  C_23 
REMARK       I    between atoms: N_7  and  C_22 
REMARK    4  A    between atoms: C_10  and  C_13 
REMARK    5  A    between atoms: C_14  and  C_17 
REMARK    6  A    between atoms: C_14  and  C_22 
REMARK    7  A    between atoms: C_20  and  C_25 
REMARK    8  A    between atoms: C_23  and  C_24 
REMARK    9  A    between atoms: C_28  and  C_31 
ROOT
HETATM    1  O   UNL     1      16.589   3.202  93.810  1.00  0.00    -0.388 OA
HETATM    2  N   UNL     1      13.923   2.803  92.896  1.00  0.00     0.096 N 
HETATM    3  C   UNL     1      14.863   1.682  93.036  1.00  0.00     0.299 C 
HETATM    4  C   UNL     1      14.658   4.042  92.606  1.00  0.00     0.299 C 
HETATM    5  C   UNL     1      15.886   1.998  94.124  1.00  0.00     0.198 C 
HETATM    6  C   UNL     1      15.686   4.303  93.703  1.00  0.00     0.198 C 
ENDROOT
BRANCH   2   7
HETATM    7  C   UNL     1      12.939   2.526  91.851  1.00  0.00     0.311 C 
BRANCH   7   8
HETATM    8  C   UNL     1      11.888   3.580  91.766  1.00  0.00    -0.030 A 
HETATM    9  C   UNL     1      11.575   4.154  90.533  1.00  0.00     0.010 A 
HETATM   10  C   UNL     1      10.594   5.142  90.453  1.00  0.00     0.021 A 
HETATM   11  C   UNL     1       9.926   5.554  91.606  1.00  0.00     0.018 A 
HETATM   12  C   UNL     1      10.238   4.983  92.837  1.00  0.00     0.021 A 
HETATM   13  C   UNL     1      11.219   3.995  92.918  1.00  0.00     0.010 A 
BRANCH  11  14
HETATM   14  C   UNL     1       8.918   6.566  91.523  1.00  0.00    -0.061 C 
HETATM   15  C   UNL     1       8.071   7.417  91.453  1.00  0.00    -0.061 C 
BRANCH  15  16
HETATM   16  C   UNL     1       7.063   8.428  91.369  1.00  0.00     0.018 A 
HETATM   17  C   UNL     1       6.881   9.318  92.428  1.00  0.00     0.022 A 
HETATM   18  C   UNL     1       5.899  10.306  92.345  1.00  0.00     0.018 A 
HETATM   19  C   UNL     1       5.124  10.383  91.207  1.00  0.00     0.032 A 
HETATM   20  C   UNL     1       5.285   9.514  90.147  1.00  0.00     0.018 A 
HETATM   21  C   UNL     1       6.266   8.526  90.229  1.00  0.00     0.022 A 
BRANCH  19  22
HETATM   22  C   UNL     1       4.078  11.434  91.120  1.00  0.00     0.252 C 
HETATM   23  O   UNL     1       2.996  11.162  90.606  1.00  0.00    -0.268 OA
HETATM   24  N   UNL     1       4.409  12.667  91.664  1.00  0.00    -0.342 N 
HETATM   25  H   UNL     1       5.314  12.811  92.095  1.00  0.00     0.163 HD
BRANCH  24  26
HETATM   26  C   UNL     1       3.493  13.779  91.678  1.00  0.00     0.199 C 
BRANCH  26  27
HETATM   27  C   UNL     1       3.744  14.740  92.847  1.00  0.00     0.145 C 
HETATM   28  C   UNL     1       2.450  15.235  93.484  1.00  0.00     0.042 C 
BRANCH  27  29
HETATM   29  O   UNL     1       4.530  14.086  93.843  1.00  0.00    -0.393 OA
HETATM   30  H   UNL     1       3.978  13.409  94.270  1.00  0.00     0.210 HD
ENDBRANCH  27  29
ENDBRANCH  26  27
BRANCH  26  31
HETATM   31  C   UNL     1       3.609  14.496  90.337  1.00  0.00     0.220 C 
HETATM   32  O   UNL     1       4.453  15.360  90.110  1.00  0.00    -0.278 OA
HETATM   33  N   UNL     1       2.645  14.089  89.446  1.00  0.00    -0.271 NA
HETATM   34  H   UNL     1       1.882  13.448  89.628  1.00  0.00     0.127 HD
HETATM   35  H   UNL     1       1.522  14.799  88.993  1.00  0.00     0.127 HD
ENDBRANCH  26  31
ENDBRANCH  24  26
ENDBRANCH  19  22
ENDBRANCH  15  16
ENDBRANCH  11  14
ENDBRANCH   7   8
ENDBRANCH   2   7
TORSDOF 9
ENDMDL
MODEL 4
REMARK VINA RESULT:      -5.3      2.278     12.482
REMARK  9 active torsions:
REMARK  status: ('A' for Active; 'I' for Inactive)
REMARK    1  A    between atoms: O_2  and  C_17 
REMARK    2  A    between atoms: N_5  and  C_10 
REMARK    3  A    between atoms: N_6  and  C_14 
REMARK       I    between atoms: N_6  and  C_23 
REMARK       I    between atoms: N_7  and  C_22 
REMARK    4  A    between atoms: C_10  and  C_13 
REMARK    5  A    between atoms: C_14  and  C_17 
REMARK    6  A    between atoms: C_14  and  C_22 
REMARK    7  A    between atoms: C_20  and  C_25 
REMARK    8  A    between atoms: C_23  and  C_24 
REMARK    9  A    between atoms: C_28  and  C_31 
ROOT
HETATM    1  O   UNL     1       2.159  15.475  93.176  1.00  0.00    -0.388 OA
HETATM    2  N   UNL     1       2.833  12.913  92.135  1.00  0.00     0.096 N 
HETATM    3  C   UNL     1       3.427  14.142  91.593  1.00  0.00     0.299 C 
HETATM    4  C   UNL     1       1.496  13.196  92.676  1.00  0.00     0.299 C 
HETATM    5  C   UNL     1       3.472  15.216  92.677  1.00  0.00     0.198 C 
HETATM    6  C   UNL     1       1.586  14.292  93.733  1.00  0.00     0.198 C 
ENDROOT
BRANCH   2   7
HETATM    7  C   UNL     1       2.769  11.872  91.110  1.00  0.00     0.311 C 
BRANCH   7   8
HETATM    8  C   UNL     1       3.938  10.948  91.166  1.00  0.00    -0.030 A 
HETATM    9  C   UNL     1       5.025  11.248  91.988  1.00  0.00     0.010 A 
HETATM   10  C   UNL     1       6.119  10.386  92.040  1.00  0.00     0.021 A 
HETATM   11  C   UNL     1       6.125   9.222  91.271  1.00  0.00     0.018 A 
HETATM   12  C   UNL     1       5.040   8.921  90.450  1.00  0.00     0.021 A 
HETATM   13  C   UNL     1       3.946   9.784  90.398  1.00  0.00     0.010 A 
BRANCH  11  14
HETATM   14  C   UNL     1       7.247   8.336  91.325  1.00  0.00    -0.061 C 
HETATM   15  C   UNL     1       8.191   7.592  91.372  1.00  0.00    -0.061 C 
BRANCH  15  16
HETATM   16  C   UNL     1       9.312   6.707  91.427  1.00  0.00     0.018 A 
HETATM   17  C   UNL     1       9.826   6.160  90.251  1.00  0.00     0.022 A 
HETATM   18  C   UNL     1      10.922   5.298  90.305  1.00  0.00     0.018 A 
HETATM   19  C   UNL     1      11.478   5.004  91.532  1.00  0.00     0.032 A 
HETATM   20  C   UNL     1      10.988   5.531  92.709  1.00  0.00     0.018 A 
HETATM   21  C   UNL     1       9.892   6.392  92.656  1.00  0.00     0.022 A 
BRANCH  19  22
HETATM   22  C   UNL     1      12.644   4.084  91.590  1.00  0.00     0.252 C 
HETATM   23  O   UNL     1      12.836   3.300  90.664  1.00  0.00    -0.268 OA
HETATM   24  N   UNL     1      13.461   4.206  92.706  1.00  0.00    -0.342 N 
HETATM   25  H   UNL     1      13.254   4.895  93.419  1.00  0.00     0.163 HD
BRANCH  24  26
HETATM   26  C   UNL     1      14.642   3.403  92.894  1.00  0.00     0.199 C 
BRANCH  26  27
HETATM   27  C   UNL     1      15.695   4.092  93.771  1.00  0.00     0.145 C 
HETATM   28  C   UNL     1      17.012   3.326  93.813  1.00  0.00     0.042 C 
BRANCH  27  29
HETATM   29  O   UNL     1      15.940   5.409  93.277  1.00  0.00    -0.393 OA
HETATM   30  H   UNL     1      16.896   5.578  93.324  1.00  0.00     0.210 HD
ENDBRANCH  27  29
ENDBRANCH  26  27
BRANCH  26  31
HETATM   31  C   UNL     1      14.208   2.069  93.493  1.00  0.00     0.220 C 
HETATM   32  O   UNL     1      14.869   1.039  93.383  1.00  0.00    -0.278 OA
HETATM   33  N   UNL     1      12.990   2.155  94.124  1.00  0.00    -0.271 NA
HETATM   34  H   UNL     1      12.379   2.963  94.156  1.00  0.00     0.127 HD
HETATM   35  H   UNL     1      11.755   1.633  93.710  1.00  0.00     0.127 HD
ENDBRANCH  26  31
ENDBRANCH  24  26
ENDBRANCH  19  22
ENDBRANCH  15  16
ENDBRANCH  11  14
ENDBRANCH   7   8
ENDBRANCH   2   7
TORSDOF 9
ENDMDL
MODEL 5
REMARK VINA RESULT:      -5.3      1.706     12.340
REMARK  9 active torsions:
REMARK  status: ('A' for Active; 'I' for Inactive)
REMARK    1  A    between atoms: O_2  and  C_17 
REMARK    2  A    between atoms: N_5  and  C_10 
REMARK    3  A    between atoms: N_6  and  C_14 
REMARK       I    between atoms: N_6  and  C_23 
REMARK       I    between atoms: N_7  and  C_22 
REMARK    4  A    between atoms: C_10  and  C_13 
REMARK    5  A    between atoms: C_14  and  C_17 
REMARK    6  A    between atoms: C_14  and  C_22 
REMARK    7  A    between atoms: C_20  and  C_25 
REMARK    8  A    between atoms: C_23  and  C_24 
REMARK    9  A    between atoms: C_28  and  C_31 
ROOT
HETATM    1  O   UNL     1       3.231  13.988  92.436  1.00  0.00    -0.388 OA
HETATM    2  N   UNL     1       3.694  13.398  89.690  1.00  0.00     0.096 N 
HETATM    3  C   UNL     1       2.825  12.554  90.521  1.00  0.00     0.299 C 
HETATM    4  C   UNL     1       4.723  14.035  90.524  1.00  0.00     0.299 C 
HETATM    5  C   UNL     1       2.207  13.390  91.639  1.00  0.00     0.198 C 
HETATM    6  C   UNL     1       4.062  14.835  91.641  1.00  0.00     0.198 C 
ENDROOT
BRANCH   2   7
HETATM    7  C   UNL     1       4.305  12.615  88.618  1.00  0.00     0.311 C 
BRANCH   7   8
HETATM    8  C   UNL     1       5.220  11.558  89.137  1.00  0.00    -0.030 A 
HETATM    9  C   UNL     1       4.697  10.348  89.594  1.00  0.00     0.010 A 
HETATM   10  C   UNL     1       5.551   9.359  90.082  1.00  0.00     0.021 A 
HETATM   11  C   UNL     1       6.928   9.580  90.111  1.00  0.00     0.018 A 
HETATM   12  C   UNL     1       7.451  10.788  89.654  1.00  0.00     0.021 A 
HETATM   13  C   UNL     1       6.597  11.778  89.166  1.00  0.00     0.010 A 
BRANCH  11  14
HETATM   14  C   UNL     1       7.804   8.565  90.609  1.00  0.00    -0.061 C 
HETATM   15  C   UNL     1       8.540   7.712  91.028  1.00  0.00    -0.061 C 
BRANCH  15  16
HETATM   16  C   UNL     1       9.416   6.697  91.525  1.00  0.00     0.018 A 
HETATM   17  C   UNL     1       9.706   6.634  92.889  1.00  0.00     0.022 A 
HETATM   18  C   UNL     1      10.558   5.642  93.374  1.00  0.00     0.018 A 
HETATM   19  C   UNL     1      11.100   4.736  92.487  1.00  0.00     0.032 A 
HETATM   20  C   UNL     1      10.830   4.778  91.135  1.00  0.00     0.018 A 
HETATM   21  C   UNL     1       9.978   5.769  90.648  1.00  0.00     0.022 A 
BRANCH  19  22
HETATM   22  C   UNL     1      12.010   3.681  93.004  1.00  0.00     0.252 C 
HETATM   23  O   UNL     1      11.565   2.554  93.209  1.00  0.00    -0.268 OA
HETATM   24  N   UNL     1      13.331   4.058  93.196  1.00  0.00    -0.342 N 
HETATM   25  H   UNL     1      13.632   5.002  92.981  1.00  0.00     0.163 HD
BRANCH  24  26
HETATM   26  C   UNL     1      14.338   3.143  93.670  1.00  0.00     0.199 C 
BRANCH  26  27
HETATM   27  C   UNL     1      14.461   1.890  92.793  1.00  0.00     0.145 C 
HETATM   28  C   UNL     1      15.305   2.130  91.546  1.00  0.00     0.042 C 
BRANCH  27  29
HETATM   29  O   UNL     1      15.045   0.832  93.551  1.00  0.00    -0.393 OA
HETATM   30  H   UNL     1      14.432   0.596  94.268  1.00  0.00     0.210 HD
ENDBRANCH  27  29
ENDBRANCH  26  27
BRANCH  26  31
HETATM   31  C   UNL     1      15.660   3.900  93.742  1.00  0.00     0.220 C 
HETATM   32  O   UNL     1      15.766   5.092  93.456  1.00  0.00    -0.278 OA
HETATM   33  N   UNL     1      16.703   3.090  94.121  1.00  0.00    -0.271 NA
HETATM   34  H   UNL     1      16.668   2.089  94.276  1.00  0.00     0.127 HD
HETATM   35  H   UNL     1      17.765   2.612  93.337  1.00  0.00     0.127 HD
ENDBRANCH  26  31
ENDBRANCH  24  26
ENDBRANCH  19  22
ENDBRANCH  15  16
ENDBRANCH  11  14
ENDBRANCH   7   8
ENDBRANCH   2   7
TORSDOF 9
ENDMDL
MODEL 6
REMARK VINA RESULT:      -5.2      1.979     12.229
REMARK  9 active torsions:
REMARK  status: ('A' for Active; 'I' for Inactive)
REMARK    1  A    between atoms: O_2  and  C_17 
REMARK    2  A    between atoms: N_5  and  C_10 
REMARK    3  A    between atoms: N_6  and  C_14 
REMARK       I    between atoms: N_6  and  C_23 
REMARK       I    between atoms: N_7  and  C_22 
REMARK    4  A    between atoms: C_10  and  C_13 
REMARK    5  A    between atoms: C_14  and  C_17 
REMARK    6  A    between atoms: C_14  and  C_22 
REMARK    7  A    between atoms: C_20  and  C_25 
REMARK    8  A    between atoms: C_23  and  C_24 
REMARK    9  A    between atoms: C_28  and  C_31 
ROOT
HETATM    1  O   UNL     1       5.340  14.558  88.701  1.00  0.00    -0.388 OA
HETATM    2  N   UNL     1       3.367  13.085  90.130  1.00  0.00     0.096 N 
HETATM    3  C   UNL     1       4.176  14.122  90.786  1.00  0.00     0.299 C 
HETATM    4  C   UNL     1       4.120  12.485  89.020  1.00  0.00     0.299 C 
HETATM    5  C   UNL     1       4.603  15.170  89.761  1.00  0.00     0.198 C 
HETATM    6  C   UNL     1       4.549  13.571  88.038  1.00  0.00     0.198 C 
ENDROOT
BRANCH   2   7
HETATM    7  C   UNL     1       2.955  12.064  91.091  1.00  0.00     0.311 C 
BRANCH   7   8
HETATM    8  C   UNL     1       4.040  11.081  91.374  1.00  0.00    -0.030 A 
HETATM    9  C   UNL     1       5.029  11.385  92.311  1.00  0.00     0.010 A 
HETATM   10  C   UNL     1       6.045  10.466  92.574  1.00  0.00     0.021 A 
HETATM   11  C   UNL     1       6.070   9.244  91.904  1.00  0.00     0.018 A 
HETATM   12  C   UNL     1       5.082   8.939  90.969  1.00  0.00     0.021 A 
HETATM   13  C   UNL     1       4.067   9.858  90.704  1.00  0.00     0.010 A 
BRANCH  11  14
HETATM   14  C   UNL     1       7.111   8.301  92.176  1.00  0.00    -0.061 C 
HETATM   15  C   UNL     1       7.986   7.509  92.405  1.00  0.00    -0.061 C 
BRANCH  15  16
HETATM   16  C   UNL     1       9.027   6.567  92.678  1.00  0.00     0.018 A 
HETATM   17  C   UNL     1       9.271   5.522  91.787  1.00  0.00     0.022 A 
HETATM   18  C   UNL     1      10.288   4.605  92.052  1.00  0.00     0.018 A 
HETATM   19  C   UNL     1      11.037   4.754  93.201  1.00  0.00     0.032 A 
HETATM   20  C   UNL     1      10.814   5.778  94.097  1.00  0.00     0.018 A 
HETATM   21  C   UNL     1       9.798   6.695  93.833  1.00  0.00     0.022 A 
BRANCH  19  22
HETATM   22  C   UNL     1      12.119   3.775  93.484  1.00  0.00     0.252 C 
HETATM   23  O   UNL     1      11.820   2.629  93.809  1.00  0.00    -0.268 OA
HETATM   24  N   UNL     1      13.417   4.242  93.330  1.00  0.00    -0.342 N 
HETATM   25  H   UNL     1      13.587   5.196  93.034  1.00  0.00     0.163 HD
BRANCH  24  26
HETATM   26  C   UNL     1      14.572   3.408  93.544  1.00  0.00     0.199 C 
BRANCH  26  27
HETATM   27  C   UNL     1      14.787   2.392  92.415  1.00  0.00     0.145 C 
HETATM   28  C   UNL     1      14.389   2.942  91.050  1.00  0.00     0.042 C 
BRANCH  27  29
HETATM   29  O   UNL     1      16.161   2.006  92.376  1.00  0.00    -0.393 OA
HETATM   30  H   UNL     1      16.652   2.677  91.873  1.00  0.00     0.210 HD
ENDBRANCH  27  29
ENDBRANCH  26  27
BRANCH  26  31
HETATM   31  C   UNL     1      15.782   4.321  93.707  1.00  0.00     0.220 C 
HETATM   32  O   UNL     1      15.752   5.524  93.456  1.00  0.00    -0.278 OA
HETATM   33  N   UNL     1      16.898   3.635  94.123  1.00  0.00    -0.271 NA
HETATM   34  H   UNL     1      16.981   2.633  94.252  1.00  0.00     0.127 HD
HETATM   35  H   UNL     1      18.050   3.317  93.387  1.00  0.00     0.127 HD
ENDBRANCH  26  31
ENDBRANCH  24  26
ENDBRANCH  19  22
ENDBRANCH  15  16
ENDBRANCH  11  14
ENDBRANCH   7   8
ENDBRANCH   2   7
TORSDOF 9
ENDMDL
MODEL 7
REMARK VINA RESULT:      -4.9      2.415     12.294
REMARK  9 active torsions:
REMARK  status: ('A' for Active; 'I' for Inactive)
REMARK    1  A    between atoms: O_2  and  C_17 
REMARK    2  A    between atoms: N_5  and  C_10 
REMARK    3  A    between atoms: N_6  and  C_14 
REMARK       I    between atoms: N_6  and  C_23 
REMARK       I    between atoms: N_7  and  C_22 
REMARK    4  A    between atoms: C_10  and  C_13 
REMARK    5  A    between atoms: C_14  and  C_17 
REMARK    6  A    between atoms: C_14  and  C_22 
REMARK    7  A    between atoms: C_20  and  C_25 
REMARK    8  A    between atoms: C_23  and  C_24 
REMARK    9  A    between atoms: C_28  and  C_31 
ROOT
HETATM    1  O   UNL     1       1.667  13.640  94.124  1.00  0.00    -0.388 OA
HETATM    2  N   UNL     1       1.985  13.817  91.301  1.00  0.00     0.096 N 
HETATM    3  C   UNL     1       2.028  12.524  91.999  1.00  0.00     0.299 C 
HETATM    4  C   UNL     1       2.446  14.887  92.195  1.00  0.00     0.299 C 
HETATM    5  C   UNL     1       1.189  12.596  93.272  1.00  0.00     0.198 C 
HETATM    6  C   UNL     1       1.599  14.904  93.463  1.00  0.00     0.198 C 
ENDROOT
BRANCH   2   7
HETATM    7  C   UNL     1       2.791  13.773  90.082  1.00  0.00     0.311 C 
BRANCH   7   8
HETATM    8  C   UNL     1       3.784  12.662  90.097  1.00  0.00    -0.030 A 
HETATM    9  C   UNL     1       4.667  12.532  91.169  1.00  0.00     0.010 A 
HETATM   10  C   UNL     1       5.599  11.494  91.183  1.00  0.00     0.021 A 
HETATM   11  C   UNL     1       5.645  10.586  90.126  1.00  0.00     0.018 A 
HETATM   12  C   UNL     1       4.764  10.715  89.055  1.00  0.00     0.021 A 
HETATM   13  C   UNL     1       3.832  11.753  89.040  1.00  0.00     0.010 A 
BRANCH  11  14
HETATM   14  C   UNL     1       6.600   9.520  90.142  1.00  0.00    -0.061 C 
HETATM   15  C   UNL     1       7.401   8.624  90.155  1.00  0.00    -0.061 C 
BRANCH  15  16
HETATM   16  C   UNL     1       8.354   7.558  90.170  1.00  0.00     0.018 A 
HETATM   17  C   UNL     1       9.321   7.475  89.168  1.00  0.00     0.022 A 
HETATM   18  C   UNL     1      10.253   6.437  89.185  1.00  0.00     0.018 A 
HETATM   19  C   UNL     1      10.197   5.507  90.201  1.00  0.00     0.032 A 
HETATM   20  C   UNL     1       9.250   5.567  91.203  1.00  0.00     0.018 A 
HETATM   21  C   UNL     1       8.318   6.604  91.187  1.00  0.00     0.022 A 
BRANCH  19  22
HETATM   22  C   UNL     1      11.188   4.400  90.217  1.00  0.00     0.252 C 
HETATM   23  O   UNL     1      11.139   3.538  89.343  1.00  0.00    -0.268 OA
HETATM   24  N   UNL     1      12.132   4.443  91.234  1.00  0.00    -0.342 N 
HETATM   25  H   UNL     1      12.126   5.201  91.907  1.00  0.00     0.163 HD
BRANCH  24  26
HETATM   26  C   UNL     1      13.173   3.456  91.369  1.00  0.00     0.199 C 
BRANCH  26  27
HETATM   27  C   UNL     1      14.388   3.977  92.146  1.00  0.00     0.145 C 
HETATM   28  C   UNL     1      14.236   3.802  93.653  1.00  0.00     0.042 C 
BRANCH  27  29
HETATM   29  O   UNL     1      15.561   3.288  91.716  1.00  0.00    -0.393 OA
HETATM   30  H   UNL     1      16.288   3.516  92.320  1.00  0.00     0.210 HD
ENDBRANCH  27  29
ENDBRANCH  26  27
BRANCH  26  31
HETATM   31  C   UNL     1      12.567   2.230  92.044  1.00  0.00     0.220 C 
HETATM   32  O   UNL     1      13.138   1.142  92.093  1.00  0.00    -0.278 OA
HETATM   33  N   UNL     1      11.312   2.479  92.544  1.00  0.00    -0.271 NA
HETATM   34  H   UNL     1      10.777   3.334  92.442  1.00  0.00     0.127 HD
HETATM   35  H   UNL     1      10.075   2.022  92.062  1.00  0.00     0.127 HD
ENDBRANCH  26  31
ENDBRANCH  24  26
ENDBRANCH  19  22
ENDBRANCH  15  16
ENDBRANCH  11  14
ENDBRANCH   7   8
ENDBRANCH   2   7
TORSDOF 9
ENDMDL
MODEL 8
REMARK VINA RESULT:      -4.8      2.537     12.411
REMARK  9 active torsions:
REMARK  status: ('A' for Active; 'I' for Inactive)
REMARK    1  A    between atoms: O_2  and  C_17 
REMARK    2  A    between atoms: N_5  and  C_10 
REMARK    3  A    between atoms: N_6  and  C_14 
REMARK       I    between atoms: N_6  and  C_23 
REMARK       I    between atoms: N_7  and  C_22 
REMARK    4  A    between atoms: C_10  and  C_13 
REMARK    5  A    between atoms: C_14  and  C_17 
REMARK    6  A    between atoms: C_14  and  C_22 
REMARK    7  A    between atoms: C_20  and  C_25 
REMARK    8  A    between atoms: C_23  and  C_24 
REMARK    9  A    between atoms: C_28  and  C_31 
ROOT
HETATM    1  O   UNL     1       2.834  14.170  89.844  1.00  0.00    -0.388 OA
HETATM    2  N   UNL     1       3.026  13.729  92.649  1.00  0.00     0.096 N 
HETATM    3  C   UNL     1       4.142  13.420  91.745  1.00  0.00     0.299 C 
HETATM    4  C   UNL     1       1.748  13.595  91.935  1.00  0.00     0.299 C 
HETATM    5  C   UNL     1       4.083  14.329  90.520  1.00  0.00     0.198 C 
HETATM    6  C   UNL     1       1.745  14.499  90.706  1.00  0.00     0.198 C 
ENDROOT
BRANCH   2   7
HETATM    7  C   UNL     1       3.057  12.861  93.826  1.00  0.00     0.311 C 
BRANCH   7   8
HETATM    8  C   UNL     1       4.058  11.764  93.696  1.00  0.00    -0.030 A 
HETATM    9  C   UNL     1       3.643  10.483  93.331  1.00  0.00     0.010 A 
HETATM   10  C   UNL     1       4.578   9.455  93.212  1.00  0.00     0.021 A 
HETATM   11  C   UNL     1       5.928   9.710  93.455  1.00  0.00     0.018 A 
HETATM   12  C   UNL     1       6.343  10.989  93.819  1.00  0.00     0.021 A 
HETATM   13  C   UNL     1       5.408  12.017  93.939  1.00  0.00     0.010 A 
BRANCH  11  14
HETATM   14  C   UNL     1       6.887   8.656  93.331  1.00  0.00    -0.061 C 
HETATM   15  C   UNL     1       7.693   7.770  93.225  1.00  0.00    -0.061 C 
BRANCH  15  16
HETATM   16  C   UNL     1       8.652   6.717  93.100  1.00  0.00     0.018 A 
HETATM   17  C   UNL     1       8.487   5.738  92.120  1.00  0.00     0.022 A 
HETATM   18  C   UNL     1       9.424   4.712  91.996  1.00  0.00     0.018 A 
HETATM   19  C   UNL     1      10.504   4.688  92.853  1.00  0.00     0.032 A 
HETATM   20  C   UNL     1      10.690   5.644  93.830  1.00  0.00     0.018 A 
HETATM   21  C   UNL     1       9.753   6.670  93.955  1.00  0.00     0.022 A 
BRANCH  19  22
HETATM   22  C   UNL     1      11.501   3.594  92.722  1.00  0.00     0.252 C 
HETATM   23  O   UNL     1      11.118   2.468  92.415  1.00  0.00    -0.268 OA
HETATM   24  N   UNL     1      12.825   3.949  92.939  1.00  0.00    -0.342 N 
HETATM   25  H   UNL     1      13.069   4.906  93.165  1.00  0.00     0.163 HD
BRANCH  24  26
HETATM   26  C   UNL     1      13.909   3.007  92.825  1.00  0.00     0.199 C 
BRANCH  26  27
HETATM   27  C   UNL     1      14.340   2.770  91.372  1.00  0.00     0.145 C 
HETATM   28  C   UNL     1      14.151   4.006  90.499  1.00  0.00     0.042 C 
BRANCH  27  29
HETATM   29  O   UNL     1      15.714   2.385  91.339  1.00  0.00    -0.393 OA
HETATM   30  H   UNL     1      16.232   3.060  91.809  1.00  0.00     0.210 HD
ENDBRANCH  27  29
ENDBRANCH  26  27
BRANCH  26  31
HETATM   31  C   UNL     1      15.068   3.525  93.670  1.00  0.00     0.220 C 
HETATM   32  O   UNL     1      15.260   4.722  93.882  1.00  0.00    -0.278 OA
HETATM   33  N   UNL     1      15.876   2.510  94.122  1.00  0.00    -0.271 NA
HETATM   34  H   UNL     1      15.800   1.526  93.893  1.00  0.00     0.127 HD
HETATM   35  H   UNL     1      17.176   2.181  93.707  1.00  0.00     0.127 HD
ENDBRANCH  26  31
ENDBRANCH  24  26
ENDBRANCH  19  22
ENDBRANCH  15  16
ENDBRANCH  11  14
ENDBRANCH   7   8
ENDBRANCH   2   7
TORSDOF 9
ENDMDL
