MODEL 1
REMARK VINA RESULT:      -6.9      0.000      0.000
REMARK  11 active torsions:
REMARK  status: ('A' for Active; 'I' for Inactive)
REMARK    1  A    between atoms: O_2  and  C_18 
REMARK    2  A    between atoms: O_5  and  P_8 
REMARK    3  A    between atoms: N_6  and  C_11 
REMARK    4  A    between atoms: N_7  and  C_15 
REMARK       I    between atoms: N_7  and  C_24 
REMARK    5  A    between atoms: P_8  and  C_23 
REMARK    6  A    between atoms: C_11  and  C_14 
REMARK    7  A    between atoms: C_15  and  C_18 
REMARK    8  A    between atoms: C_15  and  C_23 
REMARK    9  A    between atoms: C_21  and  C_26 
REMARK   10  A    between atoms: C_24  and  C_25 
REMARK   11  A    between atoms: C_29  and  C_32 
ROOT
HETATM    1  O   UNL     1      16.360   4.171  94.124  1.00  0.00     0.000 OA
HETATM    2  N   UNL     1      14.549   2.645  92.546  1.00  0.00     0.000 N 
HETATM    3  C   UNL     1      14.463   4.110  92.612  1.00  0.00     0.000 C 
HETATM    4  C   UNL     1      15.114   2.117  93.795  1.00  0.00     0.000 C 
HETATM    5  C   UNL     1      15.843   4.697  92.900  1.00  0.00     0.000 C 
HETATM    6  C   UNL     1      16.476   2.750  94.056  1.00  0.00     0.000 C 
ENDROOT
BRANCH   2   7
HETATM    7  C   UNL     1      13.236   2.061  92.281  1.00  0.00     0.000 C 
BRANCH   7   8
HETATM    8  C   UNL     1      12.208   3.093  91.965  1.00  0.00     0.000 A 
HETATM    9  C   UNL     1      11.453   3.662  92.991  1.00  0.00     0.000 A 
HETATM   10  C   UNL     1      10.490   4.627  92.697  1.00  0.00     0.000 A 
HETATM   11  C   UNL     1      10.284   5.024  91.376  1.00  0.00     0.000 A 
HETATM   12  C   UNL     1      11.037   4.457  90.350  1.00  0.00     0.000 A 
HETATM   13  C   UNL     1      12.000   3.491  90.644  1.00  0.00     0.000 A 
BRANCH  11  14
HETATM   14  C   UNL     1       9.297   6.015  91.074  1.00  0.00     0.000 C 
HETATM   15  C   UNL     1       8.468   6.848  90.820  1.00  0.00     0.000 C 
BRANCH  15  16
HETATM   16  C   UNL     1       7.482   7.838  90.517  1.00  0.00     0.000 A 
HETATM   17  C   UNL     1       6.209   7.748  91.080  1.00  0.00     0.000 A 
HETATM   18  C   UNL     1       5.248   8.715  90.786  1.00  0.00     0.000 A 
HETATM   19  C   UNL     1       5.582   9.751  89.939  1.00  0.00     0.000 A 
HETATM   20  C   UNL     1       6.833   9.863  89.371  1.00  0.00     0.000 A 
HETATM   21  C   UNL     1       7.795   8.896  89.663  1.00  0.00     0.000 A 
BRANCH  19  22
HETATM   22  C   UNL     1       4.557  10.781  89.626  1.00  0.00     0.000 C 
HETATM   23  O   UNL     1       3.577  10.466  88.955  1.00  0.00     0.000 OA
HETATM   24  N   UNL     1       4.784  12.045  90.152  1.00  0.00     0.000 N 
HETATM   25  HN  UNL     1       5.605  12.224  90.719  1.00  0.00     0.000 HD
BRANCH  24  26
HETATM   26  C   UNL     1       3.871  13.142  89.957  1.00  0.00     0.000 C 
BRANCH  26  27
HETATM   27  C   UNL     1       3.232  13.622  91.266  1.00  0.00     0.000 C 
HETATM   28  C   UNL     1       2.361  12.553  91.917  1.00  0.00     0.000 C 
BRANCH  27  29
HETATM   29  O   UNL     1       4.255  14.009  92.183  1.00  0.00     0.000 OA
HETATM   30  H   UNL     1       5.023  13.430  92.044  1.00  0.00     0.000 HD
ENDBRANCH  27  29
ENDBRANCH  26  27
BRANCH  26  31
HETATM   31  C   UNL     1       4.635  14.267  89.267  1.00  0.00     0.000 C 
HETATM   32  O   UNL     1       4.620  15.430  89.667  1.00  0.00     0.000 OA
BRANCH  31  33
HETATM   33  P   UNL     1       5.297  13.833  88.144  1.00  0.00     0.000 P 
HETATM   34  H   UNL     1       5.716  14.946  87.444  1.00  0.00     0.000 HD
BRANCH  33  35
HETATM   35  O   UNL     1       4.552  13.029  87.270  1.00  0.00     0.000 OA
HETATM   36  H   UNL     1       3.798  12.804  87.840  1.00  0.00     0.000 HD
ENDBRANCH  33  35
ENDBRANCH  31  33
ENDBRANCH  26  31
ENDBRANCH  24  26
ENDBRANCH  19  22
ENDBRANCH  15  16
ENDBRANCH  11  14
ENDBRANCH   7   8
ENDBRANCH   2   7
TORSDOF 11
ENDMDL
