MODEL 1
REMARK VINA RESULT:      -6.9      0.000      0.000
REMARK  11 active torsions:
REMARK  status: ('A' for Active; 'I' for Inactive)
REMARK    1  A    between atoms: O_2  and  C_18 
REMARK    2  A    between atoms: O_5  and  P_8 
REMARK    3  A    between atoms: N_6  and  C_11 
REMARK    4  A    between atoms: N_7  and  C_15 
REMARK       I    between atoms: N_7  and  C_24 
REMARK    5  A    between atoms: P_8  and  C_23 
REMARK    6  A    between atoms: C_11  and  C_14 
REMARK    7  A    between atoms: C_15  and  C_18 
REMARK    8  A    between atoms: C_15  and  C_23 
REMARK    9  A    between atoms: C_21  and  C_26 
REMARK   10  A    between atoms: C_24  and  C_25 
REMARK   11  A    between atoms: C_29  and  C_32 
ROOT
HETATM    1  O   UNL     1      16.224   4.216  94.123  1.00  0.00     0.000 OA
HETATM    2  N   UNL     1      14.460   2.754  92.435  1.00  0.00     0.000 N 
HETATM    3  C   UNL     1      14.482   4.223  92.434  1.00  0.00     0.000 C 
HETATM    4  C   UNL     1      14.859   2.246  93.754  1.00  0.00     0.000 C 
HETATM    5  C   UNL     1      15.869   4.720  92.834  1.00  0.00     0.000 C 
HETATM    6  C   UNL     1      16.235   2.788  94.124  1.00  0.00     0.000 C 
ENDROOT
BRANCH   2   7
HETATM    7  C   UNL     1      13.136   2.256  92.064  1.00  0.00     0.000 C 
BRANCH   7   8
HETATM    8  C   UNL     1      12.177   3.358  91.769  1.00  0.00     0.000 A 
HETATM    9  C   UNL     1      11.532   4.019  92.815  1.00  0.00     0.000 A 
HETATM   10  C   UNL     1      10.632   5.049  92.539  1.00  0.00     0.000 A 
HETATM   11  C   UNL     1      10.380   5.418  91.219  1.00  0.00     0.000 A 
HETATM   12  C   UNL     1      11.024   4.759  90.173  1.00  0.00     0.000 A 
HETATM   13  C   UNL     1      11.923   3.729  90.448  1.00  0.00     0.000 A 
BRANCH  11  14
HETATM   14  C   UNL     1       9.459   6.476  90.936  1.00  0.00     0.000 C 
HETATM   15  C   UNL     1       8.686   7.366  90.699  1.00  0.00     0.000 C 
BRANCH  15  16
HETATM   16  C   UNL     1       7.766   8.423  90.417  1.00  0.00     0.000 A 
HETATM   17  C   UNL     1       6.449   8.341  90.871  1.00  0.00     0.000 A 
HETATM   18  C   UNL     1       5.553   9.374  90.598  1.00  0.00     0.000 A 
HETATM   19  C   UNL     1       5.992  10.465  89.877  1.00  0.00     0.000 A 
HETATM   20  C   UNL     1       7.288  10.570  89.417  1.00  0.00     0.000 A 
HETATM   21  C   UNL     1       8.186   9.537  89.690  1.00  0.00     0.000 A 
BRANCH  19  22
HETATM   22  C   UNL     1       5.037  11.564  89.585  1.00  0.00     0.000 C 
HETATM   23  O   UNL     1       4.653  11.734  88.430  1.00  0.00     0.000 OA
HETATM   24  N   UNL     1       4.623  12.317  90.675  1.00  0.00     0.000 N 
HETATM   25  HN  UNL     1       4.963  12.103  91.605  1.00  0.00     0.000 HD
BRANCH  24  26
HETATM   26  C   UNL     1       3.681  13.401  90.557  1.00  0.00     0.000 C 
BRANCH  26  27
HETATM   27  C   UNL     1       2.397  13.162  91.361  1.00  0.00     0.000 C 
HETATM   28  C   UNL     1       2.651  12.387  92.650  1.00  0.00     0.000 C 
BRANCH  27  29
HETATM   29  O   UNL     1       1.796  14.415  91.684  1.00  0.00     0.000 OA
HETATM   30  H   UNL     1       2.394  14.895  92.282  1.00  0.00     0.000 HD
ENDBRANCH  27  29
ENDBRANCH  26  27
BRANCH  26  31
HETATM   31  C   UNL     1       4.384  14.680  91.001  1.00  0.00     0.000 C 
HETATM   32  O   UNL     1       4.419  15.052  92.173  1.00  0.00     0.000 OA
BRANCH  31  33
HETATM   33  P   UNL     1       4.927  15.368  89.944  1.00  0.00     0.000 P 
HETATM   34  H   UNL     1       4.215  16.541  89.792  1.00  0.00     0.000 HD
BRANCH  33  35
HETATM   35  O   UNL     1       4.920  14.699  88.712  1.00  0.00     0.000 OA
HETATM   36  H   UNL     1       4.084  14.206  88.786  1.00  0.00     0.000 HD
ENDBRANCH  33  35
ENDBRANCH  31  33
ENDBRANCH  26  31
ENDBRANCH  24  26
ENDBRANCH  19  22
ENDBRANCH  15  16
ENDBRANCH  11  14
ENDBRANCH   7   8
ENDBRANCH   2   7
TORSDOF 11
ENDMDL
