MODEL 1
REMARK VINA RESULT:      -6.4      0.000      0.000
REMARK  14 active torsions:
REMARK  status: ('A' for Active; 'I' for Inactive)
REMARK    1  A    between atoms: O_2  and  C_18 
REMARK    2  A    between atoms: C_5  and  C_8 
REMARK    3  A    between atoms: C_5  and  O_35 
REMARK    4  A    between atoms: C_5  and  C_36 
REMARK    5  A    between atoms: N_6  and  C_11 
REMARK    6  A    between atoms: N_7  and  C_15 
REMARK       I    between atoms: N_7  and  C_24 
REMARK    7  A    between atoms: C_8  and  C_23 
REMARK    8  A    between atoms: C_11  and  C_14 
REMARK    9  A    between atoms: C_15  and  C_18 
REMARK   10  A    between atoms: C_15  and  C_23 
REMARK   11  A    between atoms: C_21  and  C_26 
REMARK   12  A    between atoms: C_24  and  C_25 
REMARK   13  A    between atoms: C_29  and  C_32 
REMARK   14  A    between atoms: C_36  and  O_39 
ROOT
HETATM    1  O   UNL     1      16.185   2.867  93.988  1.00  0.00    -0.350 OA
HETATM    2  N   UNL     1      13.763   3.075  92.507  1.00  0.00     0.147 N 
HETATM    3  C   UNL     1      14.353   1.769  92.834  1.00  0.00     0.283 C 
HETATM    4  C   UNL     1      14.818   4.092  92.402  1.00  0.00     0.283 C 
HETATM    5  C   UNL     1      15.163   1.877  94.124  1.00  0.00     0.178 C 
HETATM    6  C   UNL     1      15.618   4.145  93.699  1.00  0.00     0.178 C 
ENDROOT
BRANCH   2   7
HETATM    7  C   UNL     1      12.990   2.997  91.268  1.00  0.00     0.277 C 
BRANCH   7   8
HETATM    8  C   UNL     1      11.814   3.914  91.274  1.00  0.00     0.011 A 
HETATM    9  C   UNL     1      11.373   4.472  92.474  1.00  0.00    -0.002 A 
HETATM   10  C   UNL     1      10.271   5.328  92.481  1.00  0.00     0.008 A 
HETATM   11  C   UNL     1       9.614   5.626  91.288  1.00  0.00     0.042 A 
HETATM   12  C   UNL     1      10.054   5.069  90.089  1.00  0.00     0.008 A 
HETATM   13  C   UNL     1      11.155   4.213  90.082  1.00  0.00    -0.002 A 
BRANCH  11  14
HETATM   14  C   UNL     1       8.485   6.506  91.295  1.00  0.00    -0.059 C 
HETATM   15  C   UNL     1       7.537   7.244  91.301  1.00  0.00    -0.059 C 
BRANCH  15  16
HETATM   16  C   UNL     1       6.408   8.122  91.308  1.00  0.00     0.042 A 
HETATM   17  C   UNL     1       6.456   9.311  92.037  1.00  0.00     0.008 A 
HETATM   18  C   UNL     1       5.356  10.169  92.042  1.00  0.00     0.005 A 
HETATM   19  C   UNL     1       4.235   9.820  91.318  1.00  0.00     0.056 A 
HETATM   20  C   UNL     1       4.163   8.651  90.591  1.00  0.00     0.005 A 
HETATM   21  C   UNL     1       5.262   7.792  90.585  1.00  0.00     0.008 A 
BRANCH  19  22
HETATM   22  C   UNL     1       3.063  10.733  91.326  1.00  0.00     0.254 C 
HETATM   23  O   UNL     1       1.963  10.300  90.991  1.00  0.00    -0.268 OA
HETATM   24  N   UNL     1       3.308  12.034  91.745  1.00  0.00    -0.335 N 
HETATM   25  HN  UNL     1       4.239  12.313  92.031  1.00  0.00     0.164 HD
BRANCH  24  26
HETATM   26  C   UNL     1       2.271  13.030  91.830  1.00  0.00     0.169 C 
BRANCH  26  27
HETATM   27  C   UNL     1       2.188  13.685  93.215  1.00  0.00     0.138 C 
HETATM   28  C   UNL     1       3.448  13.457  94.044  1.00  0.00     0.034 C 
BRANCH  27  29
HETATM   29  O   UNL     1       1.978  15.089  93.067  1.00  0.00    -0.383 OA
HETATM   30  H   UNL     1       1.074  15.294  93.359  1.00  0.00     0.210 HD
ENDBRANCH  27  29
ENDBRANCH  26  27
BRANCH  26  31
HETATM   31  C   UNL     1       2.529  14.066  90.741  1.00  0.00     0.194 C 
HETATM   32  O   UNL     1       1.627  14.679  90.172  1.00  0.00    -0.289 OA
BRANCH  31  33
HETATM   33  C   UNL     1       3.866  14.195  90.455  1.00  0.00     0.053 C 
BRANCH  33  34
HETATM   34  C   UNL     1       4.186  14.374  89.101  1.00  0.00     0.220 C 
BRANCH  34  35
HETATM   35  O   UNL     1       5.121  15.194  89.037  1.00  0.00    -0.371 OA
HETATM   36  H   UNL     1       5.815  14.629  89.341  1.00  0.00     0.211 HD
ENDBRANCH  34  35
BRANCH  34  37
HETATM   37  C   UNL     1       4.482  13.173  88.433  1.00  0.00     0.185 C 
HETATM   38  O   UNL     1       5.309  12.996  89.452  1.00  0.00    -0.647 OA
BRANCH  37  39
HETATM   39  O   UNL     1       4.158  12.637  87.416  1.00  0.00    -0.774 OA
HETATM   40  H   UNL     1       4.990  11.984  87.005  1.00  0.00     0.167 HD
ENDBRANCH  37  39
ENDBRANCH  34  37
ENDBRANCH  33  34
ENDBRANCH  31  33
ENDBRANCH  26  31
ENDBRANCH  24  26
ENDBRANCH  19  22
ENDBRANCH  15  16
ENDBRANCH  11  14
ENDBRANCH   7   8
ENDBRANCH   2   7
TORSDOF 14
ENDMDL
MODEL 2
REMARK VINA RESULT:      -5.9      1.549      2.261
REMARK  14 active torsions:
REMARK  status: ('A' for Active; 'I' for Inactive)
REMARK    1  A    between atoms: O_2  and  C_18 
REMARK    2  A    between atoms: C_5  and  C_8 
REMARK    3  A    between atoms: C_5  and  O_35 
REMARK    4  A    between atoms: C_5  and  C_36 
REMARK    5  A    between atoms: N_6  and  C_11 
REMARK    6  A    between atoms: N_7  and  C_15 
REMARK       I    between atoms: N_7  and  C_24 
REMARK    7  A    between atoms: C_8  and  C_23 
REMARK    8  A    between atoms: C_11  and  C_14 
REMARK    9  A    between atoms: C_15  and  C_18 
REMARK   10  A    between atoms: C_15  and  C_23 
REMARK   11  A    between atoms: C_21  and  C_26 
REMARK   12  A    between atoms: C_24  and  C_25 
REMARK   13  A    between atoms: C_29  and  C_32 
REMARK   14  A    between atoms: C_36  and  O_39 
ROOT
HETATM    1  O   UNL     1      16.363   4.427  94.053  1.00  0.00    -0.350 OA
HETATM    2  N   UNL     1      14.483   2.864  92.596  1.00  0.00     0.147 N 
HETATM    3  C   UNL     1      14.484   4.332  92.520  1.00  0.00     0.283 C 
HETATM    4  C   UNL     1      14.999   2.427  93.900  1.00  0.00     0.283 C 
HETATM    5  C   UNL     1      15.893   4.861  92.776  1.00  0.00     0.178 C 
HETATM    6  C   UNL     1      16.395   3.001  94.124  1.00  0.00     0.178 C 
ENDROOT
BRANCH   2   7
HETATM    7  C   UNL     1      13.140   2.335  92.364  1.00  0.00     0.277 C 
BRANCH   7   8
HETATM    8  C   UNL     1      12.092   3.392  92.441  1.00  0.00     0.011 A 
HETATM    9  C   UNL     1      11.454   3.825  91.278  1.00  0.00    -0.002 A 
HETATM   10  C   UNL     1      10.475   4.816  91.348  1.00  0.00     0.008 A 
HETATM   11  C   UNL     1      10.133   5.372  92.580  1.00  0.00     0.042 A 
HETATM   12  C   UNL     1      10.770   4.940  93.742  1.00  0.00     0.008 A 
HETATM   13  C   UNL     1      11.749   3.950  93.672  1.00  0.00    -0.002 A 
BRANCH  11  14
HETATM   14  C   UNL     1       9.127   6.386  92.652  1.00  0.00    -0.059 C 
HETATM   15  C   UNL     1       8.281   7.239  92.712  1.00  0.00    -0.059 C 
BRANCH  15  16
HETATM   16  C   UNL     1       7.276   8.253  92.783  1.00  0.00     0.042 A 
HETATM   17  C   UNL     1       7.620   9.591  92.588  1.00  0.00     0.008 A 
HETATM   18  C   UNL     1       6.638  10.579  92.655  1.00  0.00     0.005 A 
HETATM   19  C   UNL     1       5.335  10.208  92.914  1.00  0.00     0.056 A 
HETATM   20  C   UNL     1       4.969   8.893  93.110  1.00  0.00     0.005 A 
HETATM   21  C   UNL     1       5.951   7.904  93.043  1.00  0.00     0.008 A 
BRANCH  19  22
HETATM   22  C   UNL     1       4.290  11.262  92.987  1.00  0.00     0.254 C 
HETATM   23  O   UNL     1       3.539  11.296  93.959  1.00  0.00    -0.268 OA
HETATM   24  N   UNL     1       4.260  12.163  91.932  1.00  0.00    -0.335 N 
HETATM   25  HN  UNL     1       4.929  12.088  91.174  1.00  0.00     0.164 HD
BRANCH  24  26
HETATM   26  C   UNL     1       3.322  13.254  91.870  1.00  0.00     0.169 C 
BRANCH  26  27
HETATM   27  C   UNL     1       3.833  14.518  92.574  1.00  0.00     0.138 C 
HETATM   28  C   UNL     1       4.891  15.253  91.758  1.00  0.00     0.034 C 
BRANCH  27  29
HETATM   29  O   UNL     1       2.740  15.402  92.820  1.00  0.00    -0.383 OA
HETATM   30  H   UNL     1       2.987  15.995  93.550  1.00  0.00     0.210 HD
ENDBRANCH  27  29
ENDBRANCH  26  27
BRANCH  26  31
HETATM   31  C   UNL     1       3.016  13.523  90.400  1.00  0.00     0.194 C 
HETATM   32  O   UNL     1       2.052  14.189  90.028  1.00  0.00    -0.289 OA
BRANCH  31  33
HETATM   33  C   UNL     1       3.914  12.908  89.562  1.00  0.00     0.053 C 
BRANCH  33  34
HETATM   34  C   UNL     1       3.358  12.108  88.553  1.00  0.00     0.220 C 
BRANCH  34  35
HETATM   35  O   UNL     1       3.970  12.351  87.496  1.00  0.00    -0.371 OA
HETATM   36  H   UNL     1       4.484  11.559  87.456  1.00  0.00     0.211 HD
ENDBRANCH  34  35
BRANCH  34  37
HETATM   37  C   UNL     1       3.352  10.738  88.865  1.00  0.00     0.185 C 
HETATM   38  O   UNL     1       2.555  10.665  87.810  1.00  0.00    -0.647 OA
BRANCH  37  39
HETATM   39  O   UNL     1       3.815  10.031  89.709  1.00  0.00    -0.774 OA
HETATM   40  H   UNL     1       4.910  10.266  89.897  1.00  0.00     0.167 HD
ENDBRANCH  37  39
ENDBRANCH  34  37
ENDBRANCH  33  34
ENDBRANCH  31  33
ENDBRANCH  26  31
ENDBRANCH  24  26
ENDBRANCH  19  22
ENDBRANCH  15  16
ENDBRANCH  11  14
ENDBRANCH   7   8
ENDBRANCH   2   7
TORSDOF 14
ENDMDL
MODEL 3
REMARK VINA RESULT:      -5.1      2.528     12.951
REMARK  14 active torsions:
REMARK  status: ('A' for Active; 'I' for Inactive)
REMARK    1  A    between atoms: O_2  and  C_18 
REMARK    2  A    between atoms: C_5  and  C_8 
REMARK    3  A    between atoms: C_5  and  O_35 
REMARK    4  A    between atoms: C_5  and  C_36 
REMARK    5  A    between atoms: N_6  and  C_11 
REMARK    6  A    between atoms: N_7  and  C_15 
REMARK       I    between atoms: N_7  and  C_24 
REMARK    7  A    between atoms: C_8  and  C_23 
REMARK    8  A    between atoms: C_11  and  C_14 
REMARK    9  A    between atoms: C_15  and  C_18 
REMARK   10  A    between atoms: C_15  and  C_23 
REMARK   11  A    between atoms: C_21  and  C_26 
REMARK   12  A    between atoms: C_24  and  C_25 
REMARK   13  A    between atoms: C_29  and  C_32 
REMARK   14  A    between atoms: C_36  and  O_39 
ROOT
HETATM    1  O   UNL     1       2.874  14.508  94.082  1.00  0.00    -0.350 OA
HETATM    2  N   UNL     1       2.592  14.541  91.250  1.00  0.00     0.147 N 
HETATM    3  C   UNL     1       1.687  13.758  92.102  1.00  0.00     0.283 C 
HETATM    4  C   UNL     1       3.907  14.666  91.894  1.00  0.00     0.283 C 
HETATM    5  C   UNL     1       1.582  14.409  93.480  1.00  0.00     0.178 C 
HETATM    6  C   UNL     1       3.751  15.294  93.275  1.00  0.00     0.178 C 
ENDROOT
BRANCH   2   7
HETATM    7  C   UNL     1       2.716  13.930  89.928  1.00  0.00     0.277 C 
BRANCH   7   8
HETATM    8  C   UNL     1       3.708  12.818  89.907  1.00  0.00     0.011 A 
HETATM    9  C   UNL     1       4.967  13.017  89.340  1.00  0.00    -0.002 A 
HETATM   10  C   UNL     1       5.895  11.976  89.318  1.00  0.00     0.008 A 
HETATM   11  C   UNL     1       5.565  10.737  89.865  1.00  0.00     0.042 A 
HETATM   12  C   UNL     1       4.308  10.537  90.433  1.00  0.00     0.008 A 
HETATM   13  C   UNL     1       3.379  11.577  90.454  1.00  0.00    -0.002 A 
BRANCH  11  14
HETATM   14  C   UNL     1       6.518   9.670  89.845  1.00  0.00    -0.059 C 
HETATM   15  C   UNL     1       7.318   8.773  89.829  1.00  0.00    -0.059 C 
BRANCH  15  16
HETATM   16  C   UNL     1       8.270   7.706  89.808  1.00  0.00     0.042 A 
HETATM   17  C   UNL     1       8.934   7.343  90.980  1.00  0.00     0.008 A 
HETATM   18  C   UNL     1       9.860   6.301  90.961  1.00  0.00     0.005 A 
HETATM   19  C   UNL     1      10.101   5.645  89.772  1.00  0.00     0.056 A 
HETATM   20  C   UNL     1       9.458   5.985  88.600  1.00  0.00     0.005 A 
HETATM   21  C   UNL     1       8.531   7.028  88.618  1.00  0.00     0.008 A 
BRANCH  19  22
HETATM   22  C   UNL     1      11.089   4.535  89.751  1.00  0.00     0.254 C 
HETATM   23  O   UNL     1      11.144   3.799  88.769  1.00  0.00    -0.268 OA
HETATM   24  N   UNL     1      11.911   4.432  90.865  1.00  0.00    -0.335 N 
HETATM   25  HN  UNL     1      11.825   5.093  91.628  1.00  0.00     0.164 HD
BRANCH  24  26
HETATM   26  C   UNL     1      12.934   3.425  90.983  1.00  0.00     0.169 C 
BRANCH  26  27
HETATM   27  C   UNL     1      14.352   4.008  90.922  1.00  0.00     0.138 C 
HETATM   28  C   UNL     1      15.322   3.108  90.166  1.00  0.00     0.034 C 
BRANCH  27  29
HETATM   29  O   UNL     1      14.315   5.286  90.288  1.00  0.00    -0.383 OA
HETATM   30  H   UNL     1      15.041   5.825  90.645  1.00  0.00     0.210 HD
ENDBRANCH  27  29
ENDBRANCH  26  27
BRANCH  26  31
HETATM   31  C   UNL     1      12.700   2.674  92.290  1.00  0.00     0.194 C 
HETATM   32  O   UNL     1      12.101   1.601  92.347  1.00  0.00    -0.289 OA
BRANCH  31  33
HETATM   33  C   UNL     1      13.197   3.353  93.376  1.00  0.00     0.053 C 
BRANCH  33  34
HETATM   34  C   UNL     1      14.355   2.815  93.954  1.00  0.00     0.220 C 
BRANCH  34  35
HETATM   35  O   UNL     1      14.562   1.705  93.427  1.00  0.00    -0.371 OA
HETATM   36  H   UNL     1      14.108   1.171  94.061  1.00  0.00     0.211 HD
ENDBRANCH  34  35
BRANCH  34  37
HETATM   37  C   UNL     1      15.472   3.664  93.866  1.00  0.00     0.185 C 
HETATM   38  O   UNL     1      16.119   2.528  93.655  1.00  0.00    -0.647 OA
BRANCH  37  39
HETATM   39  O   UNL     1      15.693   4.832  93.981  1.00  0.00    -0.774 OA
HETATM   40  H   UNL     1      16.764   5.025  94.299  1.00  0.00     0.167 HD
ENDBRANCH  37  39
ENDBRANCH  34  37
ENDBRANCH  33  34
ENDBRANCH  31  33
ENDBRANCH  26  31
ENDBRANCH  24  26
ENDBRANCH  19  22
ENDBRANCH  15  16
ENDBRANCH  11  14
ENDBRANCH   7   8
ENDBRANCH   2   7
TORSDOF 14
ENDMDL
MODEL 4
REMARK VINA RESULT:      -4.8      1.493      3.026
REMARK  14 active torsions:
REMARK  status: ('A' for Active; 'I' for Inactive)
REMARK    1  A    between atoms: O_2  and  C_18 
REMARK    2  A    between atoms: C_5  and  C_8 
REMARK    3  A    between atoms: C_5  and  O_35 
REMARK    4  A    between atoms: C_5  and  C_36 
REMARK    5  A    between atoms: N_6  and  C_11 
REMARK    6  A    between atoms: N_7  and  C_15 
REMARK       I    between atoms: N_7  and  C_24 
REMARK    7  A    between atoms: C_8  and  C_23 
REMARK    8  A    between atoms: C_11  and  C_14 
REMARK    9  A    between atoms: C_15  and  C_18 
REMARK   10  A    between atoms: C_15  and  C_23 
REMARK   11  A    between atoms: C_21  and  C_26 
REMARK   12  A    between atoms: C_24  and  C_25 
REMARK   13  A    between atoms: C_29  and  C_32 
REMARK   14  A    between atoms: C_36  and  O_39 
ROOT
HETATM    1  O   UNL     1      16.782   3.463  94.121  1.00  0.00    -0.350 OA
HETATM    2  N   UNL     1      14.390   3.020  92.644  1.00  0.00     0.147 N 
HETATM    3  C   UNL     1      14.463   4.040  93.699  1.00  0.00     0.283 C 
HETATM    4  C   UNL     1      15.328   1.926  92.935  1.00  0.00     0.283 C 
HETATM    5  C   UNL     1      15.897   4.546  93.831  1.00  0.00     0.178 C 
HETATM    6  C   UNL     1      16.740   2.482  93.084  1.00  0.00     0.178 C 
ENDROOT
BRANCH   2   7
HETATM    7  C   UNL     1      13.026   2.512  92.508  1.00  0.00     0.277 C 
BRANCH   7   8
HETATM    8  C   UNL     1      12.033   3.603  92.291  1.00  0.00     0.011 A 
HETATM    9  C   UNL     1      11.372   4.171  93.381  1.00  0.00    -0.002 A 
HETATM   10  C   UNL     1      10.441   5.190  93.178  1.00  0.00     0.008 A 
HETATM   11  C   UNL     1      10.174   5.641  91.887  1.00  0.00     0.042 A 
HETATM   12  C   UNL     1      10.833   5.076  90.798  1.00  0.00     0.008 A 
HETATM   13  C   UNL     1      11.763   4.056  90.999  1.00  0.00    -0.002 A 
BRANCH  11  14
HETATM   14  C   UNL     1       9.221   6.688  91.680  1.00  0.00    -0.059 C 
HETATM   15  C   UNL     1       8.420   7.568  91.506  1.00  0.00    -0.059 C 
BRANCH  15  16
HETATM   16  C   UNL     1       7.468   8.615  91.299  1.00  0.00     0.042 A 
HETATM   17  C   UNL     1       7.197   9.522  92.324  1.00  0.00     0.008 A 
HETATM   18  C   UNL     1       6.270  10.545  92.120  1.00  0.00     0.005 A 
HETATM   19  C   UNL     1       5.637  10.638  90.899  1.00  0.00     0.056 A 
HETATM   20  C   UNL     1       5.887   9.753  89.871  1.00  0.00     0.005 A 
HETATM   21  C   UNL     1       6.814   8.730  90.073  1.00  0.00     0.008 A 
BRANCH  19  22
HETATM   22  C   UNL     1       4.649  11.726  90.684  1.00  0.00     0.254 C 
HETATM   23  O   UNL     1       3.745  11.563  89.868  1.00  0.00    -0.268 OA
HETATM   24  N   UNL     1       4.817  12.863  91.462  1.00  0.00    -0.335 N 
HETATM   25  HN  UNL     1       5.573  12.917  92.134  1.00  0.00     0.164 HD
BRANCH  24  26
HETATM   26  C   UNL     1       3.927  13.993  91.387  1.00  0.00     0.169 C 
BRANCH  26  27
HETATM   27  C   UNL     1       3.799  14.555  89.965  1.00  0.00     0.138 C 
HETATM   28  C   UNL     1       5.131  14.573  89.223  1.00  0.00     0.034 C 
BRANCH  27  29
HETATM   29  O   UNL     1       2.866  13.769  89.223  1.00  0.00    -0.383 OA
HETATM   30  H   UNL     1       3.356  13.064  88.767  1.00  0.00     0.210 HD
ENDBRANCH  27  29
ENDBRANCH  26  27
BRANCH  26  31
HETATM   31  C   UNL     1       2.572  13.556  91.934  1.00  0.00     0.194 C 
HETATM   32  O   UNL     1       1.509  14.053  91.565  1.00  0.00    -0.289 OA
BRANCH  31  33
HETATM   33  C   UNL     1       2.690  12.586  92.899  1.00  0.00     0.053 C 
BRANCH  33  34
HETATM   34  C   UNL     1       1.720  11.575  92.870  1.00  0.00     0.220 C 
BRANCH  34  35
HETATM   35  O   UNL     1       1.556  11.239  91.681  1.00  0.00    -0.371 OA
HETATM   36  H   UNL     1       0.616  11.145  91.698  1.00  0.00     0.211 HD
ENDBRANCH  34  35
BRANCH  34  37
HETATM   37  C   UNL     1       2.026  10.480  93.696  1.00  0.00     0.185 C 
HETATM   38  O   UNL     1       3.208  11.072  93.770  1.00  0.00    -0.647 OA
BRANCH  37  39
HETATM   39  O   UNL     1       1.474   9.493  94.079  1.00  0.00    -0.774 OA
HETATM   40  H   UNL     1       2.133   8.575  93.969  1.00  0.00     0.167 HD
ENDBRANCH  37  39
ENDBRANCH  34  37
ENDBRANCH  33  34
ENDBRANCH  31  33
ENDBRANCH  26  31
ENDBRANCH  24  26
ENDBRANCH  19  22
ENDBRANCH  15  16
ENDBRANCH  11  14
ENDBRANCH   7   8
ENDBRANCH   2   7
TORSDOF 14
ENDMDL
MODEL 5
REMARK VINA RESULT:      -3.5      1.840      2.288
REMARK  14 active torsions:
REMARK  status: ('A' for Active; 'I' for Inactive)
REMARK    1  A    between atoms: O_2  and  C_18 
REMARK    2  A    between atoms: C_5  and  C_8 
REMARK    3  A    between atoms: C_5  and  O_35 
REMARK    4  A    between atoms: C_5  and  C_36 
REMARK    5  A    between atoms: N_6  and  C_11 
REMARK    6  A    between atoms: N_7  and  C_15 
REMARK       I    between atoms: N_7  and  C_24 
REMARK    7  A    between atoms: C_8  and  C_23 
REMARK    8  A    between atoms: C_11  and  C_14 
REMARK    9  A    between atoms: C_15  and  C_18 
REMARK   10  A    between atoms: C_15  and  C_23 
REMARK   11  A    between atoms: C_21  and  C_26 
REMARK   12  A    between atoms: C_24  and  C_25 
REMARK   13  A    between atoms: C_29  and  C_32 
REMARK   14  A    between atoms: C_36  and  O_39 
ROOT
HETATM    1  O   UNL     1      14.112   4.100  89.817  1.00  0.00    -0.350 OA
HETATM    2  N   UNL     1      12.996   2.856  92.121  1.00  0.00     0.147 N 
HETATM    3  C   UNL     1      12.147   3.348  91.027  1.00  0.00     0.283 C 
HETATM    4  C   UNL     1      14.230   3.650  92.198  1.00  0.00     0.283 C 
HETATM    5  C   UNL     1      12.925   3.312  89.713  1.00  0.00     0.178 C 
HETATM    6  C   UNL     1      14.957   3.609  90.858  1.00  0.00     0.178 C 
ENDROOT
BRANCH   2   7
HETATM    7  C   UNL     1      12.275   2.891  93.392  1.00  0.00     0.277 C 
BRANCH   7   8
HETATM    8  C   UNL     1      11.170   3.892  93.390  1.00  0.00     0.011 A 
HETATM    9  C   UNL     1      10.010   3.649  92.654  1.00  0.00    -0.002 A 
HETATM   10  C   UNL     1       8.978   4.586  92.650  1.00  0.00     0.008 A 
HETATM   11  C   UNL     1       9.104   5.765  93.385  1.00  0.00     0.042 A 
HETATM   12  C   UNL     1      10.262   6.009  94.121  1.00  0.00     0.008 A 
HETATM   13  C   UNL     1      11.296   5.072  94.124  1.00  0.00    -0.002 A 
BRANCH  11  14
HETATM   14  C   UNL     1       8.044   6.725  93.382  1.00  0.00    -0.059 C 
HETATM   15  C   UNL     1       7.153   7.533  93.380  1.00  0.00    -0.059 C 
BRANCH  15  16
HETATM   16  C   UNL     1       6.093   8.492  93.377  1.00  0.00     0.042 A 
HETATM   17  C   UNL     1       6.369   9.836  93.628  1.00  0.00     0.008 A 
HETATM   18  C   UNL     1       5.335  10.772  93.622  1.00  0.00     0.005 A 
HETATM   19  C   UNL     1       4.050  10.344  93.365  1.00  0.00     0.056 A 
HETATM   20  C   UNL     1       3.751   9.022  93.115  1.00  0.00     0.005 A 
HETATM   21  C   UNL     1       4.784   8.084  93.120  1.00  0.00     0.008 A 
BRANCH  19  22
HETATM   22  C   UNL     1       2.948  11.342  93.361  1.00  0.00     0.254 C 
HETATM   23  O   UNL     1       1.995  11.186  94.121  1.00  0.00    -0.268 OA
HETATM   24  N   UNL     1       3.101  12.413  92.492  1.00  0.00    -0.335 N 
HETATM   25  HN  UNL     1       3.929  12.488  91.912  1.00  0.00     0.164 HD
BRANCH  24  26
HETATM   26  C   UNL     1       2.132  13.474  92.390  1.00  0.00     0.169 C 
BRANCH  26  27
HETATM   27  C   UNL     1       2.337  14.568  93.445  1.00  0.00     0.138 C 
HETATM   28  C   UNL     1       3.727  15.190  93.379  1.00  0.00     0.034 C 
BRANCH  27  29
HETATM   29  O   UNL     1       1.361  15.595  93.264  1.00  0.00    -0.383 OA
HETATM   30  H   UNL     1       1.347  16.146  94.065  1.00  0.00     0.210 HD
ENDBRANCH  27  29
ENDBRANCH  26  27
BRANCH  26  31
HETATM   31  C   UNL     1       2.211  14.043  90.978  1.00  0.00     0.194 C 
HETATM   32  O   UNL     1       1.540  15.005  90.605  1.00  0.00    -0.289 OA
BRANCH  31  33
HETATM   33  C   UNL     1       3.078  13.337  90.181  1.00  0.00     0.053 C 
BRANCH  33  34
HETATM   34  C   UNL     1       3.980  14.104  89.431  1.00  0.00     0.220 C 
BRANCH  34  35
HETATM   35  O   UNL     1       4.767  14.651  90.226  1.00  0.00    -0.371 OA
HETATM   36  H   UNL     1       5.535  14.650  89.675  1.00  0.00     0.211 HD
ENDBRANCH  34  35
BRANCH  34  37
HETATM   37  C   UNL     1       4.650  13.369  88.438  1.00  0.00     0.185 C 
HETATM   38  O   UNL     1       5.716  13.982  88.928  1.00  0.00    -0.647 OA
BRANCH  37  39
HETATM   39  O   UNL     1       4.356  12.609  87.564  1.00  0.00    -0.774 OA
HETATM   40  H   UNL     1       5.244  11.986  87.234  1.00  0.00     0.167 HD
ENDBRANCH  37  39
ENDBRANCH  34  37
ENDBRANCH  33  34
ENDBRANCH  31  33
ENDBRANCH  26  31
ENDBRANCH  24  26
ENDBRANCH  19  22
ENDBRANCH  15  16
ENDBRANCH  11  14
ENDBRANCH   7   8
ENDBRANCH   2   7
TORSDOF 14
ENDMDL
