MODEL 1
REMARK VINA RESULT:      -6.2      0.000      0.000
REMARK  12 active torsions:
REMARK  status: ('A' for Active; 'I' for Inactive)
REMARK    1  A    between atoms: O_2  and  C_16 
REMARK    2  A    between atoms: N_5  and  C_9 
REMARK    3  A    between atoms: N_6  and  C_13 
REMARK       I    between atoms: N_6  and  C_22 
REMARK    4  A    between atoms: C_9  and  C_12 
REMARK    5  A    between atoms: C_13  and  C_16 
REMARK    6  A    between atoms: C_13  and  C_21 
REMARK    7  A    between atoms: C_19  and  C_24 
REMARK    8  A    between atoms: C_21  and  C_33 
REMARK    9  A    between atoms: C_22  and  C_23 
REMARK   10  A    between atoms: C_27  and  C_30 
REMARK   11  A    between atoms: C_33  and  C_34 
REMARK   12  A    between atoms: C_34  and  C_35 
ROOT
HETATM    1  O   UNL     1      16.476   3.254  93.761  1.00  0.00    -0.350 OA
HETATM    2  N   UNL     1      13.891   2.885  92.629  1.00  0.00     0.147 N 
HETATM    3  C   UNL     1      14.748   1.743  92.976  1.00  0.00     0.283 C 
HETATM    4  C   UNL     1      14.719   4.051  92.290  1.00  0.00     0.283 C 
HETATM    5  C   UNL     1      15.680   2.125  94.123  1.00  0.00     0.178 C 
HETATM    6  C   UNL     1      15.651   4.378  93.452  1.00  0.00     0.178 C 
ENDROOT
BRANCH   2   7
HETATM    7  C   UNL     1      12.996   2.544  91.524  1.00  0.00     0.277 C 
BRANCH   7   8
HETATM    8  C   UNL     1      11.838   3.478  91.422  1.00  0.00     0.011 A 
HETATM    9  C   UNL     1      11.333   4.089  92.571  1.00  0.00    -0.002 A 
HETATM   10  C   UNL     1      10.248   4.961  92.477  1.00  0.00     0.008 A 
HETATM   11  C   UNL     1       9.671   5.222  91.235  1.00  0.00     0.042 A 
HETATM   12  C   UNL     1      10.175   4.613  90.088  1.00  0.00     0.008 A 
HETATM   13  C   UNL     1      11.259   3.741  90.181  1.00  0.00    -0.002 A 
BRANCH  11  14
HETATM   14  C   UNL     1       8.560   6.119  91.139  1.00  0.00    -0.059 C 
HETATM   15  C   UNL     1       7.626   6.871  91.059  1.00  0.00    -0.059 C 
BRANCH  15  16
HETATM   16  C   UNL     1       6.515   7.767  90.963  1.00  0.00     0.042 A 
HETATM   17  C   UNL     1       5.217   7.288  91.139  1.00  0.00     0.008 A 
HETATM   18  C   UNL     1       4.134   8.163  91.049  1.00  0.00     0.005 A 
HETATM   19  C   UNL     1       4.374   9.495  90.786  1.00  0.00     0.056 A 
HETATM   20  C   UNL     1       5.647   9.993  90.608  1.00  0.00     0.005 A 
HETATM   21  C   UNL     1       6.731   9.119  90.698  1.00  0.00     0.008 A 
BRANCH  19  22
HETATM   22  C   UNL     1       3.220  10.426  90.688  1.00  0.00     0.254 C 
HETATM   23  O   UNL     1       2.208  10.067  90.090  1.00  0.00    -0.268 OA
HETATM   24  N   UNL     1       3.373  11.653  91.318  1.00  0.00    -0.335 N 
HETATM   25  HN  UNL     1       4.229  11.871  91.815  1.00  0.00     0.164 HD
BRANCH  24  26
HETATM   26  C   UNL     1       2.336  12.653  91.333  1.00  0.00     0.166 C 
BRANCH  26  27
HETATM   27  C   UNL     1       2.023  13.163  92.745  1.00  0.00     0.138 C 
HETATM   28  C   UNL     1       3.257  13.200  93.639  1.00  0.00     0.034 C 
BRANCH  27  29
HETATM   29  O   UNL     1       1.468  14.476  92.666  1.00  0.00    -0.383 OA
HETATM   30  H   UNL     1       0.506  14.408  92.785  1.00  0.00     0.210 HD
ENDBRANCH  27  29
ENDBRANCH  26  27
BRANCH  26  31
HETATM   31  C   UNL     1       2.772  13.791  90.416  1.00  0.00     0.181 C 
HETATM   32  O   UNL     1       2.142  14.841  90.306  1.00  0.00    -0.294 OA
BRANCH  31  33
HETATM   33  C   UNL     1       4.315  14.214  90.675  1.00  0.00     0.138 C 
BRANCH  33  34
HETATM   34  C   UNL     1       4.734  14.534  89.364  1.00  0.00     0.208 C 
HETATM   35  O   UNL     1       5.237  15.624  89.217  1.00  0.00    -0.289 OA
BRANCH  34  36
HETATM   36  C   UNL     1       4.939  13.730  88.277  1.00  0.00     0.194 C 
HETATM   37  O   UNL     1       4.607  12.386  88.071  1.00  0.00    -0.185 OA
ENDBRANCH  34  36
ENDBRANCH  33  34
ENDBRANCH  31  33
ENDBRANCH  26  31
ENDBRANCH  24  26
ENDBRANCH  19  22
ENDBRANCH  15  16
ENDBRANCH  11  14
ENDBRANCH   7   8
ENDBRANCH   2   7
TORSDOF 12
ENDMDL
MODEL 2
REMARK VINA RESULT:      -5.7      1.237      1.619
REMARK  12 active torsions:
REMARK  status: ('A' for Active; 'I' for Inactive)
REMARK    1  A    between atoms: O_2  and  C_16 
REMARK    2  A    between atoms: N_5  and  C_9 
REMARK    3  A    between atoms: N_6  and  C_13 
REMARK       I    between atoms: N_6  and  C_22 
REMARK    4  A    between atoms: C_9  and  C_12 
REMARK    5  A    between atoms: C_13  and  C_16 
REMARK    6  A    between atoms: C_13  and  C_21 
REMARK    7  A    between atoms: C_19  and  C_24 
REMARK    8  A    between atoms: C_21  and  C_33 
REMARK    9  A    between atoms: C_22  and  C_23 
REMARK   10  A    between atoms: C_27  and  C_30 
REMARK   11  A    between atoms: C_33  and  C_34 
REMARK   12  A    between atoms: C_34  and  C_35 
ROOT
HETATM    1  O   UNL     1      16.415   4.499  94.111  1.00  0.00    -0.350 OA
HETATM    2  N   UNL     1      14.772   2.762  92.566  1.00  0.00     0.147 N 
HETATM    3  C   UNL     1      14.578   4.219  92.550  1.00  0.00     0.283 C 
HETATM    4  C   UNL     1      15.331   2.343  93.858  1.00  0.00     0.283 C 
HETATM    5  C   UNL     1      15.901   4.920  92.846  1.00  0.00     0.178 C 
HETATM    6  C   UNL     1      16.636   3.088  94.124  1.00  0.00     0.178 C 
ENDROOT
BRANCH   2   7
HETATM    7  C   UNL     1      13.513   2.070  92.295  1.00  0.00     0.277 C 
BRANCH   7   8
HETATM    8  C   UNL     1      12.355   3.005  92.221  1.00  0.00     0.011 A 
HETATM    9  C   UNL     1      11.915   3.660  93.372  1.00  0.00    -0.002 A 
HETATM   10  C   UNL     1      10.829   4.533  93.305  1.00  0.00     0.008 A 
HETATM   11  C   UNL     1      10.186   4.753  92.087  1.00  0.00     0.042 A 
HETATM   12  C   UNL     1      10.625   4.099  90.938  1.00  0.00     0.008 A 
HETATM   13  C   UNL     1      11.710   3.225  91.004  1.00  0.00    -0.002 A 
BRANCH  11  14
HETATM   14  C   UNL     1       9.074   5.650  92.018  1.00  0.00    -0.059 C 
HETATM   15  C   UNL     1       8.140   6.405  91.961  1.00  0.00    -0.059 C 
BRANCH  15  16
HETATM   16  C   UNL     1       7.029   7.302  91.893  1.00  0.00     0.042 A 
HETATM   17  C   UNL     1       6.004   7.215  92.836  1.00  0.00     0.008 A 
HETATM   18  C   UNL     1       4.922   8.093  92.771  1.00  0.00     0.005 A 
HETATM   19  C   UNL     1       4.889   9.037  91.766  1.00  0.00     0.056 A 
HETATM   20  C   UNL     1       5.889   9.143  90.822  1.00  0.00     0.005 A 
HETATM   21  C   UNL     1       6.971   8.265  90.886  1.00  0.00     0.008 A 
BRANCH  19  22
HETATM   22  C   UNL     1       3.735   9.970  91.696  1.00  0.00     0.254 C 
HETATM   23  O   UNL     1       2.596   9.513  91.643  1.00  0.00    -0.268 OA
HETATM   24  N   UNL     1       4.044  11.323  91.721  1.00  0.00    -0.335 N 
HETATM   25  HN  UNL     1       5.008  11.627  91.792  1.00  0.00     0.164 HD
BRANCH  24  26
HETATM   26  C   UNL     1       3.035  12.351  91.685  1.00  0.00     0.166 C 
BRANCH  26  27
HETATM   27  C   UNL     1       3.049  13.241  92.934  1.00  0.00     0.138 C 
HETATM   28  C   UNL     1       4.172  14.272  92.904  1.00  0.00     0.034 C 
BRANCH  27  29
HETATM   29  O   UNL     1       1.799  13.920  93.050  1.00  0.00    -0.383 OA
HETATM   30  H   UNL     1       1.089  13.256  93.041  1.00  0.00     0.210 HD
ENDBRANCH  27  29
ENDBRANCH  26  27
BRANCH  26  31
HETATM   31  C   UNL     1       3.250  13.171  90.417  1.00  0.00     0.181 C 
HETATM   32  O   UNL     1       3.066  14.385  90.366  1.00  0.00    -0.294 OA
BRANCH  31  33
HETATM   33  C   UNL     1       4.713  12.907  89.771  1.00  0.00     0.138 C 
BRANCH  33  34
HETATM   34  C   UNL     1       4.364  12.442  88.484  1.00  0.00     0.208 C 
HETATM   35  O   UNL     1       4.921  12.978  87.554  1.00  0.00    -0.289 OA
BRANCH  34  36
HETATM   36  C   UNL     1       3.720  11.298  88.099  1.00  0.00     0.194 C 
HETATM   37  O   UNL     1       4.200  10.176  87.414  1.00  0.00    -0.185 OA
ENDBRANCH  34  36
ENDBRANCH  33  34
ENDBRANCH  31  33
ENDBRANCH  26  31
ENDBRANCH  24  26
ENDBRANCH  19  22
ENDBRANCH  15  16
ENDBRANCH  11  14
ENDBRANCH   7   8
ENDBRANCH   2   7
TORSDOF 12
ENDMDL
MODEL 3
REMARK VINA RESULT:      -5.5      2.347     12.899
REMARK  12 active torsions:
REMARK  status: ('A' for Active; 'I' for Inactive)
REMARK    1  A    between atoms: O_2  and  C_16 
REMARK    2  A    between atoms: N_5  and  C_9 
REMARK    3  A    between atoms: N_6  and  C_13 
REMARK       I    between atoms: N_6  and  C_22 
REMARK    4  A    between atoms: C_9  and  C_12 
REMARK    5  A    between atoms: C_13  and  C_16 
REMARK    6  A    between atoms: C_13  and  C_21 
REMARK    7  A    between atoms: C_19  and  C_24 
REMARK    8  A    between atoms: C_21  and  C_33 
REMARK    9  A    between atoms: C_22  and  C_23 
REMARK   10  A    between atoms: C_27  and  C_30 
REMARK   11  A    between atoms: C_33  and  C_34 
REMARK   12  A    between atoms: C_34  and  C_35 
ROOT
HETATM    1  O   UNL     1       3.147  14.847  93.912  1.00  0.00    -0.350 OA
HETATM    2  N   UNL     1       2.929  14.550  91.090  1.00  0.00     0.147 N 
HETATM    3  C   UNL     1       1.890  14.045  91.997  1.00  0.00     0.283 C 
HETATM    4  C   UNL     1       4.234  14.543  91.765  1.00  0.00     0.283 C 
HETATM    5  C   UNL     1       1.868  14.880  93.275  1.00  0.00     0.178 C 
HETATM    6  C   UNL     1       4.158  15.365  93.047  1.00  0.00     0.178 C 
ENDROOT
BRANCH   2   7
HETATM    7  C   UNL     1       2.975  13.757  89.863  1.00  0.00     0.277 C 
BRANCH   7   8
HETATM    8  C   UNL     1       3.954  12.636  89.947  1.00  0.00     0.011 A 
HETATM    9  C   UNL     1       5.161  12.711  89.250  1.00  0.00    -0.002 A 
HETATM   10  C   UNL     1       6.077  11.662  89.326  1.00  0.00     0.008 A 
HETATM   11  C   UNL     1       5.786  10.540  90.101  1.00  0.00     0.042 A 
HETATM   12  C   UNL     1       4.582  10.464  90.797  1.00  0.00     0.008 A 
HETATM   13  C   UNL     1       3.666  11.512  90.721  1.00  0.00    -0.002 A 
BRANCH  11  14
HETATM   14  C   UNL     1       6.727   9.465  90.181  1.00  0.00    -0.059 C 
HETATM   15  C   UNL     1       7.517   8.561  90.248  1.00  0.00    -0.059 C 
BRANCH  15  16
HETATM   16  C   UNL     1       8.457   7.486  90.328  1.00  0.00     0.042 A 
HETATM   17  C   UNL     1       8.754   6.911  91.564  1.00  0.00     0.008 A 
HETATM   18  C   UNL     1       9.669   5.861  91.641  1.00  0.00     0.005 A 
HETATM   19  C   UNL     1      10.264   5.409  90.482  1.00  0.00     0.056 A 
HETATM   20  C   UNL     1       9.987   5.960  89.249  1.00  0.00     0.005 A 
HETATM   21  C   UNL     1       9.073   7.011  89.170  1.00  0.00     0.008 A 
BRANCH  19  22
HETATM   22  C   UNL     1      11.239   4.291  90.565  1.00  0.00     0.254 C 
HETATM   23  O   UNL     1      11.112   3.327  89.815  1.00  0.00    -0.268 OA
HETATM   24  N   UNL     1      12.260   4.442  91.494  1.00  0.00    -0.335 N 
HETATM   25  HN  UNL     1      12.316   5.279  92.063  1.00  0.00     0.164 HD
BRANCH  24  26
HETATM   26  C   UNL     1      13.295   3.457  91.675  1.00  0.00     0.166 C 
BRANCH  26  27
HETATM   27  C   UNL     1      14.623   3.865  91.026  1.00  0.00     0.138 C 
HETATM   28  C   UNL     1      15.084   2.870  89.966  1.00  0.00     0.034 C 
BRANCH  27  29
HETATM   29  O   UNL     1      14.485   5.152  90.424  1.00  0.00    -0.383 OA
HETATM   30  H   UNL     1      15.371   5.540  90.329  1.00  0.00     0.210 HD
ENDBRANCH  27  29
ENDBRANCH  26  27
BRANCH  26  31
HETATM   31  C   UNL     1      13.459   3.224  93.174  1.00  0.00     0.181 C 
HETATM   32  O   UNL     1      12.533   2.872  93.902  1.00  0.00    -0.294 OA
BRANCH  31  33
HETATM   33  C   UNL     1      14.694   2.225  93.497  1.00  0.00     0.138 C 
BRANCH  33  34
HETATM   34  C   UNL     1      15.685   3.140  93.915  1.00  0.00     0.208 C 
HETATM   35  O   UNL     1      16.829   2.756  93.842  1.00  0.00    -0.289 OA
BRANCH  34  36
HETATM   36  C   UNL     1      15.614   4.490  94.124  1.00  0.00     0.194 C 
HETATM   37  O   UNL     1      16.445   5.520  93.669  1.00  0.00    -0.185 OA
ENDBRANCH  34  36
ENDBRANCH  33  34
ENDBRANCH  31  33
ENDBRANCH  26  31
ENDBRANCH  24  26
ENDBRANCH  19  22
ENDBRANCH  15  16
ENDBRANCH  11  14
ENDBRANCH   7   8
ENDBRANCH   2   7
TORSDOF 12
ENDMDL
MODEL 4
REMARK VINA RESULT:      -4.6      1.514      2.011
REMARK  12 active torsions:
REMARK  status: ('A' for Active; 'I' for Inactive)
REMARK    1  A    between atoms: O_2  and  C_16 
REMARK    2  A    between atoms: N_5  and  C_9 
REMARK    3  A    between atoms: N_6  and  C_13 
REMARK       I    between atoms: N_6  and  C_22 
REMARK    4  A    between atoms: C_9  and  C_12 
REMARK    5  A    between atoms: C_13  and  C_16 
REMARK    6  A    between atoms: C_13  and  C_21 
REMARK    7  A    between atoms: C_19  and  C_24 
REMARK    8  A    between atoms: C_21  and  C_33 
REMARK    9  A    between atoms: C_22  and  C_23 
REMARK   10  A    between atoms: C_27  and  C_30 
REMARK   11  A    between atoms: C_33  and  C_34 
REMARK   12  A    between atoms: C_34  and  C_35 
ROOT
HETATM    1  O   UNL     1      15.559   4.626  92.829  1.00  0.00    -0.350 OA
HETATM    2  N   UNL     1      13.551   2.740  92.112  1.00  0.00     0.147 N 
HETATM    3  C   UNL     1      13.588   4.084  91.521  1.00  0.00     0.283 C 
HETATM    4  C   UNL     1      14.134   2.767  93.461  1.00  0.00     0.283 C 
HETATM    5  C   UNL     1      15.024   4.603  91.504  1.00  0.00     0.178 C 
HETATM    6  C   UNL     1      15.555   3.317  93.400  1.00  0.00     0.178 C 
ENDROOT
BRANCH   2   7
HETATM    7  C   UNL     1      12.183   2.227  92.148  1.00  0.00     0.277 C 
BRANCH   7   8
HETATM    8  C   UNL     1      11.167   3.318  92.142  1.00  0.00     0.011 A 
HETATM    9  C   UNL     1      10.280   3.439  91.072  1.00  0.00    -0.002 A 
HETATM   10  C   UNL     1       9.330   4.461  91.065  1.00  0.00     0.008 A 
HETATM   11  C   UNL     1       9.268   5.360  92.129  1.00  0.00     0.042 A 
HETATM   12  C   UNL     1      10.153   5.241  93.198  1.00  0.00     0.008 A 
HETATM   13  C   UNL     1      11.103   4.220  93.205  1.00  0.00    -0.002 A 
BRANCH  11  14
HETATM   14  C   UNL     1       8.293   6.407  92.122  1.00  0.00    -0.059 C 
HETATM   15  C   UNL     1       7.473   7.287  92.118  1.00  0.00    -0.059 C 
BRANCH  15  16
HETATM   16  C   UNL     1       6.499   8.334  92.111  1.00  0.00     0.042 A 
HETATM   17  C   UNL     1       6.409   9.208  93.195  1.00  0.00     0.008 A 
HETATM   18  C   UNL     1       5.461  10.230  93.188  1.00  0.00     0.005 A 
HETATM   19  C   UNL     1       4.626  10.357  92.098  1.00  0.00     0.056 A 
HETATM   20  C   UNL     1       4.695   9.506  91.014  1.00  0.00     0.005 A 
HETATM   21  C   UNL     1       5.642   8.483  91.021  1.00  0.00     0.008 A 
BRANCH  19  22
HETATM   22  C   UNL     1       3.614  11.446  92.091  1.00  0.00     0.254 C 
HETATM   23  O   UNL     1       2.433  11.168  92.281  1.00  0.00    -0.268 OA
HETATM   24  N   UNL     1       4.103  12.729  91.888  1.00  0.00    -0.335 N 
HETATM   25  HN  UNL     1       5.097  12.885  91.763  1.00  0.00     0.164 HD
BRANCH  24  26
HETATM   26  C   UNL     1       3.252  13.891  91.879  1.00  0.00     0.166 C 
BRANCH  26  27
HETATM   27  C   UNL     1       3.434  14.770  93.122  1.00  0.00     0.138 C 
HETATM   28  C   UNL     1       2.198  14.786  94.014  1.00  0.00     0.034 C 
BRANCH  27  29
HETATM   29  O   UNL     1       4.547  14.299  93.881  1.00  0.00    -0.383 OA
HETATM   30  H   UNL     1       4.804  13.427  93.537  1.00  0.00     0.210 HD
ENDBRANCH  27  29
ENDBRANCH  26  27
BRANCH  26  31
HETATM   31  C   UNL     1       3.541  14.670  90.600  1.00  0.00     0.181 C 
HETATM   32  O   UNL     1       4.563  15.335  90.438  1.00  0.00    -0.294 OA
BRANCH  31  33
HETATM   33  C   UNL     1       3.393  13.740  89.281  1.00  0.00     0.138 C 
BRANCH  33  34
HETATM   34  C   UNL     1       4.706  13.791  88.762  1.00  0.00     0.208 C 
HETATM   35  O   UNL     1       5.001  14.798  88.160  1.00  0.00    -0.289 OA
BRANCH  34  36
HETATM   36  C   UNL     1       5.806  13.033  89.055  1.00  0.00     0.194 C 
HETATM   37  O   UNL     1       6.083  11.692  88.764  1.00  0.00    -0.185 OA
ENDBRANCH  34  36
ENDBRANCH  33  34
ENDBRANCH  31  33
ENDBRANCH  26  31
ENDBRANCH  24  26
ENDBRANCH  19  22
ENDBRANCH  15  16
ENDBRANCH  11  14
ENDBRANCH   7   8
ENDBRANCH   2   7
TORSDOF 12
ENDMDL
