MODEL 1
REMARK VINA RESULT:      -6.8      0.000      0.000
REMARK  11 active torsions:
REMARK  status: ('A' for Active; 'I' for Inactive)
REMARK    1  A    between atoms: O_2  and  C_18 
REMARK    2  A    between atoms: O_5  and  P_8 
REMARK    3  A    between atoms: N_6  and  C_11 
REMARK    4  A    between atoms: N_7  and  C_15 
REMARK       I    between atoms: N_7  and  C_24 
REMARK    5  A    between atoms: P_8  and  C_23 
REMARK    6  A    between atoms: C_11  and  C_14 
REMARK    7  A    between atoms: C_15  and  C_18 
REMARK    8  A    between atoms: C_15  and  C_23 
REMARK    9  A    between atoms: C_21  and  C_26 
REMARK   10  A    between atoms: C_24  and  C_25 
REMARK   11  A    between atoms: C_29  and  C_32 
ROOT
HETATM    1  O   UNL     1      16.439   4.399  93.986  1.00  0.00     0.000 OA
HETATM    2  N   UNL     1      14.610   2.708  92.608  1.00  0.00     0.000 N 
HETATM    3  C   UNL     1      14.563   4.170  92.464  1.00  0.00     0.000 C 
HETATM    4  C   UNL     1      15.141   2.350  93.931  1.00  0.00     0.000 C 
HETATM    5  C   UNL     1      15.954   4.757  92.691  1.00  0.00     0.000 C 
HETATM    6  C   UNL     1      16.517   2.980  94.124  1.00  0.00     0.000 C 
ENDROOT
BRANCH   2   7
HETATM    7  C   UNL     1      13.285   2.125  92.405  1.00  0.00     0.000 C 
BRANCH   7   8
HETATM    8  C   UNL     1      12.241   3.160  92.155  1.00  0.00     0.000 A 
HETATM    9  C   UNL     1      11.749   3.923  93.214  1.00  0.00     0.000 A 
HETATM   10  C   UNL     1      10.771   4.890  92.981  1.00  0.00     0.000 A 
HETATM   11  C   UNL     1      10.288   5.094  91.689  1.00  0.00     0.000 A 
HETATM   12  C   UNL     1      10.779   4.333  90.630  1.00  0.00     0.000 A 
HETATM   13  C   UNL     1      11.756   3.365  90.863  1.00  0.00     0.000 A 
BRANCH  11  14
HETATM   14  C   UNL     1       9.286   6.088  91.450  1.00  0.00     0.000 C 
HETATM   15  C   UNL     1       8.445   6.923  91.249  1.00  0.00     0.000 C 
BRANCH  15  16
HETATM   16  C   UNL     1       7.444   7.916  91.010  1.00  0.00     0.000 A 
HETATM   17  C   UNL     1       7.643   9.224  91.452  1.00  0.00     0.000 A 
HETATM   18  C   UNL     1       6.668  10.194  91.216  1.00  0.00     0.000 A 
HETATM   19  C   UNL     1       5.519   9.834  90.544  1.00  0.00     0.000 A 
HETATM   20  C   UNL     1       5.299   8.547  90.098  1.00  0.00     0.000 A 
HETATM   21  C   UNL     1       6.273   7.577  90.333  1.00  0.00     0.000 A 
BRANCH  19  22
HETATM   22  C   UNL     1       4.480  10.867  90.295  1.00  0.00     0.000 C 
HETATM   23  O   UNL     1       3.323  10.514  90.080  1.00  0.00     0.000 OA
HETATM   24  N   UNL     1       4.908  12.186  90.350  1.00  0.00     0.000 N 
HETATM   25  HN  UNL     1       5.876  12.402  90.558  1.00  0.00     0.000 HD
BRANCH  24  26
HETATM   26  C   UNL     1       4.015  13.300  90.155  1.00  0.00     0.000 C 
BRANCH  26  27
HETATM   27  C   UNL     1       3.578  13.949  91.474  1.00  0.00     0.000 C 
HETATM   28  C   UNL     1       2.204  13.473  91.932  1.00  0.00     0.000 C 
BRANCH  27  29
HETATM   29  O   UNL     1       4.534  13.652  92.492  1.00  0.00     0.000 OA
HETATM   30  H   UNL     1       5.153  14.399  92.556  1.00  0.00     0.000 HD
ENDBRANCH  27  29
ENDBRANCH  26  27
BRANCH  26  31
HETATM   31  C   UNL     1       4.717  14.305  89.248  1.00  0.00     0.000 C 
HETATM   32  O   UNL     1       4.658  15.521  89.424  1.00  0.00     0.000 OA
BRANCH  31  33
HETATM   33  P   UNL     1       5.377  13.695  88.209  1.00  0.00     0.000 P 
HETATM   34  H   UNL     1       6.126  14.656  87.561  1.00  0.00     0.000 HD
BRANCH  33  35
HETATM   35  O   UNL     1       4.565  13.067  87.254  1.00  0.00     0.000 OA
HETATM   36  H   UNL     1       4.422  13.804  86.636  1.00  0.00     0.000 HD
ENDBRANCH  33  35
ENDBRANCH  31  33
ENDBRANCH  26  31
ENDBRANCH  24  26
ENDBRANCH  19  22
ENDBRANCH  15  16
ENDBRANCH  11  14
ENDBRANCH   7   8
ENDBRANCH   2   7
TORSDOF 11
ENDMDL
