MODEL 1
REMARK VINA RESULT:      -6.6      0.000      0.000
REMARK  14 active torsions:
REMARK  status: ('A' for Active; 'I' for Inactive)
REMARK    1  A    between atoms: O_2  and  C_18 
REMARK    2  A    between atoms: C_5  and  C_8 
REMARK    3  A    between atoms: C_5  and  O_35 
REMARK    4  A    between atoms: C_5  and  C_36 
REMARK    5  A    between atoms: N_6  and  C_11 
REMARK    6  A    between atoms: N_7  and  C_15 
REMARK       I    between atoms: N_7  and  C_24 
REMARK    7  A    between atoms: C_8  and  C_23 
REMARK    8  A    between atoms: C_11  and  C_14 
REMARK    9  A    between atoms: C_15  and  C_18 
REMARK   10  A    between atoms: C_15  and  C_23 
REMARK   11  A    between atoms: C_21  and  C_26 
REMARK   12  A    between atoms: C_24  and  C_25 
REMARK   13  A    between atoms: C_29  and  C_32 
REMARK   14  A    between atoms: C_36  and  O_39 
ROOT
HETATM    1  O   UNL     1      15.694   4.219  94.093  1.00  0.00    -0.350 OA
HETATM    2  N   UNL     1      14.130   2.622  92.331  1.00  0.00     0.147 N 
HETATM    3  C   UNL     1      14.048   4.090  92.314  1.00  0.00     0.283 C 
HETATM    4  C   UNL     1      14.493   2.153  93.675  1.00  0.00     0.283 C 
HETATM    5  C   UNL     1      15.373   4.687  92.782  1.00  0.00     0.178 C 
HETATM    6  C   UNL     1      15.806   2.796  94.110  1.00  0.00     0.178 C 
ENDROOT
BRANCH   2   7
HETATM    7  C   UNL     1      12.867   2.028  91.897  1.00  0.00     0.277 C 
BRANCH   7   8
HETATM    8  C   UNL     1      11.774   3.036  91.785  1.00  0.00     0.011 A 
HETATM    9  C   UNL     1      11.208   3.316  90.540  1.00  0.00    -0.002 A 
HETATM   10  C   UNL     1      10.187   4.260  90.435  1.00  0.00     0.008 A 
HETATM   11  C   UNL     1       9.731   4.923  91.574  1.00  0.00     0.042 A 
HETATM   12  C   UNL     1      10.295   4.644  92.817  1.00  0.00     0.008 A 
HETATM   13  C   UNL     1      11.316   3.701  92.923  1.00  0.00    -0.002 A 
BRANCH  11  14
HETATM   14  C   UNL     1       8.682   5.890  91.465  1.00  0.00    -0.059 C 
HETATM   15  C   UNL     1       7.801   6.703  91.375  1.00  0.00    -0.059 C 
BRANCH  15  16
HETATM   16  C   UNL     1       6.754   7.670  91.266  1.00  0.00     0.042 A 
HETATM   17  C   UNL     1       6.728   8.550  90.184  1.00  0.00     0.008 A 
HETATM   18  C   UNL     1       5.704   9.491  90.077  1.00  0.00     0.005 A 
HETATM   19  C   UNL     1       4.730   9.531  91.052  1.00  0.00     0.056 A 
HETATM   20  C   UNL     1       4.734   8.673  92.131  1.00  0.00     0.005 A 
HETATM   21  C   UNL     1       5.757   7.731  92.240  1.00  0.00     0.008 A 
BRANCH  19  22
HETATM   22  C   UNL     1       3.641  10.536  90.938  1.00  0.00     0.254 C 
HETATM   23  O   UNL     1       2.715  10.331  90.157  1.00  0.00    -0.268 OA
HETATM   24  N   UNL     1       3.748  11.645  91.765  1.00  0.00    -0.335 N 
HETATM   25  HN  UNL     1       4.529  11.735  92.404  1.00  0.00     0.164 HD
BRANCH  24  26
HETATM   26  C   UNL     1       2.760  12.693  91.789  1.00  0.00     0.169 C 
BRANCH  26  27
HETATM   27  C   UNL     1       2.754  13.474  93.109  1.00  0.00     0.138 C 
HETATM   28  C   UNL     1       4.055  13.315  93.887  1.00  0.00     0.034 C 
BRANCH  27  29
HETATM   29  O   UNL     1       2.539  14.860  92.843  1.00  0.00    -0.383 OA
HETATM   30  H   UNL     1       2.802  15.366  93.630  1.00  0.00     0.210 HD
ENDBRANCH  27  29
ENDBRANCH  26  27
BRANCH  26  31
HETATM   31  C   UNL     1       3.029  13.613  90.602  1.00  0.00     0.194 C 
HETATM   32  O   UNL     1       2.134  14.192  89.987  1.00  0.00    -0.289 OA
BRANCH  31  33
HETATM   33  C   UNL     1       4.365  13.680  90.289  1.00  0.00     0.053 C 
BRANCH  33  34
HETATM   34  C   UNL     1       4.665  13.860  88.932  1.00  0.00     0.220 C 
BRANCH  34  35
HETATM   35  O   UNL     1       5.744  14.478  88.860  1.00  0.00    -0.371 OA
HETATM   36  H   UNL     1       6.247  13.817  88.409  1.00  0.00     0.211 HD
ENDBRANCH  34  35
BRANCH  34  37
HETATM   37  C   UNL     1       4.687  12.661  88.199  1.00  0.00     0.185 C 
HETATM   38  O   UNL     1       5.996  12.767  88.370  1.00  0.00    -0.647 OA
BRANCH  37  39
HETATM   39  O   UNL     1       3.892  11.952  87.659  1.00  0.00    -0.774 OA
HETATM   40  H   UNL     1       3.318  12.505  86.851  1.00  0.00     0.167 HD
ENDBRANCH  37  39
ENDBRANCH  34  37
ENDBRANCH  33  34
ENDBRANCH  31  33
ENDBRANCH  26  31
ENDBRANCH  24  26
ENDBRANCH  19  22
ENDBRANCH  15  16
ENDBRANCH  11  14
ENDBRANCH   7   8
ENDBRANCH   2   7
TORSDOF 14
ENDMDL
