MODEL 1
REMARK VINA RESULT:      -6.9      0.000      0.000
REMARK  10 active torsions:
REMARK  status: ('A' for Active; 'I' for Inactive)
REMARK    1  A    between atoms: O_2  and  C_18 
REMARK    2  A    between atoms: O_5  and  N_8 
REMARK    3  A    between atoms: N_6  and  C_11 
REMARK    4  A    between atoms: N_7  and  C_15 
REMARK       I    between atoms: N_7  and  C_24 
REMARK       I    between atoms: N_8  and  C_23 
REMARK    5  A    between atoms: C_11  and  C_14 
REMARK    6  A    between atoms: C_15  and  C_18 
REMARK    7  A    between atoms: C_15  and  C_23 
REMARK    8  A    between atoms: C_21  and  C_26 
REMARK    9  A    between atoms: C_24  and  C_25 
REMARK   10  A    between atoms: C_29  and  C_32 
ROOT
HETATM    1  O   UNK     0      16.433   4.269  94.124  0.00  0.00    -0.388 OA
HETATM    2  N   UNK     0      14.711   2.556  92.640  0.00  0.00     0.096 N 
HETATM    3  C   UNK     0      14.533   4.015  92.636  0.00  0.00     0.299 C 
HETATM    4  C   UNK     0      15.316   2.126  93.908  0.00  0.00     0.299 C 
HETATM    5  C   UNK     0      15.875   4.700  92.881  0.00  0.00     0.198 C 
HETATM    6  C   UNK     0      16.639   2.856  94.124  0.00  0.00     0.198 C 
ENDROOT
BRANCH   2   7
HETATM    7  C   UNK     0      13.436   1.878  92.417  0.00  0.00     0.311 C 
BRANCH   7   8
HETATM    8  C   UNK     0      12.324   2.834  92.146  0.00  0.00    -0.030 A 
HETATM    9  C   UNK     0      11.845   2.994  90.845  0.00  0.00     0.010 A 
HETATM   10  C   UNK     0      10.806   3.889  90.590  0.00  0.00     0.021 A 
HETATM   11  C   UNK     0      10.247   4.622  91.636  0.00  0.00     0.018 A 
HETATM   12  C   UNK     0      10.724   4.463  92.935  0.00  0.00     0.021 A 
HETATM   13  C   UNK     0      11.763   3.568  93.191  0.00  0.00     0.010 A 
BRANCH  11  14
HETATM   14  C   UNK     0       9.180   5.539  91.374  0.00  0.00    -0.061 C 
HETATM   15  C   UNK     0       8.283   6.310  91.155  0.00  0.00    -0.061 C 
BRANCH  15  16
HETATM   16  C   UNK     0       7.217   7.225  90.893  0.00  0.00     0.018 A 
HETATM   17  C   UNK     0       6.024   6.763  90.336  0.00  0.00     0.022 A 
HETATM   18  C   UNK     0       4.982   7.655  90.083  0.00  0.00     0.018 A 
HETATM   19  C   UNK     0       5.156   8.988  90.392  0.00  0.00     0.032 A 
HETATM   20  C   UNK     0       6.325   9.469  90.943  0.00  0.00     0.018 A 
HETATM   21  C   UNK     0       7.367   8.578  91.196  0.00  0.00     0.022 A 
BRANCH  19  22
HETATM   22  C   UNK     0       4.046   9.938  90.120  0.00  0.00     0.252 C 
HETATM   23  O   UNK     0       2.944   9.498  89.802  0.00  0.00    -0.268 OA
HETATM   24  N   UNK     0       4.347  11.284  90.275  0.00  0.00    -0.341 N 
HETATM   25  H   UNK     0       5.274  11.572  90.565  0.00  0.00     0.163 HD
BRANCH  24  26
HETATM   26  C   UNK     0       3.372  12.325  90.072  0.00  0.00     0.207 C 
BRANCH  26  27
HETATM   27  C   UNK     0       3.017  13.068  91.366  0.00  0.00     0.146 C 
HETATM   28  C   UNK     0       2.206  12.208  92.329  0.00  0.00     0.042 C 
BRANCH  27  29
HETATM   29  O   UNK     0       4.215  13.489  92.018  0.00  0.00    -0.393 OA
HETATM   30  H   UNK     0       4.522  12.765  92.589  0.00  0.00     0.210 HD
ENDBRANCH  27  29
ENDBRANCH  26  27
BRANCH  26  31
HETATM   31  C   UNK     0       3.922  13.280  89.018  0.00  0.00     0.266 C 
HETATM   32  O   UNK     0       3.937  14.501  89.162  0.00  0.00    -0.269 OA
HETATM   33  N   UNK     0       4.355  12.619  87.894  0.00  0.00    -0.236 N 
HETATM   34  H   UNK     0       4.276  11.626  87.706  0.00  0.00     0.197 HD
BRANCH  33  35
HETATM   35  O   UNK     0       4.842  13.429  86.859  0.00  0.00    -0.287 OA
HETATM   36  H   UNK     0       5.231  12.754  86.277  0.00  0.00     0.244 HD
ENDBRANCH  33  35
ENDBRANCH  26  31
ENDBRANCH  24  26
ENDBRANCH  19  22
ENDBRANCH  15  16
ENDBRANCH  11  14
ENDBRANCH   7   8
ENDBRANCH   2   7
TORSDOF 10
ENDMDL
