MODEL 1
REMARK VINA RESULT:      -7.5      0.000      0.000
REMARK  9 active torsions:
REMARK  status: ('A' for Active; 'I' for Inactive)
REMARK    1  A    between atoms: N_3  and  C_6 
REMARK    2  A    between atoms: C_6  and  C_9 
REMARK    3  A    between atoms: C_14  and  C_17 
REMARK       I    between atoms: N_26  and  C_15 
REMARK    4  A    between atoms: C_15  and  C_16 
REMARK    5  A    between atoms: C_20  and  C_23 
REMARK    6  A    between atoms: OG1_24  and  CB_28 
REMARK    7  A    between atoms: N_26  and  CA_27 
REMARK    8  A    between atoms: CA_27  and  CB_28 
REMARK    9  A    between atoms: CA_27  and  C_30 
ROOT
HETATM    1  O   UNK A   0       1.917   8.024  87.805  1.00  0.00    -0.388 OA
HETATM    2  N   UNK A   0       4.714   7.516  87.663  1.00  0.00     0.096 N 
HETATM    3  C   UNK A   0       4.187   8.884  87.769  1.00  0.00     0.299 C 
HETATM    4  C   UNK A   0       3.740   6.652  86.982  1.00  0.00     0.299 C 
HETATM    5  C   UNK A   0       2.844   8.865  88.495  1.00  0.00     0.198 C 
HETATM    6  C   UNK A   0       2.409   6.686  87.726  1.00  0.00     0.198 C 
ENDROOT
BRANCH   2   7
HETATM    7  C   UNK A   0       5.996   7.509  86.961  1.00  0.00     0.311 C 
BRANCH   7   8
HETATM    8  C   UNK A   0       7.090   6.914  87.781  1.00  0.00    -0.030 A 
HETATM    9  C   UNK A   0       8.331   6.649  87.200  1.00  0.00     0.010 A 
HETATM   10  C   UNK A   0       9.354   6.090  87.966  1.00  0.00     0.021 A 
HETATM   11  C   UNK A   0       9.137   5.800  89.312  1.00  0.00     0.018 A 
HETATM   12  C   UNK A   0       7.899   6.066  89.893  1.00  0.00     0.021 A 
HETATM   13  C   UNK A   0       6.875   6.623  89.128  1.00  0.00     0.010 A 
BRANCH  11  14
HETATM   14  C   UNK A   0      10.187   5.229  90.098  1.00  0.00    -0.061 C 
HETATM   15  C   UNK A   0      11.071   4.750  90.758  1.00  0.00    -0.061 C 
BRANCH  15  16
HETATM   16  C   UNK A   0      12.121   4.181  91.544  1.00  0.00     0.018 A 
HETATM   17  C   UNK A   0      11.879   3.813  92.868  1.00  0.00     0.022 A 
HETATM   18  C   UNK A   0      12.903   3.255  93.633  1.00  0.00     0.018 A 
HETATM   19  C   UNK A   0      14.144   3.077  93.058  1.00  0.00     0.032 A 
HETATM   20  C   UNK A   0      14.408   3.433  91.753  1.00  0.00     0.018 A 
HETATM   21  C   UNK A   0      13.385   3.991  90.986  1.00  0.00     0.022 A 
BRANCH  19  22
HETATM   22  C   UNK A   0      15.235   2.484  93.875  1.00  0.00     0.252 C 
HETATM   23  O   UNK A   0      16.401   2.760  93.608  1.00  0.00    -0.268 OA
ENDBRANCH  19  22
ENDBRANCH  15  16
ENDBRANCH  11  14
ENDBRANCH   7   8
ENDBRANCH   2   7
TORSDOF 9
ENDMDL
MODEL 2
REMARK VINA RESULT:      -7.5      0.273      1.044
REMARK  9 active torsions:
REMARK  status: ('A' for Active; 'I' for Inactive)
REMARK    1  A    between atoms: N_3  and  C_6 
REMARK    2  A    between atoms: C_6  and  C_9 
REMARK    3  A    between atoms: C_14  and  C_17 
REMARK       I    between atoms: N_26  and  C_15 
REMARK    4  A    between atoms: C_15  and  C_16 
REMARK    5  A    between atoms: C_20  and  C_23 
REMARK    6  A    between atoms: OG1_24  and  CB_28 
REMARK    7  A    between atoms: N_26  and  CA_27 
REMARK    8  A    between atoms: CA_27  and  CB_28 
REMARK    9  A    between atoms: CA_27  and  C_30 
ROOT
HETATM    1  O   UNK A   0       1.658   7.947  87.938  1.00  0.00    -0.388 OA
HETATM    2  N   UNK A   0       4.462   7.503  87.726  1.00  0.00     0.096 N 
HETATM    3  C   UNK A   0       3.911   8.850  87.933  1.00  0.00     0.299 C 
HETATM    4  C   UNK A   0       3.494   6.669  86.999  1.00  0.00     0.299 C 
HETATM    5  C   UNK A   0       2.579   8.756  88.673  1.00  0.00     0.198 C 
HETATM    6  C   UNK A   0       2.173   6.627  87.760  1.00  0.00     0.198 C 
ENDROOT
BRANCH   2   7
HETATM    7  C   UNK A   0       5.734   7.568  87.009  1.00  0.00     0.311 C 
BRANCH   7   8
HETATM    8  C   UNK A   0       6.855   6.967  87.786  1.00  0.00    -0.030 A 
HETATM    9  C   UNK A   0       8.099   6.779  87.181  1.00  0.00     0.010 A 
HETATM   10  C   UNK A   0       9.148   6.214  87.906  1.00  0.00     0.021 A 
HETATM   11  C   UNK A   0       8.954   5.840  89.236  1.00  0.00     0.018 A 
HETATM   12  C   UNK A   0       7.713   6.028  89.840  1.00  0.00     0.021 A 
HETATM   13  C   UNK A   0       6.663   6.592  89.115  1.00  0.00     0.010 A 
BRANCH  11  14
HETATM   14  C   UNK A   0      10.031   5.263  89.980  1.00  0.00    -0.061 C 
HETATM   15  C   UNK A   0      10.937   4.778  90.605  1.00  0.00    -0.061 C 
BRANCH  15  16
HETATM   16  C   UNK A   0      12.014   4.202  91.348  1.00  0.00     0.018 A 
HETATM   17  C   UNK A   0      13.263   4.036  90.749  1.00  0.00     0.022 A 
HETATM   18  C   UNK A   0      14.314   3.477  91.475  1.00  0.00     0.018 A 
HETATM   19  C   UNK A   0      14.093   3.097  92.783  1.00  0.00     0.032 A 
HETATM   20  C   UNK A   0      12.868   3.250  93.397  1.00  0.00     0.018 A 
HETATM   21  C   UNK A   0      11.816   3.809  92.672  1.00  0.00     0.022 A 
BRANCH  19  22
HETATM   22  C   UNK A   0      15.213   2.499  93.555  1.00  0.00     0.252 C 
HETATM   23  O   UNK A   0      16.209   3.179  93.792  1.00  0.00    -0.268 OA
ENDBRANCH  19  22
ENDBRANCH  15  16
ENDBRANCH  11  14
ENDBRANCH   7   8
ENDBRANCH   2   7
TORSDOF 9
ENDMDL
MODEL 3
REMARK VINA RESULT:      -7.5      0.233      1.443
REMARK  9 active torsions:
REMARK  status: ('A' for Active; 'I' for Inactive)
REMARK    1  A    between atoms: N_3  and  C_6 
REMARK    2  A    between atoms: C_6  and  C_9 
REMARK    3  A    between atoms: C_14  and  C_17 
REMARK       I    between atoms: N_26  and  C_15 
REMARK    4  A    between atoms: C_15  and  C_16 
REMARK    5  A    between atoms: C_20  and  C_23 
REMARK    6  A    between atoms: OG1_24  and  CB_28 
REMARK    7  A    between atoms: N_26  and  CA_27 
REMARK    8  A    between atoms: CA_27  and  CB_28 
REMARK    9  A    between atoms: CA_27  and  C_30 
ROOT
HETATM    1  O   UNK A   0       1.719   7.952  87.856  1.00  0.00    -0.388 OA
HETATM    2  N   UNK A   0       4.530   7.531  87.700  1.00  0.00     0.096 N 
HETATM    3  C   UNK A   0       3.960   8.882  87.798  1.00  0.00     0.299 C 
HETATM    4  C   UNK A   0       3.579   6.631  87.032  1.00  0.00     0.299 C 
HETATM    5  C   UNK A   0       2.623   8.827  88.533  1.00  0.00     0.198 C 
HETATM    6  C   UNK A   0       2.252   6.629  87.783  1.00  0.00     0.198 C 
ENDROOT
BRANCH   2   7
HETATM    7  C   UNK A   0       5.807   7.558  86.989  1.00  0.00     0.311 C 
BRANCH   7   8
HETATM    8  C   UNK A   0       6.914   6.958  87.788  1.00  0.00    -0.030 A 
HETATM    9  C   UNK A   0       6.690   6.572  89.110  1.00  0.00     0.010 A 
HETATM   10  C   UNK A   0       7.725   6.012  89.858  1.00  0.00     0.021 A 
HETATM   11  C   UNK A   0       8.983   5.837  89.283  1.00  0.00     0.018 A 
HETATM   12  C   UNK A   0       9.209   6.222  87.963  1.00  0.00     0.021 A 
HETATM   13  C   UNK A   0       8.174   6.782  87.215  1.00  0.00     0.010 A 
BRANCH  11  14
HETATM   14  C   UNK A   0      10.045   5.261  90.050  1.00  0.00    -0.061 C 
HETATM   15  C   UNK A   0      10.937   4.777  90.696  1.00  0.00    -0.061 C 
BRANCH  15  16
HETATM   16  C   UNK A   0      11.997   4.201  91.463  1.00  0.00     0.018 A 
HETATM   17  C   UNK A   0      13.247   3.995  90.879  1.00  0.00     0.022 A 
HETATM   18  C   UNK A   0      14.282   3.436  91.629  1.00  0.00     0.018 A 
HETATM   19  C   UNK A   0      14.044   3.096  92.944  1.00  0.00     0.032 A 
HETATM   20  C   UNK A   0      12.817   3.289  93.544  1.00  0.00     0.018 A 
HETATM   21  C   UNK A   0      11.781   3.848  92.795  1.00  0.00     0.022 A 
BRANCH  19  22
HETATM   22  C   UNK A   0      15.146   2.498  93.741  1.00  0.00     0.252 C 
HETATM   23  O   UNK A   0      16.083   3.209  94.097  1.00  0.00    -0.268 OA
ENDBRANCH  19  22
ENDBRANCH  15  16
ENDBRANCH  11  14
ENDBRANCH   7   8
ENDBRANCH   2   7
TORSDOF 9
ENDMDL
MODEL 4
REMARK VINA RESULT:      -6.8      1.484      2.051
REMARK  9 active torsions:
REMARK  status: ('A' for Active; 'I' for Inactive)
REMARK    1  A    between atoms: N_3  and  C_6 
REMARK    2  A    between atoms: C_6  and  C_9 
REMARK    3  A    between atoms: C_14  and  C_17 
REMARK       I    between atoms: N_26  and  C_15 
REMARK    4  A    between atoms: C_15  and  C_16 
REMARK    5  A    between atoms: C_20  and  C_23 
REMARK    6  A    between atoms: OG1_24  and  CB_28 
REMARK    7  A    between atoms: N_26  and  CA_27 
REMARK    8  A    between atoms: CA_27  and  CB_28 
REMARK    9  A    between atoms: CA_27  and  C_30 
ROOT
HETATM    1  O   UNK A   0       2.698  11.175  89.531  1.00  0.00    -0.388 OA
HETATM    2  N   UNK A   0       4.524   9.151  88.711  1.00  0.00     0.096 N 
HETATM    3  C   UNK A   0       3.890  10.053  87.739  1.00  0.00     0.299 C 
HETATM    4  C   UNK A   0       3.646   8.968  89.875  1.00  0.00     0.299 C 
HETATM    5  C   UNK A   0       3.558  11.384  88.410  1.00  0.00     0.198 C 
HETATM    6  C   UNK A   0       3.319  10.323  90.495  1.00  0.00     0.198 C 
ENDROOT
BRANCH   2   7
HETATM    7  C   UNK A   0       4.841   7.865  88.092  1.00  0.00     0.311 C 
BRANCH   7   8
HETATM    8  C   UNK A   0       6.063   7.241  88.674  1.00  0.00    -0.030 A 
HETATM    9  C   UNK A   0       5.954   6.089  89.454  1.00  0.00     0.010 A 
HETATM   10  C   UNK A   0       7.097   5.505  90.000  1.00  0.00     0.021 A 
HETATM   11  C   UNK A   0       8.348   6.074  89.766  1.00  0.00     0.018 A 
HETATM   12  C   UNK A   0       8.459   7.224  88.988  1.00  0.00     0.021 A 
HETATM   13  C   UNK A   0       7.316   7.808  88.442  1.00  0.00     0.010 A 
BRANCH  11  14
HETATM   14  C   UNK A   0       9.521   5.474  90.325  1.00  0.00    -0.061 C 
HETATM   15  C   UNK A   0      10.506   4.970  90.795  1.00  0.00    -0.061 C 
BRANCH  15  16
HETATM   16  C   UNK A   0      11.678   4.372  91.354  1.00  0.00     0.018 A 
HETATM   17  C   UNK A   0      11.640   3.836  92.642  1.00  0.00     0.022 A 
HETATM   18  C   UNK A   0      12.783   3.250  93.186  1.00  0.00     0.018 A 
HETATM   19  C   UNK A   0      13.937   3.212  92.431  1.00  0.00     0.032 A 
HETATM   20  C   UNK A   0      14.000   3.734  91.156  1.00  0.00     0.018 A 
HETATM   21  C   UNK A   0      12.858   4.321  90.611  1.00  0.00     0.022 A 
BRANCH  19  22
HETATM   22  C   UNK A   0      15.154   2.589  93.012  1.00  0.00     0.252 C 
HETATM   23  O   UNK A   0      15.537   2.943  94.124  1.00  0.00    -0.268 OA
ENDBRANCH  19  22
ENDBRANCH  15  16
ENDBRANCH  11  14
ENDBRANCH   7   8
ENDBRANCH   2   7
TORSDOF 9
ENDMDL
MODEL 5
REMARK VINA RESULT:      -6.8      1.271      2.104
REMARK  9 active torsions:
REMARK  status: ('A' for Active; 'I' for Inactive)
REMARK    1  A    between atoms: N_3  and  C_6 
REMARK    2  A    between atoms: C_6  and  C_9 
REMARK    3  A    between atoms: C_14  and  C_17 
REMARK       I    between atoms: N_26  and  C_15 
REMARK    4  A    between atoms: C_15  and  C_16 
REMARK    5  A    between atoms: C_20  and  C_23 
REMARK    6  A    between atoms: OG1_24  and  CB_28 
REMARK    7  A    between atoms: N_26  and  CA_27 
REMARK    8  A    between atoms: CA_27  and  CB_28 
REMARK    9  A    between atoms: CA_27  and  C_30 
ROOT
HETATM    1  O   UNK A   0       4.119  11.010  89.075  1.00  0.00    -0.388 OA
HETATM    2  N   UNK A   0       4.956   8.323  88.648  1.00  0.00     0.096 N 
HETATM    3  C   UNK A   0       5.910   9.372  89.034  1.00  0.00     0.299 C 
HETATM    4  C   UNK A   0       3.840   8.910  87.893  1.00  0.00     0.299 C 
HETATM    5  C   UNK A   0       5.191  10.453  89.838  1.00  0.00     0.198 C 
HETATM    6  C   UNK A   0       3.171  10.001  88.722  1.00  0.00     0.198 C 
ENDROOT
BRANCH   2   7
HETATM    7  C   UNK A   0       5.621   7.281  87.868  1.00  0.00     0.311 C 
BRANCH   7   8
HETATM    8  C   UNK A   0       6.800   6.706  88.576  1.00  0.00    -0.030 A 
HETATM    9  C   UNK A   0       6.626   6.032  89.785  1.00  0.00     0.010 A 
HETATM   10  C   UNK A   0       7.728   5.496  90.450  1.00  0.00     0.021 A 
HETATM   11  C   UNK A   0       9.004   5.631  89.903  1.00  0.00     0.018 A 
HETATM   12  C   UNK A   0       9.179   6.304  88.696  1.00  0.00     0.021 A 
HETATM   13  C   UNK A   0       8.077   6.841  88.031  1.00  0.00     0.010 A 
BRANCH  11  14
HETATM   14  C   UNK A   0      10.135   5.079  90.584  1.00  0.00    -0.061 C 
HETATM   15  C   UNK A   0      11.085   4.615  91.157  1.00  0.00    -0.061 C 
BRANCH  15  16
HETATM   16  C   UNK A   0      12.214   4.063  91.837  1.00  0.00     0.018 A 
HETATM   17  C   UNK A   0      13.405   3.842  91.145  1.00  0.00     0.022 A 
HETATM   18  C   UNK A   0      14.508   3.305  91.810  1.00  0.00     0.018 A 
HETATM   19  C   UNK A   0      14.396   3.003  93.150  1.00  0.00     0.032 A 
HETATM   20  C   UNK A   0      13.230   3.212  93.857  1.00  0.00     0.018 A 
HETATM   21  C   UNK A   0      12.126   3.748  93.193  1.00  0.00     0.022 A 
BRANCH  19  22
HETATM   22  C   UNK A   0      15.570   2.430  93.858  1.00  0.00     0.252 C 
HETATM   23  O   UNK A   0      16.654   3.002  93.781  1.00  0.00    -0.268 OA
ENDBRANCH  19  22
ENDBRANCH  15  16
ENDBRANCH  11  14
ENDBRANCH   7   8
ENDBRANCH   2   7
TORSDOF 9
ENDMDL
MODEL 6
REMARK VINA RESULT:      -6.6      1.151      1.770
REMARK  9 active torsions:
REMARK  status: ('A' for Active; 'I' for Inactive)
REMARK    1  A    between atoms: N_3  and  C_6 
REMARK    2  A    between atoms: C_6  and  C_9 
REMARK    3  A    between atoms: C_14  and  C_17 
REMARK       I    between atoms: N_26  and  C_15 
REMARK    4  A    between atoms: C_15  and  C_16 
REMARK    5  A    between atoms: C_20  and  C_23 
REMARK    6  A    between atoms: OG1_24  and  CB_28 
REMARK    7  A    between atoms: N_26  and  CA_27 
REMARK    8  A    between atoms: CA_27  and  CB_28 
REMARK    9  A    between atoms: CA_27  and  C_30 
ROOT
HETATM    1  O   UNK A   0       1.283   7.364  88.351  1.00  0.00    -0.388 OA
HETATM    2  N   UNK A   0       4.029   7.791  88.968  1.00  0.00     0.096 N 
HETATM    3  C   UNK A   0       2.958   8.342  89.810  1.00  0.00     0.299 C 
HETATM    4  C   UNK A   0       3.563   7.665  87.580  1.00  0.00     0.299 C 
HETATM    5  C   UNK A   0       1.716   7.460  89.710  1.00  0.00     0.198 C 
HETATM    6  C   UNK A   0       2.308   6.800  87.531  1.00  0.00     0.198 C 
ENDROOT
BRANCH   2   7
HETATM    7  C   UNK A   0       5.226   8.627  89.041  1.00  0.00     0.311 C 
BRANCH   7   8
HETATM    8  C   UNK A   0       6.412   7.878  89.545  1.00  0.00    -0.030 A 
HETATM    9  C   UNK A   0       6.906   6.789  88.825  1.00  0.00     0.010 A 
HETATM   10  C   UNK A   0       8.014   6.086  89.297  1.00  0.00     0.021 A 
HETATM   11  C   UNK A   0       8.629   6.473  90.487  1.00  0.00     0.018 A 
HETATM   12  C   UNK A   0       8.138   7.561  91.206  1.00  0.00     0.021 A 
HETATM   13  C   UNK A   0       7.029   8.263  90.735  1.00  0.00     0.010 A 
BRANCH  11  14
HETATM   14  C   UNK A   0       9.768   5.753  90.969  1.00  0.00    -0.061 C 
HETATM   15  C   UNK A   0      10.724   5.149  91.376  1.00  0.00    -0.061 C 
BRANCH  15  16
HETATM   16  C   UNK A   0      11.861   4.429  91.859  1.00  0.00     0.018 A 
HETATM   17  C   UNK A   0      12.979   4.263  91.041  1.00  0.00     0.022 A 
HETATM   18  C   UNK A   0      14.090   3.563  91.513  1.00  0.00     0.018 A 
HETATM   19  C   UNK A   0      14.058   3.047  92.792  1.00  0.00     0.032 A 
HETATM   20  C   UNK A   0      12.965   3.197  93.619  1.00  0.00     0.018 A 
HETATM   21  C   UNK A   0      11.854   3.897  93.148  1.00  0.00     0.022 A 
BRANCH  19  22
HETATM   22  C   UNK A   0      15.240   2.300  93.294  1.00  0.00     0.252 C 
HETATM   23  O   UNK A   0      16.099   2.899  93.936  1.00  0.00    -0.268 OA
ENDBRANCH  19  22
ENDBRANCH  15  16
ENDBRANCH  11  14
ENDBRANCH   7   8
ENDBRANCH   2   7
TORSDOF 9
ENDMDL
MODEL 7
REMARK VINA RESULT:      -6.6      3.932     10.407
REMARK  9 active torsions:
REMARK  status: ('A' for Active; 'I' for Inactive)
REMARK    1  A    between atoms: N_3  and  C_6 
REMARK    2  A    between atoms: C_6  and  C_9 
REMARK    3  A    between atoms: C_14  and  C_17 
REMARK       I    between atoms: N_26  and  C_15 
REMARK    4  A    between atoms: C_15  and  C_16 
REMARK    5  A    between atoms: C_20  and  C_23 
REMARK    6  A    between atoms: OG1_24  and  CB_28 
REMARK    7  A    between atoms: N_26  and  CA_27 
REMARK    8  A    between atoms: CA_27  and  CB_28 
REMARK    9  A    between atoms: CA_27  and  C_30 
ROOT
HETATM    1  O   UNK A   0      14.682   3.366  92.058  1.00  0.00    -0.388 OA
HETATM    2  N   UNK A   0      11.964   4.168  92.328  1.00  0.00     0.096 N 
HETATM    3  C   UNK A   0      12.596   3.258  93.294  1.00  0.00     0.299 C 
HETATM    4  C   UNK A   0      12.594   4.018  91.009  1.00  0.00     0.299 C 
HETATM    5  C   UNK A   0      14.097   3.528  93.352  1.00  0.00     0.198 C 
HETATM    6  C   UNK A   0      14.094   4.269  91.120  1.00  0.00     0.198 C 
ENDROOT
BRANCH   2   7
HETATM    7  C   UNK A   0      10.525   3.920  92.248  1.00  0.00     0.311 C 
BRANCH   7   8
HETATM    8  C   UNK A   0       9.752   5.157  91.938  1.00  0.00    -0.030 A 
HETATM    9  C   UNK A   0       8.774   5.135  90.943  1.00  0.00     0.010 A 
HETATM   10  C   UNK A   0       8.052   6.292  90.651  1.00  0.00     0.021 A 
HETATM   11  C   UNK A   0       8.307   7.469  91.354  1.00  0.00     0.018 A 
HETATM   12  C   UNK A   0       9.283   7.491  92.348  1.00  0.00     0.021 A 
HETATM   13  C   UNK A   0      10.006   6.335  92.640  1.00  0.00     0.010 A 
BRANCH  11  14
HETATM   14  C   UNK A   0       7.564   8.655  91.056  1.00  0.00    -0.061 C 
HETATM   15  C   UNK A   0       6.941   9.652  90.804  1.00  0.00    -0.061 C 
BRANCH  15  16
HETATM   16  C   UNK A   0       6.199  10.837  90.505  1.00  0.00     0.018 A 
HETATM   17  C   UNK A   0       5.287  11.340  91.433  1.00  0.00     0.022 A 
HETATM   18  C   UNK A   0       4.565  12.498  91.141  1.00  0.00     0.018 A 
HETATM   19  C   UNK A   0       4.772  13.126  89.931  1.00  0.00     0.032 A 
HETATM   20  C   UNK A   0       5.668  12.648  88.998  1.00  0.00     0.018 A 
HETATM   21  C   UNK A   0       6.390  11.490  89.288  1.00  0.00     0.022 A 
BRANCH  19  22
HETATM   22  C   UNK A   0       4.002  14.358  89.621  1.00  0.00     0.252 C 
HETATM   23  O   UNK A   0       4.579  15.443  89.623  1.00  0.00    -0.268 OA
ENDBRANCH  19  22
ENDBRANCH  15  16
ENDBRANCH  11  14
ENDBRANCH   7   8
ENDBRANCH   2   7
TORSDOF 9
ENDMDL
MODEL 8
REMARK VINA RESULT:      -6.6      3.426     10.351
REMARK  9 active torsions:
REMARK  status: ('A' for Active; 'I' for Inactive)
REMARK    1  A    between atoms: N_3  and  C_6 
REMARK    2  A    between atoms: C_6  and  C_9 
REMARK    3  A    between atoms: C_14  and  C_17 
REMARK       I    between atoms: N_26  and  C_15 
REMARK    4  A    between atoms: C_15  and  C_16 
REMARK    5  A    between atoms: C_20  and  C_23 
REMARK    6  A    between atoms: OG1_24  and  CB_28 
REMARK    7  A    between atoms: N_26  and  CA_27 
REMARK    8  A    between atoms: CA_27  and  CB_28 
REMARK    9  A    between atoms: CA_27  and  C_30 
ROOT
HETATM    1  O   UNK A   0      16.144   3.099  93.606  1.00  0.00    -0.388 OA
HETATM    2  N   UNK A   0      13.438   2.908  92.745  1.00  0.00     0.096 N 
HETATM    3  C   UNK A   0      14.218   1.713  93.096  1.00  0.00     0.299 C 
HETATM    4  C   UNK A   0      14.330   3.964  92.248  1.00  0.00     0.299 C 
HETATM    5  C   UNK A   0      15.289   2.077  94.122  1.00  0.00     0.198 C 
HETATM    6  C   UNK A   0      15.397   4.275  93.292  1.00  0.00     0.198 C 
ENDROOT
BRANCH   2   7
HETATM    7  C   UNK A   0      12.413   2.584  91.755  1.00  0.00     0.311 C 
BRANCH   7   8
HETATM    8  C   UNK A   0      11.559   3.758  91.416  1.00  0.00    -0.030 A 
HETATM    9  C   UNK A   0      10.982   4.517  92.436  1.00  0.00     0.010 A 
HETATM   10  C   UNK A   0      10.182   5.615  92.121  1.00  0.00     0.021 A 
HETATM   11  C   UNK A   0       9.959   5.954  90.786  1.00  0.00     0.018 A 
HETATM   12  C   UNK A   0      10.534   5.197  89.768  1.00  0.00     0.021 A 
HETATM   13  C   UNK A   0      11.335   4.099  90.082  1.00  0.00     0.010 A 
BRANCH  11  14
HETATM   14  C   UNK A   0       9.140   7.081  90.463  1.00  0.00    -0.061 C 
HETATM   15  C   UNK A   0       8.451   8.029  90.191  1.00  0.00    -0.061 C 
BRANCH  15  16
HETATM   16  C   UNK A   0       7.632   9.155  89.867  1.00  0.00     0.018 A 
HETATM   17  C   UNK A   0       6.243   9.026  89.858  1.00  0.00     0.022 A 
HETATM   18  C   UNK A   0       5.444  10.126  89.545  1.00  0.00     0.018 A 
HETATM   19  C   UNK A   0       6.051  11.328  89.248  1.00  0.00     0.032 A 
HETATM   20  C   UNK A   0       7.422  11.481  89.250  1.00  0.00     0.018 A 
HETATM   21  C   UNK A   0       8.222  10.382  89.563  1.00  0.00     0.022 A 
BRANCH  19  22
HETATM   22  C   UNK A   0       5.200  12.499  88.913  1.00  0.00     0.252 C 
HETATM   23  O   UNK A   0       4.592  12.512  87.845  1.00  0.00    -0.268 OA
ENDBRANCH  19  22
ENDBRANCH  15  16
ENDBRANCH  11  14
ENDBRANCH   7   8
ENDBRANCH   2   7
TORSDOF 9
ENDMDL
MODEL 9
REMARK VINA RESULT:      -6.6      3.958     10.475
REMARK  9 active torsions:
REMARK  status: ('A' for Active; 'I' for Inactive)
REMARK    1  A    between atoms: N_3  and  C_6 
REMARK    2  A    between atoms: C_6  and  C_9 
REMARK    3  A    between atoms: C_14  and  C_17 
REMARK       I    between atoms: N_26  and  C_15 
REMARK    4  A    between atoms: C_15  and  C_16 
REMARK    5  A    between atoms: C_20  and  C_23 
REMARK    6  A    between atoms: OG1_24  and  CB_28 
REMARK    7  A    between atoms: N_26  and  CA_27 
REMARK    8  A    between atoms: CA_27  and  CB_28 
REMARK    9  A    between atoms: CA_27  and  C_30 
ROOT
HETATM    1  O   UNK A   0      14.619   3.394  92.117  1.00  0.00    -0.388 OA
HETATM    2  N   UNK A   0      11.897   4.218  92.225  1.00  0.00     0.096 N 
HETATM    3  C   UNK A   0      12.477   3.345  93.256  1.00  0.00     0.299 C 
HETATM    4  C   UNK A   0      12.588   4.012  90.945  1.00  0.00     0.299 C 
HETATM    5  C   UNK A   0      13.976   3.611  93.374  1.00  0.00     0.198 C 
HETATM    6  C   UNK A   0      14.083   4.261  91.117  1.00  0.00     0.198 C 
ENDROOT
BRANCH   2   7
HETATM    7  C   UNK A   0      10.462   3.973  92.087  1.00  0.00     0.311 C 
BRANCH   7   8
HETATM    8  C   UNK A   0       9.699   5.219  91.794  1.00  0.00    -0.030 A 
HETATM    9  C   UNK A   0       9.804   6.317  92.649  1.00  0.00     0.010 A 
HETATM   10  C   UNK A   0       9.089   7.483  92.377  1.00  0.00     0.021 A 
HETATM   11  C   UNK A   0       8.270   7.551  91.250  1.00  0.00     0.018 A 
HETATM   12  C   UNK A   0       8.165   6.456  90.396  1.00  0.00     0.021 A 
HETATM   13  C   UNK A   0       8.879   5.289  90.668  1.00  0.00     0.010 A 
BRANCH  11  14
HETATM   14  C   UNK A   0       7.538   8.748  90.970  1.00  0.00    -0.061 C 
HETATM   15  C   UNK A   0       6.922   9.754  90.735  1.00  0.00    -0.061 C 
BRANCH  15  16
HETATM   16  C   UNK A   0       6.190  10.950  90.456  1.00  0.00     0.018 A 
HETATM   17  C   UNK A   0       6.385  11.620  89.248  1.00  0.00     0.022 A 
HETATM   18  C   UNK A   0       5.668  12.785  88.975  1.00  0.00     0.018 A 
HETATM   19  C   UNK A   0       4.774  13.253  89.914  1.00  0.00     0.032 A 
HETATM   20  C   UNK A   0       4.564  12.610  91.116  1.00  0.00     0.018 A 
HETATM   21  C   UNK A   0       5.280  11.444  91.390  1.00  0.00     0.022 A 
BRANCH  19  22
HETATM   22  C   UNK A   0       4.012  14.496  89.624  1.00  0.00     0.252 C 
HETATM   23  O   UNK A   0       4.620  15.556  89.499  1.00  0.00    -0.268 OA
ENDBRANCH  19  22
ENDBRANCH  15  16
ENDBRANCH  11  14
ENDBRANCH   7   8
ENDBRANCH   2   7
TORSDOF 9
ENDMDL
