MODEL 1
REMARK VINA RESULT:      -6.5      0.000      0.000
REMARK  14 active torsions:
REMARK  status: ('A' for Active; 'I' for Inactive)
REMARK    1  A    between atoms: O_2  and  C_18 
REMARK    2  A    between atoms: C_5  and  C_8 
REMARK    3  A    between atoms: C_5  and  O_35 
REMARK    4  A    between atoms: C_5  and  C_36 
REMARK    5  A    between atoms: N_6  and  C_11 
REMARK    6  A    between atoms: N_7  and  C_15 
REMARK       I    between atoms: N_7  and  C_24 
REMARK    7  A    between atoms: C_8  and  C_23 
REMARK    8  A    between atoms: C_11  and  C_14 
REMARK    9  A    between atoms: C_15  and  C_18 
REMARK   10  A    between atoms: C_15  and  C_23 
REMARK   11  A    between atoms: C_21  and  C_26 
REMARK   12  A    between atoms: C_24  and  C_25 
REMARK   13  A    between atoms: C_29  and  C_32 
REMARK   14  A    between atoms: C_36  and  O_39 
ROOT
HETATM    1  O   UNL     1      16.970   3.761  93.853  1.00  0.00    -0.350 OA
HETATM    2  N   UNL     1      14.343   3.084  92.991  1.00  0.00     0.147 N 
HETATM    3  C   UNL     1      15.415   2.080  93.049  1.00  0.00     0.283 C 
HETATM    4  C   UNL     1      14.914   4.415  92.745  1.00  0.00     0.283 C 
HETATM    5  C   UNL     1      16.427   2.467  94.124  1.00  0.00     0.178 C 
HETATM    6  C   UNL     1      15.938   4.747  93.825  1.00  0.00     0.178 C 
ENDROOT
BRANCH   2   7
HETATM    7  C   UNL     1      13.366   2.738  91.960  1.00  0.00     0.277 C 
BRANCH   7   8
HETATM    8  C   UNL     1      12.264   3.738  91.863  1.00  0.00     0.011 A 
HETATM    9  C   UNL     1      11.817   4.163  90.612  1.00  0.00    -0.002 A 
HETATM   10  C   UNL     1      10.788   5.100  90.520  1.00  0.00     0.008 A 
HETATM   11  C   UNL     1      10.206   5.610  91.680  1.00  0.00     0.042 A 
HETATM   12  C   UNL     1      10.651   5.186  92.931  1.00  0.00     0.008 A 
HETATM   13  C   UNL     1      11.681   4.250  93.022  1.00  0.00    -0.002 A 
BRANCH  11  14
HETATM   14  C   UNL     1       9.149   6.570  91.586  1.00  0.00    -0.059 C 
HETATM   15  C   UNL     1       8.260   7.376  91.508  1.00  0.00    -0.059 C 
BRANCH  15  16
HETATM   16  C   UNL     1       7.204   8.335  91.415  1.00  0.00     0.042 A 
HETATM   17  C   UNL     1       7.157   9.216  90.334  1.00  0.00     0.008 A 
HETATM   18  C   UNL     1       6.125  10.150  90.242  1.00  0.00     0.005 A 
HETATM   19  C   UNL     1       5.164  10.182  91.231  1.00  0.00     0.056 A 
HETATM   20  C   UNL     1       5.189   9.322  92.309  1.00  0.00     0.005 A 
HETATM   21  C   UNL     1       6.220   8.388  92.403  1.00  0.00     0.008 A 
BRANCH  19  22
HETATM   22  C   UNL     1       4.066  11.179  91.134  1.00  0.00     0.254 C 
HETATM   23  O   UNL     1       2.982  10.833  90.671  1.00  0.00    -0.268 OA
HETATM   24  N   UNL     1       4.355  12.450  91.610  1.00  0.00    -0.335 N 
HETATM   25  HN  UNL     1       5.266  12.656  92.003  1.00  0.00     0.164 HD
BRANCH  24  26
HETATM   26  C   UNL     1       3.388  13.518  91.606  1.00  0.00     0.169 C 
BRANCH  26  27
HETATM   27  C   UNL     1       2.977  13.952  93.019  1.00  0.00     0.138 C 
HETATM   28  C   UNL     1       4.173  14.107  93.953  1.00  0.00     0.034 C 
BRANCH  27  29
HETATM   29  O   UNL     1       2.277  15.194  92.953  1.00  0.00    -0.383 OA
HETATM   30  H   UNL     1       2.079  15.382  92.020  1.00  0.00     0.210 HD
ENDBRANCH  27  29
ENDBRANCH  26  27
BRANCH  26  31
HETATM   31  C   UNL     1       3.982  14.682  90.819  1.00  0.00     0.194 C 
HETATM   32  O   UNL     1       4.571  15.620  91.353  1.00  0.00    -0.289 OA
BRANCH  31  33
HETATM   33  C   UNL     1       3.745  14.570  89.471  1.00  0.00     0.053 C 
BRANCH  33  34
HETATM   34  C   UNL     1       4.824  14.119  88.697  1.00  0.00     0.220 C 
BRANCH  34  35
HETATM   35  O   UNL     1       5.835  14.108  89.425  1.00  0.00    -0.371 OA
HETATM   36  H   UNL     1       6.489  14.149  88.743  1.00  0.00     0.211 HD
ENDBRANCH  34  35
BRANCH  34  37
HETATM   37  C   UNL     1       4.593  12.874  88.087  1.00  0.00     0.185 C 
HETATM   38  O   UNL     1       5.916  12.827  88.049  1.00  0.00    -0.647 OA
BRANCH  37  39
HETATM   39  O   UNL     1       3.647  12.231  87.743  1.00  0.00    -0.774 OA
HETATM   40  H   UNL     1       3.950  11.363  87.079  1.00  0.00     0.167 HD
ENDBRANCH  37  39
ENDBRANCH  34  37
ENDBRANCH  33  34
ENDBRANCH  31  33
ENDBRANCH  26  31
ENDBRANCH  24  26
ENDBRANCH  19  22
ENDBRANCH  15  16
ENDBRANCH  11  14
ENDBRANCH   7   8
ENDBRANCH   2   7
TORSDOF 14
ENDMDL
MODEL 2
REMARK VINA RESULT:      -4.8      1.419      1.867
REMARK  14 active torsions:
REMARK  status: ('A' for Active; 'I' for Inactive)
REMARK    1  A    between atoms: O_2  and  C_18 
REMARK    2  A    between atoms: C_5  and  C_8 
REMARK    3  A    between atoms: C_5  and  O_35 
REMARK    4  A    between atoms: C_5  and  C_36 
REMARK    5  A    between atoms: N_6  and  C_11 
REMARK    6  A    between atoms: N_7  and  C_15 
REMARK       I    between atoms: N_7  and  C_24 
REMARK    7  A    between atoms: C_8  and  C_23 
REMARK    8  A    between atoms: C_11  and  C_14 
REMARK    9  A    between atoms: C_15  and  C_18 
REMARK   10  A    between atoms: C_15  and  C_23 
REMARK   11  A    between atoms: C_21  and  C_26 
REMARK   12  A    between atoms: C_24  and  C_25 
REMARK   13  A    between atoms: C_29  and  C_32 
REMARK   14  A    between atoms: C_36  and  O_39 
ROOT
HETATM    1  O   UNL     1      16.485   2.616  92.934  1.00  0.00    -0.350 OA
HETATM    2  N   UNL     1      13.655   2.841  93.138  1.00  0.00     0.147 N 
HETATM    3  C   UNL     1      14.387   1.751  93.797  1.00  0.00     0.283 C 
HETATM    4  C   UNL     1      14.376   3.278  91.934  1.00  0.00     0.283 C 
HETATM    5  C   UNL     1      15.807   2.206  94.124  1.00  0.00     0.178 C 
HETATM    6  C   UNL     1      15.795   3.696  92.305  1.00  0.00     0.178 C 
ENDROOT
BRANCH   2   7
HETATM    7  C   UNL     1      12.294   2.424  92.806  1.00  0.00     0.277 C 
BRANCH   7   8
HETATM    8  C   UNL     1      11.340   3.569  92.771  1.00  0.00     0.011 A 
HETATM    9  C   UNL     1      11.430   4.579  93.730  1.00  0.00    -0.002 A 
HETATM   10  C   UNL     1      10.537   5.650  93.700  1.00  0.00     0.008 A 
HETATM   11  C   UNL     1       9.557   5.712  92.710  1.00  0.00     0.042 A 
HETATM   12  C   UNL     1       9.466   4.704  91.752  1.00  0.00     0.008 A 
HETATM   13  C   UNL     1      10.359   3.632  91.782  1.00  0.00    -0.002 A 
BRANCH  11  14
HETATM   14  C   UNL     1       8.642   6.812  92.678  1.00  0.00    -0.059 C 
HETATM   15  C   UNL     1       7.874   7.736  92.652  1.00  0.00    -0.059 C 
BRANCH  15  16
HETATM   16  C   UNL     1       6.961   8.836  92.620  1.00  0.00     0.042 A 
HETATM   17  C   UNL     1       6.117   9.073  93.706  1.00  0.00     0.008 A 
HETATM   18  C   UNL     1       5.229  10.147  93.675  1.00  0.00     0.005 A 
HETATM   19  C   UNL     1       5.204  10.961  92.562  1.00  0.00     0.056 A 
HETATM   20  C   UNL     1       6.027  10.748  91.476  1.00  0.00     0.005 A 
HETATM   21  C   UNL     1       6.916   9.673  91.505  1.00  0.00     0.008 A 
BRANCH  19  22
HETATM   22  C   UNL     1       4.256  12.104  92.529  1.00  0.00     0.254 C 
HETATM   23  O   UNL     1       4.500  13.106  93.198  1.00  0.00    -0.268 OA
HETATM   24  N   UNL     1       3.150  11.954  91.704  1.00  0.00    -0.335 N 
HETATM   25  HN  UNL     1       3.027  11.107  91.161  1.00  0.00     0.164 HD
BRANCH  24  26
HETATM   26  C   UNL     1       2.154  12.983  91.546  1.00  0.00     0.169 C 
BRANCH  26  27
HETATM   27  C   UNL     1       1.426  13.310  92.857  1.00  0.00     0.138 C 
HETATM   28  C   UNL     1       1.354  12.113  93.799  1.00  0.00     0.034 C 
BRANCH  27  29
HETATM   29  O   UNL     1       2.096  14.382  93.520  1.00  0.00    -0.383 OA
HETATM   30  H   UNL     1       1.561  15.187  93.413  1.00  0.00     0.210 HD
ENDBRANCH  27  29
ENDBRANCH  26  27
BRANCH  26  31
HETATM   31  C   UNL     1       2.845  14.216  90.973  1.00  0.00     0.194 C 
HETATM   32  O   UNL     1       3.131  15.200  91.653  1.00  0.00    -0.289 OA
BRANCH  31  33
HETATM   33  C   UNL     1       3.066  14.106  89.622  1.00  0.00     0.053 C 
BRANCH  33  34
HETATM   34  C   UNL     1       4.407  14.171  89.216  1.00  0.00     0.220 C 
BRANCH  34  35
HETATM   35  O   UNL     1       5.117  14.109  90.237  1.00  0.00    -0.371 OA
HETATM   36  H   UNL     1       5.721  14.802  90.021  1.00  0.00     0.211 HD
ENDBRANCH  34  35
BRANCH  34  37
HETATM   37  C   UNL     1       4.752  13.194  88.266  1.00  0.00     0.185 C 
HETATM   38  O   UNL     1       5.976  13.413  88.721  1.00  0.00    -0.647 OA
BRANCH  37  39
HETATM   39  O   UNL     1       4.189  12.544  87.437  1.00  0.00    -0.774 OA
HETATM   40  H   UNL     1       3.344  13.125  86.952  1.00  0.00     0.167 HD
ENDBRANCH  37  39
ENDBRANCH  34  37
ENDBRANCH  33  34
ENDBRANCH  31  33
ENDBRANCH  26  31
ENDBRANCH  24  26
ENDBRANCH  19  22
ENDBRANCH  15  16
ENDBRANCH  11  14
ENDBRANCH   7   8
ENDBRANCH   2   7
TORSDOF 14
ENDMDL
MODEL 3
REMARK VINA RESULT:      -4.5      2.776     12.728
REMARK  14 active torsions:
REMARK  status: ('A' for Active; 'I' for Inactive)
REMARK    1  A    between atoms: O_2  and  C_18 
REMARK    2  A    between atoms: C_5  and  C_8 
REMARK    3  A    between atoms: C_5  and  O_35 
REMARK    4  A    between atoms: C_5  and  C_36 
REMARK    5  A    between atoms: N_6  and  C_11 
REMARK    6  A    between atoms: N_7  and  C_15 
REMARK       I    between atoms: N_7  and  C_24 
REMARK    7  A    between atoms: C_8  and  C_23 
REMARK    8  A    between atoms: C_11  and  C_14 
REMARK    9  A    between atoms: C_15  and  C_18 
REMARK   10  A    between atoms: C_15  and  C_23 
REMARK   11  A    between atoms: C_21  and  C_26 
REMARK   12  A    between atoms: C_24  and  C_25 
REMARK   13  A    between atoms: C_29  and  C_32 
REMARK   14  A    between atoms: C_36  and  O_39 
ROOT
HETATM    1  O   UNL     1       3.122  14.709  93.996  1.00  0.00    -0.350 OA
HETATM    2  N   UNL     1       2.687  14.598  91.186  1.00  0.00     0.147 N 
HETATM    3  C   UNL     1       1.735  14.002  92.134  1.00  0.00     0.283 C 
HETATM    4  C   UNL     1       4.041  14.583  91.755  1.00  0.00     0.283 C 
HETATM    5  C   UNL     1       1.796  14.749  93.464  1.00  0.00     0.178 C 
HETATM    6  C   UNL     1       4.048  15.314  93.094  1.00  0.00     0.178 C 
ENDROOT
BRANCH   2   7
HETATM    7  C   UNL     1       2.653  13.891  89.906  1.00  0.00     0.277 C 
BRANCH   7   8
HETATM    8  C   UNL     1       3.645  12.780  89.845  1.00  0.00     0.011 A 
HETATM    9  C   UNL     1       3.323  11.529  90.371  1.00  0.00    -0.002 A 
HETATM   10  C   UNL     1       4.251  10.489  90.316  1.00  0.00     0.008 A 
HETATM   11  C   UNL     1       5.500  10.701  89.733  1.00  0.00     0.042 A 
HETATM   12  C   UNL     1       5.822  11.950  89.206  1.00  0.00     0.008 A 
HETATM   13  C   UNL     1       4.895  12.990  89.262  1.00  0.00    -0.002 A 
BRANCH  11  14
HETATM   14  C   UNL     1       6.451   9.634  89.674  1.00  0.00    -0.059 C 
HETATM   15  C   UNL     1       7.251   8.737  89.625  1.00  0.00    -0.059 C 
BRANCH  15  16
HETATM   16  C   UNL     1       8.202   7.671  89.568  1.00  0.00     0.042 A 
HETATM   17  C   UNL     1       7.805   6.367  89.865  1.00  0.00     0.008 A 
HETATM   18  C   UNL     1       8.732   5.327  89.807  1.00  0.00     0.005 A 
HETATM   19  C   UNL     1      10.033   5.613  89.451  1.00  0.00     0.056 A 
HETATM   20  C   UNL     1      10.450   6.893  89.153  1.00  0.00     0.005 A 
HETATM   21  C   UNL     1       9.524   7.935  89.211  1.00  0.00     0.008 A 
BRANCH  19  22
HETATM   22  C   UNL     1      11.021   4.505  89.391  1.00  0.00     0.254 C 
HETATM   23  O   UNL     1      11.182   3.902  88.332  1.00  0.00    -0.268 OA
HETATM   24  N   UNL     1      11.720   4.248  90.562  1.00  0.00    -0.335 N 
HETATM   25  HN  UNL     1      11.552   4.805  91.392  1.00  0.00     0.164 HD
BRANCH  24  26
HETATM   26  C   UNL     1      12.727   3.222  90.655  1.00  0.00     0.169 C 
BRANCH  26  27
HETATM   27  C   UNL     1      14.152   3.791  90.692  1.00  0.00     0.138 C 
HETATM   28  C   UNL     1      15.077   3.111  89.689  1.00  0.00     0.034 C 
BRANCH  27  29
HETATM   29  O   UNL     1      14.114   5.190  90.414  1.00  0.00    -0.383 OA
HETATM   30  H   UNL     1      13.655   5.321  89.568  1.00  0.00     0.210 HD
ENDBRANCH  27  29
ENDBRANCH  26  27
BRANCH  26  31
HETATM   31  C   UNL     1      12.431   2.390  91.898  1.00  0.00     0.194 C 
HETATM   32  O   UNL     1      11.289   2.133  92.275  1.00  0.00    -0.289 OA
BRANCH  31  33
HETATM   33  C   UNL     1      13.577   2.005  92.551  1.00  0.00     0.053 C 
BRANCH  33  34
HETATM   34  C   UNL     1      13.756   2.541  93.835  1.00  0.00     0.220 C 
BRANCH  34  35
HETATM   35  O   UNL     1      14.963   2.437  94.124  1.00  0.00    -0.371 OA
HETATM   36  H   UNL     1      15.062   3.261  94.577  1.00  0.00     0.211 HD
ENDBRANCH  34  35
BRANCH  34  37
HETATM   37  C   UNL     1      13.288   3.860  93.962  1.00  0.00     0.185 C 
HETATM   38  O   UNL     1      14.580   4.147  93.981  1.00  0.00    -0.647 OA
BRANCH  37  39
HETATM   39  O   UNL     1      12.230   4.406  94.054  1.00  0.00    -0.774 OA
HETATM   40  H   UNL     1      12.208   5.376  93.466  1.00  0.00     0.167 HD
ENDBRANCH  37  39
ENDBRANCH  34  37
ENDBRANCH  33  34
ENDBRANCH  31  33
ENDBRANCH  26  31
ENDBRANCH  24  26
ENDBRANCH  19  22
ENDBRANCH  15  16
ENDBRANCH  11  14
ENDBRANCH   7   8
ENDBRANCH   2   7
TORSDOF 14
ENDMDL
