MODEL 1
REMARK VINA RESULT:      -6.9      0.000      0.000
REMARK  10 active torsions:
REMARK  status: ('A' for Active; 'I' for Inactive)
REMARK    1  A    between atoms: O_2  and  C_18 
REMARK    2  A    between atoms: O_5  and  N_8 
REMARK    3  A    between atoms: N_6  and  C_11 
REMARK    4  A    between atoms: N_7  and  C_15 
REMARK       I    between atoms: N_7  and  C_24 
REMARK       I    between atoms: N_8  and  C_23 
REMARK    5  A    between atoms: C_11  and  C_14 
REMARK    6  A    between atoms: C_15  and  C_18 
REMARK    7  A    between atoms: C_15  and  C_23 
REMARK    8  A    between atoms: C_21  and  C_26 
REMARK    9  A    between atoms: C_24  and  C_25 
REMARK   10  A    between atoms: C_29  and  C_32 
ROOT
HETATM    1  O   UNK     0      16.401   4.306  94.045  0.00  0.00    -0.388 OA
HETATM    2  N   UNK     0      14.673   2.575  92.589  0.00  0.00     0.096 N 
HETATM    3  C   UNK     0      14.544   4.037  92.505  0.00  0.00     0.299 C 
HETATM    4  C   UNK     0      15.220   2.192  93.897  0.00  0.00     0.299 C 
HETATM    5  C   UNK     0      15.899   4.691  92.763  0.00  0.00     0.198 C 
HETATM    6  C   UNK     0      16.558   2.889  94.123  0.00  0.00     0.198 C 
ENDROOT
BRANCH   2   7
HETATM    7  C   UNK     0      13.383   1.928  92.355  0.00  0.00     0.311 C 
BRANCH   7   8
HETATM    8  C   UNK     0      12.307   2.907  92.030  0.00  0.00    -0.030 A 
HETATM    9  C   UNK     0      11.929   3.110  90.702  0.00  0.00     0.010 A 
HETATM   10  C   UNK     0      10.923   4.028  90.397  0.00  0.00     0.021 A 
HETATM   11  C   UNK     0      10.296   4.739  91.419  0.00  0.00     0.018 A 
HETATM   12  C   UNK     0      10.672   4.536  92.745  0.00  0.00     0.021 A 
HETATM   13  C   UNK     0      11.678   3.619  93.051  0.00  0.00     0.010 A 
BRANCH  11  14
HETATM   14  C   UNK     0       9.263   5.678  91.106  0.00  0.00    -0.061 C 
HETATM   15  C   UNK     0       8.395   6.468  90.842  0.00  0.00    -0.061 C 
BRANCH  15  16
HETATM   16  C   UNK     0       7.364   7.406  90.530  0.00  0.00     0.018 A 
HETATM   17  C   UNK     0       6.428   7.109  89.539  0.00  0.00     0.022 A 
HETATM   18  C   UNK     0       5.420   8.024  89.236  0.00  0.00     0.018 A 
HETATM   19  C   UNK     0       5.370   9.215  89.929  0.00  0.00     0.032 A 
HETATM   20  C   UNK     0       6.283   9.533  90.912  0.00  0.00     0.018 A 
HETATM   21  C   UNK     0       7.292   8.619  91.216  0.00  0.00     0.022 A 
BRANCH  19  22
HETATM   22  C   UNK     0       4.297  10.190  89.604  0.00  0.00     0.252 C 
HETATM   23  O   UNK     0       3.401   9.861  88.831  0.00  0.00    -0.268 OA
HETATM   24  N   UNK     0       4.383  11.422  90.237  0.00  0.00    -0.341 N 
HETATM   25  H   UNK     0       5.139  11.615  90.884  0.00  0.00     0.163 HD
BRANCH  24  26
HETATM   26  C   UNK     0       3.406  12.464  90.044  0.00  0.00     0.207 C 
BRANCH  26  27
HETATM   27  C   UNK     0       3.055  13.197  91.345  0.00  0.00     0.146 C 
HETATM   28  C   UNK     0       1.897  12.541  92.090  0.00  0.00     0.042 C 
BRANCH  27  29
HETATM   29  O   UNK     0       4.197  13.227  92.200  0.00  0.00    -0.393 OA
HETATM   30  H   UNK     0       4.433  14.156  92.360  0.00  0.00     0.210 HD
ENDBRANCH  27  29
ENDBRANCH  26  27
BRANCH  26  31
HETATM   31  C   UNK     0       3.953  13.427  88.996  0.00  0.00     0.266 C 
HETATM   32  O   UNK     0       4.010  14.643  89.168  0.00  0.00    -0.269 OA
HETATM   33  N   UNK     0       4.331  12.781  87.844  0.00  0.00    -0.236 N 
HETATM   34  H   UNK     0       4.216  11.796  87.635  0.00  0.00     0.197 HD
BRANCH  33  35
HETATM   35  O   UNK     0       4.811  13.601  86.813  0.00  0.00    -0.287 OA
HETATM   36  H   UNK     0       5.755  13.370  86.831  0.00  0.00     0.244 HD
ENDBRANCH  33  35
ENDBRANCH  26  31
ENDBRANCH  24  26
ENDBRANCH  19  22
ENDBRANCH  15  16
ENDBRANCH  11  14
ENDBRANCH   7   8
ENDBRANCH   2   7
TORSDOF 10
ENDMDL
MODEL 2
REMARK VINA RESULT:      -6.7      1.420      2.001
REMARK  10 active torsions:
REMARK  status: ('A' for Active; 'I' for Inactive)
REMARK    1  A    between atoms: O_2  and  C_18 
REMARK    2  A    between atoms: O_5  and  N_8 
REMARK    3  A    between atoms: N_6  and  C_11 
REMARK    4  A    between atoms: N_7  and  C_15 
REMARK       I    between atoms: N_7  and  C_24 
REMARK       I    between atoms: N_8  and  C_23 
REMARK    5  A    between atoms: C_11  and  C_14 
REMARK    6  A    between atoms: C_15  and  C_18 
REMARK    7  A    between atoms: C_15  and  C_23 
REMARK    8  A    between atoms: C_21  and  C_26 
REMARK    9  A    between atoms: C_24  and  C_25 
REMARK   10  A    between atoms: C_29  and  C_32 
ROOT
HETATM    1  O   UNK     0      16.568   3.264  93.693  0.00  0.00    -0.388 OA
HETATM    2  N   UNK     0      13.892   2.852  92.815  0.00  0.00     0.096 N 
HETATM    3  C   UNK     0      14.798   1.724  93.070  0.00  0.00     0.299 C 
HETATM    4  C   UNK     0      14.662   4.034  92.405  0.00  0.00     0.299 C 
HETATM    5  C   UNK     0      15.831   2.118  94.124  0.00  0.00     0.198 C 
HETATM    6  C   UNK     0      15.698   4.374  93.473  0.00  0.00     0.198 C 
ENDROOT
BRANCH   2   7
HETATM    7  C   UNK     0      12.900   2.500  91.801  0.00  0.00     0.311 C 
BRANCH   7   8
HETATM    8  C   UNK     0      11.782   3.484  91.734  0.00  0.00    -0.030 A 
HETATM    9  C   UNK     0      11.265   4.031  92.909  0.00  0.00     0.010 A 
HETATM   10  C   UNK     0      10.217   4.949  92.849  0.00  0.00     0.021 A 
HETATM   11  C   UNK     0       9.688   5.321  91.613  0.00  0.00     0.018 A 
HETATM   12  C   UNK     0      10.204   4.776  90.439  0.00  0.00     0.021 A 
HETATM   13  C   UNK     0      11.251   3.857  90.499  0.00  0.00     0.010 A 
BRANCH  11  14
HETATM   14  C   UNK     0       8.615   6.265  91.551  0.00  0.00    -0.061 C 
HETATM   15  C   UNK     0       7.712   7.058  91.499  0.00  0.00    -0.061 C 
BRANCH  15  16
HETATM   16  C   UNK     0       6.640   8.000  91.435  0.00  0.00     0.018 A 
HETATM   17  C   UNK     0       5.656   7.870  90.455  0.00  0.00     0.022 A 
HETATM   18  C   UNK     0       4.607   8.789  90.394  0.00  0.00     0.018 A 
HETATM   19  C   UNK     0       4.566   9.815  91.314  0.00  0.00     0.032 A 
HETATM   20  C   UNK     0       5.526   9.966  92.292  0.00  0.00     0.018 A 
HETATM   21  C   UNK     0       6.575   9.048  92.353  0.00  0.00     0.022 A 
BRANCH  19  22
HETATM   22  C   UNK     0       3.450  10.794  91.247  0.00  0.00     0.252 C 
HETATM   23  O   UNK     0       2.375  10.447  90.764  0.00  0.00    -0.268 OA
HETATM   24  N   UNK     0       3.712  12.051  91.774  0.00  0.00    -0.341 N 
HETATM   25  H   UNK     0       4.617  12.259  92.180  0.00  0.00     0.163 HD
BRANCH  24  26
HETATM   26  C   UNK     0       2.725  13.101  91.804  0.00  0.00     0.207 C 
BRANCH  26  27
HETATM   27  C   UNK     0       2.772  13.922  93.099  0.00  0.00     0.146 C 
HETATM   28  C   UNK     0       4.026  13.646  93.921  0.00  0.00     0.042 C 
BRANCH  27  29
HETATM   29  O   UNK     0       2.720  15.313  92.784  0.00  0.00    -0.393 OA
HETATM   30  H   UNK     0       3.240  15.795  93.449  0.00  0.00     0.210 HD
ENDBRANCH  27  29
ENDBRANCH  26  27
BRANCH  26  31
HETATM   31  C   UNK     0       2.945  13.983  90.580  0.00  0.00     0.266 C 
HETATM   32  O   UNK     0       2.024  14.518  89.966  0.00  0.00    -0.269 OA
HETATM   33  N   UNK     0       4.272  14.070  90.234  0.00  0.00    -0.236 N 
HETATM   34  H   UNK     0       5.044  13.573  90.662  0.00  0.00     0.197 HD
BRANCH  33  35
HETATM   35  O   UNK     0       4.556  14.834  89.094  0.00  0.00    -0.287 OA
HETATM   36  H   UNK     0       4.791  15.683  89.506  0.00  0.00     0.244 HD
ENDBRANCH  33  35
ENDBRANCH  26  31
ENDBRANCH  24  26
ENDBRANCH  19  22
ENDBRANCH  15  16
ENDBRANCH  11  14
ENDBRANCH   7   8
ENDBRANCH   2   7
TORSDOF 10
ENDMDL
MODEL 3
REMARK VINA RESULT:      -5.8      1.655      2.777
REMARK  10 active torsions:
REMARK  status: ('A' for Active; 'I' for Inactive)
REMARK    1  A    between atoms: O_2  and  C_18 
REMARK    2  A    between atoms: O_5  and  N_8 
REMARK    3  A    between atoms: N_6  and  C_11 
REMARK    4  A    between atoms: N_7  and  C_15 
REMARK       I    between atoms: N_7  and  C_24 
REMARK       I    between atoms: N_8  and  C_23 
REMARK    5  A    between atoms: C_11  and  C_14 
REMARK    6  A    between atoms: C_15  and  C_18 
REMARK    7  A    between atoms: C_15  and  C_23 
REMARK    8  A    between atoms: C_21  and  C_26 
REMARK    9  A    between atoms: C_24  and  C_25 
REMARK   10  A    between atoms: C_29  and  C_32 
ROOT
HETATM    1  O   UNK     0      15.585   4.458  93.051  0.00  0.00    -0.388 OA
HETATM    2  N   UNK     0      13.571   2.623  92.226  0.00  0.00     0.096 N 
HETATM    3  C   UNK     0      13.741   3.925  91.566  0.00  0.00     0.299 C 
HETATM    4  C   UNK     0      14.005   2.709  93.627  0.00  0.00     0.299 C 
HETATM    5  C   UNK     0      15.196   4.376  91.678  0.00  0.00     0.198 C 
HETATM    6  C   UNK     0      15.452   3.189  93.692  0.00  0.00     0.198 C 
ENDROOT
BRANCH   2   7
HETATM    7  C   UNK     0      12.182   2.176  92.140  0.00  0.00     0.311 C 
BRANCH   7   8
HETATM    8  C   UNK     0      11.226   3.314  92.016  0.00  0.00    -0.030 A 
HETATM    9  C   UNK     0      11.035   4.183  93.091  0.00  0.00     0.010 A 
HETATM   10  C   UNK     0      10.139   5.246  92.977  0.00  0.00     0.021 A 
HETATM   11  C   UNK     0       9.437   5.441  91.788  0.00  0.00     0.018 A 
HETATM   12  C   UNK     0       9.628   4.574  90.714  0.00  0.00     0.021 A 
HETATM   13  C   UNK     0      10.523   3.510  90.827  0.00  0.00     0.010 A 
BRANCH  11  14
HETATM   14  C   UNK     0       8.520   6.533  91.670  0.00  0.00    -0.061 C 
HETATM   15  C   UNK     0       7.749   7.450  91.572  0.00  0.00    -0.061 C 
BRANCH  15  16
HETATM   16  C   UNK     0       6.834   8.541  91.453  0.00  0.00     0.018 A 
HETATM   17  C   UNK     0       6.219   8.805  90.228  0.00  0.00     0.022 A 
HETATM   18  C   UNK     0       5.324   9.868  90.113  0.00  0.00     0.018 A 
HETATM   19  C   UNK     0       5.063  10.644  91.223  0.00  0.00     0.032 A 
HETATM   20  C   UNK     0       5.658  10.404  92.444  0.00  0.00     0.018 A 
HETATM   21  C   UNK     0       6.554   9.341  92.560  0.00  0.00     0.022 A 
BRANCH  19  22
HETATM   22  C   UNK     0       4.111  11.778  91.099  0.00  0.00     0.252 C 
HETATM   23  O   UNK     0       2.966  11.560  90.711  0.00  0.00    -0.268 OA
HETATM   24  N   UNK     0       4.600  13.024  91.465  0.00  0.00    -0.341 N 
HETATM   25  H   UNK     0       5.550  13.124  91.800  0.00  0.00     0.163 HD
BRANCH  24  26
HETATM   26  C   UNK     0       3.792  14.216  91.423  0.00  0.00     0.207 C 
BRANCH  26  27
HETATM   27  C   UNK     0       3.602  14.756  90.000  0.00  0.00     0.146 C 
HETATM   28  C   UNK     0       4.926  14.963  89.273  0.00  0.00     0.042 C 
BRANCH  27  29
HETATM   29  O   UNK     0       2.798  13.847  89.248  0.00  0.00    -0.393 OA
HETATM   30  H   UNK     0       2.384  13.223  89.867  0.00  0.00     0.210 HD
ENDBRANCH  27  29
ENDBRANCH  26  27
BRANCH  26  31
HETATM   31  C   UNK     0       2.452  13.894  92.077  0.00  0.00     0.266 C 
HETATM   32  O   UNK     0       1.371  14.125  91.538  0.00  0.00    -0.269 OA
HETATM   33  N   UNK     0       2.602  13.361  93.334  0.00  0.00    -0.236 N 
HETATM   34  H   UNK     0       3.471  13.241  93.842  0.00  0.00     0.197 HD
BRANCH  33  35
HETATM   35  O   UNK     0       1.414  13.072  94.020  0.00  0.00    -0.287 OA
HETATM   36  H   UNK     0       0.761  13.262  93.326  0.00  0.00     0.244 HD
ENDBRANCH  33  35
ENDBRANCH  26  31
ENDBRANCH  24  26
ENDBRANCH  19  22
ENDBRANCH  15  16
ENDBRANCH  11  14
ENDBRANCH   7   8
ENDBRANCH   2   7
TORSDOF 10
ENDMDL
MODEL 4
REMARK VINA RESULT:      -5.6      2.630     12.890
REMARK  10 active torsions:
REMARK  status: ('A' for Active; 'I' for Inactive)
REMARK    1  A    between atoms: O_2  and  C_18 
REMARK    2  A    between atoms: O_5  and  N_8 
REMARK    3  A    between atoms: N_6  and  C_11 
REMARK    4  A    between atoms: N_7  and  C_15 
REMARK       I    between atoms: N_7  and  C_24 
REMARK       I    between atoms: N_8  and  C_23 
REMARK    5  A    between atoms: C_11  and  C_14 
REMARK    6  A    between atoms: C_15  and  C_18 
REMARK    7  A    between atoms: C_15  and  C_23 
REMARK    8  A    between atoms: C_21  and  C_26 
REMARK    9  A    between atoms: C_24  and  C_25 
REMARK   10  A    between atoms: C_29  and  C_32 
ROOT
HETATM    1  O   UNK     0       1.578  15.322  92.768  0.00  0.00    -0.388 OA
HETATM    2  N   UNK     0       3.474  13.581  91.553  0.00  0.00     0.096 N 
HETATM    3  C   UNK     0       3.807  14.976  91.873  0.00  0.00     0.299 C 
HETATM    4  C   UNK     0       2.035  13.456  91.286  0.00  0.00     0.299 C 
HETATM    5  C   UNK     0       2.971  15.448  93.060  0.00  0.00     0.198 C 
HETATM    6  C   UNK     0       1.240  13.963  92.486  0.00  0.00     0.198 C 
ENDROOT
BRANCH   2   7
HETATM    7  C   UNK     0       4.256  13.111  90.411  0.00  0.00     0.311 C 
BRANCH   7   8
HETATM    8  C   UNK     0       5.173  11.992  90.772  0.00  0.00    -0.030 A 
HETATM    9  C   UNK     0       5.157  11.469  92.066  0.00  0.00     0.010 A 
HETATM   10  C   UNK     0       6.015  10.423  92.406  0.00  0.00     0.021 A 
HETATM   11  C   UNK     0       6.887   9.900  91.451  0.00  0.00     0.018 A 
HETATM   12  C   UNK     0       6.904  10.422  90.159  0.00  0.00     0.021 A 
HETATM   13  C   UNK     0       6.046  11.468  89.819  0.00  0.00     0.010 A 
BRANCH  11  14
HETATM   14  C   UNK     0       7.766   8.826  91.800  0.00  0.00    -0.061 C 
HETATM   15  C   UNK     0       8.505   7.924  92.092  0.00  0.00    -0.061 C 
BRANCH  15  16
HETATM   16  C   UNK     0       9.383   6.852  92.441  0.00  0.00     0.018 A 
HETATM   17  C   UNK     0       9.584   6.525  93.783  0.00  0.00     0.022 A 
HETATM   18  C   UNK     0      10.440   5.478  94.124  0.00  0.00     0.018 A 
HETATM   19  C   UNK     0      11.074   4.780  93.117  0.00  0.00     0.032 A 
HETATM   20  C   UNK     0      10.892   5.083  91.784  0.00  0.00     0.018 A 
HETATM   21  C   UNK     0      10.037   6.131  91.443  0.00  0.00     0.022 A 
BRANCH  19  22
HETATM   22  C   UNK     0      11.987   3.666  93.481  0.00  0.00     0.252 C 
HETATM   23  O   UNK     0      11.514   2.558  93.724  0.00  0.00    -0.268 OA
HETATM   24  N   UNK     0      13.341   3.968  93.494  0.00  0.00    -0.341 N 
HETATM   25  H   UNK     0      13.661   4.901  93.258  0.00  0.00     0.163 HD
BRANCH  24  26
HETATM   26  C   UNK     0      14.352   2.989  93.804  0.00  0.00     0.207 C 
BRANCH  26  27
HETATM   27  C   UNK     0      14.434   1.870  92.758  0.00  0.00     0.146 C 
HETATM   28  C   UNK     0      15.311   2.246  91.568  0.00  0.00     0.042 C 
BRANCH  27  29
HETATM   29  O   UNK     0      14.957   0.688  93.363  0.00  0.00    -0.393 OA
HETATM   30  H   UNK     0      15.047   0.849  94.318  0.00  0.00     0.210 HD
ENDBRANCH  27  29
ENDBRANCH  26  27
BRANCH  26  31
HETATM   31  C   UNK     0      15.683   3.721  93.939  0.00  0.00     0.266 C 
HETATM   32  O   UNK     0      15.778   4.947  93.930  0.00  0.00    -0.269 OA
HETATM   33  N   UNK     0      16.745   2.854  94.031  0.00  0.00    -0.236 N 
HETATM   34  H   UNK     0      16.712   1.844  93.953  0.00  0.00     0.197 HD
BRANCH  33  35
HETATM   35  O   UNK     0      18.012   3.448  94.120  0.00  0.00    -0.287 OA
HETATM   36  H   UNK     0      18.499   2.750  94.591  0.00  0.00     0.244 HD
ENDBRANCH  33  35
ENDBRANCH  26  31
ENDBRANCH  24  26
ENDBRANCH  19  22
ENDBRANCH  15  16
ENDBRANCH  11  14
ENDBRANCH   7   8
ENDBRANCH   2   7
TORSDOF 10
ENDMDL
MODEL 5
REMARK VINA RESULT:      -5.4      2.022     12.477
REMARK  10 active torsions:
REMARK  status: ('A' for Active; 'I' for Inactive)
REMARK    1  A    between atoms: O_2  and  C_18 
REMARK    2  A    between atoms: O_5  and  N_8 
REMARK    3  A    between atoms: N_6  and  C_11 
REMARK    4  A    between atoms: N_7  and  C_15 
REMARK       I    between atoms: N_7  and  C_24 
REMARK       I    between atoms: N_8  and  C_23 
REMARK    5  A    between atoms: C_11  and  C_14 
REMARK    6  A    between atoms: C_15  and  C_18 
REMARK    7  A    between atoms: C_15  and  C_23 
REMARK    8  A    between atoms: C_21  and  C_26 
REMARK    9  A    between atoms: C_24  and  C_25 
REMARK   10  A    between atoms: C_29  and  C_32 
ROOT
HETATM    1  O   UNK     0       3.708  14.599  92.098  0.00  0.00    -0.388 OA
HETATM    2  N   UNK     0       3.915  13.792  89.377  0.00  0.00     0.096 N 
HETATM    3  C   UNK     0       3.070  13.062  90.332  0.00  0.00     0.299 C 
HETATM    4  C   UNK     0       5.041  14.421  90.080  0.00  0.00     0.299 C 
HETATM    5  C   UNK     0       2.591  14.010  91.429  0.00  0.00     0.198 C 
HETATM    6  C   UNK     0       4.517  15.336  91.182  0.00  0.00     0.198 C 
ENDROOT
BRANCH   2   7
HETATM    7  C   UNK     0       4.394  12.900  88.323  0.00  0.00     0.311 C 
BRANCH   7   8
HETATM    8  C   UNK     0       5.274  11.818  88.850  0.00  0.00    -0.030 A 
HETATM    9  C   UNK     0       6.657  11.999  88.882  0.00  0.00     0.010 A 
HETATM   10  C   UNK     0       7.482  10.987  89.373  0.00  0.00     0.021 A 
HETATM   11  C   UNK     0       6.923   9.796  89.834  0.00  0.00     0.018 A 
HETATM   12  C   UNK     0       5.542   9.614  89.803  0.00  0.00     0.021 A 
HETATM   13  C   UNK     0       4.717  10.625  89.311  0.00  0.00     0.010 A 
BRANCH  11  14
HETATM   14  C   UNK     0       7.768   8.758  90.340  0.00  0.00    -0.061 C 
HETATM   15  C   UNK     0       8.479   7.887  90.765  0.00  0.00    -0.061 C 
BRANCH  15  16
HETATM   16  C   UNK     0       9.323   6.850  91.270  0.00  0.00     0.018 A 
HETATM   17  C   UNK     0       9.493   6.700  92.647  0.00  0.00     0.022 A 
HETATM   18  C   UNK     0      10.315   5.686  93.141  0.00  0.00     0.018 A 
HETATM   19  C   UNK     0      10.947   4.847  92.248  0.00  0.00     0.032 A 
HETATM   20  C   UNK     0      10.796   4.974  90.884  0.00  0.00     0.018 A 
HETATM   21  C   UNK     0       9.975   5.988  90.389  0.00  0.00     0.022 A 
BRANCH  19  22
HETATM   22  C   UNK     0      11.824   3.769  92.775  0.00  0.00     0.252 C 
HETATM   23  O   UNK     0      11.435   2.604  92.732  0.00  0.00    -0.268 OA
HETATM   24  N   UNK     0      13.058   4.174  93.266  0.00  0.00    -0.341 N 
HETATM   25  H   UNK     0      13.321   5.152  93.246  0.00  0.00     0.163 HD
BRANCH  24  26
HETATM   26  C   UNK     0      14.028   3.245  93.787  0.00  0.00     0.207 C 
BRANCH  26  27
HETATM   27  C   UNK     0      14.092   1.940  92.984  0.00  0.00     0.146 C 
HETATM   28  C   UNK     0      14.860   2.097  91.676  0.00  0.00     0.042 C 
BRANCH  27  29
HETATM   29  O   UNK     0      14.717   0.926  93.770  0.00  0.00    -0.393 OA
HETATM   30  H   UNK     0      14.691   1.202  94.701  0.00  0.00     0.210 HD
ENDBRANCH  27  29
ENDBRANCH  26  27
BRANCH  26  31
HETATM   31  C   UNK     0      15.381   3.949  93.811  0.00  0.00     0.266 C 
HETATM   32  O   UNK     0      15.520   5.142  93.549  0.00  0.00    -0.269 OA
HETATM   33  N   UNK     0      16.407   3.089  94.119  0.00  0.00    -0.236 N 
HETATM   34  H   UNK     0      16.340   2.087  94.252  0.00  0.00     0.197 HD
BRANCH  33  35
HETATM   35  O   UNK     0      17.692   3.651  94.124  0.00  0.00    -0.287 OA
HETATM   36  H   UNK     0      17.526   4.462  94.633  0.00  0.00     0.244 HD
ENDBRANCH  33  35
ENDBRANCH  26  31
ENDBRANCH  24  26
ENDBRANCH  19  22
ENDBRANCH  15  16
ENDBRANCH  11  14
ENDBRANCH   7   8
ENDBRANCH   2   7
TORSDOF 10
ENDMDL
MODEL 6
REMARK VINA RESULT:      -5.0      1.900     12.418
REMARK  10 active torsions:
REMARK  status: ('A' for Active; 'I' for Inactive)
REMARK    1  A    between atoms: O_2  and  C_18 
REMARK    2  A    between atoms: O_5  and  N_8 
REMARK    3  A    between atoms: N_6  and  C_11 
REMARK    4  A    between atoms: N_7  and  C_15 
REMARK       I    between atoms: N_7  and  C_24 
REMARK       I    between atoms: N_8  and  C_23 
REMARK    5  A    between atoms: C_11  and  C_14 
REMARK    6  A    between atoms: C_15  and  C_18 
REMARK    7  A    between atoms: C_15  and  C_23 
REMARK    8  A    between atoms: C_21  and  C_26 
REMARK    9  A    between atoms: C_24  and  C_25 
REMARK   10  A    between atoms: C_29  and  C_32 
ROOT
HETATM    1  O   UNK     0       5.692  15.089  89.236  0.00  0.00    -0.388 OA
HETATM    2  N   UNK     0       3.601  13.277  89.905  0.00  0.00     0.096 N 
HETATM    3  C   UNK     0       3.998  14.361  90.814  0.00  0.00     0.299 C 
HETATM    4  C   UNK     0       4.749  12.859  89.090  0.00  0.00     0.299 C 
HETATM    5  C   UNK     0       4.573  15.525  90.011  0.00  0.00     0.198 C 
HETATM    6  C   UNK     0       5.307  14.057  88.328  0.00  0.00     0.198 C 
ENDROOT
BRANCH   2   7
HETATM    7  C   UNK     0       3.056  12.147  90.654  0.00  0.00     0.311 C 
BRANCH   7   8
HETATM    8  C   UNK     0       4.081  11.099  90.927  0.00  0.00    -0.030 A 
HETATM    9  C   UNK     0       5.020  11.291  91.942  0.00  0.00     0.010 A 
HETATM   10  C   UNK     0       5.981  10.313  92.197  0.00  0.00     0.021 A 
HETATM   11  C   UNK     0       6.001   9.143  91.439  0.00  0.00     0.018 A 
HETATM   12  C   UNK     0       5.064   8.950  90.426  0.00  0.00     0.021 A 
HETATM   13  C   UNK     0       4.104   9.928  90.170  0.00  0.00     0.010 A 
BRANCH  11  14
HETATM   14  C   UNK     0       6.986   8.139  91.702  0.00  0.00    -0.061 C 
HETATM   15  C   UNK     0       7.813   7.295  91.924  0.00  0.00    -0.061 C 
BRANCH  15  16
HETATM   16  C   UNK     0       8.797   6.293  92.186  0.00  0.00     0.018 A 
HETATM   17  C   UNK     0       9.001   5.260  91.270  0.00  0.00     0.022 A 
HETATM   18  C   UNK     0       9.963   4.283  91.524  0.00  0.00     0.018 A 
HETATM   19  C   UNK     0      10.700   4.359  92.687  0.00  0.00     0.032 A 
HETATM   20  C   UNK     0      10.518   5.369  93.609  0.00  0.00     0.018 A 
HETATM   21  C   UNK     0       9.556   6.346  93.355  0.00  0.00     0.022 A 
BRANCH  19  22
HETATM   22  C   UNK     0      11.723   3.317  92.959  0.00  0.00     0.252 C 
HETATM   23  O   UNK     0      11.442   2.136  92.766  0.00  0.00    -0.268 OA
HETATM   24  N   UNK     0      12.958   3.776  93.397  0.00  0.00    -0.341 N 
HETATM   25  H   UNK     0      13.125   4.769  93.509  0.00  0.00     0.163 HD
BRANCH  24  26
HETATM   26  C   UNK     0      14.059   2.890  93.679  0.00  0.00     0.207 C 
BRANCH  26  27
HETATM   27  C   UNK     0      14.234   1.802  92.612  0.00  0.00     0.146 C 
HETATM   28  C   UNK     0      15.069   2.275  91.427  0.00  0.00     0.042 C 
BRANCH  27  29
HETATM   29  O   UNK     0      14.860   0.659  93.194  0.00  0.00    -0.393 OA
HETATM   30  H   UNK     0      15.158   0.897  94.088  0.00  0.00     0.210 HD
ENDBRANCH  27  29
ENDBRANCH  26  27
BRANCH  26  31
HETATM   31  C   UNK     0      15.317   3.741  93.815  0.00  0.00     0.266 C 
HETATM   32  O   UNK     0      15.312   4.966  93.713  0.00  0.00    -0.269 OA
HETATM   33  N   UNK     0      16.440   2.977  94.024  0.00  0.00    -0.236 N 
HETATM   34  H   UNK     0      16.494   1.965  94.025  0.00  0.00     0.197 HD
BRANCH  33  35
HETATM   35  O   UNK     0      17.648   3.682  94.123  0.00  0.00    -0.287 OA
HETATM   36  H   UNK     0      17.427   4.308  94.833  0.00  0.00     0.244 HD
ENDBRANCH  33  35
ENDBRANCH  26  31
ENDBRANCH  24  26
ENDBRANCH  19  22
ENDBRANCH  15  16
ENDBRANCH  11  14
ENDBRANCH   7   8
ENDBRANCH   2   7
TORSDOF 10
ENDMDL
MODEL 7
REMARK VINA RESULT:      -4.9      2.283     12.557
REMARK  10 active torsions:
REMARK  status: ('A' for Active; 'I' for Inactive)
REMARK    1  A    between atoms: O_2  and  C_18 
REMARK    2  A    between atoms: O_5  and  N_8 
REMARK    3  A    between atoms: N_6  and  C_11 
REMARK    4  A    between atoms: N_7  and  C_15 
REMARK       I    between atoms: N_7  and  C_24 
REMARK       I    between atoms: N_8  and  C_23 
REMARK    5  A    between atoms: C_11  and  C_14 
REMARK    6  A    between atoms: C_15  and  C_18 
REMARK    7  A    between atoms: C_15  and  C_23 
REMARK    8  A    between atoms: C_21  and  C_26 
REMARK    9  A    between atoms: C_24  and  C_25 
REMARK   10  A    between atoms: C_29  and  C_32 
ROOT
HETATM    1  O   UNK     0       4.306  14.502  89.126  0.00  0.00    -0.388 OA
HETATM    2  N   UNK     0       3.303  13.995  91.741  0.00  0.00     0.096 N 
HETATM    3  C   UNK     0       4.611  14.631  91.530  0.00  0.00     0.299 C 
HETATM    4  C   UNK     0       2.985  13.111  90.612  0.00  0.00     0.299 C 
HETATM    5  C   UNK     0       4.610  15.388  90.205  0.00  0.00     0.198 C 
HETATM    6  C   UNK     0       3.022  13.904  89.308  0.00  0.00     0.198 C 
ENDROOT
BRANCH   2   7
HETATM    7  C   UNK     0       3.285  13.254  93.001  0.00  0.00     0.311 C 
BRANCH   7   8
HETATM    8  C   UNK     0       4.250  12.118  93.006  0.00  0.00    -0.030 A 
HETATM    9  C   UNK     0       5.296  12.096  93.930  0.00  0.00     0.010 A 
HETATM   10  C   UNK     0       6.200  11.034  93.933  0.00  0.00     0.021 A 
HETATM   11  C   UNK     0       6.057   9.994  93.016  0.00  0.00     0.018 A 
HETATM   12  C   UNK     0       5.013  10.015  92.093  0.00  0.00     0.021 A 
HETATM   13  C   UNK     0       4.109  11.077  92.088  0.00  0.00     0.010 A 
BRANCH  11  14
HETATM   14  C   UNK     0       6.984   8.904  93.021  0.00  0.00    -0.061 C 
HETATM   15  C   UNK     0       7.763   7.988  93.026  0.00  0.00    -0.061 C 
BRANCH  15  16
HETATM   16  C   UNK     0       8.689   6.900  93.030  0.00  0.00     0.018 A 
HETATM   17  C   UNK     0       9.657   6.813  94.032  0.00  0.00     0.022 A 
HETATM   18  C   UNK     0      10.560   5.750  94.037  0.00  0.00     0.018 A 
HETATM   19  C   UNK     0      10.474   4.797  93.044  0.00  0.00     0.032 A 
HETATM   20  C   UNK     0       9.528   4.860  92.043  0.00  0.00     0.018 A 
HETATM   21  C   UNK     0       8.625   5.924  92.036  0.00  0.00     0.022 A 
BRANCH  19  22
HETATM   22  C   UNK     0      11.438   3.666  93.049  0.00  0.00     0.252 C 
HETATM   23  O   UNK     0      11.058   2.553  92.693  0.00  0.00    -0.268 OA
HETATM   24  N   UNK     0      12.733   3.972  93.445  0.00  0.00    -0.341 N 
HETATM   25  H   UNK     0      12.980   4.920  93.702  0.00  0.00     0.163 HD
BRANCH  24  26
HETATM   26  C   UNK     0      13.785   2.989  93.480  0.00  0.00     0.207 C 
BRANCH  26  27
HETATM   27  C   UNK     0      13.891   2.186  92.177  0.00  0.00     0.146 C 
HETATM   28  C   UNK     0      14.503   2.996  91.040  0.00  0.00     0.042 C 
BRANCH  27  29
HETATM   29  O   UNK     0      14.686   1.022  92.397  0.00  0.00    -0.393 OA
HETATM   30  H   UNK     0      14.628   0.786  93.338  0.00  0.00     0.210 HD
ENDBRANCH  27  29
ENDBRANCH  26  27
BRANCH  26  31
HETATM   31  C   UNK     0      15.090   3.715  93.791  0.00  0.00     0.266 C 
HETATM   32  O   UNK     0      15.163   4.935  93.922  0.00  0.00    -0.269 OA
HETATM   33  N   UNK     0      16.158   2.854  93.864  0.00  0.00    -0.236 N 
HETATM   34  H   UNK     0      16.150   1.859  93.674  0.00  0.00     0.197 HD
BRANCH  33  35
HETATM   35  O   UNK     0      17.405   3.447  94.110  0.00  0.00    -0.287 OA
HETATM   36  H   UNK     0      17.355   4.212  93.512  0.00  0.00     0.244 HD
ENDBRANCH  33  35
ENDBRANCH  26  31
ENDBRANCH  24  26
ENDBRANCH  19  22
ENDBRANCH  15  16
ENDBRANCH  11  14
ENDBRANCH   7   8
ENDBRANCH   2   7
TORSDOF 10
ENDMDL
MODEL 8
REMARK VINA RESULT:      -4.1      1.642     12.330
REMARK  10 active torsions:
REMARK  status: ('A' for Active; 'I' for Inactive)
REMARK    1  A    between atoms: O_2  and  C_18 
REMARK    2  A    between atoms: O_5  and  N_8 
REMARK    3  A    between atoms: N_6  and  C_11 
REMARK    4  A    between atoms: N_7  and  C_15 
REMARK       I    between atoms: N_7  and  C_24 
REMARK       I    between atoms: N_8  and  C_23 
REMARK    5  A    between atoms: C_11  and  C_14 
REMARK    6  A    between atoms: C_15  and  C_18 
REMARK    7  A    between atoms: C_15  and  C_23 
REMARK    8  A    between atoms: C_21  and  C_26 
REMARK    9  A    between atoms: C_24  and  C_25 
REMARK   10  A    between atoms: C_29  and  C_32 
ROOT
HETATM    1  O   UNK     0       4.321  13.999  90.692  0.00  0.00    -0.388 OA
HETATM    2  N   UNK     0       3.156  11.752  89.389  0.00  0.00     0.096 N 
HETATM    3  C   UNK     0       2.754  12.147  90.746  0.00  0.00     0.299 C 
HETATM    4  C   UNK     0       4.550  12.146  89.143  0.00  0.00     0.299 C 
HETATM    5  C   UNK     0       2.956  13.649  90.929  0.00  0.00     0.198 C 
HETATM    6  C   UNK     0       4.711  13.647  89.364  0.00  0.00     0.198 C 
ENDROOT
BRANCH   2   7
HETATM    7  C   UNK     0       2.981  10.314  89.194  0.00  0.00     0.311 C 
BRANCH   7   8
HETATM    8  C   UNK     0       4.206   9.540  89.544  0.00  0.00    -0.030 A 
HETATM    9  C   UNK     0       4.380   9.060  90.843  0.00  0.00     0.010 A 
HETATM   10  C   UNK     0       5.526   8.338  91.172  0.00  0.00     0.021 A 
HETATM   11  C   UNK     0       6.498   8.094  90.202  0.00  0.00     0.018 A 
HETATM   12  C   UNK     0       6.325   8.572  88.904  0.00  0.00     0.021 A 
HETATM   13  C   UNK     0       5.179   9.295  88.575  0.00  0.00     0.010 A 
BRANCH  11  14
HETATM   14  C   UNK     0       7.673   7.351  90.539  0.00  0.00    -0.061 C 
HETATM   15  C   UNK     0       8.661   6.727  90.822  0.00  0.00    -0.061 C 
BRANCH  15  16
HETATM   16  C   UNK     0       9.835   5.986  91.159  0.00  0.00     0.018 A 
HETATM   17  C   UNK     0      10.197   5.824  92.497  0.00  0.00     0.022 A 
HETATM   18  C   UNK     0      11.343   5.099  92.826  0.00  0.00     0.018 A 
HETATM   19  C   UNK     0      12.100   4.552  91.811  0.00  0.00     0.032 A 
HETATM   20  C   UNK     0      11.764   4.697  90.481  0.00  0.00     0.018 A 
HETATM   21  C   UNK     0      10.619   5.423  90.152  0.00  0.00     0.022 A 
BRANCH  19  22
HETATM   22  C   UNK     0      13.321   3.781  92.162  0.00  0.00     0.252 C 
HETATM   23  O   UNK     0      14.137   3.518  91.282  0.00  0.00    -0.268 OA
HETATM   24  N   UNK     0      13.456   3.431  93.498  0.00  0.00    -0.341 N 
HETATM   25  H   UNK     0      12.752   3.705  94.174  0.00  0.00     0.163 HD
BRANCH  24  26
HETATM   26  C   UNK     0      14.595   2.705  93.998  0.00  0.00     0.207 C 
BRANCH  26  27
HETATM   27  C   UNK     0      14.866   1.414  93.217  0.00  0.00     0.146 C 
HETATM   28  C   UNK     0      13.610   0.859  92.554  0.00  0.00     0.042 C 
BRANCH  27  29
HETATM   29  O   UNK     0      15.850   1.660  92.213  0.00  0.00    -0.393 OA
HETATM   30  H   UNK     0      15.820   2.604  91.983  0.00  0.00     0.210 HD
ENDBRANCH  27  29
ENDBRANCH  26  27
BRANCH  26  31
HETATM   31  C   UNK     0      15.799   3.641  93.957  0.00  0.00     0.266 C 
HETATM   32  O   UNK     0      16.955   3.253  94.113  0.00  0.00    -0.269 OA
HETATM   33  N   UNK     0      15.432   4.951  93.765  0.00  0.00    -0.236 N 
HETATM   34  H   UNK     0      14.487   5.316  93.722  0.00  0.00     0.197 HD
BRANCH  33  35
HETATM   35  O   UNK     0      16.479   5.883  93.752  0.00  0.00    -0.287 OA
HETATM   36  H   UNK     0      16.682   5.930  94.702  0.00  0.00     0.244 HD
ENDBRANCH  33  35
ENDBRANCH  26  31
ENDBRANCH  24  26
ENDBRANCH  19  22
ENDBRANCH  15  16
ENDBRANCH  11  14
ENDBRANCH   7   8
ENDBRANCH   2   7
TORSDOF 10
ENDMDL
MODEL 9
REMARK VINA RESULT:      -4.0      1.995      2.402
REMARK  10 active torsions:
REMARK  status: ('A' for Active; 'I' for Inactive)
REMARK    1  A    between atoms: O_2  and  C_18 
REMARK    2  A    between atoms: O_5  and  N_8 
REMARK    3  A    between atoms: N_6  and  C_11 
REMARK    4  A    between atoms: N_7  and  C_15 
REMARK       I    between atoms: N_7  and  C_24 
REMARK       I    between atoms: N_8  and  C_23 
REMARK    5  A    between atoms: C_11  and  C_14 
REMARK    6  A    between atoms: C_15  and  C_18 
REMARK    7  A    between atoms: C_15  and  C_23 
REMARK    8  A    between atoms: C_21  and  C_26 
REMARK    9  A    between atoms: C_24  and  C_25 
REMARK   10  A    between atoms: C_29  and  C_32 
ROOT
HETATM    1  O   UNK     0      15.760   3.520  90.935  0.00  0.00    -0.388 OA
HETATM    2  N   UNK     0      13.550   2.633  92.494  0.00  0.00     0.096 N 
HETATM    3  C   UNK     0      13.457   3.823  91.637  0.00  0.00     0.299 C 
HETATM    4  C   UNK     0      14.934   2.447  92.948  0.00  0.00     0.299 C 
HETATM    5  C   UNK     0      14.422   3.691  90.462  0.00  0.00     0.198 C 
HETATM    6  C   UNK     0      15.865   2.347  91.743  0.00  0.00     0.198 C 
ENDROOT
BRANCH   2   7
HETATM    7  C   UNK     0      12.640   2.743  93.633  0.00  0.00     0.311 C 
BRANCH   7   8
HETATM    8  C   UNK     0      11.511   3.681  93.370  0.00  0.00    -0.030 A 
HETATM    9  C   UNK     0      10.584   3.391  92.369  0.00  0.00     0.010 A 
HETATM   10  C   UNK     0       9.529   4.268  92.121  0.00  0.00     0.021 A 
HETATM   11  C   UNK     0       9.401   5.434  92.875  0.00  0.00     0.018 A 
HETATM   12  C   UNK     0      10.326   5.725  93.875  0.00  0.00     0.021 A 
HETATM   13  C   UNK     0      11.382   4.848  94.123  0.00  0.00     0.010 A 
BRANCH  11  14
HETATM   14  C   UNK     0       8.317   6.333  92.621  0.00  0.00    -0.061 C 
HETATM   15  C   UNK     0       7.406   7.089  92.408  0.00  0.00    -0.061 C 
BRANCH  15  16
HETATM   16  C   UNK     0       6.325   7.988  92.155  0.00  0.00     0.018 A 
HETATM   17  C   UNK     0       6.191   9.148  92.919  0.00  0.00     0.022 A 
HETATM   18  C   UNK     0       5.136  10.027  92.671  0.00  0.00     0.018 A 
HETATM   19  C   UNK     0       4.241   9.728  91.666  0.00  0.00     0.032 A 
HETATM   20  C   UNK     0       4.351   8.588  90.897  0.00  0.00     0.018 A 
HETATM   21  C   UNK     0       5.405   7.708  91.145  0.00  0.00     0.022 A 
BRANCH  19  22
HETATM   22  C   UNK     0       3.117  10.664  91.403  0.00  0.00     0.252 C 
HETATM   23  O   UNK     0       2.103  10.243  90.851  0.00  0.00    -0.268 OA
HETATM   24  N   UNK     0       3.299  11.969  91.837  0.00  0.00    -0.341 N 
HETATM   25  H   UNK     0       4.154  12.238  92.309  0.00  0.00     0.163 HD
BRANCH  24  26
HETATM   26  C   UNK     0       2.291  12.987  91.678  0.00  0.00     0.207 C 
BRANCH  26  27
HETATM   27  C   UNK     0       1.865  13.614  93.011  0.00  0.00     0.146 C 
HETATM   28  C   UNK     0       2.912  13.430  94.104  0.00  0.00     0.042 C 
BRANCH  27  29
HETATM   29  O   UNK     0       1.627  15.010  92.828  0.00  0.00    -0.393 OA
HETATM   30  H   UNK     0       2.196  15.500  93.445  0.00  0.00     0.210 HD
ENDBRANCH  27  29
ENDBRANCH  26  27
BRANCH  26  31
HETATM   31  C   UNK     0       2.840  14.039  90.720  0.00  0.00     0.266 C 
HETATM   32  O   UNK     0       2.172  14.534  89.814  0.00  0.00    -0.269 OA
HETATM   33  N   UNK     0       4.160  14.330  90.968  0.00  0.00    -0.236 N 
HETATM   34  H   UNK     0       4.763  13.878  91.646  0.00  0.00     0.197 HD
BRANCH  33  35
HETATM   35  O   UNK     0       4.752  15.262  90.105  0.00  0.00    -0.287 OA
HETATM   36  H   UNK     0       5.364  14.685  89.618  0.00  0.00     0.244 HD
ENDBRANCH  33  35
ENDBRANCH  26  31
ENDBRANCH  24  26
ENDBRANCH  19  22
ENDBRANCH  15  16
ENDBRANCH  11  14
ENDBRANCH   7   8
ENDBRANCH   2   7
TORSDOF 10
ENDMDL
