MODEL 1
REMARK VINA RESULT:      -6.9      0.000      0.000
REMARK  10 active torsions:
REMARK  status: ('A' for Active; 'I' for Inactive)
REMARK    1  A    between atoms: O_2  and  C_16 
REMARK    2  A    between atoms: N_5  and  C_9 
REMARK    3  A    between atoms: N_6  and  C_13 
REMARK       I    between atoms: N_6  and  C_22 
REMARK    4  A    between atoms: C_9  and  C_12 
REMARK    5  A    between atoms: C_13  and  C_16 
REMARK    6  A    between atoms: C_13  and  C_21 
REMARK    7  A    between atoms: C_19  and  C_24 
REMARK    8  A    between atoms: C_22  and  C_23 
REMARK    9  A    between atoms: C_27  and  C_30 
REMARK   10  A    between atoms: N_33  and  S_34 
ROOT
HETATM    1  C   UNL     1       5.941  11.234  89.582  1.00  0.00     0.056 A 
HETATM    2  C   UNL     1       7.279  11.311  89.256  1.00  0.00     0.005 A 
HETATM    3  C   UNL     1       5.391  10.118  90.176  1.00  0.00     0.005 A 
HETATM    4  C   UNL     1       7.572   9.080  90.135  1.00  0.00     0.042 A 
HETATM    5  C   UNL     1       8.105  10.221  89.535  1.00  0.00     0.008 A 
HETATM    6  C   UNL     1       6.216   9.028  90.456  1.00  0.00     0.008 A 
ENDROOT
BRANCH   1   7
HETATM    7  C   UNL     1       5.063  12.396  89.287  1.00  0.00     0.254 C 
HETATM    8  O   UNL     1       5.063  12.875  88.155  1.00  0.00    -0.268 OA
HETATM    9  N   UNL     1       4.273  12.843  90.337  1.00  0.00    -0.337 N 
HETATM   10  HN  UNL     1       4.308  12.382  91.238  1.00  0.00     0.164 HD
BRANCH   9  11
HETATM   11  C   UNL     1       3.352  13.943  90.200  1.00  0.00     0.172 C 
BRANCH  11  12
HETATM   12  C   UNL     1       1.994  13.665  90.855  1.00  0.00     0.136 C 
HETATM   13  C   UNL     1       2.087  12.643  91.983  1.00  0.00     0.034 C 
BRANCH  12  14
HETATM   14  O   UNL     1       1.456  14.880  91.374  1.00  0.00    -0.383 OA
HETATM   15  H   UNL     1       2.193  15.487  91.555  1.00  0.00     0.210 HD
ENDBRANCH  12  14
ENDBRANCH  11  12
BRANCH  11  16
HETATM   16  C   UNL     1       4.013  15.181  90.799  1.00  0.00     0.398 A 
HETATM   17  O   UNL     1       5.140  15.558  90.482  1.00  0.00    -0.136 OA
HETATM   18  N   UNL     1       4.966  15.625  91.990  1.00  0.00     0.142 N 
HETATM   19  HN  UNL     1       5.879  15.979  91.935  1.00  0.00     0.338 HD
BRANCH  18  20
HETATM   20  S   UNL     1       4.219  15.119  93.049  1.00  0.00     0.076 SA
HETATM   21  H   UNL     1       4.327  13.956  93.266  1.00  0.00     0.136 HD
ENDBRANCH  18  20
ENDBRANCH  11  16
ENDBRANCH   9  11
ENDBRANCH   1   7
BRANCH   4  22
HETATM   22  C   UNL     1       8.417   7.962  90.419  1.00  0.00    -0.059 C 
HETATM   23  C   UNL     1       9.129   7.023  90.657  1.00  0.00    -0.059 C 
BRANCH  23  24
HETATM   24  C   UNL     1       9.975   5.905  90.941  1.00  0.00     0.042 A 
HETATM   25  C   UNL     1      10.729   5.325  89.921  1.00  0.00     0.008 A 
HETATM   26  C   UNL     1      11.552   4.234  90.198  1.00  0.00    -0.002 A 
HETATM   27  C   UNL     1      11.623   3.724  91.495  1.00  0.00     0.011 A 
HETATM   28  C   UNL     1      10.868   4.306  92.514  1.00  0.00    -0.002 A 
HETATM   29  C   UNL     1      10.044   5.396  92.237  1.00  0.00     0.008 A 
BRANCH  27  30
HETATM   30  C   UNL     1      12.505   2.559  91.790  1.00  0.00     0.277 C 
BRANCH  30  31
HETATM   31  N   UNL     1      13.530   2.874  92.784  1.00  0.00     0.147 N 
HETATM   32  C   UNL     1      14.337   1.686  93.093  1.00  0.00     0.283 C 
HETATM   33  C   UNL     1      15.406   2.041  94.124  1.00  0.00     0.178 C 
HETATM   34  O   UNL     1      16.237   3.096  93.635  1.00  0.00    -0.350 OA
HETATM   35  C   UNL     1      15.463   4.265  93.362  1.00  0.00     0.178 C 
HETATM   36  C   UNL     1      14.396   3.964  92.314  1.00  0.00     0.283 C 
ENDBRANCH  30  31
ENDBRANCH  27  30
ENDBRANCH  23  24
ENDBRANCH   4  22
TORSDOF 10
ENDMDL
