MODEL 1
REMARK VINA RESULT:      -7.0      0.000      0.000
REMARK  10 active torsions:
REMARK  status: ('A' for Active; 'I' for Inactive)
REMARK    1  A    between atoms: O_2  and  C_18 
REMARK    2  A    between atoms: O_5  and  N_8 
REMARK    3  A    between atoms: N_6  and  C_11 
REMARK    4  A    between atoms: N_7  and  C_15 
REMARK       I    between atoms: N_7  and  C_24 
REMARK       I    between atoms: N_8  and  C_23 
REMARK    5  A    between atoms: C_11  and  C_14 
REMARK    6  A    between atoms: C_15  and  C_18 
REMARK    7  A    between atoms: C_15  and  C_23 
REMARK    8  A    between atoms: C_21  and  C_26 
REMARK    9  A    between atoms: C_24  and  C_25 
REMARK   10  A    between atoms: C_29  and  C_32 
ROOT
HETATM    1  O   UNK     0      16.587   4.309  94.049  0.00  0.00    -0.388 OA
HETATM    2  N   UNK     0      14.723   2.617  92.720  0.00  0.00     0.096 N 
HETATM    3  C   UNK     0      14.618   4.081  92.648  0.00  0.00     0.299 C 
HETATM    4  C   UNK     0      15.354   2.220  93.985  0.00  0.00     0.299 C 
HETATM    5  C   UNK     0      16.002   4.706  92.808  0.00  0.00     0.198 C 
HETATM    6  C   UNK     0      16.720   2.888  94.115  0.00  0.00     0.198 C 
ENDROOT
BRANCH   2   7
HETATM    7  C   UNK     0      13.406   1.997  92.580  0.00  0.00     0.311 C 
BRANCH   7   8
HETATM    8  C   UNK     0      12.338   2.994  92.282  0.00  0.00    -0.030 A 
HETATM    9  C   UNK     0      11.815   3.781  93.308  0.00  0.00     0.010 A 
HETATM   10  C   UNK     0      10.814   4.712  93.032  0.00  0.00     0.021 A 
HETATM   11  C   UNK     0      10.338   4.856  91.729  0.00  0.00     0.018 A 
HETATM   12  C   UNK     0      10.860   4.071  90.703  0.00  0.00     0.021 A 
HETATM   13  C   UNK     0      11.860   3.139  90.980  0.00  0.00     0.010 A 
BRANCH  11  14
HETATM   14  C   UNK     0       9.313   5.813  91.445  0.00  0.00    -0.061 C 
HETATM   15  C   UNK     0       8.451   6.617  91.206  0.00  0.00    -0.061 C 
BRANCH  15  16
HETATM   16  C   UNK     0       7.428   7.573  90.922  0.00  0.00     0.018 A 
HETATM   17  C   UNK     0       6.562   7.369  89.847  0.00  0.00     0.022 A 
HETATM   18  C   UNK     0       5.562   8.302  89.571  0.00  0.00     0.018 A 
HETATM   19  C   UNK     0       5.449   9.416  90.376  0.00  0.00     0.032 A 
HETATM   20  C   UNK     0       6.292   9.641  91.444  0.00  0.00     0.018 A 
HETATM   21  C   UNK     0       7.292   8.709  91.720  0.00  0.00     0.022 A 
BRANCH  19  22
HETATM   22  C   UNK     0       4.384  10.409  90.080  0.00  0.00     0.252 C 
HETATM   23  O   UNK     0       3.270  10.014  89.747  0.00  0.00    -0.268 OA
HETATM   24  N   UNK     0       4.739  11.743  90.232  0.00  0.00    -0.341 N 
HETATM   25  H   UNK     0       5.672  11.994  90.535  0.00  0.00     0.163 HD
BRANCH  24  26
HETATM   26  C   UNK     0       3.811  12.822  90.007  0.00  0.00     0.207 C 
BRANCH  26  27
HETATM   27  C   UNK     0       3.575  13.674  91.260  0.00  0.00     0.146 C 
HETATM   28  C   UNK     0       2.148  13.561  91.783  0.00  0.00     0.042 C 
BRANCH  27  29
HETATM   29  O   UNK     0       4.479  13.270  92.289  0.00  0.00    -0.393 OA
HETATM   30  H   UNK     0       4.448  13.933  92.999  0.00  0.00     0.210 HD
ENDBRANCH  27  29
ENDBRANCH  26  27
BRANCH  26  31
HETATM   31  C   UNK     0       4.349  13.666  88.856  0.00  0.00     0.266 C 
HETATM   32  O   UNK     0       4.631  14.857  88.974  0.00  0.00    -0.269 OA
HETATM   33  N   UNK     0       4.439  12.951  87.686  0.00  0.00    -0.236 N 
HETATM   34  H   UNK     0       4.133  11.998  87.532  0.00  0.00     0.197 HD
BRANCH  33  35
HETATM   35  O   UNK     0       4.890  13.666  86.567  0.00  0.00    -0.287 OA
HETATM   36  H   UNK     0       4.537  14.549  86.771  0.00  0.00     0.244 HD
ENDBRANCH  33  35
ENDBRANCH  26  31
ENDBRANCH  24  26
ENDBRANCH  19  22
ENDBRANCH  15  16
ENDBRANCH  11  14
ENDBRANCH   7   8
ENDBRANCH   2   7
TORSDOF 10
ENDMDL
