MODEL 1
REMARK VINA RESULT:      -6.2      0.000      0.000
REMARK  12 active torsions:
REMARK  status: ('A' for Active; 'I' for Inactive)
REMARK    1  A    between atoms: O_2  and  C_16 
REMARK    2  A    between atoms: N_5  and  C_9 
REMARK    3  A    between atoms: N_6  and  C_13 
REMARK       I    between atoms: N_6  and  C_22 
REMARK    4  A    between atoms: C_9  and  C_12 
REMARK    5  A    between atoms: C_13  and  C_16 
REMARK    6  A    between atoms: C_13  and  C_21 
REMARK    7  A    between atoms: C_19  and  C_24 
REMARK    8  A    between atoms: C_21  and  C_33 
REMARK    9  A    between atoms: C_22  and  C_23 
REMARK   10  A    between atoms: C_27  and  C_30 
REMARK   11  A    between atoms: C_33  and  C_34 
REMARK   12  A    between atoms: C_34  and  C_35 
ROOT
HETATM    1  O   UNL     1      16.884   3.835  94.008  1.00  0.00    -0.350 OA
HETATM    2  N   UNL     1      14.407   3.110  92.808  1.00  0.00     0.147 N 
HETATM    3  C   UNL     1      15.517   2.153  92.916  1.00  0.00     0.283 C 
HETATM    4  C   UNL     1      14.930   4.481  92.724  1.00  0.00     0.283 C 
HETATM    5  C   UNL     1      16.384   2.501  94.123  1.00  0.00     0.178 C 
HETATM    6  C   UNL     1      15.811   4.774  93.934  1.00  0.00     0.178 C 
ENDROOT
BRANCH   2   7
HETATM    7  C   UNL     1      13.568   2.802  91.652  1.00  0.00     0.277 C 
BRANCH   7   8
HETATM    8  C   UNL     1      12.366   3.680  91.572  1.00  0.00     0.011 A 
HETATM    9  C   UNL     1      11.966   4.204  90.342  1.00  0.00    -0.002 A 
HETATM   10  C   UNL     1      10.843   5.027  90.266  1.00  0.00     0.008 A 
HETATM   11  C   UNL     1      10.119   5.324  91.420  1.00  0.00     0.042 A 
HETATM   12  C   UNL     1      10.517   4.802  92.649  1.00  0.00     0.008 A 
HETATM   13  C   UNL     1      11.640   3.979  92.725  1.00  0.00    -0.002 A 
BRANCH  11  14
HETATM   14  C   UNL     1       8.965   6.167  91.342  1.00  0.00    -0.059 C 
HETATM   15  C   UNL     1       7.995   6.875  91.276  1.00  0.00    -0.059 C 
BRANCH  15  16
HETATM   16  C   UNL     1       6.842   7.716  91.198  1.00  0.00     0.042 A 
HETATM   17  C   UNL     1       5.891   7.503  90.200  1.00  0.00     0.008 A 
HETATM   18  C   UNL     1       4.764   8.323  90.126  1.00  0.00     0.005 A 
HETATM   19  C   UNL     1       4.614   9.335  91.051  1.00  0.00     0.056 A 
HETATM   20  C   UNL     1       5.540   9.565  92.047  1.00  0.00     0.005 A 
HETATM   21  C   UNL     1       6.667   8.747  92.122  1.00  0.00     0.008 A 
BRANCH  19  22
HETATM   22  C   UNL     1       3.415  10.208  90.971  1.00  0.00     0.254 C 
HETATM   23  O   UNL     1       2.370   9.752  90.514  1.00  0.00    -0.268 OA
HETATM   24  N   UNL     1       3.570  11.500  91.454  1.00  0.00    -0.335 N 
HETATM   25  HN  UNL     1       4.457  11.800  91.841  1.00  0.00     0.164 HD
BRANCH  24  26
HETATM   26  C   UNL     1       2.494  12.458  91.467  1.00  0.00     0.166 C 
BRANCH  26  27
HETATM   27  C   UNL     1       2.215  13.019  92.867  1.00  0.00     0.138 C 
HETATM   28  C   UNL     1       3.479  13.523  93.556  1.00  0.00     0.034 C 
BRANCH  27  29
HETATM   29  O   UNL     1       1.279  14.093  92.774  1.00  0.00    -0.383 OA
HETATM   30  H   UNL     1       0.712  14.072  93.563  1.00  0.00     0.210 HD
ENDBRANCH  27  29
ENDBRANCH  26  27
BRANCH  26  31
HETATM   31  C   UNL     1       2.847  13.569  90.484  1.00  0.00     0.181 C 
HETATM   32  O   UNL     1       2.109  14.527  90.263  1.00  0.00    -0.294 OA
BRANCH  31  33
HETATM   33  C   UNL     1       4.316  14.188  90.778  1.00  0.00     0.138 C 
BRANCH  33  34
HETATM   34  C   UNL     1       4.803  14.372  89.465  1.00  0.00     0.208 C 
HETATM   35  O   UNL     1       5.417  15.394  89.262  1.00  0.00    -0.289 OA
BRANCH  34  36
HETATM   36  C   UNL     1       4.957  13.476  88.442  1.00  0.00     0.194 C 
HETATM   37  O   UNL     1       5.417  12.155  88.458  1.00  0.00    -0.185 OA
ENDBRANCH  34  36
ENDBRANCH  33  34
ENDBRANCH  31  33
ENDBRANCH  26  31
ENDBRANCH  24  26
ENDBRANCH  19  22
ENDBRANCH  15  16
ENDBRANCH  11  14
ENDBRANCH   7   8
ENDBRANCH   2   7
TORSDOF 12
ENDMDL
MODEL 2
REMARK VINA RESULT:      -5.1      2.385     12.848
REMARK  12 active torsions:
REMARK  status: ('A' for Active; 'I' for Inactive)
REMARK    1  A    between atoms: O_2  and  C_16 
REMARK    2  A    between atoms: N_5  and  C_9 
REMARK    3  A    between atoms: N_6  and  C_13 
REMARK       I    between atoms: N_6  and  C_22 
REMARK    4  A    between atoms: C_9  and  C_12 
REMARK    5  A    between atoms: C_13  and  C_16 
REMARK    6  A    between atoms: C_13  and  C_21 
REMARK    7  A    between atoms: C_19  and  C_24 
REMARK    8  A    between atoms: C_21  and  C_33 
REMARK    9  A    between atoms: C_22  and  C_23 
REMARK   10  A    between atoms: C_27  and  C_30 
REMARK   11  A    between atoms: C_33  and  C_34 
REMARK   12  A    between atoms: C_34  and  C_35 
ROOT
HETATM    1  O   UNL     1       2.680  14.806  93.875  1.00  0.00    -0.350 OA
HETATM    2  N   UNL     1       2.633  14.548  91.041  1.00  0.00     0.147 N 
HETATM    3  C   UNL     1       1.530  14.052  91.875  1.00  0.00     0.283 C 
HETATM    4  C   UNL     1       3.893  14.507  91.796  1.00  0.00     0.283 C 
HETATM    5  C   UNL     1       1.445  14.872  93.160  1.00  0.00     0.178 C 
HETATM    6  C   UNL     1       3.753  15.315  93.082  1.00  0.00     0.178 C 
ENDROOT
BRANCH   2   7
HETATM    7  C   UNL     1       2.740  13.770  89.808  1.00  0.00     0.277 C 
BRANCH   7   8
HETATM    8  C   UNL     1       3.709  12.644  89.930  1.00  0.00     0.011 A 
HETATM    9  C   UNL     1       3.400  11.543  90.730  1.00  0.00    -0.002 A 
HETATM   10  C   UNL     1       4.307  10.489  90.847  1.00  0.00     0.008 A 
HETATM   11  C   UNL     1       5.520  10.536  90.161  1.00  0.00     0.042 A 
HETATM   12  C   UNL     1       5.829  11.634  89.361  1.00  0.00     0.008 A 
HETATM   13  C   UNL     1       4.924  12.688  89.245  1.00  0.00    -0.002 A 
BRANCH  11  14
HETATM   14  C   UNL     1       6.449   9.454  90.279  1.00  0.00    -0.059 C 
HETATM   15  C   UNL     1       7.229   8.544  90.378  1.00  0.00    -0.059 C 
BRANCH  15  16
HETATM   16  C   UNL     1       8.156   7.462  90.496  1.00  0.00     0.042 A 
HETATM   17  C   UNL     1       9.352   7.643  91.192  1.00  0.00     0.008 A 
HETATM   18  C   UNL     1      10.255   6.586  91.309  1.00  0.00     0.005 A 
HETATM   19  C   UNL     1       9.943   5.375  90.728  1.00  0.00     0.056 A 
HETATM   20  C   UNL     1       8.768   5.172  90.035  1.00  0.00     0.005 A 
HETATM   21  C   UNL     1       7.864   6.227  89.917  1.00  0.00     0.008 A 
BRANCH  19  22
HETATM   22  C   UNL     1      10.907   4.251  90.851  1.00  0.00     0.254 C 
HETATM   23  O   UNL     1      10.655   3.182  90.299  1.00  0.00    -0.268 OA
HETATM   24  N   UNL     1      12.058   4.513  91.580  1.00  0.00    -0.335 N 
HETATM   25  HN  UNL     1      12.210   5.429  91.987  1.00  0.00     0.164 HD
BRANCH  24  26
HETATM   26  C   UNL     1      13.098   3.534  91.768  1.00  0.00     0.166 C 
BRANCH  26  27
HETATM   27  C   UNL     1      14.418   3.933  91.098  1.00  0.00     0.138 C 
HETATM   28  C   UNL     1      14.828   2.966  89.993  1.00  0.00     0.034 C 
BRANCH  27  29
HETATM   29  O   UNL     1      14.296   5.243  90.546  1.00  0.00    -0.383 OA
HETATM   30  H   UNL     1      15.154   5.494  90.163  1.00  0.00     0.210 HD
ENDBRANCH  27  29
ENDBRANCH  26  27
BRANCH  26  31
HETATM   31  C   UNL     1      13.277   3.328  93.269  1.00  0.00     0.181 C 
HETATM   32  O   UNL     1      12.357   2.997  94.015  1.00  0.00    -0.294 OA
BRANCH  31  33
HETATM   33  C   UNL     1      14.507   2.323  93.596  1.00  0.00     0.138 C 
BRANCH  33  34
HETATM   34  C   UNL     1      15.543   3.241  93.878  1.00  0.00     0.208 C 
HETATM   35  O   UNL     1      16.666   2.872  93.623  1.00  0.00    -0.289 OA
BRANCH  34  36
HETATM   36  C   UNL     1      15.494   4.586  94.124  1.00  0.00     0.194 C 
HETATM   37  O   UNL     1      16.472   5.572  93.957  1.00  0.00    -0.185 OA
ENDBRANCH  34  36
ENDBRANCH  33  34
ENDBRANCH  31  33
ENDBRANCH  26  31
ENDBRANCH  24  26
ENDBRANCH  19  22
ENDBRANCH  15  16
ENDBRANCH  11  14
ENDBRANCH   7   8
ENDBRANCH   2   7
TORSDOF 12
ENDMDL
MODEL 3
REMARK VINA RESULT:      -4.8      2.946     12.350
REMARK  12 active torsions:
REMARK  status: ('A' for Active; 'I' for Inactive)
REMARK    1  A    between atoms: O_2  and  C_16 
REMARK    2  A    between atoms: N_5  and  C_9 
REMARK    3  A    between atoms: N_6  and  C_13 
REMARK       I    between atoms: N_6  and  C_22 
REMARK    4  A    between atoms: C_9  and  C_12 
REMARK    5  A    between atoms: C_13  and  C_16 
REMARK    6  A    between atoms: C_13  and  C_21 
REMARK    7  A    between atoms: C_19  and  C_24 
REMARK    8  A    between atoms: C_21  and  C_33 
REMARK    9  A    between atoms: C_22  and  C_23 
REMARK   10  A    between atoms: C_27  and  C_30 
REMARK   11  A    between atoms: C_33  and  C_34 
REMARK   12  A    between atoms: C_34  and  C_35 
ROOT
HETATM    1  O   UNL     1       3.220  14.925  94.045  1.00  0.00    -0.350 OA
HETATM    2  N   UNL     1       2.764  14.795  91.239  1.00  0.00     0.147 N 
HETATM    3  C   UNL     1       1.863  14.136  92.194  1.00  0.00     0.283 C 
HETATM    4  C   UNL     1       4.122  14.867  91.794  1.00  0.00     0.283 C 
HETATM    5  C   UNL     1       1.889  14.880  93.527  1.00  0.00     0.178 C 
HETATM    6  C   UNL     1       4.096  15.592  93.135  1.00  0.00     0.178 C 
ENDROOT
BRANCH   2   7
HETATM    7  C   UNL     1       2.762  14.093  89.957  1.00  0.00     0.277 C 
BRANCH   7   8
HETATM    8  C   UNL     1       3.750  12.977  89.920  1.00  0.00     0.011 A 
HETATM    9  C   UNL     1       3.438  11.751  90.509  1.00  0.00    -0.002 A 
HETATM   10  C   UNL     1       4.362  10.707  90.477  1.00  0.00     0.008 A 
HETATM   11  C   UNL     1       5.596  10.888  89.853  1.00  0.00     0.042 A 
HETATM   12  C   UNL     1       5.908  12.111  89.264  1.00  0.00     0.008 A 
HETATM   13  C   UNL     1       4.985  13.156  89.296  1.00  0.00    -0.002 A 
BRANCH  11  14
HETATM   14  C   UNL     1       6.543   9.816  89.819  1.00  0.00    -0.059 C 
HETATM   15  C   UNL     1       7.339   8.915  89.789  1.00  0.00    -0.059 C 
BRANCH  15  16
HETATM   16  C   UNL     1       8.286   7.845  89.753  1.00  0.00     0.042 A 
HETATM   17  C   UNL     1       7.998   6.639  90.394  1.00  0.00     0.008 A 
HETATM   18  C   UNL     1       8.921   5.594  90.358  1.00  0.00     0.005 A 
HETATM   19  C   UNL     1      10.109   5.777  89.681  1.00  0.00     0.056 A 
HETATM   20  C   UNL     1      10.417   6.959  89.040  1.00  0.00     0.005 A 
HETATM   21  C   UNL     1       9.495   8.005  89.076  1.00  0.00     0.008 A 
BRANCH  19  22
HETATM   22  C   UNL     1      11.093   4.664  89.644  1.00  0.00     0.254 C 
HETATM   23  O   UNL     1      11.213   4.004  88.615  1.00  0.00    -0.268 OA
HETATM   24  N   UNL     1      11.834   4.469  90.801  1.00  0.00    -0.335 N 
HETATM   25  HN  UNL     1      11.698   5.070  91.605  1.00  0.00     0.164 HD
BRANCH  24  26
HETATM   26  C   UNL     1      12.843   3.447  90.912  1.00  0.00     0.166 C 
BRANCH  26  27
HETATM   27  C   UNL     1      14.255   4.022  91.087  1.00  0.00     0.138 C 
HETATM   28  C   UNL     1      15.335   3.094  90.544  1.00  0.00     0.034 C 
BRANCH  27  29
HETATM   29  O   UNL     1      14.344   5.279  90.418  1.00  0.00    -0.383 OA
HETATM   30  H   UNL     1      14.619   5.117  89.500  1.00  0.00     0.210 HD
ENDBRANCH  27  29
ENDBRANCH  26  27
BRANCH  26  31
HETATM   31  C   UNL     1      12.464   2.543  92.080  1.00  0.00     0.181 C 
HETATM   32  O   UNL     1      12.999   1.455  92.287  1.00  0.00    -0.294 OA
BRANCH  31  33
HETATM   33  C   UNL     1      12.496   3.338  93.493  1.00  0.00     0.138 C 
BRANCH  33  34
HETATM   34  C   UNL     1      11.285   4.062  93.426  1.00  0.00     0.208 C 
HETATM   35  O   UNL     1      10.354   3.495  92.904  1.00  0.00    -0.289 OA
BRANCH  34  36
HETATM   36  C   UNL     1      10.884   5.184  94.098  1.00  0.00     0.194 C 
HETATM   37  O   UNL     1      10.099   6.261  93.672  1.00  0.00    -0.185 OA
ENDBRANCH  34  36
ENDBRANCH  33  34
ENDBRANCH  31  33
ENDBRANCH  26  31
ENDBRANCH  24  26
ENDBRANCH  19  22
ENDBRANCH  15  16
ENDBRANCH  11  14
ENDBRANCH   7   8
ENDBRANCH   2   7
TORSDOF 12
ENDMDL
MODEL 4
REMARK VINA RESULT:      -3.6      1.785      2.313
REMARK  12 active torsions:
REMARK  status: ('A' for Active; 'I' for Inactive)
REMARK    1  A    between atoms: O_2  and  C_16 
REMARK    2  A    between atoms: N_5  and  C_9 
REMARK    3  A    between atoms: N_6  and  C_13 
REMARK       I    between atoms: N_6  and  C_22 
REMARK    4  A    between atoms: C_9  and  C_12 
REMARK    5  A    between atoms: C_13  and  C_16 
REMARK    6  A    between atoms: C_13  and  C_21 
REMARK    7  A    between atoms: C_19  and  C_24 
REMARK    8  A    between atoms: C_21  and  C_33 
REMARK    9  A    between atoms: C_22  and  C_23 
REMARK   10  A    between atoms: C_27  and  C_30 
REMARK   11  A    between atoms: C_33  and  C_34 
REMARK   12  A    between atoms: C_34  and  C_35 
ROOT
HETATM    1  O   UNL     1      17.132   2.472  92.503  1.00  0.00    -0.350 OA
HETATM    2  N   UNL     1      14.331   2.836  92.855  1.00  0.00     0.147 N 
HETATM    3  C   UNL     1      15.229   2.634  94.000  1.00  0.00     0.283 C 
HETATM    4  C   UNL     1      14.876   2.169  91.664  1.00  0.00     0.283 C 
HETATM    5  C   UNL     1      16.626   3.144  93.658  1.00  0.00     0.178 C 
HETATM    6  C   UNL     1      16.281   2.689  91.377  1.00  0.00     0.178 C 
ENDROOT
BRANCH   2   7
HETATM    7  C   UNL     1      12.988   2.345  93.157  1.00  0.00     0.277 C 
BRANCH   7   8
HETATM    8  C   UNL     1      11.969   3.433  93.145  1.00  0.00     0.011 A 
HETATM    9  C   UNL     1      12.022   4.447  94.102  1.00  0.00    -0.002 A 
HETATM   10  C   UNL     1      11.068   5.465  94.093  1.00  0.00     0.008 A 
HETATM   11  C   UNL     1      10.063   5.468  93.126  1.00  0.00     0.042 A 
HETATM   12  C   UNL     1      10.009   4.456  92.170  1.00  0.00     0.008 A 
HETATM   13  C   UNL     1      10.962   3.438  92.179  1.00  0.00    -0.002 A 
BRANCH  11  14
HETATM   14  C   UNL     1       9.085   6.513  93.116  1.00  0.00    -0.059 C 
HETATM   15  C   UNL     1       8.264   7.391  93.107  1.00  0.00    -0.059 C 
BRANCH  15  16
HETATM   16  C   UNL     1       7.287   8.435  93.096  1.00  0.00     0.042 A 
HETATM   17  C   UNL     1       7.616   9.703  93.576  1.00  0.00     0.008 A 
HETATM   18  C   UNL     1       6.663  10.721  93.563  1.00  0.00     0.005 A 
HETATM   19  C   UNL     1       5.404  10.450  93.070  1.00  0.00     0.056 A 
HETATM   20  C   UNL     1       5.054   9.205  92.591  1.00  0.00     0.005 A 
HETATM   21  C   UNL     1       6.006   8.186  92.603  1.00  0.00     0.008 A 
BRANCH  19  22
HETATM   22  C   UNL     1       4.389  11.535  93.059  1.00  0.00     0.254 C 
HETATM   23  O   UNL     1       3.919  11.928  94.124  1.00  0.00    -0.268 OA
HETATM   24  N   UNL     1       4.062  12.048  91.811  1.00  0.00    -0.335 N 
HETATM   25  HN  UNL     1       4.510  11.690  90.976  1.00  0.00     0.164 HD
BRANCH  24  26
HETATM   26  C   UNL     1       3.114  13.119  91.638  1.00  0.00     0.166 C 
BRANCH  26  27
HETATM   27  C   UNL     1       3.458  14.358  92.473  1.00  0.00     0.138 C 
HETATM   28  C   UNL     1       2.399  14.664  93.527  1.00  0.00     0.034 C 
BRANCH  27  29
HETATM   29  O   UNL     1       4.714  14.163  93.121  1.00  0.00    -0.383 OA
HETATM   30  H   UNL     1       4.901  14.946  93.667  1.00  0.00     0.210 HD
ENDBRANCH  27  29
ENDBRANCH  26  27
BRANCH  26  31
HETATM   31  C   UNL     1       3.054  13.452  90.150  1.00  0.00     0.181 C 
HETATM   32  O   UNL     1       2.188  14.173  89.660  1.00  0.00    -0.294 OA
BRANCH  31  33
HETATM   33  C   UNL     1       4.473  14.012  89.602  1.00  0.00     0.138 C 
BRANCH  33  34
HETATM   34  C   UNL     1       4.810  13.022  88.653  1.00  0.00     0.208 C 
HETATM   35  O   UNL     1       4.970  13.406  87.517  1.00  0.00    -0.289 OA
BRANCH  34  36
HETATM   36  C   UNL     1       5.269  11.745  88.828  1.00  0.00     0.194 C 
HETATM   37  O   UNL     1       6.204  11.237  89.737  1.00  0.00    -0.185 OA
ENDBRANCH  34  36
ENDBRANCH  33  34
ENDBRANCH  31  33
ENDBRANCH  26  31
ENDBRANCH  24  26
ENDBRANCH  19  22
ENDBRANCH  15  16
ENDBRANCH  11  14
ENDBRANCH   7   8
ENDBRANCH   2   7
TORSDOF 12
ENDMDL
MODEL 5
REMARK VINA RESULT:      -3.5      2.098      3.164
REMARK  12 active torsions:
REMARK  status: ('A' for Active; 'I' for Inactive)
REMARK    1  A    between atoms: O_2  and  C_16 
REMARK    2  A    between atoms: N_5  and  C_9 
REMARK    3  A    between atoms: N_6  and  C_13 
REMARK       I    between atoms: N_6  and  C_22 
REMARK    4  A    between atoms: C_9  and  C_12 
REMARK    5  A    between atoms: C_13  and  C_16 
REMARK    6  A    between atoms: C_13  and  C_21 
REMARK    7  A    between atoms: C_19  and  C_24 
REMARK    8  A    between atoms: C_21  and  C_33 
REMARK    9  A    between atoms: C_22  and  C_23 
REMARK   10  A    between atoms: C_27  and  C_30 
REMARK   11  A    between atoms: C_33  and  C_34 
REMARK   12  A    between atoms: C_34  and  C_35 
ROOT
HETATM    1  O   UNL     1      17.201   4.166  93.058  1.00  0.00    -0.350 OA
HETATM    2  N   UNL     1      14.966   2.464  93.516  1.00  0.00     0.147 N 
HETATM    3  C   UNL     1      15.930   2.193  92.440  1.00  0.00     0.283 C 
HETATM    4  C   UNL     1      14.900   3.907  93.782  1.00  0.00     0.283 C 
HETATM    5  C   UNL     1      17.296   2.762  92.815  1.00  0.00     0.178 C 
HETATM    6  C   UNL     1      16.289   4.435  94.124  1.00  0.00     0.178 C 
ENDROOT
BRANCH   2   7
HETATM    7  C   UNL     1      13.646   1.937  93.173  1.00  0.00     0.277 C 
BRANCH   7   8
HETATM    8  C   UNL     1      12.648   3.018  92.935  1.00  0.00     0.011 A 
HETATM    9  C   UNL     1      12.177   3.259  91.644  1.00  0.00    -0.002 A 
HETATM   10  C   UNL     1      11.245   4.272  91.419  1.00  0.00     0.008 A 
HETATM   11  C   UNL     1      10.781   5.041  92.486  1.00  0.00     0.042 A 
HETATM   12  C   UNL     1      11.250   4.800  93.776  1.00  0.00     0.008 A 
HETATM   13  C   UNL     1      12.184   3.788  94.001  1.00  0.00    -0.002 A 
BRANCH  11  14
HETATM   14  C   UNL     1       9.823   6.078  92.256  1.00  0.00    -0.059 C 
HETATM   15  C   UNL     1       9.018   6.949  92.064  1.00  0.00    -0.059 C 
BRANCH  15  16
HETATM   16  C   UNL     1       8.061   7.987  91.834  1.00  0.00     0.042 A 
HETATM   17  C   UNL     1       7.030   8.199  92.751  1.00  0.00     0.008 A 
HETATM   18  C   UNL     1       6.098   9.212  92.528  1.00  0.00     0.005 A 
HETATM   19  C   UNL     1       6.218   9.990  91.395  1.00  0.00     0.056 A 
HETATM   20  C   UNL     1       7.226   9.800  90.475  1.00  0.00     0.005 A 
HETATM   21  C   UNL     1       8.159   8.787  90.696  1.00  0.00     0.008 A 
BRANCH  19  22
HETATM   22  C   UNL     1       5.223  11.069  91.158  1.00  0.00     0.254 C 
HETATM   23  O   UNL     1       4.794  11.710  92.113  1.00  0.00    -0.268 OA
HETATM   24  N   UNL     1       4.867  11.286  89.834  1.00  0.00    -0.335 N 
HETATM   25  HN  UNL     1       5.283  10.733  89.094  1.00  0.00     0.164 HD
BRANCH  24  26
HETATM   26  C   UNL     1       3.934  12.311  89.440  1.00  0.00     0.166 C 
BRANCH  26  27
HETATM   27  C   UNL     1       4.490  13.231  88.345  1.00  0.00     0.138 C 
HETATM   28  C   UNL     1       5.852  13.812  88.706  1.00  0.00     0.034 C 
BRANCH  27  29
HETATM   29  O   UNL     1       4.606  12.501  87.123  1.00  0.00    -0.383 OA
HETATM   30  H   UNL     1       3.763  12.572  86.645  1.00  0.00     0.210 HD
ENDBRANCH  27  29
ENDBRANCH  26  27
BRANCH  26  31
HETATM   31  C   UNL     1       2.650  11.624  88.989  1.00  0.00     0.181 C 
HETATM   32  O   UNL     1       2.219  11.698  87.839  1.00  0.00    -0.294 OA
BRANCH  31  33
HETATM   33  C   UNL     1       2.643  10.049  89.373  1.00  0.00     0.138 C 
BRANCH  33  34
HETATM   34  C   UNL     1       3.125   9.473  88.176  1.00  0.00     0.208 C 
HETATM   35  O   UNL     1       4.190   9.888  87.778  1.00  0.00    -0.289 OA
BRANCH  34  36
HETATM   36  C   UNL     1       2.751   8.328  87.529  1.00  0.00     0.194 C 
HETATM   37  O   UNL     1       3.531   7.306  86.976  1.00  0.00    -0.185 OA
ENDBRANCH  34  36
ENDBRANCH  33  34
ENDBRANCH  31  33
ENDBRANCH  26  31
ENDBRANCH  24  26
ENDBRANCH  19  22
ENDBRANCH  15  16
ENDBRANCH  11  14
ENDBRANCH   7   8
ENDBRANCH   2   7
TORSDOF 12
ENDMDL
