MODEL 1
REMARK VINA RESULT:      -6.1      0.000      0.000
REMARK  12 active torsions:
REMARK  status: ('A' for Active; 'I' for Inactive)
REMARK    1  A    between atoms: O_2  and  C_16 
REMARK    2  A    between atoms: N_5  and  C_9 
REMARK    3  A    between atoms: N_6  and  C_13 
REMARK       I    between atoms: N_6  and  C_22 
REMARK    4  A    between atoms: C_9  and  C_12 
REMARK    5  A    between atoms: C_13  and  C_16 
REMARK    6  A    between atoms: C_13  and  C_21 
REMARK    7  A    between atoms: C_19  and  C_24 
REMARK    8  A    between atoms: C_21  and  C_33 
REMARK    9  A    between atoms: C_22  and  C_23 
REMARK   10  A    between atoms: C_27  and  C_30 
REMARK   11  A    between atoms: C_33  and  C_34 
REMARK   12  A    between atoms: C_34  and  C_35 
ROOT
HETATM    1  O   UNL     1      16.588   3.268  93.749  1.00  0.00    -0.350 OA
HETATM    2  N   UNL     1      13.980   2.884  92.678  1.00  0.00     0.147 N 
HETATM    3  C   UNL     1      14.854   1.746  92.996  1.00  0.00     0.283 C 
HETATM    4  C   UNL     1      14.790   4.058  92.327  1.00  0.00     0.283 C 
HETATM    5  C   UNL     1      15.810   2.129  94.123  1.00  0.00     0.178 C 
HETATM    6  C   UNL     1      15.747   4.387  93.468  1.00  0.00     0.178 C 
ENDROOT
BRANCH   2   7
HETATM    7  C   UNL     1      13.062   2.542  91.592  1.00  0.00     0.277 C 
BRANCH   7   8
HETATM    8  C   UNL     1      11.901   3.475  91.516  1.00  0.00     0.011 A 
HETATM    9  C   UNL     1      11.131   3.722  92.653  1.00  0.00    -0.002 A 
HETATM   10  C   UNL     1      10.043   4.592  92.583  1.00  0.00     0.008 A 
HETATM   11  C   UNL     1       9.727   5.216  91.376  1.00  0.00     0.042 A 
HETATM   12  C   UNL     1      10.496   4.970  90.240  1.00  0.00     0.008 A 
HETATM   13  C   UNL     1      11.583   4.099  90.310  1.00  0.00    -0.002 A 
BRANCH  11  14
HETATM   14  C   UNL     1       8.613   6.110  91.304  1.00  0.00    -0.059 C 
HETATM   15  C   UNL     1       7.676   6.862  91.245  1.00  0.00    -0.059 C 
BRANCH  15  16
HETATM   16  C   UNL     1       6.563   7.756  91.174  1.00  0.00     0.042 A 
HETATM   17  C   UNL     1       6.714   9.088  91.562  1.00  0.00     0.008 A 
HETATM   18  C   UNL     1       5.628   9.961  91.490  1.00  0.00     0.005 A 
HETATM   19  C   UNL     1       4.418   9.484  91.031  1.00  0.00     0.056 A 
HETATM   20  C   UNL     1       4.244   8.172  90.642  1.00  0.00     0.005 A 
HETATM   21  C   UNL     1       5.329   7.298  90.714  1.00  0.00     0.008 A 
BRANCH  19  22
HETATM   22  C   UNL     1       3.262  10.414  90.956  1.00  0.00     0.254 C 
HETATM   23  O   UNL     1       2.210  10.024  90.455  1.00  0.00    -0.268 OA
HETATM   24  N   UNL     1       3.462  11.677  91.496  1.00  0.00    -0.335 N 
HETATM   25  HN  UNL     1       4.351  11.920  91.917  1.00  0.00     0.164 HD
BRANCH  24  26
HETATM   26  C   UNL     1       2.429  12.682  91.521  1.00  0.00     0.166 C 
BRANCH  26  27
HETATM   27  C   UNL     1       2.221  13.284  92.916  1.00  0.00     0.138 C 
HETATM   28  C   UNL     1       3.522  13.399  93.703  1.00  0.00     0.034 C 
BRANCH  27  29
HETATM   29  O   UNL     1       1.637  14.581  92.794  1.00  0.00    -0.383 OA
HETATM   30  H   UNL     1       0.892  14.640  93.415  1.00  0.00     0.210 HD
ENDBRANCH  27  29
ENDBRANCH  26  27
BRANCH  26  31
HETATM   31  C   UNL     1       2.799  13.755  90.503  1.00  0.00     0.181 C 
HETATM   32  O   UNL     1       2.108  14.751  90.299  1.00  0.00    -0.294 OA
BRANCH  31  33
HETATM   33  C   UNL     1       4.313  14.293  90.718  1.00  0.00     0.138 C 
BRANCH  33  34
HETATM   34  C   UNL     1       4.791  14.302  89.388  1.00  0.00     0.208 C 
HETATM   35  O   UNL     1       4.956  15.392  88.890  1.00  0.00    -0.289 OA
BRANCH  34  36
HETATM   36  C   UNL     1       5.376  13.311  88.648  1.00  0.00     0.194 C 
HETATM   37  O   UNL     1       5.011  11.970  88.485  1.00  0.00    -0.185 OA
ENDBRANCH  34  36
ENDBRANCH  33  34
ENDBRANCH  31  33
ENDBRANCH  26  31
ENDBRANCH  24  26
ENDBRANCH  19  22
ENDBRANCH  15  16
ENDBRANCH  11  14
ENDBRANCH   7   8
ENDBRANCH   2   7
TORSDOF 12
ENDMDL
MODEL 2
REMARK VINA RESULT:      -5.8      1.420      1.925
REMARK  12 active torsions:
REMARK  status: ('A' for Active; 'I' for Inactive)
REMARK    1  A    between atoms: O_2  and  C_16 
REMARK    2  A    between atoms: N_5  and  C_9 
REMARK    3  A    between atoms: N_6  and  C_13 
REMARK       I    between atoms: N_6  and  C_22 
REMARK    4  A    between atoms: C_9  and  C_12 
REMARK    5  A    between atoms: C_13  and  C_16 
REMARK    6  A    between atoms: C_13  and  C_21 
REMARK    7  A    between atoms: C_19  and  C_24 
REMARK    8  A    between atoms: C_21  and  C_33 
REMARK    9  A    between atoms: C_22  and  C_23 
REMARK   10  A    between atoms: C_27  and  C_30 
REMARK   11  A    between atoms: C_33  and  C_34 
REMARK   12  A    between atoms: C_34  and  C_35 
ROOT
HETATM    1  O   UNL     1      16.620   4.479  94.033  1.00  0.00    -0.350 OA
HETATM    2  N   UNL     1      14.736   2.757  92.773  1.00  0.00     0.147 N 
HETATM    3  C   UNL     1      14.625   4.219  92.675  1.00  0.00     0.283 C 
HETATM    4  C   UNL     1      15.395   2.385  94.033  1.00  0.00     0.283 C 
HETATM    5  C   UNL     1      16.010   4.851  92.796  1.00  0.00     0.178 C 
HETATM    6  C   UNL     1      16.760   3.060  94.122  1.00  0.00     0.178 C 
ENDROOT
BRANCH   2   7
HETATM    7  C   UNL     1      13.420   2.130  92.670  1.00  0.00     0.277 C 
BRANCH   7   8
HETATM    8  C   UNL     1      12.315   3.130  92.638  1.00  0.00     0.011 A 
HETATM    9  C   UNL     1      12.023   3.883  93.776  1.00  0.00    -0.002 A 
HETATM   10  C   UNL     1      10.989   4.818  93.748  1.00  0.00     0.008 A 
HETATM   11  C   UNL     1      10.248   5.001  92.581  1.00  0.00     0.042 A 
HETATM   12  C   UNL     1      10.539   4.251  91.443  1.00  0.00     0.008 A 
HETATM   13  C   UNL     1      11.573   3.315  91.472  1.00  0.00    -0.002 A 
BRANCH  11  14
HETATM   14  C   UNL     1       9.188   5.962  92.551  1.00  0.00    -0.059 C 
HETATM   15  C   UNL     1       8.297   6.769  92.527  1.00  0.00    -0.059 C 
BRANCH  15  16
HETATM   16  C   UNL     1       7.239   7.730  92.498  1.00  0.00     0.042 A 
HETATM   17  C   UNL     1       6.010   7.394  91.929  1.00  0.00     0.008 A 
HETATM   18  C   UNL     1       4.976   8.331  91.904  1.00  0.00     0.005 A 
HETATM   19  C   UNL     1       5.194   9.579  92.447  1.00  0.00     0.056 A 
HETATM   20  C   UNL     1       6.400   9.935  93.015  1.00  0.00     0.005 A 
HETATM   21  C   UNL     1       7.434   8.999  93.041  1.00  0.00     0.008 A 
BRANCH  19  22
HETATM   22  C   UNL     1       4.093  10.577  92.418  1.00  0.00     0.254 C 
HETATM   23  O   UNL     1       2.977  10.250  92.814  1.00  0.00    -0.268 OA
HETATM   24  N   UNL     1       4.431  11.841  91.955  1.00  0.00    -0.335 N 
HETATM   25  HN  UNL     1       5.381  12.046  91.668  1.00  0.00     0.164 HD
BRANCH  24  26
HETATM   26  C   UNL     1       3.481  12.922  91.890  1.00  0.00     0.166 C 
BRANCH  26  27
HETATM   27  C   UNL     1       3.879  14.117  92.767  1.00  0.00     0.138 C 
HETATM   28  C   UNL     1       2.670  14.859  93.325  1.00  0.00     0.034 C 
BRANCH  27  29
HETATM   29  O   UNL     1       4.687  13.663  93.852  1.00  0.00    -0.383 OA
HETATM   30  H   UNL     1       5.006  14.441  94.340  1.00  0.00     0.210 HD
ENDBRANCH  27  29
ENDBRANCH  26  27
BRANCH  26  31
HETATM   31  C   UNL     1       3.340  13.331  90.427  1.00  0.00     0.181 C 
HETATM   32  O   UNL     1       2.618  14.255  90.056  1.00  0.00    -0.294 OA
BRANCH  31  33
HETATM   33  C   UNL     1       4.782  13.576  89.729  1.00  0.00     0.138 C 
BRANCH  33  34
HETATM   34  C   UNL     1       4.579  12.980  88.465  1.00  0.00     0.208 C 
HETATM   35  O   UNL     1       5.292  13.372  87.570  1.00  0.00    -0.289 OA
BRANCH  34  36
HETATM   36  C   UNL     1       3.917  11.833  88.121  1.00  0.00     0.194 C 
HETATM   37  O   UNL     1       4.413  10.577  87.753  1.00  0.00    -0.185 OA
ENDBRANCH  34  36
ENDBRANCH  33  34
ENDBRANCH  31  33
ENDBRANCH  26  31
ENDBRANCH  24  26
ENDBRANCH  19  22
ENDBRANCH  15  16
ENDBRANCH  11  14
ENDBRANCH   7   8
ENDBRANCH   2   7
TORSDOF 12
ENDMDL
MODEL 3
REMARK VINA RESULT:      -4.6      1.101      1.696
REMARK  12 active torsions:
REMARK  status: ('A' for Active; 'I' for Inactive)
REMARK    1  A    between atoms: O_2  and  C_16 
REMARK    2  A    between atoms: N_5  and  C_9 
REMARK    3  A    between atoms: N_6  and  C_13 
REMARK       I    between atoms: N_6  and  C_22 
REMARK    4  A    between atoms: C_9  and  C_12 
REMARK    5  A    between atoms: C_13  and  C_16 
REMARK    6  A    between atoms: C_13  and  C_21 
REMARK    7  A    between atoms: C_19  and  C_24 
REMARK    8  A    between atoms: C_21  and  C_33 
REMARK    9  A    between atoms: C_22  and  C_23 
REMARK   10  A    between atoms: C_27  and  C_30 
REMARK   11  A    between atoms: C_33  and  C_34 
REMARK   12  A    between atoms: C_34  and  C_35 
ROOT
HETATM    1  O   UNL     1      15.695   4.788  93.326  1.00  0.00    -0.350 OA
HETATM    2  N   UNL     1      13.982   2.770  92.279  1.00  0.00     0.147 N 
HETATM    3  C   UNL     1      14.017   4.122  91.704  1.00  0.00     0.283 C 
HETATM    4  C   UNL     1      14.327   2.821  93.707  1.00  0.00     0.283 C 
HETATM    5  C   UNL     1      15.392   4.745  91.931  1.00  0.00     0.178 C 
HETATM    6  C   UNL     1      15.693   3.475  93.886  1.00  0.00     0.178 C 
ENDROOT
BRANCH   2   7
HETATM    7  C   UNL     1      12.669   2.158  92.083  1.00  0.00     0.277 C 
BRANCH   7   8
HETATM    8  C   UNL     1      11.577   3.170  92.000  1.00  0.00     0.011 A 
HETATM    9  C   UNL     1      10.799   3.262  90.846  1.00  0.00    -0.002 A 
HETATM   10  C   UNL     1       9.779   4.209  90.767  1.00  0.00     0.008 A 
HETATM   11  C   UNL     1       9.536   5.063  91.843  1.00  0.00     0.042 A 
HETATM   12  C   UNL     1      10.312   4.971  92.996  1.00  0.00     0.008 A 
HETATM   13  C   UNL     1      11.333   4.024  93.075  1.00  0.00    -0.002 A 
BRANCH  11  14
HETATM   14  C   UNL     1       8.488   6.033  91.762  1.00  0.00    -0.059 C 
HETATM   15  C   UNL     1       7.606   6.848  91.694  1.00  0.00    -0.059 C 
BRANCH  15  16
HETATM   16  C   UNL     1       6.559   7.818  91.615  1.00  0.00     0.042 A 
HETATM   17  C   UNL     1       5.779   7.907  90.461  1.00  0.00     0.008 A 
HETATM   18  C   UNL     1       4.755   8.851  90.385  1.00  0.00     0.005 A 
HETATM   19  C   UNL     1       4.533   9.683  91.462  1.00  0.00     0.056 A 
HETATM   20  C   UNL     1       5.290   9.615  92.613  1.00  0.00     0.005 A 
HETATM   21  C   UNL     1       6.315   8.671  92.691  1.00  0.00     0.008 A 
BRANCH  19  22
HETATM   22  C   UNL     1       3.444  10.690  91.380  1.00  0.00     0.254 C 
HETATM   23  O   UNL     1       2.310  10.324  91.078  1.00  0.00    -0.268 OA
HETATM   24  N   UNL     1       3.799  11.997  91.682  1.00  0.00    -0.335 N 
HETATM   25  HN  UNL     1       4.751  12.221  91.948  1.00  0.00     0.164 HD
BRANCH  24  26
HETATM   26  C   UNL     1       2.851  13.081  91.670  1.00  0.00     0.166 C 
BRANCH  26  27
HETATM   27  C   UNL     1       2.806  13.845  93.000  1.00  0.00     0.138 C 
HETATM   28  C   UNL     1       2.174  13.028  94.121  1.00  0.00     0.034 C 
BRANCH  27  29
HETATM   29  O   UNL     1       4.130  14.214  93.384  1.00  0.00    -0.383 OA
HETATM   30  H   UNL     1       4.119  14.450  94.327  1.00  0.00     0.210 HD
ENDBRANCH  27  29
ENDBRANCH  26  27
BRANCH  26  31
HETATM   31  C   UNL     1       3.214  14.005  90.512  1.00  0.00     0.181 C 
HETATM   32  O   UNL     1       4.177  14.769  90.542  1.00  0.00    -0.294 OA
BRANCH  31  33
HETATM   33  C   UNL     1       3.318  13.200  89.109  1.00  0.00     0.138 C 
BRANCH  33  34
HETATM   34  C   UNL     1       4.670  13.422  88.766  1.00  0.00     0.208 C 
HETATM   35  O   UNL     1       4.937  14.521  88.337  1.00  0.00    -0.289 OA
BRANCH  34  36
HETATM   36  C   UNL     1       5.796  12.718  89.094  1.00  0.00     0.194 C 
HETATM   37  O   UNL     1       7.016  12.597  88.418  1.00  0.00    -0.185 OA
ENDBRANCH  34  36
ENDBRANCH  33  34
ENDBRANCH  31  33
ENDBRANCH  26  31
ENDBRANCH  24  26
ENDBRANCH  19  22
ENDBRANCH  15  16
ENDBRANCH  11  14
ENDBRANCH   7   8
ENDBRANCH   2   7
TORSDOF 12
ENDMDL
MODEL 4
REMARK VINA RESULT:      -3.5      1.925      2.807
REMARK  12 active torsions:
REMARK  status: ('A' for Active; 'I' for Inactive)
REMARK    1  A    between atoms: O_2  and  C_16 
REMARK    2  A    between atoms: N_5  and  C_9 
REMARK    3  A    between atoms: N_6  and  C_13 
REMARK       I    between atoms: N_6  and  C_22 
REMARK    4  A    between atoms: C_9  and  C_12 
REMARK    5  A    between atoms: C_13  and  C_16 
REMARK    6  A    between atoms: C_13  and  C_21 
REMARK    7  A    between atoms: C_19  and  C_24 
REMARK    8  A    between atoms: C_21  and  C_33 
REMARK    9  A    between atoms: C_22  and  C_23 
REMARK   10  A    between atoms: C_27  and  C_30 
REMARK   11  A    between atoms: C_33  and  C_34 
REMARK   12  A    between atoms: C_34  and  C_35 
ROOT
HETATM    1  O   UNL     1      16.833   3.926  92.888  1.00  0.00    -0.350 OA
HETATM    2  N   UNL     1      14.750   1.986  92.917  1.00  0.00     0.147 N 
HETATM    3  C   UNL     1      15.288   2.516  91.656  1.00  0.00     0.283 C 
HETATM    4  C   UNL     1      14.881   2.989  93.982  1.00  0.00     0.283 C 
HETATM    5  C   UNL     1      16.740   2.945  91.853  1.00  0.00     0.178 C 
HETATM    6  C   UNL     1      16.341   3.407  94.124  1.00  0.00     0.178 C 
ENDROOT
BRANCH   2   7
HETATM    7  C   UNL     1      13.356   1.578  92.754  1.00  0.00     0.277 C 
BRANCH   7   8
HETATM    8  C   UNL     1      12.431   2.744  92.658  1.00  0.00     0.011 A 
HETATM    9  C   UNL     1      12.125   3.486  93.800  1.00  0.00    -0.002 A 
HETATM   10  C   UNL     1      11.259   4.576  93.712  1.00  0.00     0.008 A 
HETATM   11  C   UNL     1      10.701   4.923  92.482  1.00  0.00     0.042 A 
HETATM   12  C   UNL     1      11.005   4.183  91.341  1.00  0.00     0.008 A 
HETATM   13  C   UNL     1      11.871   3.093  91.429  1.00  0.00    -0.002 A 
BRANCH  11  14
HETATM   14  C   UNL     1       9.813   6.042  92.391  1.00  0.00    -0.059 C 
HETATM   15  C   UNL     1       9.068   6.982  92.314  1.00  0.00    -0.059 C 
BRANCH  15  16
HETATM   16  C   UNL     1       8.181   8.100  92.223  1.00  0.00     0.042 A 
HETATM   17  C   UNL     1       8.297   8.997  91.161  1.00  0.00     0.008 A 
HETATM   18  C   UNL     1       7.430  10.086  91.071  1.00  0.00     0.005 A 
HETATM   19  C   UNL     1       6.466  10.253  92.043  1.00  0.00     0.056 A 
HETATM   20  C   UNL     1       6.331   9.380  93.103  1.00  0.00     0.005 A 
HETATM   21  C   UNL     1       7.198   8.291  93.194  1.00  0.00     0.008 A 
BRANCH  19  22
HETATM   22  C   UNL     1       5.544  11.414  91.948  1.00  0.00     0.254 C 
HETATM   23  O   UNL     1       5.038  11.863  92.973  1.00  0.00    -0.268 OA
HETATM   24  N   UNL     1       5.342  11.926  90.674  1.00  0.00    -0.335 N 
HETATM   25  HN  UNL     1       5.814  11.518  89.876  1.00  0.00     0.164 HD
BRANCH  24  26
HETATM   26  C   UNL     1       4.495  13.065  90.422  1.00  0.00     0.166 C 
BRANCH  26  27
HETATM   27  C   UNL     1       5.233  14.207  89.712  1.00  0.00     0.138 C 
HETATM   28  C   UNL     1       5.756  13.801  88.339  1.00  0.00     0.034 C 
BRANCH  27  29
HETATM   29  O   UNL     1       4.354  15.322  89.562  1.00  0.00    -0.383 OA
HETATM   30  H   UNL     1       4.768  16.095  89.982  1.00  0.00     0.210 HD
ENDBRANCH  27  29
ENDBRANCH  26  27
BRANCH  26  31
HETATM   31  C   UNL     1       3.300  12.584  89.605  1.00  0.00     0.181 C 
HETATM   32  O   UNL     1       2.301  13.274  89.410  1.00  0.00    -0.294 OA
BRANCH  31  33
HETATM   33  C   UNL     1       3.751  12.022  88.153  1.00  0.00     0.138 C 
BRANCH  33  34
HETATM   34  C   UNL     1       3.297  10.686  88.224  1.00  0.00     0.208 C 
HETATM   35  O   UNL     1       2.144  10.498  87.908  1.00  0.00    -0.289 OA
BRANCH  34  36
HETATM   36  C   UNL     1       3.997   9.515  88.313  1.00  0.00     0.194 C 
HETATM   37  O   UNL     1       5.362   9.291  88.523  1.00  0.00    -0.185 OA
ENDBRANCH  34  36
ENDBRANCH  33  34
ENDBRANCH  31  33
ENDBRANCH  26  31
ENDBRANCH  24  26
ENDBRANCH  19  22
ENDBRANCH  15  16
ENDBRANCH  11  14
ENDBRANCH   7   8
ENDBRANCH   2   7
TORSDOF 12
ENDMDL
MODEL 5
REMARK VINA RESULT:      -3.4      2.193      3.466
REMARK  12 active torsions:
REMARK  status: ('A' for Active; 'I' for Inactive)
REMARK    1  A    between atoms: O_2  and  C_16 
REMARK    2  A    between atoms: N_5  and  C_9 
REMARK    3  A    between atoms: N_6  and  C_13 
REMARK       I    between atoms: N_6  and  C_22 
REMARK    4  A    between atoms: C_9  and  C_12 
REMARK    5  A    between atoms: C_13  and  C_16 
REMARK    6  A    between atoms: C_13  and  C_21 
REMARK    7  A    between atoms: C_19  and  C_24 
REMARK    8  A    between atoms: C_21  and  C_33 
REMARK    9  A    between atoms: C_22  and  C_23 
REMARK   10  A    between atoms: C_27  and  C_30 
REMARK   11  A    between atoms: C_33  and  C_34 
REMARK   12  A    between atoms: C_34  and  C_35 
ROOT
HETATM    1  O   UNL     1      17.787   4.649  93.862  1.00  0.00    -0.350 OA
HETATM    2  N   UNL     1      15.498   3.075  93.241  1.00  0.00     0.147 N 
HETATM    3  C   UNL     1      15.422   4.540  93.327  1.00  0.00     0.283 C 
HETATM    4  C   UNL     1      16.560   2.573  94.124  1.00  0.00     0.283 C 
HETATM    5  C   UNL     1      16.779   5.149  92.982  1.00  0.00     0.178 C 
HETATM    6  C   UNL     1      17.888   3.228  93.761  1.00  0.00     0.178 C 
ENDROOT
BRANCH   2   7
HETATM    7  C   UNL     1      14.211   2.469  93.578  1.00  0.00     0.277 C 
BRANCH   7   8
HETATM    8  C   UNL     1      13.070   3.138  92.890  1.00  0.00     0.011 A 
HETATM    9  C   UNL     1      11.920   3.467  93.607  1.00  0.00    -0.002 A 
HETATM   10  C   UNL     1      10.851   4.090  92.964  1.00  0.00     0.008 A 
HETATM   11  C   UNL     1      10.935   4.387  91.603  1.00  0.00     0.042 A 
HETATM   12  C   UNL     1      12.083   4.059  90.886  1.00  0.00     0.008 A 
HETATM   13  C   UNL     1      13.152   3.435  91.529  1.00  0.00    -0.002 A 
BRANCH  11  14
HETATM   14  C   UNL     1       9.839   5.028  90.944  1.00  0.00    -0.059 C 
HETATM   15  C   UNL     1       8.919   5.568  90.389  1.00  0.00    -0.059 C 
BRANCH  15  16
HETATM   16  C   UNL     1       7.825   6.210  89.729  1.00  0.00     0.042 A 
HETATM   17  C   UNL     1       6.606   5.545  89.596  1.00  0.00     0.008 A 
HETATM   18  C   UNL     1       5.537   6.172  88.955  1.00  0.00     0.005 A 
HETATM   19  C   UNL     1       5.712   7.448  88.462  1.00  0.00     0.056 A 
HETATM   20  C   UNL     1       6.907   8.126  88.581  1.00  0.00     0.005 A 
HETATM   21  C   UNL     1       7.976   7.500  89.222  1.00  0.00     0.008 A 
BRANCH  19  22
HETATM   22  C   UNL     1       4.574   8.115  87.777  1.00  0.00     0.254 C 
HETATM   23  O   UNL     1       4.030   7.551  86.831  1.00  0.00    -0.268 OA
HETATM   24  N   UNL     1       4.192   9.346  88.291  1.00  0.00    -0.335 N 
HETATM   25  HN  UNL     1       4.674   9.740  89.091  1.00  0.00     0.164 HD
BRANCH  24  26
HETATM   26  C   UNL     1       3.092  10.104  87.751  1.00  0.00     0.166 C 
BRANCH  26  27
HETATM   27  C   UNL     1       1.726   9.572  88.202  1.00  0.00     0.138 C 
HETATM   28  C   UNL     1       1.268   8.371  87.382  1.00  0.00     0.034 C 
BRANCH  27  29
HETATM   29  O   UNL     1       1.791   9.196  89.578  1.00  0.00    -0.383 OA
HETATM   30  H   UNL     1       0.901   9.280  89.959  1.00  0.00     0.210 HD
ENDBRANCH  27  29
ENDBRANCH  26  27
BRANCH  26  31
HETATM   31  C   UNL     1       3.283  11.560  88.163  1.00  0.00     0.181 C 
HETATM   32  O   UNL     1       2.653  12.085  89.080  1.00  0.00    -0.294 OA
BRANCH  31  33
HETATM   33  C   UNL     1       4.843  11.912  88.429  1.00  0.00     0.138 C 
BRANCH  33  34
HETATM   34  C   UNL     1       4.768  13.292  88.716  1.00  0.00     0.208 C 
HETATM   35  O   UNL     1       5.083  14.041  87.820  1.00  0.00    -0.289 OA
BRANCH  34  36
HETATM   36  C   UNL     1       4.132  13.954  89.731  1.00  0.00     0.194 C 
HETATM   37  O   UNL     1       4.374  15.220  90.277  1.00  0.00    -0.185 OA
ENDBRANCH  34  36
ENDBRANCH  33  34
ENDBRANCH  31  33
ENDBRANCH  26  31
ENDBRANCH  24  26
ENDBRANCH  19  22
ENDBRANCH  15  16
ENDBRANCH  11  14
ENDBRANCH   7   8
ENDBRANCH   2   7
TORSDOF 12
ENDMDL
