MODEL 1
REMARK VINA RESULT:      -6.6      0.000      0.000
REMARK  14 active torsions:
REMARK  status: ('A' for Active; 'I' for Inactive)
REMARK    1  A    between atoms: O_2  and  C_18 
REMARK    2  A    between atoms: C_5  and  C_8 
REMARK    3  A    between atoms: C_5  and  O_35 
REMARK    4  A    between atoms: C_5  and  C_36 
REMARK    5  A    between atoms: N_6  and  C_11 
REMARK    6  A    between atoms: N_7  and  C_15 
REMARK       I    between atoms: N_7  and  C_24 
REMARK    7  A    between atoms: C_8  and  C_23 
REMARK    8  A    between atoms: C_11  and  C_14 
REMARK    9  A    between atoms: C_15  and  C_18 
REMARK   10  A    between atoms: C_15  and  C_23 
REMARK   11  A    between atoms: C_21  and  C_26 
REMARK   12  A    between atoms: C_24  and  C_25 
REMARK   13  A    between atoms: C_29  and  C_32 
REMARK   14  A    between atoms: C_36  and  O_39 
ROOT
HETATM    1  O   UNL     1      16.752   4.331  94.120  1.00  0.00    -0.350 OA
HETATM    2  N   UNL     1      14.867   2.735  92.705  1.00  0.00     0.147 N 
HETATM    3  C   UNL     1      14.729   4.196  92.786  1.00  0.00     0.283 C 
HETATM    4  C   UNL     1      15.562   2.229  93.896  1.00  0.00     0.283 C 
HETATM    5  C   UNL     1      16.105   4.837  92.951  1.00  0.00     0.178 C 
HETATM    6  C   UNL     1      16.917   2.915  94.036  1.00  0.00     0.178 C 
ENDROOT
BRANCH   2   7
HETATM    7  C   UNL     1      13.559   2.100  92.558  1.00  0.00     0.277 C 
BRANCH   7   8
HETATM    8  C   UNL     1      12.441   3.087  92.581  1.00  0.00     0.011 A 
HETATM    9  C   UNL     1      12.150   3.781  93.756  1.00  0.00    -0.002 A 
HETATM   10  C   UNL     1      11.104   4.703  93.780  1.00  0.00     0.008 A 
HETATM   11  C   UNL     1      10.351   4.931  92.628  1.00  0.00     0.042 A 
HETATM   12  C   UNL     1      10.641   4.239  91.455  1.00  0.00     0.008 A 
HETATM   13  C   UNL     1      11.687   3.316  91.431  1.00  0.00    -0.002 A 
BRANCH  11  14
HETATM   14  C   UNL     1       9.279   5.879  92.652  1.00  0.00    -0.059 C 
HETATM   15  C   UNL     1       8.378   6.675  92.672  1.00  0.00    -0.059 C 
BRANCH  15  16
HETATM   16  C   UNL     1       7.307   7.621  92.695  1.00  0.00     0.042 A 
HETATM   17  C   UNL     1       7.340   8.689  93.592  1.00  0.00     0.008 A 
HETATM   18  C   UNL     1       6.296   9.614  93.613  1.00  0.00     0.005 A 
HETATM   19  C   UNL     1       5.243   9.450  92.737  1.00  0.00     0.056 A 
HETATM   20  C   UNL     1       5.187   8.403  91.841  1.00  0.00     0.005 A 
HETATM   21  C   UNL     1       6.230   7.478  91.819  1.00  0.00     0.008 A 
BRANCH  19  22
HETATM   22  C   UNL     1       4.130  10.434  92.761  1.00  0.00     0.254 C 
HETATM   23  O   UNL     1       3.261  10.335  93.623  1.00  0.00    -0.268 OA
HETATM   24  N   UNL     1       4.177  11.429  91.794  1.00  0.00    -0.335 N 
HETATM   25  HN  UNL     1       4.940  11.462  91.128  1.00  0.00     0.164 HD
BRANCH  24  26
HETATM   26  C   UNL     1       3.184  12.469  91.702  1.00  0.00     0.169 C 
BRANCH  26  27
HETATM   27  C   UNL     1       3.395  13.583  92.735  1.00  0.00     0.138 C 
HETATM   28  C   UNL     1       4.498  14.554  92.329  1.00  0.00     0.034 C 
BRANCH  27  29
HETATM   29  O   UNL     1       2.178  14.309  92.909  1.00  0.00    -0.383 OA
HETATM   30  H   UNL     1       2.373  15.257  92.815  1.00  0.00     0.210 HD
ENDBRANCH  27  29
ENDBRANCH  26  27
BRANCH  26  31
HETATM   31  C   UNL     1       3.214  13.018  90.280  1.00  0.00     0.194 C 
HETATM   32  O   UNL     1       2.512  13.957  89.909  1.00  0.00    -0.289 OA
BRANCH  31  33
HETATM   33  C   UNL     1       4.079  12.320  89.472  1.00  0.00     0.053 C 
BRANCH  33  34
HETATM   34  C   UNL     1       3.575  11.946  88.218  1.00  0.00     0.220 C 
BRANCH  34  35
HETATM   35  O   UNL     1       4.458  12.176  87.370  1.00  0.00    -0.371 OA
HETATM   36  H   UNL     1       4.344  11.398  86.845  1.00  0.00     0.211 HD
ENDBRANCH  34  35
BRANCH  34  37
HETATM   37  C   UNL     1       3.122  10.617  88.170  1.00  0.00     0.185 C 
HETATM   38  O   UNL     1       4.272  10.416  87.546  1.00  0.00    -0.647 OA
BRANCH  37  39
HETATM   39  O   UNL     1       2.145  10.014  88.500  1.00  0.00    -0.774 OA
HETATM   40  H   UNL     1       1.316  10.712  88.837  1.00  0.00     0.167 HD
ENDBRANCH  37  39
ENDBRANCH  34  37
ENDBRANCH  33  34
ENDBRANCH  31  33
ENDBRANCH  26  31
ENDBRANCH  24  26
ENDBRANCH  19  22
ENDBRANCH  15  16
ENDBRANCH  11  14
ENDBRANCH   7   8
ENDBRANCH   2   7
TORSDOF 14
ENDMDL
MODEL 2
REMARK VINA RESULT:      -6.1      1.457      2.176
REMARK  14 active torsions:
REMARK  status: ('A' for Active; 'I' for Inactive)
REMARK    1  A    between atoms: O_2  and  C_18 
REMARK    2  A    between atoms: C_5  and  C_8 
REMARK    3  A    between atoms: C_5  and  O_35 
REMARK    4  A    between atoms: C_5  and  C_36 
REMARK    5  A    between atoms: N_6  and  C_11 
REMARK    6  A    between atoms: N_7  and  C_15 
REMARK       I    between atoms: N_7  and  C_24 
REMARK    7  A    between atoms: C_8  and  C_23 
REMARK    8  A    between atoms: C_11  and  C_14 
REMARK    9  A    between atoms: C_15  and  C_18 
REMARK   10  A    between atoms: C_15  and  C_23 
REMARK   11  A    between atoms: C_21  and  C_26 
REMARK   12  A    between atoms: C_24  and  C_25 
REMARK   13  A    between atoms: C_29  and  C_32 
REMARK   14  A    between atoms: C_36  and  O_39 
ROOT
HETATM    1  O   UNL     1      16.642   2.997  93.475  1.00  0.00    -0.350 OA
HETATM    2  N   UNL     1      13.822   2.838  93.119  1.00  0.00     0.147 N 
HETATM    3  C   UNL     1      14.643   1.632  93.294  1.00  0.00     0.283 C 
HETATM    4  C   UNL     1      14.618   3.902  92.491  1.00  0.00     0.283 C 
HETATM    5  C   UNL     1      15.886   1.967  94.115  1.00  0.00     0.178 C 
HETATM    6  C   UNL     1      15.860   4.183  93.330  1.00  0.00     0.178 C 
ENDROOT
BRANCH   2   7
HETATM    7  C   UNL     1      12.631   2.543  92.325  1.00  0.00     0.277 C 
BRANCH   7   8
HETATM    8  C   UNL     1      11.638   3.655  92.355  1.00  0.00     0.011 A 
HETATM    9  C   UNL     1      11.468   4.405  93.520  1.00  0.00    -0.002 A 
HETATM   10  C   UNL     1      10.538   5.444  93.550  1.00  0.00     0.008 A 
HETATM   11  C   UNL     1       9.781   5.734  92.415  1.00  0.00     0.042 A 
HETATM   12  C   UNL     1       9.951   4.986  91.252  1.00  0.00     0.008 A 
HETATM   13  C   UNL     1      10.880   3.946  91.221  1.00  0.00    -0.002 A 
BRANCH  11  14
HETATM   14  C   UNL     1       8.829   6.802  92.445  1.00  0.00    -0.059 C 
HETATM   15  C   UNL     1       8.028   7.698  92.470  1.00  0.00    -0.059 C 
BRANCH  15  16
HETATM   16  C   UNL     1       7.076   8.765  92.500  1.00  0.00     0.042 A 
HETATM   17  C   UNL     1       6.119   8.872  91.491  1.00  0.00     0.008 A 
HETATM   18  C   UNL     1       5.188   9.910  91.522  1.00  0.00     0.005 A 
HETATM   19  C   UNL     1       5.235  10.817  92.560  1.00  0.00     0.056 A 
HETATM   20  C   UNL     1       6.172  10.733  93.569  1.00  0.00     0.005 A 
HETATM   21  C   UNL     1       7.103   9.695  93.539  1.00  0.00     0.008 A 
BRANCH  19  22
HETATM   22  C   UNL     1       4.245  11.924  92.592  1.00  0.00     0.254 C 
HETATM   23  O   UNL     1       4.511  12.949  93.216  1.00  0.00    -0.268 OA
HETATM   24  N   UNL     1       3.076  11.715  91.874  1.00  0.00    -0.335 N 
HETATM   25  HN  UNL     1       2.936  10.852  91.361  1.00  0.00     0.164 HD
BRANCH  24  26
HETATM   26  C   UNL     1       2.031  12.704  91.788  1.00  0.00     0.169 C 
BRANCH  26  27
HETATM   27  C   UNL     1       1.406  13.027  93.151  1.00  0.00     0.138 C 
HETATM   28  C   UNL     1       1.490  11.856  94.124  1.00  0.00     0.034 C 
BRANCH  27  29
HETATM   29  O   UNL     1       2.068  14.154  93.724  1.00  0.00    -0.383 OA
HETATM   30  H   UNL     1       2.734  13.829  94.354  1.00  0.00     0.210 HD
ENDBRANCH  27  29
ENDBRANCH  26  27
BRANCH  26  31
HETATM   31  C   UNL     1       2.623  13.951  91.139  1.00  0.00     0.194 C 
HETATM   32  O   UNL     1       2.829  14.994  91.758  1.00  0.00    -0.289 OA
BRANCH  31  33
HETATM   33  C   UNL     1       2.854  13.778  89.796  1.00  0.00     0.053 C 
BRANCH  33  34
HETATM   34  C   UNL     1       4.186  13.920  89.383  1.00  0.00     0.220 C 
BRANCH  34  35
HETATM   35  O   UNL     1       4.916  13.673  90.362  1.00  0.00    -0.371 OA
HETATM   36  H   UNL     1       5.704  14.089  90.048  1.00  0.00     0.211 HD
ENDBRANCH  34  35
BRANCH  34  37
HETATM   37  C   UNL     1       4.512  13.136  88.263  1.00  0.00     0.185 C 
HETATM   38  O   UNL     1       4.365  12.137  89.119  1.00  0.00    -0.647 OA
BRANCH  37  39
HETATM   39  O   UNL     1       4.816  13.325  87.123  1.00  0.00    -0.774 OA
HETATM   40  H   UNL     1       5.109  14.406  86.941  1.00  0.00     0.167 HD
ENDBRANCH  37  39
ENDBRANCH  34  37
ENDBRANCH  33  34
ENDBRANCH  31  33
ENDBRANCH  26  31
ENDBRANCH  24  26
ENDBRANCH  19  22
ENDBRANCH  15  16
ENDBRANCH  11  14
ENDBRANCH   7   8
ENDBRANCH   2   7
TORSDOF 14
ENDMDL
MODEL 3
REMARK VINA RESULT:      -5.7      3.141     12.889
REMARK  14 active torsions:
REMARK  status: ('A' for Active; 'I' for Inactive)
REMARK    1  A    between atoms: O_2  and  C_18 
REMARK    2  A    between atoms: C_5  and  C_8 
REMARK    3  A    between atoms: C_5  and  O_35 
REMARK    4  A    between atoms: C_5  and  C_36 
REMARK    5  A    between atoms: N_6  and  C_11 
REMARK    6  A    between atoms: N_7  and  C_15 
REMARK       I    between atoms: N_7  and  C_24 
REMARK    7  A    between atoms: C_8  and  C_23 
REMARK    8  A    between atoms: C_11  and  C_14 
REMARK    9  A    between atoms: C_15  and  C_18 
REMARK   10  A    between atoms: C_15  and  C_23 
REMARK   11  A    between atoms: C_21  and  C_26 
REMARK   12  A    between atoms: C_24  and  C_25 
REMARK   13  A    between atoms: C_29  and  C_32 
REMARK   14  A    between atoms: C_36  and  O_39 
ROOT
HETATM    1  O   UNL     1       2.826  14.650  93.969  1.00  0.00    -0.350 OA
HETATM    2  N   UNL     1       2.551  14.641  91.136  1.00  0.00     0.147 N 
HETATM    3  C   UNL     1       1.608  13.919  92.001  1.00  0.00     0.283 C 
HETATM    4  C   UNL     1       3.870  14.716  91.781  1.00  0.00     0.283 C 
HETATM    5  C   UNL     1       1.532  14.600  93.365  1.00  0.00     0.178 C 
HETATM    6  C   UNL     1       3.741  15.377  93.149  1.00  0.00     0.178 C 
ENDROOT
BRANCH   2   7
HETATM    7  C   UNL     1       2.649  13.999  89.826  1.00  0.00     0.277 C 
BRANCH   7   8
HETATM    8  C   UNL     1       3.619  12.867  89.819  1.00  0.00     0.011 A 
HETATM    9  C   UNL     1       4.891  13.044  89.275  1.00  0.00    -0.002 A 
HETATM   10  C   UNL     1       5.799  11.985  89.266  1.00  0.00     0.008 A 
HETATM   11  C   UNL     1       5.434  10.751  89.803  1.00  0.00     0.042 A 
HETATM   12  C   UNL     1       4.164  10.573  90.346  1.00  0.00     0.008 A 
HETATM   13  C   UNL     1       3.256  11.632  90.355  1.00  0.00    -0.002 A 
BRANCH  11  14
HETATM   14  C   UNL     1       6.367   9.666  89.795  1.00  0.00    -0.059 C 
HETATM   15  C   UNL     1       7.150   8.754  89.788  1.00  0.00    -0.059 C 
BRANCH  15  16
HETATM   16  C   UNL     1       8.082   7.670  89.781  1.00  0.00     0.042 A 
HETATM   17  C   UNL     1       9.344   7.839  89.209  1.00  0.00     0.008 A 
HETATM   18  C   UNL     1      10.254   6.782  89.204  1.00  0.00     0.005 A 
HETATM   19  C   UNL     1       9.883   5.581  89.772  1.00  0.00     0.056 A 
HETATM   20  C   UNL     1       8.643   5.388  90.343  1.00  0.00     0.005 A 
HETATM   21  C   UNL     1       7.732   6.445  90.348  1.00  0.00     0.008 A 
BRANCH  19  22
HETATM   22  C   UNL     1      10.853   4.455  89.765  1.00  0.00     0.254 C 
HETATM   23  O   UNL     1      10.831   3.651  88.836  1.00  0.00    -0.268 OA
HETATM   24  N   UNL     1      11.745   4.415  90.827  1.00  0.00    -0.335 N 
HETATM   25  HN  UNL     1      11.720   5.128  91.545  1.00  0.00     0.164 HD
BRANCH  24  26
HETATM   26  C   UNL     1      12.760   3.399  90.948  1.00  0.00     0.169 C 
BRANCH  26  27
HETATM   27  C   UNL     1      14.175   3.942  90.708  1.00  0.00     0.138 C 
HETATM   28  C   UNL     1      14.904   3.197  89.596  1.00  0.00     0.034 C 
BRANCH  27  29
HETATM   29  O   UNL     1      14.104   5.327  90.370  1.00  0.00    -0.383 OA
HETATM   30  H   UNL     1      14.886   5.551  89.838  1.00  0.00     0.210 HD
ENDBRANCH  27  29
ENDBRANCH  26  27
BRANCH  26  31
HETATM   31  C   UNL     1      12.633   2.777  92.335  1.00  0.00     0.194 C 
HETATM   32  O   UNL     1      12.033   1.725  92.545  1.00  0.00    -0.289 OA
BRANCH  31  33
HETATM   33  C   UNL     1      13.227   3.547  93.306  1.00  0.00     0.053 C 
BRANCH  33  34
HETATM   34  C   UNL     1      14.351   2.985  93.927  1.00  0.00     0.220 C 
BRANCH  34  35
HETATM   35  O   UNL     1      14.530   1.853  93.438  1.00  0.00    -0.371 OA
HETATM   36  H   UNL     1      13.860   1.393  93.920  1.00  0.00     0.211 HD
ENDBRANCH  34  35
BRANCH  34  37
HETATM   37  C   UNL     1      15.500   3.790  93.842  1.00  0.00     0.185 C 
HETATM   38  O   UNL     1      16.046   2.683  93.363  1.00  0.00    -0.647 OA
BRANCH  37  39
HETATM   39  O   UNL     1      15.805   4.910  94.124  1.00  0.00    -0.774 OA
HETATM   40  H   UNL     1      15.367   5.225  95.122  1.00  0.00     0.167 HD
ENDBRANCH  37  39
ENDBRANCH  34  37
ENDBRANCH  33  34
ENDBRANCH  31  33
ENDBRANCH  26  31
ENDBRANCH  24  26
ENDBRANCH  19  22
ENDBRANCH  15  16
ENDBRANCH  11  14
ENDBRANCH   7   8
ENDBRANCH   2   7
TORSDOF 14
ENDMDL
MODEL 4
REMARK VINA RESULT:      -5.0      1.925      3.175
REMARK  14 active torsions:
REMARK  status: ('A' for Active; 'I' for Inactive)
REMARK    1  A    between atoms: O_2  and  C_18 
REMARK    2  A    between atoms: C_5  and  C_8 
REMARK    3  A    between atoms: C_5  and  O_35 
REMARK    4  A    between atoms: C_5  and  C_36 
REMARK    5  A    between atoms: N_6  and  C_11 
REMARK    6  A    between atoms: N_7  and  C_15 
REMARK       I    between atoms: N_7  and  C_24 
REMARK    7  A    between atoms: C_8  and  C_23 
REMARK    8  A    between atoms: C_11  and  C_14 
REMARK    9  A    between atoms: C_15  and  C_18 
REMARK   10  A    between atoms: C_15  and  C_23 
REMARK   11  A    between atoms: C_21  and  C_26 
REMARK   12  A    between atoms: C_24  and  C_25 
REMARK   13  A    between atoms: C_29  and  C_32 
REMARK   14  A    between atoms: C_36  and  O_39 
ROOT
HETATM    1  O   UNL     1      16.707   3.550  92.981  1.00  0.00    -0.350 OA
HETATM    2  N   UNL     1      14.419   1.860  92.869  1.00  0.00     0.147 N 
HETATM    3  C   UNL     1      14.862   2.631  91.700  1.00  0.00     0.283 C 
HETATM    4  C   UNL     1      14.800   2.557  94.106  1.00  0.00     0.283 C 
HETATM    5  C   UNL     1      16.369   2.864  91.774  1.00  0.00     0.178 C 
HETATM    6  C   UNL     1      16.307   2.792  94.124  1.00  0.00     0.178 C 
ENDROOT
BRANCH   2   7
HETATM    7  C   UNL     1      12.976   1.634  92.824  1.00  0.00     0.277 C 
BRANCH   7   8
HETATM    8  C   UNL     1      12.223   2.853  92.414  1.00  0.00     0.011 A 
HETATM    9  C   UNL     1      11.700   3.708  93.385  1.00  0.00    -0.002 A 
HETATM   10  C   UNL     1      10.993   4.848  93.003  1.00  0.00     0.008 A 
HETATM   11  C   UNL     1      10.812   5.134  91.650  1.00  0.00     0.042 A 
HETATM   12  C   UNL     1      11.333   4.281  90.680  1.00  0.00     0.008 A 
HETATM   13  C   UNL     1      12.039   3.140  91.061  1.00  0.00    -0.002 A 
BRANCH  11  14
HETATM   14  C   UNL     1      10.088   6.305  91.258  1.00  0.00    -0.059 C 
HETATM   15  C   UNL     1       9.480   7.288  90.929  1.00  0.00    -0.059 C 
BRANCH  15  16
HETATM   16  C   UNL     1       8.757   8.458  90.538  1.00  0.00     0.042 A 
HETATM   17  C   UNL     1       8.797   8.890  89.212  1.00  0.00     0.008 A 
HETATM   18  C   UNL     1       8.089  10.030  88.830  1.00  0.00     0.005 A 
HETATM   19  C   UNL     1       7.357  10.710  89.781  1.00  0.00     0.056 A 
HETATM   20  C   UNL     1       7.302  10.303  91.097  1.00  0.00     0.005 A 
HETATM   21  C   UNL     1       8.010   9.164  91.481  1.00  0.00     0.008 A 
BRANCH  19  22
HETATM   22  C   UNL     1       6.605  11.925  89.374  1.00  0.00     0.254 C 
HETATM   23  O   UNL     1       7.041  12.623  88.462  1.00  0.00    -0.268 OA
HETATM   24  N   UNL     1       5.423  12.166  90.060  1.00  0.00    -0.335 N 
HETATM   25  HN  UNL     1       5.112  11.531  90.786  1.00  0.00     0.164 HD
BRANCH  24  26
HETATM   26  C   UNL     1       4.570  13.290  89.765  1.00  0.00     0.169 C 
BRANCH  26  27
HETATM   27  C   UNL     1       3.390  12.917  88.859  1.00  0.00     0.138 C 
HETATM   28  C   UNL     1       3.430  11.458  88.419  1.00  0.00     0.034 C 
BRANCH  27  29
HETATM   29  O   UNL     1       2.164  13.160  89.549  1.00  0.00    -0.383 OA
HETATM   30  H   UNL     1       1.436  12.805  89.011  1.00  0.00     0.210 HD
ENDBRANCH  27  29
ENDBRANCH  26  27
BRANCH  26  31
HETATM   31  C   UNL     1       4.090  13.871  91.091  1.00  0.00     0.194 C 
HETATM   32  O   UNL     1       3.602  14.995  91.191  1.00  0.00    -0.289 OA
BRANCH  31  33
HETATM   33  C   UNL     1       4.304  13.013  92.142  1.00  0.00     0.053 C 
BRANCH  33  34
HETATM   34  C   UNL     1       3.154  12.457  92.719  1.00  0.00     0.220 C 
BRANCH  34  35
HETATM   35  O   UNL     1       2.227  13.279  92.589  1.00  0.00    -0.371 OA
HETATM   36  H   UNL     1       2.739  14.069  92.666  1.00  0.00     0.211 HD
ENDBRANCH  34  35
BRANCH  34  37
HETATM   37  C   UNL     1       2.823  11.193  92.201  1.00  0.00     0.185 C 
HETATM   38  O   UNL     1       3.954  10.833  92.788  1.00  0.00    -0.647 OA
BRANCH  37  39
HETATM   39  O   UNL     1       1.957  10.725  91.524  1.00  0.00    -0.774 OA
HETATM   40  H   UNL     1       0.968  11.257  91.683  1.00  0.00     0.167 HD
ENDBRANCH  37  39
ENDBRANCH  34  37
ENDBRANCH  33  34
ENDBRANCH  31  33
ENDBRANCH  26  31
ENDBRANCH  24  26
ENDBRANCH  19  22
ENDBRANCH  15  16
ENDBRANCH  11  14
ENDBRANCH   7   8
ENDBRANCH   2   7
TORSDOF 14
ENDMDL
MODEL 5
REMARK VINA RESULT:      -5.0      1.504      2.234
REMARK  14 active torsions:
REMARK  status: ('A' for Active; 'I' for Inactive)
REMARK    1  A    between atoms: O_2  and  C_18 
REMARK    2  A    between atoms: C_5  and  C_8 
REMARK    3  A    between atoms: C_5  and  O_35 
REMARK    4  A    between atoms: C_5  and  C_36 
REMARK    5  A    between atoms: N_6  and  C_11 
REMARK    6  A    between atoms: N_7  and  C_15 
REMARK       I    between atoms: N_7  and  C_24 
REMARK    7  A    between atoms: C_8  and  C_23 
REMARK    8  A    between atoms: C_11  and  C_14 
REMARK    9  A    between atoms: C_15  and  C_18 
REMARK   10  A    between atoms: C_15  and  C_23 
REMARK   11  A    between atoms: C_21  and  C_26 
REMARK   12  A    between atoms: C_24  and  C_25 
REMARK   13  A    between atoms: C_29  and  C_32 
REMARK   14  A    between atoms: C_36  and  O_39 
ROOT
HETATM    1  O   UNL     1      15.442   4.263  91.412  1.00  0.00    -0.350 OA
HETATM    2  N   UNL     1      13.129   2.723  92.028  1.00  0.00     0.147 N 
HETATM    3  C   UNL     1      13.023   4.072  91.456  1.00  0.00     0.283 C 
HETATM    4  C   UNL     1      14.363   2.606  92.818  1.00  0.00     0.283 C 
HETATM    5  C   UNL     1      14.261   4.376  90.616  1.00  0.00     0.178 C 
HETATM    6  C   UNL     1      15.568   2.945  91.947  1.00  0.00     0.178 C 
ENDROOT
BRANCH   2   7
HETATM    7  C   UNL     1      11.957   2.414  92.846  1.00  0.00     0.277 C 
BRANCH   7   8
HETATM    8  C   UNL     1      10.987   3.545  92.898  1.00  0.00     0.011 A 
HETATM    9  C   UNL     1       9.960   3.625  91.957  1.00  0.00    -0.002 A 
HETATM   10  C   UNL     1       9.053   4.683  92.003  1.00  0.00     0.008 A 
HETATM   11  C   UNL     1       9.172   5.659  92.992  1.00  0.00     0.042 A 
HETATM   12  C   UNL     1      10.197   5.580  93.932  1.00  0.00     0.008 A 
HETATM   13  C   UNL     1      11.105   4.523  93.886  1.00  0.00    -0.002 A 
BRANCH  11  14
HETATM   14  C   UNL     1       8.240   6.744  93.040  1.00  0.00    -0.059 C 
HETATM   15  C   UNL     1       7.456   7.655  93.081  1.00  0.00    -0.059 C 
BRANCH  15  16
HETATM   16  C   UNL     1       6.524   8.738  93.130  1.00  0.00     0.042 A 
HETATM   17  C   UNL     1       5.156   8.485  93.029  1.00  0.00     0.008 A 
HETATM   18  C   UNL     1       4.247   9.541  93.080  1.00  0.00     0.005 A 
HETATM   19  C   UNL     1       4.725  10.826  93.230  1.00  0.00     0.056 A 
HETATM   20  C   UNL     1       6.073  11.102  93.332  1.00  0.00     0.005 A 
HETATM   21  C   UNL     1       6.983  10.047  93.281  1.00  0.00     0.008 A 
BRANCH  19  22
HETATM   22  C   UNL     1       3.757  11.951  93.282  1.00  0.00     0.254 C 
HETATM   23  O   UNL     1       2.857  11.931  94.119  1.00  0.00    -0.268 OA
HETATM   24  N   UNL     1       3.966  12.977  92.371  1.00  0.00    -0.335 N 
HETATM   25  HN  UNL     1       4.746  12.937  91.725  1.00  0.00     0.164 HD
BRANCH  24  26
HETATM   26  C   UNL     1       3.128  14.147  92.313  1.00  0.00     0.169 C 
BRANCH  26  27
HETATM   27  C   UNL     1       3.900  15.445  92.582  1.00  0.00     0.138 C 
HETATM   28  C   UNL     1       4.573  15.451  93.950  1.00  0.00     0.034 C 
BRANCH  27  29
HETATM   29  O   UNL     1       4.896  15.625  91.575  1.00  0.00    -0.383 OA
HETATM   30  H   UNL     1       5.021  16.579  91.437  1.00  0.00     0.210 HD
ENDBRANCH  27  29
ENDBRANCH  26  27
BRANCH  26  31
HETATM   31  C   UNL     1       2.459  14.174  90.943  1.00  0.00     0.194 C 
HETATM   32  O   UNL     1       1.642  15.031  90.613  1.00  0.00    -0.289 OA
BRANCH  31  33
HETATM   33  C   UNL     1       2.847  13.117  90.155  1.00  0.00     0.053 C 
BRANCH  33  34
HETATM   34  C   UNL     1       3.624  13.445  89.034  1.00  0.00     0.220 C 
BRANCH  34  35
HETATM   35  O   UNL     1       4.488  14.265  89.398  1.00  0.00    -0.371 OA
HETATM   36  H   UNL     1       5.213  13.664  89.486  1.00  0.00     0.211 HD
ENDBRANCH  34  35
BRANCH  34  37
HETATM   37  C   UNL     1       4.185  12.326  88.395  1.00  0.00     0.185 C 
HETATM   38  O   UNL     1       4.939  12.283  89.483  1.00  0.00    -0.647 OA
BRANCH  37  39
HETATM   39  O   UNL     1       4.051  11.755  87.355  1.00  0.00    -0.774 OA
HETATM   40  H   UNL     1       4.948  11.102  87.117  1.00  0.00     0.167 HD
ENDBRANCH  37  39
ENDBRANCH  34  37
ENDBRANCH  33  34
ENDBRANCH  31  33
ENDBRANCH  26  31
ENDBRANCH  24  26
ENDBRANCH  19  22
ENDBRANCH  15  16
ENDBRANCH  11  14
ENDBRANCH   7   8
ENDBRANCH   2   7
TORSDOF 14
ENDMDL
