MODEL 1
REMARK VINA RESULT:      -6.3      0.000      0.000
REMARK  12 active torsions:
REMARK  status: ('A' for Active; 'I' for Inactive)
REMARK    1  A    between atoms: O_2  and  C_16 
REMARK    2  A    between atoms: N_5  and  C_9 
REMARK    3  A    between atoms: N_6  and  C_13 
REMARK       I    between atoms: N_6  and  C_22 
REMARK    4  A    between atoms: C_9  and  C_12 
REMARK    5  A    between atoms: C_13  and  C_16 
REMARK    6  A    between atoms: C_13  and  C_21 
REMARK    7  A    between atoms: C_19  and  C_24 
REMARK    8  A    between atoms: C_21  and  C_33 
REMARK    9  A    between atoms: C_22  and  C_23 
REMARK   10  A    between atoms: C_27  and  C_30 
REMARK   11  A    between atoms: C_33  and  C_34 
REMARK   12  A    between atoms: C_34  and  C_35 
ROOT
HETATM    1  O   UNL     1      16.846   3.683  93.849  1.00  0.00    -0.350 OA
HETATM    2  N   UNL     1      14.271   3.070  92.803  1.00  0.00     0.147 N 
HETATM    3  C   UNL     1      15.293   2.029  92.986  1.00  0.00     0.283 C 
HETATM    4  C   UNL     1      14.913   4.368  92.553  1.00  0.00     0.283 C 
HETATM    5  C   UNL     1      16.232   2.422  94.124  1.00  0.00     0.178 C 
HETATM    6  C   UNL     1      15.861   4.705  93.700  1.00  0.00     0.178 C 
ENDROOT
BRANCH   2   7
HETATM    7  C   UNL     1      13.366   2.719  91.710  1.00  0.00     0.277 C 
BRANCH   7   8
HETATM    8  C   UNL     1      12.190   3.632  91.631  1.00  0.00     0.011 A 
HETATM    9  C   UNL     1      11.795   4.154  90.399  1.00  0.00    -0.002 A 
HETATM   10  C   UNL     1      10.696   5.010  90.324  1.00  0.00     0.008 A 
HETATM   11  C   UNL     1       9.992   5.341  91.481  1.00  0.00     0.042 A 
HETATM   12  C   UNL     1      10.385   4.820  92.712  1.00  0.00     0.008 A 
HETATM   13  C   UNL     1      11.484   3.965  92.787  1.00  0.00    -0.002 A 
BRANCH  11  14
HETATM   14  C   UNL     1       8.863   6.217  91.404  1.00  0.00    -0.059 C 
HETATM   15  C   UNL     1       7.915   6.953  91.339  1.00  0.00    -0.059 C 
BRANCH  15  16
HETATM   16  C   UNL     1       6.787   7.828  91.263  1.00  0.00     0.042 A 
HETATM   17  C   UNL     1       5.736   7.535  90.393  1.00  0.00     0.008 A 
HETATM   18  C   UNL     1       4.634   8.387  90.321  1.00  0.00     0.005 A 
HETATM   19  C   UNL     1       4.608   9.512  91.119  1.00  0.00     0.056 A 
HETATM   20  C   UNL     1       5.634   9.824  91.986  1.00  0.00     0.005 A 
HETATM   21  C   UNL     1       6.736   8.972  92.059  1.00  0.00     0.008 A 
BRANCH  19  22
HETATM   22  C   UNL     1       3.435  10.421  91.040  1.00  0.00     0.254 C 
HETATM   23  O   UNL     1       2.402  10.022  90.507  1.00  0.00    -0.268 OA
HETATM   24  N   UNL     1       3.597  11.675  91.613  1.00  0.00    -0.335 N 
HETATM   25  HN  UNL     1       4.472  11.925  92.058  1.00  0.00     0.164 HD
BRANCH  24  26
HETATM   26  C   UNL     1       2.545  12.658  91.638  1.00  0.00     0.166 C 
BRANCH  26  27
HETATM   27  C   UNL     1       2.501  13.447  92.953  1.00  0.00     0.138 C 
HETATM   28  C   UNL     1       3.892  13.771  93.486  1.00  0.00     0.034 C 
BRANCH  27  29
HETATM   29  O   UNL     1       1.785  14.666  92.754  1.00  0.00    -0.383 OA
HETATM   30  H   UNL     1       0.834  14.473  92.805  1.00  0.00     0.210 HD
ENDBRANCH  27  29
ENDBRANCH  26  27
BRANCH  26  31
HETATM   31  C   UNL     1       2.743  13.584  90.442  1.00  0.00     0.181 C 
HETATM   32  O   UNL     1       1.973  14.503  90.172  1.00  0.00    -0.294 OA
BRANCH  31  33
HETATM   33  C   UNL     1       4.234  14.220  90.415  1.00  0.00     0.138 C 
BRANCH  33  34
HETATM   34  C   UNL     1       4.574  14.061  89.053  1.00  0.00     0.208 C 
HETATM   35  O   UNL     1       5.169  14.981  88.541  1.00  0.00    -0.289 OA
BRANCH  34  36
HETATM   36  C   UNL     1       4.608  12.937  88.273  1.00  0.00     0.194 C 
HETATM   37  O   UNL     1       5.150  11.673  88.531  1.00  0.00    -0.185 OA
ENDBRANCH  34  36
ENDBRANCH  33  34
ENDBRANCH  31  33
ENDBRANCH  26  31
ENDBRANCH  24  26
ENDBRANCH  19  22
ENDBRANCH  15  16
ENDBRANCH  11  14
ENDBRANCH   7   8
ENDBRANCH   2   7
TORSDOF 12
ENDMDL
MODEL 2
REMARK VINA RESULT:      -6.2      1.214      1.742
REMARK  12 active torsions:
REMARK  status: ('A' for Active; 'I' for Inactive)
REMARK    1  A    between atoms: O_2  and  C_16 
REMARK    2  A    between atoms: N_5  and  C_9 
REMARK    3  A    between atoms: N_6  and  C_13 
REMARK       I    between atoms: N_6  and  C_22 
REMARK    4  A    between atoms: C_9  and  C_12 
REMARK    5  A    between atoms: C_13  and  C_16 
REMARK    6  A    between atoms: C_13  and  C_21 
REMARK    7  A    between atoms: C_19  and  C_24 
REMARK    8  A    between atoms: C_21  and  C_33 
REMARK    9  A    between atoms: C_22  and  C_23 
REMARK   10  A    between atoms: C_27  and  C_30 
REMARK   11  A    between atoms: C_33  and  C_34 
REMARK   12  A    between atoms: C_34  and  C_35 
ROOT
HETATM    1  O   UNL     1      16.231   4.225  94.087  1.00  0.00    -0.350 OA
HETATM    2  N   UNL     1      14.518   2.711  92.392  1.00  0.00     0.147 N 
HETATM    3  C   UNL     1      14.532   4.180  92.354  1.00  0.00     0.283 C 
HETATM    4  C   UNL     1      14.886   2.238  93.733  1.00  0.00     0.283 C 
HETATM    5  C   UNL     1      15.906   4.694  92.777  1.00  0.00     0.178 C 
HETATM    6  C   UNL     1      16.250   2.798  94.124  1.00  0.00     0.178 C 
ENDROOT
BRANCH   2   7
HETATM    7  C   UNL     1      13.207   2.196  92.000  1.00  0.00     0.277 C 
BRANCH   7   8
HETATM    8  C   UNL     1      12.165   3.261  91.970  1.00  0.00     0.011 A 
HETATM    9  C   UNL     1      11.788   3.902  93.151  1.00  0.00    -0.002 A 
HETATM   10  C   UNL     1      10.811   4.897  93.124  1.00  0.00     0.008 A 
HETATM   11  C   UNL     1      10.213   5.252  91.915  1.00  0.00     0.042 A 
HETATM   12  C   UNL     1      10.588   4.613  90.735  1.00  0.00     0.008 A 
HETATM   13  C   UNL     1      11.564   3.617  90.762  1.00  0.00    -0.002 A 
BRANCH  11  14
HETATM   14  C   UNL     1       9.212   6.274  91.887  1.00  0.00    -0.059 C 
HETATM   15  C   UNL     1       8.371   7.133  91.863  1.00  0.00    -0.059 C 
BRANCH  15  16
HETATM   16  C   UNL     1       7.371   8.154  91.835  1.00  0.00     0.042 A 
HETATM   17  C   UNL     1       6.153   7.918  91.198  1.00  0.00     0.008 A 
HETATM   18  C   UNL     1       5.176   8.913  91.173  1.00  0.00     0.005 A 
HETATM   19  C   UNL     1       5.438  10.121  91.786  1.00  0.00     0.056 A 
HETATM   20  C   UNL     1       6.634  10.379  92.422  1.00  0.00     0.005 A 
HETATM   21  C   UNL     1       7.612   9.384  92.447  1.00  0.00     0.008 A 
BRANCH  19  22
HETATM   22  C   UNL     1       4.398  11.181  91.757  1.00  0.00     0.254 C 
HETATM   23  O   UNL     1       3.250  10.905  92.100  1.00  0.00    -0.268 OA
HETATM   24  N   UNL     1       4.824  12.440  91.358  1.00  0.00    -0.335 N 
HETATM   25  HN  UNL     1       5.794  12.600  91.113  1.00  0.00     0.164 HD
BRANCH  24  26
HETATM   26  C   UNL     1       3.940  13.577  91.302  1.00  0.00     0.166 C 
BRANCH  26  27
HETATM   27  C   UNL     1       3.903  14.366  92.617  1.00  0.00     0.138 C 
HETATM   28  C   UNL     1       2.506  14.875  92.954  1.00  0.00     0.034 C 
BRANCH  27  29
HETATM   29  O   UNL     1       4.365  13.537  93.683  1.00  0.00    -0.383 OA
HETATM   30  H   UNL     1       4.942  14.071  94.256  1.00  0.00     0.210 HD
ENDBRANCH  27  29
ENDBRANCH  26  27
BRANCH  26  31
HETATM   31  C   UNL     1       4.385  14.457  90.139  1.00  0.00     0.181 C 
HETATM   32  O   UNL     1       4.742  15.625  90.281  1.00  0.00    -0.294 OA
BRANCH  31  33
HETATM   33  C   UNL     1       5.533  13.740  89.246  1.00  0.00     0.138 C 
BRANCH  33  34
HETATM   34  C   UNL     1       4.767  13.233  88.173  1.00  0.00     0.208 C 
HETATM   35  O   UNL     1       4.952  13.750  87.095  1.00  0.00    -0.289 OA
BRANCH  34  36
HETATM   36  C   UNL     1       4.056  12.070  88.062  1.00  0.00     0.194 C 
HETATM   37  O   UNL     1       4.497  10.744  87.973  1.00  0.00    -0.185 OA
ENDBRANCH  34  36
ENDBRANCH  33  34
ENDBRANCH  31  33
ENDBRANCH  26  31
ENDBRANCH  24  26
ENDBRANCH  19  22
ENDBRANCH  15  16
ENDBRANCH  11  14
ENDBRANCH   7   8
ENDBRANCH   2   7
TORSDOF 12
ENDMDL
MODEL 3
REMARK VINA RESULT:      -6.2      2.254      3.673
REMARK  12 active torsions:
REMARK  status: ('A' for Active; 'I' for Inactive)
REMARK    1  A    between atoms: O_2  and  C_16 
REMARK    2  A    between atoms: N_5  and  C_9 
REMARK    3  A    between atoms: N_6  and  C_13 
REMARK       I    between atoms: N_6  and  C_22 
REMARK    4  A    between atoms: C_9  and  C_12 
REMARK    5  A    between atoms: C_13  and  C_16 
REMARK    6  A    between atoms: C_13  and  C_21 
REMARK    7  A    between atoms: C_19  and  C_24 
REMARK    8  A    between atoms: C_21  and  C_33 
REMARK    9  A    between atoms: C_22  and  C_23 
REMARK   10  A    between atoms: C_27  and  C_30 
REMARK   11  A    between atoms: C_33  and  C_34 
REMARK   12  A    between atoms: C_34  and  C_35 
ROOT
HETATM    1  O   UNL     1      17.439   4.720  93.634  1.00  0.00    -0.350 OA
HETATM    2  N   UNL     1      15.307   2.893  94.103  1.00  0.00     0.147 N 
HETATM    3  C   UNL     1      16.619   2.436  93.625  1.00  0.00     0.283 C 
HETATM    4  C   UNL     1      15.056   4.267  93.646  1.00  0.00     0.283 C 
HETATM    5  C   UNL     1      17.706   3.397  94.101  1.00  0.00     0.178 C 
HETATM    6  C   UNL     1      16.179   5.184  94.120  1.00  0.00     0.178 C 
ENDROOT
BRANCH   2   7
HETATM    7  C   UNL     1      14.248   1.993  93.650  1.00  0.00     0.277 C 
BRANCH   7   8
HETATM    8  C   UNL     1      13.169   2.710  92.913  1.00  0.00     0.011 A 
HETATM    9  C   UNL     1      12.079   3.233  93.610  1.00  0.00    -0.002 A 
HETATM   10  C   UNL     1      11.067   3.902  92.922  1.00  0.00     0.008 A 
HETATM   11  C   UNL     1      11.147   4.051  91.538  1.00  0.00     0.042 A 
HETATM   12  C   UNL     1      12.236   3.530  90.841  1.00  0.00     0.008 A 
HETATM   13  C   UNL     1      13.247   2.860  91.529  1.00  0.00    -0.002 A 
BRANCH  11  14
HETATM   14  C   UNL     1      10.111   4.740  90.832  1.00  0.00    -0.059 C 
HETATM   15  C   UNL     1       9.240   5.319  90.240  1.00  0.00    -0.059 C 
BRANCH  15  16
HETATM   16  C   UNL     1       8.204   6.008  89.534  1.00  0.00     0.042 A 
HETATM   17  C   UNL     1       8.475   6.592  88.296  1.00  0.00     0.008 A 
HETATM   18  C   UNL     1       7.464   7.261  87.607  1.00  0.00     0.005 A 
HETATM   19  C   UNL     1       6.206   7.331  88.169  1.00  0.00     0.056 A 
HETATM   20  C   UNL     1       5.914   6.762  89.391  1.00  0.00     0.005 A 
HETATM   21  C   UNL     1       6.924   6.093  90.082  1.00  0.00     0.008 A 
BRANCH  19  22
HETATM   22  C   UNL     1       5.130   8.046  87.435  1.00  0.00     0.254 C 
HETATM   23  O   UNL     1       5.022   7.884  86.222  1.00  0.00    -0.268 OA
HETATM   24  N   UNL     1       4.294   8.842  88.205  1.00  0.00    -0.335 N 
HETATM   25  HN  UNL     1       4.429   8.908  89.208  1.00  0.00     0.164 HD
BRANCH  24  26
HETATM   26  C   UNL     1       3.191   9.579  87.644  1.00  0.00     0.166 C 
BRANCH  26  27
HETATM   27  C   UNL     1       1.828   8.974  88.004  1.00  0.00     0.138 C 
HETATM   28  C   UNL     1       1.572   7.648  87.296  1.00  0.00     0.034 C 
BRANCH  27  29
HETATM   29  O   UNL     1       1.756   8.767  89.415  1.00  0.00    -0.383 OA
HETATM   30  H   UNL     1       0.839   8.539  89.643  1.00  0.00     0.210 HD
ENDBRANCH  27  29
ENDBRANCH  26  27
BRANCH  26  31
HETATM   31  C   UNL     1       3.301  11.022  88.124  1.00  0.00     0.181 C 
HETATM   32  O   UNL     1       2.416  11.583  88.768  1.00  0.00    -0.294 OA
BRANCH  31  33
HETATM   33  C   UNL     1       4.682  11.284  88.931  1.00  0.00     0.138 C 
BRANCH  33  34
HETATM   34  C   UNL     1       4.922  12.643  88.629  1.00  0.00     0.208 C 
HETATM   35  O   UNL     1       4.781  12.963  87.471  1.00  0.00    -0.289 OA
BRANCH  34  36
HETATM   36  C   UNL     1       5.010  13.733  89.451  1.00  0.00     0.194 C 
HETATM   37  O   UNL     1       4.666  13.879  90.799  1.00  0.00    -0.185 OA
ENDBRANCH  34  36
ENDBRANCH  33  34
ENDBRANCH  31  33
ENDBRANCH  26  31
ENDBRANCH  24  26
ENDBRANCH  19  22
ENDBRANCH  15  16
ENDBRANCH  11  14
ENDBRANCH   7   8
ENDBRANCH   2   7
TORSDOF 12
ENDMDL
MODEL 4
REMARK VINA RESULT:      -5.1      1.478      1.982
REMARK  12 active torsions:
REMARK  status: ('A' for Active; 'I' for Inactive)
REMARK    1  A    between atoms: O_2  and  C_16 
REMARK    2  A    between atoms: N_5  and  C_9 
REMARK    3  A    between atoms: N_6  and  C_13 
REMARK       I    between atoms: N_6  and  C_22 
REMARK    4  A    between atoms: C_9  and  C_12 
REMARK    5  A    between atoms: C_13  and  C_16 
REMARK    6  A    between atoms: C_13  and  C_21 
REMARK    7  A    between atoms: C_19  and  C_24 
REMARK    8  A    between atoms: C_21  and  C_33 
REMARK    9  A    between atoms: C_22  and  C_23 
REMARK   10  A    between atoms: C_27  and  C_30 
REMARK   11  A    between atoms: C_33  and  C_34 
REMARK   12  A    between atoms: C_34  and  C_35 
ROOT
HETATM    1  O   UNL     1      15.815   4.437  93.455  1.00  0.00    -0.350 OA
HETATM    2  N   UNL     1      13.887   2.640  92.379  1.00  0.00     0.147 N 
HETATM    3  C   UNL     1      13.999   4.024  91.898  1.00  0.00     0.283 C 
HETATM    4  C   UNL     1      14.314   2.559  93.783  1.00  0.00     0.283 C 
HETATM    5  C   UNL     1      15.431   4.520  92.081  1.00  0.00     0.178 C 
HETATM    6  C   UNL     1      15.738   3.089  93.922  1.00  0.00     0.178 C 
ENDROOT
BRANCH   2   7
HETATM    7  C   UNL     1      12.519   2.148  92.223  1.00  0.00     0.277 C 
BRANCH   7   8
HETATM    8  C   UNL     1      11.508   3.239  92.320  1.00  0.00     0.011 A 
HETATM    9  C   UNL     1      11.519   4.104  93.415  1.00  0.00    -0.002 A 
HETATM   10  C   UNL     1      10.572   5.123  93.509  1.00  0.00     0.008 A 
HETATM   11  C   UNL     1       9.616   5.279  92.506  1.00  0.00     0.042 A 
HETATM   12  C   UNL     1       9.604   4.416  91.411  1.00  0.00     0.008 A 
HETATM   13  C   UNL     1      10.550   3.396  91.318  1.00  0.00    -0.002 A 
BRANCH  11  14
HETATM   14  C   UNL     1       8.646   6.327  92.600  1.00  0.00    -0.059 C 
HETATM   15  C   UNL     1       7.831   7.207  92.679  1.00  0.00    -0.059 C 
BRANCH  15  16
HETATM   16  C   UNL     1       6.861   8.253  92.773  1.00  0.00     0.042 A 
HETATM   17  C   UNL     1       5.601   8.089  92.196  1.00  0.00     0.008 A 
HETATM   18  C   UNL     1       4.654   9.108  92.290  1.00  0.00     0.005 A 
HETATM   19  C   UNL     1       4.987  10.268  92.959  1.00  0.00     0.056 A 
HETATM   20  C   UNL     1       6.226  10.455  93.537  1.00  0.00     0.005 A 
HETATM   21  C   UNL     1       7.173   9.436  93.443  1.00  0.00     0.008 A 
BRANCH  19  22
HETATM   22  C   UNL     1       3.979  11.355  93.057  1.00  0.00     0.254 C 
HETATM   23  O   UNL     1       2.966  11.174  93.729  1.00  0.00    -0.268 OA
HETATM   24  N   UNL     1       4.282  12.529  92.382  1.00  0.00    -0.335 N 
HETATM   25  HN  UNL     1       5.151  12.614  91.867  1.00  0.00     0.164 HD
BRANCH  24  26
HETATM   26  C   UNL     1       3.417  13.681  92.401  1.00  0.00     0.166 C 
BRANCH  26  27
HETATM   27  C   UNL     1       3.504  14.466  93.716  1.00  0.00     0.138 C 
HETATM   28  C   UNL     1       4.561  15.564  93.671  1.00  0.00     0.034 C 
BRANCH  27  29
HETATM   29  O   UNL     1       2.236  15.055  94.005  1.00  0.00    -0.383 OA
HETATM   30  H   UNL     1       1.652  14.910  93.242  1.00  0.00     0.210 HD
ENDBRANCH  27  29
ENDBRANCH  26  27
BRANCH  26  31
HETATM   31  C   UNL     1       3.780  14.556  91.207  1.00  0.00     0.181 C 
HETATM   32  O   UNL     1       4.941  14.794  90.878  1.00  0.00    -0.294 OA
BRANCH  31  33
HETATM   33  C   UNL     1       3.017  14.081  89.858  1.00  0.00     0.138 C 
BRANCH  33  34
HETATM   34  C   UNL     1       4.001  13.263  89.260  1.00  0.00     0.208 C 
HETATM   35  O   UNL     1       3.860  12.070  89.402  1.00  0.00    -0.289 OA
BRANCH  34  36
HETATM   36  C   UNL     1       4.937  13.554  88.305  1.00  0.00     0.194 C 
HETATM   37  O   UNL     1       6.239  13.070  88.138  1.00  0.00    -0.185 OA
ENDBRANCH  34  36
ENDBRANCH  33  34
ENDBRANCH  31  33
ENDBRANCH  26  31
ENDBRANCH  24  26
ENDBRANCH  19  22
ENDBRANCH  15  16
ENDBRANCH  11  14
ENDBRANCH   7   8
ENDBRANCH   2   7
TORSDOF 12
ENDMDL
MODEL 5
REMARK VINA RESULT:      -5.0      2.703     12.578
REMARK  12 active torsions:
REMARK  status: ('A' for Active; 'I' for Inactive)
REMARK    1  A    between atoms: O_2  and  C_16 
REMARK    2  A    between atoms: N_5  and  C_9 
REMARK    3  A    between atoms: N_6  and  C_13 
REMARK       I    between atoms: N_6  and  C_22 
REMARK    4  A    between atoms: C_9  and  C_12 
REMARK    5  A    between atoms: C_13  and  C_16 
REMARK    6  A    between atoms: C_13  and  C_21 
REMARK    7  A    between atoms: C_19  and  C_24 
REMARK    8  A    between atoms: C_21  and  C_33 
REMARK    9  A    between atoms: C_22  and  C_23 
REMARK   10  A    between atoms: C_27  and  C_30 
REMARK   11  A    between atoms: C_33  and  C_34 
REMARK   12  A    between atoms: C_34  and  C_35 
ROOT
HETATM    1  O   UNL     1       2.762  14.444  94.057  1.00  0.00    -0.350 OA
HETATM    2  N   UNL     1       2.694  14.502  91.212  1.00  0.00     0.147 N 
HETATM    3  C   UNL     1       1.549  14.023  91.998  1.00  0.00     0.283 C 
HETATM    4  C   UNL     1       3.944  14.262  91.946  1.00  0.00     0.283 C 
HETATM    5  C   UNL     1       1.539  14.703  93.365  1.00  0.00     0.178 C 
HETATM    6  C   UNL     1       3.879  14.934  93.314  1.00  0.00     0.178 C 
ENDROOT
BRANCH   2   7
HETATM    7  C   UNL     1       2.729  13.856  89.901  1.00  0.00     0.277 C 
BRANCH   7   8
HETATM    8  C   UNL     1       3.717  12.742  89.843  1.00  0.00     0.011 A 
HETATM    9  C   UNL     1       4.988  12.965  89.312  1.00  0.00    -0.002 A 
HETATM   10  C   UNL     1       5.913  11.922  89.256  1.00  0.00     0.008 A 
HETATM   11  C   UNL     1       5.567  10.658  89.732  1.00  0.00     0.042 A 
HETATM   12  C   UNL     1       4.299  10.434  90.263  1.00  0.00     0.008 A 
HETATM   13  C   UNL     1       3.373  11.476  90.319  1.00  0.00    -0.002 A 
BRANCH  11  14
HETATM   14  C   UNL     1       6.517   9.589  89.676  1.00  0.00    -0.059 C 
HETATM   15  C   UNL     1       7.315   8.691  89.628  1.00  0.00    -0.059 C 
BRANCH  15  16
HETATM   16  C   UNL     1       8.264   7.623  89.571  1.00  0.00     0.042 A 
HETATM   17  C   UNL     1       8.749   7.059  90.751  1.00  0.00     0.008 A 
HETATM   18  C   UNL     1       9.673   6.015  90.695  1.00  0.00     0.005 A 
HETATM   19  C   UNL     1      10.090   5.560  89.462  1.00  0.00     0.056 A 
HETATM   20  C   UNL     1       9.626   6.101  88.282  1.00  0.00     0.005 A 
HETATM   21  C   UNL     1       8.702   7.145  88.336  1.00  0.00     0.008 A 
BRANCH  19  22
HETATM   22  C   UNL     1      11.076   4.449  89.403  1.00  0.00     0.254 C 
HETATM   23  O   UNL     1      11.198   3.811  88.361  1.00  0.00    -0.268 OA
HETATM   24  N   UNL     1      11.817   4.233  90.557  1.00  0.00    -0.335 N 
HETATM   25  HN  UNL     1      11.679   4.817  91.373  1.00  0.00     0.164 HD
BRANCH  24  26
HETATM   26  C   UNL     1      12.828   3.210  90.648  1.00  0.00     0.166 C 
BRANCH  26  27
HETATM   27  C   UNL     1      14.248   3.785  90.723  1.00  0.00     0.138 C 
HETATM   28  C   UNL     1      15.209   3.094  89.761  1.00  0.00     0.034 C 
BRANCH  27  29
HETATM   29  O   UNL     1      14.215   5.180  90.423  1.00  0.00    -0.383 OA
HETATM   30  H   UNL     1      14.837   5.350  89.695  1.00  0.00     0.210 HD
ENDBRANCH  27  29
ENDBRANCH  26  27
BRANCH  26  31
HETATM   31  C   UNL     1      12.512   2.351  91.868  1.00  0.00     0.181 C 
HETATM   32  O   UNL     1      12.108   1.193  91.784  1.00  0.00    -0.294 OA
BRANCH  31  33
HETATM   33  C   UNL     1      13.744   2.325  92.921  1.00  0.00     0.138 C 
BRANCH  33  34
HETATM   34  C   UNL     1      13.380   3.373  93.794  1.00  0.00     0.208 C 
HETATM   35  O   UNL     1      14.269   4.125  94.124  1.00  0.00    -0.289 OA
BRANCH  34  36
HETATM   36  C   UNL     1      12.147   3.871  94.117  1.00  0.00     0.194 C 
HETATM   37  O   UNL     1      11.493   5.026  93.671  1.00  0.00    -0.185 OA
ENDBRANCH  34  36
ENDBRANCH  33  34
ENDBRANCH  31  33
ENDBRANCH  26  31
ENDBRANCH  24  26
ENDBRANCH  19  22
ENDBRANCH  15  16
ENDBRANCH  11  14
ENDBRANCH   7   8
ENDBRANCH   2   7
TORSDOF 12
ENDMDL
MODEL 6
REMARK VINA RESULT:      -4.9      2.403     12.830
REMARK  12 active torsions:
REMARK  status: ('A' for Active; 'I' for Inactive)
REMARK    1  A    between atoms: O_2  and  C_16 
REMARK    2  A    between atoms: N_5  and  C_9 
REMARK    3  A    between atoms: N_6  and  C_13 
REMARK       I    between atoms: N_6  and  C_22 
REMARK    4  A    between atoms: C_9  and  C_12 
REMARK    5  A    between atoms: C_13  and  C_16 
REMARK    6  A    between atoms: C_13  and  C_21 
REMARK    7  A    between atoms: C_19  and  C_24 
REMARK    8  A    between atoms: C_21  and  C_33 
REMARK    9  A    between atoms: C_22  and  C_23 
REMARK   10  A    between atoms: C_27  and  C_30 
REMARK   11  A    between atoms: C_33  and  C_34 
REMARK   12  A    between atoms: C_34  and  C_35 
ROOT
HETATM    1  O   UNL     1       2.821  14.679  94.107  1.00  0.00    -0.350 OA
HETATM    2  N   UNL     1       2.717  14.429  91.274  1.00  0.00     0.147 N 
HETATM    3  C   UNL     1       1.597  14.001  92.124  1.00  0.00     0.283 C 
HETATM    4  C   UNL     1       3.983  14.309  92.010  1.00  0.00     0.283 C 
HETATM    5  C   UNL     1       1.582  14.823  93.410  1.00  0.00     0.178 C 
HETATM    6  C   UNL     1       3.911  15.123  93.299  1.00  0.00     0.178 C 
ENDROOT
BRANCH   2   7
HETATM    7  C   UNL     1       2.758  13.647  90.039  1.00  0.00     0.277 C 
BRANCH   7   8
HETATM    8  C   UNL     1       3.740  12.527  90.108  1.00  0.00     0.011 A 
HETATM    9  C   UNL     1       4.964  12.632  89.446  1.00  0.00    -0.002 A 
HETATM   10  C   UNL     1       5.882  11.585  89.509  1.00  0.00     0.008 A 
HETATM   11  C   UNL     1       5.577  10.434  90.234  1.00  0.00     0.042 A 
HETATM   12  C   UNL     1       4.356  10.328  90.896  1.00  0.00     0.008 A 
HETATM   13  C   UNL     1       3.436  11.375  90.833  1.00  0.00    -0.002 A 
BRANCH  11  14
HETATM   14  C   UNL     1       6.521   9.360  90.300  1.00  0.00    -0.059 C 
HETATM   15  C   UNL     1       7.314   8.458  90.355  1.00  0.00    -0.059 C 
BRANCH  15  16
HETATM   16  C   UNL     1       8.256   7.385  90.422  1.00  0.00     0.042 A 
HETATM   17  C   UNL     1       9.433   7.445  89.675  1.00  0.00     0.008 A 
HETATM   18  C   UNL     1      10.354   6.399  89.742  1.00  0.00     0.005 A 
HETATM   19  C   UNL     1      10.078   5.319  90.554  1.00  0.00     0.056 A 
HETATM   20  C   UNL     1       8.922   5.236  91.301  1.00  0.00     0.005 A 
HETATM   21  C   UNL     1       8.000   6.281  91.235  1.00  0.00     0.008 A 
BRANCH  19  22
HETATM   22  C   UNL     1      11.058   4.204  90.623  1.00  0.00     0.254 C 
HETATM   23  O   UNL     1      10.867   3.195  89.950  1.00  0.00    -0.268 OA
HETATM   24  N   UNL     1      12.155   4.410  91.449  1.00  0.00    -0.335 N 
HETATM   25  HN  UNL     1      12.259   5.280  91.956  1.00  0.00     0.164 HD
BRANCH  24  26
HETATM   26  C   UNL     1      13.203   3.433  91.603  1.00  0.00     0.166 C 
BRANCH  26  27
HETATM   27  C   UNL     1      14.542   3.903  91.020  1.00  0.00     0.138 C 
HETATM   28  C   UNL     1      15.119   2.915  90.013  1.00  0.00     0.034 C 
BRANCH  27  29
HETATM   29  O   UNL     1      14.367   5.167  90.382  1.00  0.00    -0.383 OA
HETATM   30  H   UNL     1      13.541   5.562  90.707  1.00  0.00     0.210 HD
ENDBRANCH  27  29
ENDBRANCH  26  27
BRANCH  26  31
HETATM   31  C   UNL     1      13.327   3.113  93.089  1.00  0.00     0.181 C 
HETATM   32  O   UNL     1      12.398   2.662  93.757  1.00  0.00    -0.294 OA
BRANCH  31  33
HETATM   33  C   UNL     1      14.606   2.166  93.397  1.00  0.00     0.138 C 
BRANCH  33  34
HETATM   34  C   UNL     1      15.586   3.128  93.727  1.00  0.00     0.208 C 
HETATM   35  O   UNL     1      16.723   2.859  93.414  1.00  0.00    -0.289 OA
BRANCH  34  36
HETATM   36  C   UNL     1      15.454   4.443  94.083  1.00  0.00     0.194 C 
HETATM   37  O   UNL     1      16.404   5.470  94.116  1.00  0.00    -0.185 OA
ENDBRANCH  34  36
ENDBRANCH  33  34
ENDBRANCH  31  33
ENDBRANCH  26  31
ENDBRANCH  24  26
ENDBRANCH  19  22
ENDBRANCH  15  16
ENDBRANCH  11  14
ENDBRANCH   7   8
ENDBRANCH   2   7
TORSDOF 12
ENDMDL
MODEL 7
REMARK VINA RESULT:      -3.9      2.323     12.864
REMARK  12 active torsions:
REMARK  status: ('A' for Active; 'I' for Inactive)
REMARK    1  A    between atoms: O_2  and  C_16 
REMARK    2  A    between atoms: N_5  and  C_9 
REMARK    3  A    between atoms: N_6  and  C_13 
REMARK       I    between atoms: N_6  and  C_22 
REMARK    4  A    between atoms: C_9  and  C_12 
REMARK    5  A    between atoms: C_13  and  C_16 
REMARK    6  A    between atoms: C_13  and  C_21 
REMARK    7  A    between atoms: C_19  and  C_24 
REMARK    8  A    between atoms: C_21  and  C_33 
REMARK    9  A    between atoms: C_22  and  C_23 
REMARK   10  A    between atoms: C_27  and  C_30 
REMARK   11  A    between atoms: C_33  and  C_34 
REMARK   12  A    between atoms: C_34  and  C_35 
ROOT
HETATM    1  O   UNL     1       2.882  14.857  93.608  1.00  0.00    -0.350 OA
HETATM    2  N   UNL     1       2.600  14.387  90.815  1.00  0.00     0.147 N 
HETATM    3  C   UNL     1       1.726  13.729  91.797  1.00  0.00     0.283 C 
HETATM    4  C   UNL     1       3.909  14.672  91.418  1.00  0.00     0.283 C 
HETATM    5  C   UNL     1       1.595  14.604  93.040  1.00  0.00     0.178 C 
HETATM    6  C   UNL     1       3.728  15.524  92.670  1.00  0.00     0.178 C 
ENDROOT
BRANCH   2   7
HETATM    7  C   UNL     1       2.749  13.560  89.619  1.00  0.00     0.277 C 
BRANCH   7   8
HETATM    8  C   UNL     1       3.763  12.482  89.795  1.00  0.00     0.011 A 
HETATM    9  C   UNL     1       3.502  11.413  90.652  1.00  0.00    -0.002 A 
HETATM   10  C   UNL     1       4.452  10.405  90.820  1.00  0.00     0.008 A 
HETATM   11  C   UNL     1       5.661  10.467  90.128  1.00  0.00     0.042 A 
HETATM   12  C   UNL     1       5.923  11.534  89.271  1.00  0.00     0.008 A 
HETATM   13  C   UNL     1       4.974  12.542  89.104  1.00  0.00    -0.002 A 
BRANCH  11  14
HETATM   14  C   UNL     1       6.634   9.432  90.298  1.00  0.00    -0.059 C 
HETATM   15  C   UNL     1       7.452   8.561  90.441  1.00  0.00    -0.059 C 
BRANCH  15  16
HETATM   16  C   UNL     1       8.424   7.527  90.611  1.00  0.00     0.042 A 
HETATM   17  C   UNL     1       8.692   7.025  91.884  1.00  0.00     0.008 A 
HETATM   18  C   UNL     1       9.639   6.014  92.049  1.00  0.00     0.005 A 
HETATM   19  C   UNL     1      10.294   5.527  90.937  1.00  0.00     0.056 A 
HETATM   20  C   UNL     1      10.047   6.006  89.668  1.00  0.00     0.005 A 
HETATM   21  C   UNL     1       9.101   7.018  89.502  1.00  0.00     0.008 A 
BRANCH  19  22
HETATM   22  C   UNL     1      11.304   4.451  91.114  1.00  0.00     0.254 C 
HETATM   23  O   UNL     1      11.685   3.820  90.131  1.00  0.00    -0.268 OA
HETATM   24  N   UNL     1      11.766   4.257  92.408  1.00  0.00    -0.335 N 
HETATM   25  HN  UNL     1      11.423   4.834  93.167  1.00  0.00     0.164 HD
BRANCH  24  26
HETATM   26  C   UNL     1      12.762   3.269  92.735  1.00  0.00     0.166 C 
BRANCH  26  27
HETATM   27  C   UNL     1      12.638   1.996  91.889  1.00  0.00     0.138 C 
HETATM   28  C   UNL     1      13.692   0.953  92.243  1.00  0.00     0.034 C 
BRANCH  27  29
HETATM   29  O   UNL     1      11.342   1.426  92.071  1.00  0.00    -0.383 OA
HETATM   30  H   UNL     1      10.957   1.256  91.195  1.00  0.00     0.210 HD
ENDBRANCH  27  29
ENDBRANCH  26  27
BRANCH  26  31
HETATM   31  C   UNL     1      14.133   3.916  92.565  1.00  0.00     0.181 C 
HETATM   32  O   UNL     1      14.387   4.721  91.671  1.00  0.00    -0.294 OA
BRANCH  31  33
HETATM   33  C   UNL     1      14.656   4.591  93.943  1.00  0.00     0.138 C 
BRANCH  33  34
HETATM   34  C   UNL     1      16.054   4.454  93.802  1.00  0.00     0.208 C 
HETATM   35  O   UNL     1      16.702   5.470  93.909  1.00  0.00    -0.289 OA
BRANCH  34  36
HETATM   36  C   UNL     1      16.846   3.339  93.847  1.00  0.00     0.194 C 
HETATM   37  O   UNL     1      16.517   2.007  94.122  1.00  0.00    -0.185 OA
ENDBRANCH  34  36
ENDBRANCH  33  34
ENDBRANCH  31  33
ENDBRANCH  26  31
ENDBRANCH  24  26
ENDBRANCH  19  22
ENDBRANCH  15  16
ENDBRANCH  11  14
ENDBRANCH   7   8
ENDBRANCH   2   7
TORSDOF 12
ENDMDL
