MODEL 1
REMARK VINA RESULT:      -6.6      0.000      0.000
REMARK  14 active torsions:
REMARK  status: ('A' for Active; 'I' for Inactive)
REMARK    1  A    between atoms: O_2  and  C_18 
REMARK    2  A    between atoms: C_5  and  C_8 
REMARK    3  A    between atoms: C_5  and  O_35 
REMARK    4  A    between atoms: C_5  and  C_36 
REMARK    5  A    between atoms: N_6  and  C_11 
REMARK    6  A    between atoms: N_7  and  C_15 
REMARK       I    between atoms: N_7  and  C_24 
REMARK    7  A    between atoms: C_8  and  C_23 
REMARK    8  A    between atoms: C_11  and  C_14 
REMARK    9  A    between atoms: C_15  and  C_18 
REMARK   10  A    between atoms: C_15  and  C_23 
REMARK   11  A    between atoms: C_21  and  C_26 
REMARK   12  A    between atoms: C_24  and  C_25 
REMARK   13  A    between atoms: C_29  and  C_32 
REMARK   14  A    between atoms: C_36  and  O_39 
ROOT
HETATM    1  O   UNL     1      16.731   3.539  93.881  1.00  0.00    -0.350 OA
HETATM    2  N   UNL     1      14.168   3.133  92.711  1.00  0.00     0.147 N 
HETATM    3  C   UNL     1      15.093   2.015  92.941  1.00  0.00     0.283 C 
HETATM    4  C   UNL     1      14.924   4.375  92.496  1.00  0.00     0.283 C 
HETATM    5  C   UNL     1      16.005   2.333  94.123  1.00  0.00     0.178 C 
HETATM    6  C   UNL     1      15.839   4.638  93.688  1.00  0.00     0.178 C 
ENDROOT
BRANCH   2   7
HETATM    7  C   UNL     1      13.292   2.855  91.575  1.00  0.00     0.277 C 
BRANCH   7   8
HETATM    8  C   UNL     1      12.109   3.762  91.534  1.00  0.00     0.011 A 
HETATM    9  C   UNL     1      11.442   4.090  92.715  1.00  0.00    -0.002 A 
HETATM   10  C   UNL     1      10.335   4.937  92.678  1.00  0.00     0.008 A 
HETATM   11  C   UNL     1       9.896   5.456  91.460  1.00  0.00     0.042 A 
HETATM   12  C   UNL     1      10.561   5.129  90.281  1.00  0.00     0.008 A 
HETATM   13  C   UNL     1      11.668   4.282  90.317  1.00  0.00    -0.002 A 
BRANCH  11  14
HETATM   14  C   UNL     1       8.760   6.326  91.423  1.00  0.00    -0.059 C 
HETATM   15  C   UNL     1       7.806   7.057  91.392  1.00  0.00    -0.059 C 
BRANCH  15  16
HETATM   16  C   UNL     1       6.672   7.927  91.355  1.00  0.00     0.042 A 
HETATM   17  C   UNL     1       6.588   8.999  92.244  1.00  0.00     0.008 A 
HETATM   18  C   UNL     1       5.482   9.849  92.206  1.00  0.00     0.005 A 
HETATM   19  C   UNL     1       4.488   9.609  91.281  1.00  0.00     0.056 A 
HETATM   20  C   UNL     1       4.548   8.556  90.392  1.00  0.00     0.005 A 
HETATM   21  C   UNL     1       5.653   7.705  90.429  1.00  0.00     0.008 A 
BRANCH  19  22
HETATM   22  C   UNL     1       3.310  10.514  91.243  1.00  0.00     0.254 C 
HETATM   23  O   UNL     1       2.217  10.061  90.912  1.00  0.00    -0.268 OA
HETATM   24  N   UNL     1       3.541  11.830  91.618  1.00  0.00    -0.335 N 
HETATM   25  HN  UNL     1       4.467  12.126  91.903  1.00  0.00     0.164 HD
BRANCH  24  26
HETATM   26  C   UNL     1       2.496  12.821  91.655  1.00  0.00     0.169 C 
BRANCH  26  27
HETATM   27  C   UNL     1       2.416  13.548  93.003  1.00  0.00     0.138 C 
HETATM   28  C   UNL     1       3.762  14.112  93.444  1.00  0.00     0.034 C 
BRANCH  27  29
HETATM   29  O   UNL     1       1.473  14.615  92.914  1.00  0.00    -0.383 OA
HETATM   30  H   UNL     1       1.304  14.796  91.974  1.00  0.00     0.210 HD
ENDBRANCH  27  29
ENDBRANCH  26  27
BRANCH  26  31
HETATM   31  C   UNL     1       2.741  13.799  90.511  1.00  0.00     0.194 C 
HETATM   32  O   UNL     1       1.836  14.414  89.951  1.00  0.00    -0.289 OA
BRANCH  31  33
HETATM   33  C   UNL     1       4.069  13.875  90.168  1.00  0.00     0.053 C 
BRANCH  33  34
HETATM   34  C   UNL     1       4.342  13.942  88.795  1.00  0.00     0.220 C 
BRANCH  34  35
HETATM   35  O   UNL     1       5.303  14.718  88.635  1.00  0.00    -0.371 OA
HETATM   36  H   UNL     1       4.896  15.503  88.967  1.00  0.00     0.211 HD
ENDBRANCH  34  35
BRANCH  34  37
HETATM   37  C   UNL     1       4.567  12.685  88.207  1.00  0.00     0.185 C 
HETATM   38  O   UNL     1       5.825  12.935  88.535  1.00  0.00    -0.647 OA
BRANCH  37  39
HETATM   39  O   UNL     1       3.918  11.852  87.649  1.00  0.00    -0.774 OA
HETATM   40  H   UNL     1       4.221  11.743  86.562  1.00  0.00     0.167 HD
ENDBRANCH  37  39
ENDBRANCH  34  37
ENDBRANCH  33  34
ENDBRANCH  31  33
ENDBRANCH  26  31
ENDBRANCH  24  26
ENDBRANCH  19  22
ENDBRANCH  15  16
ENDBRANCH  11  14
ENDBRANCH   7   8
ENDBRANCH   2   7
TORSDOF 14
ENDMDL
