MODEL 1
REMARK VINA RESULT:      -6.8      0.000      0.000
REMARK  11 active torsions:
REMARK  status: ('A' for Active; 'I' for Inactive)
REMARK    1  A    between atoms: O_2  and  C_18 
REMARK    2  A    between atoms: O_5  and  P_8 
REMARK    3  A    between atoms: N_6  and  C_11 
REMARK    4  A    between atoms: N_7  and  C_15 
REMARK       I    between atoms: N_7  and  C_24 
REMARK    5  A    between atoms: P_8  and  C_23 
REMARK    6  A    between atoms: C_11  and  C_14 
REMARK    7  A    between atoms: C_15  and  C_18 
REMARK    8  A    between atoms: C_15  and  C_23 
REMARK    9  A    between atoms: C_21  and  C_26 
REMARK   10  A    between atoms: C_24  and  C_25 
REMARK   11  A    between atoms: C_29  and  C_32 
ROOT
HETATM    1  O   UNL     1      16.086   3.946  94.124  1.00  0.00     0.000 OA
HETATM    2  N   UNL     1      14.268   2.555  92.433  1.00  0.00     0.000 N 
HETATM    3  C   UNL     1      14.310   4.023  92.471  1.00  0.00     0.000 C 
HETATM    4  C   UNL     1      14.686   2.005  93.730  1.00  0.00     0.000 C 
HETATM    5  C   UNL     1      15.712   4.490  92.857  1.00  0.00     0.000 C 
HETATM    6  C   UNL     1      16.077   2.519  94.086  1.00  0.00     0.000 C 
ENDROOT
BRANCH   2   7
HETATM    7  C   UNL     1      12.930   2.085  92.076  1.00  0.00     0.000 C 
BRANCH   7   8
HETATM    8  C   UNL     1      11.998   3.206  91.769  1.00  0.00     0.000 A 
HETATM    9  C   UNL     1      11.230   3.773  92.788  1.00  0.00     0.000 A 
HETATM   10  C   UNL     1      10.356   4.821  92.501  1.00  0.00     0.000 A 
HETATM   11  C   UNL     1      10.250   5.303  91.197  1.00  0.00     0.000 A 
HETATM   12  C   UNL     1      11.016   4.738  90.179  1.00  0.00     0.000 A 
HETATM   13  C   UNL     1      11.890   3.690  90.465  1.00  0.00     0.000 A 
BRANCH  11  14
HETATM   14  C   UNL     1       9.354   6.379  90.904  1.00  0.00     0.000 C 
HETATM   15  C   UNL     1       8.602   7.284  90.658  1.00  0.00     0.000 C 
BRANCH  15  16
HETATM   16  C   UNL     1       7.708   8.360  90.364  1.00  0.00     0.000 A 
HETATM   17  C   UNL     1       6.354   8.102  90.150  1.00  0.00     0.000 A 
HETATM   18  C   UNL     1       5.481   9.152  89.866  1.00  0.00     0.000 A 
HETATM   19  C   UNL     1       5.980  10.436  89.804  1.00  0.00     0.000 A 
HETATM   20  C   UNL     1       7.315  10.717  90.012  1.00  0.00     0.000 A 
HETATM   21  C   UNL     1       8.188   9.668  90.295  1.00  0.00     0.000 A 
BRANCH  19  22
HETATM   22  C   UNL     1       5.050  11.554  89.500  1.00  0.00     0.000 C 
HETATM   23  O   UNL     1       4.735  11.772  88.333  1.00  0.00     0.000 OA
HETATM   24  N   UNL     1       4.581  12.269  90.594  1.00  0.00     0.000 N 
HETATM   25  HN  UNL     1       4.866  12.016  91.533  1.00  0.00     0.000 HD
BRANCH  24  26
HETATM   26  C   UNL     1       3.654  13.365  90.464  1.00  0.00     0.000 C 
BRANCH  26  27
HETATM   27  C   UNL     1       2.415  13.202  91.352  1.00  0.00     0.000 C 
HETATM   28  C   UNL     1       2.635  12.208  92.487  1.00  0.00     0.000 C 
BRANCH  27  29
HETATM   29  O   UNL     1       2.056  14.467  91.908  1.00  0.00     0.000 OA
HETATM   30  H   UNL     1       2.105  15.135  91.203  1.00  0.00     0.000 HD
ENDBRANCH  27  29
ENDBRANCH  26  27
BRANCH  26  31
HETATM   31  C   UNL     1       4.406  14.651  90.791  1.00  0.00     0.000 C 
HETATM   32  O   UNL     1       4.561  15.063  91.939  1.00  0.00     0.000 OA
BRANCH  31  33
HETATM   33  P   UNL     1       4.844  15.298  89.661  1.00  0.00     0.000 P 
HETATM   34  H   UNL     1       3.739  15.604  88.893  1.00  0.00     0.000 HD
BRANCH  33  35
HETATM   35  O   UNL     1       5.741  14.580  88.856  1.00  0.00     0.000 OA
HETATM   36  H   UNL     1       5.159  13.867  88.540  1.00  0.00     0.000 HD
ENDBRANCH  33  35
ENDBRANCH  31  33
ENDBRANCH  26  31
ENDBRANCH  24  26
ENDBRANCH  19  22
ENDBRANCH  15  16
ENDBRANCH  11  14
ENDBRANCH   7   8
ENDBRANCH   2   7
TORSDOF 11
ENDMDL
