MODEL 1
REMARK VINA RESULT:      -7.0      0.000      0.000
REMARK  10 active torsions:
REMARK  status: ('A' for Active; 'I' for Inactive)
REMARK    1  A    between atoms: O_2  and  C_16 
REMARK    2  A    between atoms: N_5  and  C_9 
REMARK    3  A    between atoms: N_6  and  C_13 
REMARK       I    between atoms: N_6  and  C_22 
REMARK    4  A    between atoms: C_9  and  C_12 
REMARK    5  A    between atoms: C_13  and  C_16 
REMARK    6  A    between atoms: C_13  and  C_21 
REMARK    7  A    between atoms: C_19  and  C_24 
REMARK    8  A    between atoms: C_22  and  C_23 
REMARK    9  A    between atoms: C_27  and  C_30 
REMARK   10  A    between atoms: N_33  and  S_34 
ROOT
HETATM    1  C   UNL     1       5.744  11.014  89.641  1.00  0.00     0.056 A 
HETATM    2  C   UNL     1       7.091  11.158  89.385  1.00  0.00     0.005 A 
HETATM    3  C   UNL     1       5.214   9.852  90.163  1.00  0.00     0.005 A 
HETATM    4  C   UNL     1       7.437   8.907  90.188  1.00  0.00     0.042 A 
HETATM    5  C   UNL     1       7.948  10.093  89.661  1.00  0.00     0.008 A 
HETATM    6  C   UNL     1       6.071   8.786  90.439  1.00  0.00     0.008 A 
ENDROOT
BRANCH   1   7
HETATM    7  C   UNL     1       4.832  12.150  89.349  1.00  0.00     0.254 C 
HETATM    8  O   UNL     1       4.637  12.477  88.181  1.00  0.00    -0.268 OA
HETATM    9  N   UNL     1       4.238  12.751  90.450  1.00  0.00    -0.337 N 
HETATM   10  HN  UNL     1       4.427  12.410  91.385  1.00  0.00     0.164 HD
BRANCH   9  11
HETATM   11  C   UNL     1       3.311  13.848  90.329  1.00  0.00     0.172 C 
BRANCH  11  12
HETATM   12  C   UNL     1       1.997  13.601  91.081  1.00  0.00     0.136 C 
HETATM   13  C   UNL     1       2.078  12.401  92.018  1.00  0.00     0.034 C 
BRANCH  12  14
HETATM   14  O   UNL     1       1.658  14.761  91.841  1.00  0.00    -0.383 OA
HETATM   15  H   UNL     1       1.157  15.365  91.268  1.00  0.00     0.210 HD
ENDBRANCH  12  14
ENDBRANCH  11  12
BRANCH  11  16
HETATM   16  C   UNL     1       4.010  15.106  90.832  1.00  0.00     0.398 A 
HETATM   17  O   UNL     1       5.159  15.408  90.512  1.00  0.00    -0.136 OA
HETATM   18  N   UNL     1       4.954  15.617  92.003  1.00  0.00     0.142 N 
HETATM   19  HN  UNL     1       5.883  15.927  91.941  1.00  0.00     0.338 HD
BRANCH  18  20
HETATM   20  S   UNL     1       4.163  15.240  93.083  1.00  0.00     0.076 SA
HETATM   21  H   UNL     1       4.601  14.393  93.792  1.00  0.00     0.136 HD
ENDBRANCH  18  20
ENDBRANCH  11  16
ENDBRANCH   9  11
ENDBRANCH   1   7
BRANCH   4  22
HETATM   22  C   UNL     1       8.315   7.814  90.468  1.00  0.00    -0.059 C 
HETATM   23  C   UNL     1       9.054   6.894  90.703  1.00  0.00    -0.059 C 
BRANCH  23  24
HETATM   24  C   UNL     1       9.933   5.801  90.983  1.00  0.00     0.042 A 
HETATM   25  C   UNL     1      10.753   5.292  89.977  1.00  0.00     0.008 A 
HETATM   26  C   UNL     1      11.609   4.225  90.249  1.00  0.00    -0.002 A 
HETATM   27  C   UNL     1      11.645   3.668  91.528  1.00  0.00     0.011 A 
HETATM   28  C   UNL     1      10.824   4.179  92.534  1.00  0.00    -0.002 A 
HETATM   29  C   UNL     1       9.968   5.246  92.261  1.00  0.00     0.008 A 
BRANCH  27  30
HETATM   30  C   UNL     1      12.561   2.529  91.818  1.00  0.00     0.277 C 
BRANCH  30  31
HETATM   31  N   UNL     1      13.582   2.873  92.807  1.00  0.00     0.147 N 
HETATM   32  C   UNL     1      14.436   1.713  93.098  1.00  0.00     0.283 C 
HETATM   33  C   UNL     1      15.500   2.099  94.123  1.00  0.00     0.178 C 
HETATM   34  O   UNL     1      16.286   3.189  93.638  1.00  0.00    -0.350 OA
HETATM   35  C   UNL     1      15.467   4.331  93.382  1.00  0.00     0.178 C 
HETATM   36  C   UNL     1      14.403   3.999  92.340  1.00  0.00     0.283 C 
ENDBRANCH  30  31
ENDBRANCH  27  30
ENDBRANCH  23  24
ENDBRANCH   4  22
TORSDOF 10
ENDMDL
