MODEL 1
REMARK VINA RESULT:      -6.5      0.000      0.000
REMARK  14 active torsions:
REMARK  status: ('A' for Active; 'I' for Inactive)
REMARK    1  A    between atoms: O_2  and  C_18 
REMARK    2  A    between atoms: C_5  and  C_8 
REMARK    3  A    between atoms: C_5  and  O_35 
REMARK    4  A    between atoms: C_5  and  C_36 
REMARK    5  A    between atoms: N_6  and  C_11 
REMARK    6  A    between atoms: N_7  and  C_15 
REMARK       I    between atoms: N_7  and  C_24 
REMARK    7  A    between atoms: C_8  and  C_23 
REMARK    8  A    between atoms: C_11  and  C_14 
REMARK    9  A    between atoms: C_15  and  C_18 
REMARK   10  A    between atoms: C_15  and  C_23 
REMARK   11  A    between atoms: C_21  and  C_26 
REMARK   12  A    between atoms: C_24  and  C_25 
REMARK   13  A    between atoms: C_29  and  C_32 
REMARK   14  A    between atoms: C_36  and  O_39 
ROOT
HETATM    1  O   UNL     1      16.821   3.788  93.811  1.00  0.00    -0.350 OA
HETATM    2  N   UNL     1      14.233   3.070  92.867  1.00  0.00     0.147 N 
HETATM    3  C   UNL     1      15.297   2.069  93.026  1.00  0.00     0.283 C 
HETATM    4  C   UNL     1      14.819   4.387  92.579  1.00  0.00     0.283 C 
HETATM    5  C   UNL     1      16.262   2.510  94.124  1.00  0.00     0.178 C 
HETATM    6  C   UNL     1      15.795   4.773  93.686  1.00  0.00     0.178 C 
ENDROOT
BRANCH   2   7
HETATM    7  C   UNL     1      13.303   2.673  91.812  1.00  0.00     0.277 C 
BRANCH   7   8
HETATM    8  C   UNL     1      12.127   3.585  91.719  1.00  0.00     0.011 A 
HETATM    9  C   UNL     1      11.496   4.029  92.882  1.00  0.00    -0.002 A 
HETATM   10  C   UNL     1      10.394   4.880  92.797  1.00  0.00     0.008 A 
HETATM   11  C   UNL     1       9.926   5.289  91.549  1.00  0.00     0.042 A 
HETATM   12  C   UNL     1      10.555   4.847  90.387  1.00  0.00     0.008 A 
HETATM   13  C   UNL     1      11.656   3.995  90.472  1.00  0.00    -0.002 A 
BRANCH  11  14
HETATM   14  C   UNL     1       8.797   6.164  91.461  1.00  0.00    -0.059 C 
HETATM   15  C   UNL     1       7.849   6.900  91.388  1.00  0.00    -0.059 C 
BRANCH  15  16
HETATM   16  C   UNL     1       6.722   7.775  91.300  1.00  0.00     0.042 A 
HETATM   17  C   UNL     1       5.593   7.386  90.579  1.00  0.00     0.008 A 
HETATM   18  C   UNL     1       4.492   8.238  90.495  1.00  0.00     0.005 A 
HETATM   19  C   UNL     1       4.545   9.459  91.135  1.00  0.00     0.056 A 
HETATM   20  C   UNL     1       5.649   9.867  91.854  1.00  0.00     0.005 A 
HETATM   21  C   UNL     1       6.750   9.015  91.938  1.00  0.00     0.008 A 
BRANCH  19  22
HETATM   22  C   UNL     1       3.372  10.368  91.044  1.00  0.00     0.254 C 
HETATM   23  O   UNL     1       2.358   9.982  90.468  1.00  0.00    -0.268 OA
HETATM   24  N   UNL     1       3.514  11.606  91.656  1.00  0.00    -0.335 N 
HETATM   25  HN  UNL     1       4.374  11.846  92.135  1.00  0.00     0.164 HD
BRANCH  24  26
HETATM   26  C   UNL     1       2.459  12.587  91.675  1.00  0.00     0.169 C 
BRANCH  26  27
HETATM   27  C   UNL     1       1.959  12.894  93.092  1.00  0.00     0.138 C 
HETATM   28  C   UNL     1       1.619  11.632  93.878  1.00  0.00     0.034 C 
BRANCH  27  29
HETATM   29  O   UNL     1       2.958  13.626  93.802  1.00  0.00    -0.383 OA
HETATM   30  H   UNL     1       2.787  13.530  94.754  1.00  0.00     0.210 HD
ENDBRANCH  27  29
ENDBRANCH  26  27
BRANCH  26  31
HETATM   31  C   UNL     1       2.979  13.844  90.986  1.00  0.00     0.194 C 
HETATM   32  O   UNL     1       3.194  14.896  91.585  1.00  0.00    -0.289 OA
BRANCH  31  33
HETATM   33  C   UNL     1       3.136  13.667  89.632  1.00  0.00     0.053 C 
BRANCH  33  34
HETATM   34  C   UNL     1       4.446  13.792  89.148  1.00  0.00     0.220 C 
BRANCH  34  35
HETATM   35  O   UNL     1       5.218  13.735  90.123  1.00  0.00    -0.371 OA
HETATM   36  H   UNL     1       4.633  13.310  90.732  1.00  0.00     0.211 HD
ENDBRANCH  34  35
BRANCH  34  37
HETATM   37  C   UNL     1       4.768  12.850  88.156  1.00  0.00     0.185 C 
HETATM   38  O   UNL     1       6.011  13.156  88.495  1.00  0.00    -0.647 OA
BRANCH  37  39
HETATM   39  O   UNL     1       4.177  12.166  87.375  1.00  0.00    -0.774 OA
HETATM   40  H   UNL     1       4.879  11.691  86.620  1.00  0.00     0.167 HD
ENDBRANCH  37  39
ENDBRANCH  34  37
ENDBRANCH  33  34
ENDBRANCH  31  33
ENDBRANCH  26  31
ENDBRANCH  24  26
ENDBRANCH  19  22
ENDBRANCH  15  16
ENDBRANCH  11  14
ENDBRANCH   7   8
ENDBRANCH   2   7
TORSDOF 14
ENDMDL
MODEL 2
REMARK VINA RESULT:      -4.7      3.002     12.244
REMARK  14 active torsions:
REMARK  status: ('A' for Active; 'I' for Inactive)
REMARK    1  A    between atoms: O_2  and  C_18 
REMARK    2  A    between atoms: C_5  and  C_8 
REMARK    3  A    between atoms: C_5  and  O_35 
REMARK    4  A    between atoms: C_5  and  C_36 
REMARK    5  A    between atoms: N_6  and  C_11 
REMARK    6  A    between atoms: N_7  and  C_15 
REMARK       I    between atoms: N_7  and  C_24 
REMARK    7  A    between atoms: C_8  and  C_23 
REMARK    8  A    between atoms: C_11  and  C_14 
REMARK    9  A    between atoms: C_15  and  C_18 
REMARK   10  A    between atoms: C_15  and  C_23 
REMARK   11  A    between atoms: C_21  and  C_26 
REMARK   12  A    between atoms: C_24  and  C_25 
REMARK   13  A    between atoms: C_29  and  C_32 
REMARK   14  A    between atoms: C_36  and  O_39 
ROOT
HETATM    1  O   UNL     1       3.076  14.759  94.078  1.00  0.00    -0.350 OA
HETATM    2  N   UNL     1       2.697  14.772  91.257  1.00  0.00     0.147 N 
HETATM    3  C   UNL     1       1.735  14.121  92.159  1.00  0.00     0.283 C 
HETATM    4  C   UNL     1       4.040  14.748  91.852  1.00  0.00     0.283 C 
HETATM    5  C   UNL     1       1.761  14.807  93.523  1.00  0.00     0.178 C 
HETATM    6  C   UNL     1       4.012  15.417  93.222  1.00  0.00     0.178 C 
ENDROOT
BRANCH   2   7
HETATM    7  C   UNL     1       2.697  14.124  89.947  1.00  0.00     0.277 C 
BRANCH   7   8
HETATM    8  C   UNL     1       3.677  13.004  89.867  1.00  0.00     0.011 A 
HETATM    9  C   UNL     1       3.325  11.737  90.334  1.00  0.00    -0.002 A 
HETATM   10  C   UNL     1       4.242  10.688  90.262  1.00  0.00     0.008 A 
HETATM   11  C   UNL     1       5.508  10.906  89.720  1.00  0.00     0.042 A 
HETATM   12  C   UNL     1       5.860  12.171  89.253  1.00  0.00     0.008 A 
HETATM   13  C   UNL     1       4.944  13.220  89.326  1.00  0.00    -0.002 A 
BRANCH  11  14
HETATM   14  C   UNL     1       6.448   9.830  89.644  1.00  0.00    -0.059 C 
HETATM   15  C   UNL     1       7.238   8.926  89.581  1.00  0.00    -0.059 C 
BRANCH  15  16
HETATM   16  C   UNL     1       8.177   7.850  89.506  1.00  0.00     0.042 A 
HETATM   17  C   UNL     1       7.772   6.550  89.807  1.00  0.00     0.008 A 
HETATM   18  C   UNL     1       8.687   5.500  89.731  1.00  0.00     0.005 A 
HETATM   19  C   UNL     1       9.986   5.774  89.355  1.00  0.00     0.056 A 
HETATM   20  C   UNL     1      10.411   7.051  89.052  1.00  0.00     0.005 A 
HETATM   21  C   UNL     1       9.496   8.101  89.128  1.00  0.00     0.008 A 
BRANCH  19  22
HETATM   22  C   UNL     1      10.961   4.656  89.276  1.00  0.00     0.254 C 
HETATM   23  O   UNL     1      11.068   4.026  88.227  1.00  0.00    -0.268 OA
HETATM   24  N   UNL     1      11.712   4.422  90.420  1.00  0.00    -0.335 N 
HETATM   25  HN  UNL     1      11.586   5.000  91.243  1.00  0.00     0.164 HD
BRANCH  24  26
HETATM   26  C   UNL     1      12.715   3.390  90.492  1.00  0.00     0.169 C 
BRANCH  26  27
HETATM   27  C   UNL     1      14.143   3.946  90.434  1.00  0.00     0.138 C 
HETATM   28  C   UNL     1      14.520   4.721  91.691  1.00  0.00     0.034 C 
BRANCH  27  29
HETATM   29  O   UNL     1      15.066   2.871  90.257  1.00  0.00    -0.383 OA
HETATM   30  H   UNL     1      15.928   3.148  90.612  1.00  0.00     0.210 HD
ENDBRANCH  27  29
ENDBRANCH  26  27
BRANCH  26  31
HETATM   31  C   UNL     1      12.479   2.600  91.775  1.00  0.00     0.194 C 
HETATM   32  O   UNL     1      13.315   1.835  92.254  1.00  0.00    -0.289 OA
BRANCH  31  33
HETATM   33  C   UNL     1      11.226   2.818  92.296  1.00  0.00     0.053 C 
BRANCH  33  34
HETATM   34  C   UNL     1      11.152   3.758  93.334  1.00  0.00     0.220 C 
BRANCH  34  35
HETATM   35  O   UNL     1      12.307   3.947  93.759  1.00  0.00    -0.371 OA
HETATM   36  H   UNL     1      12.669   4.351  92.985  1.00  0.00     0.211 HD
ENDBRANCH  34  35
BRANCH  34  37
HETATM   37  C   UNL     1      10.517   4.955  92.960  1.00  0.00     0.185 C 
HETATM   38  O   UNL     1       9.527   4.140  92.631  1.00  0.00    -0.647 OA
BRANCH  37  39
HETATM   39  O   UNL     1      10.794   6.117  92.925  1.00  0.00    -0.774 OA
HETATM   40  H   UNL     1       9.864   6.767  92.894  1.00  0.00     0.167 HD
ENDBRANCH  37  39
ENDBRANCH  34  37
ENDBRANCH  33  34
ENDBRANCH  31  33
ENDBRANCH  26  31
ENDBRANCH  24  26
ENDBRANCH  19  22
ENDBRANCH  15  16
ENDBRANCH  11  14
ENDBRANCH   7   8
ENDBRANCH   2   7
TORSDOF 14
ENDMDL
MODEL 3
REMARK VINA RESULT:      -3.6      1.601      2.182
REMARK  14 active torsions:
REMARK  status: ('A' for Active; 'I' for Inactive)
REMARK    1  A    between atoms: O_2  and  C_18 
REMARK    2  A    between atoms: C_5  and  C_8 
REMARK    3  A    between atoms: C_5  and  O_35 
REMARK    4  A    between atoms: C_5  and  C_36 
REMARK    5  A    between atoms: N_6  and  C_11 
REMARK    6  A    between atoms: N_7  and  C_15 
REMARK       I    between atoms: N_7  and  C_24 
REMARK    7  A    between atoms: C_8  and  C_23 
REMARK    8  A    between atoms: C_11  and  C_14 
REMARK    9  A    between atoms: C_15  and  C_18 
REMARK   10  A    between atoms: C_15  and  C_23 
REMARK   11  A    between atoms: C_21  and  C_26 
REMARK   12  A    between atoms: C_24  and  C_25 
REMARK   13  A    between atoms: C_29  and  C_32 
REMARK   14  A    between atoms: C_36  and  O_39 
ROOT
HETATM    1  O   UNL     1      15.651   3.637  90.814  1.00  0.00    -0.350 OA
HETATM    2  N   UNL     1      13.554   2.541  92.395  1.00  0.00     0.147 N 
HETATM    3  C   UNL     1      13.328   3.695  91.515  1.00  0.00     0.283 C 
HETATM    4  C   UNL     1      14.951   2.520  92.850  1.00  0.00     0.283 C 
HETATM    5  C   UNL     1      14.303   3.648  90.341  1.00  0.00     0.178 C 
HETATM    6  C   UNL     1      15.887   2.501  91.646  1.00  0.00     0.178 C 
ENDROOT
BRANCH   2   7
HETATM    7  C   UNL     1      12.637   2.571  93.534  1.00  0.00     0.277 C 
BRANCH   7   8
HETATM    8  C   UNL     1      11.555   3.583  93.365  1.00  0.00     0.011 A 
HETATM    9  C   UNL     1      10.529   3.358  92.445  1.00  0.00    -0.002 A 
HETATM   10  C   UNL     1       9.518   4.305  92.285  1.00  0.00     0.008 A 
HETATM   11  C   UNL     1       9.531   5.474  93.045  1.00  0.00     0.042 A 
HETATM   12  C   UNL     1      10.554   5.699  93.963  1.00  0.00     0.008 A 
HETATM   13  C   UNL     1      11.567   4.753  94.124  1.00  0.00    -0.002 A 
BRANCH  11  14
HETATM   14  C   UNL     1       8.492   6.444  92.882  1.00  0.00    -0.059 C 
HETATM   15  C   UNL     1       7.618   7.259  92.744  1.00  0.00    -0.059 C 
BRANCH  15  16
HETATM   16  C   UNL     1       6.579   8.227  92.580  1.00  0.00     0.042 A 
HETATM   17  C   UNL     1       5.450   7.915  91.823  1.00  0.00     0.008 A 
HETATM   18  C   UNL     1       4.435   8.860  91.666  1.00  0.00     0.005 A 
HETATM   19  C   UNL     1       4.572  10.092  92.269  1.00  0.00     0.056 A 
HETATM   20  C   UNL     1       5.679  10.425  93.022  1.00  0.00     0.005 A 
HETATM   21  C   UNL     1       6.694   9.481  93.179  1.00  0.00     0.008 A 
BRANCH  19  22
HETATM   22  C   UNL     1       3.492  11.098  92.100  1.00  0.00     0.254 C 
HETATM   23  O   UNL     1       2.342  10.802  92.416  1.00  0.00    -0.268 OA
HETATM   24  N   UNL     1       3.884  12.335  91.606  1.00  0.00    -0.335 N 
HETATM   25  HN  UNL     1       4.858  12.515  91.390  1.00  0.00     0.164 HD
BRANCH  24  26
HETATM   26  C   UNL     1       2.958  13.421  91.409  1.00  0.00     0.169 C 
BRANCH  26  27
HETATM   27  C   UNL     1       3.185  14.579  92.389  1.00  0.00     0.138 C 
HETATM   28  C   UNL     1       2.308  14.474  93.631  1.00  0.00     0.034 C 
BRANCH  27  29
HETATM   29  O   UNL     1       4.555  14.605  92.789  1.00  0.00    -0.383 OA
HETATM   30  H   UNL     1       4.643  14.087  93.606  1.00  0.00     0.210 HD
ENDBRANCH  27  29
ENDBRANCH  26  27
BRANCH  26  31
HETATM   31  C   UNL     1       3.085  13.885  89.962  1.00  0.00     0.194 C 
HETATM   32  O   UNL     1       2.196  14.500  89.375  1.00  0.00    -0.289 OA
BRANCH  31  33
HETATM   33  C   UNL     1       4.278  13.503  89.397  1.00  0.00     0.053 C 
BRANCH  33  34
HETATM   34  C   UNL     1       4.185  12.597  88.331  1.00  0.00     0.220 C 
BRANCH  34  35
HETATM   35  O   UNL     1       4.608  13.169  87.309  1.00  0.00    -0.371 OA
HETATM   36  H   UNL     1       5.382  13.559  87.685  1.00  0.00     0.211 HD
ENDBRANCH  34  35
BRANCH  34  37
HETATM   37  C   UNL     1       4.843  11.379  88.572  1.00  0.00     0.185 C 
HETATM   38  O   UNL     1       3.904  10.897  87.772  1.00  0.00    -0.647 OA
BRANCH  37  39
HETATM   39  O   UNL     1       5.767  10.999  89.227  1.00  0.00    -0.774 OA
HETATM   40  H   UNL     1       6.374  11.866  89.637  1.00  0.00     0.167 HD
ENDBRANCH  37  39
ENDBRANCH  34  37
ENDBRANCH  33  34
ENDBRANCH  31  33
ENDBRANCH  26  31
ENDBRANCH  24  26
ENDBRANCH  19  22
ENDBRANCH  15  16
ENDBRANCH  11  14
ENDBRANCH   7   8
ENDBRANCH   2   7
TORSDOF 14
ENDMDL
