MODEL 1
REMARK VINA RESULT:      -6.5      0.000      0.000
REMARK  14 active torsions:
REMARK  status: ('A' for Active; 'I' for Inactive)
REMARK    1  A    between atoms: O_2  and  C_18 
REMARK    2  A    between atoms: C_5  and  C_8 
REMARK    3  A    between atoms: C_5  and  O_35 
REMARK    4  A    between atoms: C_5  and  C_36 
REMARK    5  A    between atoms: N_6  and  C_11 
REMARK    6  A    between atoms: N_7  and  C_15 
REMARK       I    between atoms: N_7  and  C_24 
REMARK    7  A    between atoms: C_8  and  C_23 
REMARK    8  A    between atoms: C_11  and  C_14 
REMARK    9  A    between atoms: C_15  and  C_18 
REMARK   10  A    between atoms: C_15  and  C_23 
REMARK   11  A    between atoms: C_21  and  C_26 
REMARK   12  A    between atoms: C_24  and  C_25 
REMARK   13  A    between atoms: C_29  and  C_32 
REMARK   14  A    between atoms: C_36  and  O_39 
ROOT
HETATM    1  O   UNL     1      16.238   4.429  93.955  1.00  0.00    -0.350 OA
HETATM    2  N   UNL     1      14.474   2.745  92.488  1.00  0.00     0.147 N 
HETATM    3  C   UNL     1      14.435   4.207  92.346  1.00  0.00     0.283 C 
HETATM    4  C   UNL     1      14.943   2.382  93.832  1.00  0.00     0.283 C 
HETATM    5  C   UNL     1      15.814   4.792  92.640  1.00  0.00     0.178 C 
HETATM    6  C   UNL     1      16.309   3.010  94.091  1.00  0.00     0.178 C 
ENDROOT
BRANCH   2   7
HETATM    7  C   UNL     1      13.160   2.163  92.221  1.00  0.00     0.277 C 
BRANCH   7   8
HETATM    8  C   UNL     1      12.072   3.182  92.251  1.00  0.00     0.011 A 
HETATM    9  C   UNL     1      11.785   3.861  93.435  1.00  0.00    -0.002 A 
HETATM   10  C   UNL     1      10.766   4.813  93.464  1.00  0.00     0.008 A 
HETATM   11  C   UNL     1      10.035   5.086  92.308  1.00  0.00     0.042 A 
HETATM   12  C   UNL     1      10.321   4.409  91.125  1.00  0.00     0.008 A 
HETATM   13  C   UNL     1      11.340   3.456  91.095  1.00  0.00    -0.002 A 
BRANCH  11  14
HETATM   14  C   UNL     1       8.991   6.064  92.338  1.00  0.00    -0.059 C 
HETATM   15  C   UNL     1       8.114   6.886  92.363  1.00  0.00    -0.059 C 
BRANCH  15  16
HETATM   16  C   UNL     1       7.071   7.864  92.391  1.00  0.00     0.042 A 
HETATM   17  C   UNL     1       6.167   7.885  93.453  1.00  0.00     0.008 A 
HETATM   18  C   UNL     1       5.151   8.841  93.482  1.00  0.00     0.005 A 
HETATM   19  C   UNL     1       5.063   9.753  92.451  1.00  0.00     0.056 A 
HETATM   20  C   UNL     1       5.945   9.751  91.391  1.00  0.00     0.005 A 
HETATM   21  C   UNL     1       6.961   8.796  91.360  1.00  0.00     0.008 A 
BRANCH  19  22
HETATM   22  C   UNL     1       3.980  10.769  92.482  1.00  0.00     0.254 C 
HETATM   23  O   UNL     1       2.999  10.579  93.198  1.00  0.00    -0.268 OA
HETATM   24  N   UNL     1       4.180  11.895  91.695  1.00  0.00    -0.335 N 
HETATM   25  HN  UNL     1       5.027  11.994  91.148  1.00  0.00     0.164 HD
BRANCH  24  26
HETATM   26  C   UNL     1       3.232  12.979  91.637  1.00  0.00     0.169 C 
BRANCH  26  27
HETATM   27  C   UNL     1       3.597  14.137  92.574  1.00  0.00     0.138 C 
HETATM   28  C   UNL     1       4.643  15.068  91.972  1.00  0.00     0.034 C 
BRANCH  27  29
HETATM   29  O   UNL     1       2.425  14.892  92.879  1.00  0.00    -0.383 OA
HETATM   30  H   UNL     1       2.505  15.225  93.788  1.00  0.00     0.210 HD
ENDBRANCH  27  29
ENDBRANCH  26  27
BRANCH  26  31
HETATM   31  C   UNL     1       3.146  13.445  90.187  1.00  0.00     0.194 C 
HETATM   32  O   UNL     1       2.270  14.206  89.779  1.00  0.00    -0.289 OA
BRANCH  31  33
HETATM   33  C   UNL     1       4.127  12.887  89.403  1.00  0.00     0.053 C 
BRANCH  33  34
HETATM   34  C   UNL     1       3.714  12.425  88.146  1.00  0.00     0.220 C 
BRANCH  34  35
HETATM   35  O   UNL     1       4.638  12.640  87.339  1.00  0.00    -0.371 OA
HETATM   36  H   UNL     1       4.767  13.558  87.526  1.00  0.00     0.211 HD
ENDBRANCH  34  35
BRANCH  34  37
HETATM   37  C   UNL     1       3.310  11.079  88.149  1.00  0.00     0.185 C 
HETATM   38  O   UNL     1       4.614  10.855  88.198  1.00  0.00    -0.647 OA
BRANCH  37  39
HETATM   39  O   UNL     1       2.282  10.475  88.086  1.00  0.00    -0.774 OA
HETATM   40  H   UNL     1       2.044  10.163  87.021  1.00  0.00     0.167 HD
ENDBRANCH  37  39
ENDBRANCH  34  37
ENDBRANCH  33  34
ENDBRANCH  31  33
ENDBRANCH  26  31
ENDBRANCH  24  26
ENDBRANCH  19  22
ENDBRANCH  15  16
ENDBRANCH  11  14
ENDBRANCH   7   8
ENDBRANCH   2   7
TORSDOF 14
ENDMDL
