MODEL 1
REMARK VINA RESULT:      -6.9      0.000      0.000
REMARK  10 active torsions:
REMARK  status: ('A' for Active; 'I' for Inactive)
REMARK    1  A    between atoms: O_2  and  C_16 
REMARK    2  A    between atoms: N_5  and  C_9 
REMARK    3  A    between atoms: N_6  and  C_13 
REMARK       I    between atoms: N_6  and  C_22 
REMARK    4  A    between atoms: C_9  and  C_12 
REMARK    5  A    between atoms: C_13  and  C_16 
REMARK    6  A    between atoms: C_13  and  C_21 
REMARK    7  A    between atoms: C_19  and  C_24 
REMARK    8  A    between atoms: C_22  and  C_23 
REMARK    9  A    between atoms: C_27  and  C_30 
REMARK   10  A    between atoms: N_33  and  S_34 
ROOT
HETATM    1  C   UNL     1       5.433  10.658  89.320  1.00  0.00     0.056 A 
HETATM    2  C   UNL     1       4.989   9.352  89.306  1.00  0.00     0.005 A 
HETATM    3  C   UNL     1       6.740  10.987  89.615  1.00  0.00     0.005 A 
HETATM    4  C   UNL     1       7.217   8.637  89.901  1.00  0.00     0.042 A 
HETATM    5  C   UNL     1       5.890   8.329  89.600  1.00  0.00     0.008 A 
HETATM    6  C   UNL     1       7.643   9.965  89.909  1.00  0.00     0.008 A 
ENDROOT
BRANCH   1   7
HETATM    7  C   UNL     1       4.473  11.747  89.005  1.00  0.00     0.254 C 
HETATM    8  O   UNL     1       4.131  11.926  87.839  1.00  0.00    -0.268 OA
HETATM    9  N   UNL     1       4.008  12.480  90.088  1.00  0.00    -0.337 N 
HETATM   10  HN  UNL     1       4.316  12.258  91.028  1.00  0.00     0.164 HD
BRANCH   9  11
HETATM   11  C   UNL     1       3.055  13.551  89.948  1.00  0.00     0.172 C 
BRANCH  11  12
HETATM   12  C   UNL     1       1.927  13.482  90.985  1.00  0.00     0.136 C 
HETATM   13  C   UNL     1       2.264  12.564  92.155  1.00  0.00     0.034 C 
BRANCH  12  14
HETATM   14  O   UNL     1       1.657  14.791  91.486  1.00  0.00    -0.383 OA
HETATM   15  H   UNL     1       1.412  14.714  92.423  1.00  0.00     0.210 HD
ENDBRANCH  12  14
ENDBRANCH  11  12
BRANCH  11  16
HETATM   16  C   UNL     1       3.817  14.868  90.046  1.00  0.00     0.398 A 
HETATM   17  O   UNL     1       4.832  15.105  89.393  1.00  0.00    -0.136 OA
HETATM   18  N   UNL     1       5.015  15.553  90.834  1.00  0.00     0.142 N 
HETATM   19  HN  UNL     1       5.884  15.842  90.483  1.00  0.00     0.338 HD
BRANCH  18  20
HETATM   20  S   UNL     1       4.545  15.361  92.128  1.00  0.00     0.076 SA
HETATM   21  H   UNL     1       4.245  14.250  92.425  1.00  0.00     0.136 HD
ENDBRANCH  18  20
ENDBRANCH  11  16
ENDBRANCH   9  11
ENDBRANCH   1   7
BRANCH   4  22
HETATM   22  C   UNL     1       8.141   7.588  90.205  1.00  0.00    -0.059 C 
HETATM   23  C   UNL     1       8.918   6.707  90.460  1.00  0.00    -0.059 C 
BRANCH  23  24
HETATM   24  C   UNL     1       9.843   5.659  90.764  1.00  0.00     0.042 A 
HETATM   25  C   UNL     1      10.627   5.106  89.751  1.00  0.00     0.008 A 
HETATM   26  C   UNL     1      11.527   4.083  90.047  1.00  0.00    -0.002 A 
HETATM   27  C   UNL     1      11.645   3.614  91.356  1.00  0.00     0.011 A 
HETATM   28  C   UNL     1      10.861   4.168  92.367  1.00  0.00    -0.002 A 
HETATM   29  C   UNL     1       9.960   5.191  92.071  1.00  0.00     0.008 A 
BRANCH  27  30
HETATM   30  C   UNL     1      12.609   2.522  91.671  1.00  0.00     0.277 C 
BRANCH  30  31
HETATM   31  N   UNL     1      13.570   2.908  92.702  1.00  0.00     0.147 N 
HETATM   32  C   UNL     1      14.439   1.776  93.054  1.00  0.00     0.283 C 
HETATM   33  C   UNL     1      15.440   2.205  94.124  1.00  0.00     0.178 C 
HETATM   34  O   UNL     1      16.221   3.308  93.660  1.00  0.00    -0.350 OA
HETATM   35  C   UNL     1      15.386   4.423  93.345  1.00  0.00     0.178 C 
HETATM   36  C   UNL     1      14.384   4.048  92.258  1.00  0.00     0.283 C 
ENDBRANCH  30  31
ENDBRANCH  27  30
ENDBRANCH  23  24
ENDBRANCH   4  22
TORSDOF 10
ENDMDL
