MODEL 1
REMARK VINA RESULT:      -7.0      0.000      0.000
REMARK  14 active torsions:
REMARK  status: ('A' for Active; 'I' for Inactive)
REMARK    1  A    between atoms: O_2  and  C_18 
REMARK    2  A    between atoms: C_5  and  C_8 
REMARK    3  A    between atoms: C_5  and  O_35 
REMARK    4  A    between atoms: C_5  and  C_36 
REMARK    5  A    between atoms: N_6  and  C_11 
REMARK    6  A    between atoms: N_7  and  C_15 
REMARK       I    between atoms: N_7  and  C_24 
REMARK    7  A    between atoms: C_8  and  C_23 
REMARK    8  A    between atoms: C_11  and  C_14 
REMARK    9  A    between atoms: C_15  and  C_18 
REMARK   10  A    between atoms: C_15  and  C_23 
REMARK   11  A    between atoms: C_21  and  C_26 
REMARK   12  A    between atoms: C_24  and  C_25 
REMARK   13  A    between atoms: C_29  and  C_32 
REMARK   14  A    between atoms: C_36  and  O_39 
ROOT
HETATM    1  O   UNL     1      16.341   4.246  94.124  1.00  0.00    -0.350 OA
HETATM    2  N   UNL     1      14.518   2.772  92.510  1.00  0.00     0.147 N 
HETATM    3  C   UNL     1      14.524   4.241  92.515  1.00  0.00     0.283 C 
HETATM    4  C   UNL     1      14.982   2.262  93.808  1.00  0.00     0.283 C 
HETATM    5  C   UNL     1      15.922   4.751  92.855  1.00  0.00     0.178 C 
HETATM    6  C   UNL     1      16.368   2.819  94.118  1.00  0.00     0.178 C 
ENDROOT
BRANCH   2   7
HETATM    7  C   UNL     1      13.185   2.260  92.198  1.00  0.00     0.277 C 
BRANCH   7   8
HETATM    8  C   UNL     1      12.151   3.334  92.197  1.00  0.00     0.011 A 
HETATM    9  C   UNL     1      11.506   3.680  91.009  1.00  0.00    -0.002 A 
HETATM   10  C   UNL     1      10.540   4.686  91.007  1.00  0.00     0.008 A 
HETATM   11  C   UNL     1      10.217   5.343  92.194  1.00  0.00     0.042 A 
HETATM   12  C   UNL     1      10.859   4.998  93.381  1.00  0.00     0.008 A 
HETATM   13  C   UNL     1      11.826   3.993  93.383  1.00  0.00    -0.002 A 
BRANCH  11  14
HETATM   14  C   UNL     1       9.224   6.373  92.192  1.00  0.00    -0.059 C 
HETATM   15  C   UNL     1       8.389   7.238  92.191  1.00  0.00    -0.059 C 
BRANCH  15  16
HETATM   16  C   UNL     1       7.397   8.268  92.190  1.00  0.00     0.042 A 
HETATM   17  C   UNL     1       7.692   9.519  92.732  1.00  0.00     0.008 A 
HETATM   18  C   UNL     1       6.724  10.524  92.729  1.00  0.00     0.005 A 
HETATM   19  C   UNL     1       5.486  10.256  92.184  1.00  0.00     0.056 A 
HETATM   20  C   UNL     1       5.170   9.027  91.643  1.00  0.00     0.005 A 
HETATM   21  C   UNL     1       6.137   8.022  91.645  1.00  0.00     0.008 A 
BRANCH  19  22
HETATM   22  C   UNL     1       4.455  11.326  92.182  1.00  0.00     0.254 C 
HETATM   23  O   UNL     1       3.331  11.077  92.609  1.00  0.00    -0.268 OA
HETATM   24  N   UNL     1       4.865  12.565  91.708  1.00  0.00    -0.335 N 
HETATM   25  HN  UNL     1       5.819  12.704  91.395  1.00  0.00     0.164 HD
BRANCH  24  26
HETATM   26  C   UNL     1       3.989  13.708  91.666  1.00  0.00     0.169 C 
BRANCH  26  27
HETATM   27  C   UNL     1       3.955  14.478  92.992  1.00  0.00     0.138 C 
HETATM   28  C   UNL     1       2.596  15.113  93.263  1.00  0.00     0.034 C 
BRANCH  27  29
HETATM   29  O   UNL     1       4.276  13.595  94.066  1.00  0.00    -0.383 OA
HETATM   30  H   UNL     1       4.058  12.688  93.791  1.00  0.00     0.210 HD
ENDBRANCH  27  29
ENDBRANCH  26  27
BRANCH  26  31
HETATM   31  C   UNL     1       4.445  14.602  90.517  1.00  0.00     0.194 C 
HETATM   32  O   UNL     1       5.195  15.564  90.674  1.00  0.00    -0.289 OA
BRANCH  31  33
HETATM   33  C   UNL     1       3.891  14.227  89.317  1.00  0.00     0.053 C 
BRANCH  33  34
HETATM   34  C   UNL     1       4.730  13.505  88.457  1.00  0.00     0.220 C 
BRANCH  34  35
HETATM   35  O   UNL     1       5.879  13.531  88.936  1.00  0.00    -0.371 OA
HETATM   36  H   UNL     1       6.347  13.763  88.148  1.00  0.00     0.211 HD
ENDBRANCH  34  35
BRANCH  34  37
HETATM   37  C   UNL     1       4.285  12.195  88.210  1.00  0.00     0.185 C 
HETATM   38  O   UNL     1       5.364  11.868  88.904  1.00  0.00    -0.647 OA
BRANCH  37  39
HETATM   39  O   UNL     1       3.390  11.674  87.615  1.00  0.00    -0.774 OA
HETATM   40  H   UNL     1       2.524  12.389  87.450  1.00  0.00     0.167 HD
ENDBRANCH  37  39
ENDBRANCH  34  37
ENDBRANCH  33  34
ENDBRANCH  31  33
ENDBRANCH  26  31
ENDBRANCH  24  26
ENDBRANCH  19  22
ENDBRANCH  15  16
ENDBRANCH  11  14
ENDBRANCH   7   8
ENDBRANCH   2   7
TORSDOF 14
ENDMDL
