MODEL 1
REMARK VINA RESULT:      -6.1      0.000      0.000
REMARK  12 active torsions:
REMARK  status: ('A' for Active; 'I' for Inactive)
REMARK    1  A    between atoms: O_2  and  C_16 
REMARK    2  A    between atoms: N_5  and  C_9 
REMARK    3  A    between atoms: N_6  and  C_13 
REMARK       I    between atoms: N_6  and  C_22 
REMARK    4  A    between atoms: C_9  and  C_12 
REMARK    5  A    between atoms: C_13  and  C_16 
REMARK    6  A    between atoms: C_13  and  C_21 
REMARK    7  A    between atoms: C_19  and  C_24 
REMARK    8  A    between atoms: C_21  and  C_33 
REMARK    9  A    between atoms: C_22  and  C_23 
REMARK   10  A    between atoms: C_27  and  C_30 
REMARK   11  A    between atoms: C_33  and  C_34 
REMARK   12  A    between atoms: C_34  and  C_35 
ROOT
HETATM    1  O   UNL     1      16.749   3.642  93.806  1.00  0.00    -0.350 OA
HETATM    2  N   UNL     1      14.160   3.180  92.717  1.00  0.00     0.147 N 
HETATM    3  C   UNL     1      15.092   2.074  92.980  1.00  0.00     0.283 C 
HETATM    4  C   UNL     1      14.909   4.410  92.425  1.00  0.00     0.283 C 
HETATM    5  C   UNL     1      16.030   2.449  94.124  1.00  0.00     0.178 C 
HETATM    6  C   UNL     1      15.852   4.729  93.580  1.00  0.00     0.178 C 
ENDROOT
BRANCH   2   7
HETATM    7  C   UNL     1      13.258   2.846  91.617  1.00  0.00     0.277 C 
BRANCH   7   8
HETATM    8  C   UNL     1      12.066   3.741  91.568  1.00  0.00     0.011 A 
HETATM    9  C   UNL     1      11.684   4.327  90.361  1.00  0.00    -0.002 A 
HETATM   10  C   UNL     1      10.571   5.166  90.315  1.00  0.00     0.008 A 
HETATM   11  C   UNL     1       9.840   5.417  91.475  1.00  0.00     0.042 A 
HETATM   12  C   UNL     1      10.221   4.833  92.681  1.00  0.00     0.008 A 
HETATM   13  C   UNL     1      11.334   3.994  92.728  1.00  0.00    -0.002 A 
BRANCH  11  14
HETATM   14  C   UNL     1       8.697   6.276  91.427  1.00  0.00    -0.059 C 
HETATM   15  C   UNL     1       7.736   6.998  91.387  1.00  0.00    -0.059 C 
BRANCH  15  16
HETATM   16  C   UNL     1       6.594   7.857  91.340  1.00  0.00     0.042 A 
HETATM   17  C   UNL     1       5.451   7.458  90.647  1.00  0.00     0.008 A 
HETATM   18  C   UNL     1       4.335   8.295  90.603  1.00  0.00     0.005 A 
HETATM   19  C   UNL     1       4.388   9.510  91.254  1.00  0.00     0.056 A 
HETATM   20  C   UNL     1       5.506   9.927  91.946  1.00  0.00     0.005 A 
HETATM   21  C   UNL     1       6.621   9.091  91.990  1.00  0.00     0.008 A 
BRANCH  19  22
HETATM   22  C   UNL     1       3.200  10.401  91.206  1.00  0.00     0.254 C 
HETATM   23  O   UNL     1       2.106   9.928  90.910  1.00  0.00    -0.268 OA
HETATM   24  N   UNL     1       3.425  11.731  91.532  1.00  0.00    -0.335 N 
HETATM   25  HN  UNL     1       4.353  12.046  91.792  1.00  0.00     0.164 HD
BRANCH  24  26
HETATM   26  C   UNL     1       2.371  12.713  91.555  1.00  0.00     0.166 C 
BRANCH  26  27
HETATM   27  C   UNL     1       1.887  13.032  92.975  1.00  0.00     0.138 C 
HETATM   28  C   UNL     1       3.032  13.108  93.979  1.00  0.00     0.034 C 
BRANCH  27  29
HETATM   29  O   UNL     1       1.189  14.277  92.973  1.00  0.00    -0.383 OA
HETATM   30  H   UNL     1       1.338  14.709  92.115  1.00  0.00     0.210 HD
ENDBRANCH  27  29
ENDBRANCH  26  27
BRANCH  26  31
HETATM   31  C   UNL     1       2.885  13.965  90.850  1.00  0.00     0.181 C 
HETATM   32  O   UNL     1       2.573  15.103  91.195  1.00  0.00    -0.294 OA
BRANCH  31  33
HETATM   33  C   UNL     1       4.500  13.959  90.714  1.00  0.00     0.138 C 
BRANCH  33  34
HETATM   34  C   UNL     1       4.663  14.380  89.376  1.00  0.00     0.208 C 
HETATM   35  O   UNL     1       4.930  15.549  89.214  1.00  0.00    -0.289 OA
BRANCH  34  36
HETATM   36  C   UNL     1       4.856  13.652  88.234  1.00  0.00     0.194 C 
HETATM   37  O   UNL     1       4.865  12.267  88.035  1.00  0.00    -0.185 OA
ENDBRANCH  34  36
ENDBRANCH  33  34
ENDBRANCH  31  33
ENDBRANCH  26  31
ENDBRANCH  24  26
ENDBRANCH  19  22
ENDBRANCH  15  16
ENDBRANCH  11  14
ENDBRANCH   7   8
ENDBRANCH   2   7
TORSDOF 12
ENDMDL
