MODEL 1
REMARK VINA RESULT:      -7.5      0.000      0.000
REMARK  9 active torsions:
REMARK  status: ('A' for Active; 'I' for Inactive)
REMARK    1  A    between atoms: N_3  and  C_6 
REMARK    2  A    between atoms: C_6  and  C_9 
REMARK    3  A    between atoms: C_14  and  C_17 
REMARK       I    between atoms: N_26  and  C_15 
REMARK    4  A    between atoms: C_15  and  C_16 
REMARK    5  A    between atoms: C_20  and  C_23 
REMARK    6  A    between atoms: OG1_24  and  CB_28 
REMARK    7  A    between atoms: N_26  and  CA_27 
REMARK    8  A    between atoms: CA_27  and  CB_28 
REMARK    9  A    between atoms: CA_27  and  C_30 
ROOT
HETATM    1  O   UNK A   0       1.933   8.081  87.863  1.00  0.00    -0.388 OA
HETATM    2  N   UNK A   0       4.730   7.575  87.710  1.00  0.00     0.096 N 
HETATM    3  C   UNK A   0       4.200   8.944  87.789  1.00  0.00     0.299 C 
HETATM    4  C   UNK A   0       3.752   6.694  87.057  1.00  0.00     0.299 C 
HETATM    5  C   UNK A   0       2.863   8.939  88.527  1.00  0.00     0.198 C 
HETATM    6  C   UNK A   0       2.427   6.742  87.810  1.00  0.00     0.198 C 
ENDROOT
BRANCH   2   7
HETATM    7  C   UNK A   0       6.006   7.555  86.998  1.00  0.00     0.311 C 
BRANCH   7   8
HETATM    8  C   UNK A   0       7.101   6.954  87.811  1.00  0.00    -0.030 A 
HETATM    9  C   UNK A   0       6.908   6.719  89.173  1.00  0.00     0.010 A 
HETATM   10  C   UNK A   0       7.933   6.159  89.936  1.00  0.00     0.021 A 
HETATM   11  C   UNK A   0       9.149   5.833  89.336  1.00  0.00     0.018 A 
HETATM   12  C   UNK A   0       9.343   6.068  87.977  1.00  0.00     0.021 A 
HETATM   13  C   UNK A   0       8.318   6.628  87.213  1.00  0.00     0.010 A 
BRANCH  11  14
HETATM   14  C   UNK A   0      10.199   5.257  90.119  1.00  0.00    -0.061 C 
HETATM   15  C   UNK A   0      11.082   4.772  90.776  1.00  0.00    -0.061 C 
BRANCH  15  16
HETATM   16  C   UNK A   0      12.132   4.196  91.557  1.00  0.00     0.018 A 
HETATM   17  C   UNK A   0      13.385   3.975  90.984  1.00  0.00     0.022 A 
HETATM   18  C   UNK A   0      14.410   3.416  91.747  1.00  0.00     0.018 A 
HETATM   19  C   UNK A   0      14.160   3.091  93.064  1.00  0.00     0.032 A 
HETATM   20  C   UNK A   0      12.930   3.299  93.652  1.00  0.00     0.018 A 
HETATM   21  C   UNK A   0      11.904   3.858  92.891  1.00  0.00     0.022 A 
BRANCH  19  22
HETATM   22  C   UNK A   0      15.251   2.493  93.875  1.00  0.00     0.252 C 
HETATM   23  O   UNK A   0      16.398   2.911  93.738  1.00  0.00    -0.268 OA
ENDBRANCH  19  22
ENDBRANCH  15  16
ENDBRANCH  11  14
ENDBRANCH   7   8
ENDBRANCH   2   7
TORSDOF 9
ENDMDL
