MODEL 1
REMARK VINA RESULT:      -7.1      0.000      0.000
REMARK  10 active torsions:
REMARK  status: ('A' for Active; 'I' for Inactive)
REMARK    1  A    between atoms: O_2  and  C_18 
REMARK    2  A    between atoms: O_5  and  N_8 
REMARK    3  A    between atoms: N_6  and  C_11 
REMARK    4  A    between atoms: N_7  and  C_15 
REMARK       I    between atoms: N_7  and  C_24 
REMARK       I    between atoms: N_8  and  C_23 
REMARK    5  A    between atoms: C_11  and  C_14 
REMARK    6  A    between atoms: C_15  and  C_18 
REMARK    7  A    between atoms: C_15  and  C_23 
REMARK    8  A    between atoms: C_21  and  C_26 
REMARK    9  A    between atoms: C_24  and  C_25 
REMARK   10  A    between atoms: C_29  and  C_32 
ROOT
HETATM    1  O   UNK     0      16.544   4.335  94.099  0.00  0.00    -0.388 OA
HETATM    2  N   UNK     0      14.757   2.599  92.721  0.00  0.00     0.096 N 
HETATM    3  C   UNK     0      14.587   4.059  92.690  0.00  0.00     0.299 C 
HETATM    4  C   UNK     0      15.407   2.195  93.974  0.00  0.00     0.299 C 
HETATM    5  C   UNK     0      15.941   4.741  92.868  0.00  0.00     0.198 C 
HETATM    6  C   UNK     0      16.741   2.920  94.124  0.00  0.00     0.198 C 
ENDROOT
BRANCH   2   7
HETATM    7  C   UNK     0      13.470   1.925  92.561  0.00  0.00     0.311 C 
BRANCH   7   8
HETATM    8  C   UNK     0      12.369   2.873  92.230  0.00  0.00    -0.030 A 
HETATM    9  C   UNK     0      11.946   3.015  90.907  0.00  0.00     0.010 A 
HETATM   10  C   UNK     0      10.918   3.904  90.595  0.00  0.00     0.021 A 
HETATM   11  C   UNK     0      10.311   4.648  91.606  0.00  0.00     0.018 A 
HETATM   12  C   UNK     0      10.732   4.508  92.927  0.00  0.00     0.021 A 
HETATM   13  C   UNK     0      11.761   3.620  93.239  0.00  0.00     0.010 A 
BRANCH  11  14
HETATM   14  C   UNK     0       9.254   5.558  91.286  0.00  0.00    -0.061 C 
HETATM   15  C   UNK     0       8.366   6.323  91.017  0.00  0.00    -0.061 C 
BRANCH  15  16
HETATM   16  C   UNK     0       7.312   7.233  90.698  0.00  0.00     0.018 A 
HETATM   17  C   UNK     0       7.468   8.597  90.949  0.00  0.00     0.022 A 
HETATM   18  C   UNK     0       6.439   9.485  90.636  0.00  0.00     0.018 A 
HETATM   19  C   UNK     0       5.278   8.992  90.080  0.00  0.00     0.032 A 
HETATM   20  C   UNK     0       5.098   7.649  89.823  0.00  0.00     0.018 A 
HETATM   21  C   UNK     0       6.126   6.760  90.136  0.00  0.00     0.022 A 
BRANCH  19  22
HETATM   22  C   UNK     0       4.182   9.939  89.749  0.00  0.00     0.252 C 
HETATM   23  O   UNK     0       3.173   9.516  89.188  0.00  0.00    -0.268 OA
HETATM   24  N   UNK     0       4.381  11.258  90.132  0.00  0.00    -0.341 N 
HETATM   25  H   UNK     0       5.230  11.529  90.615  0.00  0.00     0.163 HD
BRANCH  24  26
HETATM   26  C   UNK     0       3.401  12.288  89.903  0.00  0.00     0.207 C 
BRANCH  26  27
HETATM   27  C   UNK     0       2.958  12.984  91.197  0.00  0.00     0.146 C 
HETATM   28  C   UNK     0       2.245  12.036  92.155  0.00  0.00     0.042 C 
BRANCH  27  29
HETATM   29  O   UNK     0       4.096  13.538  91.855  0.00  0.00    -0.393 OA
HETATM   30  H   UNK     0       4.890  13.085  91.524  0.00  0.00     0.210 HD
ENDBRANCH  27  29
ENDBRANCH  26  27
BRANCH  26  31
HETATM   31  C   UNK     0       3.995  13.285  88.914  0.00  0.00     0.266 C 
HETATM   32  O   UNK     0       4.164  14.473  89.180  0.00  0.00    -0.269 OA
HETATM   33  N   UNK     0       4.275  12.706  87.699  0.00  0.00    -0.236 N 
HETATM   34  H   UNK     0       4.066  11.755  87.418  0.00  0.00     0.197 HD
BRANCH  33  35
HETATM   35  O   UNK     0       4.790  13.565  86.718  0.00  0.00    -0.287 OA
HETATM   36  H   UNK     0       5.477  14.024  87.231  0.00  0.00     0.244 HD
ENDBRANCH  33  35
ENDBRANCH  26  31
ENDBRANCH  24  26
ENDBRANCH  19  22
ENDBRANCH  15  16
ENDBRANCH  11  14
ENDBRANCH   7   8
ENDBRANCH   2   7
TORSDOF 10
ENDMDL
