MODEL 1
REMARK VINA RESULT:      -7.1      0.000      0.000
REMARK  9 active torsions:
REMARK  status: ('A' for Active; 'I' for Inactive)
REMARK    1  A    between atoms: O_2  and  C_17 
REMARK    2  A    between atoms: N_5  and  C_10 
REMARK    3  A    between atoms: N_6  and  C_14 
REMARK       I    between atoms: N_6  and  C_23 
REMARK       I    between atoms: N_7  and  C_22 
REMARK    4  A    between atoms: C_10  and  C_13 
REMARK    5  A    between atoms: C_14  and  C_17 
REMARK    6  A    between atoms: C_14  and  C_22 
REMARK    7  A    between atoms: C_20  and  C_25 
REMARK    8  A    between atoms: C_23  and  C_24 
REMARK    9  A    between atoms: C_28  and  C_31 
ROOT
HETATM    1  O   UNL     1      17.152   4.302  93.855  1.00  0.00    -0.388 OA
HETATM    2  N   UNL     1      14.729   2.856  93.479  1.00  0.00     0.096 N 
HETATM    3  C   UNL     1      16.040   2.234  93.244  1.00  0.00     0.299 C 
HETATM    4  C   UNL     1      14.808   4.303  93.232  1.00  0.00     0.299 C 
HETATM    5  C   UNL     1      17.094   2.900  94.124  1.00  0.00     0.198 C 
HETATM    6  C   UNL     1      15.891   4.920  94.111  1.00  0.00     0.198 C 
ENDROOT
BRANCH   2   7
HETATM    7  C   UNL     1      13.705   2.240  92.638  1.00  0.00     0.311 C 
BRANCH   7   8
HETATM    8  C   UNL     1      12.658   3.213  92.214  1.00  0.00    -0.030 A 
HETATM    9  C   UNL     1      11.759   3.722  93.152  1.00  0.00     0.010 A 
HETATM   10  C   UNL     1      10.778   4.631  92.756  1.00  0.00     0.021 A 
HETATM   11  C   UNL     1      10.697   5.031  91.423  1.00  0.00     0.018 A 
HETATM   12  C   UNL     1      11.593   4.523  90.485  1.00  0.00     0.021 A 
HETATM   13  C   UNL     1      12.575   3.614  90.880  1.00  0.00     0.010 A 
BRANCH  11  14
HETATM   14  C   UNL     1       9.691   5.964  91.017  1.00  0.00    -0.061 C 
HETATM   15  C   UNL     1       8.846   6.748  90.677  1.00  0.00    -0.061 C 
BRANCH  15  16
HETATM   16  C   UNL     1       7.841   7.682  90.272  1.00  0.00     0.018 A 
HETATM   17  C   UNL     1       6.835   7.284  89.391  1.00  0.00     0.022 A 
HETATM   18  C   UNL     1       5.854   8.194  88.999  1.00  0.00     0.018 A 
HETATM   19  C   UNL     1       5.899   9.479  89.496  1.00  0.00     0.032 A 
HETATM   20  C   UNL     1       6.883   9.897  90.367  1.00  0.00     0.018 A 
HETATM   21  C   UNL     1       7.865   8.988  90.760  1.00  0.00     0.022 A 
BRANCH  19  22
HETATM   22  C   UNL     1       4.854  10.449  89.076  1.00  0.00     0.252 C 
HETATM   23  O   UNL     1       3.940  10.068  88.348  1.00  0.00    -0.268 OA
HETATM   24  N   UNL     1       4.986  11.738  89.573  1.00  0.00    -0.342 N 
HETATM   25  H   UNL     1       5.754  11.974  90.190  1.00  0.00     0.163 HD
BRANCH  24  26
HETATM   26  C   UNL     1       4.040  12.784  89.276  1.00  0.00     0.199 C 
BRANCH  26  27
HETATM   27  C   UNL     1       3.431  13.408  90.538  1.00  0.00     0.145 C 
HETATM   28  C   UNL     1       2.621  12.406  91.353  1.00  0.00     0.042 C 
BRANCH  27  29
HETATM   29  O   UNL     1       4.471  13.940  91.358  1.00  0.00    -0.393 OA
HETATM   30  H   UNL     1       4.747  14.794  90.985  1.00  0.00     0.210 HD
ENDBRANCH  27  29
ENDBRANCH  26  27
BRANCH  26  31
HETATM   31  C   UNL     1       4.755  13.832  88.429  1.00  0.00     0.220 C 
HETATM   32  O   UNL     1       5.115  14.920  88.874  1.00  0.00    -0.278 OA
HETATM   33  N   UNL     1       4.907  13.429  87.125  1.00  0.00    -0.271 NA
HETATM   34  H   UNL     1       4.544  12.580  86.705  1.00  0.00     0.127 HD
HETATM   35  H   UNL     1       4.240  13.901  85.983  1.00  0.00     0.127 HD
ENDBRANCH  26  31
ENDBRANCH  24  26
ENDBRANCH  19  22
ENDBRANCH  15  16
ENDBRANCH  11  14
ENDBRANCH   7   8
ENDBRANCH   2   7
TORSDOF 9
ENDMDL
