MODEL 1
REMARK VINA RESULT:      -7.3      0.000      0.000
REMARK  9 active torsions:
REMARK  status: ('A' for Active; 'I' for Inactive)
REMARK    1  A    between atoms: O_2  and  C_17 
REMARK    2  A    between atoms: N_5  and  C_10 
REMARK    3  A    between atoms: N_6  and  C_14 
REMARK       I    between atoms: N_6  and  C_23 
REMARK       I    between atoms: N_7  and  C_22 
REMARK    4  A    between atoms: C_10  and  C_13 
REMARK    5  A    between atoms: C_14  and  C_17 
REMARK    6  A    between atoms: C_14  and  C_22 
REMARK    7  A    between atoms: C_20  and  C_25 
REMARK    8  A    between atoms: C_23  and  C_24 
REMARK    9  A    between atoms: C_28  and  C_31 
ROOT
HETATM    1  O   UNL     1      16.141   4.028  94.124  1.00  0.00    -0.388 OA
HETATM    2  N   UNL     1      14.234   2.659  92.513  1.00  0.00     0.096 N 
HETATM    3  C   UNL     1      14.330   4.126  92.511  1.00  0.00     0.299 C 
HETATM    4  C   UNL     1      14.664   2.128  93.814  1.00  0.00     0.299 C 
HETATM    5  C   UNL     1      15.756   4.551  92.852  1.00  0.00     0.198 C 
HETATM    6  C   UNL     1      16.081   2.601  94.124  1.00  0.00     0.198 C 
ENDROOT
BRANCH   2   7
HETATM    7  C   UNL     1      12.873   2.229  92.200  1.00  0.00     0.311 C 
BRANCH   7   8
HETATM    8  C   UNL     1      11.973   3.375  91.886  1.00  0.00    -0.030 A 
HETATM    9  C   UNL     1      11.791   3.775  90.561  1.00  0.00     0.010 A 
HETATM   10  C   UNL     1      10.951   4.849  90.267  1.00  0.00     0.021 A 
HETATM   11  C   UNL     1      10.292   5.520  91.296  1.00  0.00     0.018 A 
HETATM   12  C   UNL     1      10.472   5.121  92.619  1.00  0.00     0.021 A 
HETATM   13  C   UNL     1      11.313   4.048  92.914  1.00  0.00     0.010 A 
BRANCH  11  14
HETATM   14  C   UNL     1       9.428   6.620  90.994  1.00  0.00    -0.061 C 
HETATM   15  C   UNL     1       8.703   7.544  90.739  1.00  0.00    -0.061 C 
BRANCH  15  16
HETATM   16  C   UNL     1       7.839   8.643  90.436  1.00  0.00     0.018 A 
HETATM   17  C   UNL     1       8.362   9.802  89.862  1.00  0.00     0.022 A 
HETATM   18  C   UNL     1       7.519  10.873  89.564  1.00  0.00     0.018 A 
HETATM   19  C   UNL     1       6.174  10.760  89.845  1.00  0.00     0.032 A 
HETATM   20  C   UNL     1       5.633   9.625  90.412  1.00  0.00     0.018 A 
HETATM   21  C   UNL     1       6.475   8.554  90.711  1.00  0.00     0.022 A 
BRANCH  19  22
HETATM   22  C   UNL     1       5.276  11.902  89.529  1.00  0.00     0.252 C 
HETATM   23  O   UNL     1       5.000  12.141  88.356  1.00  0.00    -0.268 OA
HETATM   24  N   UNL     1       4.790  12.612  90.618  1.00  0.00    -0.342 N 
HETATM   25  H   UNL     1       5.042  12.341  91.561  1.00  0.00     0.163 HD
BRANCH  24  26
HETATM   26  C   UNL     1       3.891  13.729  90.476  1.00  0.00     0.199 C 
BRANCH  26  27
HETATM   27  C   UNL     1       2.860  13.809  91.610  1.00  0.00     0.145 C 
HETATM   28  C   UNL     1       3.261  12.977  92.823  1.00  0.00     0.042 C 
BRANCH  27  29
HETATM   29  O   UNL     1       2.699  15.168  92.013  1.00  0.00    -0.393 OA
HETATM   30  H   UNL     1       3.251  15.321  92.798  1.00  0.00     0.210 HD
ENDBRANCH  27  29
ENDBRANCH  26  27
BRANCH  26  31
HETATM   31  C   UNL     1       4.733  14.998  90.402  1.00  0.00     0.220 C 
HETATM   32  O   UNL     1       5.098  15.619  91.398  1.00  0.00    -0.278 OA
HETATM   33  N   UNL     1       4.993  15.373  89.106  1.00  0.00    -0.271 NA
HETATM   34  H   UNL     1       4.634  14.937  88.265  1.00  0.00     0.127 HD
HETATM   35  H   UNL     1       4.463  16.458  88.390  1.00  0.00     0.127 HD
ENDBRANCH  26  31
ENDBRANCH  24  26
ENDBRANCH  19  22
ENDBRANCH  15  16
ENDBRANCH  11  14
ENDBRANCH   7   8
ENDBRANCH   2   7
TORSDOF 9
ENDMDL
