MODEL 1
REMARK VINA RESULT:      -6.1      0.000      0.000
REMARK  10 active torsions:
REMARK  status: ('A' for Active; 'I' for Inactive)
REMARK    1  A    between atoms: O_2  and  C_18 
REMARK    2  A    between atoms: O_5  and  N_8 
REMARK    3  A    between atoms: N_6  and  C_11 
REMARK    4  A    between atoms: N_7  and  C_15 
REMARK       I    between atoms: N_7  and  C_24 
REMARK       I    between atoms: N_8  and  C_23 
REMARK    5  A    between atoms: C_11  and  C_14 
REMARK    6  A    between atoms: C_15  and  C_18 
REMARK    7  A    between atoms: C_15  and  C_23 
REMARK    8  A    between atoms: C_21  and  C_26 
REMARK    9  A    between atoms: C_24  and  C_25 
REMARK   10  A    between atoms: C_29  and  C_32 
ROOT
HETATM    1  O   UNK     0      16.531   2.942  93.930  0.00  0.00    -0.388 OA
HETATM    2  N   UNK     0      13.920   3.133  92.813  0.00  0.00     0.096 N 
HETATM    3  C   UNK     0      14.603   1.839  92.952  0.00  0.00     0.299 C 
HETATM    4  C   UNK     0      14.907   4.208  92.647  0.00  0.00     0.299 C 
HETATM    5  C   UNK     0      15.580   1.893  94.124  0.00  0.00     0.198 C 
HETATM    6  C   UNK     0      15.877   4.207  93.825  0.00  0.00     0.198 C 
ENDROOT
BRANCH   2   7
HETATM    7  C   UNK     0      12.987   3.107  91.688  0.00  0.00     0.311 C 
BRANCH   7   8
HETATM    8  C   UNK     0      11.844   4.045  91.877  0.00  0.00    -0.030 A 
HETATM    9  C   UNK     0      11.394   4.344  93.163  0.00  0.00     0.010 A 
HETATM   10  C   UNK     0      10.323   5.220  93.342  0.00  0.00     0.021 A 
HETATM   11  C   UNK     0       9.704   5.797  92.233  0.00  0.00     0.018 A 
HETATM   12  C   UNK     0      10.153   5.500  90.948  0.00  0.00     0.021 A 
HETATM   13  C   UNK     0      11.223   4.624  90.770  0.00  0.00     0.010 A 
BRANCH  11  14
HETATM   14  C   UNK     0       8.607   6.697  92.416  0.00  0.00    -0.061 C 
HETATM   15  C   UNK     0       7.685   7.454  92.570  0.00  0.00    -0.061 C 
BRANCH  15  16
HETATM   16  C   UNK     0       6.589   8.351  92.753  0.00  0.00     0.018 A 
HETATM   17  C   UNK     0       5.644   8.513  91.739  0.00  0.00     0.022 A 
HETATM   18  C   UNK     0       4.573   9.388  91.918  0.00  0.00     0.018 A 
HETATM   19  C   UNK     0       4.468  10.080  93.106  0.00  0.00     0.032 A 
HETATM   20  C   UNK     0       5.388   9.938  94.124  0.00  0.00     0.018 A 
HETATM   21  C   UNK     0       6.460   9.064  93.945  0.00  0.00     0.022 A 
BRANCH  19  22
HETATM   22  C   UNK     0       3.327  11.013  93.295  0.00  0.00     0.252 C 
HETATM   23  O   UNK     0       2.315  10.615  93.866  0.00  0.00    -0.268 OA
HETATM   24  N   UNK     0       3.513  12.304  92.820  0.00  0.00    -0.341 N 
HETATM   25  H   UNK     0       4.387  12.569  92.381  0.00  0.00     0.163 HD
BRANCH  24  26
HETATM   26  C   UNK     0       2.509  13.330  92.951  0.00  0.00     0.207 C 
BRANCH  26  27
HETATM   27  C   UNK     0       2.951  14.480  93.865  0.00  0.00     0.146 C 
HETATM   28  C   UNK     0       4.370  14.951  93.566  0.00  0.00     0.042 C 
BRANCH  27  29
HETATM   29  O   UNK     0       2.055  15.581  93.714  0.00  0.00    -0.393 OA
HETATM   30  H   UNK     0       2.495  16.380  94.049  0.00  0.00     0.210 HD
ENDBRANCH  27  29
ENDBRANCH  26  27
BRANCH  26  31
HETATM   31  C   UNK     0       2.172  13.833  91.551  0.00  0.00     0.266 C 
HETATM   32  O   UNK     0       1.223  14.579  91.318  0.00  0.00    -0.269 OA
HETATM   33  N   UNK     0       3.022  13.325  90.598  0.00  0.00    -0.236 N 
HETATM   34  H   UNK     0       3.755  12.640  90.742  0.00  0.00     0.197 HD
BRANCH  33  35
HETATM   35  O   UNK     0       2.756  13.709  89.276  0.00  0.00    -0.287 OA
HETATM   36  H   UNK     0       2.012  14.319  89.418  0.00  0.00     0.244 HD
ENDBRANCH  33  35
ENDBRANCH  26  31
ENDBRANCH  24  26
ENDBRANCH  19  22
ENDBRANCH  15  16
ENDBRANCH  11  14
ENDBRANCH   7   8
ENDBRANCH   2   7
TORSDOF 10
ENDMDL
MODEL 2
REMARK VINA RESULT:      -6.1      1.909      2.883
REMARK  10 active torsions:
REMARK  status: ('A' for Active; 'I' for Inactive)
REMARK    1  A    between atoms: O_2  and  C_18 
REMARK    2  A    between atoms: O_5  and  N_8 
REMARK    3  A    between atoms: N_6  and  C_11 
REMARK    4  A    between atoms: N_7  and  C_15 
REMARK       I    between atoms: N_7  and  C_24 
REMARK       I    between atoms: N_8  and  C_23 
REMARK    5  A    between atoms: C_11  and  C_14 
REMARK    6  A    between atoms: C_15  and  C_18 
REMARK    7  A    between atoms: C_15  and  C_23 
REMARK    8  A    between atoms: C_21  and  C_26 
REMARK    9  A    between atoms: C_24  and  C_25 
REMARK   10  A    between atoms: C_29  and  C_32 
ROOT
HETATM    1  O   UNK     0      16.931   3.581  93.563  0.00  0.00    -0.388 OA
HETATM    2  N   UNK     0      14.253   2.734  94.026  0.00  0.00     0.096 N 
HETATM    3  C   UNK     0      15.301   1.784  93.625  0.00  0.00     0.299 C 
HETATM    4  C   UNK     0      14.555   4.070  93.497  0.00  0.00     0.299 C 
HETATM    5  C   UNK     0      16.662   2.285  94.101  0.00  0.00     0.198 C 
HETATM    6  C   UNK     0      15.934   4.517  93.975  0.00  0.00     0.198 C 
ENDROOT
BRANCH   2   7
HETATM    7  C   UNK     0      12.940   2.279  93.571  0.00  0.00     0.311 C 
BRANCH   7   8
HETATM    8  C   UNK     0      12.073   3.406  93.124  0.00  0.00    -0.030 A 
HETATM    9  C   UNK     0      11.707   3.513  91.782  0.00  0.00     0.010 A 
HETATM   10  C   UNK     0      10.897   4.568  91.362  0.00  0.00     0.021 A 
HETATM   11  C   UNK     0      10.451   5.514  92.286  0.00  0.00     0.018 A 
HETATM   12  C   UNK     0      10.816   5.407  93.626  0.00  0.00     0.021 A 
HETATM   13  C   UNK     0      11.627   4.353  94.046  0.00  0.00     0.010 A 
BRANCH  11  14
HETATM   14  C   UNK     0       9.619   6.595  91.855  0.00  0.00    -0.061 C 
HETATM   15  C   UNK     0       8.919   7.503  91.493  0.00  0.00    -0.061 C 
BRANCH  15  16
HETATM   16  C   UNK     0       8.088   8.583  91.064  0.00  0.00     0.018 A 
HETATM   17  C   UNK     0       8.643   9.649  90.354  0.00  0.00     0.022 A 
HETATM   18  C   UNK     0       7.833  10.703  89.933  0.00  0.00     0.018 A 
HETATM   19  C   UNK     0       6.486  10.668  90.229  0.00  0.00     0.032 A 
HETATM   20  C   UNK     0       5.913   9.627  90.928  0.00  0.00     0.018 A 
HETATM   21  C   UNK     0       6.724   8.573  91.351  0.00  0.00     0.022 A 
BRANCH  19  22
HETATM   22  C   UNK     0       5.623  11.792  89.781  0.00  0.00     0.252 C 
HETATM   23  O   UNK     0       5.689  12.170  88.614  0.00  0.00    -0.268 OA
HETATM   24  N   UNK     0       4.771  12.323  90.739  0.00  0.00    -0.341 N 
HETATM   25  H   UNK     0       4.754  11.942  91.678  0.00  0.00     0.163 HD
BRANCH  24  26
HETATM   26  C   UNK     0       3.857  13.399  90.453  0.00  0.00     0.207 C 
BRANCH  26  27
HETATM   27  C   UNK     0       2.407  13.061  90.823  0.00  0.00     0.146 C 
HETATM   28  C   UNK     0       2.311  11.895  91.801  0.00  0.00     0.042 C 
BRANCH  27  29
HETATM   29  O   UNK     0       1.783  14.206  91.403  0.00  0.00    -0.393 OA
HETATM   30  H   UNK     0       0.925  14.340  90.967  0.00  0.00     0.210 HD
ENDBRANCH  27  29
ENDBRANCH  26  27
BRANCH  26  31
HETATM   31  C   UNK     0       4.345  14.637  91.199  0.00  0.00     0.266 C 
HETATM   32  O   UNK     0       4.891  15.585  90.637  0.00  0.00    -0.269 OA
HETATM   33  N   UNK     0       4.138  14.542  92.553  0.00  0.00    -0.236 N 
HETATM   34  H   UNK     0       3.774  13.741  93.057  0.00  0.00     0.197 HD
BRANCH  33  35
HETATM   35  O   UNK     0       4.595  15.624  93.318  0.00  0.00    -0.287 OA
HETATM   36  H   UNK     0       5.522  15.364  93.453  0.00  0.00     0.244 HD
ENDBRANCH  33  35
ENDBRANCH  26  31
ENDBRANCH  24  26
ENDBRANCH  19  22
ENDBRANCH  15  16
ENDBRANCH  11  14
ENDBRANCH   7   8
ENDBRANCH   2   7
TORSDOF 10
ENDMDL
MODEL 3
REMARK VINA RESULT:      -5.9      1.561      2.000
REMARK  10 active torsions:
REMARK  status: ('A' for Active; 'I' for Inactive)
REMARK    1  A    between atoms: O_2  and  C_18 
REMARK    2  A    between atoms: O_5  and  N_8 
REMARK    3  A    between atoms: N_6  and  C_11 
REMARK    4  A    between atoms: N_7  and  C_15 
REMARK       I    between atoms: N_7  and  C_24 
REMARK       I    between atoms: N_8  and  C_23 
REMARK    5  A    between atoms: C_11  and  C_14 
REMARK    6  A    between atoms: C_15  and  C_18 
REMARK    7  A    between atoms: C_15  and  C_23 
REMARK    8  A    between atoms: C_21  and  C_26 
REMARK    9  A    between atoms: C_24  and  C_25 
REMARK   10  A    between atoms: C_29  and  C_32 
ROOT
HETATM    1  O   UNK     0      16.569   3.145  93.354  0.00  0.00    -0.388 OA
HETATM    2  N   UNK     0      13.807   2.869  92.727  0.00  0.00     0.096 N 
HETATM    3  C   UNK     0      14.588   1.747  93.267  0.00  0.00     0.299 C 
HETATM    4  C   UNK     0      14.681   3.770  91.965  0.00  0.00     0.299 C 
HETATM    5  C   UNK     0      15.733   2.279  94.124  0.00  0.00     0.198 C 
HETATM    6  C   UNK     0      15.824   4.255  92.852  0.00  0.00     0.198 C 
ENDROOT
BRANCH   2   7
HETATM    7  C   UNK     0      12.709   2.382  91.893  0.00  0.00     0.311 C 
BRANCH   7   8
HETATM    8  C   UNK     0      11.642   3.406  91.705  0.00  0.00    -0.030 A 
HETATM    9  C   UNK     0      11.236   4.195  92.782  0.00  0.00     0.010 A 
HETATM   10  C   UNK     0      10.236   5.151  92.608  0.00  0.00     0.021 A 
HETATM   11  C   UNK     0       9.644   5.319  91.356  0.00  0.00     0.018 A 
HETATM   12  C   UNK     0      10.048   4.532  90.280  0.00  0.00     0.021 A 
HETATM   13  C   UNK     0      11.048   3.575  90.454  0.00  0.00     0.010 A 
BRANCH  11  14
HETATM   14  C   UNK     0       8.619   6.302  91.177  0.00  0.00    -0.061 C 
HETATM   15  C   UNK     0       7.758   7.127  91.027  0.00  0.00    -0.061 C 
BRANCH  15  16
HETATM   16  C   UNK     0       6.734   8.108  90.848  0.00  0.00     0.018 A 
HETATM   17  C   UNK     0       6.206   8.339  89.577  0.00  0.00     0.022 A 
HETATM   18  C   UNK     0       5.205   9.294  89.402  0.00  0.00     0.018 A 
HETATM   19  C   UNK     0       4.754   9.996  90.500  0.00  0.00     0.032 A 
HETATM   20  C   UNK     0       5.259   9.787  91.766  0.00  0.00     0.018 A 
HETATM   21  C   UNK     0       6.261   8.832  91.941  0.00  0.00     0.022 A 
BRANCH  19  22
HETATM   22  C   UNK     0       3.688  11.015  90.312  0.00  0.00     0.252 C 
HETATM   23  O   UNK     0       2.775  10.790  89.523  0.00  0.00    -0.268 OA
HETATM   24  N   UNK     0       3.802  12.163  91.085  0.00  0.00    -0.341 N 
HETATM   25  H   UNK     0       4.572  12.269  91.735  0.00  0.00     0.163 HD
BRANCH  24  26
HETATM   26  C   UNK     0       2.836  13.230  91.034  0.00  0.00     0.207 C 
BRANCH  26  27
HETATM   27  C   UNK     0       2.108  13.437  92.369  0.00  0.00     0.146 C 
HETATM   28  C   UNK     0       1.189  12.272  92.718  0.00  0.00     0.042 C 
BRANCH  27  29
HETATM   29  O   UNK     0       3.066  13.601  93.414  0.00  0.00    -0.393 OA
HETATM   30  H   UNK     0       2.614  13.472  94.265  0.00  0.00     0.210 HD
ENDBRANCH  27  29
ENDBRANCH  26  27
BRANCH  26  31
HETATM   31  C   UNK     0       3.565  14.498  90.598  0.00  0.00     0.266 C 
HETATM   32  O   UNK     0       3.214  15.624  90.945  0.00  0.00    -0.269 OA
HETATM   33  N   UNK     0       4.616  14.228  89.756  0.00  0.00    -0.236 N 
HETATM   34  H   UNK     0       4.876  13.324  89.381  0.00  0.00     0.197 HD
BRANCH  33  35
HETATM   35  O   UNK     0       5.316  15.345  89.278  0.00  0.00    -0.287 OA
HETATM   36  H   UNK     0       6.221  14.987  89.257  0.00  0.00     0.244 HD
ENDBRANCH  33  35
ENDBRANCH  26  31
ENDBRANCH  24  26
ENDBRANCH  19  22
ENDBRANCH  15  16
ENDBRANCH  11  14
ENDBRANCH   7   8
ENDBRANCH   2   7
TORSDOF 10
ENDMDL
MODEL 4
REMARK VINA RESULT:      -4.8      2.085     12.734
REMARK  10 active torsions:
REMARK  status: ('A' for Active; 'I' for Inactive)
REMARK    1  A    between atoms: O_2  and  C_18 
REMARK    2  A    between atoms: O_5  and  N_8 
REMARK    3  A    between atoms: N_6  and  C_11 
REMARK    4  A    between atoms: N_7  and  C_15 
REMARK       I    between atoms: N_7  and  C_24 
REMARK       I    between atoms: N_8  and  C_23 
REMARK    5  A    between atoms: C_11  and  C_14 
REMARK    6  A    between atoms: C_15  and  C_18 
REMARK    7  A    between atoms: C_15  and  C_23 
REMARK    8  A    between atoms: C_21  and  C_26 
REMARK    9  A    between atoms: C_24  and  C_25 
REMARK   10  A    between atoms: C_29  and  C_32 
ROOT
HETATM    1  O   UNK     0       5.207  14.632  89.678  0.00  0.00    -0.388 OA
HETATM    2  N   UNK     0       3.432  13.248  91.421  0.00  0.00     0.096 N 
HETATM    3  C   UNK     0       4.462  14.158  91.939  0.00  0.00     0.299 C 
HETATM    4  C   UNK     0       3.872  12.661  90.149  0.00  0.00     0.299 C 
HETATM    5  C   UNK     0       4.773  15.232  90.900  0.00  0.00     0.198 C 
HETATM    6  C   UNK     0       4.198  13.769  89.152  0.00  0.00     0.198 C 
ENDROOT
BRANCH   2   7
HETATM    7  C   UNK     0       3.125  12.203  92.396  0.00  0.00     0.311 C 
BRANCH   7   8
HETATM    8  C   UNK     0       4.188  11.160  92.464  0.00  0.00    -0.030 A 
HETATM    9  C   UNK     0       5.255  11.309  93.352  0.00  0.00     0.010 A 
HETATM   10  C   UNK     0       6.251  10.336  93.415  0.00  0.00     0.021 A 
HETATM   11  C   UNK     0       6.180   9.212  92.592  0.00  0.00     0.018 A 
HETATM   12  C   UNK     0       5.115   9.062  91.706  0.00  0.00     0.021 A 
HETATM   13  C   UNK     0       4.119  10.036  91.641  0.00  0.00     0.010 A 
BRANCH  11  14
HETATM   14  C   UNK     0       7.201   8.212  92.659  0.00  0.00    -0.061 C 
HETATM   15  C   UNK     0       8.058   7.371  92.715  0.00  0.00    -0.061 C 
BRANCH  15  16
HETATM   16  C   UNK     0       9.078   6.373  92.782  0.00  0.00     0.018 A 
HETATM   17  C   UNK     0       9.887   6.279  93.916  0.00  0.00     0.022 A 
HETATM   18  C   UNK     0      10.881   5.302  93.983  0.00  0.00     0.018 A 
HETATM   19  C   UNK     0      11.044   4.443  92.917  0.00  0.00     0.032 A 
HETATM   20  C   UNK     0      10.259   4.515  91.786  0.00  0.00     0.018 A 
HETATM   21  C   UNK     0       9.265   5.491  91.718  0.00  0.00     0.022 A 
BRANCH  19  22
HETATM   22  C   UNK     0      12.105   3.404  92.989  0.00  0.00     0.252 C 
HETATM   23  O   UNK     0      11.982   2.375  92.329  0.00  0.00    -0.268 OA
HETATM   24  N   UNK     0      13.191   3.700  93.801  0.00  0.00    -0.341 N 
HETATM   25  H   UNK     0      13.235   4.582  94.298  0.00  0.00     0.163 HD
BRANCH  24  26
HETATM   26  C   UNK     0      14.310   2.805  93.955  0.00  0.00     0.207 C 
BRANCH  26  27
HETATM   27  C   UNK     0      14.364   1.728  92.863  0.00  0.00     0.146 C 
HETATM   28  C   UNK     0      15.201   2.155  91.663  0.00  0.00     0.042 C 
BRANCH  27  29
HETATM   29  O   UNK     0      14.910   0.526  93.405  0.00  0.00    -0.393 OA
HETATM   30  H   UNK     0      14.613   0.445  94.327  0.00  0.00     0.210 HD
ENDBRANCH  27  29
ENDBRANCH  26  27
BRANCH  26  31
HETATM   31  C   UNK     0      15.581   3.647  93.966  0.00  0.00     0.266 C 
HETATM   32  O   UNK     0      16.702   3.166  94.124  0.00  0.00    -0.269 OA
HETATM   33  N   UNK     0      15.318   4.988  93.820  0.00  0.00    -0.236 N 
HETATM   34  H   UNK     0      14.404   5.425  93.777  0.00  0.00     0.197 HD
BRANCH  33  35
HETATM   35  O   UNK     0      16.433   5.837  93.858  0.00  0.00    -0.287 OA
HETATM   36  H   UNK     0      16.575   5.980  92.906  0.00  0.00     0.244 HD
ENDBRANCH  33  35
ENDBRANCH  26  31
ENDBRANCH  24  26
ENDBRANCH  19  22
ENDBRANCH  15  16
ENDBRANCH  11  14
ENDBRANCH   7   8
ENDBRANCH   2   7
TORSDOF 10
ENDMDL
MODEL 5
REMARK VINA RESULT:      -4.3      1.778     13.078
REMARK  10 active torsions:
REMARK  status: ('A' for Active; 'I' for Inactive)
REMARK    1  A    between atoms: O_2  and  C_18 
REMARK    2  A    between atoms: O_5  and  N_8 
REMARK    3  A    between atoms: N_6  and  C_11 
REMARK    4  A    between atoms: N_7  and  C_15 
REMARK       I    between atoms: N_7  and  C_24 
REMARK       I    between atoms: N_8  and  C_23 
REMARK    5  A    between atoms: C_11  and  C_14 
REMARK    6  A    between atoms: C_15  and  C_18 
REMARK    7  A    between atoms: C_15  and  C_23 
REMARK    8  A    between atoms: C_21  and  C_26 
REMARK    9  A    between atoms: C_24  and  C_25 
REMARK   10  A    between atoms: C_29  and  C_32 
ROOT
HETATM    1  O   UNK     0       1.294  14.641  94.026  0.00  0.00    -0.388 OA
HETATM    2  N   UNK     0       3.258  13.257  92.500  0.00  0.00     0.096 N 
HETATM    3  C   UNK     0       3.155  14.723  92.471  0.00  0.00     0.299 C 
HETATM    4  C   UNK     0       1.943  12.666  92.775  0.00  0.00     0.299 C 
HETATM    5  C   UNK     0       2.576  15.227  93.790  0.00  0.00     0.198 C 
HETATM    6  C   UNK     0       1.391  13.217  94.087  0.00  0.00     0.198 C 
ENDROOT
BRANCH   2   7
HETATM    7  C   UNK     0       3.802  12.752  91.241  0.00  0.00     0.311 C 
BRANCH   7   8
HETATM    8  C   UNK     0       4.776  11.642  91.447  0.00  0.00    -0.030 A 
HETATM    9  C   UNK     0       5.653  11.285  90.422  0.00  0.00     0.010 A 
HETATM   10  C   UNK     0       6.563  10.246  90.613  0.00  0.00     0.021 A 
HETATM   11  C   UNK     0       6.598   9.567  91.830  0.00  0.00     0.018 A 
HETATM   12  C   UNK     0       5.724   9.923  92.855  0.00  0.00     0.021 A 
HETATM   13  C   UNK     0       4.813  10.961  92.664  0.00  0.00     0.010 A 
BRANCH  11  14
HETATM   14  C   UNK     0       7.534   8.502  92.027  0.00  0.00    -0.061 C 
HETATM   15  C   UNK     0       8.321   7.608  92.193  0.00  0.00    -0.061 C 
BRANCH  15  16
HETATM   16  C   UNK     0       9.255   6.545  92.388  0.00  0.00     0.018 A 
HETATM   17  C   UNK     0      10.106   6.560  93.494  0.00  0.00     0.022 A 
HETATM   18  C   UNK     0      11.017   5.522  93.686  0.00  0.00     0.018 A 
HETATM   19  C   UNK     0      11.058   4.492  92.770  0.00  0.00     0.032 A 
HETATM   20  C   UNK     0      10.228   4.454  91.669  0.00  0.00     0.018 A 
HETATM   21  C   UNK     0       9.317   5.492  91.476  0.00  0.00     0.022 A 
BRANCH  19  22
HETATM   22  C   UNK     0      12.030   3.387  92.974  0.00  0.00     0.252 C 
HETATM   23  O   UNK     0      11.718   2.245  92.645  0.00  0.00    -0.268 OA
HETATM   24  N   UNK     0      13.257   3.748  93.513  0.00  0.00    -0.341 N 
HETATM   25  H   UNK     0      13.453   4.717  93.738  0.00  0.00     0.163 HD
BRANCH  24  26
HETATM   26  C   UNK     0      14.311   2.795  93.748  0.00  0.00     0.207 C 
BRANCH  26  27
HETATM   27  C   UNK     0      14.440   1.762  92.621  0.00  0.00     0.146 C 
HETATM   28  C   UNK     0      15.731   1.923  91.827  0.00  0.00     0.042 C 
BRANCH  27  29
HETATM   29  O   UNK     0      14.396   0.447  93.173  0.00  0.00    -0.393 OA
HETATM   30  H   UNK     0      14.944  -0.134  92.618  0.00  0.00     0.210 HD
ENDBRANCH  27  29
ENDBRANCH  26  27
BRANCH  26  31
HETATM   31  C   UNK     0      15.609   3.574  93.937  0.00  0.00     0.266 C 
HETATM   32  O   UNK     0      16.696   3.029  94.119  0.00  0.00    -0.269 OA
HETATM   33  N   UNK     0      15.407   4.933  93.918  0.00  0.00    -0.236 N 
HETATM   34  H   UNK     0      14.516   5.413  93.861  0.00  0.00     0.197 HD
BRANCH  33  35
HETATM   35  O   UNK     0      16.547   5.722  94.124  0.00  0.00    -0.287 OA
HETATM   36  H   UNK     0      16.564   6.224  93.291  0.00  0.00     0.244 HD
ENDBRANCH  33  35
ENDBRANCH  26  31
ENDBRANCH  24  26
ENDBRANCH  19  22
ENDBRANCH  15  16
ENDBRANCH  11  14
ENDBRANCH   7   8
ENDBRANCH   2   7
TORSDOF 10
ENDMDL
