MODEL 1
REMARK VINA RESULT:      -7.0      0.000      0.000
REMARK  9 active torsions:
REMARK  status: ('A' for Active; 'I' for Inactive)
REMARK    1  A    between atoms: O_2  and  C_17 
REMARK    2  A    between atoms: N_5  and  C_10 
REMARK    3  A    between atoms: N_6  and  C_14 
REMARK       I    between atoms: N_6  and  C_23 
REMARK       I    between atoms: N_7  and  C_22 
REMARK    4  A    between atoms: C_10  and  C_13 
REMARK    5  A    between atoms: C_14  and  C_17 
REMARK    6  A    between atoms: C_14  and  C_22 
REMARK    7  A    between atoms: C_20  and  C_25 
REMARK    8  A    between atoms: C_23  and  C_24 
REMARK    9  A    between atoms: C_28  and  C_31 
ROOT
HETATM    1  O   UNL     1      17.004   4.025  93.765  1.00  0.00    -0.388 OA
HETATM    2  N   UNL     1      14.469   2.855  93.208  1.00  0.00     0.096 N 
HETATM    3  C   UNL     1      15.706   2.062  93.170  1.00  0.00     0.299 C 
HETATM    4  C   UNL     1      14.759   4.256  92.874  1.00  0.00     0.299 C 
HETATM    5  C   UNL     1      16.737   2.667  94.120  1.00  0.00     0.198 C 
HETATM    6  C   UNL     1      15.812   4.809  93.829  1.00  0.00     0.198 C 
ENDROOT
BRANCH   2   7
HETATM    7  C   UNL     1      13.470   2.299  92.297  1.00  0.00     0.311 C 
BRANCH   7   8
HETATM    8  C   UNL     1      12.412   3.288  91.944  1.00  0.00    -0.030 A 
HETATM    9  C   UNL     1      11.556   3.776  92.932  1.00  0.00     0.010 A 
HETATM   10  C   UNL     1      10.564   4.699  92.602  1.00  0.00     0.021 A 
HETATM   11  C   UNL     1      10.430   5.136  91.285  1.00  0.00     0.018 A 
HETATM   12  C   UNL     1      11.284   4.649  90.297  1.00  0.00     0.021 A 
HETATM   13  C   UNL     1      12.275   3.725  90.626  1.00  0.00     0.010 A 
BRANCH  11  14
HETATM   14  C   UNL     1       9.414   6.085  90.947  1.00  0.00    -0.061 C 
HETATM   15  C   UNL     1       8.560   6.882  90.663  1.00  0.00    -0.061 C 
BRANCH  15  16
HETATM   16  C   UNL     1       7.545   7.831  90.325  1.00  0.00     0.018 A 
HETATM   17  C   UNL     1       7.215   8.847  91.223  1.00  0.00     0.022 A 
HETATM   18  C   UNL     1       6.227   9.774  90.892  1.00  0.00     0.018 A 
HETATM   19  C   UNL     1       5.593   9.666  89.672  1.00  0.00     0.032 A 
HETATM   20  C   UNL     1       5.901   8.671  88.768  1.00  0.00     0.018 A 
HETATM   21  C   UNL     1       6.889   7.743  89.098  1.00  0.00     0.022 A 
BRANCH  19  22
HETATM   22  C   UNL     1       4.539  10.652  89.321  1.00  0.00     0.252 C 
HETATM   23  O   UNL     1       3.449  10.250  88.922  1.00  0.00    -0.268 OA
HETATM   24  N   UNL     1       4.873  11.988  89.499  1.00  0.00    -0.342 N 
HETATM   25  H   UNL     1       5.785  12.245  89.856  1.00  0.00     0.163 HD
BRANCH  24  26
HETATM   26  C   UNL     1       3.951  13.061  89.226  1.00  0.00     0.199 C 
BRANCH  26  27
HETATM   27  C   UNL     1       3.356  13.672  90.501  1.00  0.00     0.145 C 
HETATM   28  C   UNL     1       2.551  12.663  91.311  1.00  0.00     0.042 C 
BRANCH  27  29
HETATM   29  O   UNL     1       4.407  14.188  91.317  1.00  0.00    -0.393 OA
HETATM   30  H   UNL     1       4.584  15.104  91.043  1.00  0.00     0.210 HD
ENDBRANCH  27  29
ENDBRANCH  26  27
BRANCH  26  31
HETATM   31  C   UNL     1       4.688  14.110  88.400  1.00  0.00     0.220 C 
HETATM   32  O   UNL     1       4.928  15.242  88.815  1.00  0.00    -0.278 OA
HETATM   33  N   UNL     1       5.008  13.651  87.145  1.00  0.00    -0.271 NA
HETATM   34  H   UNL     1       4.748  12.759  86.740  1.00  0.00     0.127 HD
HETATM   35  H   UNL     1       4.443  14.017  85.913  1.00  0.00     0.127 HD
ENDBRANCH  26  31
ENDBRANCH  24  26
ENDBRANCH  19  22
ENDBRANCH  15  16
ENDBRANCH  11  14
ENDBRANCH   7   8
ENDBRANCH   2   7
TORSDOF 9
ENDMDL
