MODEL 1
REMARK VINA RESULT:      -6.4      0.000      0.000
REMARK  12 active torsions:
REMARK  status: ('A' for Active; 'I' for Inactive)
REMARK    1  A    between atoms: O_2  and  C_16 
REMARK    2  A    between atoms: N_5  and  C_9 
REMARK    3  A    between atoms: N_6  and  C_13 
REMARK       I    between atoms: N_6  and  C_22 
REMARK    4  A    between atoms: C_9  and  C_12 
REMARK    5  A    between atoms: C_13  and  C_16 
REMARK    6  A    between atoms: C_13  and  C_21 
REMARK    7  A    between atoms: C_19  and  C_24 
REMARK    8  A    between atoms: C_21  and  C_33 
REMARK    9  A    between atoms: C_22  and  C_23 
REMARK   10  A    between atoms: C_27  and  C_30 
REMARK   11  A    between atoms: C_33  and  C_34 
REMARK   12  A    between atoms: C_34  and  C_35 
ROOT
HETATM    1  O   UNL     1      16.468   4.476  93.916  1.00  0.00    -0.350 OA
HETATM    2  N   UNL     1      14.664   2.708  92.603  1.00  0.00     0.147 N 
HETATM    3  C   UNL     1      14.610   4.161  92.387  1.00  0.00     0.283 C 
HETATM    4  C   UNL     1      15.184   2.418  93.946  1.00  0.00     0.283 C 
HETATM    5  C   UNL     1      15.995   4.767  92.600  1.00  0.00     0.178 C 
HETATM    6  C   UNL     1      16.553   3.065  94.123  1.00  0.00     0.178 C 
ENDROOT
BRANCH   2   7
HETATM    7  C   UNL     1      13.345   2.107  92.414  1.00  0.00     0.277 C 
BRANCH   7   8
HETATM    8  C   UNL     1      12.252   3.121  92.429  1.00  0.00     0.011 A 
HETATM    9  C   UNL     1      11.959   3.812  93.605  1.00  0.00    -0.002 A 
HETATM   10  C   UNL     1      10.935   4.759  93.621  1.00  0.00     0.008 A 
HETATM   11  C   UNL     1      10.206   5.016  92.460  1.00  0.00     0.042 A 
HETATM   12  C   UNL     1      10.498   4.326  91.285  1.00  0.00     0.008 A 
HETATM   13  C   UNL     1      11.521   3.379  91.269  1.00  0.00    -0.002 A 
BRANCH  11  14
HETATM   14  C   UNL     1       9.157   5.989  92.476  1.00  0.00    -0.059 C 
HETATM   15  C   UNL     1       8.276   6.806  92.490  1.00  0.00    -0.059 C 
BRANCH  15  16
HETATM   16  C   UNL     1       7.228   7.779  92.506  1.00  0.00     0.042 A 
HETATM   17  C   UNL     1       7.540   9.138  92.559  1.00  0.00     0.008 A 
HETATM   18  C   UNL     1       6.518  10.086  92.572  1.00  0.00     0.005 A 
HETATM   19  C   UNL     1       5.208   9.656  92.532  1.00  0.00     0.056 A 
HETATM   20  C   UNL     1       4.874   8.319  92.480  1.00  0.00     0.005 A 
HETATM   21  C   UNL     1       5.895   7.369  92.467  1.00  0.00     0.008 A 
BRANCH  19  22
HETATM   22  C   UNL     1       4.119  10.667  92.548  1.00  0.00     0.254 C 
HETATM   23  O   UNL     1       3.061  10.400  93.111  1.00  0.00    -0.268 OA
HETATM   24  N   UNL     1       4.403  11.876  91.928  1.00  0.00    -0.335 N 
HETATM   25  HN  UNL     1       5.310  12.035  91.505  1.00  0.00     0.164 HD
BRANCH  24  26
HETATM   26  C   UNL     1       3.460  12.964  91.882  1.00  0.00     0.166 C 
BRANCH  26  27
HETATM   27  C   UNL     1       3.950  14.208  92.635  1.00  0.00     0.138 C 
HETATM   28  C   UNL     1       2.802  15.088  93.117  1.00  0.00     0.034 C 
BRANCH  27  29
HETATM   29  O   UNL     1       4.730  13.807  93.761  1.00  0.00    -0.383 OA
HETATM   30  H   UNL     1       5.669  13.867  93.517  1.00  0.00     0.210 HD
ENDBRANCH  27  29
ENDBRANCH  26  27
BRANCH  26  31
HETATM   31  C   UNL     1       3.182  13.278  90.415  1.00  0.00     0.181 C 
HETATM   32  O   UNL     1       2.321  14.077  90.052  1.00  0.00    -0.294 OA
BRANCH  31  33
HETATM   33  C   UNL     1       4.536  13.680  89.619  1.00  0.00     0.138 C 
BRANCH  33  34
HETATM   34  C   UNL     1       4.401  12.910  88.443  1.00  0.00     0.208 C 
HETATM   35  O   UNL     1       4.963  13.335  87.460  1.00  0.00    -0.289 OA
BRANCH  34  36
HETATM   36  C   UNL     1       3.986  11.617  88.272  1.00  0.00     0.194 C 
HETATM   37  O   UNL     1       2.705  11.100  88.048  1.00  0.00    -0.185 OA
ENDBRANCH  34  36
ENDBRANCH  33  34
ENDBRANCH  31  33
ENDBRANCH  26  31
ENDBRANCH  24  26
ENDBRANCH  19  22
ENDBRANCH  15  16
ENDBRANCH  11  14
ENDBRANCH   7   8
ENDBRANCH   2   7
TORSDOF 12
ENDMDL
MODEL 2
REMARK VINA RESULT:      -5.1      1.191      1.657
REMARK  12 active torsions:
REMARK  status: ('A' for Active; 'I' for Inactive)
REMARK    1  A    between atoms: O_2  and  C_16 
REMARK    2  A    between atoms: N_5  and  C_9 
REMARK    3  A    between atoms: N_6  and  C_13 
REMARK       I    between atoms: N_6  and  C_22 
REMARK    4  A    between atoms: C_9  and  C_12 
REMARK    5  A    between atoms: C_13  and  C_16 
REMARK    6  A    between atoms: C_13  and  C_21 
REMARK    7  A    between atoms: C_19  and  C_24 
REMARK    8  A    between atoms: C_21  and  C_33 
REMARK    9  A    between atoms: C_22  and  C_23 
REMARK   10  A    between atoms: C_27  and  C_30 
REMARK   11  A    between atoms: C_33  and  C_34 
REMARK   12  A    between atoms: C_34  and  C_35 
ROOT
HETATM    1  O   UNL     1      16.781   3.523  94.100  1.00  0.00    -0.350 OA
HETATM    2  N   UNL     1      14.449   3.209  92.497  1.00  0.00     0.147 N 
HETATM    3  C   UNL     1      14.437   4.026  93.718  1.00  0.00     0.283 C 
HETATM    4  C   UNL     1      15.449   2.139  92.618  1.00  0.00     0.283 C 
HETATM    5  C   UNL     1      15.833   4.586  93.979  1.00  0.00     0.178 C 
HETATM    6  C   UNL     1      16.821   2.742  92.905  1.00  0.00     0.178 C 
ENDROOT
BRANCH   2   7
HETATM    7  C   UNL     1      13.123   2.653  92.233  1.00  0.00     0.277 C 
BRANCH   7   8
HETATM    8  C   UNL     1      12.047   3.681  92.330  1.00  0.00     0.011 A 
HETATM    9  C   UNL     1      11.276   3.775  93.489  1.00  0.00    -0.002 A 
HETATM   10  C   UNL     1      10.268   4.735  93.579  1.00  0.00     0.008 A 
HETATM   11  C   UNL     1      10.033   5.600  92.511  1.00  0.00     0.042 A 
HETATM   12  C   UNL     1      10.803   5.507  91.354  1.00  0.00     0.008 A 
HETATM   13  C   UNL     1      11.811   4.547  91.263  1.00  0.00    -0.002 A 
BRANCH  11  14
HETATM   14  C   UNL     1       9.000   6.586  92.605  1.00  0.00    -0.059 C 
HETATM   15  C   UNL     1       8.133   7.415  92.684  1.00  0.00    -0.059 C 
BRANCH  15  16
HETATM   16  C   UNL     1       7.102   8.401  92.777  1.00  0.00     0.042 A 
HETATM   17  C   UNL     1       5.814   8.027  93.163  1.00  0.00     0.008 A 
HETATM   18  C   UNL     1       4.809   8.989  93.257  1.00  0.00     0.005 A 
HETATM   19  C   UNL     1       5.113  10.302  92.963  1.00  0.00     0.056 A 
HETATM   20  C   UNL     1       6.377  10.697  92.579  1.00  0.00     0.005 A 
HETATM   21  C   UNL     1       7.384   9.735  92.485  1.00  0.00     0.008 A 
BRANCH  19  22
HETATM   22  C   UNL     1       4.041  11.326  93.061  1.00  0.00     0.254 C 
HETATM   23  O   UNL     1       2.989  11.042  93.629  1.00  0.00    -0.268 OA
HETATM   24  N   UNL     1       4.332  12.566  92.508  1.00  0.00    -0.335 N 
HETATM   25  HN  UNL     1       5.232  12.736  92.076  1.00  0.00     0.164 HD
BRANCH  24  26
HETATM   26  C   UNL     1       3.405  13.668  92.545  1.00  0.00     0.166 C 
BRANCH  26  27
HETATM   27  C   UNL     1       3.448  14.436  93.872  1.00  0.00     0.138 C 
HETATM   28  C   UNL     1       4.529  15.512  93.889  1.00  0.00     0.034 C 
BRANCH  27  29
HETATM   29  O   UNL     1       2.181  15.048  94.111  1.00  0.00    -0.383 OA
HETATM   30  H   UNL     1       1.515  14.591  93.570  1.00  0.00     0.210 HD
ENDBRANCH  27  29
ENDBRANCH  26  27
BRANCH  26  31
HETATM   31  C   UNL     1       3.720  14.582  91.365  1.00  0.00     0.181 C 
HETATM   32  O   UNL     1       4.866  14.807  90.980  1.00  0.00    -0.294 OA
BRANCH  31  33
HETATM   33  C   UNL     1       2.872  14.175  90.045  1.00  0.00     0.138 C 
BRANCH  33  34
HETATM   34  C   UNL     1       3.711  13.193  89.473  1.00  0.00     0.208 C 
HETATM   35  O   UNL     1       3.262  12.071  89.426  1.00  0.00    -0.289 OA
BRANCH  34  36
HETATM   36  C   UNL     1       4.831  13.324  88.699  1.00  0.00     0.194 C 
HETATM   37  O   UNL     1       4.966  13.408  87.309  1.00  0.00    -0.185 OA
ENDBRANCH  34  36
ENDBRANCH  33  34
ENDBRANCH  31  33
ENDBRANCH  26  31
ENDBRANCH  24  26
ENDBRANCH  19  22
ENDBRANCH  15  16
ENDBRANCH  11  14
ENDBRANCH   7   8
ENDBRANCH   2   7
TORSDOF 12
ENDMDL
MODEL 3
REMARK VINA RESULT:      -3.7      2.617      3.984
REMARK  12 active torsions:
REMARK  status: ('A' for Active; 'I' for Inactive)
REMARK    1  A    between atoms: O_2  and  C_16 
REMARK    2  A    between atoms: N_5  and  C_9 
REMARK    3  A    between atoms: N_6  and  C_13 
REMARK       I    between atoms: N_6  and  C_22 
REMARK    4  A    between atoms: C_9  and  C_12 
REMARK    5  A    between atoms: C_13  and  C_16 
REMARK    6  A    between atoms: C_13  and  C_21 
REMARK    7  A    between atoms: C_19  and  C_24 
REMARK    8  A    between atoms: C_21  and  C_33 
REMARK    9  A    between atoms: C_22  and  C_23 
REMARK   10  A    between atoms: C_27  and  C_30 
REMARK   11  A    between atoms: C_33  and  C_34 
REMARK   12  A    between atoms: C_34  and  C_35 
ROOT
HETATM    1  O   UNL     1      17.937   3.077  93.665  1.00  0.00    -0.350 OA
HETATM    2  N   UNL     1      15.265   2.671  92.769  1.00  0.00     0.147 N 
HETATM    3  C   UNL     1      15.555   3.165  94.123  1.00  0.00     0.283 C 
HETATM    4  C   UNL     1      16.372   1.830  92.293  1.00  0.00     0.283 C 
HETATM    5  C   UNL     1      16.880   3.923  94.124  1.00  0.00     0.178 C 
HETATM    6  C   UNL     1      17.678   2.618  92.338  1.00  0.00     0.178 C 
ENDROOT
BRANCH   2   7
HETATM    7  C   UNL     1      14.004   1.932  92.747  1.00  0.00     0.277 C 
BRANCH   7   8
HETATM    8  C   UNL     1      12.902   2.710  92.113  1.00  0.00     0.011 A 
HETATM    9  C   UNL     1      11.579   2.485  92.499  1.00  0.00    -0.002 A 
HETATM   10  C   UNL     1      10.547   3.210  91.905  1.00  0.00     0.008 A 
HETATM   11  C   UNL     1      10.837   4.162  90.928  1.00  0.00     0.042 A 
HETATM   12  C   UNL     1      12.157   4.388  90.542  1.00  0.00     0.008 A 
HETATM   13  C   UNL     1      13.190   3.662  91.135  1.00  0.00    -0.002 A 
BRANCH  11  14
HETATM   14  C   UNL     1       9.778   4.907  90.320  1.00  0.00    -0.059 C 
HETATM   15  C   UNL     1       8.888   5.535  89.809  1.00  0.00    -0.059 C 
BRANCH  15  16
HETATM   16  C   UNL     1       7.830   6.280  89.202  1.00  0.00     0.042 A 
HETATM   17  C   UNL     1       7.886   6.586  87.841  1.00  0.00     0.008 A 
HETATM   18  C   UNL     1       6.852   7.310  87.248  1.00  0.00     0.005 A 
HETATM   19  C   UNL     1       5.787   7.712  88.027  1.00  0.00     0.056 A 
HETATM   20  C   UNL     1       5.709   7.423  89.373  1.00  0.00     0.005 A 
HETATM   21  C   UNL     1       6.742   6.699  89.968  1.00  0.00     0.008 A 
BRANCH  19  22
HETATM   22  C   UNL     1       4.688   8.486  87.395  1.00  0.00     0.254 C 
HETATM   23  O   UNL     1       4.436   8.309  86.205  1.00  0.00    -0.268 OA
HETATM   24  N   UNL     1       3.998   9.355  88.229  1.00  0.00    -0.335 N 
HETATM   25  HN  UNL     1       4.246   9.431  89.209  1.00  0.00     0.164 HD
BRANCH  24  26
HETATM   26  C   UNL     1       2.891  10.156  87.770  1.00  0.00     0.166 C 
BRANCH  26  27
HETATM   27  C   UNL     1       1.530   9.526  88.091  1.00  0.00     0.138 C 
HETATM   28  C   UNL     1       1.285   8.237  87.315  1.00  0.00     0.034 C 
BRANCH  27  29
HETATM   29  O   UNL     1       1.450   9.249  89.489  1.00  0.00    -0.383 OA
HETATM   30  H   UNL     1       0.844   9.892  89.893  1.00  0.00     0.210 HD
ENDBRANCH  27  29
ENDBRANCH  26  27
BRANCH  26  31
HETATM   31  C   UNL     1       3.025  11.539  88.400  1.00  0.00     0.181 C 
HETATM   32  O   UNL     1       2.573  11.816  89.509  1.00  0.00    -0.294 OA
BRANCH  31  33
HETATM   33  C   UNL     1       4.561  12.057  88.395  1.00  0.00     0.138 C 
BRANCH  33  34
HETATM   34  C   UNL     1       4.573  12.887  89.538  1.00  0.00     0.208 C 
HETATM   35  O   UNL     1       5.094  12.425  90.526  1.00  0.00    -0.289 OA
BRANCH  34  36
HETATM   36  C   UNL     1       4.356  14.233  89.659  1.00  0.00     0.194 C 
HETATM   37  O   UNL     1       5.227  15.258  90.045  1.00  0.00    -0.185 OA
ENDBRANCH  34  36
ENDBRANCH  33  34
ENDBRANCH  31  33
ENDBRANCH  26  31
ENDBRANCH  24  26
ENDBRANCH  19  22
ENDBRANCH  15  16
ENDBRANCH  11  14
ENDBRANCH   7   8
ENDBRANCH   2   7
TORSDOF 12
ENDMDL
MODEL 4
REMARK VINA RESULT:      -3.5      2.593     12.556
REMARK  12 active torsions:
REMARK  status: ('A' for Active; 'I' for Inactive)
REMARK    1  A    between atoms: O_2  and  C_16 
REMARK    2  A    between atoms: N_5  and  C_9 
REMARK    3  A    between atoms: N_6  and  C_13 
REMARK       I    between atoms: N_6  and  C_22 
REMARK    4  A    between atoms: C_9  and  C_12 
REMARK    5  A    between atoms: C_13  and  C_16 
REMARK    6  A    between atoms: C_13  and  C_21 
REMARK    7  A    between atoms: C_19  and  C_24 
REMARK    8  A    between atoms: C_21  and  C_33 
REMARK    9  A    between atoms: C_22  and  C_23 
REMARK   10  A    between atoms: C_27  and  C_30 
REMARK   11  A    between atoms: C_33  and  C_34 
REMARK   12  A    between atoms: C_34  and  C_35 
ROOT
HETATM    1  O   UNL     1       2.445  15.625  93.397  1.00  0.00    -0.350 OA
HETATM    2  N   UNL     1       2.871  13.252  91.883  1.00  0.00     0.147 N 
HETATM    3  C   UNL     1       3.898  14.299  91.975  1.00  0.00     0.283 C 
HETATM    4  C   UNL     1       1.534  13.845  92.023  1.00  0.00     0.283 C 
HETATM    5  C   UNL     1       3.750  15.053  93.294  1.00  0.00     0.178 C 
HETATM    6  C   UNL     1       1.441  14.610  93.339  1.00  0.00     0.178 C 
ENDROOT
BRANCH   2   7
HETATM    7  C   UNL     1       2.987  12.523  90.621  1.00  0.00     0.277 C 
BRANCH   7   8
HETATM    8  C   UNL     1       4.123  11.558  90.625  1.00  0.00     0.011 A 
HETATM    9  C   UNL     1       5.071  11.594  89.602  1.00  0.00    -0.002 A 
HETATM   10  C   UNL     1       6.133  10.690  89.603  1.00  0.00     0.008 A 
HETATM   11  C   UNL     1       6.249   9.753  90.629  1.00  0.00     0.042 A 
HETATM   12  C   UNL     1       5.304   9.717  91.652  1.00  0.00     0.008 A 
HETATM   13  C   UNL     1       4.240  10.620  91.651  1.00  0.00    -0.002 A 
BRANCH  11  14
HETATM   14  C   UNL     1       7.340   8.828  90.632  1.00  0.00    -0.059 C 
HETATM   15  C   UNL     1       8.257   8.050  90.634  1.00  0.00    -0.059 C 
BRANCH  15  16
HETATM   16  C   UNL     1       9.347   7.125  90.635  1.00  0.00     0.042 A 
HETATM   17  C   UNL     1       9.834   6.624  91.843  1.00  0.00     0.008 A 
HETATM   18  C   UNL     1      10.896   5.720  91.844  1.00  0.00     0.005 A 
HETATM   19  C   UNL     1      11.446   5.337  90.639  1.00  0.00     0.056 A 
HETATM   20  C   UNL     1      10.984   5.818  89.432  1.00  0.00     0.005 A 
HETATM   21  C   UNL     1       9.922   6.722  89.430  1.00  0.00     0.008 A 
BRANCH  19  22
HETATM   22  C   UNL     1      12.579   4.375  90.641  1.00  0.00     0.254 C 
HETATM   23  O   UNL     1      12.844   3.759  89.612  1.00  0.00    -0.268 OA
HETATM   24  N   UNL     1      13.281   4.265  91.833  1.00  0.00    -0.335 N 
HETATM   25  HN  UNL     1      13.020   4.825  92.636  1.00  0.00     0.164 HD
BRANCH  24  26
HETATM   26  C   UNL     1      14.419   3.394  91.986  1.00  0.00     0.166 C 
BRANCH  26  27
HETATM   27  C   UNL     1      15.578   4.058  92.739  1.00  0.00     0.138 C 
HETATM   28  C   UNL     1      15.114   4.801  93.987  1.00  0.00     0.034 C 
BRANCH  27  29
HETATM   29  O   UNL     1      16.531   3.065  93.119  1.00  0.00    -0.383 OA
HETATM   30  H   UNL     1      17.418   3.393  92.894  1.00  0.00     0.210 HD
ENDBRANCH  27  29
ENDBRANCH  26  27
BRANCH  26  31
HETATM   31  C   UNL     1      13.946   2.131  92.698  1.00  0.00     0.181 C 
HETATM   32  O   UNL     1      14.686   1.435  93.391  1.00  0.00    -0.294 OA
BRANCH  31  33
HETATM   33  C   UNL     1      12.618   2.402  93.587  1.00  0.00     0.138 C 
BRANCH  33  34
HETATM   34  C   UNL     1      11.599   2.147  92.642  1.00  0.00     0.208 C 
HETATM   35  O   UNL     1      11.866   1.347  91.774  1.00  0.00    -0.289 OA
BRANCH  34  36
HETATM   36  C   UNL     1      10.260   2.423  92.685  1.00  0.00     0.194 C 
HETATM   37  O   UNL     1       9.395   2.866  91.678  1.00  0.00    -0.185 OA
ENDBRANCH  34  36
ENDBRANCH  33  34
ENDBRANCH  31  33
ENDBRANCH  26  31
ENDBRANCH  24  26
ENDBRANCH  19  22
ENDBRANCH  15  16
ENDBRANCH  11  14
ENDBRANCH   7   8
ENDBRANCH   2   7
TORSDOF 12
ENDMDL
