MODEL 1
REMARK VINA RESULT:      -6.5      0.000      0.000
REMARK  12 active torsions:
REMARK  status: ('A' for Active; 'I' for Inactive)
REMARK    1  A    between atoms: O_2  and  C_16 
REMARK    2  A    between atoms: N_5  and  C_9 
REMARK    3  A    between atoms: N_6  and  C_13 
REMARK       I    between atoms: N_6  and  C_22 
REMARK    4  A    between atoms: C_9  and  C_12 
REMARK    5  A    between atoms: C_13  and  C_16 
REMARK    6  A    between atoms: C_13  and  C_21 
REMARK    7  A    between atoms: C_19  and  C_24 
REMARK    8  A    between atoms: C_21  and  C_33 
REMARK    9  A    between atoms: C_22  and  C_23 
REMARK   10  A    between atoms: C_27  and  C_30 
REMARK   11  A    between atoms: C_33  and  C_34 
REMARK   12  A    between atoms: C_34  and  C_35 
ROOT
HETATM    1  O   UNL     1      16.555   3.387  93.607  1.00  0.00    -0.350 OA
HETATM    2  N   UNL     1      13.869   2.789  92.880  1.00  0.00     0.147 N 
HETATM    3  C   UNL     1      14.850   1.725  93.141  1.00  0.00     0.283 C 
HETATM    4  C   UNL     1      14.551   3.991  92.381  1.00  0.00     0.283 C 
HETATM    5  C   UNL     1      15.905   2.224  94.124  1.00  0.00     0.178 C 
HETATM    6  C   UNL     1      15.613   4.436  93.381  1.00  0.00     0.178 C 
ENDROOT
BRANCH   2   7
HETATM    7  C   UNL     1      12.854   2.335  91.932  1.00  0.00     0.277 C 
BRANCH   7   8
HETATM    8  C   UNL     1      11.721   3.297  91.809  1.00  0.00     0.011 A 
HETATM    9  C   UNL     1      11.349   4.078  92.904  1.00  0.00    -0.002 A 
HETATM   10  C   UNL     1      10.288   4.976  92.792  1.00  0.00     0.008 A 
HETATM   11  C   UNL     1       9.602   5.095  91.584  1.00  0.00     0.042 A 
HETATM   12  C   UNL     1       9.973   4.317  90.490  1.00  0.00     0.008 A 
HETATM   13  C   UNL     1      11.033   3.417  90.602  1.00  0.00    -0.002 A 
BRANCH  11  14
HETATM   14  C   UNL     1       8.515   6.019  91.468  1.00  0.00    -0.059 C 
HETATM   15  C   UNL     1       7.602   6.795  91.371  1.00  0.00    -0.059 C 
BRANCH  15  16
HETATM   16  C   UNL     1       6.516   7.717  91.256  1.00  0.00     0.042 A 
HETATM   17  C   UNL     1       6.716   8.956  90.647  1.00  0.00     0.008 A 
HETATM   18  C   UNL     1       5.656   9.855  90.532  1.00  0.00     0.005 A 
HETATM   19  C   UNL     1       4.420   9.496  91.028  1.00  0.00     0.056 A 
HETATM   20  C   UNL     1       4.197   8.278  91.634  1.00  0.00     0.005 A 
HETATM   21  C   UNL     1       5.256   7.378  91.750  1.00  0.00     0.008 A 
BRANCH  19  22
HETATM   22  C   UNL     1       3.292  10.455  90.907  1.00  0.00     0.254 C 
HETATM   23  O   UNL     1       2.319  10.153  90.220  1.00  0.00    -0.268 OA
HETATM   24  N   UNL     1       3.420  11.638  91.622  1.00  0.00    -0.335 N 
HETATM   25  HN  UNL     1       4.243  11.808  92.189  1.00  0.00     0.164 HD
BRANCH  24  26
HETATM   26  C   UNL     1       2.401  12.656  91.626  1.00  0.00     0.166 C 
BRANCH  26  27
HETATM   27  C   UNL     1       2.247  13.336  92.992  1.00  0.00     0.138 C 
HETATM   28  C   UNL     1       3.470  13.144  93.881  1.00  0.00     0.034 C 
BRANCH  27  29
HETATM   29  O   UNL     1       2.024  14.734  92.807  1.00  0.00    -0.383 OA
HETATM   30  H   UNL     1       1.726  15.110  93.652  1.00  0.00     0.210 HD
ENDBRANCH  27  29
ENDBRANCH  26  27
BRANCH  26  31
HETATM   31  C   UNL     1       2.749  13.668  90.538  1.00  0.00     0.181 C 
HETATM   32  O   UNL     1       2.016  14.609  90.240  1.00  0.00    -0.294 OA
BRANCH  31  33
HETATM   33  C   UNL     1       4.227  14.296  90.751  1.00  0.00     0.138 C 
BRANCH  33  34
HETATM   34  C   UNL     1       4.688  14.370  89.418  1.00  0.00     0.208 C 
HETATM   35  O   UNL     1       4.973  15.474  89.014  1.00  0.00    -0.289 OA
BRANCH  34  36
HETATM   36  C   UNL     1       5.144  13.389  88.581  1.00  0.00     0.194 C 
HETATM   37  O   UNL     1       6.365  12.706  88.569  1.00  0.00    -0.185 OA
ENDBRANCH  34  36
ENDBRANCH  33  34
ENDBRANCH  31  33
ENDBRANCH  26  31
ENDBRANCH  24  26
ENDBRANCH  19  22
ENDBRANCH  15  16
ENDBRANCH  11  14
ENDBRANCH   7   8
ENDBRANCH   2   7
TORSDOF 12
ENDMDL
