MODEL 1
REMARK VINA RESULT:      -6.4      0.000      0.000
REMARK  10 active torsions:
REMARK  status: ('A' for Active; 'I' for Inactive)
REMARK    1  A    between atoms: O_2  and  C_18 
REMARK    2  A    between atoms: O_5  and  N_8 
REMARK    3  A    between atoms: N_6  and  C_11 
REMARK    4  A    between atoms: N_7  and  C_15 
REMARK       I    between atoms: N_7  and  C_24 
REMARK       I    between atoms: N_8  and  C_23 
REMARK    5  A    between atoms: C_11  and  C_14 
REMARK    6  A    between atoms: C_15  and  C_18 
REMARK    7  A    between atoms: C_15  and  C_23 
REMARK    8  A    between atoms: C_21  and  C_26 
REMARK    9  A    between atoms: C_24  and  C_25 
REMARK   10  A    between atoms: C_29  and  C_32 
ROOT
HETATM    1  O   UNK     0      16.774   4.312  94.045  0.00  0.00    -0.388 OA
HETATM    2  N   UNK     0      14.764   2.673  92.870  0.00  0.00     0.096 N 
HETATM    3  C   UNK     0      14.709   4.139  92.782  0.00  0.00     0.299 C 
HETATM    4  C   UNK     0      15.465   2.269  94.096  0.00  0.00     0.299 C 
HETATM    5  C   UNK     0      16.121   4.715  92.839  0.00  0.00     0.198 C 
HETATM    6  C   UNK     0      16.860   2.889  94.123  0.00  0.00     0.198 C 
ENDROOT
BRANCH   2   7
HETATM    7  C   UNK     0      13.420   2.101  92.827  0.00  0.00     0.311 C 
BRANCH   7   8
HETATM    8  C   UNK     0      12.385   3.108  92.457  0.00  0.00    -0.030 A 
HETATM    9  C   UNK     0      11.871   3.967  93.429  0.00  0.00     0.010 A 
HETATM   10  C   UNK     0      10.901   4.908  93.085  0.00  0.00     0.021 A 
HETATM   11  C   UNK     0      10.447   4.991  91.769  0.00  0.00     0.018 A 
HETATM   12  C   UNK     0      10.961   4.134  90.797  0.00  0.00     0.021 A 
HETATM   13  C   UNK     0      11.930   3.192  91.141  0.00  0.00     0.010 A 
BRANCH  11  14
HETATM   14  C   UNK     0       9.454   5.959  91.415  0.00  0.00    -0.061 C 
HETATM   15  C   UNK     0       8.619   6.771  91.118  0.00  0.00    -0.061 C 
BRANCH  15  16
HETATM   16  C   UNK     0       7.626   7.736  90.764  0.00  0.00     0.018 A 
HETATM   17  C   UNK     0       7.152   8.631  91.724  0.00  0.00     0.022 A 
HETATM   18  C   UNK     0       6.184   9.575  91.378  0.00  0.00     0.018 A 
HETATM   19  C   UNK     0       5.714   9.603  90.082  0.00  0.00     0.032 A 
HETATM   20  C   UNK     0       6.166   8.730  89.115  0.00  0.00     0.018 A 
HETATM   21  C   UNK     0       7.133   7.785  89.461  0.00  0.00     0.022 A 
BRANCH  19  22
HETATM   22  C   UNK     0       4.682  10.607  89.715  0.00  0.00     0.252 C 
HETATM   23  O   UNK     0       3.784  10.288  88.938  0.00  0.00    -0.268 OA
HETATM   24  N   UNK     0       4.805  11.853  90.314  0.00  0.00    -0.341 N 
HETATM   25  H   UNK     0       5.559  12.036  90.966  0.00  0.00     0.163 HD
BRANCH  24  26
HETATM   26  C   UNK     0       3.870  12.923  90.078  0.00  0.00     0.207 C 
BRANCH  26  27
HETATM   27  C   UNK     0       3.680  13.827  91.303  0.00  0.00     0.146 C 
HETATM   28  C   UNK     0       4.116  13.153  92.599  0.00  0.00     0.042 C 
BRANCH  27  29
HETATM   29  O   UNK     0       4.431  15.028  91.130  0.00  0.00    -0.393 OA
HETATM   30  H   UNK     0       4.000  15.561  90.440  0.00  0.00     0.210 HD
ENDBRANCH  27  29
ENDBRANCH  26  27
BRANCH  26  31
HETATM   31  C   UNK     0       4.365  13.717  88.874  0.00  0.00     0.266 C 
HETATM   32  O   UNK     0       4.609  14.921  88.921  0.00  0.00    -0.269 OA
HETATM   33  N   UNK     0       4.463  12.941  87.745  0.00  0.00    -0.236 N 
HETATM   34  H   UNK     0       4.186  11.971  87.650  0.00  0.00     0.197 HD
BRANCH  33  35
HETATM   35  O   UNK     0       4.876  13.605  86.581  0.00  0.00    -0.287 OA
HETATM   36  H   UNK     0       4.017  13.905  86.238  0.00  0.00     0.244 HD
ENDBRANCH  33  35
ENDBRANCH  26  31
ENDBRANCH  24  26
ENDBRANCH  19  22
ENDBRANCH  15  16
ENDBRANCH  11  14
ENDBRANCH   7   8
ENDBRANCH   2   7
TORSDOF 10
ENDMDL
