MODEL 1
REMARK VINA RESULT:      -6.4      0.000      0.000
REMARK  14 active torsions:
REMARK  status: ('A' for Active; 'I' for Inactive)
REMARK    1  A    between atoms: O_2  and  C_18 
REMARK    2  A    between atoms: C_5  and  C_8 
REMARK    3  A    between atoms: C_5  and  O_35 
REMARK    4  A    between atoms: C_5  and  C_36 
REMARK    5  A    between atoms: N_6  and  C_11 
REMARK    6  A    between atoms: N_7  and  C_15 
REMARK       I    between atoms: N_7  and  C_24 
REMARK    7  A    between atoms: C_8  and  C_23 
REMARK    8  A    between atoms: C_11  and  C_14 
REMARK    9  A    between atoms: C_15  and  C_18 
REMARK   10  A    between atoms: C_15  and  C_23 
REMARK   11  A    between atoms: C_21  and  C_26 
REMARK   12  A    between atoms: C_24  and  C_25 
REMARK   13  A    between atoms: C_29  and  C_32 
REMARK   14  A    between atoms: C_36  and  O_39 
ROOT
HETATM    1  O   UNL     1      16.339   3.038  93.966  1.00  0.00    -0.350 OA
HETATM    2  N   UNL     1      13.822   2.976  92.638  1.00  0.00     0.147 N 
HETATM    3  C   UNL     1      14.593   1.748  92.881  1.00  0.00     0.283 C 
HETATM    4  C   UNL     1      14.730   4.124  92.511  1.00  0.00     0.283 C 
HETATM    5  C   UNL     1      15.462   1.921  94.124  1.00  0.00     0.178 C 
HETATM    6  C   UNL     1      15.596   4.241  93.761  1.00  0.00     0.178 C 
ENDROOT
BRANCH   2   7
HETATM    7  C   UNL     1      12.989   2.836  91.445  1.00  0.00     0.277 C 
BRANCH   7   8
HETATM    8  C   UNL     1      11.812   3.751  91.463  1.00  0.00     0.011 A 
HETATM    9  C   UNL     1      11.350   4.316  90.274  1.00  0.00    -0.002 A 
HETATM   10  C   UNL     1      10.250   5.174  90.291  1.00  0.00     0.008 A 
HETATM   11  C   UNL     1       9.612   5.464  91.496  1.00  0.00     0.042 A 
HETATM   12  C   UNL     1      10.072   4.901  92.684  1.00  0.00     0.008 A 
HETATM   13  C   UNL     1      11.173   4.043  92.668  1.00  0.00    -0.002 A 
BRANCH  11  14
HETATM   14  C   UNL     1       8.483   6.342  91.512  1.00  0.00    -0.059 C 
HETATM   15  C   UNL     1       7.533   7.080  91.527  1.00  0.00    -0.059 C 
BRANCH  15  16
HETATM   16  C   UNL     1       6.404   7.957  91.544  1.00  0.00     0.042 A 
HETATM   17  C   UNL     1       5.199   7.553  90.969  1.00  0.00     0.008 A 
HETATM   18  C   UNL     1       4.097   8.408  90.988  1.00  0.00     0.005 A 
HETATM   19  C   UNL     1       4.225   9.646  91.583  1.00  0.00     0.056 A 
HETATM   20  C   UNL     1       5.405  10.069  92.158  1.00  0.00     0.005 A 
HETATM   21  C   UNL     1       6.507   9.215  92.139  1.00  0.00     0.008 A 
BRANCH  19  22
HETATM   22  C   UNL     1       3.051  10.557  91.601  1.00  0.00     0.254 C 
HETATM   23  O   UNL     1       1.930  10.096  91.402  1.00  0.00    -0.268 OA
HETATM   24  N   UNL     1       3.321  11.891  91.874  1.00  0.00    -0.335 N 
HETATM   25  HN  UNL     1       4.271  12.196  92.053  1.00  0.00     0.164 HD
BRANCH  24  26
HETATM   26  C   UNL     1       2.288  12.892  91.951  1.00  0.00     0.169 C 
BRANCH  26  27
HETATM   27  C   UNL     1       2.218  13.569  93.325  1.00  0.00     0.138 C 
HETATM   28  C   UNL     1       3.529  13.462  94.096  1.00  0.00     0.034 C 
BRANCH  27  29
HETATM   29  O   UNL     1       1.888  14.948  93.162  1.00  0.00    -0.383 OA
HETATM   30  H   UNL     1       2.344  15.455  93.855  1.00  0.00     0.210 HD
ENDBRANCH  27  29
ENDBRANCH  26  27
BRANCH  26  31
HETATM   31  C   UNL     1       2.541  13.910  90.843  1.00  0.00     0.194 C 
HETATM   32  O   UNL     1       1.641  14.547  90.301  1.00  0.00    -0.289 OA
BRANCH  31  33
HETATM   33  C   UNL     1       3.871  13.993  90.509  1.00  0.00     0.053 C 
BRANCH  33  34
HETATM   34  C   UNL     1       4.148  14.163  89.145  1.00  0.00     0.220 C 
BRANCH  34  35
HETATM   35  O   UNL     1       4.916  15.138  89.033  1.00  0.00    -0.371 OA
HETATM   36  H   UNL     1       4.262  15.815  88.957  1.00  0.00     0.211 HD
ENDBRANCH  34  35
BRANCH  34  37
HETATM   37  C   UNL     1       4.658  13.008  88.528  1.00  0.00     0.185 C 
HETATM   38  O   UNL     1       5.271  12.851  89.691  1.00  0.00    -0.647 OA
BRANCH  37  39
HETATM   39  O   UNL     1       4.585  12.486  87.457  1.00  0.00    -0.774 OA
HETATM   40  H   UNL     1       5.010  13.148  86.639  1.00  0.00     0.167 HD
ENDBRANCH  37  39
ENDBRANCH  34  37
ENDBRANCH  33  34
ENDBRANCH  31  33
ENDBRANCH  26  31
ENDBRANCH  24  26
ENDBRANCH  19  22
ENDBRANCH  15  16
ENDBRANCH  11  14
ENDBRANCH   7   8
ENDBRANCH   2   7
TORSDOF 14
ENDMDL
