MODEL 1
REMARK VINA RESULT:      -6.2      0.000      0.000
REMARK  12 active torsions:
REMARK  status: ('A' for Active; 'I' for Inactive)
REMARK    1  A    between atoms: O_2  and  C_16 
REMARK    2  A    between atoms: N_5  and  C_9 
REMARK    3  A    between atoms: N_6  and  C_13 
REMARK       I    between atoms: N_6  and  C_22 
REMARK    4  A    between atoms: C_9  and  C_12 
REMARK    5  A    between atoms: C_13  and  C_16 
REMARK    6  A    between atoms: C_13  and  C_21 
REMARK    7  A    between atoms: C_19  and  C_24 
REMARK    8  A    between atoms: C_21  and  C_33 
REMARK    9  A    between atoms: C_22  and  C_23 
REMARK   10  A    between atoms: C_27  and  C_30 
REMARK   11  A    between atoms: C_33  and  C_34 
REMARK   12  A    between atoms: C_34  and  C_35 
ROOT
HETATM    1  O   UNL     1      16.685   3.509  93.773  1.00  0.00    -0.350 OA
HETATM    2  N   UNL     1      14.090   2.929  92.758  1.00  0.00     0.147 N 
HETATM    3  C   UNL     1      15.072   1.865  93.009  1.00  0.00     0.283 C 
HETATM    4  C   UNL     1      14.780   4.184  92.432  1.00  0.00     0.283 C 
HETATM    5  C   UNL     1      16.024   2.292  94.123  1.00  0.00     0.178 C 
HETATM    6  C   UNL     1      15.738   4.557  93.558  1.00  0.00     0.178 C 
ENDROOT
BRANCH   2   7
HETATM    7  C   UNL     1      13.174   2.545  91.686  1.00  0.00     0.277 C 
BRANCH   7   8
HETATM    8  C   UNL     1      12.009   3.469  91.576  1.00  0.00     0.011 A 
HETATM    9  C   UNL     1      11.404   3.967  92.730  1.00  0.00    -0.002 A 
HETATM   10  C   UNL     1      10.313   4.830  92.628  1.00  0.00     0.008 A 
HETATM   11  C   UNL     1       9.830   5.196  91.373  1.00  0.00     0.042 A 
HETATM   12  C   UNL     1      10.433   4.700  90.219  1.00  0.00     0.008 A 
HETATM   13  C   UNL     1      11.524   3.836  90.320  1.00  0.00    -0.002 A 
BRANCH  11  14
HETATM   14  C   UNL     1       8.712   6.084  91.268  1.00  0.00    -0.059 C 
HETATM   15  C   UNL     1       7.772   6.829  91.180  1.00  0.00    -0.059 C 
BRANCH  15  16
HETATM   16  C   UNL     1       6.655   7.714  91.077  1.00  0.00     0.042 A 
HETATM   17  C   UNL     1       5.694   7.510  90.086  1.00  0.00     0.008 A 
HETATM   18  C   UNL     1       4.602   8.373  89.987  1.00  0.00     0.005 A 
HETATM   19  C   UNL     1       4.496   9.419  90.880  1.00  0.00     0.056 A 
HETATM   20  C   UNL     1       5.433   9.642  91.867  1.00  0.00     0.005 A 
HETATM   21  C   UNL     1       6.525   8.780  91.967  1.00  0.00     0.008 A 
BRANCH  19  22
HETATM   22  C   UNL     1       3.334  10.339  90.773  1.00  0.00     0.254 C 
HETATM   23  O   UNL     1       2.344   9.983  90.138  1.00  0.00    -0.268 OA
HETATM   24  N   UNL     1       3.455  11.551  91.437  1.00  0.00    -0.335 N 
HETATM   25  HN  UNL     1       4.294  11.766  91.963  1.00  0.00     0.164 HD
BRANCH  24  26
HETATM   26  C   UNL     1       2.405  12.538  91.447  1.00  0.00     0.166 C 
BRANCH  26  27
HETATM   27  C   UNL     1       1.943  12.898  92.865  1.00  0.00     0.138 C 
HETATM   28  C   UNL     1       1.720  11.667  93.737  1.00  0.00     0.034 C 
BRANCH  27  29
HETATM   29  O   UNL     1       2.916  13.736  93.487  1.00  0.00    -0.383 OA
HETATM   30  H   UNL     1       3.185  14.417  92.847  1.00  0.00     0.210 HD
ENDBRANCH  27  29
ENDBRANCH  26  27
BRANCH  26  31
HETATM   31  C   UNL     1       2.914  13.767  90.702  1.00  0.00     0.181 C 
HETATM   32  O   UNL     1       2.537  14.910  90.957  1.00  0.00    -0.294 OA
BRANCH  31  33
HETATM   33  C   UNL     1       4.534  13.824  90.668  1.00  0.00     0.138 C 
BRANCH  33  34
HETATM   34  C   UNL     1       4.767  14.210  89.330  1.00  0.00     0.208 C 
HETATM   35  O   UNL     1       5.203  15.326  89.166  1.00  0.00    -0.289 OA
BRANCH  34  36
HETATM   36  C   UNL     1       4.859  13.456  88.192  1.00  0.00     0.194 C 
HETATM   37  O   UNL     1       4.532  12.114  87.968  1.00  0.00    -0.185 OA
ENDBRANCH  34  36
ENDBRANCH  33  34
ENDBRANCH  31  33
ENDBRANCH  26  31
ENDBRANCH  24  26
ENDBRANCH  19  22
ENDBRANCH  15  16
ENDBRANCH  11  14
ENDBRANCH   7   8
ENDBRANCH   2   7
TORSDOF 12
ENDMDL
MODEL 2
REMARK VINA RESULT:      -6.0      0.818      1.416
REMARK  12 active torsions:
REMARK  status: ('A' for Active; 'I' for Inactive)
REMARK    1  A    between atoms: O_2  and  C_16 
REMARK    2  A    between atoms: N_5  and  C_9 
REMARK    3  A    between atoms: N_6  and  C_13 
REMARK       I    between atoms: N_6  and  C_22 
REMARK    4  A    between atoms: C_9  and  C_12 
REMARK    5  A    between atoms: C_13  and  C_16 
REMARK    6  A    between atoms: C_13  and  C_21 
REMARK    7  A    between atoms: C_19  and  C_24 
REMARK    8  A    between atoms: C_21  and  C_33 
REMARK    9  A    between atoms: C_22  and  C_23 
REMARK   10  A    between atoms: C_27  and  C_30 
REMARK   11  A    between atoms: C_33  and  C_34 
REMARK   12  A    between atoms: C_34  and  C_35 
ROOT
HETATM    1  O   UNL     1      16.840   3.507  93.920  1.00  0.00    -0.350 OA
HETATM    2  N   UNL     1      14.257   3.056  92.813  1.00  0.00     0.147 N 
HETATM    3  C   UNL     1      15.232   1.966  92.956  1.00  0.00     0.283 C 
HETATM    4  C   UNL     1      14.956   4.336  92.637  1.00  0.00     0.283 C 
HETATM    5  C   UNL     1      16.170   2.261  94.124  1.00  0.00     0.178 C 
HETATM    6  C   UNL     1      15.900   4.576  93.810  1.00  0.00     0.178 C 
ENDROOT
BRANCH   2   7
HETATM    7  C   UNL     1      13.353   2.798  91.693  1.00  0.00     0.277 C 
BRANCH   7   8
HETATM    8  C   UNL     1      12.195   3.737  91.670  1.00  0.00     0.011 A 
HETATM    9  C   UNL     1      11.729   4.239  90.454  1.00  0.00    -0.002 A 
HETATM   10  C   UNL     1      10.647   5.118  90.432  1.00  0.00     0.008 A 
HETATM   11  C   UNL     1      10.030   5.493  91.625  1.00  0.00     0.042 A 
HETATM   12  C   UNL     1      10.494   4.992  92.839  1.00  0.00     0.008 A 
HETATM   13  C   UNL     1      11.577   4.113  92.862  1.00  0.00    -0.002 A 
BRANCH  11  14
HETATM   14  C   UNL     1       8.918   6.394  91.602  1.00  0.00    -0.059 C 
HETATM   15  C   UNL     1       7.985   7.151  91.582  1.00  0.00    -0.059 C 
BRANCH  15  16
HETATM   16  C   UNL     1       6.874   8.051  91.558  1.00  0.00     0.042 A 
HETATM   17  C   UNL     1       6.925   9.239  92.288  1.00  0.00     0.008 A 
HETATM   18  C   UNL     1       5.842  10.118  92.262  1.00  0.00     0.005 A 
HETATM   19  C   UNL     1       4.735   9.791  91.508  1.00  0.00     0.056 A 
HETATM   20  C   UNL     1       4.661   8.623  90.778  1.00  0.00     0.005 A 
HETATM   21  C   UNL     1       5.743   7.743  90.803  1.00  0.00     0.008 A 
BRANCH  19  22
HETATM   22  C   UNL     1       3.582  10.727  91.482  1.00  0.00     0.254 C 
HETATM   23  O   UNL     1       2.472  10.303  91.169  1.00  0.00    -0.268 OA
HETATM   24  N   UNL     1       3.854  12.038  91.848  1.00  0.00    -0.335 N 
HETATM   25  HN  UNL     1       4.792  12.310  92.120  1.00  0.00     0.164 HD
BRANCH  24  26
HETATM   26  C   UNL     1       2.837  13.057  91.897  1.00  0.00     0.166 C 
BRANCH  26  27
HETATM   27  C   UNL     1       3.062  14.067  93.029  1.00  0.00     0.138 C 
HETATM   28  C   UNL     1       1.948  14.035  94.070  1.00  0.00     0.034 C 
BRANCH  27  29
HETATM   29  O   UNL     1       4.306  13.794  93.673  1.00  0.00    -0.383 OA
HETATM   30  H   UNL     1       4.176  13.872  94.633  1.00  0.00     0.210 HD
ENDBRANCH  27  29
ENDBRANCH  26  27
BRANCH  26  31
HETATM   31  C   UNL     1       2.804  13.747  90.537  1.00  0.00     0.181 C 
HETATM   32  O   UNL     1       1.824  14.365  90.123  1.00  0.00    -0.294 OA
BRANCH  31  33
HETATM   33  C   UNL     1       4.078  14.726  90.327  1.00  0.00     0.138 C 
BRANCH  33  34
HETATM   34  C   UNL     1       4.564  14.279  89.078  1.00  0.00     0.208 C 
HETATM   35  O   UNL     1       5.233  15.069  88.453  1.00  0.00    -0.289 OA
BRANCH  34  36
HETATM   36  C   UNL     1       4.658  13.015  88.563  1.00  0.00     0.194 C 
HETATM   37  O   UNL     1       5.669  12.057  88.698  1.00  0.00    -0.185 OA
ENDBRANCH  34  36
ENDBRANCH  33  34
ENDBRANCH  31  33
ENDBRANCH  26  31
ENDBRANCH  24  26
ENDBRANCH  19  22
ENDBRANCH  15  16
ENDBRANCH  11  14
ENDBRANCH   7   8
ENDBRANCH   2   7
TORSDOF 12
ENDMDL
MODEL 3
REMARK VINA RESULT:      -4.8      2.400     12.824
REMARK  12 active torsions:
REMARK  status: ('A' for Active; 'I' for Inactive)
REMARK    1  A    between atoms: O_2  and  C_16 
REMARK    2  A    between atoms: N_5  and  C_9 
REMARK    3  A    between atoms: N_6  and  C_13 
REMARK       I    between atoms: N_6  and  C_22 
REMARK    4  A    between atoms: C_9  and  C_12 
REMARK    5  A    between atoms: C_13  and  C_16 
REMARK    6  A    between atoms: C_13  and  C_21 
REMARK    7  A    between atoms: C_19  and  C_24 
REMARK    8  A    between atoms: C_21  and  C_33 
REMARK    9  A    between atoms: C_22  and  C_23 
REMARK   10  A    between atoms: C_27  and  C_30 
REMARK   11  A    between atoms: C_33  and  C_34 
REMARK   12  A    between atoms: C_34  and  C_35 
ROOT
HETATM    1  O   UNL     1       2.356  14.562  94.065  1.00  0.00    -0.350 OA
HETATM    2  N   UNL     1       2.682  14.540  91.237  1.00  0.00     0.147 N 
HETATM    3  C   UNL     1       1.484  13.979  91.876  1.00  0.00     0.283 C 
HETATM    4  C   UNL     1       3.833  14.434  92.145  1.00  0.00     0.283 C 
HETATM    5  C   UNL     1       1.224  14.690  93.202  1.00  0.00     0.178 C 
HETATM    6  C   UNL     1       3.519  15.133  93.464  1.00  0.00     0.178 C 
ENDROOT
BRANCH   2   7
HETATM    7  C   UNL     1       2.957  13.867  89.969  1.00  0.00     0.277 C 
BRANCH   7   8
HETATM    8  C   UNL     1       3.886  12.712  90.129  1.00  0.00     0.011 A 
HETATM    9  C   UNL     1       3.460  11.562  90.794  1.00  0.00    -0.002 A 
HETATM   10  C   UNL     1       4.329  10.482  90.946  1.00  0.00     0.008 A 
HETATM   11  C   UNL     1       5.623  10.552  90.431  1.00  0.00     0.042 A 
HETATM   12  C   UNL     1       6.050  11.700  89.766  1.00  0.00     0.008 A 
HETATM   13  C   UNL     1       5.181  12.781  89.615  1.00  0.00    -0.002 A 
BRANCH  11  14
HETATM   14  C   UNL     1       6.514   9.443  90.585  1.00  0.00    -0.059 C 
HETATM   15  C   UNL     1       7.263   8.511  90.714  1.00  0.00    -0.059 C 
BRANCH  15  16
HETATM   16  C   UNL     1       8.153   7.403  90.867  1.00  0.00     0.042 A 
HETATM   17  C   UNL     1       7.872   6.407  91.803  1.00  0.00     0.008 A 
HETATM   18  C   UNL     1       8.739   5.325  91.950  1.00  0.00     0.005 A 
HETATM   19  C   UNL     1       9.866   5.262  91.158  1.00  0.00     0.056 A 
HETATM   20  C   UNL     1      10.167   6.233  90.226  1.00  0.00     0.005 A 
HETATM   21  C   UNL     1       9.300   7.316  90.078  1.00  0.00     0.008 A 
BRANCH  19  22
HETATM   22  C   UNL     1      10.791   4.109  91.317  1.00  0.00     0.254 C 
HETATM   23  O   UNL     1      10.354   2.968  91.193  1.00  0.00    -0.268 OA
HETATM   24  N   UNL     1      12.118   4.425  91.576  1.00  0.00    -0.335 N 
HETATM   25  HN  UNL     1      12.411   5.393  91.640  1.00  0.00     0.164 HD
BRANCH  24  26
HETATM   26  C   UNL     1      13.138   3.420  91.731  1.00  0.00     0.166 C 
BRANCH  26  27
HETATM   27  C   UNL     1      14.347   3.656  90.816  1.00  0.00     0.138 C 
HETATM   28  C   UNL     1      14.063   3.286  89.365  1.00  0.00     0.034 C 
BRANCH  27  29
HETATM   29  O   UNL     1      14.731   5.029  90.878  1.00  0.00    -0.383 OA
HETATM   30  H   UNL     1      14.199   5.464  91.565  1.00  0.00     0.210 HD
ENDBRANCH  27  29
ENDBRANCH  26  27
BRANCH  26  31
HETATM   31  C   UNL     1      13.550   3.396  93.199  1.00  0.00     0.181 C 
HETATM   32  O   UNL     1      12.738   3.362  94.122  1.00  0.00    -0.294 OA
BRANCH  31  33
HETATM   33  C   UNL     1      14.629   2.226  93.503  1.00  0.00     0.138 C 
BRANCH  33  34
HETATM   34  C   UNL     1      15.828   2.970  93.570  1.00  0.00     0.208 C 
HETATM   35  O   UNL     1      16.724   2.602  92.844  1.00  0.00    -0.289 OA
BRANCH  34  36
HETATM   36  C   UNL     1      16.076   4.208  94.096  1.00  0.00     0.194 C 
HETATM   37  O   UNL     1      16.165   5.456  93.468  1.00  0.00    -0.185 OA
ENDBRANCH  34  36
ENDBRANCH  33  34
ENDBRANCH  31  33
ENDBRANCH  26  31
ENDBRANCH  24  26
ENDBRANCH  19  22
ENDBRANCH  15  16
ENDBRANCH  11  14
ENDBRANCH   7   8
ENDBRANCH   2   7
TORSDOF 12
ENDMDL
MODEL 4
REMARK VINA RESULT:      -3.8      3.032     12.322
REMARK  12 active torsions:
REMARK  status: ('A' for Active; 'I' for Inactive)
REMARK    1  A    between atoms: O_2  and  C_16 
REMARK    2  A    between atoms: N_5  and  C_9 
REMARK    3  A    between atoms: N_6  and  C_13 
REMARK       I    between atoms: N_6  and  C_22 
REMARK    4  A    between atoms: C_9  and  C_12 
REMARK    5  A    between atoms: C_13  and  C_16 
REMARK    6  A    between atoms: C_13  and  C_21 
REMARK    7  A    between atoms: C_19  and  C_24 
REMARK    8  A    between atoms: C_21  and  C_33 
REMARK    9  A    between atoms: C_22  and  C_23 
REMARK   10  A    between atoms: C_27  and  C_30 
REMARK   11  A    between atoms: C_33  and  C_34 
REMARK   12  A    between atoms: C_34  and  C_35 
ROOT
HETATM    1  O   UNL     1       2.390  14.162  94.111  1.00  0.00    -0.350 OA
HETATM    2  N   UNL     1       2.625  14.829  91.354  1.00  0.00     0.147 N 
HETATM    3  C   UNL     1       1.674  13.810  91.819  1.00  0.00     0.283 C 
HETATM    4  C   UNL     1       3.779  14.892  92.261  1.00  0.00     0.283 C 
HETATM    5  C   UNL     1       1.248  14.116  93.252  1.00  0.00     0.178 C 
HETATM    6  C   UNL     1       3.304  15.172  93.684  1.00  0.00     0.178 C 
ENDROOT
BRANCH   2   7
HETATM    7  C   UNL     1       3.055  14.550  89.985  1.00  0.00     0.277 C 
BRANCH   7   8
HETATM    8  C   UNL     1       4.004  13.403  89.910  1.00  0.00     0.011 A 
HETATM    9  C   UNL     1       5.127  13.480  89.085  1.00  0.00    -0.002 A 
HETATM   10  C   UNL     1       6.015  12.407  89.013  1.00  0.00     0.008 A 
HETATM   11  C   UNL     1       5.780  11.258  89.768  1.00  0.00     0.042 A 
HETATM   12  C   UNL     1       4.660  11.179  90.592  1.00  0.00     0.008 A 
HETATM   13  C   UNL     1       3.771  12.252  90.664  1.00  0.00    -0.002 A 
BRANCH  11  14
HETATM   14  C   UNL     1       6.692  10.158  89.695  1.00  0.00    -0.059 C 
HETATM   15  C   UNL     1       7.458   9.233  89.635  1.00  0.00    -0.059 C 
BRANCH  15  16
HETATM   16  C   UNL     1       8.369   8.133  89.564  1.00  0.00     0.042 A 
HETATM   17  C   UNL     1       7.910   6.834  89.780  1.00  0.00     0.008 A 
HETATM   18  C   UNL     1       8.798   5.760  89.707  1.00  0.00     0.005 A 
HETATM   19  C   UNL     1      10.123   6.010  89.419  1.00  0.00     0.056 A 
HETATM   20  C   UNL     1      10.602   7.285  89.202  1.00  0.00     0.005 A 
HETATM   21  C   UNL     1       9.715   8.359  89.274  1.00  0.00     0.008 A 
BRANCH  19  22
HETATM   22  C   UNL     1      11.069   4.867  89.344  1.00  0.00     0.254 C 
HETATM   23  O   UNL     1      11.169   4.240  88.292  1.00  0.00    -0.268 OA
HETATM   24  N   UNL     1      11.802   4.607  90.493  1.00  0.00    -0.335 N 
HETATM   25  HN  UNL     1      11.684   5.184  91.318  1.00  0.00     0.164 HD
BRANCH  24  26
HETATM   26  C   UNL     1      12.776   3.548  90.569  1.00  0.00     0.166 C 
BRANCH  26  27
HETATM   27  C   UNL     1      14.201   4.068  90.801  1.00  0.00     0.138 C 
HETATM   28  C   UNL     1      14.493   4.334  92.274  1.00  0.00     0.034 C 
BRANCH  27  29
HETATM   29  O   UNL     1      15.142   3.116  90.306  1.00  0.00    -0.383 OA
HETATM   30  H   UNL     1      16.003   3.558  90.215  1.00  0.00     0.210 HD
ENDBRANCH  27  29
ENDBRANCH  26  27
BRANCH  26  31
HETATM   31  C   UNL     1      12.345   2.597  91.681  1.00  0.00     0.181 C 
HETATM   32  O   UNL     1      13.028   1.643  92.048  1.00  0.00    -0.294 OA
BRANCH  31  33
HETATM   33  C   UNL     1      11.925   3.397  93.028  1.00  0.00     0.138 C 
BRANCH  33  34
HETATM   34  C   UNL     1      10.627   3.838  92.689  1.00  0.00     0.208 C 
HETATM   35  O   UNL     1       9.937   3.050  92.084  1.00  0.00    -0.289 OA
BRANCH  34  36
HETATM   36  C   UNL     1       9.896   4.892  93.166  1.00  0.00     0.194 C 
HETATM   37  O   UNL     1       8.530   5.173  93.047  1.00  0.00    -0.185 OA
ENDBRANCH  34  36
ENDBRANCH  33  34
ENDBRANCH  31  33
ENDBRANCH  26  31
ENDBRANCH  24  26
ENDBRANCH  19  22
ENDBRANCH  15  16
ENDBRANCH  11  14
ENDBRANCH   7   8
ENDBRANCH   2   7
TORSDOF 12
ENDMDL
