MODEL 1
REMARK VINA RESULT:      -6.7      0.000      0.000
REMARK  11 active torsions:
REMARK  status: ('A' for Active; 'I' for Inactive)
REMARK    1  A    between atoms: O_2  and  C_18 
REMARK    2  A    between atoms: O_5  and  P_8 
REMARK    3  A    between atoms: N_6  and  C_11 
REMARK    4  A    between atoms: N_7  and  C_15 
REMARK       I    between atoms: N_7  and  C_24 
REMARK    5  A    between atoms: P_8  and  C_23 
REMARK    6  A    between atoms: C_11  and  C_14 
REMARK    7  A    between atoms: C_15  and  C_18 
REMARK    8  A    between atoms: C_15  and  C_23 
REMARK    9  A    between atoms: C_21  and  C_26 
REMARK   10  A    between atoms: C_24  and  C_25 
REMARK   11  A    between atoms: C_29  and  C_32 
ROOT
HETATM    1  O   UNL     1      16.075   4.212  94.101  1.00  0.00     0.000 OA
HETATM    2  N   UNL     1      14.345   2.713  92.410  1.00  0.00     0.000 N 
HETATM    3  C   UNL     1      14.357   4.182  92.387  1.00  0.00     0.000 C 
HETATM    4  C   UNL     1      14.728   2.227  93.742  1.00  0.00     0.000 C 
HETATM    5  C   UNL     1      15.734   4.694  92.800  1.00  0.00     0.000 C 
HETATM    6  C   UNL     1      16.096   2.785  94.123  1.00  0.00     0.000 C 
ENDROOT
BRANCH   2   7
HETATM    7  C   UNL     1      13.030   2.200  92.027  1.00  0.00     0.000 C 
BRANCH   7   8
HETATM    8  C   UNL     1      12.060   3.291  91.727  1.00  0.00     0.000 A 
HETATM    9  C   UNL     1      11.756   3.607  90.402  1.00  0.00     0.000 A 
HETATM   10  C   UNL     1      10.850   4.629  90.119  1.00  0.00     0.000 A 
HETATM   11  C   UNL     1      10.248   5.334  91.162  1.00  0.00     0.000 A 
HETATM   12  C   UNL     1      10.551   5.019  92.485  1.00  0.00     0.000 A 
HETATM   13  C   UNL     1      11.457   3.997  92.768  1.00  0.00     0.000 A 
BRANCH  11  14
HETATM   14  C   UNL     1       9.317   6.381  90.872  1.00  0.00     0.000 C 
HETATM   15  C   UNL     1       8.535   7.261  90.629  1.00  0.00     0.000 C 
BRANCH  15  16
HETATM   16  C   UNL     1       7.605   8.308  90.340  1.00  0.00     0.000 A 
HETATM   17  C   UNL     1       7.429   9.353  91.247  1.00  0.00     0.000 A 
HETATM   18  C   UNL     1       6.524  10.376  90.963  1.00  0.00     0.000 A 
HETATM   19  C   UNL     1       5.816  10.331  89.780  1.00  0.00     0.000 A 
HETATM   20  C   UNL     1       5.972   9.309  88.868  1.00  0.00     0.000 A 
HETATM   21  C   UNL     1       6.876   8.285  89.150  1.00  0.00     0.000 A 
BRANCH  19  22
HETATM   22  C   UNL     1       4.851  11.420  89.480  1.00  0.00     0.000 C 
HETATM   23  O   UNL     1       4.303  11.449  88.380  1.00  0.00     0.000 OA
HETATM   24  N   UNL     1       4.620  12.328  90.504  1.00  0.00     0.000 N 
HETATM   25  HN  UNL     1       5.091  12.226  91.395  1.00  0.00     0.000 HD
BRANCH  24  26
HETATM   26  C   UNL     1       3.694  13.424  90.374  1.00  0.00     0.000 C 
BRANCH  26  27
HETATM   27  C   UNL     1       2.428  13.234  91.218  1.00  0.00     0.000 C 
HETATM   28  C   UNL     1       2.688  12.433  92.489  1.00  0.00     0.000 C 
BRANCH  27  29
HETATM   29  O   UNL     1       1.895  14.509  91.574  1.00  0.00     0.000 OA
HETATM   30  H   UNL     1       1.001  14.582  91.201  1.00  0.00     0.000 HD
ENDBRANCH  27  29
ENDBRANCH  26  27
BRANCH  26  31
HETATM   31  C   UNL     1       4.430  14.704  90.760  1.00  0.00     0.000 C 
HETATM   32  O   UNL     1       4.516  15.103  91.919  1.00  0.00     0.000 OA
BRANCH  31  33
HETATM   33  P   UNL     1       4.939  15.359  89.665  1.00  0.00     0.000 P 
HETATM   34  H   UNL     1       4.067  16.378  89.338  1.00  0.00     0.000 HD
BRANCH  33  35
HETATM   35  O   UNL     1       5.132  14.575  88.519  1.00  0.00     0.000 OA
HETATM   36  H   UNL     1       5.623  15.201  87.960  1.00  0.00     0.000 HD
ENDBRANCH  33  35
ENDBRANCH  31  33
ENDBRANCH  26  31
ENDBRANCH  24  26
ENDBRANCH  19  22
ENDBRANCH  15  16
ENDBRANCH  11  14
ENDBRANCH   7   8
ENDBRANCH   2   7
TORSDOF 11
ENDMDL
