MODEL 1
REMARK VINA RESULT:      -7.5      0.000      0.000
REMARK  9 active torsions:
REMARK  status: ('A' for Active; 'I' for Inactive)
REMARK    1  A    between atoms: N_3  and  C_6 
REMARK    2  A    between atoms: C_6  and  C_9 
REMARK    3  A    between atoms: C_14  and  C_17 
REMARK       I    between atoms: N_26  and  C_15 
REMARK    4  A    between atoms: C_15  and  C_16 
REMARK    5  A    between atoms: C_20  and  C_23 
REMARK    6  A    between atoms: OG1_24  and  CB_28 
REMARK    7  A    between atoms: N_26  and  CA_27 
REMARK    8  A    between atoms: CA_27  and  CB_28 
REMARK    9  A    between atoms: CA_27  and  C_30 
ROOT
HETATM    1  O   UNK A   0       1.919   8.084  87.830  1.00  0.00    -0.388 OA
HETATM    2  N   UNK A   0       4.713   7.566  87.680  1.00  0.00     0.096 N 
HETATM    3  C   UNK A   0       4.191   8.935  87.784  1.00  0.00     0.299 C 
HETATM    4  C   UNK A   0       3.734   6.704  87.003  1.00  0.00     0.299 C 
HETATM    5  C   UNK A   0       2.851   8.923  88.515  1.00  0.00     0.198 C 
HETATM    6  C   UNK A   0       2.405   6.744  87.751  1.00  0.00     0.198 C 
ENDROOT
BRANCH   2   7
HETATM    7  C   UNK A   0       5.993   7.553  86.973  1.00  0.00     0.311 C 
BRANCH   7   8
HETATM    8  C   UNK A   0       7.086   6.949  87.788  1.00  0.00    -0.030 A 
HETATM    9  C   UNK A   0       8.314   6.653  87.196  1.00  0.00     0.010 A 
HETATM   10  C   UNK A   0       9.337   6.087  87.957  1.00  0.00     0.021 A 
HETATM   11  C   UNK A   0       9.131   5.819  89.310  1.00  0.00     0.018 A 
HETATM   12  C   UNK A   0       7.905   6.114  89.902  1.00  0.00     0.021 A 
HETATM   13  C   UNK A   0       6.882   6.680  89.141  1.00  0.00     0.010 A 
BRANCH  11  14
HETATM   14  C   UNK A   0      10.180   5.240  90.091  1.00  0.00    -0.061 C 
HETATM   15  C   UNK A   0      11.062   4.752  90.747  1.00  0.00    -0.061 C 
BRANCH  15  16
HETATM   16  C   UNK A   0      12.112   4.173  91.527  1.00  0.00     0.018 A 
HETATM   17  C   UNK A   0      13.371   3.974  90.961  1.00  0.00     0.022 A 
HETATM   18  C   UNK A   0      14.395   3.412  91.722  1.00  0.00     0.018 A 
HETATM   19  C   UNK A   0      14.138   3.062  93.031  1.00  0.00     0.032 A 
HETATM   20  C   UNK A   0      12.902   3.248  93.614  1.00  0.00     0.018 A 
HETATM   21  C   UNK A   0      11.876   3.811  92.853  1.00  0.00     0.022 A 
BRANCH  19  22
HETATM   22  C   UNK A   0      15.229   2.461  93.842  1.00  0.00     0.252 C 
HETATM   23  O   UNK A   0      16.351   2.960  93.800  1.00  0.00    -0.268 OA
ENDBRANCH  19  22
ENDBRANCH  15  16
ENDBRANCH  11  14
ENDBRANCH   7   8
ENDBRANCH   2   7
TORSDOF 9
ENDMDL
MODEL 2
REMARK VINA RESULT:      -7.5      0.072      1.425
REMARK  9 active torsions:
REMARK  status: ('A' for Active; 'I' for Inactive)
REMARK    1  A    between atoms: N_3  and  C_6 
REMARK    2  A    between atoms: C_6  and  C_9 
REMARK    3  A    between atoms: C_14  and  C_17 
REMARK       I    between atoms: N_26  and  C_15 
REMARK    4  A    between atoms: C_15  and  C_16 
REMARK    5  A    between atoms: C_20  and  C_23 
REMARK    6  A    between atoms: OG1_24  and  CB_28 
REMARK    7  A    between atoms: N_26  and  CA_27 
REMARK    8  A    between atoms: CA_27  and  CB_28 
REMARK    9  A    between atoms: CA_27  and  C_30 
ROOT
HETATM    1  O   UNK A   0       1.865   8.062  87.840  1.00  0.00    -0.388 OA
HETATM    2  N   UNK A   0       4.661   7.558  87.682  1.00  0.00     0.096 N 
HETATM    3  C   UNK A   0       4.132   8.925  87.783  1.00  0.00     0.299 C 
HETATM    4  C   UNK A   0       3.684   6.688  87.013  1.00  0.00     0.299 C 
HETATM    5  C   UNK A   0       2.794   8.908  88.519  1.00  0.00     0.198 C 
HETATM    6  C   UNK A   0       2.358   6.724  87.765  1.00  0.00     0.198 C 
ENDROOT
BRANCH   2   7
HETATM    7  C   UNK A   0       5.939   7.549  86.970  1.00  0.00     0.311 C 
BRANCH   7   8
HETATM    8  C   UNK A   0       7.036   6.947  87.780  1.00  0.00    -0.030 A 
HETATM    9  C   UNK A   0       6.801   6.579  89.105  1.00  0.00     0.010 A 
HETATM   10  C   UNK A   0       7.828   6.017  89.865  1.00  0.00     0.021 A 
HETATM   11  C   UNK A   0       9.087   5.821  89.297  1.00  0.00     0.018 A 
HETATM   12  C   UNK A   0       9.321   6.188  87.974  1.00  0.00     0.021 A 
HETATM   13  C   UNK A   0       8.296   6.751  87.215  1.00  0.00     0.010 A 
BRANCH  11  14
HETATM   14  C   UNK A   0      10.139   5.243  90.076  1.00  0.00    -0.061 C 
HETATM   15  C   UNK A   0      11.023   4.757  90.729  1.00  0.00    -0.061 C 
BRANCH  15  16
HETATM   16  C   UNK A   0      12.075   4.180  91.507  1.00  0.00     0.018 A 
HETATM   17  C   UNK A   0      11.846   3.834  92.839  1.00  0.00     0.022 A 
HETATM   18  C   UNK A   0      12.872   3.268  93.597  1.00  0.00     0.018 A 
HETATM   19  C   UNK A   0      14.101   3.061  93.007  1.00  0.00     0.032 A 
HETATM   20  C   UNK A   0      14.352   3.395  91.692  1.00  0.00     0.018 A 
HETATM   21  C   UNK A   0      13.327   3.961  90.933  1.00  0.00     0.022 A 
BRANCH  19  22
HETATM   22  C   UNK A   0      15.193   2.460  93.815  1.00  0.00     0.252 C 
HETATM   23  O   UNK A   0      16.339   2.887  93.687  1.00  0.00    -0.268 OA
ENDBRANCH  19  22
ENDBRANCH  15  16
ENDBRANCH  11  14
ENDBRANCH   7   8
ENDBRANCH   2   7
TORSDOF 9
ENDMDL
MODEL 3
REMARK VINA RESULT:      -7.5      0.176      1.023
REMARK  9 active torsions:
REMARK  status: ('A' for Active; 'I' for Inactive)
REMARK    1  A    between atoms: N_3  and  C_6 
REMARK    2  A    between atoms: C_6  and  C_9 
REMARK    3  A    between atoms: C_14  and  C_17 
REMARK       I    between atoms: N_26  and  C_15 
REMARK    4  A    between atoms: C_15  and  C_16 
REMARK    5  A    between atoms: C_20  and  C_23 
REMARK    6  A    between atoms: OG1_24  and  CB_28 
REMARK    7  A    between atoms: N_26  and  CA_27 
REMARK    8  A    between atoms: CA_27  and  CB_28 
REMARK    9  A    between atoms: CA_27  and  C_30 
ROOT
HETATM    1  O   UNK A   0       1.792   8.201  87.940  1.00  0.00    -0.388 OA
HETATM    2  N   UNK A   0       4.563   7.590  87.721  1.00  0.00     0.096 N 
HETATM    3  C   UNK A   0       4.089   8.976  87.839  1.00  0.00     0.299 C 
HETATM    4  C   UNK A   0       3.540   6.762  87.069  1.00  0.00     0.299 C 
HETATM    5  C   UNK A   0       2.768   9.007  88.603  1.00  0.00     0.198 C 
HETATM    6  C   UNK A   0       2.232   6.845  87.849  1.00  0.00     0.198 C 
ENDROOT
BRANCH   2   7
HETATM    7  C   UNK A   0       5.824   7.535  86.983  1.00  0.00     0.311 C 
BRANCH   7   8
HETATM    8  C   UNK A   0       6.929   6.944  87.790  1.00  0.00    -0.030 A 
HETATM    9  C   UNK A   0       8.178   6.724  87.206  1.00  0.00     0.010 A 
HETATM   10  C   UNK A   0       9.212   6.169  87.960  1.00  0.00     0.021 A 
HETATM   11  C   UNK A   0       8.997   5.835  89.297  1.00  0.00     0.018 A 
HETATM   12  C   UNK A   0       7.751   6.054  89.881  1.00  0.00     0.021 A 
HETATM   13  C   UNK A   0       6.717   6.609  89.127  1.00  0.00     0.010 A 
BRANCH  11  14
HETATM   14  C   UNK A   0      10.059   5.267  90.070  1.00  0.00    -0.061 C 
HETATM   15  C   UNK A   0      10.951   4.791  90.720  1.00  0.00    -0.061 C 
BRANCH  15  16
HETATM   16  C   UNK A   0      12.012   4.224  91.493  1.00  0.00     0.018 A 
HETATM   17  C   UNK A   0      11.794   3.879  92.827  1.00  0.00     0.022 A 
HETATM   18  C   UNK A   0      12.828   3.324  93.580  1.00  0.00     0.018 A 
HETATM   19  C   UNK A   0      14.055   3.125  92.984  1.00  0.00     0.032 A 
HETATM   20  C   UNK A   0      14.296   3.458  91.667  1.00  0.00     0.018 A 
HETATM   21  C   UNK A   0      13.263   4.014  90.913  1.00  0.00     0.022 A 
BRANCH  19  22
HETATM   22  C   UNK A   0      15.157   2.536  93.787  1.00  0.00     0.252 C 
HETATM   23  O   UNK A   0      16.121   3.236  94.089  1.00  0.00    -0.268 OA
ENDBRANCH  19  22
ENDBRANCH  15  16
ENDBRANCH  11  14
ENDBRANCH   7   8
ENDBRANCH   2   7
TORSDOF 9
ENDMDL
MODEL 4
REMARK VINA RESULT:      -7.1      1.155      1.614
REMARK  9 active torsions:
REMARK  status: ('A' for Active; 'I' for Inactive)
REMARK    1  A    between atoms: N_3  and  C_6 
REMARK    2  A    between atoms: C_6  and  C_9 
REMARK    3  A    between atoms: C_14  and  C_17 
REMARK       I    between atoms: N_26  and  C_15 
REMARK    4  A    between atoms: C_15  and  C_16 
REMARK    5  A    between atoms: C_20  and  C_23 
REMARK    6  A    between atoms: OG1_24  and  CB_28 
REMARK    7  A    between atoms: N_26  and  CA_27 
REMARK    8  A    between atoms: CA_27  and  CB_28 
REMARK    9  A    between atoms: CA_27  and  C_30 
ROOT
HETATM    1  O   UNK A   0       2.019   7.024  86.808  1.00  0.00    -0.388 OA
HETATM    2  N   UNK A   0       4.102   7.914  88.533  1.00  0.00     0.096 N 
HETATM    3  C   UNK A   0       2.889   8.714  88.318  1.00  0.00     0.299 C 
HETATM    4  C   UNK A   0       4.384   7.098  87.343  1.00  0.00     0.299 C 
HETATM    5  C   UNK A   0       1.719   7.797  87.972  1.00  0.00     0.198 C 
HETATM    6  C   UNK A   0       3.180   6.220  87.020  1.00  0.00     0.198 C 
ENDROOT
BRANCH   2   7
HETATM    7  C   UNK A   0       5.239   8.774  88.855  1.00  0.00     0.311 C 
BRANCH   7   8
HETATM    8  C   UNK A   0       6.403   8.004  89.381  1.00  0.00    -0.030 A 
HETATM    9  C   UNK A   0       6.236   7.149  90.471  1.00  0.00     0.010 A 
HETATM   10  C   UNK A   0       7.324   6.430  90.966  1.00  0.00     0.021 A 
HETATM   11  C   UNK A   0       8.577   6.565  90.369  1.00  0.00     0.018 A 
HETATM   12  C   UNK A   0       8.744   7.418  89.280  1.00  0.00     0.021 A 
HETATM   13  C   UNK A   0       7.657   8.138  88.786  1.00  0.00     0.010 A 
BRANCH  11  14
HETATM   14  C   UNK A   0       9.693   5.825  90.875  1.00  0.00    -0.061 C 
HETATM   15  C   UNK A   0      10.630   5.203  91.300  1.00  0.00    -0.061 C 
BRANCH  15  16
HETATM   16  C   UNK A   0      11.745   4.464  91.805  1.00  0.00     0.018 A 
HETATM   17  C   UNK A   0      12.830   4.187  90.974  1.00  0.00     0.022 A 
HETATM   18  C   UNK A   0      13.919   3.468  91.468  1.00  0.00     0.018 A 
HETATM   19  C   UNK A   0      13.898   3.044  92.780  1.00  0.00     0.032 A 
HETATM   20  C   UNK A   0      12.837   3.305  93.621  1.00  0.00     0.018 A 
HETATM   21  C   UNK A   0      11.747   4.023  93.128  1.00  0.00     0.022 A 
BRANCH  19  22
HETATM   22  C   UNK A   0      15.057   2.276  93.304  1.00  0.00     0.252 C 
HETATM   23  O   UNK A   0      16.144   2.837  93.420  1.00  0.00    -0.268 OA
ENDBRANCH  19  22
ENDBRANCH  15  16
ENDBRANCH  11  14
ENDBRANCH   7   8
ENDBRANCH   2   7
TORSDOF 9
ENDMDL
MODEL 5
REMARK VINA RESULT:      -6.9      1.611      2.183
REMARK  9 active torsions:
REMARK  status: ('A' for Active; 'I' for Inactive)
REMARK    1  A    between atoms: N_3  and  C_6 
REMARK    2  A    between atoms: C_6  and  C_9 
REMARK    3  A    between atoms: C_14  and  C_17 
REMARK       I    between atoms: N_26  and  C_15 
REMARK    4  A    between atoms: C_15  and  C_16 
REMARK    5  A    between atoms: C_20  and  C_23 
REMARK    6  A    between atoms: OG1_24  and  CB_28 
REMARK    7  A    between atoms: N_26  and  CA_27 
REMARK    8  A    between atoms: CA_27  and  CB_28 
REMARK    9  A    between atoms: CA_27  and  C_30 
ROOT
HETATM    1  O   UNK A   0       2.887  11.413  89.908  1.00  0.00    -0.388 OA
HETATM    2  N   UNK A   0       4.604   9.430  88.803  1.00  0.00     0.096 N 
HETATM    3  C   UNK A   0       3.668  10.190  87.963  1.00  0.00     0.299 C 
HETATM    4  C   UNK A   0       4.074   9.314  90.169  1.00  0.00     0.299 C 
HETATM    5  C   UNK A   0       3.409  11.560  88.586  1.00  0.00     0.198 C 
HETATM    6  C   UNK A   0       3.805  10.702  90.740  1.00  0.00     0.198 C 
ENDROOT
BRANCH   2   7
HETATM    7  C   UNK A   0       4.859   8.110  88.230  1.00  0.00     0.311 C 
BRANCH   7   8
HETATM    8  C   UNK A   0       6.070   7.462  88.812  1.00  0.00    -0.030 A 
HETATM    9  C   UNK A   0       5.965   6.213  89.425  1.00  0.00     0.010 A 
HETATM   10  C   UNK A   0       7.097   5.608  89.971  1.00  0.00     0.021 A 
HETATM   11  C   UNK A   0       8.332   6.250  89.901  1.00  0.00     0.018 A 
HETATM   12  C   UNK A   0       8.438   7.497  89.289  1.00  0.00     0.021 A 
HETATM   13  C   UNK A   0       7.307   8.104  88.743  1.00  0.00     0.010 A 
BRANCH  11  14
HETATM   14  C   UNK A   0       9.493   5.628  90.460  1.00  0.00    -0.061 C 
HETATM   15  C   UNK A   0      10.469   5.104  90.928  1.00  0.00    -0.061 C 
BRANCH  15  16
HETATM   16  C   UNK A   0      11.629   4.482  91.486  1.00  0.00     0.018 A 
HETATM   17  C   UNK A   0      12.754   4.267  90.689  1.00  0.00     0.022 A 
HETATM   18  C   UNK A   0      13.887   3.662  91.233  1.00  0.00     0.018 A 
HETATM   19  C   UNK A   0      13.871   3.288  92.561  1.00  0.00     0.032 A 
HETATM   20  C   UNK A   0      12.771   3.490  93.369  1.00  0.00     0.018 A 
HETATM   21  C   UNK A   0      11.638   4.094  92.825  1.00  0.00     0.022 A 
BRANCH  19  22
HETATM   22  C   UNK A   0      15.077   2.643  93.139  1.00  0.00     0.252 C 
HETATM   23  O   UNK A   0      15.829   3.305  93.851  1.00  0.00    -0.268 OA
ENDBRANCH  19  22
ENDBRANCH  15  16
ENDBRANCH  11  14
ENDBRANCH   7   8
ENDBRANCH   2   7
TORSDOF 9
ENDMDL
MODEL 6
REMARK VINA RESULT:      -6.7      1.454      2.191
REMARK  9 active torsions:
REMARK  status: ('A' for Active; 'I' for Inactive)
REMARK    1  A    between atoms: N_3  and  C_6 
REMARK    2  A    between atoms: C_6  and  C_9 
REMARK    3  A    between atoms: C_14  and  C_17 
REMARK       I    between atoms: N_26  and  C_15 
REMARK    4  A    between atoms: C_15  and  C_16 
REMARK    5  A    between atoms: C_20  and  C_23 
REMARK    6  A    between atoms: OG1_24  and  CB_28 
REMARK    7  A    between atoms: N_26  and  CA_27 
REMARK    8  A    between atoms: CA_27  and  CB_28 
REMARK    9  A    between atoms: CA_27  and  C_30 
ROOT
HETATM    1  O   UNK A   0       2.767  11.318  89.195  1.00  0.00    -0.388 OA
HETATM    2  N   UNK A   0       4.348   8.960  88.986  1.00  0.00     0.096 N 
HETATM    3  C   UNK A   0       4.001   9.759  87.803  1.00  0.00     0.299 C 
HETATM    4  C   UNK A   0       3.303   9.097  90.010  1.00  0.00     0.299 C 
HETATM    5  C   UNK A   0       3.793  11.217  88.206  1.00  0.00     0.198 C 
HETATM    6  C   UNK A   0       3.111  10.569  90.361  1.00  0.00     0.198 C 
ENDROOT
BRANCH   2   7
HETATM    7  C   UNK A   0       4.540   7.557  88.625  1.00  0.00     0.311 C 
BRANCH   7   8
HETATM    8  C   UNK A   0       5.808   6.998  89.175  1.00  0.00    -0.030 A 
HETATM    9  C   UNK A   0       6.901   6.789  88.333  1.00  0.00     0.010 A 
HETATM   10  C   UNK A   0       8.086   6.264  88.846  1.00  0.00     0.021 A 
HETATM   11  C   UNK A   0       8.180   5.950  90.201  1.00  0.00     0.018 A 
HETATM   12  C   UNK A   0       7.089   6.158  91.044  1.00  0.00     0.021 A 
HETATM   13  C   UNK A   0       5.903   6.683  90.531  1.00  0.00     0.010 A 
BRANCH  11  14
HETATM   14  C   UNK A   0       9.397   5.413  90.728  1.00  0.00    -0.061 C 
HETATM   15  C   UNK A   0      10.419   4.962  91.171  1.00  0.00    -0.061 C 
BRANCH  15  16
HETATM   16  C   UNK A   0      11.636   4.425  91.698  1.00  0.00     0.018 A 
HETATM   17  C   UNK A   0      11.723   4.094  93.050  1.00  0.00     0.022 A 
HETATM   18  C   UNK A   0      12.909   3.568  93.563  1.00  0.00     0.018 A 
HETATM   19  C   UNK A   0      13.979   3.383  92.712  1.00  0.00     0.032 A 
HETATM   20  C   UNK A   0      13.917   3.702  91.372  1.00  0.00     0.018 A 
HETATM   21  C   UNK A   0      12.732   4.229  90.858  1.00  0.00     0.022 A 
BRANCH  19  22
HETATM   22  C   UNK A   0      15.242   2.824  93.259  1.00  0.00     0.252 C 
HETATM   23  O   UNK A   0      15.188   1.952  94.123  1.00  0.00    -0.268 OA
ENDBRANCH  19  22
ENDBRANCH  15  16
ENDBRANCH  11  14
ENDBRANCH   7   8
ENDBRANCH   2   7
TORSDOF 9
ENDMDL
MODEL 7
REMARK VINA RESULT:      -6.6      3.924     10.422
REMARK  9 active torsions:
REMARK  status: ('A' for Active; 'I' for Inactive)
REMARK    1  A    between atoms: N_3  and  C_6 
REMARK    2  A    between atoms: C_6  and  C_9 
REMARK    3  A    between atoms: C_14  and  C_17 
REMARK       I    between atoms: N_26  and  C_15 
REMARK    4  A    between atoms: C_15  and  C_16 
REMARK    5  A    between atoms: C_20  and  C_23 
REMARK    6  A    between atoms: OG1_24  and  CB_28 
REMARK    7  A    between atoms: N_26  and  CA_27 
REMARK    8  A    between atoms: CA_27  and  CB_28 
REMARK    9  A    between atoms: CA_27  and  C_30 
ROOT
HETATM    1  O   UNK A   0      14.677   3.395  92.104  1.00  0.00    -0.388 OA
HETATM    2  N   UNK A   0      11.952   4.192  92.308  1.00  0.00     0.096 N 
HETATM    3  C   UNK A   0      12.570   3.306  93.305  1.00  0.00     0.299 C 
HETATM    4  C   UNK A   0      12.606   4.015  91.004  1.00  0.00     0.299 C 
HETATM    5  C   UNK A   0      14.069   3.583  93.383  1.00  0.00     0.198 C 
HETATM    6  C   UNK A   0      14.103   4.274  91.136  1.00  0.00     0.198 C 
ENDROOT
BRANCH   2   7
HETATM    7  C   UNK A   0      10.516   3.937  92.209  1.00  0.00     0.311 C 
BRANCH   7   8
HETATM    8  C   UNK A   0       9.739   5.174  91.915  1.00  0.00    -0.030 A 
HETATM    9  C   UNK A   0      10.002   6.347  92.623  1.00  0.00     0.010 A 
HETATM   10  C   UNK A   0       9.274   7.505  92.350  1.00  0.00     0.021 A 
HETATM   11  C   UNK A   0       8.284   7.489  91.368  1.00  0.00     0.018 A 
HETATM   12  C   UNK A   0       8.020   6.319  90.660  1.00  0.00     0.021 A 
HETATM   13  C   UNK A   0       8.748   5.161  90.933  1.00  0.00     0.010 A 
BRANCH  11  14
HETATM   14  C   UNK A   0       7.538   8.678  91.086  1.00  0.00    -0.061 C 
HETATM   15  C   UNK A   0       6.911   9.676  90.850  1.00  0.00    -0.061 C 
BRANCH  15  16
HETATM   16  C   UNK A   0       6.166  10.863  90.570  1.00  0.00     0.018 A 
HETATM   17  C   UNK A   0       6.326  11.514  89.346  1.00  0.00     0.022 A 
HETATM   18  C   UNK A   0       5.597  12.671  89.072  1.00  0.00     0.018 A 
HETATM   19  C   UNK A   0       4.724  13.151  90.026  1.00  0.00     0.032 A 
HETATM   20  C   UNK A   0       4.548  12.526  91.243  1.00  0.00     0.018 A 
HETATM   21  C   UNK A   0       5.277  11.369  91.519  1.00  0.00     0.022 A 
BRANCH  19  22
HETATM   22  C   UNK A   0       3.949  14.384  89.734  1.00  0.00     0.252 C 
HETATM   23  O   UNK A   0       4.533  15.465  89.697  1.00  0.00    -0.268 OA
ENDBRANCH  19  22
ENDBRANCH  15  16
ENDBRANCH  11  14
ENDBRANCH   7   8
ENDBRANCH   2   7
TORSDOF 9
ENDMDL
MODEL 8
REMARK VINA RESULT:      -6.6      1.671      2.097
REMARK  9 active torsions:
REMARK  status: ('A' for Active; 'I' for Inactive)
REMARK    1  A    between atoms: N_3  and  C_6 
REMARK    2  A    between atoms: C_6  and  C_9 
REMARK    3  A    between atoms: C_14  and  C_17 
REMARK       I    between atoms: N_26  and  C_15 
REMARK    4  A    between atoms: C_15  and  C_16 
REMARK    5  A    between atoms: C_20  and  C_23 
REMARK    6  A    between atoms: OG1_24  and  CB_28 
REMARK    7  A    between atoms: N_26  and  CA_27 
REMARK    8  A    between atoms: CA_27  and  CB_28 
REMARK    9  A    between atoms: CA_27  and  C_30 
ROOT
HETATM    1  O   UNK A   0       5.037  11.883  88.619  1.00  0.00    -0.388 OA
HETATM    2  N   UNK A   0       4.834   9.071  89.016  1.00  0.00     0.096 N 
HETATM    3  C   UNK A   0       6.123   9.770  89.116  1.00  0.00     0.299 C 
HETATM    4  C   UNK A   0       3.947   9.783  88.084  1.00  0.00     0.299 C 
HETATM    5  C   UNK A   0       5.895  11.216  89.548  1.00  0.00     0.198 C 
HETATM    6  C   UNK A   0       3.771  11.228  88.538  1.00  0.00     0.198 C 
ENDROOT
BRANCH   2   7
HETATM    7  C   UNK A   0       5.028   7.686  88.593  1.00  0.00     0.311 C 
BRANCH   7   8
HETATM    8  C   UNK A   0       6.260   7.081  89.175  1.00  0.00    -0.030 A 
HETATM    9  C   UNK A   0       7.396   6.915  88.382  1.00  0.00     0.010 A 
HETATM   10  C   UNK A   0       8.548   6.348  88.926  1.00  0.00     0.021 A 
HETATM   11  C   UNK A   0       8.565   5.949  90.262  1.00  0.00     0.018 A 
HETATM   12  C   UNK A   0       7.431   6.115  91.055  1.00  0.00     0.021 A 
HETATM   13  C   UNK A   0       6.278   6.681  90.512  1.00  0.00     0.010 A 
BRANCH  11  14
HETATM   14  C   UNK A   0       9.748   5.370  90.819  1.00  0.00    -0.061 C 
HETATM   15  C   UNK A   0      10.743   4.883  91.289  1.00  0.00    -0.061 C 
BRANCH  15  16
HETATM   16  C   UNK A   0      11.925   4.304  91.847  1.00  0.00     0.018 A 
HETATM   17  C   UNK A   0      13.089   4.226  91.083  1.00  0.00     0.022 A 
HETATM   18  C   UNK A   0      14.243   3.663  91.629  1.00  0.00     0.018 A 
HETATM   19  C   UNK A   0      14.207   3.192  92.924  1.00  0.00     0.032 A 
HETATM   20  C   UNK A   0      13.068   3.257  93.699  1.00  0.00     0.018 A 
HETATM   21  C   UNK A   0      11.913   3.820  93.155  1.00  0.00     0.022 A 
BRANCH  19  22
HETATM   22  C   UNK A   0      15.436   2.591  93.504  1.00  0.00     0.252 C 
HETATM   23  O   UNK A   0      16.388   3.318  93.776  1.00  0.00    -0.268 OA
ENDBRANCH  19  22
ENDBRANCH  15  16
ENDBRANCH  11  14
ENDBRANCH   7   8
ENDBRANCH   2   7
TORSDOF 9
ENDMDL
MODEL 9
REMARK VINA RESULT:      -6.6      3.472     10.308
REMARK  9 active torsions:
REMARK  status: ('A' for Active; 'I' for Inactive)
REMARK    1  A    between atoms: N_3  and  C_6 
REMARK    2  A    between atoms: C_6  and  C_9 
REMARK    3  A    between atoms: C_14  and  C_17 
REMARK       I    between atoms: N_26  and  C_15 
REMARK    4  A    between atoms: C_15  and  C_16 
REMARK    5  A    between atoms: C_20  and  C_23 
REMARK    6  A    between atoms: OG1_24  and  CB_28 
REMARK    7  A    between atoms: N_26  and  CA_27 
REMARK    8  A    between atoms: CA_27  and  CB_28 
REMARK    9  A    between atoms: CA_27  and  C_30 
ROOT
HETATM    1  O   UNK A   0      16.169   3.181  93.677  1.00  0.00    -0.388 OA
HETATM    2  N   UNK A   0      13.491   2.929  92.747  1.00  0.00     0.096 N 
HETATM    3  C   UNK A   0      14.310   1.749  93.058  1.00  0.00     0.299 C 
HETATM    4  C   UNK A   0      14.352   4.041  92.320  1.00  0.00     0.299 C 
HETATM    5  C   UNK A   0      15.344   2.104  94.124  1.00  0.00     0.198 C 
HETATM    6  C   UNK A   0      15.384   4.341  93.401  1.00  0.00     0.198 C 
ENDROOT
BRANCH   2   7
HETATM    7  C   UNK A   0      12.500   2.614  91.719  1.00  0.00     0.311 C 
BRANCH   7   8
HETATM    8  C   UNK A   0      11.618   3.775  91.406  1.00  0.00    -0.030 A 
HETATM    9  C   UNK A   0      11.375   4.127  90.078  1.00  0.00     0.010 A 
HETATM   10  C   UNK A   0      10.552   5.214  89.785  1.00  0.00     0.021 A 
HETATM   11  C   UNK A   0       9.970   5.946  90.819  1.00  0.00     0.018 A 
HETATM   12  C   UNK A   0      10.211   5.595  92.146  1.00  0.00     0.021 A 
HETATM   13  C   UNK A   0      11.035   4.509  92.440  1.00  0.00     0.010 A 
BRANCH  11  14
HETATM   14  C   UNK A   0       9.124   7.060  90.518  1.00  0.00    -0.061 C 
HETATM   15  C   UNK A   0       8.413   7.996  90.264  1.00  0.00    -0.061 C 
BRANCH  15  16
HETATM   16  C   UNK A   0       7.566   9.108  89.962  1.00  0.00     0.018 A 
HETATM   17  C   UNK A   0       8.125  10.309  89.524  1.00  0.00     0.022 A 
HETATM   18  C   UNK A   0       7.299  11.393  89.227  1.00  0.00     0.018 A 
HETATM   19  C   UNK A   0       5.935  11.252  89.374  1.00  0.00     0.032 A 
HETATM   20  C   UNK A   0       5.359  10.075  89.805  1.00  0.00     0.018 A 
HETATM   21  C   UNK A   0       6.184   8.990  90.102  1.00  0.00     0.022 A 
BRANCH  19  22
HETATM   22  C   UNK A   0       5.055  12.407  89.059  1.00  0.00     0.252 C 
HETATM   23  O   UNK A   0       4.953  12.784  87.894  1.00  0.00    -0.268 OA
ENDBRANCH  19  22
ENDBRANCH  15  16
ENDBRANCH  11  14
ENDBRANCH   7   8
ENDBRANCH   2   7
TORSDOF 9
ENDMDL
