MODEL 1
REMARK VINA RESULT:      -7.0      0.000      0.000
REMARK  11 active torsions:
REMARK  status: ('A' for Active; 'I' for Inactive)
REMARK    1  A    between atoms: O_2  and  C_18 
REMARK    2  A    between atoms: O_5  and  P_8 
REMARK    3  A    between atoms: N_6  and  C_11 
REMARK    4  A    between atoms: N_7  and  C_15 
REMARK       I    between atoms: N_7  and  C_24 
REMARK    5  A    between atoms: P_8  and  C_23 
REMARK    6  A    between atoms: C_11  and  C_14 
REMARK    7  A    between atoms: C_15  and  C_18 
REMARK    8  A    between atoms: C_15  and  C_23 
REMARK    9  A    between atoms: C_21  and  C_26 
REMARK   10  A    between atoms: C_24  and  C_25 
REMARK   11  A    between atoms: C_29  and  C_32 
ROOT
HETATM    1  O   UNL     1      16.452   4.246  94.123  1.00  0.00     0.000 OA
HETATM    2  N   UNL     1      14.659   2.685  92.557  1.00  0.00     0.000 N 
HETATM    3  C   UNL     1      14.602   4.154  92.554  1.00  0.00     0.000 C 
HETATM    4  C   UNL     1      15.172   2.204  93.847  1.00  0.00     0.000 C 
HETATM    5  C   UNL     1      15.985   4.725  92.861  1.00  0.00     0.000 C 
HETATM    6  C   UNL     1      16.539   2.821  94.124  1.00  0.00     0.000 C 
ENDROOT
BRANCH   2   7
HETATM    7  C   UNL     1      13.343   2.116  92.276  1.00  0.00     0.000 C 
BRANCH   7   8
HETATM    8  C   UNL     1      12.311   3.164  92.032  1.00  0.00     0.000 A 
HETATM    9  C   UNL     1      11.783   3.884  93.104  1.00  0.00     0.000 A 
HETATM   10  C   UNL     1      10.816   4.863  92.877  1.00  0.00     0.000 A 
HETATM   11  C   UNL     1      10.379   5.123  91.578  1.00  0.00     0.000 A 
HETATM   12  C   UNL     1      10.906   4.404  90.507  1.00  0.00     0.000 A 
HETATM   13  C   UNL     1      11.873   3.424  90.733  1.00  0.00     0.000 A 
BRANCH  11  14
HETATM   14  C   UNL     1       9.389   6.129  91.345  1.00  0.00     0.000 C 
HETATM   15  C   UNL     1       8.557   6.974  91.148  1.00  0.00     0.000 C 
BRANCH  15  16
HETATM   16  C   UNL     1       7.566   7.979  90.915  1.00  0.00     0.000 A 
HETATM   17  C   UNL     1       6.739   7.895  89.795  1.00  0.00     0.000 A 
HETATM   18  C   UNL     1       5.772   8.873  89.569  1.00  0.00     0.000 A 
HETATM   19  C   UNL     1       5.652   9.912  90.468  1.00  0.00     0.000 A 
HETATM   20  C   UNL     1       6.457  10.018  91.583  1.00  0.00     0.000 A 
HETATM   21  C   UNL     1       7.426   9.040  91.809  1.00  0.00     0.000 A 
BRANCH  19  22
HETATM   22  C   UNL     1       4.622  10.956  90.226  1.00  0.00     0.000 C 
HETATM   23  O   UNL     1       3.467  10.614  89.982  1.00  0.00     0.000 OA
HETATM   24  N   UNL     1       5.055  12.271  90.322  1.00  0.00     0.000 N 
HETATM   25  HN  UNL     1       6.020  12.478  90.552  1.00  0.00     0.000 HD
BRANCH  24  26
HETATM   26  C   UNL     1       4.171  13.394  90.138  1.00  0.00     0.000 C 
BRANCH  26  27
HETATM   27  C   UNL     1       3.778  14.063  91.461  1.00  0.00     0.000 C 
HETATM   28  C   UNL     1       2.273  14.037  91.704  1.00  0.00     0.000 C 
BRANCH  27  29
HETATM   29  O   UNL     1       4.432  13.401  92.543  1.00  0.00     0.000 OA
HETATM   30  H   UNL     1       3.904  12.623  92.789  1.00  0.00     0.000 HD
ENDBRANCH  27  29
ENDBRANCH  26  27
BRANCH  26  31
HETATM   31  C   UNL     1       4.860  14.381  89.201  1.00  0.00     0.000 C 
HETATM   32  O   UNL     1       4.887  15.593  89.407  1.00  0.00     0.000 OA
BRANCH  31  33
HETATM   33  P   UNL     1       5.400  13.761  88.100  1.00  0.00     0.000 P 
HETATM   34  H   UNL     1       5.880  14.741  87.256  1.00  0.00     0.000 HD
BRANCH  33  35
HETATM   35  O   UNL     1       4.523  12.951  87.364  1.00  0.00     0.000 OA
HETATM   36  H   UNL     1       4.727  12.081  87.747  1.00  0.00     0.000 HD
ENDBRANCH  33  35
ENDBRANCH  31  33
ENDBRANCH  26  31
ENDBRANCH  24  26
ENDBRANCH  19  22
ENDBRANCH  15  16
ENDBRANCH  11  14
ENDBRANCH   7   8
ENDBRANCH   2   7
TORSDOF 11
ENDMDL
