MODEL 1
REMARK VINA RESULT:      -7.1      0.000      0.000
REMARK  11 active torsions:
REMARK  status: ('A' for Active; 'I' for Inactive)
REMARK    1  A    between atoms: O_2  and  C_18 
REMARK    2  A    between atoms: O_5  and  P_8 
REMARK    3  A    between atoms: N_6  and  C_11 
REMARK    4  A    between atoms: N_7  and  C_15 
REMARK       I    between atoms: N_7  and  C_24 
REMARK    5  A    between atoms: P_8  and  C_23 
REMARK    6  A    between atoms: C_11  and  C_14 
REMARK    7  A    between atoms: C_15  and  C_18 
REMARK    8  A    between atoms: C_15  and  C_23 
REMARK    9  A    between atoms: C_21  and  C_26 
REMARK   10  A    between atoms: C_24  and  C_25 
REMARK   11  A    between atoms: C_29  and  C_32 
ROOT
HETATM    1  O   UNL     1      16.398   4.053  94.124  1.00  0.00     0.000 OA
HETATM    2  N   UNL     1      14.446   2.688  92.566  1.00  0.00     0.000 N 
HETATM    3  C   UNL     1      14.539   4.154  92.567  1.00  0.00     0.000 C 
HETATM    4  C   UNL     1      14.916   2.152  93.851  1.00  0.00     0.000 C 
HETATM    5  C   UNL     1      15.974   4.581  92.866  1.00  0.00     0.000 C 
HETATM    6  C   UNL     1      16.340   2.626  94.120  1.00  0.00     0.000 C 
ENDROOT
BRANCH   2   7
HETATM    7  C   UNL     1      13.077   2.256  92.292  1.00  0.00     0.000 C 
BRANCH   7   8
HETATM    8  C   UNL     1      12.175   3.398  91.967  1.00  0.00     0.000 A 
HETATM    9  C   UNL     1      11.523   4.085  92.992  1.00  0.00     0.000 A 
HETATM   10  C   UNL     1      10.678   5.152  92.689  1.00  0.00     0.000 A 
HETATM   11  C   UNL     1      10.488   5.534  91.361  1.00  0.00     0.000 A 
HETATM   12  C   UNL     1      11.139   4.850  90.337  1.00  0.00     0.000 A 
HETATM   13  C   UNL     1      11.983   3.782  90.639  1.00  0.00     0.000 A 
BRANCH  11  14
HETATM   14  C   UNL     1       9.623   6.630  91.050  1.00  0.00     0.000 C 
HETATM   15  C   UNL     1       8.896   7.552  90.790  1.00  0.00     0.000 C 
BRANCH  15  16
HETATM   16  C   UNL     1       8.032   8.648  90.478  1.00  0.00     0.000 A 
HETATM   17  C   UNL     1       6.700   8.623  90.892  1.00  0.00     0.000 A 
HETATM   18  C   UNL     1       5.858   9.694  90.590  1.00  0.00     0.000 A 
HETATM   19  C   UNL     1       6.366  10.764  89.884  1.00  0.00     0.000 A 
HETATM   20  C   UNL     1       7.679  10.812  89.465  1.00  0.00     0.000 A 
HETATM   21  C   UNL     1       8.522   9.742  89.765  1.00  0.00     0.000 A 
BRANCH  19  22
HETATM   22  C   UNL     1       5.468  11.903  89.562  1.00  0.00     0.000 C 
HETATM   23  O   UNL     1       5.412  12.313  88.405  1.00  0.00     0.000 OA
HETATM   24  N   UNL     1       4.727  12.411  90.619  1.00  0.00     0.000 N 
HETATM   25  HN  UNL     1       4.807  12.004  91.544  1.00  0.00     0.000 HD
BRANCH  24  26
HETATM   26  C   UNL     1       3.795  13.498  90.461  1.00  0.00     0.000 C 
BRANCH  26  27
HETATM   27  C   UNL     1       2.400  13.168  91.007  1.00  0.00     0.000 C 
HETATM   28  C   UNL     1       2.425  12.034  92.026  1.00  0.00     0.000 C 
BRANCH  27  29
HETATM   29  O   UNL     1       1.840  14.329  91.621  1.00  0.00     0.000 OA
HETATM   30  H   UNL     1       0.988  14.083  92.018  1.00  0.00     0.000 HD
ENDBRANCH  27  29
ENDBRANCH  26  27
BRANCH  26  31
HETATM   31  C   UNL     1       4.385  14.722  91.153  1.00  0.00     0.000 C 
HETATM   32  O   UNL     1       4.359  14.881  92.372  1.00  0.00     0.000 OA
BRANCH  31  33
HETATM   33  P   UNL     1       4.904  15.625  90.257  1.00  0.00     0.000 P 
HETATM   34  H   UNL     1       4.168  16.788  90.353  1.00  0.00     0.000 HD
BRANCH  33  35
HETATM   35  O   UNL     1       4.900  15.223  88.914  1.00  0.00     0.000 OA
HETATM   36  H   UNL     1       3.943  15.156  88.755  1.00  0.00     0.000 HD
ENDBRANCH  33  35
ENDBRANCH  31  33
ENDBRANCH  26  31
ENDBRANCH  24  26
ENDBRANCH  19  22
ENDBRANCH  15  16
ENDBRANCH  11  14
ENDBRANCH   7   8
ENDBRANCH   2   7
TORSDOF 11
ENDMDL
MODEL 2
REMARK VINA RESULT:      -5.7      1.541      2.255
REMARK  11 active torsions:
REMARK  status: ('A' for Active; 'I' for Inactive)
REMARK    1  A    between atoms: O_2  and  C_18 
REMARK    2  A    between atoms: O_5  and  P_8 
REMARK    3  A    between atoms: N_6  and  C_11 
REMARK    4  A    between atoms: N_7  and  C_15 
REMARK       I    between atoms: N_7  and  C_24 
REMARK    5  A    between atoms: P_8  and  C_23 
REMARK    6  A    between atoms: C_11  and  C_14 
REMARK    7  A    between atoms: C_15  and  C_18 
REMARK    8  A    between atoms: C_15  and  C_23 
REMARK    9  A    between atoms: C_21  and  C_26 
REMARK   10  A    between atoms: C_24  and  C_25 
REMARK   11  A    between atoms: C_29  and  C_32 
ROOT
HETATM    1  O   UNL     1      16.524   3.013  93.809  1.00  0.00     0.000 OA
HETATM    2  N   UNL     1      13.958   3.057  92.577  1.00  0.00     0.000 N 
HETATM    3  C   UNL     1      14.618   1.793  92.932  1.00  0.00     0.000 C 
HETATM    4  C   UNL     1      14.966   4.088  92.291  1.00  0.00     0.000 C 
HETATM    5  C   UNL     1      15.552   2.013  94.119  1.00  0.00     0.000 C 
HETATM    6  C   UNL     1      15.891   4.254  93.492  1.00  0.00     0.000 C 
ENDROOT
BRANCH   2   7
HETATM    7  C   UNL     1      13.066   2.871  91.434  1.00  0.00     0.000 C 
BRANCH   7   8
HETATM    8  C   UNL     1      11.897   3.796  91.469  1.00  0.00     0.000 A 
HETATM    9  C   UNL     1      11.271   4.080  92.684  1.00  0.00     0.000 A 
HETATM   10  C   UNL     1      10.176   4.943  92.718  1.00  0.00     0.000 A 
HETATM   11  C   UNL     1       9.709   5.523  91.539  1.00  0.00     0.000 A 
HETATM   12  C   UNL     1      10.334   5.240  90.326  1.00  0.00     0.000 A 
HETATM   13  C   UNL     1      11.428   4.376  90.291  1.00  0.00     0.000 A 
BRANCH  11  14
HETATM   14  C   UNL     1       8.587   6.410  91.575  1.00  0.00     0.000 C 
HETATM   15  C   UNL     1       7.645   7.156  91.604  1.00  0.00     0.000 C 
BRANCH  15  16
HETATM   16  C   UNL     1       6.523   8.042  91.640  1.00  0.00     0.000 A 
HETATM   17  C   UNL     1       5.310   7.609  92.177  1.00  0.00     0.000 A 
HETATM   18  C   UNL     1       4.217   8.475  92.213  1.00  0.00     0.000 A 
HETATM   19  C   UNL     1       4.361   9.752  91.714  1.00  0.00     0.000 A 
HETATM   20  C   UNL     1       5.549  10.203  91.178  1.00  0.00     0.000 A 
HETATM   21  C   UNL     1       6.643   9.339  91.140  1.00  0.00     0.000 A 
BRANCH  19  22
HETATM   22  C   UNL     1       3.195  10.673  91.751  1.00  0.00     0.000 C 
HETATM   23  O   UNL     1       2.062  10.204  91.823  1.00  0.00     0.000 OA
HETATM   24  N   UNL     1       3.491  12.029  91.726  1.00  0.00     0.000 N 
HETATM   25  HN  UNL     1       4.453  12.344  91.692  1.00  0.00     0.000 HD
BRANCH  24  26
HETATM   26  C   UNL     1       2.471  13.046  91.781  1.00  0.00     0.000 C 
BRANCH  26  27
HETATM   27  C   UNL     1       2.583  13.931  93.029  1.00  0.00     0.000 C 
HETATM   28  C   UNL     1       4.022  14.328  93.337  1.00  0.00     0.000 C 
BRANCH  27  29
HETATM   29  O   UNL     1       1.805  15.114  92.846  1.00  0.00     0.000 OA
HETATM   30  H   UNL     1       2.109  15.556  92.035  1.00  0.00     0.000 HD
ENDBRANCH  27  29
ENDBRANCH  26  27
BRANCH  26  31
HETATM   31  C   UNL     1       2.569  13.873  90.504  1.00  0.00     0.000 C 
HETATM   32  O   UNL     1       1.696  14.663  90.148  1.00  0.00     0.000 OA
BRANCH  31  33
HETATM   33  P   UNL     1       3.715  13.601  89.796  1.00  0.00     0.000 P 
HETATM   34  H   UNL     1       4.147  14.779  89.222  1.00  0.00     0.000 HD
BRANCH  33  35
HETATM   35  O   UNL     1       3.589  12.647  88.776  1.00  0.00     0.000 OA
HETATM   36  H   UNL     1       4.019  13.118  88.042  1.00  0.00     0.000 HD
ENDBRANCH  33  35
ENDBRANCH  31  33
ENDBRANCH  26  31
ENDBRANCH  24  26
ENDBRANCH  19  22
ENDBRANCH  15  16
ENDBRANCH  11  14
ENDBRANCH   7   8
ENDBRANCH   2   7
TORSDOF 11
ENDMDL
MODEL 3
REMARK VINA RESULT:      -5.1      3.697     12.323
REMARK  11 active torsions:
REMARK  status: ('A' for Active; 'I' for Inactive)
REMARK    1  A    between atoms: O_2  and  C_18 
REMARK    2  A    between atoms: O_5  and  P_8 
REMARK    3  A    between atoms: N_6  and  C_11 
REMARK    4  A    between atoms: N_7  and  C_15 
REMARK       I    between atoms: N_7  and  C_24 
REMARK    5  A    between atoms: P_8  and  C_23 
REMARK    6  A    between atoms: C_11  and  C_14 
REMARK    7  A    between atoms: C_15  and  C_18 
REMARK    8  A    between atoms: C_15  and  C_23 
REMARK    9  A    between atoms: C_21  and  C_26 
REMARK   10  A    between atoms: C_24  and  C_25 
REMARK   11  A    between atoms: C_29  and  C_32 
ROOT
HETATM    1  O   UNL     1       3.133  14.900  94.088  1.00  0.00     0.000 OA
HETATM    2  N   UNL     1       2.709  14.812  91.275  1.00  0.00     0.000 N 
HETATM    3  C   UNL     1       1.796  14.141  92.210  1.00  0.00     0.000 C 
HETATM    4  C   UNL     1       4.061  14.872  91.847  1.00  0.00     0.000 C 
HETATM    5  C   UNL     1       1.808  14.865  93.554  1.00  0.00     0.000 C 
HETATM    6  C   UNL     1       4.021  15.578  93.199  1.00  0.00     0.000 C 
ENDROOT
BRANCH   2   7
HETATM    7  C   UNL     1       2.721  14.128  89.983  1.00  0.00     0.000 C 
BRANCH   7   8
HETATM    8  C   UNL     1       3.717  13.019  89.937  1.00  0.00     0.000 A 
HETATM    9  C   UNL     1       3.414  11.787  90.518  1.00  0.00     0.000 A 
HETATM   10  C   UNL     1       4.345  10.750  90.477  1.00  0.00     0.000 A 
HETATM   11  C   UNL     1       5.577  10.944  89.854  1.00  0.00     0.000 A 
HETATM   12  C   UNL     1       5.880  12.174  89.273  1.00  0.00     0.000 A 
HETATM   13  C   UNL     1       4.950  13.212  89.314  1.00  0.00     0.000 A 
BRANCH  11  14
HETATM   14  C   UNL     1       6.532   9.879  89.810  1.00  0.00     0.000 C 
HETATM   15  C   UNL     1       7.334   8.984  89.773  1.00  0.00     0.000 C 
BRANCH  15  16
HETATM   16  C   UNL     1       8.288   7.920  89.730  1.00  0.00     0.000 A 
HETATM   17  C   UNL     1       9.011   7.680  88.561  1.00  0.00     0.000 A 
HETATM   18  C   UNL     1       9.944   6.644  88.521  1.00  0.00     0.000 A 
HETATM   19  C   UNL     1      10.133   5.872  89.648  1.00  0.00     0.000 A 
HETATM   20  C   UNL     1       9.431   6.089  90.815  1.00  0.00     0.000 A 
HETATM   21  C   UNL     1       8.498   7.125  90.857  1.00  0.00     0.000 A 
BRANCH  19  22
HETATM   22  C   UNL     1      11.125   4.767  89.603  1.00  0.00     0.000 C 
HETATM   23  O   UNL     1      11.319   4.177  88.543  1.00  0.00     0.000 OA
HETATM   24  N   UNL     1      11.791   4.499  90.792  1.00  0.00     0.000 N 
HETATM   25  HN  UNL     1      11.597   5.046  91.623  1.00  0.00     0.000 HD
BRANCH  24  26
HETATM   26  C   UNL     1      12.798   3.475  90.902  1.00  0.00     0.000 C 
BRANCH  26  27
HETATM   27  C   UNL     1      14.185   4.040  91.234  1.00  0.00     0.000 C 
HETATM   28  C   UNL     1      15.303   3.039  90.965  1.00  0.00     0.000 C 
BRANCH  27  29
HETATM   29  O   UNL     1      14.419   5.216  90.460  1.00  0.00     0.000 OA
HETATM   30  H   UNL     1      13.738   5.266  89.769  1.00  0.00     0.000 HD
ENDBRANCH  27  29
ENDBRANCH  26  27
BRANCH  26  31
HETATM   31  C   UNL     1      12.336   2.480  91.962  1.00  0.00     0.000 C 
HETATM   32  O   UNL     1      12.622   1.284  91.928  1.00  0.00     0.000 OA
BRANCH  31  33
HETATM   33  P   UNL     1      11.546   3.070  92.918  1.00  0.00     0.000 P 
HETATM   34  H   UNL     1      11.696   2.357  94.091  1.00  0.00     0.000 HD
BRANCH  33  35
HETATM   35  O   UNL     1      10.176   3.130  92.625  1.00  0.00     0.000 OA
HETATM   36  H   UNL     1       9.887   2.266  92.964  1.00  0.00     0.000 HD
ENDBRANCH  33  35
ENDBRANCH  31  33
ENDBRANCH  26  31
ENDBRANCH  24  26
ENDBRANCH  19  22
ENDBRANCH  15  16
ENDBRANCH  11  14
ENDBRANCH   7   8
ENDBRANCH   2   7
TORSDOF 11
ENDMDL
MODEL 4
REMARK VINA RESULT:      -4.4      3.670     12.533
REMARK  11 active torsions:
REMARK  status: ('A' for Active; 'I' for Inactive)
REMARK    1  A    between atoms: O_2  and  C_18 
REMARK    2  A    between atoms: O_5  and  P_8 
REMARK    3  A    between atoms: N_6  and  C_11 
REMARK    4  A    between atoms: N_7  and  C_15 
REMARK       I    between atoms: N_7  and  C_24 
REMARK    5  A    between atoms: P_8  and  C_23 
REMARK    6  A    between atoms: C_11  and  C_14 
REMARK    7  A    between atoms: C_15  and  C_18 
REMARK    8  A    between atoms: C_15  and  C_23 
REMARK    9  A    between atoms: C_21  and  C_26 
REMARK   10  A    between atoms: C_24  and  C_25 
REMARK   11  A    between atoms: C_29  and  C_32 
ROOT
HETATM    1  O   UNL     1       5.443  14.756  88.709  1.00  0.00     0.000 OA
HETATM    2  N   UNL     1       3.733  13.417  90.548  1.00  0.00     0.000 N 
HETATM    3  C   UNL     1       4.405  14.675  90.901  1.00  0.00     0.000 C 
HETATM    4  C   UNL     1       4.535  12.676  89.565  1.00  0.00     0.000 C 
HETATM    5  C   UNL     1       4.654  15.499  89.641  1.00  0.00     0.000 C 
HETATM    6  C   UNL     1       4.782  13.546  88.337  1.00  0.00     0.000 C 
ENDROOT
BRANCH   2   7
HETATM    7  C   UNL     1       3.493  12.606  91.741  1.00  0.00     0.000 C 
BRANCH   7   8
HETATM    8  C   UNL     1       4.520  11.540  91.919  1.00  0.00     0.000 A 
HETATM    9  C   UNL     1       5.501  11.675  92.902  1.00  0.00     0.000 A 
HETATM   10  C   UNL     1       6.463  10.679  93.067  1.00  0.00     0.000 A 
HETATM   11  C   UNL     1       6.443   9.548  92.251  1.00  0.00     0.000 A 
HETATM   12  C   UNL     1       5.463   9.413  91.269  1.00  0.00     0.000 A 
HETATM   13  C   UNL     1       4.501  10.409  91.103  1.00  0.00     0.000 A 
BRANCH  11  14
HETATM   14  C   UNL     1       7.429   8.526  92.423  1.00  0.00     0.000 C 
HETATM   15  C   UNL     1       8.258   7.667  92.567  1.00  0.00     0.000 C 
BRANCH  15  16
HETATM   16  C   UNL     1       9.243   6.645  92.740  1.00  0.00     0.000 A 
HETATM   17  C   UNL     1       9.491   5.737  91.710  1.00  0.00     0.000 A 
HETATM   18  C   UNL     1      10.454   4.742  91.878  1.00  0.00     0.000 A 
HETATM   19  C   UNL     1      11.147   4.678  93.068  1.00  0.00     0.000 A 
HETATM   20  C   UNL     1      10.920   5.563  94.101  1.00  0.00     0.000 A 
HETATM   21  C   UNL     1       9.957   6.559  93.935  1.00  0.00     0.000 A 
BRANCH  19  22
HETATM   22  C   UNL     1      12.171   3.616  93.247  1.00  0.00     0.000 C 
HETATM   23  O   UNL     1      11.826   2.438  93.214  1.00  0.00     0.000 OA
HETATM   24  N   UNL     1      13.477   4.054  93.417  1.00  0.00     0.000 N 
HETATM   25  HN  UNL     1      13.692   5.044  93.408  1.00  0.00     0.000 HD
BRANCH  24  26
HETATM   26  C   UNL     1      14.585   3.147  93.578  1.00  0.00     0.000 C 
BRANCH  26  27
HETATM   27  C   UNL     1      14.735   2.178  92.398  1.00  0.00     0.000 C 
HETATM   28  C   UNL     1      14.163   0.797  92.700  1.00  0.00     0.000 C 
BRANCH  27  29
HETATM   29  O   UNL     1      14.072   2.713  91.253  1.00  0.00     0.000 OA
HETATM   30  H   UNL     1      13.375   3.318  91.559  1.00  0.00     0.000 HD
ENDBRANCH  27  29
ENDBRANCH  26  27
BRANCH  26  31
HETATM   31  C   UNL     1      15.847   3.981  93.773  1.00  0.00     0.000 C 
HETATM   32  O   UNL     1      15.875   5.199  93.609  1.00  0.00     0.000 OA
BRANCH  31  33
HETATM   33  P   UNL     1      16.932   3.210  94.110  1.00  0.00     0.000 P 
HETATM   34  H   UNL     1      17.498   3.748  95.248  1.00  0.00     0.000 HD
BRANCH  33  35
HETATM   35  O   UNL     1      17.937   3.112  93.136  1.00  0.00     0.000 OA
HETATM   36  H   UNL     1      17.437   2.697  92.412  1.00  0.00     0.000 HD
ENDBRANCH  33  35
ENDBRANCH  31  33
ENDBRANCH  26  31
ENDBRANCH  24  26
ENDBRANCH  19  22
ENDBRANCH  15  16
ENDBRANCH  11  14
ENDBRANCH   7   8
ENDBRANCH   2   7
TORSDOF 11
ENDMDL
MODEL 5
REMARK VINA RESULT:      -4.1      3.496     12.551
REMARK  11 active torsions:
REMARK  status: ('A' for Active; 'I' for Inactive)
REMARK    1  A    between atoms: O_2  and  C_18 
REMARK    2  A    between atoms: O_5  and  P_8 
REMARK    3  A    between atoms: N_6  and  C_11 
REMARK    4  A    between atoms: N_7  and  C_15 
REMARK       I    between atoms: N_7  and  C_24 
REMARK    5  A    between atoms: P_8  and  C_23 
REMARK    6  A    between atoms: C_11  and  C_14 
REMARK    7  A    between atoms: C_15  and  C_18 
REMARK    8  A    between atoms: C_15  and  C_23 
REMARK    9  A    between atoms: C_21  and  C_26 
REMARK   10  A    between atoms: C_24  and  C_25 
REMARK   11  A    between atoms: C_29  and  C_32 
ROOT
HETATM    1  O   UNL     1       3.101  14.083  92.395  1.00  0.00     0.000 OA
HETATM    2  N   UNL     1       3.285  13.132  89.719  1.00  0.00     0.000 N 
HETATM    3  C   UNL     1       2.933  12.236  90.829  1.00  0.00     0.000 C 
HETATM    4  C   UNL     1       4.135  14.227  90.205  1.00  0.00     0.000 C 
HETATM    5  C   UNL     1       2.248  13.032  91.938  1.00  0.00     0.000 C 
HETATM    6  C   UNL     1       3.423  14.975  91.328  1.00  0.00     0.000 C 
ENDROOT
BRANCH   2   7
HETATM    7  C   UNL     1       3.953  12.392  88.649  1.00  0.00     0.000 C 
BRANCH   7   8
HETATM    8  C   UNL     1       4.911  11.377  89.173  1.00  0.00     0.000 A 
HETATM    9  C   UNL     1       4.731  10.027  88.869  1.00  0.00     0.000 A 
HETATM   10  C   UNL     1       5.626   9.077  89.361  1.00  0.00     0.000 A 
HETATM   11  C   UNL     1       6.702   9.478  90.153  1.00  0.00     0.000 A 
HETATM   12  C   UNL     1       6.883  10.826  90.456  1.00  0.00     0.000 A 
HETATM   13  C   UNL     1       5.987  11.776  89.966  1.00  0.00     0.000 A 
BRANCH  11  14
HETATM   14  C   UNL     1       7.621   8.503  90.655  1.00  0.00     0.000 C 
HETATM   15  C   UNL     1       8.394   7.684  91.076  1.00  0.00     0.000 C 
BRANCH  15  16
HETATM   16  C   UNL     1       9.314   6.711  91.578  1.00  0.00     0.000 A 
HETATM   17  C   UNL     1       9.734   5.662  90.760  1.00  0.00     0.000 A 
HETATM   18  C   UNL     1      10.632   4.715  91.249  1.00  0.00     0.000 A 
HETATM   19  C   UNL     1      11.091   4.837  92.544  1.00  0.00     0.000 A 
HETATM   20  C   UNL     1      10.690   5.863  93.373  1.00  0.00     0.000 A 
HETATM   21  C   UNL     1       9.792   6.812  92.885  1.00  0.00     0.000 A 
BRANCH  19  22
HETATM   22  C   UNL     1      12.047   3.825  93.065  1.00  0.00     0.000 C 
HETATM   23  O   UNL     1      11.614   2.766  93.512  1.00  0.00     0.000 OA
HETATM   24  N   UNL     1      13.391   4.159  92.981  1.00  0.00     0.000 N 
HETATM   25  HN  UNL     1      13.676   5.044  92.576  1.00  0.00     0.000 HD
BRANCH  24  26
HETATM   26  C   UNL     1      14.439   3.274  93.421  1.00  0.00     0.000 C 
BRANCH  26  27
HETATM   27  C   UNL     1      14.778   2.194  92.387  1.00  0.00     0.000 C 
HETATM   28  C   UNL     1      13.985   0.909  92.603  1.00  0.00     0.000 C 
BRANCH  27  29
HETATM   29  O   UNL     1      14.511   2.688  91.075  1.00  0.00     0.000 OA
HETATM   30  H   UNL     1      13.560   2.880  91.010  1.00  0.00     0.000 HD
ENDBRANCH  27  29
ENDBRANCH  26  27
BRANCH  26  31
HETATM   31  C   UNL     1      15.660   4.127  93.753  1.00  0.00     0.000 C 
HETATM   32  O   UNL     1      15.666   5.353  93.659  1.00  0.00     0.000 OA
BRANCH  31  33
HETATM   33  P   UNL     1      16.741   3.364  94.124  1.00  0.00     0.000 P 
HETATM   34  H   UNL     1      17.114   3.748  95.396  1.00  0.00     0.000 HD
BRANCH  33  35
HETATM   35  O   UNL     1      17.869   3.461  93.297  1.00  0.00     0.000 OA
HETATM   36  H   UNL     1      18.455   2.814  93.725  1.00  0.00     0.000 HD
ENDBRANCH  33  35
ENDBRANCH  31  33
ENDBRANCH  26  31
ENDBRANCH  24  26
ENDBRANCH  19  22
ENDBRANCH  15  16
ENDBRANCH  11  14
ENDBRANCH   7   8
ENDBRANCH   2   7
TORSDOF 11
ENDMDL
