MODEL 1
REMARK VINA RESULT:      -6.2      0.000      0.000
REMARK  11 active torsions:
REMARK  status: ('A' for Active; 'I' for Inactive)
REMARK    1  A    between atoms: O_2  and  C_18 
REMARK    2  A    between atoms: O_5  and  P_8 
REMARK    3  A    between atoms: N_6  and  C_11 
REMARK    4  A    between atoms: N_7  and  C_15 
REMARK       I    between atoms: N_7  and  C_24 
REMARK    5  A    between atoms: P_8  and  C_23 
REMARK    6  A    between atoms: C_11  and  C_14 
REMARK    7  A    between atoms: C_15  and  C_18 
REMARK    8  A    between atoms: C_15  and  C_23 
REMARK    9  A    between atoms: C_21  and  C_26 
REMARK   10  A    between atoms: C_24  and  C_25 
REMARK   11  A    between atoms: C_29  and  C_32 
ROOT
HETATM    1  O   UNL     1      16.957   3.761  93.705  1.00  0.00     0.000 OA
HETATM    2  N   UNL     1      14.297   3.038  92.997  1.00  0.00     0.000 N 
HETATM    3  C   UNL     1      15.358   2.030  93.126  1.00  0.00     0.000 C 
HETATM    4  C   UNL     1      14.874   4.329  92.598  1.00  0.00     0.000 C 
HETATM    5  C   UNL     1      16.409   2.510  94.124  1.00  0.00     0.000 C 
HETATM    6  C   UNL     1      15.936   4.755  93.607  1.00  0.00     0.000 C 
ENDROOT
BRANCH   2   7
HETATM    7  C   UNL     1      13.284   2.603  92.037  1.00  0.00     0.000 C 
BRANCH   7   8
HETATM    8  C   UNL     1      12.213   3.621  91.841  1.00  0.00     0.000 A 
HETATM    9  C   UNL     1      11.957   4.126  90.565  1.00  0.00     0.000 A 
HETATM   10  C   UNL     1      10.957   5.081  90.381  1.00  0.00     0.000 A 
HETATM   11  C   UNL     1      10.211   5.527  91.472  1.00  0.00     0.000 A 
HETATM   12  C   UNL     1      10.465   5.023  92.746  1.00  0.00     0.000 A 
HETATM   13  C   UNL     1      11.466   4.069  92.930  1.00  0.00     0.000 A 
BRANCH  11  14
HETATM   14  C   UNL     1       9.184   6.505  91.282  1.00  0.00     0.000 C 
HETATM   15  C   UNL     1       8.320   7.326  91.123  1.00  0.00     0.000 C 
BRANCH  15  16
HETATM   16  C   UNL     1       7.293   8.303  90.935  1.00  0.00     0.000 A 
HETATM   17  C   UNL     1       7.011   9.220  91.947  1.00  0.00     0.000 A 
HETATM   18  C   UNL     1       6.011  10.175  91.762  1.00  0.00     0.000 A 
HETATM   19  C   UNL     1       5.317  10.192  90.570  1.00  0.00     0.000 A 
HETATM   20  C   UNL     1       5.578   9.296  89.554  1.00  0.00     0.000 A 
HETATM   21  C   UNL     1       6.577   8.340  89.738  1.00  0.00     0.000 A 
BRANCH  19  22
HETATM   22  C   UNL     1       4.251  11.208  90.373  1.00  0.00     0.000 C 
HETATM   23  O   UNL     1       3.266  10.920  89.698  1.00  0.00     0.000 OA
HETATM   24  N   UNL     1       4.449  12.427  91.007  1.00  0.00     0.000 N 
HETATM   25  HN  UNL     1       5.276  12.583  91.570  1.00  0.00     0.000 HD
BRANCH  24  26
HETATM   26  C   UNL     1       3.494  13.503  90.933  1.00  0.00     0.000 C 
BRANCH  26  27
HETATM   27  C   UNL     1       2.378  13.381  91.978  1.00  0.00     0.000 C 
HETATM   28  C   UNL     1       1.363  14.515  91.884  1.00  0.00     0.000 C 
BRANCH  27  29
HETATM   29  O   UNL     1       1.700  12.137  91.808  1.00  0.00     0.000 OA
HETATM   30  H   UNL     1       1.463  11.796  92.687  1.00  0.00     0.000 HD
ENDBRANCH  27  29
ENDBRANCH  26  27
BRANCH  26  31
HETATM   31  C   UNL     1       4.258  14.814  91.088  1.00  0.00     0.000 C 
HETATM   32  O   UNL     1       4.293  15.448  92.141  1.00  0.00     0.000 OA
BRANCH  31  33
HETATM   33  P   UNL     1       4.856  15.209  89.916  1.00  0.00     0.000 P 
HETATM   34  H   UNL     1       4.473  16.511  89.663  1.00  0.00     0.000 HD
BRANCH  33  35
HETATM   35  O   UNL     1       4.545  14.442  88.784  1.00  0.00     0.000 OA
HETATM   36  H   UNL     1       3.578  14.542  88.766  1.00  0.00     0.000 HD
ENDBRANCH  33  35
ENDBRANCH  31  33
ENDBRANCH  26  31
ENDBRANCH  24  26
ENDBRANCH  19  22
ENDBRANCH  15  16
ENDBRANCH  11  14
ENDBRANCH   7   8
ENDBRANCH   2   7
TORSDOF 11
ENDMDL
