MODEL 1
REMARK VINA RESULT:      -7.5      0.000      0.000
REMARK  9 active torsions:
REMARK  status: ('A' for Active; 'I' for Inactive)
REMARK    1  A    between atoms: N_3  and  C_6 
REMARK    2  A    between atoms: C_6  and  C_9 
REMARK    3  A    between atoms: C_14  and  C_17 
REMARK       I    between atoms: N_26  and  C_15 
REMARK    4  A    between atoms: C_15  and  C_16 
REMARK    5  A    between atoms: C_20  and  C_23 
REMARK    6  A    between atoms: OG1_24  and  CB_28 
REMARK    7  A    between atoms: N_26  and  CA_27 
REMARK    8  A    between atoms: CA_27  and  CB_28 
REMARK    9  A    between atoms: CA_27  and  C_30 
ROOT
HETATM    1  O   UNK A   0       1.966   8.112  87.799  1.00  0.00    -0.388 OA
HETATM    2  N   UNK A   0       4.755   7.563  87.657  1.00  0.00     0.096 N 
HETATM    3  C   UNK A   0       4.247   8.939  87.753  1.00  0.00     0.299 C 
HETATM    4  C   UNK A   0       3.768   6.708  86.983  1.00  0.00     0.299 C 
HETATM    5  C   UNK A   0       2.906   8.944  88.482  1.00  0.00     0.198 C 
HETATM    6  C   UNK A   0       2.439   6.767  87.729  1.00  0.00     0.198 C 
ENDROOT
BRANCH   2   7
HETATM    7  C   UNK A   0       6.036   7.533  86.952  1.00  0.00     0.311 C 
BRANCH   7   8
HETATM    8  C   UNK A   0       7.121   6.924  87.773  1.00  0.00    -0.030 A 
HETATM    9  C   UNK A   0       6.897   6.633  89.120  1.00  0.00     0.010 A 
HETATM   10  C   UNK A   0       7.912   6.066  89.889  1.00  0.00     0.021 A 
HETATM   11  C   UNK A   0       9.150   5.787  89.312  1.00  0.00     0.018 A 
HETATM   12  C   UNK A   0       9.376   6.077  87.968  1.00  0.00     0.021 A 
HETATM   13  C   UNK A   0       8.361   6.645  87.198  1.00  0.00     0.010 A 
BRANCH  11  14
HETATM   14  C   UNK A   0      10.191   5.203  90.101  1.00  0.00    -0.061 C 
HETATM   15  C   UNK A   0      11.066   4.712  90.763  1.00  0.00    -0.061 C 
BRANCH  15  16
HETATM   16  C   UNK A   0      12.107   4.129  91.552  1.00  0.00     0.018 A 
HETATM   17  C   UNK A   0      11.858   3.769  92.876  1.00  0.00     0.022 A 
HETATM   18  C   UNK A   0      12.873   3.198  93.645  1.00  0.00     0.018 A 
HETATM   19  C   UNK A   0      14.111   2.999  93.072  1.00  0.00     0.032 A 
HETATM   20  C   UNK A   0      14.382   3.347  91.765  1.00  0.00     0.018 A 
HETATM   21  C   UNK A   0      13.369   3.919  90.996  1.00  0.00     0.022 A 
BRANCH  19  22
HETATM   22  C   UNK A   0      15.192   2.393  93.891  1.00  0.00     0.252 C 
HETATM   23  O   UNK A   0      16.350   2.774  93.734  1.00  0.00    -0.268 OA
ENDBRANCH  19  22
ENDBRANCH  15  16
ENDBRANCH  11  14
ENDBRANCH   7   8
ENDBRANCH   2   7
TORSDOF 9
ENDMDL
