MODEL 1
REMARK VINA RESULT:      -6.6      0.000      0.000
REMARK  11 active torsions:
REMARK  status: ('A' for Active; 'I' for Inactive)
REMARK    1  A    between atoms: O_2  and  C_18 
REMARK    2  A    between atoms: O_5  and  P_8 
REMARK    3  A    between atoms: N_6  and  C_11 
REMARK    4  A    between atoms: N_7  and  C_15 
REMARK       I    between atoms: N_7  and  C_24 
REMARK    5  A    between atoms: P_8  and  C_23 
REMARK    6  A    between atoms: C_11  and  C_14 
REMARK    7  A    between atoms: C_15  and  C_18 
REMARK    8  A    between atoms: C_15  and  C_23 
REMARK    9  A    between atoms: C_21  and  C_26 
REMARK   10  A    between atoms: C_24  and  C_25 
REMARK   11  A    between atoms: C_29  and  C_32 
ROOT
HETATM    1  O   UNL     1      16.594   3.373  93.738  1.00  0.00     0.000 OA
HETATM    2  N   UNL     1      13.935   2.915  92.831  1.00  0.00     0.000 N 
HETATM    3  C   UNL     1      14.874   1.806  93.049  1.00  0.00     0.000 C 
HETATM    4  C   UNL     1      14.671   4.134  92.470  1.00  0.00     0.000 C 
HETATM    5  C   UNL     1      15.889   2.191  94.122  1.00  0.00     0.000 C 
HETATM    6  C   UNL     1      15.691   4.464  93.555  1.00  0.00     0.000 C 
ENDROOT
BRANCH   2   7
HETATM    7  C   UNL     1      12.959   2.572  91.799  1.00  0.00     0.000 C 
BRANCH   7   8
HETATM    8  C   UNL     1      11.944   3.645  91.598  1.00  0.00     0.000 A 
HETATM    9  C   UNL     1      11.686   4.128  90.314  1.00  0.00     0.000 A 
HETATM   10  C   UNL     1      10.738   5.133  90.125  1.00  0.00     0.000 A 
HETATM   11  C   UNL     1      10.047   5.654  91.219  1.00  0.00     0.000 A 
HETATM   12  C   UNL     1      10.304   5.172  92.501  1.00  0.00     0.000 A 
HETATM   13  C   UNL     1      11.252   4.167  92.691  1.00  0.00     0.000 A 
BRANCH  11  14
HETATM   14  C   UNL     1       9.074   6.684  91.024  1.00  0.00     0.000 C 
HETATM   15  C   UNL     1       8.255   7.550  90.860  1.00  0.00     0.000 C 
BRANCH  15  16
HETATM   16  C   UNL     1       7.282   8.579  90.665  1.00  0.00     0.000 A 
HETATM   17  C   UNL     1       7.351   9.754  91.414  1.00  0.00     0.000 A 
HETATM   18  C   UNL     1       6.403  10.759  91.221  1.00  0.00     0.000 A 
HETATM   19  C   UNL     1       5.409  10.566  90.285  1.00  0.00     0.000 A 
HETATM   20  C   UNL     1       5.318   9.414  89.533  1.00  0.00     0.000 A 
HETATM   21  C   UNL     1       6.266   8.408  89.725  1.00  0.00     0.000 A 
BRANCH  19  22
HETATM   22  C   UNL     1       4.398  11.636  90.082  1.00  0.00     0.000 C 
HETATM   23  O   UNL     1       3.594  11.534  89.158  1.00  0.00     0.000 OA
HETATM   24  N   UNL     1       4.428  12.683  90.993  1.00  0.00     0.000 N 
HETATM   25  HN  UNL     1       5.106  12.687  91.746  1.00  0.00     0.000 HD
BRANCH  24  26
HETATM   26  C   UNL     1       3.498  13.782  90.943  1.00  0.00     0.000 C 
BRANCH  26  27
HETATM   27  C   UNL     1       2.292  13.582  91.870  1.00  0.00     0.000 C 
HETATM   28  C   UNL     1       2.682  12.968  93.210  1.00  0.00     0.000 C 
BRANCH  27  29
HETATM   29  O   UNL     1       1.655  14.837  92.103  1.00  0.00     0.000 OA
HETATM   30  H   UNL     1       0.869  14.683  92.653  1.00  0.00     0.000 HD
ENDBRANCH  27  29
ENDBRANCH  26  27
BRANCH  26  31
HETATM   31  C   UNL     1       4.262  15.055  91.294  1.00  0.00     0.000 C 
HETATM   32  O   UNL     1       4.302  15.519  92.431  1.00  0.00     0.000 OA
BRANCH  31  33
HETATM   33  P   UNL     1       4.854  15.625  90.193  1.00  0.00     0.000 P 
HETATM   34  H   UNL     1       4.083  16.704  89.810  1.00  0.00     0.000 HD
BRANCH  33  35
HETATM   35  O   UNL     1       5.004  14.787  89.079  1.00  0.00     0.000 OA
HETATM   36  H   UNL     1       5.919  14.485  89.210  1.00  0.00     0.000 HD
ENDBRANCH  33  35
ENDBRANCH  31  33
ENDBRANCH  26  31
ENDBRANCH  24  26
ENDBRANCH  19  22
ENDBRANCH  15  16
ENDBRANCH  11  14
ENDBRANCH   7   8
ENDBRANCH   2   7
TORSDOF 11
ENDMDL
