MODEL 1
REMARK VINA RESULT:      -6.2      0.000      0.000
REMARK  14 active torsions:
REMARK  status: ('A' for Active; 'I' for Inactive)
REMARK    1  A    between atoms: O_2  and  C_18 
REMARK    2  A    between atoms: C_5  and  C_8 
REMARK    3  A    between atoms: C_5  and  O_35 
REMARK    4  A    between atoms: C_5  and  C_36 
REMARK    5  A    between atoms: N_6  and  C_11 
REMARK    6  A    between atoms: N_7  and  C_15 
REMARK       I    between atoms: N_7  and  C_24 
REMARK    7  A    between atoms: C_8  and  C_23 
REMARK    8  A    between atoms: C_11  and  C_14 
REMARK    9  A    between atoms: C_15  and  C_18 
REMARK   10  A    between atoms: C_15  and  C_23 
REMARK   11  A    between atoms: C_21  and  C_26 
REMARK   12  A    between atoms: C_24  and  C_25 
REMARK   13  A    between atoms: C_29  and  C_32 
REMARK   14  A    between atoms: C_36  and  O_39 
ROOT
HETATM    1  O   UNL     1      16.700   3.298  93.537  1.00  0.00    -0.350 OA
HETATM    2  N   UNL     1      13.900   2.956  93.157  1.00  0.00     0.147 N 
HETATM    3  C   UNL     1      14.804   1.804  93.281  1.00  0.00     0.283 C 
HETATM    4  C   UNL     1      14.620   4.102  92.583  1.00  0.00     0.283 C 
HETATM    5  C   UNL     1      16.018   2.188  94.124  1.00  0.00     0.178 C 
HETATM    6  C   UNL     1      15.837   4.431  93.441  1.00  0.00     0.178 C 
ENDROOT
BRANCH   2   7
HETATM    7  C   UNL     1      12.735   2.614  92.343  1.00  0.00     0.277 C 
BRANCH   7   8
HETATM    8  C   UNL     1      11.649   3.630  92.451  1.00  0.00     0.011 A 
HETATM    9  C   UNL     1      11.533   4.406  93.605  1.00  0.00    -0.002 A 
HETATM   10  C   UNL     1      10.516   5.355  93.708  1.00  0.00     0.008 A 
HETATM   11  C   UNL     1       9.617   5.529  92.656  1.00  0.00     0.042 A 
HETATM   12  C   UNL     1       9.732   4.755  91.503  1.00  0.00     0.008 A 
HETATM   13  C   UNL     1      10.748   3.805  91.400  1.00  0.00    -0.002 A 
BRANCH  11  14
HETATM   14  C   UNL     1       8.576   6.504  92.761  1.00  0.00    -0.059 C 
HETATM   15  C   UNL     1       7.700   7.323  92.849  1.00  0.00    -0.059 C 
BRANCH  15  16
HETATM   16  C   UNL     1       6.658   8.297  92.954  1.00  0.00     0.042 A 
HETATM   17  C   UNL     1       6.979   9.642  93.143  1.00  0.00     0.008 A 
HETATM   18  C   UNL     1       5.962  10.592  93.243  1.00  0.00     0.005 A 
HETATM   19  C   UNL     1       4.650  10.177  93.150  1.00  0.00     0.056 A 
HETATM   20  C   UNL     1       4.308   8.854  92.963  1.00  0.00     0.005 A 
HETATM   21  C   UNL     1       5.323   7.903  92.864  1.00  0.00     0.008 A 
BRANCH  19  22
HETATM   22  C   UNL     1       3.568  11.190  93.258  1.00  0.00     0.254 C 
HETATM   23  O   UNL     1       2.706  11.056  94.124  1.00  0.00    -0.268 OA
HETATM   24  N   UNL     1       3.633  12.248  92.362  1.00  0.00    -0.335 N 
HETATM   25  HN  UNL     1       4.390  12.305  91.691  1.00  0.00     0.164 HD
BRANCH  24  26
HETATM   26  C   UNL     1       2.672  13.320  92.358  1.00  0.00     0.169 C 
BRANCH  26  27
HETATM   27  C   UNL     1       3.009  14.424  93.368  1.00  0.00     0.138 C 
HETATM   28  C   UNL     1       4.267  15.197  92.990  1.00  0.00     0.034 C 
BRANCH  27  29
HETATM   29  O   UNL     1       1.915  15.337  93.461  1.00  0.00    -0.383 OA
HETATM   30  H   UNL     1       2.125  16.120  92.926  1.00  0.00     0.210 HD
ENDBRANCH  27  29
ENDBRANCH  26  27
BRANCH  26  31
HETATM   31  C   UNL     1       2.596  13.872  90.938  1.00  0.00     0.194 C 
HETATM   32  O   UNL     1       1.806  14.753  90.603  1.00  0.00    -0.289 OA
BRANCH  31  33
HETATM   33  C   UNL     1       3.478  13.246  90.090  1.00  0.00     0.053 C 
BRANCH  33  34
HETATM   34  C   UNL     1       4.011  14.043  89.067  1.00  0.00     0.220 C 
BRANCH  34  35
HETATM   35  O   UNL     1       4.686  14.944  89.600  1.00  0.00    -0.371 OA
HETATM   36  H   UNL     1       5.109  15.271  88.821  1.00  0.00     0.211 HD
ENDBRANCH  34  35
BRANCH  34  37
HETATM   37  C   UNL     1       4.748  13.316  88.117  1.00  0.00     0.185 C 
HETATM   38  O   UNL     1       5.266  12.743  89.192  1.00  0.00    -0.647 OA
BRANCH  37  39
HETATM   39  O   UNL     1       4.858  13.292  86.928  1.00  0.00    -0.774 OA
HETATM   40  H   UNL     1       3.848  13.351  86.413  1.00  0.00     0.167 HD
ENDBRANCH  37  39
ENDBRANCH  34  37
ENDBRANCH  33  34
ENDBRANCH  31  33
ENDBRANCH  26  31
ENDBRANCH  24  26
ENDBRANCH  19  22
ENDBRANCH  15  16
ENDBRANCH  11  14
ENDBRANCH   7   8
ENDBRANCH   2   7
TORSDOF 14
ENDMDL
