MODEL 1
REMARK VINA RESULT:      -7.5      0.000      0.000
REMARK  9 active torsions:
REMARK  status: ('A' for Active; 'I' for Inactive)
REMARK    1  A    between atoms: N_3  and  C_6 
REMARK    2  A    between atoms: C_6  and  C_9 
REMARK    3  A    between atoms: C_14  and  C_17 
REMARK       I    between atoms: N_26  and  C_15 
REMARK    4  A    between atoms: C_15  and  C_16 
REMARK    5  A    between atoms: C_20  and  C_23 
REMARK    6  A    between atoms: OG1_24  and  CB_28 
REMARK    7  A    between atoms: N_26  and  CA_27 
REMARK    8  A    between atoms: CA_27  and  CB_28 
REMARK    9  A    between atoms: CA_27  and  C_30 
ROOT
HETATM    1  O   UNK A   0       1.793   8.078  87.843  1.00  0.00    -0.388 OA
HETATM    2  N   UNK A   0       4.589   7.579  87.665  1.00  0.00     0.096 N 
HETATM    3  C   UNK A   0       4.058   8.945  87.774  1.00  0.00     0.299 C 
HETATM    4  C   UNK A   0       3.609   6.710  86.999  1.00  0.00     0.299 C 
HETATM    5  C   UNK A   0       2.726   8.923  88.519  1.00  0.00     0.198 C 
HETATM    6  C   UNK A   0       2.288   6.741  87.760  1.00  0.00     0.198 C 
ENDROOT
BRANCH   2   7
HETATM    7  C   UNK A   0       5.862   7.574  86.945  1.00  0.00     0.311 C 
BRANCH   7   8
HETATM    8  C   UNK A   0       6.965   6.970  87.745  1.00  0.00    -0.030 A 
HETATM    9  C   UNK A   0       6.749   6.627  89.081  1.00  0.00     0.010 A 
HETATM   10  C   UNK A   0       7.781   6.063  89.831  1.00  0.00     0.021 A 
HETATM   11  C   UNK A   0       9.027   5.840  89.245  1.00  0.00     0.018 A 
HETATM   12  C   UNK A   0       9.243   6.182  87.911  1.00  0.00     0.021 A 
HETATM   13  C   UNK A   0       8.212   6.747  87.161  1.00  0.00     0.010 A 
BRANCH  11  14
HETATM   14  C   UNK A   0      10.084   5.260  90.014  1.00  0.00    -0.061 C 
HETATM   15  C   UNK A   0      10.973   4.773  90.660  1.00  0.00    -0.061 C 
BRANCH  15  16
HETATM   16  C   UNK A   0      12.030   4.193  91.430  1.00  0.00     0.018 A 
HETATM   17  C   UNK A   0      11.802   3.818  92.754  1.00  0.00     0.022 A 
HETATM   18  C   UNK A   0      12.833   3.250  93.503  1.00  0.00     0.018 A 
HETATM   19  C   UNK A   0      14.066   3.070  92.912  1.00  0.00     0.032 A 
HETATM   20  C   UNK A   0      14.316   3.433  91.606  1.00  0.00     0.018 A 
HETATM   21  C   UNK A   0      13.286   4.001  90.855  1.00  0.00     0.022 A 
BRANCH  19  22
HETATM   22  C   UNK A   0      15.163   2.467  93.712  1.00  0.00     0.252 C 
HETATM   23  O   UNK A   0      16.271   2.998  93.707  1.00  0.00    -0.268 OA
ENDBRANCH  19  22
ENDBRANCH  15  16
ENDBRANCH  11  14
ENDBRANCH   7   8
ENDBRANCH   2   7
TORSDOF 9
ENDMDL
MODEL 2
REMARK VINA RESULT:      -7.5      0.104      1.429
REMARK  9 active torsions:
REMARK  status: ('A' for Active; 'I' for Inactive)
REMARK    1  A    between atoms: N_3  and  C_6 
REMARK    2  A    between atoms: C_6  and  C_9 
REMARK    3  A    between atoms: C_14  and  C_17 
REMARK       I    between atoms: N_26  and  C_15 
REMARK    4  A    between atoms: C_15  and  C_16 
REMARK    5  A    between atoms: C_20  and  C_23 
REMARK    6  A    between atoms: OG1_24  and  CB_28 
REMARK    7  A    between atoms: N_26  and  CA_27 
REMARK    8  A    between atoms: CA_27  and  CB_28 
REMARK    9  A    between atoms: CA_27  and  C_30 
ROOT
HETATM    1  O   UNK A   0       1.837   7.956  87.789  1.00  0.00    -0.388 OA
HETATM    2  N   UNK A   0       4.649   7.527  87.670  1.00  0.00     0.096 N 
HETATM    3  C   UNK A   0       4.081   8.880  87.752  1.00  0.00     0.299 C 
HETATM    4  C   UNK A   0       3.704   6.625  86.997  1.00  0.00     0.299 C 
HETATM    5  C   UNK A   0       2.735   8.834  88.471  1.00  0.00     0.198 C 
HETATM    6  C   UNK A   0       2.368   6.632  87.732  1.00  0.00     0.198 C 
ENDROOT
BRANCH   2   7
HETATM    7  C   UNK A   0       5.934   7.547  86.974  1.00  0.00     0.311 C 
BRANCH   7   8
HETATM    8  C   UNK A   0       7.029   6.945  87.788  1.00  0.00    -0.030 A 
HETATM    9  C   UNK A   0       8.273   6.695  87.206  1.00  0.00     0.010 A 
HETATM   10  C   UNK A   0       9.297   6.130  87.966  1.00  0.00     0.021 A 
HETATM   11  C   UNK A   0       9.078   5.817  89.307  1.00  0.00     0.018 A 
HETATM   12  C   UNK A   0       7.837   6.067  89.889  1.00  0.00     0.021 A 
HETATM   13  C   UNK A   0       6.812   6.631  89.130  1.00  0.00     0.010 A 
BRANCH  11  14
HETATM   14  C   UNK A   0      10.130   5.240  90.087  1.00  0.00    -0.061 C 
HETATM   15  C   UNK A   0      11.014   4.754  90.741  1.00  0.00    -0.061 C 
BRANCH  15  16
HETATM   16  C   UNK A   0      12.065   4.178  91.520  1.00  0.00     0.018 A 
HETATM   17  C   UNK A   0      13.327   3.991  90.955  1.00  0.00     0.022 A 
HETATM   18  C   UNK A   0      14.354   3.431  91.716  1.00  0.00     0.018 A 
HETATM   19  C   UNK A   0      14.095   3.072  93.022  1.00  0.00     0.032 A 
HETATM   20  C   UNK A   0      12.857   3.246  93.603  1.00  0.00     0.018 A 
HETATM   21  C   UNK A   0      11.829   3.805  92.843  1.00  0.00     0.022 A 
BRANCH  19  22
HETATM   22  C   UNK A   0      15.189   2.473  93.832  1.00  0.00     0.252 C 
HETATM   23  O   UNK A   0      16.342   2.863  93.664  1.00  0.00    -0.268 OA
ENDBRANCH  19  22
ENDBRANCH  15  16
ENDBRANCH  11  14
ENDBRANCH   7   8
ENDBRANCH   2   7
TORSDOF 9
ENDMDL
MODEL 3
REMARK VINA RESULT:      -6.9      1.620      2.249
REMARK  9 active torsions:
REMARK  status: ('A' for Active; 'I' for Inactive)
REMARK    1  A    between atoms: N_3  and  C_6 
REMARK    2  A    between atoms: C_6  and  C_9 
REMARK    3  A    between atoms: C_14  and  C_17 
REMARK       I    between atoms: N_26  and  C_15 
REMARK    4  A    between atoms: C_15  and  C_16 
REMARK    5  A    between atoms: C_20  and  C_23 
REMARK    6  A    between atoms: OG1_24  and  CB_28 
REMARK    7  A    between atoms: N_26  and  CA_27 
REMARK    8  A    between atoms: CA_27  and  CB_28 
REMARK    9  A    between atoms: CA_27  and  C_30 
ROOT
HETATM    1  O   UNK A   0       2.865  11.393  89.811  1.00  0.00    -0.388 OA
HETATM    2  N   UNK A   0       4.637   9.383  88.850  1.00  0.00     0.096 N 
HETATM    3  C   UNK A   0       3.816  10.186  87.933  1.00  0.00     0.299 C 
HETATM    4  C   UNK A   0       3.961   9.256  90.149  1.00  0.00     0.299 C 
HETATM    5  C   UNK A   0       3.529  11.550  88.556  1.00  0.00     0.198 C 
HETATM    6  C   UNK A   0       3.670  10.640  90.719  1.00  0.00     0.198 C 
ENDROOT
BRANCH   2   7
HETATM    7  C   UNK A   0       4.916   8.067  88.278  1.00  0.00     0.311 C 
BRANCH   7   8
HETATM    8  C   UNK A   0       6.120   7.429  88.882  1.00  0.00    -0.030 A 
HETATM    9  C   UNK A   0       6.020   6.163  89.461  1.00  0.00     0.010 A 
HETATM   10  C   UNK A   0       7.146   5.566  90.028  1.00  0.00     0.021 A 
HETATM   11  C   UNK A   0       8.370   6.233  90.014  1.00  0.00     0.018 A 
HETATM   12  C   UNK A   0       8.470   7.497  89.436  1.00  0.00     0.021 A 
HETATM   13  C   UNK A   0       7.345   8.095  88.869  1.00  0.00     0.010 A 
BRANCH  11  14
HETATM   14  C   UNK A   0       9.525   5.619  90.595  1.00  0.00    -0.061 C 
HETATM   15  C   UNK A   0      10.495   5.103  91.083  1.00  0.00    -0.061 C 
BRANCH  15  16
HETATM   16  C   UNK A   0      11.649   4.489  91.662  1.00  0.00     0.018 A 
HETATM   17  C   UNK A   0      12.777   4.249  90.878  1.00  0.00     0.022 A 
HETATM   18  C   UNK A   0      13.904   3.652  91.444  1.00  0.00     0.018 A 
HETATM   19  C   UNK A   0      13.877   3.310  92.780  1.00  0.00     0.032 A 
HETATM   20  C   UNK A   0      12.773   3.536  93.576  1.00  0.00     0.018 A 
HETATM   21  C   UNK A   0      11.646   4.132  93.011  1.00  0.00     0.022 A 
BRANCH  19  22
HETATM   22  C   UNK A   0      15.076   2.672  93.382  1.00  0.00     0.252 C 
HETATM   23  O   UNK A   0      15.898   3.373  93.968  1.00  0.00    -0.268 OA
ENDBRANCH  19  22
ENDBRANCH  15  16
ENDBRANCH  11  14
ENDBRANCH   7   8
ENDBRANCH   2   7
TORSDOF 9
ENDMDL
MODEL 4
REMARK VINA RESULT:      -6.9      1.487      2.089
REMARK  9 active torsions:
REMARK  status: ('A' for Active; 'I' for Inactive)
REMARK    1  A    between atoms: N_3  and  C_6 
REMARK    2  A    between atoms: C_6  and  C_9 
REMARK    3  A    between atoms: C_14  and  C_17 
REMARK       I    between atoms: N_26  and  C_15 
REMARK    4  A    between atoms: C_15  and  C_16 
REMARK    5  A    between atoms: C_20  and  C_23 
REMARK    6  A    between atoms: OG1_24  and  CB_28 
REMARK    7  A    between atoms: N_26  and  CA_27 
REMARK    8  A    between atoms: CA_27  and  CB_28 
REMARK    9  A    between atoms: CA_27  and  C_30 
ROOT
HETATM    1  O   UNK A   0       4.911  11.229  88.654  1.00  0.00    -0.388 OA
HETATM    2  N   UNK A   0       5.247   8.403  88.652  1.00  0.00     0.096 N 
HETATM    3  C   UNK A   0       6.376   9.310  88.897  1.00  0.00     0.299 C 
HETATM    4  C   UNK A   0       4.251   9.059  87.794  1.00  0.00     0.299 C 
HETATM    5  C   UNK A   0       5.870  10.611  89.514  1.00  0.00     0.198 C 
HETATM    6  C   UNK A   0       3.795  10.365  88.435  1.00  0.00     0.198 C 
ENDROOT
BRANCH   2   7
HETATM    7  C   UNK A   0       5.708   7.153  88.051  1.00  0.00     0.311 C 
BRANCH   7   8
HETATM    8  C   UNK A   0       6.897   6.589  88.753  1.00  0.00    -0.030 A 
HETATM    9  C   UNK A   0       6.777   6.128  90.065  1.00  0.00     0.010 A 
HETATM   10  C   UNK A   0       7.889   5.603  90.723  1.00  0.00     0.021 A 
HETATM   11  C   UNK A   0       9.119   5.538  90.069  1.00  0.00     0.018 A 
HETATM   12  C   UNK A   0       9.239   5.997  88.759  1.00  0.00     0.021 A 
HETATM   13  C   UNK A   0       8.128   6.523  88.100  1.00  0.00     0.010 A 
BRANCH  11  14
HETATM   14  C   UNK A   0      10.259   4.997  90.744  1.00  0.00    -0.061 C 
HETATM   15  C   UNK A   0      11.216   4.543  91.311  1.00  0.00    -0.061 C 
BRANCH  15  16
HETATM   16  C   UNK A   0      12.355   4.002  91.986  1.00  0.00     0.018 A 
HETATM   17  C   UNK A   0      13.551   3.815  91.293  1.00  0.00     0.022 A 
HETATM   18  C   UNK A   0      14.663   3.290  91.952  1.00  0.00     0.018 A 
HETATM   19  C   UNK A   0      14.554   2.964  93.287  1.00  0.00     0.032 A 
HETATM   20  C   UNK A   0      13.382   3.138  93.994  1.00  0.00     0.018 A 
HETATM   21  C   UNK A   0      12.270   3.664  93.336  1.00  0.00     0.022 A 
BRANCH  19  22
HETATM   22  C   UNK A   0      15.737   2.402  93.988  1.00  0.00     0.252 C 
HETATM   23  O   UNK A   0      16.856   2.825  93.709  1.00  0.00    -0.268 OA
ENDBRANCH  19  22
ENDBRANCH  15  16
ENDBRANCH  11  14
ENDBRANCH   7   8
ENDBRANCH   2   7
TORSDOF 9
ENDMDL
MODEL 5
REMARK VINA RESULT:      -6.9      1.494      1.855
REMARK  9 active torsions:
REMARK  status: ('A' for Active; 'I' for Inactive)
REMARK    1  A    between atoms: N_3  and  C_6 
REMARK    2  A    between atoms: C_6  and  C_9 
REMARK    3  A    between atoms: C_14  and  C_17 
REMARK       I    between atoms: N_26  and  C_15 
REMARK    4  A    between atoms: C_15  and  C_16 
REMARK    5  A    between atoms: C_20  and  C_23 
REMARK    6  A    between atoms: OG1_24  and  CB_28 
REMARK    7  A    between atoms: N_26  and  CA_27 
REMARK    8  A    between atoms: CA_27  and  CB_28 
REMARK    9  A    between atoms: CA_27  and  C_30 
ROOT
HETATM    1  O   UNK A   0       2.767  11.171  89.754  1.00  0.00    -0.388 OA
HETATM    2  N   UNK A   0       4.632   9.290  88.713  1.00  0.00     0.096 N 
HETATM    3  C   UNK A   0       3.817  10.134  87.828  1.00  0.00     0.299 C 
HETATM    4  C   UNK A   0       3.919   9.047  89.974  1.00  0.00     0.299 C 
HETATM    5  C   UNK A   0       3.466  11.439  88.538  1.00  0.00     0.198 C 
HETATM    6  C   UNK A   0       3.565  10.377  90.633  1.00  0.00     0.198 C 
ENDROOT
BRANCH   2   7
HETATM    7  C   UNK A   0       4.971   8.028  88.056  1.00  0.00     0.311 C 
BRANCH   7   8
HETATM    8  C   UNK A   0       6.169   7.378  88.661  1.00  0.00    -0.030 A 
HETATM    9  C   UNK A   0       6.020   6.223  89.431  1.00  0.00     0.010 A 
HETATM   10  C   UNK A   0       7.139   5.615  89.999  1.00  0.00     0.021 A 
HETATM   11  C   UNK A   0       8.406   6.160  89.795  1.00  0.00     0.018 A 
HETATM   12  C   UNK A   0       8.556   7.313  89.027  1.00  0.00     0.021 A 
HETATM   13  C   UNK A   0       7.437   7.922  88.459  1.00  0.00     0.010 A 
BRANCH  11  14
HETATM   14  C   UNK A   0       9.555   5.535  90.376  1.00  0.00    -0.061 C 
HETATM   15  C   UNK A   0      10.519   5.008  90.864  1.00  0.00    -0.061 C 
BRANCH  15  16
HETATM   16  C   UNK A   0      11.666   4.383  91.444  1.00  0.00     0.018 A 
HETATM   17  C   UNK A   0      11.598   3.865  92.738  1.00  0.00     0.022 A 
HETATM   18  C   UNK A   0      12.717   3.253  93.303  1.00  0.00     0.018 A 
HETATM   19  C   UNK A   0      13.877   3.170  92.562  1.00  0.00     0.032 A 
HETATM   20  C   UNK A   0      13.970   3.674  91.281  1.00  0.00     0.018 A 
HETATM   21  C   UNK A   0      12.852   4.287  90.716  1.00  0.00     0.022 A 
BRANCH  19  22
HETATM   22  C   UNK A   0      15.069   2.519  93.164  1.00  0.00     0.252 C 
HETATM   23  O   UNK A   0      15.897   3.210  93.753  1.00  0.00    -0.268 OA
ENDBRANCH  19  22
ENDBRANCH  15  16
ENDBRANCH  11  14
ENDBRANCH   7   8
ENDBRANCH   2   7
TORSDOF 9
ENDMDL
MODEL 6
REMARK VINA RESULT:      -6.9      1.544      2.286
REMARK  9 active torsions:
REMARK  status: ('A' for Active; 'I' for Inactive)
REMARK    1  A    between atoms: N_3  and  C_6 
REMARK    2  A    between atoms: C_6  and  C_9 
REMARK    3  A    between atoms: C_14  and  C_17 
REMARK       I    between atoms: N_26  and  C_15 
REMARK    4  A    between atoms: C_15  and  C_16 
REMARK    5  A    between atoms: C_20  and  C_23 
REMARK    6  A    between atoms: OG1_24  and  CB_28 
REMARK    7  A    between atoms: N_26  and  CA_27 
REMARK    8  A    between atoms: CA_27  and  CB_28 
REMARK    9  A    between atoms: CA_27  and  C_30 
ROOT
HETATM    1  O   UNK A   0       2.709  11.205  89.791  1.00  0.00    -0.388 OA
HETATM    2  N   UNK A   0       4.595   9.282  88.869  1.00  0.00     0.096 N 
HETATM    3  C   UNK A   0       3.933  10.213  87.945  1.00  0.00     0.299 C 
HETATM    4  C   UNK A   0       3.725   9.014  90.023  1.00  0.00     0.299 C 
HETATM    5  C   UNK A   0       3.561  11.497  88.682  1.00  0.00     0.198 C 
HETATM    6  C   UNK A   0       3.358  10.325  90.710  1.00  0.00     0.198 C 
ENDROOT
BRANCH   2   7
HETATM    7  C   UNK A   0       4.951   8.039  88.186  1.00  0.00     0.311 C 
BRANCH   7   8
HETATM    8  C   UNK A   0       6.152   7.387  88.783  1.00  0.00    -0.030 A 
HETATM    9  C   UNK A   0       7.400   8.003  88.684  1.00  0.00     0.010 A 
HETATM   10  C   UNK A   0       8.524   7.393  89.239  1.00  0.00     0.021 A 
HETATM   11  C   UNK A   0       8.399   6.168  89.895  1.00  0.00     0.018 A 
HETATM   12  C   UNK A   0       7.153   5.553  89.995  1.00  0.00     0.021 A 
HETATM   13  C   UNK A   0       6.029   6.162  89.439  1.00  0.00     0.010 A 
BRANCH  11  14
HETATM   14  C   UNK A   0       9.553   5.544  90.467  1.00  0.00    -0.061 C 
HETATM   15  C   UNK A   0      10.522   5.019  90.947  1.00  0.00    -0.061 C 
BRANCH  15  16
HETATM   16  C   UNK A   0      11.674   4.396  91.520  1.00  0.00     0.018 A 
HETATM   17  C   UNK A   0      12.826   4.222  90.751  1.00  0.00     0.022 A 
HETATM   18  C   UNK A   0      13.951   3.615  91.310  1.00  0.00     0.018 A 
HETATM   19  C   UNK A   0      13.899   3.198  92.624  1.00  0.00     0.032 A 
HETATM   20  C   UNK A   0      12.773   3.358  93.404  1.00  0.00     0.018 A 
HETATM   21  C   UNK A   0      11.648   3.964  92.846  1.00  0.00     0.022 A 
BRANCH  19  22
HETATM   22  C   UNK A   0      15.097   2.551  93.218  1.00  0.00     0.252 C 
HETATM   23  O   UNK A   0      16.025   3.253  93.613  1.00  0.00    -0.268 OA
ENDBRANCH  19  22
ENDBRANCH  15  16
ENDBRANCH  11  14
ENDBRANCH   7   8
ENDBRANCH   2   7
TORSDOF 9
ENDMDL
MODEL 7
REMARK VINA RESULT:      -6.6      3.508     10.335
REMARK  9 active torsions:
REMARK  status: ('A' for Active; 'I' for Inactive)
REMARK    1  A    between atoms: N_3  and  C_6 
REMARK    2  A    between atoms: C_6  and  C_9 
REMARK    3  A    between atoms: C_14  and  C_17 
REMARK       I    between atoms: N_26  and  C_15 
REMARK    4  A    between atoms: C_15  and  C_16 
REMARK    5  A    between atoms: C_20  and  C_23 
REMARK    6  A    between atoms: OG1_24  and  CB_28 
REMARK    7  A    between atoms: N_26  and  CA_27 
REMARK    8  A    between atoms: CA_27  and  CB_28 
REMARK    9  A    between atoms: CA_27  and  C_30 
ROOT
HETATM    1  O   UNK A   0      16.235   3.156  93.616  1.00  0.00    -0.388 OA
HETATM    2  N   UNK A   0      13.531   2.926  92.759  1.00  0.00     0.096 N 
HETATM    3  C   UNK A   0      14.334   1.742  93.091  1.00  0.00     0.299 C 
HETATM    4  C   UNK A   0      14.402   4.005  92.273  1.00  0.00     0.299 C 
HETATM    5  C   UNK A   0      15.400   2.112  94.119  1.00  0.00     0.198 C 
HETATM    6  C   UNK A   0      15.466   4.322  93.319  1.00  0.00     0.198 C 
ENDROOT
BRANCH   2   7
HETATM    7  C   UNK A   0      12.509   2.597  91.767  1.00  0.00     0.311 C 
BRANCH   7   8
HETATM    8  C   UNK A   0      11.636   3.761  91.442  1.00  0.00    -0.030 A 
HETATM    9  C   UNK A   0      11.004   4.465  92.467  1.00  0.00     0.010 A 
HETATM   10  C   UNK A   0      10.186   5.553  92.164  1.00  0.00     0.021 A 
HETATM   11  C   UNK A   0      10.003   5.938  90.836  1.00  0.00     0.018 A 
HETATM   12  C   UNK A   0      10.634   5.236  89.812  1.00  0.00     0.021 A 
HETATM   13  C   UNK A   0      11.451   4.147  90.114  1.00  0.00     0.010 A 
BRANCH  11  14
HETATM   14  C   UNK A   0       9.165   7.056  90.526  1.00  0.00    -0.061 C 
HETATM   15  C   UNK A   0       8.461   7.995  90.266  1.00  0.00    -0.061 C 
BRANCH  15  16
HETATM   16  C   UNK A   0       7.625   9.113  89.956  1.00  0.00     0.018 A 
HETATM   17  C   UNK A   0       6.237   8.969  89.968  1.00  0.00     0.022 A 
HETATM   18  C   UNK A   0       5.422  10.060  89.668  1.00  0.00     0.018 A 
HETATM   19  C   UNK A   0       6.011  11.269  89.364  1.00  0.00     0.032 A 
HETATM   20  C   UNK A   0       7.380  11.437  89.345  1.00  0.00     0.018 A 
HETATM   21  C   UNK A   0       8.196  10.347  89.645  1.00  0.00     0.022 A 
BRANCH  19  22
HETATM   22  C   UNK A   0       5.141  12.431  89.043  1.00  0.00     0.252 C 
HETATM   23  O   UNK A   0       4.870  12.670  87.869  1.00  0.00    -0.268 OA
ENDBRANCH  19  22
ENDBRANCH  15  16
ENDBRANCH  11  14
ENDBRANCH   7   8
ENDBRANCH   2   7
TORSDOF 9
ENDMDL
MODEL 8
REMARK VINA RESULT:      -6.6      3.986     10.414
REMARK  9 active torsions:
REMARK  status: ('A' for Active; 'I' for Inactive)
REMARK    1  A    between atoms: N_3  and  C_6 
REMARK    2  A    between atoms: C_6  and  C_9 
REMARK    3  A    between atoms: C_14  and  C_17 
REMARK       I    between atoms: N_26  and  C_15 
REMARK    4  A    between atoms: C_15  and  C_16 
REMARK    5  A    between atoms: C_20  and  C_23 
REMARK    6  A    between atoms: OG1_24  and  CB_28 
REMARK    7  A    between atoms: N_26  and  CA_27 
REMARK    8  A    between atoms: CA_27  and  CB_28 
REMARK    9  A    between atoms: CA_27  and  C_30 
ROOT
HETATM    1  O   UNK A   0      14.540   3.332  92.124  1.00  0.00    -0.388 OA
HETATM    2  N   UNK A   0      11.832   4.186  92.323  1.00  0.00     0.096 N 
HETATM    3  C   UNK A   0      12.450   3.344  93.357  1.00  0.00     0.299 C 
HETATM    4  C   UNK A   0      12.464   3.929  91.021  1.00  0.00     0.299 C 
HETATM    5  C   UNK A   0      13.955   3.599  93.400  1.00  0.00     0.198 C 
HETATM    6  C   UNK A   0      13.967   4.169  91.119  1.00  0.00     0.198 C 
ENDROOT
BRANCH   2   7
HETATM    7  C   UNK A   0      10.391   3.951  92.256  1.00  0.00     0.311 C 
BRANCH   7   8
HETATM    8  C   UNK A   0       9.626   5.194  91.955  1.00  0.00    -0.030 A 
HETATM    9  C   UNK A   0       9.879   6.361  92.678  1.00  0.00     0.010 A 
HETATM   10  C   UNK A   0       9.163   7.524  92.399  1.00  0.00     0.021 A 
HETATM   11  C   UNK A   0       8.195   7.521  91.395  1.00  0.00     0.018 A 
HETATM   12  C   UNK A   0       7.941   6.357  90.672  1.00  0.00     0.021 A 
HETATM   13  C   UNK A   0       8.657   5.193  90.952  1.00  0.00     0.010 A 
BRANCH  11  14
HETATM   14  C   UNK A   0       7.461   8.715  91.107  1.00  0.00    -0.061 C 
HETATM   15  C   UNK A   0       6.845   9.719  90.864  1.00  0.00    -0.061 C 
BRANCH  15  16
HETATM   16  C   UNK A   0       6.112  10.912  90.576  1.00  0.00     0.018 A 
HETATM   17  C   UNK A   0       5.239  11.440  91.527  1.00  0.00     0.022 A 
HETATM   18  C   UNK A   0       4.526  12.606  91.246  1.00  0.00     0.018 A 
HETATM   19  C   UNK A   0       4.703  13.217  90.022  1.00  0.00     0.032 A 
HETATM   20  C   UNK A   0       5.559  12.714  89.065  1.00  0.00     0.018 A 
HETATM   21  C   UNK A   0       6.273  11.549  89.345  1.00  0.00     0.022 A 
BRANCH  19  22
HETATM   22  C   UNK A   0       3.942  14.457  89.723  1.00  0.00     0.252 C 
HETATM   23  O   UNK A   0       4.521  15.540  89.760  1.00  0.00    -0.268 OA
ENDBRANCH  19  22
ENDBRANCH  15  16
ENDBRANCH  11  14
ENDBRANCH   7   8
ENDBRANCH   2   7
TORSDOF 9
ENDMDL
MODEL 9
REMARK VINA RESULT:      -6.4      3.823     10.266
REMARK  9 active torsions:
REMARK  status: ('A' for Active; 'I' for Inactive)
REMARK    1  A    between atoms: N_3  and  C_6 
REMARK    2  A    between atoms: C_6  and  C_9 
REMARK    3  A    between atoms: C_14  and  C_17 
REMARK       I    between atoms: N_26  and  C_15 
REMARK    4  A    between atoms: C_15  and  C_16 
REMARK    5  A    between atoms: C_20  and  C_23 
REMARK    6  A    between atoms: OG1_24  and  CB_28 
REMARK    7  A    between atoms: N_26  and  CA_27 
REMARK    8  A    between atoms: CA_27  and  CB_28 
REMARK    9  A    between atoms: CA_27  and  C_30 
ROOT
HETATM    1  O   UNK A   0      14.505   3.057  92.118  1.00  0.00    -0.388 OA
HETATM    2  N   UNK A   0      11.902   3.875  91.309  1.00  0.00     0.096 N 
HETATM    3  C   UNK A   0      12.113   2.648  92.089  1.00  0.00     0.299 C 
HETATM    4  C   UNK A   0      13.087   4.161  90.489  1.00  0.00     0.299 C 
HETATM    5  C   UNK A   0      13.370   2.789  92.944  1.00  0.00     0.198 C 
HETATM    6  C   UNK A   0      14.320   4.266  91.380  1.00  0.00     0.198 C 
ENDROOT
BRANCH   2   7
HETATM    7  C   UNK A   0      10.708   3.759  90.474  1.00  0.00     0.311 C 
BRANCH   7   8
HETATM    8  C   UNK A   0       9.941   5.035  90.397  1.00  0.00    -0.030 A 
HETATM    9  C   UNK A   0       9.132   5.427  91.465  1.00  0.00     0.010 A 
HETATM   10  C   UNK A   0       8.413   6.620  91.393  1.00  0.00     0.021 A 
HETATM   11  C   UNK A   0       8.505   7.421  90.256  1.00  0.00     0.018 A 
HETATM   12  C   UNK A   0       9.313   7.031  89.190  1.00  0.00     0.021 A 
HETATM   13  C   UNK A   0      10.032   5.838  89.260  1.00  0.00     0.010 A 
BRANCH  11  14
HETATM   14  C   UNK A   0       7.769   8.646  90.183  1.00  0.00    -0.061 C 
HETATM   15  C   UNK A   0       7.151   9.676  90.123  1.00  0.00    -0.061 C 
BRANCH  15  16
HETATM   16  C   UNK A   0       6.416  10.900  90.050  1.00  0.00     0.018 A 
HETATM   17  C   UNK A   0       6.646  11.789  88.999  1.00  0.00     0.022 A 
HETATM   18  C   UNK A   0       5.927  12.982  88.927  1.00  0.00     0.018 A 
HETATM   19  C   UNK A   0       4.995  13.259  89.905  1.00  0.00     0.032 A 
HETATM   20  C   UNK A   0       4.749  12.397  90.953  1.00  0.00     0.018 A 
HETATM   21  C   UNK A   0       5.468  11.204  91.027  1.00  0.00     0.022 A 
BRANCH  19  22
HETATM   22  C   UNK A   0       4.230  14.531  89.828  1.00  0.00     0.252 C 
HETATM   23  O   UNK A   0       4.743  15.507  89.287  1.00  0.00    -0.268 OA
ENDBRANCH  19  22
ENDBRANCH  15  16
ENDBRANCH  11  14
ENDBRANCH   7   8
ENDBRANCH   2   7
TORSDOF 9
ENDMDL
