MODEL 1
REMARK VINA RESULT:      -6.8      0.000      0.000
REMARK  11 active torsions:
REMARK  status: ('A' for Active; 'I' for Inactive)
REMARK    1  A    between atoms: O_2  and  C_18 
REMARK    2  A    between atoms: O_5  and  P_8 
REMARK    3  A    between atoms: N_6  and  C_11 
REMARK    4  A    between atoms: N_7  and  C_15 
REMARK       I    between atoms: N_7  and  C_24 
REMARK    5  A    between atoms: P_8  and  C_23 
REMARK    6  A    between atoms: C_11  and  C_14 
REMARK    7  A    between atoms: C_15  and  C_18 
REMARK    8  A    between atoms: C_15  and  C_23 
REMARK    9  A    between atoms: C_21  and  C_26 
REMARK   10  A    between atoms: C_24  and  C_25 
REMARK   11  A    between atoms: C_29  and  C_32 
ROOT
HETATM    1  O   UNL     1      16.479   4.338  94.122  1.00  0.00     0.000 OA
HETATM    2  N   UNL     1      14.733   2.760  92.522  1.00  0.00     0.000 N 
HETATM    3  C   UNL     1      14.648   4.227  92.534  1.00  0.00     0.000 C 
HETATM    4  C   UNL     1      15.242   2.275  93.812  1.00  0.00     0.000 C 
HETATM    5  C   UNL     1      16.016   4.822  92.860  1.00  0.00     0.000 C 
HETATM    6  C   UNL     1      16.594   2.915  94.109  1.00  0.00     0.000 C 
ENDROOT
BRANCH   2   7
HETATM    7  C   UNL     1      13.430   2.169  92.221  1.00  0.00     0.000 C 
BRANCH   7   8
HETATM    8  C   UNL     1      12.382   3.199  91.972  1.00  0.00     0.000 A 
HETATM    9  C   UNL     1      11.546   3.607  93.012  1.00  0.00     0.000 A 
HETATM   10  C   UNL     1      10.564   4.570  92.780  1.00  0.00     0.000 A 
HETATM   11  C   UNL     1      10.420   5.125  91.508  1.00  0.00     0.000 A 
HETATM   12  C   UNL     1      11.255   4.719  90.470  1.00  0.00     0.000 A 
HETATM   13  C   UNL     1      12.237   3.755  90.701  1.00  0.00     0.000 A 
BRANCH  11  14
HETATM   14  C   UNL     1       9.414   6.114  91.271  1.00  0.00     0.000 C 
HETATM   15  C   UNL     1       8.568   6.945  91.071  1.00  0.00     0.000 C 
BRANCH  15  16
HETATM   16  C   UNL     1       7.562   7.933  90.834  1.00  0.00     0.000 A 
HETATM   17  C   UNL     1       7.902   9.142  90.228  1.00  0.00     0.000 A 
HETATM   18  C   UNL     1       6.920  10.104  89.994  1.00  0.00     0.000 A 
HETATM   19  C   UNL     1       5.621   9.836  90.370  1.00  0.00     0.000 A 
HETATM   20  C   UNL     1       5.259   8.648  90.971  1.00  0.00     0.000 A 
HETATM   21  C   UNL     1       6.240   7.685  91.205  1.00  0.00     0.000 A 
BRANCH  19  22
HETATM   22  C   UNL     1       4.575  10.862  90.123  1.00  0.00     0.000 C 
HETATM   23  O   UNL     1       3.438  10.501  89.829  1.00  0.00     0.000 OA
HETATM   24  N   UNL     1       4.973  12.184  90.272  1.00  0.00     0.000 N 
HETATM   25  HN  UNL     1       5.924  12.406  90.542  1.00  0.00     0.000 HD
BRANCH  24  26
HETATM   26  C   UNL     1       4.069  13.291  90.090  1.00  0.00     0.000 C 
BRANCH  26  27
HETATM   27  C   UNL     1       3.591  13.891  91.418  1.00  0.00     0.000 C 
HETATM   28  C   UNL     1       2.087  14.143  91.438  1.00  0.00     0.000 C 
BRANCH  27  29
HETATM   29  O   UNL     1       3.927  13.009  92.489  1.00  0.00     0.000 OA
HETATM   30  H   UNL     1       4.799  12.623  92.303  1.00  0.00     0.000 HD
ENDBRANCH  27  29
ENDBRANCH  26  27
BRANCH  26  31
HETATM   31  C   UNL     1       4.777  14.335  89.233  1.00  0.00     0.000 C 
HETATM   32  O   UNL     1       4.809  15.529  89.522  1.00  0.00     0.000 OA
BRANCH  31  33
HETATM   33  P   UNL     1       5.330  13.788  88.100  1.00  0.00     0.000 P 
HETATM   34  H   UNL     1       5.653  14.822  87.245  1.00  0.00     0.000 HD
BRANCH  33  35
HETATM   35  O   UNL     1       4.515  12.888  87.397  1.00  0.00     0.000 OA
HETATM   36  H   UNL     1       4.447  13.347  86.542  1.00  0.00     0.000 HD
ENDBRANCH  33  35
ENDBRANCH  31  33
ENDBRANCH  26  31
ENDBRANCH  24  26
ENDBRANCH  19  22
ENDBRANCH  15  16
ENDBRANCH  11  14
ENDBRANCH   7   8
ENDBRANCH   2   7
TORSDOF 11
ENDMDL
