MODEL 1
REMARK VINA RESULT:      -4.2      0.000      0.000
REMARK  14 active torsions:
REMARK  status: ('A' for Active; 'I' for Inactive)
REMARK    1  A    between atoms: O_2  and  C_18 
REMARK    2  A    between atoms: C_5  and  C_8 
REMARK    3  A    between atoms: C_5  and  O_35 
REMARK    4  A    between atoms: C_5  and  C_36 
REMARK    5  A    between atoms: N_6  and  C_11 
REMARK    6  A    between atoms: N_7  and  C_15 
REMARK       I    between atoms: N_7  and  C_24 
REMARK    7  A    between atoms: C_8  and  C_23 
REMARK    8  A    between atoms: C_11  and  C_14 
REMARK    9  A    between atoms: C_15  and  C_18 
REMARK   10  A    between atoms: C_15  and  C_23 
REMARK   11  A    between atoms: C_21  and  C_26 
REMARK   12  A    between atoms: C_24  and  C_25 
REMARK   13  A    between atoms: C_29  and  C_32 
REMARK   14  A    between atoms: C_36  and  O_39 
ROOT
HETATM    1  O   UNL     1      15.563   2.970  90.576  1.00  0.00    -0.350 OA
HETATM    2  N   UNL     1      13.510   3.214  92.532  1.00  0.00     0.147 N 
HETATM    3  C   UNL     1      14.631   2.281  92.708  1.00  0.00     0.283 C 
HETATM    4  C   UNL     1      13.236   3.408  91.102  1.00  0.00     0.283 C 
HETATM    5  C   UNL     1      15.858   2.800  91.964  1.00  0.00     0.178 C 
HETATM    6  C   UNL     1      14.495   3.900  90.395  1.00  0.00     0.178 C 
ENDROOT
BRANCH   2   7
HETATM    7  C   UNL     1      12.319   2.731  93.229  1.00  0.00     0.277 C 
BRANCH   7   8
HETATM    8  C   UNL     1      11.219   3.736  93.238  1.00  0.00     0.011 A 
HETATM    9  C   UNL     1      10.138   3.595  92.366  1.00  0.00    -0.002 A 
HETATM   10  C   UNL     1       9.109   4.536  92.372  1.00  0.00     0.008 A 
HETATM   11  C   UNL     1       9.160   5.617  93.251  1.00  0.00     0.042 A 
HETATM   12  C   UNL     1      10.238   5.760  94.123  1.00  0.00     0.008 A 
HETATM   13  C   UNL     1      11.268   4.819  94.116  1.00  0.00    -0.002 A 
BRANCH  11  14
HETATM   14  C   UNL     1       8.103   6.582  93.259  1.00  0.00    -0.059 C 
HETATM   15  C   UNL     1       7.216   7.393  93.266  1.00  0.00    -0.059 C 
BRANCH  15  16
HETATM   16  C   UNL     1       6.160   8.357  93.272  1.00  0.00     0.042 A 
HETATM   17  C   UNL     1       6.405   9.654  93.723  1.00  0.00     0.008 A 
HETATM   18  C   UNL     1       5.376  10.596  93.727  1.00  0.00     0.005 A 
HETATM   19  C   UNL     1       4.126  10.219  93.280  1.00  0.00     0.056 A 
HETATM   20  C   UNL     1       3.859   8.943  92.830  1.00  0.00     0.005 A 
HETATM   21  C   UNL     1       4.888   8.001  92.826  1.00  0.00     0.008 A 
BRANCH  19  22
HETATM   22  C   UNL     1       3.030  11.222  93.287  1.00  0.00     0.254 C 
HETATM   23  O   UNL     1       2.055  11.040  94.013  1.00  0.00    -0.268 OA
HETATM   24  N   UNL     1       3.211  12.326  92.466  1.00  0.00    -0.335 N 
HETATM   25  HN  UNL     1       4.054  12.421  91.912  1.00  0.00     0.164 HD
BRANCH  24  26
HETATM   26  C   UNL     1       2.249  13.396  92.381  1.00  0.00     0.169 C 
BRANCH  26  27
HETATM   27  C   UNL     1       2.556  14.548  93.345  1.00  0.00     0.138 C 
HETATM   28  C   UNL     1       3.984  15.063  93.204  1.00  0.00     0.034 C 
BRANCH  27  29
HETATM   29  O   UNL     1       1.650  15.625  93.106  1.00  0.00    -0.383 OA
HETATM   30  H   UNL     1       0.777  15.371  93.451  1.00  0.00     0.210 HD
ENDBRANCH  27  29
ENDBRANCH  26  27
BRANCH  26  31
HETATM   31  C   UNL     1       2.214  13.877  90.934  1.00  0.00     0.194 C 
HETATM   32  O   UNL     1       1.473  14.779  90.546  1.00  0.00    -0.289 OA
BRANCH  31  33
HETATM   33  C   UNL     1       3.068  13.164  90.129  1.00  0.00     0.053 C 
BRANCH  33  34
HETATM   34  C   UNL     1       3.886  13.925  89.282  1.00  0.00     0.220 C 
BRANCH  34  35
HETATM   35  O   UNL     1       4.639  14.613  89.998  1.00  0.00    -0.371 OA
HETATM   36  H   UNL     1       5.339  14.735  89.375  1.00  0.00     0.211 HD
ENDBRANCH  34  35
BRANCH  34  37
HETATM   37  C   UNL     1       4.598  13.152  88.348  1.00  0.00     0.185 C 
HETATM   38  O   UNL     1       5.645  13.765  88.878  1.00  0.00    -0.647 OA
BRANCH  37  39
HETATM   39  O   UNL     1       4.340  12.372  87.482  1.00  0.00    -0.774 OA
HETATM   40  H   UNL     1       3.363  11.831  87.684  1.00  0.00     0.167 HD
ENDBRANCH  37  39
ENDBRANCH  34  37
ENDBRANCH  33  34
ENDBRANCH  31  33
ENDBRANCH  26  31
ENDBRANCH  24  26
ENDBRANCH  19  22
ENDBRANCH  15  16
ENDBRANCH  11  14
ENDBRANCH   7   8
ENDBRANCH   2   7
TORSDOF 14
ENDMDL
MODEL 2
REMARK VINA RESULT:      -3.5      1.660      1.873
REMARK  14 active torsions:
REMARK  status: ('A' for Active; 'I' for Inactive)
REMARK    1  A    between atoms: O_2  and  C_18 
REMARK    2  A    between atoms: C_5  and  C_8 
REMARK    3  A    between atoms: C_5  and  O_35 
REMARK    4  A    between atoms: C_5  and  C_36 
REMARK    5  A    between atoms: N_6  and  C_11 
REMARK    6  A    between atoms: N_7  and  C_15 
REMARK       I    between atoms: N_7  and  C_24 
REMARK    7  A    between atoms: C_8  and  C_23 
REMARK    8  A    between atoms: C_11  and  C_14 
REMARK    9  A    between atoms: C_15  and  C_18 
REMARK   10  A    between atoms: C_15  and  C_23 
REMARK   11  A    between atoms: C_21  and  C_26 
REMARK   12  A    between atoms: C_24  and  C_25 
REMARK   13  A    between atoms: C_29  and  C_32 
REMARK   14  A    between atoms: C_36  and  O_39 
ROOT
HETATM    1  O   UNL     1      16.539   3.250  93.685  1.00  0.00    -0.350 OA
HETATM    2  N   UNL     1      13.881   2.845  92.751  1.00  0.00     0.147 N 
HETATM    3  C   UNL     1      14.769   1.714  93.055  1.00  0.00     0.283 C 
HETATM    4  C   UNL     1      14.674   4.009  92.332  1.00  0.00     0.283 C 
HETATM    5  C   UNL     1      15.779   2.122  94.124  1.00  0.00     0.178 C 
HETATM    6  C   UNL     1      15.686   4.363  93.417  1.00  0.00     0.178 C 
ENDROOT
BRANCH   2   7
HETATM    7  C   UNL     1      12.911   2.479  91.720  1.00  0.00     0.277 C 
BRANCH   7   8
HETATM    8  C   UNL     1      11.762   3.426  91.660  1.00  0.00     0.011 A 
HETATM    9  C   UNL     1      11.285   3.865  90.424  1.00  0.00    -0.002 A 
HETATM   10  C   UNL     1      10.211   4.753  90.366  1.00  0.00     0.008 A 
HETATM   11  C   UNL     1       9.613   5.200  91.544  1.00  0.00     0.042 A 
HETATM   12  C   UNL     1      10.088   4.762  92.779  1.00  0.00     0.008 A 
HETATM   13  C   UNL     1      11.162   3.874  92.837  1.00  0.00    -0.002 A 
BRANCH  11  14
HETATM   14  C   UNL     1       8.510   6.109  91.485  1.00  0.00    -0.059 C 
HETATM   15  C   UNL     1       7.584   6.874  91.436  1.00  0.00    -0.059 C 
BRANCH  15  16
HETATM   16  C   UNL     1       6.482   7.783  91.376  1.00  0.00     0.042 A 
HETATM   17  C   UNL     1       6.065   8.449  92.529  1.00  0.00     0.008 A 
HETATM   18  C   UNL     1       4.992   9.338  92.470  1.00  0.00     0.005 A 
HETATM   19  C   UNL     1       4.361   9.542  91.261  1.00  0.00     0.056 A 
HETATM   20  C   UNL     1       4.754   8.897  90.108  1.00  0.00     0.005 A 
HETATM   21  C   UNL     1       5.827   8.007  90.165  1.00  0.00     0.008 A 
BRANCH  19  22
HETATM   22  C   UNL     1       3.217  10.488  91.199  1.00  0.00     0.254 C 
HETATM   23  O   UNL     1       2.123  10.082  90.815  1.00  0.00    -0.268 OA
HETATM   24  N   UNL     1       3.478  11.786  91.616  1.00  0.00    -0.335 N 
HETATM   25  HN  UNL     1       4.401  12.043  91.945  1.00  0.00     0.164 HD
BRANCH  24  26
HETATM   26  C   UNL     1       2.466  12.812  91.638  1.00  0.00     0.169 C 
BRANCH  26  27
HETATM   27  C   UNL     1       2.343  13.496  93.005  1.00  0.00     0.138 C 
HETATM   28  C   UNL     1       3.462  13.096  93.960  1.00  0.00     0.034 C 
BRANCH  27  29
HETATM   29  O   UNL     1       2.366  14.913  92.833  1.00  0.00    -0.383 OA
HETATM   30  H   UNL     1       3.142  15.265  93.301  1.00  0.00     0.210 HD
ENDBRANCH  27  29
ENDBRANCH  26  27
BRANCH  26  31
HETATM   31  C   UNL     1       2.800  13.818  90.542  1.00  0.00     0.194 C 
HETATM   32  O   UNL     1       1.941  14.447  89.926  1.00  0.00    -0.289 OA
BRANCH  31  33
HETATM   33  C   UNL     1       4.151  13.902  90.308  1.00  0.00     0.053 C 
BRANCH  33  34
HETATM   34  C   UNL     1       4.528  14.095  88.971  1.00  0.00     0.220 C 
BRANCH  34  35
HETATM   35  O   UNL     1       5.606  14.718  88.967  1.00  0.00    -0.371 OA
HETATM   36  H   UNL     1       6.023  14.258  88.254  1.00  0.00     0.211 HD
ENDBRANCH  34  35
BRANCH  34  37
HETATM   37  C   UNL     1       4.598  12.902  88.232  1.00  0.00     0.185 C 
HETATM   38  O   UNL     1       5.854  12.903  88.652  1.00  0.00    -0.647 OA
BRANCH  37  39
HETATM   39  O   UNL     1       3.869  12.261  87.536  1.00  0.00    -0.774 OA
HETATM   40  H   UNL     1       3.480  12.872  86.662  1.00  0.00     0.167 HD
ENDBRANCH  37  39
ENDBRANCH  34  37
ENDBRANCH  33  34
ENDBRANCH  31  33
ENDBRANCH  26  31
ENDBRANCH  24  26
ENDBRANCH  19  22
ENDBRANCH  15  16
ENDBRANCH  11  14
ENDBRANCH   7   8
ENDBRANCH   2   7
TORSDOF 14
ENDMDL
MODEL 3
REMARK VINA RESULT:      -2.8      2.648     13.183
REMARK  14 active torsions:
REMARK  status: ('A' for Active; 'I' for Inactive)
REMARK    1  A    between atoms: O_2  and  C_18 
REMARK    2  A    between atoms: C_5  and  C_8 
REMARK    3  A    between atoms: C_5  and  O_35 
REMARK    4  A    between atoms: C_5  and  C_36 
REMARK    5  A    between atoms: N_6  and  C_11 
REMARK    6  A    between atoms: N_7  and  C_15 
REMARK       I    between atoms: N_7  and  C_24 
REMARK    7  A    between atoms: C_8  and  C_23 
REMARK    8  A    between atoms: C_11  and  C_14 
REMARK    9  A    between atoms: C_15  and  C_18 
REMARK   10  A    between atoms: C_15  and  C_23 
REMARK   11  A    between atoms: C_21  and  C_26 
REMARK   12  A    between atoms: C_24  and  C_25 
REMARK   13  A    between atoms: C_29  and  C_32 
REMARK   14  A    between atoms: C_36  and  O_39 
ROOT
HETATM    1  O   UNL     1       4.611  15.623  91.440  1.00  0.00    -0.350 OA
HETATM    2  N   UNL     1       2.771  13.920  90.093  1.00  0.00     0.147 N 
HETATM    3  C   UNL     1       2.834  13.974  91.560  1.00  0.00     0.283 C 
HETATM    4  C   UNL     1       4.086  14.236  89.520  1.00  0.00     0.283 C 
HETATM    5  C   UNL     1       3.328  15.349  92.005  1.00  0.00     0.178 C 
HETATM    6  C   UNL     1       4.551  15.602  90.013  1.00  0.00     0.178 C 
ENDROOT
BRANCH   2   7
HETATM    7  C   UNL     1       2.310  12.607  89.644  1.00  0.00     0.277 C 
BRANCH   7   8
HETATM    8  C   UNL     1       3.397  11.587  89.661  1.00  0.00     0.011 A 
HETATM    9  C   UNL     1       3.944  11.132  88.461  1.00  0.00    -0.002 A 
HETATM   10  C   UNL     1       4.959  10.176  88.476  1.00  0.00     0.008 A 
HETATM   11  C   UNL     1       5.428   9.677  89.690  1.00  0.00     0.042 A 
HETATM   12  C   UNL     1       4.882  10.131  90.889  1.00  0.00     0.008 A 
HETATM   13  C   UNL     1       3.866  11.086  90.875  1.00  0.00    -0.002 A 
BRANCH  11  14
HETATM   14  C   UNL     1       6.471   8.698  89.706  1.00  0.00    -0.059 C 
HETATM   15  C   UNL     1       7.348   7.875  89.718  1.00  0.00    -0.059 C 
BRANCH  15  16
HETATM   16  C   UNL     1       8.391   6.897  89.733  1.00  0.00     0.042 A 
HETATM   17  C   UNL     1       9.395   6.935  88.765  1.00  0.00     0.008 A 
HETATM   18  C   UNL     1      10.414   5.982  88.781  1.00  0.00     0.005 A 
HETATM   19  C   UNL     1      10.407   5.016  89.765  1.00  0.00     0.056 A 
HETATM   20  C   UNL     1       9.426   4.957  90.732  1.00  0.00     0.005 A 
HETATM   21  C   UNL     1       8.406   5.909  90.717  1.00  0.00     0.008 A 
BRANCH  19  22
HETATM   22  C   UNL     1      11.491   4.000  89.781  1.00  0.00     0.254 C 
HETATM   23  O   UNL     1      11.689   3.318  88.778  1.00  0.00    -0.268 OA
HETATM   24  N   UNL     1      12.230   3.918  90.953  1.00  0.00    -0.335 N 
HETATM   25  HN  UNL     1      12.025   4.532  91.733  1.00  0.00     0.164 HD
BRANCH  24  26
HETATM   26  C   UNL     1      13.329   3.001  91.114  1.00  0.00     0.169 C 
BRANCH  26  27
HETATM   27  C   UNL     1      14.695   3.668  90.907  1.00  0.00     0.138 C 
HETATM   28  C   UNL     1      15.477   3.051  89.752  1.00  0.00     0.034 C 
BRANCH  27  29
HETATM   29  O   UNL     1      14.512   5.060  90.651  1.00  0.00    -0.383 OA
HETATM   30  H   UNL     1      13.981   5.436  91.374  1.00  0.00     0.210 HD
ENDBRANCH  27  29
ENDBRANCH  26  27
BRANCH  26  31
HETATM   31  C   UNL     1      13.220   2.382  92.504  1.00  0.00     0.194 C 
HETATM   32  O   UNL     1      12.599   1.344  92.728  1.00  0.00    -0.289 OA
BRANCH  31  33
HETATM   33  C   UNL     1      13.855   3.137  93.460  1.00  0.00     0.053 C 
BRANCH  33  34
HETATM   34  C   UNL     1      15.036   2.590  93.984  1.00  0.00     0.220 C 
BRANCH  34  35
HETATM   35  O   UNL     1      15.109   1.408  93.601  1.00  0.00    -0.371 OA
HETATM   36  H   UNL     1      14.191   1.266  93.429  1.00  0.00     0.211 HD
ENDBRANCH  34  35
BRANCH  34  37
HETATM   37  C   UNL     1      16.187   3.329  93.660  1.00  0.00     0.185 C 
HETATM   38  O   UNL     1      15.420   4.360  93.978  1.00  0.00    -0.647 OA
BRANCH  37  39
HETATM   39  O   UNL     1      17.286   3.100  93.252  1.00  0.00    -0.774 OA
HETATM   40  H   UNL     1      17.488   3.637  92.273  1.00  0.00     0.167 HD
ENDBRANCH  37  39
ENDBRANCH  34  37
ENDBRANCH  33  34
ENDBRANCH  31  33
ENDBRANCH  26  31
ENDBRANCH  24  26
ENDBRANCH  19  22
ENDBRANCH  15  16
ENDBRANCH  11  14
ENDBRANCH   7   8
ENDBRANCH   2   7
TORSDOF 14
ENDMDL
MODEL 4
REMARK VINA RESULT:      -2.7      2.013     13.011
REMARK  14 active torsions:
REMARK  status: ('A' for Active; 'I' for Inactive)
REMARK    1  A    between atoms: O_2  and  C_18 
REMARK    2  A    between atoms: C_5  and  C_8 
REMARK    3  A    between atoms: C_5  and  O_35 
REMARK    4  A    between atoms: C_5  and  C_36 
REMARK    5  A    between atoms: N_6  and  C_11 
REMARK    6  A    between atoms: N_7  and  C_15 
REMARK       I    between atoms: N_7  and  C_24 
REMARK    7  A    between atoms: C_8  and  C_23 
REMARK    8  A    between atoms: C_11  and  C_14 
REMARK    9  A    between atoms: C_15  and  C_18 
REMARK   10  A    between atoms: C_15  and  C_23 
REMARK   11  A    between atoms: C_21  and  C_26 
REMARK   12  A    between atoms: C_24  and  C_25 
REMARK   13  A    between atoms: C_29  and  C_32 
REMARK   14  A    between atoms: C_36  and  O_39 
ROOT
HETATM    1  O   UNL     1       2.666  14.650  90.197  1.00  0.00    -0.350 OA
HETATM    2  N   UNL     1       2.683  14.059  92.981  1.00  0.00     0.147 N 
HETATM    3  C   UNL     1       3.909  13.991  92.174  1.00  0.00     0.283 C 
HETATM    4  C   UNL     1       1.512  13.772  92.142  1.00  0.00     0.283 C 
HETATM    5  C   UNL     1       3.808  14.959  90.997  1.00  0.00     0.178 C 
HETATM    6  C   UNL     1       1.467  14.743  90.967  1.00  0.00     0.178 C 
ENDROOT
BRANCH   2   7
HETATM    7  C   UNL     1       2.754  13.131  94.109  1.00  0.00     0.277 C 
BRANCH   7   8
HETATM    8  C   UNL     1       3.707  12.011  93.864  1.00  0.00     0.011 A 
HETATM    9  C   UNL     1       5.071  12.194  94.091  1.00  0.00    -0.002 A 
HETATM   10  C   UNL     1       5.963  11.147  93.860  1.00  0.00     0.008 A 
HETATM   11  C   UNL     1       5.490   9.917  93.404  1.00  0.00     0.042 A 
HETATM   12  C   UNL     1       4.128   9.733  93.177  1.00  0.00     0.008 A 
HETATM   13  C   UNL     1       3.235  10.780  93.407  1.00  0.00    -0.002 A 
BRANCH  11  14
HETATM   14  C   UNL     1       6.405   8.843  93.169  1.00  0.00    -0.059 C 
HETATM   15  C   UNL     1       7.175   7.940  92.972  1.00  0.00    -0.059 C 
BRANCH  15  16
HETATM   16  C   UNL     1       8.089   6.866  92.739  1.00  0.00     0.042 A 
HETATM   17  C   UNL     1       8.950   6.911  91.641  1.00  0.00     0.008 A 
HETATM   18  C   UNL     1       9.844   5.864  91.415  1.00  0.00     0.005 A 
HETATM   19  C   UNL     1       9.858   4.798  92.290  1.00  0.00     0.056 A 
HETATM   20  C   UNL     1       9.017   4.731  93.382  1.00  0.00     0.005 A 
HETATM   21  C   UNL     1       8.122   5.777  93.609  1.00  0.00     0.008 A 
BRANCH  19  22
HETATM   22  C   UNL     1      10.809   3.683  92.048  1.00  0.00     0.254 C 
HETATM   23  O   UNL     1      10.374   2.541  91.918  1.00  0.00    -0.268 OA
HETATM   24  N   UNL     1      12.149   4.034  91.960  1.00  0.00    -0.335 N 
HETATM   25  HN  UNL     1      12.432   5.003  92.053  1.00  0.00     0.164 HD
BRANCH  24  26
HETATM   26  C   UNL     1      13.188   3.070  91.704  1.00  0.00     0.169 C 
BRANCH  26  27
HETATM   27  C   UNL     1      14.300   3.621  90.803  1.00  0.00     0.138 C 
HETATM   28  C   UNL     1      14.142   3.190  89.350  1.00  0.00     0.034 C 
BRANCH  27  29
HETATM   29  O   UNL     1      14.302   5.047  90.866  1.00  0.00    -0.383 OA
HETATM   30  H   UNL     1      14.954   5.379  90.226  1.00  0.00     0.210 HD
ENDBRANCH  27  29
ENDBRANCH  26  27
BRANCH  26  31
HETATM   31  C   UNL     1      13.741   2.612  93.050  1.00  0.00     0.194 C 
HETATM   32  O   UNL     1      13.569   1.479  93.494  1.00  0.00    -0.289 OA
BRANCH  31  33
HETATM   33  C   UNL     1      14.407   3.618  93.707  1.00  0.00     0.053 C 
BRANCH  33  34
HETATM   34  C   UNL     1      15.717   3.321  94.110  1.00  0.00     0.220 C 
BRANCH  34  35
HETATM   35  O   UNL     1      16.083   2.304  93.492  1.00  0.00    -0.371 OA
HETATM   36  H   UNL     1      15.377   2.268  92.864  1.00  0.00     0.211 HD
ENDBRANCH  34  35
BRANCH  34  37
HETATM   37  C   UNL     1      16.609   4.394  93.948  1.00  0.00     0.185 C 
HETATM   38  O   UNL     1      17.522   3.438  94.027  1.00  0.00    -0.647 OA
BRANCH  37  39
HETATM   39  O   UNL     1      16.539   5.582  93.845  1.00  0.00    -0.774 OA
HETATM   40  H   UNL     1      16.159   5.891  92.821  1.00  0.00     0.167 HD
ENDBRANCH  37  39
ENDBRANCH  34  37
ENDBRANCH  33  34
ENDBRANCH  31  33
ENDBRANCH  26  31
ENDBRANCH  24  26
ENDBRANCH  19  22
ENDBRANCH  15  16
ENDBRANCH  11  14
ENDBRANCH   7   8
ENDBRANCH   2   7
TORSDOF 14
ENDMDL
MODEL 5
REMARK VINA RESULT:      -2.3      2.376     12.297
REMARK  14 active torsions:
REMARK  status: ('A' for Active; 'I' for Inactive)
REMARK    1  A    between atoms: O_2  and  C_18 
REMARK    2  A    between atoms: C_5  and  C_8 
REMARK    3  A    between atoms: C_5  and  O_35 
REMARK    4  A    between atoms: C_5  and  C_36 
REMARK    5  A    between atoms: N_6  and  C_11 
REMARK    6  A    between atoms: N_7  and  C_15 
REMARK       I    between atoms: N_7  and  C_24 
REMARK    7  A    between atoms: C_8  and  C_23 
REMARK    8  A    between atoms: C_11  and  C_14 
REMARK    9  A    between atoms: C_15  and  C_18 
REMARK   10  A    between atoms: C_15  and  C_23 
REMARK   11  A    between atoms: C_21  and  C_26 
REMARK   12  A    between atoms: C_24  and  C_25 
REMARK   13  A    between atoms: C_29  and  C_32 
REMARK   14  A    between atoms: C_36  and  O_39 
ROOT
HETATM    1  O   UNL     1       2.585  15.209  91.610  1.00  0.00    -0.350 OA
HETATM    2  N   UNL     1       1.220  13.250  93.161  1.00  0.00     0.147 N 
HETATM    3  C   UNL     1       1.779  14.464  93.774  1.00  0.00     0.283 C 
HETATM    4  C   UNL     1       2.002  12.882  91.973  1.00  0.00     0.283 C 
HETATM    5  C   UNL     1       1.812  15.593  92.748  1.00  0.00     0.178 C 
HETATM    6  C   UNL     1       2.031  14.048  90.990  1.00  0.00     0.178 C 
ENDROOT
BRANCH   2   7
HETATM    7  C   UNL     1       1.189  12.151  94.124  1.00  0.00     0.277 C 
BRANCH   7   8
HETATM    8  C   UNL     1       2.381  11.263  94.011  1.00  0.00     0.011 A 
HETATM    9  C   UNL     1       2.212   9.890  93.830  1.00  0.00    -0.002 A 
HETATM   10  C   UNL     1       3.326   9.057  93.727  1.00  0.00     0.008 A 
HETATM   11  C   UNL     1       4.609   9.599  93.802  1.00  0.00     0.042 A 
HETATM   12  C   UNL     1       4.779  10.970  93.982  1.00  0.00     0.008 A 
HETATM   13  C   UNL     1       3.665  11.803  94.086  1.00  0.00    -0.002 A 
BRANCH  11  14
HETATM   14  C   UNL     1       5.752   8.745  93.693  1.00  0.00    -0.059 C 
HETATM   15  C   UNL     1       6.712   8.028  93.601  1.00  0.00    -0.059 C 
BRANCH  15  16
HETATM   16  C   UNL     1       7.855   7.176  93.492  1.00  0.00     0.042 A 
HETATM   17  C   UNL     1       7.709   5.873  93.016  1.00  0.00     0.008 A 
HETATM   18  C   UNL     1       8.825   5.042  92.907  1.00  0.00     0.005 A 
HETATM   19  C   UNL     1      10.060   5.533  93.276  1.00  0.00     0.056 A 
HETATM   20  C   UNL     1      10.230   6.817  93.751  1.00  0.00     0.005 A 
HETATM   21  C   UNL     1       9.115   7.648  93.860  1.00  0.00     0.008 A 
BRANCH  19  22
HETATM   22  C   UNL     1      11.247   4.647  93.162  1.00  0.00     0.254 C 
HETATM   23  O   UNL     1      11.344   3.675  93.908  1.00  0.00    -0.268 OA
HETATM   24  N   UNL     1      12.166   4.985  92.178  1.00  0.00    -0.335 N 
HETATM   25  HN  UNL     1      12.006   5.789  91.583  1.00  0.00     0.164 HD
BRANCH  24  26
HETATM   26  C   UNL     1      13.355   4.211  91.929  1.00  0.00     0.169 C 
BRANCH  26  27
HETATM   27  C   UNL     1      13.624   3.167  93.020  1.00  0.00     0.138 C 
HETATM   28  C   UNL     1      14.336   1.931  92.482  1.00  0.00     0.034 C 
BRANCH  27  29
HETATM   29  O   UNL     1      14.420   3.749  94.051  1.00  0.00    -0.383 OA
HETATM   30  H   UNL     1      14.247   3.268  94.878  1.00  0.00     0.210 HD
ENDBRANCH  27  29
ENDBRANCH  26  27
BRANCH  26  31
HETATM   31  C   UNL     1      13.206   3.557  90.559  1.00  0.00     0.194 C 
HETATM   32  O   UNL     1      14.109   3.535  89.725  1.00  0.00    -0.289 OA
BRANCH  31  33
HETATM   33  C   UNL     1      11.948   3.040  90.365  1.00  0.00     0.053 C 
BRANCH  33  34
HETATM   34  C   UNL     1      11.055   3.856  89.656  1.00  0.00     0.220 C 
BRANCH  34  35
HETATM   35  O   UNL     1      11.656   4.905  89.356  1.00  0.00    -0.371 OA
HETATM   36  H   UNL     1      11.290   5.463  90.026  1.00  0.00     0.211 HD
ENDBRANCH  34  35
BRANCH  34  37
HETATM   37  C   UNL     1      10.489   3.225  88.535  1.00  0.00     0.185 C 
HETATM   38  O   UNL     1       9.368   3.354  89.228  1.00  0.00    -0.647 OA
BRANCH  37  39
HETATM   39  O   UNL     1      10.876   2.767  87.502  1.00  0.00    -0.774 OA
HETATM   40  H   UNL     1      11.921   2.335  87.601  1.00  0.00     0.167 HD
ENDBRANCH  37  39
ENDBRANCH  34  37
ENDBRANCH  33  34
ENDBRANCH  31  33
ENDBRANCH  26  31
ENDBRANCH  24  26
ENDBRANCH  19  22
ENDBRANCH  15  16
ENDBRANCH  11  14
ENDBRANCH   7   8
ENDBRANCH   2   7
TORSDOF 14
ENDMDL
MODEL 6
REMARK VINA RESULT:      -2.3      2.482     12.474
REMARK  14 active torsions:
REMARK  status: ('A' for Active; 'I' for Inactive)
REMARK    1  A    between atoms: O_2  and  C_18 
REMARK    2  A    between atoms: C_5  and  C_8 
REMARK    3  A    between atoms: C_5  and  O_35 
REMARK    4  A    between atoms: C_5  and  C_36 
REMARK    5  A    between atoms: N_6  and  C_11 
REMARK    6  A    between atoms: N_7  and  C_15 
REMARK       I    between atoms: N_7  and  C_24 
REMARK    7  A    between atoms: C_8  and  C_23 
REMARK    8  A    between atoms: C_11  and  C_14 
REMARK    9  A    between atoms: C_15  and  C_18 
REMARK   10  A    between atoms: C_15  and  C_23 
REMARK   11  A    between atoms: C_21  and  C_26 
REMARK   12  A    between atoms: C_24  and  C_25 
REMARK   13  A    between atoms: C_29  and  C_32 
REMARK   14  A    between atoms: C_36  and  O_39 
ROOT
HETATM    1  O   UNL     1       2.480  15.303  94.124  1.00  0.00    -0.350 OA
HETATM    2  N   UNL     1       2.302  14.328  91.455  1.00  0.00     0.147 N 
HETATM    3  C   UNL     1       1.265  14.029  92.453  1.00  0.00     0.283 C 
HETATM    4  C   UNL     1       3.599  14.520  92.119  1.00  0.00     0.283 C 
HETATM    5  C   UNL     1       1.209  15.147  93.491  1.00  0.00     0.178 C 
HETATM    6  C   UNL     1       3.488  15.625  93.164  1.00  0.00     0.178 C 
ENDROOT
BRANCH   2   7
HETATM    7  C   UNL     1       2.381  13.264  90.456  1.00  0.00     0.277 C 
BRANCH   7   8
HETATM    8  C   UNL     1       3.431  12.256  90.782  1.00  0.00     0.011 A 
HETATM    9  C   UNL     1       3.132  11.189  91.630  1.00  0.00    -0.002 A 
HETATM   10  C   UNL     1       4.114  10.247  91.937  1.00  0.00     0.008 A 
HETATM   11  C   UNL     1       5.392  10.372  91.394  1.00  0.00     0.042 A 
HETATM   12  C   UNL     1       5.691  11.437  90.547  1.00  0.00     0.008 A 
HETATM   13  C   UNL     1       4.710  12.379  90.241  1.00  0.00    -0.002 A 
BRANCH  11  14
HETATM   14  C   UNL     1       6.399   9.404  91.708  1.00  0.00    -0.059 C 
HETATM   15  C   UNL     1       7.244   8.590  91.972  1.00  0.00    -0.059 C 
BRANCH  15  16
HETATM   16  C   UNL     1       8.249   7.623  92.284  1.00  0.00     0.042 A 
HETATM   17  C   UNL     1       9.524   8.041  92.666  1.00  0.00     0.008 A 
HETATM   18  C   UNL     1      10.503   7.097  92.974  1.00  0.00     0.005 A 
HETATM   19  C   UNL     1      10.186   5.757  92.894  1.00  0.00     0.056 A 
HETATM   20  C   UNL     1       8.934   5.318  92.519  1.00  0.00     0.005 A 
HETATM   21  C   UNL     1       7.953   6.261  92.211  1.00  0.00     0.008 A 
BRANCH  19  22
HETATM   22  C   UNL     1      11.231   4.752  93.220  1.00  0.00     0.254 C 
HETATM   23  O   UNL     1      11.000   3.904  94.078  1.00  0.00    -0.268 OA
HETATM   24  N   UNL     1      12.408   4.839  92.490  1.00  0.00    -0.335 N 
HETATM   25  HN  UNL     1      12.518   5.552  91.778  1.00  0.00     0.164 HD
BRANCH  24  26
HETATM   26  C   UNL     1      13.504   3.922  92.673  1.00  0.00     0.169 C 
BRANCH  26  27
HETATM   27  C   UNL     1      13.077   2.615  93.352  1.00  0.00     0.138 C 
HETATM   28  C   UNL     1      12.631   1.555  92.350  1.00  0.00     0.034 C 
BRANCH  27  29
HETATM   29  O   UNL     1      14.164   2.098  94.119  1.00  0.00    -0.383 OA
HETATM   30  H   UNL     1      14.429   2.774  94.766  1.00  0.00     0.210 HD
ENDBRANCH  27  29
ENDBRANCH  26  27
BRANCH  26  31
HETATM   31  C   UNL     1      14.125   3.660  91.305  1.00  0.00     0.194 C 
HETATM   32  O   UNL     1      15.320   3.828  91.068  1.00  0.00    -0.289 OA
BRANCH  31  33
HETATM   33  C   UNL     1      13.192   3.257  90.380  1.00  0.00     0.053 C 
BRANCH  33  34
HETATM   34  C   UNL     1      12.229   4.214  90.029  1.00  0.00     0.220 C 
BRANCH  34  35
HETATM   35  O   UNL     1      12.830   5.221  89.608  1.00  0.00    -0.371 OA
HETATM   36  H   UNL     1      13.338   4.800  88.932  1.00  0.00     0.211 HD
ENDBRANCH  34  35
BRANCH  34  37
HETATM   37  C   UNL     1      11.276   3.739  89.111  1.00  0.00     0.185 C 
HETATM   38  O   UNL     1      10.692   3.272  90.204  1.00  0.00    -0.647 OA
BRANCH  37  39
HETATM   39  O   UNL     1      11.129   3.737  87.926  1.00  0.00    -0.774 OA
HETATM   40  H   UNL     1      11.603   4.648  87.444  1.00  0.00     0.167 HD
ENDBRANCH  37  39
ENDBRANCH  34  37
ENDBRANCH  33  34
ENDBRANCH  31  33
ENDBRANCH  26  31
ENDBRANCH  24  26
ENDBRANCH  19  22
ENDBRANCH  15  16
ENDBRANCH  11  14
ENDBRANCH   7   8
ENDBRANCH   2   7
TORSDOF 14
ENDMDL
MODEL 7
REMARK VINA RESULT:      -1.9      2.618     12.802
REMARK  14 active torsions:
REMARK  status: ('A' for Active; 'I' for Inactive)
REMARK    1  A    between atoms: O_2  and  C_18 
REMARK    2  A    between atoms: C_5  and  C_8 
REMARK    3  A    between atoms: C_5  and  O_35 
REMARK    4  A    between atoms: C_5  and  C_36 
REMARK    5  A    between atoms: N_6  and  C_11 
REMARK    6  A    between atoms: N_7  and  C_15 
REMARK       I    between atoms: N_7  and  C_24 
REMARK    7  A    between atoms: C_8  and  C_23 
REMARK    8  A    between atoms: C_11  and  C_14 
REMARK    9  A    between atoms: C_15  and  C_18 
REMARK   10  A    between atoms: C_15  and  C_23 
REMARK   11  A    between atoms: C_21  and  C_26 
REMARK   12  A    between atoms: C_24  and  C_25 
REMARK   13  A    between atoms: C_29  and  C_32 
REMARK   14  A    between atoms: C_36  and  O_39 
ROOT
HETATM    1  O   UNL     1       4.455  15.022  92.058  1.00  0.00    -0.350 OA
HETATM    2  N   UNL     1       3.018  13.182  90.430  1.00  0.00     0.147 N 
HETATM    3  C   UNL     1       2.890  13.175  91.894  1.00  0.00     0.283 C 
HETATM    4  C   UNL     1       4.348  13.675  90.044  1.00  0.00     0.283 C 
HETATM    5  C   UNL     1       3.154  14.575  92.443  1.00  0.00     0.178 C 
HETATM    6  C   UNL     1       4.578  15.062  90.636  1.00  0.00     0.178 C 
ENDROOT
BRANCH   2   7
HETATM    7  C   UNL     1       2.780  11.847  89.884  1.00  0.00     0.277 C 
BRANCH   7   8
HETATM    8  C   UNL     1       3.970  10.960  90.012  1.00  0.00     0.011 A 
HETATM    9  C   UNL     1       4.702  10.607  88.877  1.00  0.00    -0.002 A 
HETATM   10  C   UNL     1       5.815   9.775  88.995  1.00  0.00     0.008 A 
HETATM   11  C   UNL     1       6.197   9.298  90.249  1.00  0.00     0.042 A 
HETATM   12  C   UNL     1       5.467   9.649  91.382  1.00  0.00     0.008 A 
HETATM   13  C   UNL     1       4.354  10.481  91.264  1.00  0.00    -0.002 A 
BRANCH  11  14
HETATM   14  C   UNL     1       7.340   8.446  90.370  1.00  0.00    -0.059 C 
HETATM   15  C   UNL     1       8.300   7.730  90.471  1.00  0.00    -0.059 C 
BRANCH  15  16
HETATM   16  C   UNL     1       9.443   6.879  90.592  1.00  0.00     0.042 A 
HETATM   17  C   UNL     1      10.071   6.390  89.447  1.00  0.00     0.008 A 
HETATM   18  C   UNL     1      11.188   5.562  89.565  1.00  0.00     0.005 A 
HETATM   19  C   UNL     1      11.651   5.243  90.824  1.00  0.00     0.056 A 
HETATM   20  C   UNL     1      11.047   5.713  91.972  1.00  0.00     0.005 A 
HETATM   21  C   UNL     1       9.931   6.541  91.855  1.00  0.00     0.008 A 
BRANCH  19  22
HETATM   22  C   UNL     1      12.839   4.359  90.949  1.00  0.00     0.254 C 
HETATM   23  O   UNL     1      13.180   3.673  89.989  1.00  0.00    -0.268 OA
HETATM   24  N   UNL     1      13.501   4.400  92.169  1.00  0.00    -0.335 N 
HETATM   25  HN  UNL     1      13.176   5.012  92.909  1.00  0.00     0.164 HD
BRANCH  24  26
HETATM   26  C   UNL     1      14.683   3.621  92.436  1.00  0.00     0.169 C 
BRANCH  26  27
HETATM   27  C   UNL     1      15.619   4.289  93.451  1.00  0.00     0.138 C 
HETATM   28  C   UNL     1      16.781   3.389  93.855  1.00  0.00     0.034 C 
BRANCH  27  29
HETATM   29  O   UNL     1      16.139   5.498  92.897  1.00  0.00    -0.383 OA
HETATM   30  H   UNL     1      15.391   6.071  92.660  1.00  0.00     0.210 HD
ENDBRANCH  27  29
ENDBRANCH  26  27
BRANCH  26  31
HETATM   31  C   UNL     1      14.234   2.245  92.918  1.00  0.00     0.194 C 
HETATM   32  O   UNL     1      14.495   1.206  92.314  1.00  0.00    -0.289 OA
BRANCH  31  33
HETATM   33  C   UNL     1      13.485   2.317  94.067  1.00  0.00     0.053 C 
BRANCH  33  34
HETATM   34  C   UNL     1      12.096   2.386  93.887  1.00  0.00     0.220 C 
BRANCH  34  35
HETATM   35  O   UNL     1      11.740   3.555  94.124  1.00  0.00    -0.371 OA
HETATM   36  H   UNL     1      12.249   3.988  93.455  1.00  0.00     0.211 HD
ENDBRANCH  34  35
BRANCH  34  37
HETATM   37  C   UNL     1      11.673   1.945  92.621  1.00  0.00     0.185 C 
HETATM   38  O   UNL     1      10.646   2.744  92.863  1.00  0.00    -0.647 OA
BRANCH  37  39
HETATM   39  O   UNL     1      12.060   1.182  91.787  1.00  0.00    -0.774 OA
HETATM   40  H   UNL     1      11.418   0.247  91.747  1.00  0.00     0.167 HD
ENDBRANCH  37  39
ENDBRANCH  34  37
ENDBRANCH  33  34
ENDBRANCH  31  33
ENDBRANCH  26  31
ENDBRANCH  24  26
ENDBRANCH  19  22
ENDBRANCH  15  16
ENDBRANCH  11  14
ENDBRANCH   7   8
ENDBRANCH   2   7
TORSDOF 14
ENDMDL
MODEL 8
REMARK VINA RESULT:      -1.7      2.332     12.571
REMARK  14 active torsions:
REMARK  status: ('A' for Active; 'I' for Inactive)
REMARK    1  A    between atoms: O_2  and  C_18 
REMARK    2  A    between atoms: C_5  and  C_8 
REMARK    3  A    between atoms: C_5  and  O_35 
REMARK    4  A    between atoms: C_5  and  C_36 
REMARK    5  A    between atoms: N_6  and  C_11 
REMARK    6  A    between atoms: N_7  and  C_15 
REMARK       I    between atoms: N_7  and  C_24 
REMARK    7  A    between atoms: C_8  and  C_23 
REMARK    8  A    between atoms: C_11  and  C_14 
REMARK    9  A    between atoms: C_15  and  C_18 
REMARK   10  A    between atoms: C_15  and  C_23 
REMARK   11  A    between atoms: C_21  and  C_26 
REMARK   12  A    between atoms: C_24  and  C_25 
REMARK   13  A    between atoms: C_29  and  C_32 
REMARK   14  A    between atoms: C_36  and  O_39 
ROOT
HETATM    1  O   UNL     1       4.974  15.596  91.311  1.00  0.00    -0.350 OA
HETATM    2  N   UNL     1       3.381  13.830  89.748  1.00  0.00     0.147 N 
HETATM    3  C   UNL     1       3.308  13.834  91.216  1.00  0.00     0.283 C 
HETATM    4  C   UNL     1       4.718  14.251  89.309  1.00  0.00     0.283 C 
HETATM    5  C   UNL     1       3.667  15.220  91.747  1.00  0.00     0.178 C 
HETATM    6  C   UNL     1       5.044  15.625  89.885  1.00  0.00     0.178 C 
ENDROOT
BRANCH   2   7
HETATM    7  C   UNL     1       3.051  12.509  89.218  1.00  0.00     0.277 C 
BRANCH   7   8
HETATM    8  C   UNL     1       3.999  11.457  89.683  1.00  0.00     0.011 A 
HETATM    9  C   UNL     1       4.393  10.440  88.813  1.00  0.00    -0.002 A 
HETATM   10  C   UNL     1       5.278   9.454  89.248  1.00  0.00     0.008 A 
HETATM   11  C   UNL     1       5.770   9.486  90.553  1.00  0.00     0.042 A 
HETATM   12  C   UNL     1       5.377  10.501  91.423  1.00  0.00     0.008 A 
HETATM   13  C   UNL     1       4.491  11.487  90.988  1.00  0.00    -0.002 A 
BRANCH  11  14
HETATM   14  C   UNL     1       6.680   8.476  90.999  1.00  0.00    -0.059 C 
HETATM   15  C   UNL     1       7.444   7.627  91.373  1.00  0.00    -0.059 C 
BRANCH  15  16
HETATM   16  C   UNL     1       8.354   6.617  91.817  1.00  0.00     0.042 A 
HETATM   17  C   UNL     1       8.590   5.494  91.023  1.00  0.00     0.008 A 
HETATM   18  C   UNL     1       9.480   4.511  91.456  1.00  0.00     0.005 A 
HETATM   19  C   UNL     1      10.113   4.672  92.671  1.00  0.00     0.056 A 
HETATM   20  C   UNL     1       9.896   5.772  93.474  1.00  0.00     0.005 A 
HETATM   21  C   UNL     1       9.006   6.756  93.042  1.00  0.00     0.008 A 
BRANCH  19  22
HETATM   22  C   UNL     1      11.059   3.623  93.132  1.00  0.00     0.254 C 
HETATM   23  O   UNL     1      10.676   2.458  93.199  1.00  0.00    -0.268 OA
HETATM   24  N   UNL     1      12.343   4.054  93.436  1.00  0.00    -0.335 N 
HETATM   25  HN  UNL     1      12.594   5.030  93.333  1.00  0.00     0.164 HD
BRANCH  24  26
HETATM   26  C   UNL     1      13.379   3.153  93.873  1.00  0.00     0.169 C 
BRANCH  26  27
HETATM   27  C   UNL     1      13.198   1.731  93.329  1.00  0.00     0.138 C 
HETATM   28  C   UNL     1      12.555   1.712  91.947  1.00  0.00     0.034 C 
BRANCH  27  29
HETATM   29  O   UNL     1      14.467   1.081  93.259  1.00  0.00    -0.383 OA
HETATM   30  H   UNL     1      14.634   0.646  94.111  1.00  0.00     0.210 HD
ENDBRANCH  27  29
ENDBRANCH  26  27
BRANCH  26  31
HETATM   31  C   UNL     1      14.719   3.744  93.446  1.00  0.00     0.194 C 
HETATM   32  O   UNL     1      15.794   3.371  93.913  1.00  0.00    -0.289 OA
BRANCH  31  33
HETATM   33  C   UNL     1      14.573   4.750  92.523  1.00  0.00     0.053 C 
BRANCH  33  34
HETATM   34  C   UNL     1      14.781   4.386  91.185  1.00  0.00     0.220 C 
BRANCH  34  35
HETATM   35  O   UNL     1      15.302   3.255  91.176  1.00  0.00    -0.371 OA
HETATM   36  H   UNL     1      16.134   3.495  90.797  1.00  0.00     0.211 HD
ENDBRANCH  34  35
BRANCH  34  37
HETATM   37  C   UNL     1      13.616   4.443  90.401  1.00  0.00     0.185 C 
HETATM   38  O   UNL     1      14.152   3.384  89.814  1.00  0.00    -0.647 OA
BRANCH  37  39
HETATM   39  O   UNL     1      12.658   5.150  90.309  1.00  0.00    -0.774 OA
HETATM   40  H   UNL     1      12.640   5.938  91.126  1.00  0.00     0.167 HD
ENDBRANCH  37  39
ENDBRANCH  34  37
ENDBRANCH  33  34
ENDBRANCH  31  33
ENDBRANCH  26  31
ENDBRANCH  24  26
ENDBRANCH  19  22
ENDBRANCH  15  16
ENDBRANCH  11  14
ENDBRANCH   7   8
ENDBRANCH   2   7
TORSDOF 14
ENDMDL
