MODEL 1
REMARK VINA RESULT:      -6.5      0.000      0.000
REMARK  14 active torsions:
REMARK  status: ('A' for Active; 'I' for Inactive)
REMARK    1  A    between atoms: O_2  and  C_18 
REMARK    2  A    between atoms: C_5  and  C_8 
REMARK    3  A    between atoms: C_5  and  O_35 
REMARK    4  A    between atoms: C_5  and  C_36 
REMARK    5  A    between atoms: N_6  and  C_11 
REMARK    6  A    between atoms: N_7  and  C_15 
REMARK       I    between atoms: N_7  and  C_24 
REMARK    7  A    between atoms: C_8  and  C_23 
REMARK    8  A    between atoms: C_11  and  C_14 
REMARK    9  A    between atoms: C_15  and  C_18 
REMARK   10  A    between atoms: C_15  and  C_23 
REMARK   11  A    between atoms: C_21  and  C_26 
REMARK   12  A    between atoms: C_24  and  C_25 
REMARK   13  A    between atoms: C_29  and  C_32 
REMARK   14  A    between atoms: C_36  and  O_39 
ROOT
HETATM    1  O   UNL     1      16.659   3.157  93.929  1.00  0.00    -0.350 OA
HETATM    2  N   UNL     1      14.140   3.066  92.605  1.00  0.00     0.147 N 
HETATM    3  C   UNL     1      14.904   1.843  92.888  1.00  0.00     0.283 C 
HETATM    4  C   UNL     1      15.056   4.204  92.439  1.00  0.00     0.283 C 
HETATM    5  C   UNL     1      15.775   2.051  94.124  1.00  0.00     0.178 C 
HETATM    6  C   UNL     1      15.923   4.356  93.684  1.00  0.00     0.178 C 
ENDROOT
BRANCH   2   7
HETATM    7  C   UNL     1      13.306   2.893  91.417  1.00  0.00     0.277 C 
BRANCH   7   8
HETATM    8  C   UNL     1      12.119   3.794  91.420  1.00  0.00     0.011 A 
HETATM    9  C   UNL     1      11.628   4.304  90.218  1.00  0.00    -0.002 A 
HETATM   10  C   UNL     1      10.518   5.149  90.220  1.00  0.00     0.008 A 
HETATM   11  C   UNL     1       9.899   5.482  91.424  1.00  0.00     0.042 A 
HETATM   12  C   UNL     1      10.388   4.973  92.626  1.00  0.00     0.008 A 
HETATM   13  C   UNL     1      11.498   4.128  92.624  1.00  0.00    -0.002 A 
BRANCH  11  14
HETATM   14  C   UNL     1       8.759   6.347  91.426  1.00  0.00    -0.059 C 
HETATM   15  C   UNL     1       7.801   7.074  91.428  1.00  0.00    -0.059 C 
BRANCH  15  16
HETATM   16  C   UNL     1       6.663   7.938  91.431  1.00  0.00     0.042 A 
HETATM   17  C   UNL     1       6.027   8.256  90.230  1.00  0.00     0.008 A 
HETATM   18  C   UNL     1       4.914   9.097  90.233  1.00  0.00     0.005 A 
HETATM   19  C   UNL     1       4.462   9.600  91.435  1.00  0.00     0.056 A 
HETATM   20  C   UNL     1       5.073   9.301  92.635  1.00  0.00     0.005 A 
HETATM   21  C   UNL     1       6.186   8.460  92.633  1.00  0.00     0.008 A 
BRANCH  19  22
HETATM   22  C   UNL     1       3.278  10.498  91.438  1.00  0.00     0.254 C 
HETATM   23  O   UNL     1       2.167  10.026  91.207  1.00  0.00    -0.268 OA
HETATM   24  N   UNL     1       3.526  11.831  91.734  1.00  0.00    -0.335 N 
HETATM   25  HN  UNL     1       4.468  12.144  91.939  1.00  0.00     0.164 HD
BRANCH  24  26
HETATM   26  C   UNL     1       2.479  12.819  91.799  1.00  0.00     0.169 C 
BRANCH  26  27
HETATM   27  C   UNL     1       2.380  13.489  93.175  1.00  0.00     0.138 C 
HETATM   28  C   UNL     1       3.703  13.464  93.933  1.00  0.00     0.034 C 
BRANCH  27  29
HETATM   29  O   UNL     1       1.962  14.844  93.017  1.00  0.00    -0.383 OA
HETATM   30  H   UNL     1       1.145  14.973  93.528  1.00  0.00     0.210 HD
ENDBRANCH  27  29
ENDBRANCH  26  27
BRANCH  26  31
HETATM   31  C   UNL     1       2.738  13.844  90.700  1.00  0.00     0.194 C 
HETATM   32  O   UNL     1       1.844  14.515  90.186  1.00  0.00    -0.289 OA
BRANCH  31  33
HETATM   33  C   UNL     1       4.062  13.895  90.338  1.00  0.00     0.053 C 
BRANCH  33  34
HETATM   34  C   UNL     1       4.315  14.183  88.989  1.00  0.00     0.220 C 
BRANCH  34  35
HETATM   35  O   UNL     1       5.198  15.060  88.947  1.00  0.00    -0.371 OA
HETATM   36  H   UNL     1       5.315  15.086  88.010  1.00  0.00     0.211 HD
ENDBRANCH  34  35
BRANCH  34  37
HETATM   37  C   UNL     1       4.652  13.050  88.228  1.00  0.00     0.185 C 
HETATM   38  O   UNL     1       5.859  13.274  88.723  1.00  0.00    -0.647 OA
BRANCH  37  39
HETATM   39  O   UNL     1       4.097  12.306  87.476  1.00  0.00    -0.774 OA
HETATM   40  H   UNL     1       3.280  12.835  86.892  1.00  0.00     0.167 HD
ENDBRANCH  37  39
ENDBRANCH  34  37
ENDBRANCH  33  34
ENDBRANCH  31  33
ENDBRANCH  26  31
ENDBRANCH  24  26
ENDBRANCH  19  22
ENDBRANCH  15  16
ENDBRANCH  11  14
ENDBRANCH   7   8
ENDBRANCH   2   7
TORSDOF 14
ENDMDL
