MODEL 1
REMARK VINA RESULT:      -7.5      0.000      0.000
REMARK  9 active torsions:
REMARK  status: ('A' for Active; 'I' for Inactive)
REMARK    1  A    between atoms: N_3  and  C_6 
REMARK    2  A    between atoms: C_6  and  C_9 
REMARK    3  A    between atoms: C_14  and  C_17 
REMARK       I    between atoms: N_26  and  C_15 
REMARK    4  A    between atoms: C_15  and  C_16 
REMARK    5  A    between atoms: C_20  and  C_23 
REMARK    6  A    between atoms: OG1_24  and  CB_28 
REMARK    7  A    between atoms: N_26  and  CA_27 
REMARK    8  A    between atoms: CA_27  and  CB_28 
REMARK    9  A    between atoms: CA_27  and  C_30 
ROOT
HETATM    1  O   UNK A   0       1.947   8.026  87.810  1.00  0.00    -0.388 OA
HETATM    2  N   UNK A   0       4.750   7.553  87.680  1.00  0.00     0.096 N 
HETATM    3  C   UNK A   0       4.204   8.915  87.763  1.00  0.00     0.299 C 
HETATM    4  C   UNK A   0       3.789   6.665  87.012  1.00  0.00     0.299 C 
HETATM    5  C   UNK A   0       2.861   8.890  88.488  1.00  0.00     0.198 C 
HETATM    6  C   UNK A   0       2.456   6.693  87.752  1.00  0.00     0.198 C 
ENDROOT
BRANCH   2   7
HETATM    7  C   UNK A   0       6.034   7.551  86.980  1.00  0.00     0.311 C 
BRANCH   7   8
HETATM    8  C   UNK A   0       7.125   6.947  87.796  1.00  0.00    -0.030 A 
HETATM    9  C   UNK A   0       6.967   6.804  89.175  1.00  0.00     0.010 A 
HETATM   10  C   UNK A   0       7.988   6.240  89.939  1.00  0.00     0.021 A 
HETATM   11  C   UNK A   0       9.166   5.818  89.324  1.00  0.00     0.018 A 
HETATM   12  C   UNK A   0       9.325   5.959  87.947  1.00  0.00     0.021 A 
HETATM   13  C   UNK A   0       8.304   6.524  87.183  1.00  0.00     0.010 A 
BRANCH  11  14
HETATM   14  C   UNK A   0      10.213   5.238  90.108  1.00  0.00    -0.061 C 
HETATM   15  C   UNK A   0      11.092   4.750  90.768  1.00  0.00    -0.061 C 
BRANCH  15  16
HETATM   16  C   UNK A   0      12.137   4.169  91.551  1.00  0.00     0.018 A 
HETATM   17  C   UNK A   0      13.378   3.905  90.970  1.00  0.00     0.022 A 
HETATM   18  C   UNK A   0      14.399   3.341  91.735  1.00  0.00     0.018 A 
HETATM   19  C   UNK A   0      14.157   3.055  93.062  1.00  0.00     0.032 A 
HETATM   20  C   UNK A   0      12.940   3.306  93.660  1.00  0.00     0.018 A 
HETATM   21  C   UNK A   0      11.918   3.870  92.896  1.00  0.00     0.022 A 
BRANCH  19  22
HETATM   22  C   UNK A   0      15.245   2.452  93.876  1.00  0.00     0.252 C 
HETATM   23  O   UNK A   0      16.370   2.943  93.832  1.00  0.00    -0.268 OA
ENDBRANCH  19  22
ENDBRANCH  15  16
ENDBRANCH  11  14
ENDBRANCH   7   8
ENDBRANCH   2   7
TORSDOF 9
ENDMDL
