MODEL 1
REMARK VINA RESULT:      -6.4      0.000      0.000
REMARK  14 active torsions:
REMARK  status: ('A' for Active; 'I' for Inactive)
REMARK    1  A    between atoms: O_2  and  C_18 
REMARK    2  A    between atoms: C_5  and  C_8 
REMARK    3  A    between atoms: C_5  and  O_35 
REMARK    4  A    between atoms: C_5  and  C_36 
REMARK    5  A    between atoms: N_6  and  C_11 
REMARK    6  A    between atoms: N_7  and  C_15 
REMARK       I    between atoms: N_7  and  C_24 
REMARK    7  A    between atoms: C_8  and  C_23 
REMARK    8  A    between atoms: C_11  and  C_14 
REMARK    9  A    between atoms: C_15  and  C_18 
REMARK   10  A    between atoms: C_15  and  C_23 
REMARK   11  A    between atoms: C_21  and  C_26 
REMARK   12  A    between atoms: C_24  and  C_25 
REMARK   13  A    between atoms: C_29  and  C_32 
REMARK   14  A    between atoms: C_36  and  O_39 
ROOT
HETATM    1  O   UNL     1      16.493   3.054  93.491  1.00  0.00    -0.350 OA
HETATM    2  N   UNL     1      13.772   2.720  92.723  1.00  0.00     0.147 N 
HETATM    3  C   UNL     1      14.590   1.583  93.166  1.00  0.00     0.283 C 
HETATM    4  C   UNL     1      14.626   3.743  92.104  1.00  0.00     0.283 C 
HETATM    5  C   UNL     1      15.675   2.068  94.124  1.00  0.00     0.178 C 
HETATM    6  C   UNL     1      15.709   4.177  93.085  1.00  0.00     0.178 C 
ENDROOT
BRANCH   2   7
HETATM    7  C   UNL     1      12.732   2.280  91.796  1.00  0.00     0.277 C 
BRANCH   7   8
HETATM    8  C   UNL     1      11.598   3.244  91.714  1.00  0.00     0.011 A 
HETATM    9  C   UNL     1      10.899   3.398  90.516  1.00  0.00    -0.002 A 
HETATM   10  C   UNL     1       9.840   4.302  90.437  1.00  0.00     0.008 A 
HETATM   11  C   UNL     1       9.479   5.050  91.557  1.00  0.00     0.042 A 
HETATM   12  C   UNL     1      10.176   4.897  92.754  1.00  0.00     0.008 A 
HETATM   13  C   UNL     1      11.236   3.994  92.833  1.00  0.00    -0.002 A 
BRANCH  11  14
HETATM   14  C   UNL     1       8.391   5.975  91.477  1.00  0.00    -0.059 C 
HETATM   15  C   UNL     1       7.476   6.753  91.410  1.00  0.00    -0.059 C 
BRANCH  15  16
HETATM   16  C   UNL     1       6.389   7.678  91.331  1.00  0.00     0.042 A 
HETATM   17  C   UNL     1       6.448   8.884  92.030  1.00  0.00     0.008 A 
HETATM   18  C   UNL     1       5.389   9.788  91.951  1.00  0.00     0.005 A 
HETATM   19  C   UNL     1       4.296   9.467  91.174  1.00  0.00     0.056 A 
HETATM   20  C   UNL     1       4.213   8.281  90.473  1.00  0.00     0.005 A 
HETATM   21  C   UNL     1       5.272   7.377  90.552  1.00  0.00     0.008 A 
BRANCH  19  22
HETATM   22  C   UNL     1       3.166  10.429  91.091  1.00  0.00     0.254 C 
HETATM   23  O   UNL     1       2.064  10.030  90.724  1.00  0.00    -0.268 OA
HETATM   24  N   UNL     1       3.451  11.734  91.468  1.00  0.00    -0.335 N 
HETATM   25  HN  UNL     1       4.380  11.985  91.785  1.00  0.00     0.164 HD
BRANCH  24  26
HETATM   26  C   UNL     1       2.456  12.776  91.465  1.00  0.00     0.169 C 
BRANCH  26  27
HETATM   27  C   UNL     1       2.288  13.441  92.838  1.00  0.00     0.138 C 
HETATM   28  C   UNL     1       3.589  13.473  93.633  1.00  0.00     0.034 C 
BRANCH  27  29
HETATM   29  O   UNL     1       1.816  14.776  92.667  1.00  0.00    -0.383 OA
HETATM   30  H   UNL     1       1.887  15.236  93.521  1.00  0.00     0.210 HD
ENDBRANCH  27  29
ENDBRANCH  26  27
BRANCH  26  31
HETATM   31  C   UNL     1       2.851  13.795  90.401  1.00  0.00     0.194 C 
HETATM   32  O   UNL     1       2.031  14.471  89.784  1.00  0.00    -0.289 OA
BRANCH  31  33
HETATM   33  C   UNL     1       4.209  13.831  90.196  1.00  0.00     0.053 C 
BRANCH  33  34
HETATM   34  C   UNL     1       4.622  13.944  88.861  1.00  0.00     0.220 C 
BRANCH  34  35
HETATM   35  O   UNL     1       5.691  14.583  88.847  1.00  0.00    -0.371 OA
HETATM   36  H   UNL     1       6.204  13.996  89.382  1.00  0.00     0.211 HD
ENDBRANCH  34  35
BRANCH  34  37
HETATM   37  C   UNL     1       4.731  12.707  88.202  1.00  0.00     0.185 C 
HETATM   38  O   UNL     1       6.029  12.945  88.309  1.00  0.00    -0.647 OA
BRANCH  37  39
HETATM   39  O   UNL     1       3.987  11.893  87.743  1.00  0.00    -0.774 OA
HETATM   40  H   UNL     1       3.593  12.212  86.728  1.00  0.00     0.167 HD
ENDBRANCH  37  39
ENDBRANCH  34  37
ENDBRANCH  33  34
ENDBRANCH  31  33
ENDBRANCH  26  31
ENDBRANCH  24  26
ENDBRANCH  19  22
ENDBRANCH  15  16
ENDBRANCH  11  14
ENDBRANCH   7   8
ENDBRANCH   2   7
TORSDOF 14
ENDMDL
