MODEL 1
REMARK VINA RESULT:      -7.5      0.000      0.000
REMARK  9 active torsions:
REMARK  status: ('A' for Active; 'I' for Inactive)
REMARK    1  A    between atoms: N_3  and  C_6 
REMARK    2  A    between atoms: C_6  and  C_9 
REMARK    3  A    between atoms: C_14  and  C_17 
REMARK       I    between atoms: N_26  and  C_15 
REMARK    4  A    between atoms: C_15  and  C_16 
REMARK    5  A    between atoms: C_20  and  C_23 
REMARK    6  A    between atoms: OG1_24  and  CB_28 
REMARK    7  A    between atoms: N_26  and  CA_27 
REMARK    8  A    between atoms: CA_27  and  CB_28 
REMARK    9  A    between atoms: CA_27  and  C_30 
ROOT
HETATM    1  O   UNK A   0       1.928   8.099  87.865  1.00  0.00    -0.388 OA
HETATM    2  N   UNK A   0       4.715   7.542  87.707  1.00  0.00     0.096 N 
HETATM    3  C   UNK A   0       4.211   8.920  87.782  1.00  0.00     0.299 C 
HETATM    4  C   UNK A   0       3.720   6.676  87.059  1.00  0.00     0.299 C 
HETATM    5  C   UNK A   0       2.876   8.942  88.523  1.00  0.00     0.198 C 
HETATM    6  C   UNK A   0       2.398   6.751  87.816  1.00  0.00     0.198 C 
ENDROOT
BRANCH   2   7
HETATM    7  C   UNK A   0       5.989   7.495  86.992  1.00  0.00     0.311 C 
BRANCH   7   8
HETATM    8  C   UNK A   0       7.082   6.903  87.815  1.00  0.00    -0.030 A 
HETATM    9  C   UNK A   0       6.865   6.629  89.166  1.00  0.00     0.010 A 
HETATM   10  C   UNK A   0       7.888   6.077  89.938  1.00  0.00     0.021 A 
HETATM   11  C   UNK A   0       9.124   5.797  89.358  1.00  0.00     0.018 A 
HETATM   12  C   UNK A   0       9.341   6.070  88.009  1.00  0.00     0.021 A 
HETATM   13  C   UNK A   0       8.320   6.623  87.237  1.00  0.00     0.010 A 
BRANCH  11  14
HETATM   14  C   UNK A   0      10.172   5.229  90.149  1.00  0.00    -0.061 C 
HETATM   15  C   UNK A   0      11.053   4.752  90.814  1.00  0.00    -0.061 C 
BRANCH  15  16
HETATM   16  C   UNK A   0      12.100   4.185  91.606  1.00  0.00     0.018 A 
HETATM   17  C   UNK A   0      13.369   4.004  91.056  1.00  0.00     0.022 A 
HETATM   18  C   UNK A   0      14.391   3.453  91.829  1.00  0.00     0.018 A 
HETATM   19  C   UNK A   0      14.121   3.096  93.134  1.00  0.00     0.032 A 
HETATM   20  C   UNK A   0      12.875   3.264  93.700  1.00  0.00     0.018 A 
HETATM   21  C   UNK A   0      11.852   3.815  92.928  1.00  0.00     0.022 A 
BRANCH  19  22
HETATM   22  C   UNK A   0      15.209   2.507  93.957  1.00  0.00     0.252 C 
HETATM   23  O   UNK A   0      16.378   2.746  93.664  1.00  0.00    -0.268 OA
ENDBRANCH  19  22
ENDBRANCH  15  16
ENDBRANCH  11  14
ENDBRANCH   7   8
ENDBRANCH   2   7
TORSDOF 9
ENDMDL
MODEL 2
REMARK VINA RESULT:      -7.5      0.148      1.432
REMARK  9 active torsions:
REMARK  status: ('A' for Active; 'I' for Inactive)
REMARK    1  A    between atoms: N_3  and  C_6 
REMARK    2  A    between atoms: C_6  and  C_9 
REMARK    3  A    between atoms: C_14  and  C_17 
REMARK       I    between atoms: N_26  and  C_15 
REMARK    4  A    between atoms: C_15  and  C_16 
REMARK    5  A    between atoms: C_20  and  C_23 
REMARK    6  A    between atoms: OG1_24  and  CB_28 
REMARK    7  A    between atoms: N_26  and  CA_27 
REMARK    8  A    between atoms: CA_27  and  CB_28 
REMARK    9  A    between atoms: CA_27  and  C_30 
ROOT
HETATM    1  O   UNK A   0       1.790   8.018  87.844  1.00  0.00    -0.388 OA
HETATM    2  N   UNK A   0       4.594   7.553  87.690  1.00  0.00     0.096 N 
HETATM    3  C   UNK A   0       4.045   8.912  87.797  1.00  0.00     0.299 C 
HETATM    4  C   UNK A   0       3.630   6.673  87.014  1.00  0.00     0.299 C 
HETATM    5  C   UNK A   0       2.706   8.873  88.529  1.00  0.00     0.198 C 
HETATM    6  C   UNK A   0       2.302   6.687  87.763  1.00  0.00     0.198 C 
ENDROOT
BRANCH   2   7
HETATM    7  C   UNK A   0       5.873   7.565  86.982  1.00  0.00     0.311 C 
BRANCH   7   8
HETATM    8  C   UNK A   0       6.974   6.964  87.788  1.00  0.00    -0.030 A 
HETATM    9  C   UNK A   0       8.220   6.737  87.204  1.00  0.00     0.010 A 
HETATM   10  C   UNK A   0       9.250   6.173  87.956  1.00  0.00     0.021 A 
HETATM   11  C   UNK A   0       9.034   5.838  89.292  1.00  0.00     0.018 A 
HETATM   12  C   UNK A   0       7.790   6.065  89.877  1.00  0.00     0.021 A 
HETATM   13  C   UNK A   0       6.759   6.629  89.125  1.00  0.00     0.010 A 
BRANCH  11  14
HETATM   14  C   UNK A   0      10.091   5.262  90.064  1.00  0.00    -0.061 C 
HETATM   15  C   UNK A   0      10.980   4.777  90.714  1.00  0.00    -0.061 C 
BRANCH  15  16
HETATM   16  C   UNK A   0      12.036   4.200  91.486  1.00  0.00     0.018 A 
HETATM   17  C   UNK A   0      11.811   3.840  92.815  1.00  0.00     0.022 A 
HETATM   18  C   UNK A   0      12.840   3.275  93.567  1.00  0.00     0.018 A 
HETATM   19  C   UNK A   0      14.071   3.081  92.973  1.00  0.00     0.032 A 
HETATM   20  C   UNK A   0      14.318   3.429  91.662  1.00  0.00     0.018 A 
HETATM   21  C   UNK A   0      13.289   3.995  90.909  1.00  0.00     0.022 A 
BRANCH  19  22
HETATM   22  C   UNK A   0      15.168   2.481  93.776  1.00  0.00     0.252 C 
HETATM   23  O   UNK A   0      16.304   2.937  93.673  1.00  0.00    -0.268 OA
ENDBRANCH  19  22
ENDBRANCH  15  16
ENDBRANCH  11  14
ENDBRANCH   7   8
ENDBRANCH   2   7
TORSDOF 9
ENDMDL
MODEL 3
REMARK VINA RESULT:      -6.9      1.091      1.549
REMARK  9 active torsions:
REMARK  status: ('A' for Active; 'I' for Inactive)
REMARK    1  A    between atoms: N_3  and  C_6 
REMARK    2  A    between atoms: C_6  and  C_9 
REMARK    3  A    between atoms: C_14  and  C_17 
REMARK       I    between atoms: N_26  and  C_15 
REMARK    4  A    between atoms: C_15  and  C_16 
REMARK    5  A    between atoms: C_20  and  C_23 
REMARK    6  A    between atoms: OG1_24  and  CB_28 
REMARK    7  A    between atoms: N_26  and  CA_27 
REMARK    8  A    between atoms: CA_27  and  CB_28 
REMARK    9  A    between atoms: CA_27  and  C_30 
ROOT
HETATM    1  O   UNK A   0       1.662   7.071  87.271  1.00  0.00    -0.388 OA
HETATM    2  N   UNK A   0       4.115   7.756  88.543  1.00  0.00     0.096 N 
HETATM    3  C   UNK A   0       2.884   8.521  88.786  1.00  0.00     0.299 C 
HETATM    4  C   UNK A   0       4.085   7.169  87.196  1.00  0.00     0.299 C 
HETATM    5  C   UNK A   0       1.668   7.619  88.591  1.00  0.00     0.198 C 
HETATM    6  C   UNK A   0       2.841   6.300  87.038  1.00  0.00     0.198 C 
ENDROOT
BRANCH   2   7
HETATM    7  C   UNK A   0       5.294   8.603  88.714  1.00  0.00     0.311 C 
BRANCH   7   8
HETATM    8  C   UNK A   0       6.452   7.857  89.285  1.00  0.00    -0.030 A 
HETATM    9  C   UNK A   0       7.717   7.991  88.712  1.00  0.00     0.010 A 
HETATM   10  C   UNK A   0       8.801   7.292  89.244  1.00  0.00     0.021 A 
HETATM   11  C   UNK A   0       8.618   6.461  90.348  1.00  0.00     0.018 A 
HETATM   12  C   UNK A   0       7.355   6.326  90.921  1.00  0.00     0.021 A 
HETATM   13  C   UNK A   0       6.271   7.024  90.389  1.00  0.00     0.010 A 
BRANCH  11  14
HETATM   14  C   UNK A   0       9.730   5.745  90.895  1.00  0.00    -0.061 C 
HETATM   15  C   UNK A   0      10.665   5.145  91.355  1.00  0.00    -0.061 C 
BRANCH  15  16
HETATM   16  C   UNK A   0      11.776   4.430  91.901  1.00  0.00     0.018 A 
HETATM   17  C   UNK A   0      12.899   4.178  91.112  1.00  0.00     0.022 A 
HETATM   18  C   UNK A   0      13.984   3.483  91.647  1.00  0.00     0.018 A 
HETATM   19  C   UNK A   0      13.922   3.057  92.957  1.00  0.00     0.032 A 
HETATM   20  C   UNK A   0      12.824   3.293  93.757  1.00  0.00     0.018 A 
HETATM   21  C   UNK A   0      11.738   3.988  93.224  1.00  0.00     0.022 A 
BRANCH  19  22
HETATM   22  C   UNK A   0      15.077   2.315  93.526  1.00  0.00     0.252 C 
HETATM   23  O   UNK A   0      16.212   2.759  93.367  1.00  0.00    -0.268 OA
ENDBRANCH  19  22
ENDBRANCH  15  16
ENDBRANCH  11  14
ENDBRANCH   7   8
ENDBRANCH   2   7
TORSDOF 9
ENDMDL
MODEL 4
REMARK VINA RESULT:      -6.9      1.522      2.315
REMARK  9 active torsions:
REMARK  status: ('A' for Active; 'I' for Inactive)
REMARK    1  A    between atoms: N_3  and  C_6 
REMARK    2  A    between atoms: C_6  and  C_9 
REMARK    3  A    between atoms: C_14  and  C_17 
REMARK       I    between atoms: N_26  and  C_15 
REMARK    4  A    between atoms: C_15  and  C_16 
REMARK    5  A    between atoms: C_20  and  C_23 
REMARK    6  A    between atoms: OG1_24  and  CB_28 
REMARK    7  A    between atoms: N_26  and  CA_27 
REMARK    8  A    between atoms: CA_27  and  CB_28 
REMARK    9  A    between atoms: CA_27  and  C_30 
ROOT
HETATM    1  O   UNK A   0       2.809  11.274  89.714  1.00  0.00    -0.388 OA
HETATM    2  N   UNK A   0       4.591   9.253  88.796  1.00  0.00     0.096 N 
HETATM    3  C   UNK A   0       3.820  10.081  87.858  1.00  0.00     0.299 C 
HETATM    4  C   UNK A   0       3.861   9.116  90.064  1.00  0.00     0.299 C 
HETATM    5  C   UNK A   0       3.526  11.440  88.489  1.00  0.00     0.198 C 
HETATM    6  C   UNK A   0       3.566  10.496  90.643  1.00  0.00     0.198 C 
ENDROOT
BRANCH   2   7
HETATM    7  C   UNK A   0       4.875   7.942  88.216  1.00  0.00     0.311 C 
BRANCH   7   8
HETATM    8  C   UNK A   0       6.098   7.317  88.796  1.00  0.00    -0.030 A 
HETATM    9  C   UNK A   0       7.347   7.901  88.582  1.00  0.00     0.010 A 
HETATM   10  C   UNK A   0       8.492   7.316  89.122  1.00  0.00     0.021 A 
HETATM   11  C   UNK A   0       8.387   6.149  89.878  1.00  0.00     0.018 A 
HETATM   12  C   UNK A   0       7.140   5.565  90.093  1.00  0.00     0.021 A 
HETATM   13  C   UNK A   0       5.995   6.149  89.552  1.00  0.00     0.010 A 
BRANCH  11  14
HETATM   14  C   UNK A   0       9.562   5.550  90.434  1.00  0.00    -0.061 C 
HETATM   15  C   UNK A   0      10.549   5.047  90.901  1.00  0.00    -0.061 C 
BRANCH  15  16
HETATM   16  C   UNK A   0      11.723   4.448  91.456  1.00  0.00     0.018 A 
HETATM   17  C   UNK A   0      11.737   4.054  92.794  1.00  0.00     0.022 A 
HETATM   18  C   UNK A   0      12.882   3.468  93.334  1.00  0.00     0.018 A 
HETATM   19  C   UNK A   0      13.985   3.289  92.526  1.00  0.00     0.032 A 
HETATM   20  C   UNK A   0      13.996   3.671  91.201  1.00  0.00     0.018 A 
HETATM   21  C   UNK A   0      12.852   4.258  90.659  1.00  0.00     0.022 A 
BRANCH  19  22
HETATM   22  C   UNK A   0      15.205   2.667  93.103  1.00  0.00     0.252 C 
HETATM   23  O   UNK A   0      15.952   3.348  93.801  1.00  0.00    -0.268 OA
ENDBRANCH  19  22
ENDBRANCH  15  16
ENDBRANCH  11  14
ENDBRANCH   7   8
ENDBRANCH   2   7
TORSDOF 9
ENDMDL
MODEL 5
REMARK VINA RESULT:      -6.6      3.592     10.379
REMARK  9 active torsions:
REMARK  status: ('A' for Active; 'I' for Inactive)
REMARK    1  A    between atoms: N_3  and  C_6 
REMARK    2  A    between atoms: C_6  and  C_9 
REMARK    3  A    between atoms: C_14  and  C_17 
REMARK       I    between atoms: N_26  and  C_15 
REMARK    4  A    between atoms: C_15  and  C_16 
REMARK    5  A    between atoms: C_20  and  C_23 
REMARK    6  A    between atoms: OG1_24  and  CB_28 
REMARK    7  A    between atoms: N_26  and  CA_27 
REMARK    8  A    between atoms: CA_27  and  CB_28 
REMARK    9  A    between atoms: CA_27  and  C_30 
ROOT
HETATM    1  O   UNK A   0      16.212   3.084  93.627  1.00  0.00    -0.388 OA
HETATM    2  N   UNK A   0      13.489   2.845  92.834  1.00  0.00     0.096 N 
HETATM    3  C   UNK A   0      14.313   1.662  93.114  1.00  0.00     0.299 C 
HETATM    4  C   UNK A   0      14.335   3.947  92.355  1.00  0.00     0.299 C 
HETATM    5  C   UNK A   0      15.402   2.017  94.124  1.00  0.00     0.198 C 
HETATM    6  C   UNK A   0      15.422   4.248  93.381  1.00  0.00     0.198 C 
ENDROOT
BRANCH   2   7
HETATM    7  C   UNK A   0      12.445   2.530  91.860  1.00  0.00     0.311 C 
BRANCH   7   8
HETATM    8  C   UNK A   0      11.593   3.711  91.539  1.00  0.00    -0.030 A 
HETATM    9  C   UNK A   0      11.425   4.108  90.212  1.00  0.00     0.010 A 
HETATM   10  C   UNK A   0      10.630   5.214  89.910  1.00  0.00     0.021 A 
HETATM   11  C   UNK A   0      10.002   5.920  90.935  1.00  0.00     0.018 A 
HETATM   12  C   UNK A   0      10.168   5.524  92.261  1.00  0.00     0.021 A 
HETATM   13  C   UNK A   0      10.964   4.419  92.563  1.00  0.00     0.010 A 
BRANCH  11  14
HETATM   14  C   UNK A   0       9.185   7.053  90.625  1.00  0.00    -0.061 C 
HETATM   15  C   UNK A   0       8.498   8.004  90.364  1.00  0.00    -0.061 C 
BRANCH  15  16
HETATM   16  C   UNK A   0       7.681   9.136  90.054  1.00  0.00     0.018 A 
HETATM   17  C   UNK A   0       6.327   9.131  90.393  1.00  0.00     0.022 A 
HETATM   18  C   UNK A   0       5.531  10.236  90.093  1.00  0.00     0.018 A 
HETATM   19  C   UNK A   0       6.105  11.320  89.462  1.00  0.00     0.032 A 
HETATM   20  C   UNK A   0       7.439  11.349  89.116  1.00  0.00     0.018 A 
HETATM   21  C   UNK A   0       8.237  10.244  89.416  1.00  0.00     0.022 A 
BRANCH  19  22
HETATM   22  C   UNK A   0       5.255  12.496  89.141  1.00  0.00     0.252 C 
HETATM   23  O   UNK A   0       5.255  12.941  87.996  1.00  0.00    -0.268 OA
ENDBRANCH  19  22
ENDBRANCH  15  16
ENDBRANCH  11  14
ENDBRANCH   7   8
ENDBRANCH   2   7
TORSDOF 9
ENDMDL
MODEL 6
REMARK VINA RESULT:      -6.6      3.921     10.389
REMARK  9 active torsions:
REMARK  status: ('A' for Active; 'I' for Inactive)
REMARK    1  A    between atoms: N_3  and  C_6 
REMARK    2  A    between atoms: C_6  and  C_9 
REMARK    3  A    between atoms: C_14  and  C_17 
REMARK       I    between atoms: N_26  and  C_15 
REMARK    4  A    between atoms: C_15  and  C_16 
REMARK    5  A    between atoms: C_20  and  C_23 
REMARK    6  A    between atoms: OG1_24  and  CB_28 
REMARK    7  A    between atoms: N_26  and  CA_27 
REMARK    8  A    between atoms: CA_27  and  CB_28 
REMARK    9  A    between atoms: CA_27  and  C_30 
ROOT
HETATM    1  O   UNK A   0      14.577   3.259  92.149  1.00  0.00    -0.388 OA
HETATM    2  N   UNK A   0      11.863   4.108  92.281  1.00  0.00     0.096 N 
HETATM    3  C   UNK A   0      12.458   3.272  93.333  1.00  0.00     0.299 C 
HETATM    4  C   UNK A   0      12.525   3.846  90.996  1.00  0.00     0.299 C 
HETATM    5  C   UNK A   0      13.961   3.530  93.409  1.00  0.00     0.198 C 
HETATM    6  C   UNK A   0      14.025   4.089  91.126  1.00  0.00     0.198 C 
ENDROOT
BRANCH   2   7
HETATM    7  C   UNK A   0      10.424   3.869  92.183  1.00  0.00     0.311 C 
BRANCH   7   8
HETATM    8  C   UNK A   0       9.659   5.117  91.900  1.00  0.00    -0.030 A 
HETATM    9  C   UNK A   0       9.975   6.296  92.576  1.00  0.00     0.010 A 
HETATM   10  C   UNK A   0       9.259   7.464  92.314  1.00  0.00     0.021 A 
HETATM   11  C   UNK A   0       8.229   7.452  91.374  1.00  0.00     0.018 A 
HETATM   12  C   UNK A   0       7.912   6.276  90.698  1.00  0.00     0.021 A 
HETATM   13  C   UNK A   0       8.628   5.107  90.961  1.00  0.00     0.010 A 
BRANCH  11  14
HETATM   14  C   UNK A   0       7.495   8.651  91.103  1.00  0.00    -0.061 C 
HETATM   15  C   UNK A   0       6.880   9.658  90.875  1.00  0.00    -0.061 C 
BRANCH  15  16
HETATM   16  C   UNK A   0       6.147  10.855  90.604  1.00  0.00     0.018 A 
HETATM   17  C   UNK A   0       6.279  11.488  89.367  1.00  0.00     0.022 A 
HETATM   18  C   UNK A   0       5.562  12.654  89.102  1.00  0.00     0.018 A 
HETATM   19  C   UNK A   0       4.729  13.161  90.077  1.00  0.00     0.032 A 
HETATM   20  C   UNK A   0       4.581  12.554  91.307  1.00  0.00     0.018 A 
HETATM   21  C   UNK A   0       5.298  11.388  91.574  1.00  0.00     0.022 A 
BRANCH  19  22
HETATM   22  C   UNK A   0       3.966  14.405  89.795  1.00  0.00     0.252 C 
HETATM   23  O   UNK A   0       4.534  15.490  89.888  1.00  0.00    -0.268 OA
ENDBRANCH  19  22
ENDBRANCH  15  16
ENDBRANCH  11  14
ENDBRANCH   7   8
ENDBRANCH   2   7
TORSDOF 9
ENDMDL
MODEL 7
REMARK VINA RESULT:      -6.6      3.927     10.472
REMARK  9 active torsions:
REMARK  status: ('A' for Active; 'I' for Inactive)
REMARK    1  A    between atoms: N_3  and  C_6 
REMARK    2  A    between atoms: C_6  and  C_9 
REMARK    3  A    between atoms: C_14  and  C_17 
REMARK       I    between atoms: N_26  and  C_15 
REMARK    4  A    between atoms: C_15  and  C_16 
REMARK    5  A    between atoms: C_20  and  C_23 
REMARK    6  A    between atoms: OG1_24  and  CB_28 
REMARK    7  A    between atoms: N_26  and  CA_27 
REMARK    8  A    between atoms: CA_27  and  CB_28 
REMARK    9  A    between atoms: CA_27  and  C_30 
ROOT
HETATM    1  O   UNK A   0      14.636   3.378  92.101  1.00  0.00    -0.388 OA
HETATM    2  N   UNK A   0      11.917   4.196  92.306  1.00  0.00     0.096 N 
HETATM    3  C   UNK A   0      12.538   3.333  93.320  1.00  0.00     0.299 C 
HETATM    4  C   UNK A   0      12.559   3.982  91.002  1.00  0.00     0.299 C 
HETATM    5  C   UNK A   0      14.040   3.603  93.380  1.00  0.00     0.198 C 
HETATM    6  C   UNK A   0      14.059   4.235  91.115  1.00  0.00     0.198 C 
ENDROOT
BRANCH   2   7
HETATM    7  C   UNK A   0      10.479   3.947  92.224  1.00  0.00     0.311 C 
BRANCH   7   8
HETATM    8  C   UNK A   0       9.704   5.186  91.934  1.00  0.00    -0.030 A 
HETATM    9  C   UNK A   0       8.863   5.237  90.821  1.00  0.00     0.010 A 
HETATM   10  C   UNK A   0       8.138   6.397  90.547  1.00  0.00     0.021 A 
HETATM   11  C   UNK A   0       8.253   7.504  91.387  1.00  0.00     0.018 A 
HETATM   12  C   UNK A   0       9.092   7.454  92.498  1.00  0.00     0.021 A 
HETATM   13  C   UNK A   0       9.817   6.295  92.772  1.00  0.00     0.010 A 
BRANCH  11  14
HETATM   14  C   UNK A   0       7.508   8.693  91.107  1.00  0.00    -0.061 C 
HETATM   15  C   UNK A   0       6.883   9.693  90.871  1.00  0.00    -0.061 C 
BRANCH  15  16
HETATM   16  C   UNK A   0       6.139  10.881  90.591  1.00  0.00     0.018 A 
HETATM   17  C   UNK A   0       5.265  11.398  91.548  1.00  0.00     0.022 A 
HETATM   18  C   UNK A   0       4.542  12.559  91.275  1.00  0.00     0.018 A 
HETATM   19  C   UNK A   0       4.708  13.176  90.053  1.00  0.00     0.032 A 
HETATM   20  C   UNK A   0       5.565  12.685  89.090  1.00  0.00     0.018 A 
HETATM   21  C   UNK A   0       6.289  11.524  89.362  1.00  0.00     0.022 A 
BRANCH  19  22
HETATM   22  C   UNK A   0       3.936  14.412  89.762  1.00  0.00     0.252 C 
HETATM   23  O   UNK A   0       4.524  15.489  89.712  1.00  0.00    -0.268 OA
ENDBRANCH  19  22
ENDBRANCH  15  16
ENDBRANCH  11  14
ENDBRANCH   7   8
ENDBRANCH   2   7
TORSDOF 9
ENDMDL
MODEL 8
REMARK VINA RESULT:      -6.4      1.749      2.502
REMARK  9 active torsions:
REMARK  status: ('A' for Active; 'I' for Inactive)
REMARK    1  A    between atoms: N_3  and  C_6 
REMARK    2  A    between atoms: C_6  and  C_9 
REMARK    3  A    between atoms: C_14  and  C_17 
REMARK       I    between atoms: N_26  and  C_15 
REMARK    4  A    between atoms: C_15  and  C_16 
REMARK    5  A    between atoms: C_20  and  C_23 
REMARK    6  A    between atoms: OG1_24  and  CB_28 
REMARK    7  A    between atoms: N_26  and  CA_27 
REMARK    8  A    between atoms: CA_27  and  CB_28 
REMARK    9  A    between atoms: CA_27  and  C_30 
ROOT
HETATM    1  O   UNK A   0       2.043   8.785  87.796  1.00  0.00    -0.388 OA
HETATM    2  N   UNK A   0       3.761   7.872  89.874  1.00  0.00     0.096 N 
HETATM    3  C   UNK A   0       2.613   7.074  89.420  1.00  0.00     0.299 C 
HETATM    4  C   UNK A   0       3.490   9.303  89.673  1.00  0.00     0.299 C 
HETATM    5  C   UNK A   0       2.309   7.391  87.958  1.00  0.00     0.198 C 
HETATM    6  C   UNK A   0       3.165   9.567  88.206  1.00  0.00     0.198 C 
ENDROOT
BRANCH   2   7
HETATM    7  C   UNK A   0       4.063   7.593  91.277  1.00  0.00     0.311 C 
BRANCH   7   8
HETATM    8  C   UNK A   0       5.418   6.998  91.458  1.00  0.00    -0.030 A 
HETATM    9  C   UNK A   0       5.949   6.853  92.740  1.00  0.00     0.010 A 
HETATM   10  C   UNK A   0       7.218   6.298  92.911  1.00  0.00     0.021 A 
HETATM   11  C   UNK A   0       7.953   5.887  91.799  1.00  0.00     0.018 A 
HETATM   12  C   UNK A   0       7.423   6.031  90.519  1.00  0.00     0.021 A 
HETATM   13  C   UNK A   0       6.155   6.586  90.347  1.00  0.00     0.010 A 
BRANCH  11  14
HETATM   14  C   UNK A   0       9.253   5.316  91.975  1.00  0.00    -0.061 C 
HETATM   15  C   UNK A   0      10.346   4.837  92.123  1.00  0.00    -0.061 C 
BRANCH  15  16
HETATM   16  C   UNK A   0      11.645   4.266  92.299  1.00  0.00     0.018 A 
HETATM   17  C   UNK A   0      12.514   4.165  91.212  1.00  0.00     0.022 A 
HETATM   18  C   UNK A   0      13.782   3.611  91.385  1.00  0.00     0.018 A 
HETATM   19  C   UNK A   0      14.153   3.171  92.638  1.00  0.00     0.032 A 
HETATM   20  C   UNK A   0      13.311   3.259  93.728  1.00  0.00     0.018 A 
HETATM   21  C   UNK A   0      12.043   3.813  93.556  1.00  0.00     0.022 A 
BRANCH  19  22
HETATM   22  C   UNK A   0      15.503   2.578  92.821  1.00  0.00     0.252 C 
HETATM   23  O   UNK A   0      16.134   2.828  93.846  1.00  0.00    -0.268 OA
ENDBRANCH  19  22
ENDBRANCH  15  16
ENDBRANCH  11  14
ENDBRANCH   7   8
ENDBRANCH   2   7
TORSDOF 9
ENDMDL
MODEL 9
REMARK VINA RESULT:      -6.3      4.832     10.223
REMARK  9 active torsions:
REMARK  status: ('A' for Active; 'I' for Inactive)
REMARK    1  A    between atoms: N_3  and  C_6 
REMARK    2  A    between atoms: C_6  and  C_9 
REMARK    3  A    between atoms: C_14  and  C_17 
REMARK       I    between atoms: N_26  and  C_15 
REMARK    4  A    between atoms: C_15  and  C_16 
REMARK    5  A    between atoms: C_20  and  C_23 
REMARK    6  A    between atoms: OG1_24  and  CB_28 
REMARK    7  A    between atoms: N_26  and  CA_27 
REMARK    8  A    between atoms: CA_27  and  CB_28 
REMARK    9  A    between atoms: CA_27  and  C_30 
ROOT
HETATM    1  O   UNK A   0      11.271   4.021  89.010  1.00  0.00    -0.388 OA
HETATM    2  N   UNK A   0       9.386   5.762  87.778  1.00  0.00     0.096 N 
HETATM    3  C   UNK A   0      10.178   4.807  86.991  1.00  0.00     0.299 C 
HETATM    4  C   UNK A   0      10.129   6.161  88.981  1.00  0.00     0.299 C 
HETATM    5  C   UNK A   0      10.543   3.602  87.854  1.00  0.00     0.198 C 
HETATM    6  C   UNK A   0      10.495   4.926  89.797  1.00  0.00     0.198 C 
ENDROOT
BRANCH   2   7
HETATM    7  C   UNK A   0       9.034   6.930  86.973  1.00  0.00     0.311 C 
BRANCH   7   8
HETATM    8  C   UNK A   0       8.279   7.952  87.754  1.00  0.00    -0.030 A 
HETATM    9  C   UNK A   0       6.930   7.749  88.045  1.00  0.00     0.010 A 
HETATM   10  C   UNK A   0       6.222   8.705  88.773  1.00  0.00     0.021 A 
HETATM   11  C   UNK A   0       6.865   9.862  89.212  1.00  0.00     0.018 A 
HETATM   12  C   UNK A   0       8.213  10.065  88.923  1.00  0.00     0.021 A 
HETATM   13  C   UNK A   0       8.920   9.110  88.193  1.00  0.00     0.010 A 
BRANCH  11  14
HETATM   14  C   UNK A   0       6.140  10.841  89.962  1.00  0.00    -0.061 C 
HETATM   15  C   UNK A   0       5.530  11.664  90.592  1.00  0.00    -0.061 C 
BRANCH  15  16
HETATM   16  C   UNK A   0       4.806  12.644  91.341  1.00  0.00     0.018 A 
HETATM   17  C   UNK A   0       4.482  13.868  90.756  1.00  0.00     0.022 A 
HETATM   18  C   UNK A   0       3.774  14.822  91.486  1.00  0.00     0.018 A 
HETATM   19  C   UNK A   0       3.404  14.531  92.782  1.00  0.00     0.032 A 
HETATM   20  C   UNK A   0       3.713  13.329  93.383  1.00  0.00     0.018 A 
HETATM   21  C   UNK A   0       4.422  12.374  92.654  1.00  0.00     0.022 A 
BRANCH  19  22
HETATM   22  C   UNK A   0       2.651  15.549  93.560  1.00  0.00     0.252 C 
HETATM   23  O   UNK A   0       1.430  15.452  93.649  1.00  0.00    -0.268 OA
ENDBRANCH  19  22
ENDBRANCH  15  16
ENDBRANCH  11  14
ENDBRANCH   7   8
ENDBRANCH   2   7
TORSDOF 9
ENDMDL
