MODEL 1
REMARK VINA RESULT:      -7.6      0.000      0.000
REMARK  9 active torsions:
REMARK  status: ('A' for Active; 'I' for Inactive)
REMARK    1  A    between atoms: N_3  and  C_6 
REMARK    2  A    between atoms: C_6  and  C_9 
REMARK    3  A    between atoms: C_14  and  C_17 
REMARK       I    between atoms: N_26  and  C_15 
REMARK    4  A    between atoms: C_15  and  C_16 
REMARK    5  A    between atoms: C_20  and  C_23 
REMARK    6  A    between atoms: OG1_24  and  CB_28 
REMARK    7  A    between atoms: N_26  and  CA_27 
REMARK    8  A    between atoms: CA_27  and  CB_28 
REMARK    9  A    between atoms: CA_27  and  C_30 
ROOT
HETATM    1  O   UNK A   0       1.914   8.178  87.987  1.00  0.00    -0.388 OA
HETATM    2  N   UNK A   0       4.690   7.583  87.774  1.00  0.00     0.096 N 
HETATM    3  C   UNK A   0       4.204   8.969  87.838  1.00  0.00     0.299 C 
HETATM    4  C   UNK A   0       3.670   6.720  87.163  1.00  0.00     0.299 C 
HETATM    5  C   UNK A   0       2.887   9.019  88.609  1.00  0.00     0.198 C 
HETATM    6  C   UNK A   0       2.366   6.823  87.948  1.00  0.00     0.198 C 
ENDROOT
BRANCH   2   7
HETATM    7  C   UNK A   0       5.946   7.510  87.030  1.00  0.00     0.311 C 
BRANCH   7   8
HETATM    8  C   UNK A   0       7.050   6.916  87.837  1.00  0.00    -0.030 A 
HETATM    9  C   UNK A   0       8.278   6.633  87.237  1.00  0.00     0.010 A 
HETATM   10  C   UNK A   0       9.310   6.075  87.990  1.00  0.00     0.021 A 
HETATM   11  C   UNK A   0       9.115   5.802  89.344  1.00  0.00     0.018 A 
HETATM   12  C   UNK A   0       7.890   6.084  89.944  1.00  0.00     0.021 A 
HETATM   13  C   UNK A   0       6.857   6.641  89.191  1.00  0.00     0.010 A 
BRANCH  11  14
HETATM   14  C   UNK A   0      10.176   5.232  90.117  1.00  0.00    -0.061 C 
HETATM   15  C   UNK A   0      11.066   4.752  90.767  1.00  0.00    -0.061 C 
BRANCH  15  16
HETATM   16  C   UNK A   0      12.126   4.182  91.538  1.00  0.00     0.018 A 
HETATM   17  C   UNK A   0      11.917   3.865  92.881  1.00  0.00     0.022 A 
HETATM   18  C   UNK A   0      12.951   3.306  93.633  1.00  0.00     0.018 A 
HETATM   19  C   UNK A   0      14.168   3.076  93.027  1.00  0.00     0.032 A 
HETATM   20  C   UNK A   0      14.399   3.381  91.702  1.00  0.00     0.018 A 
HETATM   21  C   UNK A   0      13.367   3.940  90.948  1.00  0.00     0.022 A 
BRANCH  19  22
HETATM   22  C   UNK A   0      15.269   2.483  93.829  1.00  0.00     0.252 C 
HETATM   23  O   UNK A   0      16.424   2.847  93.623  1.00  0.00    -0.268 OA
ENDBRANCH  19  22
ENDBRANCH  15  16
ENDBRANCH  11  14
ENDBRANCH   7   8
ENDBRANCH   2   7
TORSDOF 9
ENDMDL
MODEL 2
REMARK VINA RESULT:      -7.5      0.115      1.429
REMARK  9 active torsions:
REMARK  status: ('A' for Active; 'I' for Inactive)
REMARK    1  A    between atoms: N_3  and  C_6 
REMARK    2  A    between atoms: C_6  and  C_9 
REMARK    3  A    between atoms: C_14  and  C_17 
REMARK       I    between atoms: N_26  and  C_15 
REMARK    4  A    between atoms: C_15  and  C_16 
REMARK    5  A    between atoms: C_20  and  C_23 
REMARK    6  A    between atoms: OG1_24  and  CB_28 
REMARK    7  A    between atoms: N_26  and  CA_27 
REMARK    8  A    between atoms: CA_27  and  CB_28 
REMARK    9  A    between atoms: CA_27  and  C_30 
ROOT
HETATM    1  O   UNK A   0       1.912   8.121  87.814  1.00  0.00    -0.388 OA
HETATM    2  N   UNK A   0       4.707   7.602  87.662  1.00  0.00     0.096 N 
HETATM    3  C   UNK A   0       4.185   8.972  87.764  1.00  0.00     0.299 C 
HETATM    4  C   UNK A   0       3.726   6.738  86.989  1.00  0.00     0.299 C 
HETATM    5  C   UNK A   0       2.845   8.961  88.496  1.00  0.00     0.198 C 
HETATM    6  C   UNK A   0       2.399   6.781  87.738  1.00  0.00     0.198 C 
ENDROOT
BRANCH   2   7
HETATM    7  C   UNK A   0       5.986   7.586  86.954  1.00  0.00     0.311 C 
BRANCH   7   8
HETATM    8  C   UNK A   0       7.076   6.970  87.764  1.00  0.00    -0.030 A 
HETATM    9  C   UNK A   0       6.886   6.741  89.127  1.00  0.00     0.010 A 
HETATM   10  C   UNK A   0       7.906   6.167  89.886  1.00  0.00     0.021 A 
HETATM   11  C   UNK A   0       9.114   5.821  89.280  1.00  0.00     0.018 A 
HETATM   12  C   UNK A   0       9.304   6.049  87.919  1.00  0.00     0.021 A 
HETATM   13  C   UNK A   0       8.284   6.624  87.160  1.00  0.00     0.010 A 
BRANCH  11  14
HETATM   14  C   UNK A   0      10.159   5.230  90.058  1.00  0.00    -0.061 C 
HETATM   15  C   UNK A   0      11.038   4.734  90.712  1.00  0.00    -0.061 C 
BRANCH  15  16
HETATM   16  C   UNK A   0      12.083   4.144  91.489  1.00  0.00     0.018 A 
HETATM   17  C   UNK A   0      13.336   3.924  90.918  1.00  0.00     0.022 A 
HETATM   18  C   UNK A   0      14.356   3.351  91.678  1.00  0.00     0.018 A 
HETATM   19  C   UNK A   0      14.101   3.013  92.990  1.00  0.00     0.032 A 
HETATM   20  C   UNK A   0      12.870   3.220  93.578  1.00  0.00     0.018 A 
HETATM   21  C   UNK A   0      11.849   3.793  92.819  1.00  0.00     0.022 A 
BRANCH  19  22
HETATM   22  C   UNK A   0      15.187   2.401  93.799  1.00  0.00     0.252 C 
HETATM   23  O   UNK A   0      16.329   2.842  93.700  1.00  0.00    -0.268 OA
ENDBRANCH  19  22
ENDBRANCH  15  16
ENDBRANCH  11  14
ENDBRANCH   7   8
ENDBRANCH   2   7
TORSDOF 9
ENDMDL
MODEL 3
REMARK VINA RESULT:      -6.9      1.544      2.051
REMARK  9 active torsions:
REMARK  status: ('A' for Active; 'I' for Inactive)
REMARK    1  A    between atoms: N_3  and  C_6 
REMARK    2  A    between atoms: C_6  and  C_9 
REMARK    3  A    between atoms: C_14  and  C_17 
REMARK       I    between atoms: N_26  and  C_15 
REMARK    4  A    between atoms: C_15  and  C_16 
REMARK    5  A    between atoms: C_20  and  C_23 
REMARK    6  A    between atoms: OG1_24  and  CB_28 
REMARK    7  A    between atoms: N_26  and  CA_27 
REMARK    8  A    between atoms: CA_27  and  CB_28 
REMARK    9  A    between atoms: CA_27  and  C_30 
ROOT
HETATM    1  O   UNK A   0       2.737  11.260  89.635  1.00  0.00    -0.388 OA
HETATM    2  N   UNK A   0       4.577   9.283  88.739  1.00  0.00     0.096 N 
HETATM    3  C   UNK A   0       3.822  10.114  87.791  1.00  0.00     0.299 C 
HETATM    4  C   UNK A   0       3.812   9.113  89.981  1.00  0.00     0.299 C 
HETATM    5  C   UNK A   0       3.487  11.457  88.436  1.00  0.00     0.198 C 
HETATM    6  C   UNK A   0       3.477  10.478  90.574  1.00  0.00     0.198 C 
ENDROOT
BRANCH   2   7
HETATM    7  C   UNK A   0       4.900   7.986  88.146  1.00  0.00     0.311 C 
BRANCH   7   8
HETATM    8  C   UNK A   0       6.108   7.365  88.760  1.00  0.00    -0.030 A 
HETATM    9  C   UNK A   0       5.993   6.168  89.468  1.00  0.00     0.010 A 
HETATM   10  C   UNK A   0       7.122   5.588  90.046  1.00  0.00     0.021 A 
HETATM   11  C   UNK A   0       8.366   6.203  89.912  1.00  0.00     0.018 A 
HETATM   12  C   UNK A   0       8.483   7.398  89.205  1.00  0.00     0.021 A 
HETATM   13  C   UNK A   0       7.354   7.980  88.629  1.00  0.00     0.010 A 
BRANCH  11  14
HETATM   14  C   UNK A   0       9.525   5.607  90.503  1.00  0.00    -0.061 C 
HETATM   15  C   UNK A   0      10.498   5.105  90.999  1.00  0.00    -0.061 C 
BRANCH  15  16
HETATM   16  C   UNK A   0      11.655   4.508  91.589  1.00  0.00     0.018 A 
HETATM   17  C   UNK A   0      11.642   4.145  92.936  1.00  0.00     0.022 A 
HETATM   18  C   UNK A   0      12.770   3.559  93.511  1.00  0.00     0.018 A 
HETATM   19  C   UNK A   0      13.885   3.350  92.727  1.00  0.00     0.032 A 
HETATM   20  C   UNK A   0      13.924   3.701  91.394  1.00  0.00     0.018 A 
HETATM   21  C   UNK A   0      12.796   4.286  90.818  1.00  0.00     0.022 A 
BRANCH  19  22
HETATM   22  C   UNK A   0      15.087   2.729  93.340  1.00  0.00     0.252 C 
HETATM   23  O   UNK A   0      14.948   1.772  94.098  1.00  0.00    -0.268 OA
ENDBRANCH  19  22
ENDBRANCH  15  16
ENDBRANCH  11  14
ENDBRANCH   7   8
ENDBRANCH   2   7
TORSDOF 9
ENDMDL
MODEL 4
REMARK VINA RESULT:      -6.9      1.440      2.065
REMARK  9 active torsions:
REMARK  status: ('A' for Active; 'I' for Inactive)
REMARK    1  A    between atoms: N_3  and  C_6 
REMARK    2  A    between atoms: C_6  and  C_9 
REMARK    3  A    between atoms: C_14  and  C_17 
REMARK       I    between atoms: N_26  and  C_15 
REMARK    4  A    between atoms: C_15  and  C_16 
REMARK    5  A    between atoms: C_20  and  C_23 
REMARK    6  A    between atoms: OG1_24  and  CB_28 
REMARK    7  A    between atoms: N_26  and  CA_27 
REMARK    8  A    between atoms: CA_27  and  CB_28 
REMARK    9  A    between atoms: CA_27  and  C_30 
ROOT
HETATM    1  O   UNK A   0       2.754  11.182  89.688  1.00  0.00    -0.388 OA
HETATM    2  N   UNK A   0       4.589   9.225  88.736  1.00  0.00     0.096 N 
HETATM    3  C   UNK A   0       3.825  10.075  87.812  1.00  0.00     0.299 C 
HETATM    4  C   UNK A   0       3.834   9.030  89.981  1.00  0.00     0.299 C 
HETATM    5  C   UNK A   0       3.495  11.405  88.486  1.00  0.00     0.198 C 
HETATM    6  C   UNK A   0       3.503  10.382  90.604  1.00  0.00     0.198 C 
ENDROOT
BRANCH   2   7
HETATM    7  C   UNK A   0       4.907   7.941  88.114  1.00  0.00     0.311 C 
BRANCH   7   8
HETATM    8  C   UNK A   0       6.120   7.308  88.707  1.00  0.00    -0.030 A 
HETATM    9  C   UNK A   0       7.386   7.812  88.408  1.00  0.00     0.010 A 
HETATM   10  C   UNK A   0       8.521   7.219  88.960  1.00  0.00     0.021 A 
HETATM   11  C   UNK A   0       8.389   6.124  89.814  1.00  0.00     0.018 A 
HETATM   12  C   UNK A   0       7.125   5.621  90.115  1.00  0.00     0.021 A 
HETATM   13  C   UNK A   0       5.990   6.213  89.561  1.00  0.00     0.010 A 
BRANCH  11  14
HETATM   14  C   UNK A   0       9.553   5.518  90.383  1.00  0.00    -0.061 C 
HETATM   15  C   UNK A   0      10.532   5.008  90.860  1.00  0.00    -0.061 C 
BRANCH  15  16
HETATM   16  C   UNK A   0      11.696   4.402  91.428  1.00  0.00     0.018 A 
HETATM   17  C   UNK A   0      12.858   4.275  90.665  1.00  0.00     0.022 A 
HETATM   18  C   UNK A   0      13.994   3.687  91.220  1.00  0.00     0.018 A 
HETATM   19  C   UNK A   0      13.944   3.240  92.524  1.00  0.00     0.032 A 
HETATM   20  C   UNK A   0      12.808   3.353  93.298  1.00  0.00     0.018 A 
HETATM   21  C   UNK A   0      11.671   3.941  92.744  1.00  0.00     0.022 A 
BRANCH  19  22
HETATM   22  C   UNK A   0      15.154   2.611  93.114  1.00  0.00     0.252 C 
HETATM   23  O   UNK A   0      15.943   3.308  93.748  1.00  0.00    -0.268 OA
ENDBRANCH  19  22
ENDBRANCH  15  16
ENDBRANCH  11  14
ENDBRANCH   7   8
ENDBRANCH   2   7
TORSDOF 9
ENDMDL
MODEL 5
REMARK VINA RESULT:      -6.6      3.886     10.401
REMARK  9 active torsions:
REMARK  status: ('A' for Active; 'I' for Inactive)
REMARK    1  A    between atoms: N_3  and  C_6 
REMARK    2  A    between atoms: C_6  and  C_9 
REMARK    3  A    between atoms: C_14  and  C_17 
REMARK       I    between atoms: N_26  and  C_15 
REMARK    4  A    between atoms: C_15  and  C_16 
REMARK    5  A    between atoms: C_20  and  C_23 
REMARK    6  A    between atoms: OG1_24  and  CB_28 
REMARK    7  A    between atoms: N_26  and  CA_27 
REMARK    8  A    between atoms: CA_27  and  CB_28 
REMARK    9  A    between atoms: CA_27  and  C_30 
ROOT
HETATM    1  O   UNK A   0      14.615   3.298  92.154  1.00  0.00    -0.388 OA
HETATM    2  N   UNK A   0      11.903   4.153  92.281  1.00  0.00     0.096 N 
HETATM    3  C   UNK A   0      12.509   3.357  93.358  1.00  0.00     0.299 C 
HETATM    4  C   UNK A   0      12.553   3.843  90.999  1.00  0.00     0.299 C 
HETATM    5  C   UNK A   0      14.012   3.617  93.410  1.00  0.00     0.198 C 
HETATM    6  C   UNK A   0      14.054   4.090  91.107  1.00  0.00     0.198 C 
ENDROOT
BRANCH   2   7
HETATM    7  C   UNK A   0      10.464   3.912  92.205  1.00  0.00     0.311 C 
BRANCH   7   8
HETATM    8  C   UNK A   0       9.694   5.155  91.915  1.00  0.00    -0.030 A 
HETATM    9  C   UNK A   0       8.792   5.184  90.851  1.00  0.00     0.010 A 
HETATM   10  C   UNK A   0       8.073   6.347  90.577  1.00  0.00     0.021 A 
HETATM   11  C   UNK A   0       8.255   7.480  91.369  1.00  0.00     0.018 A 
HETATM   12  C   UNK A   0       9.154   7.453  92.432  1.00  0.00     0.021 A 
HETATM   13  C   UNK A   0       9.874   6.290  92.706  1.00  0.00     0.010 A 
BRANCH  11  14
HETATM   14  C   UNK A   0       7.515   8.673  91.089  1.00  0.00    -0.061 C 
HETATM   15  C   UNK A   0       6.895   9.676  90.854  1.00  0.00    -0.061 C 
BRANCH  15  16
HETATM   16  C   UNK A   0       6.156  10.868  90.574  1.00  0.00     0.018 A 
HETATM   17  C   UNK A   0       5.281  11.385  91.529  1.00  0.00     0.022 A 
HETATM   18  C   UNK A   0       4.563  12.550  91.257  1.00  0.00     0.018 A 
HETATM   19  C   UNK A   0       4.737  13.170  90.037  1.00  0.00     0.032 A 
HETATM   20  C   UNK A   0       5.595  12.678  89.077  1.00  0.00     0.018 A 
HETATM   21  C   UNK A   0       6.314  11.514  89.348  1.00  0.00     0.022 A 
BRANCH  19  22
HETATM   22  C   UNK A   0       3.970  14.409  89.747  1.00  0.00     0.252 C 
HETATM   23  O   UNK A   0       4.544  15.495  89.794  1.00  0.00    -0.268 OA
ENDBRANCH  19  22
ENDBRANCH  15  16
ENDBRANCH  11  14
ENDBRANCH   7   8
ENDBRANCH   2   7
TORSDOF 9
ENDMDL
MODEL 6
REMARK VINA RESULT:      -6.6      3.879     10.423
REMARK  9 active torsions:
REMARK  status: ('A' for Active; 'I' for Inactive)
REMARK    1  A    between atoms: N_3  and  C_6 
REMARK    2  A    between atoms: C_6  and  C_9 
REMARK    3  A    between atoms: C_14  and  C_17 
REMARK       I    between atoms: N_26  and  C_15 
REMARK    4  A    between atoms: C_15  and  C_16 
REMARK    5  A    between atoms: C_20  and  C_23 
REMARK    6  A    between atoms: OG1_24  and  CB_28 
REMARK    7  A    between atoms: N_26  and  CA_27 
REMARK    8  A    between atoms: CA_27  and  CB_28 
REMARK    9  A    between atoms: CA_27  and  C_30 
ROOT
HETATM    1  O   UNK A   0      14.588   3.348  92.147  1.00  0.00    -0.388 OA
HETATM    2  N   UNK A   0      11.865   4.165  92.272  1.00  0.00     0.096 N 
HETATM    3  C   UNK A   0      12.463   3.324  93.318  1.00  0.00     0.299 C 
HETATM    4  C   UNK A   0      12.537   3.927  90.988  1.00  0.00     0.299 C 
HETATM    5  C   UNK A   0      13.962   3.597  93.407  1.00  0.00     0.198 C 
HETATM    6  C   UNK A   0      14.034   4.185  91.131  1.00  0.00     0.198 C 
ENDROOT
BRANCH   2   7
HETATM    7  C   UNK A   0      10.429   3.913  92.163  1.00  0.00     0.311 C 
BRANCH   7   8
HETATM    8  C   UNK A   0       9.653   5.155  91.886  1.00  0.00    -0.030 A 
HETATM    9  C   UNK A   0       9.818   6.275  92.701  1.00  0.00     0.010 A 
HETATM   10  C   UNK A   0       9.091   7.438  92.444  1.00  0.00     0.021 A 
HETATM   11  C   UNK A   0       8.201   7.479  91.371  1.00  0.00     0.018 A 
HETATM   12  C   UNK A   0       8.036   6.361  90.556  1.00  0.00     0.021 A 
HETATM   13  C   UNK A   0       8.762   5.198  90.813  1.00  0.00     0.010 A 
BRANCH  11  14
HETATM   14  C   UNK A   0       7.457   8.672  91.106  1.00  0.00    -0.061 C 
HETATM   15  C   UNK A   0       6.832   9.675  90.884  1.00  0.00    -0.061 C 
BRANCH  15  16
HETATM   16  C   UNK A   0       6.089  10.867  90.619  1.00  0.00     0.018 A 
HETATM   17  C   UNK A   0       5.229  11.382  91.589  1.00  0.00     0.022 A 
HETATM   18  C   UNK A   0       4.506  12.547  91.331  1.00  0.00     0.018 A 
HETATM   19  C   UNK A   0       4.659  13.170  90.110  1.00  0.00     0.032 A 
HETATM   20  C   UNK A   0       5.502  12.681  89.135  1.00  0.00     0.018 A 
HETATM   21  C   UNK A   0       6.226  11.516  89.391  1.00  0.00     0.022 A 
BRANCH  19  22
HETATM   22  C   UNK A   0       3.887  14.409  89.835  1.00  0.00     0.252 C 
HETATM   23  O   UNK A   0       4.481  15.483  89.764  1.00  0.00    -0.268 OA
ENDBRANCH  19  22
ENDBRANCH  15  16
ENDBRANCH  11  14
ENDBRANCH   7   8
ENDBRANCH   2   7
TORSDOF 9
ENDMDL
MODEL 7
REMARK VINA RESULT:      -6.5      3.125     10.318
REMARK  9 active torsions:
REMARK  status: ('A' for Active; 'I' for Inactive)
REMARK    1  A    between atoms: N_3  and  C_6 
REMARK    2  A    between atoms: C_6  and  C_9 
REMARK    3  A    between atoms: C_14  and  C_17 
REMARK       I    between atoms: N_26  and  C_15 
REMARK    4  A    between atoms: C_15  and  C_16 
REMARK    5  A    between atoms: C_20  and  C_23 
REMARK    6  A    between atoms: OG1_24  and  CB_28 
REMARK    7  A    between atoms: N_26  and  CA_27 
REMARK    8  A    between atoms: CA_27  and  CB_28 
REMARK    9  A    between atoms: CA_27  and  C_30 
ROOT
HETATM    1  O   UNK A   0      16.086   3.214  93.689  1.00  0.00    -0.388 OA
HETATM    2  N   UNK A   0      13.463   2.891  92.632  1.00  0.00     0.096 N 
HETATM    3  C   UNK A   0      14.284   1.734  93.017  1.00  0.00     0.299 C 
HETATM    4  C   UNK A   0      14.327   4.005  92.219  1.00  0.00     0.299 C 
HETATM    5  C   UNK A   0      15.256   2.135  94.124  1.00  0.00     0.198 C 
HETATM    6  C   UNK A   0      15.297   4.353  93.343  1.00  0.00     0.198 C 
ENDROOT
BRANCH   2   7
HETATM    7  C   UNK A   0      12.531   2.532  91.565  1.00  0.00     0.311 C 
BRANCH   7   8
HETATM    8  C   UNK A   0      11.568   3.628  91.260  1.00  0.00    -0.030 A 
HETATM    9  C   UNK A   0      11.451   4.109  89.955  1.00  0.00     0.010 A 
HETATM   10  C   UNK A   0      10.552   5.136  89.669  1.00  0.00     0.021 A 
HETATM   11  C   UNK A   0       9.768   5.680  90.687  1.00  0.00     0.018 A 
HETATM   12  C   UNK A   0       9.884   5.199  91.990  1.00  0.00     0.021 A 
HETATM   13  C   UNK A   0      10.784   4.173  92.277  1.00  0.00     0.010 A 
BRANCH  11  14
HETATM   14  C   UNK A   0       8.844   6.732  90.393  1.00  0.00    -0.061 C 
HETATM   15  C   UNK A   0       8.067   7.616  90.146  1.00  0.00    -0.061 C 
BRANCH  15  16
HETATM   16  C   UNK A   0       7.144   8.667  89.853  1.00  0.00     0.018 A 
HETATM   17  C   UNK A   0       7.500   9.994  90.097  1.00  0.00     0.022 A 
HETATM   18  C   UNK A   0       6.600  11.020  89.808  1.00  0.00     0.018 A 
HETATM   19  C   UNK A   0       5.367  10.697  89.281  1.00  0.00     0.032 A 
HETATM   20  C   UNK A   0       4.992   9.394  89.031  1.00  0.00     0.018 A 
HETATM   21  C   UNK A   0       5.891   8.367  89.320  1.00  0.00     0.022 A 
BRANCH  19  22
HETATM   22  C   UNK A   0       4.408  11.790  88.976  1.00  0.00     0.252 C 
HETATM   23  O   UNK A   0       4.256  12.146  87.810  1.00  0.00    -0.268 OA
ENDBRANCH  19  22
ENDBRANCH  15  16
ENDBRANCH  11  14
ENDBRANCH   7   8
ENDBRANCH   2   7
TORSDOF 9
ENDMDL
MODEL 8
REMARK VINA RESULT:      -6.4      1.818      2.507
REMARK  9 active torsions:
REMARK  status: ('A' for Active; 'I' for Inactive)
REMARK    1  A    between atoms: N_3  and  C_6 
REMARK    2  A    between atoms: C_6  and  C_9 
REMARK    3  A    between atoms: C_14  and  C_17 
REMARK       I    between atoms: N_26  and  C_15 
REMARK    4  A    between atoms: C_15  and  C_16 
REMARK    5  A    between atoms: C_20  and  C_23 
REMARK    6  A    between atoms: OG1_24  and  CB_28 
REMARK    7  A    between atoms: N_26  and  CA_27 
REMARK    8  A    between atoms: CA_27  and  CB_28 
REMARK    9  A    between atoms: CA_27  and  C_30 
ROOT
HETATM    1  O   UNK A   0       3.333  11.269  88.769  1.00  0.00    -0.388 OA
HETATM    2  N   UNK A   0       4.272   8.747  89.697  1.00  0.00     0.096 N 
HETATM    3  C   UNK A   0       3.069   8.858  88.860  1.00  0.00     0.299 C 
HETATM    4  C   UNK A   0       4.449   9.972  90.489  1.00  0.00     0.299 C 
HETATM    5  C   UNK A   0       3.171  10.095  87.971  1.00  0.00     0.198 C 
HETATM    6  C   UNK A   0       4.517  11.182  89.563  1.00  0.00     0.198 C 
ENDROOT
BRANCH   2   7
HETATM    7  C   UNK A   0       4.192   7.574  90.565  1.00  0.00     0.311 C 
BRANCH   7   8
HETATM    8  C   UNK A   0       5.532   6.984  90.848  1.00  0.00    -0.030 A 
HETATM    9  C   UNK A   0       6.261   6.386  89.820  1.00  0.00     0.010 A 
HETATM   10  C   UNK A   0       7.513   5.832  90.084  1.00  0.00     0.021 A 
HETATM   11  C   UNK A   0       8.037   5.878  91.376  1.00  0.00     0.018 A 
HETATM   12  C   UNK A   0       7.310   6.476  92.403  1.00  0.00     0.021 A 
HETATM   13  C   UNK A   0       6.057   7.029  92.140  1.00  0.00     0.010 A 
BRANCH  11  14
HETATM   14  C   UNK A   0       9.322   5.312  91.646  1.00  0.00    -0.061 C 
HETATM   15  C   UNK A   0      10.403   4.835  91.873  1.00  0.00    -0.061 C 
BRANCH  15  16
HETATM   16  C   UNK A   0      11.687   4.268  92.143  1.00  0.00     0.018 A 
HETATM   17  C   UNK A   0      12.009   3.855  93.436  1.00  0.00     0.022 A 
HETATM   18  C   UNK A   0      13.261   3.300  93.698  1.00  0.00     0.018 A 
HETATM   19  C   UNK A   0      14.163   3.170  92.662  1.00  0.00     0.032 A 
HETATM   20  C   UNK A   0      13.869   3.571  91.376  1.00  0.00     0.018 A 
HETATM   21  C   UNK A   0      12.617   4.126  91.112  1.00  0.00     0.022 A 
BRANCH  19  22
HETATM   22  C   UNK A   0      15.497   2.580  92.942  1.00  0.00     0.252 C 
HETATM   23  O   UNK A   0      16.208   3.088  93.806  1.00  0.00    -0.268 OA
ENDBRANCH  19  22
ENDBRANCH  15  16
ENDBRANCH  11  14
ENDBRANCH   7   8
ENDBRANCH   2   7
TORSDOF 9
ENDMDL
MODEL 9
REMARK VINA RESULT:      -6.3      3.489      4.448
REMARK  9 active torsions:
REMARK  status: ('A' for Active; 'I' for Inactive)
REMARK    1  A    between atoms: N_3  and  C_6 
REMARK    2  A    between atoms: C_6  and  C_9 
REMARK    3  A    between atoms: C_14  and  C_17 
REMARK       I    between atoms: N_26  and  C_15 
REMARK    4  A    between atoms: C_15  and  C_16 
REMARK    5  A    between atoms: C_20  and  C_23 
REMARK    6  A    between atoms: OG1_24  and  CB_28 
REMARK    7  A    between atoms: N_26  and  CA_27 
REMARK    8  A    between atoms: CA_27  and  CB_28 
REMARK    9  A    between atoms: CA_27  and  C_30 
ROOT
HETATM    1  O   UNK A   0       4.235  15.321  90.238  1.00  0.00    -0.388 OA
HETATM    2  N   UNK A   0       4.878  12.624  89.593  1.00  0.00     0.096 N 
HETATM    3  C   UNK A   0       4.891  13.681  88.573  1.00  0.00     0.299 C 
HETATM    4  C   UNK A   0       3.906  12.952  90.646  1.00  0.00     0.299 C 
HETATM    5  C   UNK A   0       5.200  15.026  89.227  1.00  0.00     0.198 C 
HETATM    6  C   UNK A   0       4.237  14.313  91.250  1.00  0.00     0.198 C 
ENDROOT
BRANCH   2   7
HETATM    7  C   UNK A   0       4.573  11.327  88.991  1.00  0.00     0.311 C 
BRANCH   7   8
HETATM    8  C   UNK A   0       5.567  10.280  89.363  1.00  0.00    -0.030 A 
HETATM    9  C   UNK A   0       5.266   8.932  89.164  1.00  0.00     0.010 A 
HETATM   10  C   UNK A   0       6.194   7.952  89.515  1.00  0.00     0.021 A 
HETATM   11  C   UNK A   0       7.423   8.320  90.061  1.00  0.00     0.018 A 
HETATM   12  C   UNK A   0       7.724   9.665  90.260  1.00  0.00     0.021 A 
HETATM   13  C   UNK A   0       6.796  10.646  89.911  1.00  0.00     0.010 A 
BRANCH  11  14
HETATM   14  C   UNK A   0       8.376   7.314  90.419  1.00  0.00    -0.061 C 
HETATM   15  C   UNK A   0       9.177   6.469  90.719  1.00  0.00    -0.061 C 
BRANCH  15  16
HETATM   16  C   UNK A   0      10.129   5.464  91.076  1.00  0.00     0.018 A 
HETATM   17  C   UNK A   0      10.472   5.275  92.415  1.00  0.00     0.022 A 
HETATM   18  C   UNK A   0      11.399   4.293  92.764  1.00  0.00     0.018 A 
HETATM   19  C   UNK A   0      11.961   3.522  91.768  1.00  0.00     0.032 A 
HETATM   20  C   UNK A   0      11.638   3.690  90.438  1.00  0.00     0.018 A 
HETATM   21  C   UNK A   0      10.712   4.672  90.087  1.00  0.00     0.022 A 
BRANCH  19  22
HETATM   22  C   UNK A   0      12.950   2.478  92.140  1.00  0.00     0.252 C 
HETATM   23  O   UNK A   0      13.597   2.607  93.176  1.00  0.00    -0.268 OA
ENDBRANCH  19  22
ENDBRANCH  15  16
ENDBRANCH  11  14
ENDBRANCH   7   8
ENDBRANCH   2   7
TORSDOF 9
ENDMDL
