MODEL 1
REMARK VINA RESULT:      -6.6      0.000      0.000
REMARK  10 active torsions:
REMARK  status: ('A' for Active; 'I' for Inactive)
REMARK    1  A    between atoms: O_2  and  C_16 
REMARK    2  A    between atoms: N_5  and  C_9 
REMARK    3  A    between atoms: N_6  and  C_13 
REMARK       I    between atoms: N_6  and  C_22 
REMARK    4  A    between atoms: C_9  and  C_12 
REMARK    5  A    between atoms: C_13  and  C_16 
REMARK    6  A    between atoms: C_13  and  C_21 
REMARK    7  A    between atoms: C_19  and  C_24 
REMARK    8  A    between atoms: C_22  and  C_23 
REMARK    9  A    between atoms: C_27  and  C_30 
REMARK   10  A    between atoms: N_33  and  S_34 
ROOT
HETATM    1  C   UNL     1       5.092   9.752  90.392  1.00  0.00     0.056 A 
HETATM    2  C   UNL     1       4.953   8.832  91.409  1.00  0.00     0.005 A 
HETATM    3  C   UNL     1       6.206   9.790  89.580  1.00  0.00     0.005 A 
HETATM    4  C   UNL     1       7.113   7.925  90.820  1.00  0.00     0.042 A 
HETATM    5  C   UNL     1       5.976   7.908  91.627  1.00  0.00     0.008 A 
HETATM    6  C   UNL     1       7.229   8.866  89.796  1.00  0.00     0.008 A 
ENDROOT
BRANCH   1   7
HETATM    7  C   UNL     1       4.002  10.735  90.159  1.00  0.00     0.254 C 
HETATM    8  O   UNL     1       3.052  10.419  89.447  1.00  0.00    -0.268 OA
HETATM    9  N   UNL     1       4.137  11.956  90.804  1.00  0.00    -0.337 N 
HETATM   10  HN  UNL     1       4.938  12.137  91.398  1.00  0.00     0.164 HD
BRANCH   9  11
HETATM   11  C   UNL     1       3.152  13.002  90.698  1.00  0.00     0.172 C 
BRANCH  11  12
HETATM   12  C   UNL     1       2.782  13.610  92.057  1.00  0.00     0.136 C 
HETATM   13  C   UNL     1       1.314  13.400  92.410  1.00  0.00     0.034 C 
BRANCH  12  14
HETATM   14  O   UNL     1       3.592  13.027  93.077  1.00  0.00    -0.383 OA
HETATM   15  H   UNL     1       3.129  12.247  93.425  1.00  0.00     0.210 HD
ENDBRANCH  12  14
ENDBRANCH  11  12
BRANCH  11  16
HETATM   16  C   UNL     1       3.699  14.062  89.747  1.00  0.00     0.398 A 
HETATM   17  O   UNL     1       4.394  13.790  88.770  1.00  0.00    -0.136 OA
HETATM   18  N   UNL     1       4.974  14.981  89.515  1.00  0.00     0.142 N 
HETATM   19  HN  UNL     1       5.625  14.940  88.782  1.00  0.00     0.338 HD
BRANCH  18  20
HETATM   20  S   UNL     1       4.992  15.622  90.749  1.00  0.00     0.076 SA
HETATM   21  H   UNL     1       4.170  15.281  91.536  1.00  0.00     0.136 HD
ENDBRANCH  18  20
ENDBRANCH  11  16
ENDBRANCH   9  11
ENDBRANCH   1   7
BRANCH   4  22
HETATM   22  C   UNL     1       8.162   6.980  91.044  1.00  0.00    -0.059 C 
HETATM   23  C   UNL     1       9.045   6.186  91.233  1.00  0.00    -0.059 C 
BRANCH  23  24
HETATM   24  C   UNL     1      10.095   5.240  91.458  1.00  0.00     0.042 A 
HETATM   25  C   UNL     1      10.493   4.940  92.760  1.00  0.00     0.008 A 
HETATM   26  C   UNL     1      11.518   4.020  92.980  1.00  0.00    -0.002 A 
HETATM   27  C   UNL     1      12.142   3.399  91.898  1.00  0.00     0.011 A 
HETATM   28  C   UNL     1      11.742   3.701  90.596  1.00  0.00    -0.002 A 
HETATM   29  C   UNL     1      10.718   4.621  90.376  1.00  0.00     0.008 A 
BRANCH  27  30
HETATM   30  C   UNL     1      13.236   2.414  92.134  1.00  0.00     0.277 C 
BRANCH  30  31
HETATM   31  N   UNL     1      14.240   2.911  93.074  1.00  0.00     0.147 N 
HETATM   32  C   UNL     1      15.385   1.993  93.146  1.00  0.00     0.283 C 
HETATM   33  C   UNL     1      16.423   2.537  94.124  1.00  0.00     0.178 C 
HETATM   34  O   UNL     1      16.852   3.839  93.720  1.00  0.00    -0.350 OA
HETATM   35  C   UNL     1      15.749   4.745  93.678  1.00  0.00     0.178 C 
HETATM   36  C   UNL     1      14.695   4.254  92.691  1.00  0.00     0.283 C 
ENDBRANCH  30  31
ENDBRANCH  27  30
ENDBRANCH  23  24
ENDBRANCH   4  22
TORSDOF 10
ENDMDL
MODEL 2
REMARK VINA RESULT:      -6.4      1.472      2.383
REMARK  10 active torsions:
REMARK  status: ('A' for Active; 'I' for Inactive)
REMARK    1  A    between atoms: O_2  and  C_16 
REMARK    2  A    between atoms: N_5  and  C_9 
REMARK    3  A    between atoms: N_6  and  C_13 
REMARK       I    between atoms: N_6  and  C_22 
REMARK    4  A    between atoms: C_9  and  C_12 
REMARK    5  A    between atoms: C_13  and  C_16 
REMARK    6  A    between atoms: C_13  and  C_21 
REMARK    7  A    between atoms: C_19  and  C_24 
REMARK    8  A    between atoms: C_22  and  C_23 
REMARK    9  A    between atoms: C_27  and  C_30 
REMARK   10  A    between atoms: N_33  and  S_34 
ROOT
HETATM    1  C   UNL     1       5.512  10.408  90.959  1.00  0.00     0.056 A 
HETATM    2  C   UNL     1       6.840  10.767  91.057  1.00  0.00     0.005 A 
HETATM    3  C   UNL     1       5.097   9.095  91.036  1.00  0.00     0.005 A 
HETATM    4  C   UNL     1       7.402   8.433  91.320  1.00  0.00     0.042 A 
HETATM    5  C   UNL     1       7.797   9.769  91.239  1.00  0.00     0.008 A 
HETATM    6  C   UNL     1       6.052   8.096  91.218  1.00  0.00     0.008 A 
ENDROOT
BRANCH   1   7
HETATM    7  C   UNL     1       4.493  11.473  90.767  1.00  0.00     0.254 C 
HETATM    8  O   UNL     1       3.510  11.242  90.067  1.00  0.00    -0.268 OA
HETATM    9  N   UNL     1       4.729  12.667  91.432  1.00  0.00    -0.337 N 
HETATM   10  HN  UNL     1       5.552  12.777  92.014  1.00  0.00     0.164 HD
BRANCH   9  11
HETATM   11  C   UNL     1       3.822  13.785  91.365  1.00  0.00     0.172 C 
BRANCH  11  12
HETATM   12  C   UNL     1       3.795  14.444  89.980  1.00  0.00     0.136 C 
HETATM   13  C   UNL     1       5.090  14.230  89.206  1.00  0.00     0.034 C 
BRANCH  12  14
HETATM   14  O   UNL     1       2.708  13.915  89.221  1.00  0.00    -0.383 OA
HETATM   15  H   UNL     1       2.008  13.644  89.838  1.00  0.00     0.210 HD
ENDBRANCH  12  14
ENDBRANCH  11  12
BRANCH  11  16
HETATM   16  C   UNL     1       2.438  13.287  91.769  1.00  0.00     0.398 A 
HETATM   17  O   UNL     1       1.459  14.026  91.855  1.00  0.00    -0.136 OA
HETATM   18  N   UNL     1       1.517  13.085  93.048  1.00  0.00     0.142 N 
HETATM   19  HN  UNL     1       0.686  13.554  93.275  1.00  0.00     0.338 HD
BRANCH  18  20
HETATM   20  S   UNL     1       2.374  12.283  93.793  1.00  0.00     0.076 SA
HETATM   21  H   UNL     1       2.138  11.119  93.803  1.00  0.00     0.136 HD
ENDBRANCH  18  20
ENDBRANCH  11  16
ENDBRANCH   9  11
ENDBRANCH   1   7
BRANCH   4  22
HETATM   22  C   UNL     1       8.383   7.409  91.504  1.00  0.00    -0.059 C 
HETATM   23  C   UNL     1       9.208   6.548  91.658  1.00  0.00    -0.059 C 
BRANCH  23  24
HETATM   24  C   UNL     1      10.190   5.524  91.843  1.00  0.00     0.042 A 
HETATM   25  C   UNL     1      10.828   4.964  90.736  1.00  0.00     0.008 A 
HETATM   26  C   UNL     1      11.784   3.964  90.916  1.00  0.00    -0.002 A 
HETATM   27  C   UNL     1      12.102   3.527  92.202  1.00  0.00     0.011 A 
HETATM   28  C   UNL     1      11.463   4.088  93.307  1.00  0.00    -0.002 A 
HETATM   29  C   UNL     1      10.507   5.087  93.127  1.00  0.00     0.008 A 
BRANCH  27  30
HETATM   30  C   UNL     1      13.126   2.459  92.393  1.00  0.00     0.277 C 
BRANCH  30  31
HETATM   31  N   UNL     1      14.210   2.879  93.279  1.00  0.00     0.147 N 
HETATM   32  C   UNL     1      15.339   1.943  93.199  1.00  0.00     0.283 C 
HETATM   33  C   UNL     1      16.462   2.407  94.124  1.00  0.00     0.178 C 
HETATM   34  O   UNL     1      16.882   3.727  93.772  1.00  0.00    -0.350 OA
HETATM   35  C   UNL     1      15.796   4.649  93.878  1.00  0.00     0.178 C 
HETATM   36  C   UNL     1      14.658   4.239  92.949  1.00  0.00     0.283 C 
ENDBRANCH  30  31
ENDBRANCH  27  30
ENDBRANCH  23  24
ENDBRANCH   4  22
TORSDOF 10
ENDMDL
MODEL 3
REMARK VINA RESULT:      -5.5      3.758     12.409
REMARK  10 active torsions:
REMARK  status: ('A' for Active; 'I' for Inactive)
REMARK    1  A    between atoms: O_2  and  C_16 
REMARK    2  A    between atoms: N_5  and  C_9 
REMARK    3  A    between atoms: N_6  and  C_13 
REMARK       I    between atoms: N_6  and  C_22 
REMARK    4  A    between atoms: C_9  and  C_12 
REMARK    5  A    between atoms: C_13  and  C_16 
REMARK    6  A    between atoms: C_13  and  C_21 
REMARK    7  A    between atoms: C_19  and  C_24 
REMARK    8  A    between atoms: C_22  and  C_23 
REMARK    9  A    between atoms: C_27  and  C_30 
REMARK   10  A    between atoms: N_33  and  S_34 
ROOT
HETATM    1  C   UNL     1      10.177   5.705  89.940  1.00  0.00     0.056 A 
HETATM    2  C   UNL     1       9.790   6.268  88.742  1.00  0.00     0.005 A 
HETATM    3  C   UNL     1       9.670   6.129  91.150  1.00  0.00     0.005 A 
HETATM    4  C   UNL     1       8.327   7.750  89.966  1.00  0.00     0.042 A 
HETATM    5  C   UNL     1       8.855   7.303  88.754  1.00  0.00     0.008 A 
HETATM    6  C   UNL     1       8.734   7.163  91.164  1.00  0.00     0.008 A 
ENDROOT
BRANCH   1   7
HETATM    7  C   UNL     1      11.172   4.602  89.926  1.00  0.00     0.254 C 
HETATM    8  O   UNL     1      11.343   3.961  88.892  1.00  0.00    -0.268 OA
HETATM    9  N   UNL     1      11.866   4.393  91.110  1.00  0.00    -0.337 N 
HETATM   10  HN  UNL     1      11.689   4.979  91.918  1.00  0.00     0.164 HD
BRANCH   9  11
HETATM   11  C   UNL     1      12.879   3.378  91.248  1.00  0.00     0.172 C 
BRANCH  11  12
HETATM   12  C   UNL     1      14.302   3.941  91.136  1.00  0.00     0.136 C 
HETATM   13  C   UNL     1      15.244   3.003  90.390  1.00  0.00     0.034 C 
BRANCH  12  14
HETATM   14  O   UNL     1      14.267   5.197  90.460  1.00  0.00    -0.383 OA
HETATM   15  H   UNL     1      14.960   5.765  90.835  1.00  0.00     0.210 HD
ENDBRANCH  12  14
ENDBRANCH  11  12
BRANCH  11  16
HETATM   16  C   UNL     1      12.662   2.681  92.587  1.00  0.00     0.398 A 
HETATM   17  O   UNL     1      11.814   3.043  93.400  1.00  0.00    -0.136 OA
HETATM   18  N   UNL     1      13.126   2.738  94.105  1.00  0.00     0.142 N 
HETATM   19  HN  UNL     1      12.591   2.972  94.893  1.00  0.00     0.338 HD
BRANCH  18  20
HETATM   20  S   UNL     1      14.497   2.621  93.904  1.00  0.00     0.076 SA
HETATM   21  H   UNL     1      15.197   3.167  94.694  1.00  0.00     0.136 HD
ENDBRANCH  18  20
ENDBRANCH  11  16
ENDBRANCH   9  11
ENDBRANCH   1   7
BRANCH   4  22
HETATM   22  C   UNL     1       7.370   8.812  89.978  1.00  0.00    -0.059 C 
HETATM   23  C   UNL     1       6.566   9.706  89.989  1.00  0.00    -0.059 C 
BRANCH  23  24
HETATM   24  C   UNL     1       5.609  10.769  90.001  1.00  0.00     0.042 A 
HETATM   25  C   UNL     1       4.386  10.598  90.650  1.00  0.00     0.008 A 
HETATM   26  C   UNL     1       3.452  11.634  90.660  1.00  0.00    -0.002 A 
HETATM   27  C   UNL     1       3.742  12.841  90.023  1.00  0.00     0.011 A 
HETATM   28  C   UNL     1       4.966  13.010  89.376  1.00  0.00    -0.002 A 
HETATM   29  C   UNL     1       5.899  11.974  89.365  1.00  0.00     0.008 A 
BRANCH  27  30
HETATM   30  C   UNL     1       2.744  13.948  90.037  1.00  0.00     0.277 C 
BRANCH  30  31
HETATM   31  N   UNL     1       2.755  14.692  91.295  1.00  0.00     0.147 N 
HETATM   32  C   UNL     1       1.816  14.099  92.258  1.00  0.00     0.283 C 
HETATM   33  C   UNL     1       1.852  14.885  93.566  1.00  0.00     0.178 C 
HETATM   34  O   UNL     1       3.177  14.897  94.103  1.00  0.00    -0.350 OA
HETATM   35  C   UNL     1       4.090  15.500  93.185  1.00  0.00     0.178 C 
HETATM   36  C   UNL     1       4.107  14.730  91.868  1.00  0.00     0.283 C 
ENDBRANCH  30  31
ENDBRANCH  27  30
ENDBRANCH  23  24
ENDBRANCH   4  22
TORSDOF 10
ENDMDL
MODEL 4
REMARK VINA RESULT:      -5.4      3.679     12.497
REMARK  10 active torsions:
REMARK  status: ('A' for Active; 'I' for Inactive)
REMARK    1  A    between atoms: O_2  and  C_16 
REMARK    2  A    between atoms: N_5  and  C_9 
REMARK    3  A    between atoms: N_6  and  C_13 
REMARK       I    between atoms: N_6  and  C_22 
REMARK    4  A    between atoms: C_9  and  C_12 
REMARK    5  A    between atoms: C_13  and  C_16 
REMARK    6  A    between atoms: C_13  and  C_21 
REMARK    7  A    between atoms: C_19  and  C_24 
REMARK    8  A    between atoms: C_22  and  C_23 
REMARK    9  A    between atoms: C_27  and  C_30 
REMARK   10  A    between atoms: N_33  and  S_34 
ROOT
HETATM    1  C   UNL     1      10.253   5.091  91.925  1.00  0.00     0.056 A 
HETATM    2  C   UNL     1       9.655   5.752  92.976  1.00  0.00     0.005 A 
HETATM    3  C   UNL     1      10.005   5.422  90.609  1.00  0.00     0.005 A 
HETATM    4  C   UNL     1       8.498   7.146  91.378  1.00  0.00     0.042 A 
HETATM    5  C   UNL     1       8.766   6.792  92.700  1.00  0.00     0.008 A 
HETATM    6  C   UNL     1       9.117   6.461  90.332  1.00  0.00     0.008 A 
ENDROOT
BRANCH   1   7
HETATM    7  C   UNL     1      11.201   3.985  92.219  1.00  0.00     0.254 C 
HETATM    8  O   UNL     1      10.775   2.835  92.298  1.00  0.00    -0.268 OA
HETATM    9  N   UNL     1      12.533   4.347  92.361  1.00  0.00    -0.337 N 
HETATM   10  HN  UNL     1      12.815   5.315  92.257  1.00  0.00     0.164 HD
BRANCH   9  11
HETATM   11  C   UNL     1      13.575   3.387  92.624  1.00  0.00     0.172 C 
BRANCH  11  12
HETATM   12  C   UNL     1      14.216   2.841  91.342  1.00  0.00     0.136 C 
HETATM   13  C   UNL     1      14.068   3.796  90.163  1.00  0.00     0.034 C 
BRANCH  12  14
HETATM   14  O   UNL     1      15.604   2.597  91.569  1.00  0.00    -0.383 OA
HETATM   15  H   UNL     1      15.707   1.675  91.862  1.00  0.00     0.210 HD
ENDBRANCH  12  14
ENDBRANCH  11  12
BRANCH  11  16
HETATM   16  C   UNL     1      14.611   4.057  93.520  1.00  0.00     0.398 A 
HETATM   17  O   UNL     1      15.230   5.067  93.190  1.00  0.00    -0.136 OA
HETATM   18  N   UNL     1      16.169   4.057  93.830  1.00  0.00     0.142 N 
HETATM   19  HN  UNL     1      16.818   4.775  93.668  1.00  0.00     0.338 HD
BRANCH  18  20
HETATM   20  S   UNL     1      16.320   2.707  94.123  1.00  0.00     0.076 SA
HETATM   21  H   UNL     1      17.309   2.184  93.721  1.00  0.00     0.136 HD
ENDBRANCH  18  20
ENDBRANCH  11  16
ENDBRANCH   9  11
ENDBRANCH   1   7
BRANCH   4  22
HETATM   22  C   UNL     1       7.585   8.209  91.095  1.00  0.00    -0.059 C 
HETATM   23  C   UNL     1       6.818   9.104  90.856  1.00  0.00    -0.059 C 
BRANCH  23  24
HETATM   24  C   UNL     1       5.905  10.168  90.572  1.00  0.00     0.042 A 
HETATM   25  C   UNL     1       6.273  11.186  89.693  1.00  0.00     0.008 A 
HETATM   26  C   UNL     1       5.384  12.224  89.418  1.00  0.00    -0.002 A 
HETATM   27  C   UNL     1       4.125  12.242  90.020  1.00  0.00     0.011 A 
HETATM   28  C   UNL     1       3.758  11.223  90.898  1.00  0.00    -0.002 A 
HETATM   29  C   UNL     1       4.648  10.185  91.174  1.00  0.00     0.008 A 
BRANCH  27  30
HETATM   30  C   UNL     1       3.174  13.351  89.723  1.00  0.00     0.277 C 
BRANCH  30  31
HETATM   31  N   UNL     1       3.020  14.269  90.850  1.00  0.00     0.147 N 
HETATM   32  C   UNL     1       2.077  13.727  91.838  1.00  0.00     0.283 C 
HETATM   33  C   UNL     1       1.940  14.696  93.009  1.00  0.00     0.178 C 
HETATM   34  O   UNL     1       3.214  14.930  93.612  1.00  0.00    -0.350 OA
HETATM   35  C   UNL     1       4.128  15.487  92.666  1.00  0.00     0.178 C 
HETATM   36  C   UNL     1       4.316  14.538  91.487  1.00  0.00     0.283 C 
ENDBRANCH  30  31
ENDBRANCH  27  30
ENDBRANCH  23  24
ENDBRANCH   4  22
TORSDOF 10
ENDMDL
MODEL 5
REMARK VINA RESULT:      -5.4      3.690     12.465
REMARK  10 active torsions:
REMARK  status: ('A' for Active; 'I' for Inactive)
REMARK    1  A    between atoms: O_2  and  C_16 
REMARK    2  A    between atoms: N_5  and  C_9 
REMARK    3  A    between atoms: N_6  and  C_13 
REMARK       I    between atoms: N_6  and  C_22 
REMARK    4  A    between atoms: C_9  and  C_12 
REMARK    5  A    between atoms: C_13  and  C_16 
REMARK    6  A    between atoms: C_13  and  C_21 
REMARK    7  A    between atoms: C_19  and  C_24 
REMARK    8  A    between atoms: C_22  and  C_23 
REMARK    9  A    between atoms: C_27  and  C_30 
REMARK   10  A    between atoms: N_33  and  S_34 
ROOT
HETATM    1  C   UNL     1      10.393   4.649  92.487  1.00  0.00     0.056 A 
HETATM    2  C   UNL     1       9.445   4.512  91.494  1.00  0.00     0.005 A 
HETATM    3  C   UNL     1      10.385   5.707  93.371  1.00  0.00     0.005 A 
HETATM    4  C   UNL     1       8.416   6.559  92.260  1.00  0.00     0.042 A 
HETATM    5  C   UNL     1       8.446   5.478  91.378  1.00  0.00     0.008 A 
HETATM    6  C   UNL     1       9.386   6.674  93.256  1.00  0.00     0.008 A 
ENDROOT
BRANCH   1   7
HETATM    7  C   UNL     1      11.456   3.619  92.611  1.00  0.00     0.254 C 
HETATM    8  O   UNL     1      11.172   2.438  92.428  1.00  0.00    -0.268 OA
HETATM    9  N   UNL     1      12.728   4.090  92.908  1.00  0.00    -0.337 N 
HETATM   10  HN  UNL     1      12.893   5.084  93.020  1.00  0.00     0.164 HD
BRANCH   9  11
HETATM   11  C   UNL     1      13.868   3.218  93.036  1.00  0.00     0.172 C 
BRANCH  11  12
HETATM   12  C   UNL     1      14.366   2.689  91.685  1.00  0.00     0.136 C 
HETATM   13  C   UNL     1      14.164   3.693  90.555  1.00  0.00     0.034 C 
BRANCH  12  14
HETATM   14  O   UNL     1      15.753   2.370  91.780  1.00  0.00    -0.383 OA
HETATM   15  H   UNL     1      15.948   1.663  91.142  1.00  0.00     0.210 HD
ENDBRANCH  12  14
ENDBRANCH  11  12
BRANCH  11  16
HETATM   16  C   UNL     1      14.962   3.988  93.768  1.00  0.00     0.398 A 
HETATM   17  O   UNL     1      15.440   5.039  93.344  1.00  0.00    -0.136 OA
HETATM   18  N   UNL     1      16.543   4.122  93.847  1.00  0.00     0.142 N 
HETATM   19  HN  UNL     1      17.099   4.888  93.588  1.00  0.00     0.338 HD
BRANCH  18  20
HETATM   20  S   UNL     1      16.849   2.795  94.124  1.00  0.00     0.076 SA
HETATM   21  H   UNL     1      15.937   2.089  94.412  1.00  0.00     0.136 HD
ENDBRANCH  18  20
ENDBRANCH  11  16
ENDBRANCH   9  11
ENDBRANCH   1   7
BRANCH   4  22
HETATM   22  C   UNL     1       7.393   7.550  92.140  1.00  0.00    -0.059 C 
HETATM   23  C   UNL     1       6.533   8.384  92.040  1.00  0.00    -0.059 C 
BRANCH  23  24
HETATM   24  C   UNL     1       5.509   9.377  91.920  1.00  0.00     0.042 A 
HETATM   25  C   UNL     1       4.639   9.352  90.831  1.00  0.00     0.008 A 
HETATM   26  C   UNL     1       3.643  10.321  90.713  1.00  0.00    -0.002 A 
HETATM   27  C   UNL     1       3.516  11.313  91.686  1.00  0.00     0.011 A 
HETATM   28  C   UNL     1       4.387  11.336  92.775  1.00  0.00    -0.002 A 
HETATM   29  C   UNL     1       5.384  10.367  92.892  1.00  0.00     0.008 A 
BRANCH  27  30
HETATM   30  C   UNL     1       2.449  12.346  91.560  1.00  0.00     0.277 C 
BRANCH  30  31
HETATM   31  N   UNL     1       2.987  13.664  91.224  1.00  0.00     0.147 N 
HETATM   32  C   UNL     1       3.742  14.222  92.354  1.00  0.00     0.283 C 
HETATM   33  C   UNL     1       4.302  15.591  91.976  1.00  0.00     0.178 C 
HETATM   34  O   UNL     1       5.138  15.484  90.822  1.00  0.00    -0.350 OA
HETATM   35  C   UNL     1       4.404  14.971  89.710  1.00  0.00     0.178 C 
HETATM   36  C   UNL     1       3.846  13.589  90.033  1.00  0.00     0.283 C 
ENDBRANCH  30  31
ENDBRANCH  27  30
ENDBRANCH  23  24
ENDBRANCH   4  22
TORSDOF 10
ENDMDL
MODEL 6
REMARK VINA RESULT:      -4.6      2.022      2.430
REMARK  10 active torsions:
REMARK  status: ('A' for Active; 'I' for Inactive)
REMARK    1  A    between atoms: O_2  and  C_16 
REMARK    2  A    between atoms: N_5  and  C_9 
REMARK    3  A    between atoms: N_6  and  C_13 
REMARK       I    between atoms: N_6  and  C_22 
REMARK    4  A    between atoms: C_9  and  C_12 
REMARK    5  A    between atoms: C_13  and  C_16 
REMARK    6  A    between atoms: C_13  and  C_21 
REMARK    7  A    between atoms: C_19  and  C_24 
REMARK    8  A    between atoms: C_22  and  C_23 
REMARK    9  A    between atoms: C_27  and  C_30 
REMARK   10  A    between atoms: N_33  and  S_34 
ROOT
HETATM    1  C   UNL     1       6.270   8.209  88.655  1.00  0.00     0.056 A 
HETATM    2  C   UNL     1       5.961   6.909  88.996  1.00  0.00     0.005 A 
HETATM    3  C   UNL     1       7.505   8.766  88.918  1.00  0.00     0.005 A 
HETATM    4  C   UNL     1       8.185   6.670  89.907  1.00  0.00     0.042 A 
HETATM    5  C   UNL     1       6.929   6.130  89.629  1.00  0.00     0.008 A 
HETATM    6  C   UNL     1       8.474   7.987  89.551  1.00  0.00     0.008 A 
ENDROOT
BRANCH   1   7
HETATM    7  C   UNL     1       5.240   9.039  87.978  1.00  0.00     0.254 C 
HETATM    8  O   UNL     1       5.048   8.892  86.774  1.00  0.00    -0.268 OA
HETATM    9  N   UNL     1       4.539   9.920  88.790  1.00  0.00    -0.337 N 
HETATM   10  HN  UNL     1       4.735   9.968  89.783  1.00  0.00     0.164 HD
BRANCH   9  11
HETATM   11  C   UNL     1       3.493  10.773  88.287  1.00  0.00     0.172 C 
BRANCH  11  12
HETATM   12  C   UNL     1       2.134  10.497  88.944  1.00  0.00     0.136 C 
HETATM   13  C   UNL     1       1.688   9.049  88.776  1.00  0.00     0.034 C 
BRANCH  12  14
HETATM   14  O   UNL     1       2.207  10.801  90.337  1.00  0.00    -0.383 OA
HETATM   15  H   UNL     1       3.065  10.490  90.672  1.00  0.00     0.210 HD
ENDBRANCH  12  14
ENDBRANCH  11  12
BRANCH  11  16
HETATM   16  C   UNL     1       3.928  12.219  88.500  1.00  0.00     0.398 A 
HETATM   17  O   UNL     1       4.763  12.779  87.791  1.00  0.00    -0.136 OA
HETATM   18  N   UNL     1       5.023  13.087  89.257  1.00  0.00     0.142 N 
HETATM   19  HN  UNL     1       5.745  13.624  88.867  1.00  0.00     0.338 HD
BRANCH  18  20
HETATM   20  S   UNL     1       4.788  12.632  90.549  1.00  0.00     0.076 SA
HETATM   21  H   UNL     1       3.688  12.252  90.787  1.00  0.00     0.136 HD
ENDBRANCH  18  20
ENDBRANCH  11  16
ENDBRANCH   9  11
ENDBRANCH   1   7
BRANCH   4  22
HETATM   22  C   UNL     1       9.177   5.872  90.558  1.00  0.00    -0.059 C 
HETATM   23  C   UNL     1      10.011   5.201  91.106  1.00  0.00    -0.059 C 
BRANCH  23  24
HETATM   24  C   UNL     1      11.004   4.403  91.758  1.00  0.00     0.042 A 
HETATM   25  C   UNL     1      11.232   4.557  93.125  1.00  0.00     0.008 A 
HETATM   26  C   UNL     1      12.201   3.781  93.761  1.00  0.00    -0.002 A 
HETATM   27  C   UNL     1      12.940   2.851  93.029  1.00  0.00     0.011 A 
HETATM   28  C   UNL     1      12.710   2.698  91.661  1.00  0.00    -0.002 A 
HETATM   29  C   UNL     1      11.741   3.475  91.026  1.00  0.00     0.008 A 
BRANCH  27  30
HETATM   30  C   UNL     1      13.974   2.020  93.710  1.00  0.00     0.277 C 
BRANCH  30  31
HETATM   31  N   UNL     1      15.139   2.804  94.117  1.00  0.00     0.147 N 
HETATM   32  C   UNL     1      16.372   2.234  93.557  1.00  0.00     0.283 C 
HETATM   33  C   UNL     1      17.572   3.075  93.986  1.00  0.00     0.178 C 
HETATM   34  O   UNL     1      17.409   4.428  93.558  1.00  0.00    -0.350 OA
HETATM   35  C   UNL     1      16.228   5.000  94.123  1.00  0.00     0.178 C 
HETATM   36  C   UNL     1      14.997   4.206  93.699  1.00  0.00     0.283 C 
ENDBRANCH  30  31
ENDBRANCH  27  30
ENDBRANCH  23  24
ENDBRANCH   4  22
TORSDOF 10
ENDMDL
