MODEL 1
REMARK VINA RESULT:      -7.5      0.000      0.000
REMARK  9 active torsions:
REMARK  status: ('A' for Active; 'I' for Inactive)
REMARK    1  A    between atoms: O_2  and  C_17 
REMARK    2  A    between atoms: N_5  and  C_10 
REMARK    3  A    between atoms: N_6  and  C_14 
REMARK       I    between atoms: N_6  and  C_23 
REMARK       I    between atoms: N_7  and  C_22 
REMARK    4  A    between atoms: C_10  and  C_13 
REMARK    5  A    between atoms: C_14  and  C_17 
REMARK    6  A    between atoms: C_14  and  C_22 
REMARK    7  A    between atoms: C_20  and  C_25 
REMARK    8  A    between atoms: C_23  and  C_24 
REMARK    9  A    between atoms: C_28  and  C_31 
ROOT
HETATM    1  O   UNL     1      16.195   3.948  94.106  1.00  0.00    -0.388 OA
HETATM    2  N   UNL     1      14.201   2.679  92.520  1.00  0.00     0.096 N 
HETATM    3  C   UNL     1      14.314   4.143  92.585  1.00  0.00     0.299 C 
HETATM    4  C   UNL     1      14.683   2.081  93.773  1.00  0.00     0.299 C 
HETATM    5  C   UNL     1      15.759   4.537  92.879  1.00  0.00     0.198 C 
HETATM    6  C   UNL     1      16.118   2.524  94.039  1.00  0.00     0.198 C 
ENDROOT
BRANCH   2   7
HETATM    7  C   UNL     1      12.821   2.278  92.250  1.00  0.00     0.311 C 
BRANCH   7   8
HETATM    8  C   UNL     1      11.949   3.437  91.909  1.00  0.00    -0.030 A 
HETATM    9  C   UNL     1      11.769   3.806  90.576  1.00  0.00     0.010 A 
HETATM   10  C   UNL     1      10.954   4.892  90.256  1.00  0.00     0.021 A 
HETATM   11  C   UNL     1      10.319   5.608  91.271  1.00  0.00     0.018 A 
HETATM   12  C   UNL     1      10.498   5.241  92.603  1.00  0.00     0.021 A 
HETATM   13  C   UNL     1      11.313   4.155  92.923  1.00  0.00     0.010 A 
BRANCH  11  14
HETATM   14  C   UNL     1       9.481   6.721  90.943  1.00  0.00    -0.061 C 
HETATM   15  C   UNL     1       8.778   7.656  90.668  1.00  0.00    -0.061 C 
BRANCH  15  16
HETATM   16  C   UNL     1       7.942   8.769  90.340  1.00  0.00     0.018 A 
HETATM   17  C   UNL     1       6.594   8.757  90.700  1.00  0.00     0.022 A 
HETATM   18  C   UNL     1       5.779   9.844  90.382  1.00  0.00     0.018 A 
HETATM   19  C   UNL     1       6.330  10.917  89.715  1.00  0.00     0.032 A 
HETATM   20  C   UNL     1       7.659  10.953  89.348  1.00  0.00     0.018 A 
HETATM   21  C   UNL     1       8.475   9.867  89.665  1.00  0.00     0.022 A 
BRANCH  19  22
HETATM   22  C   UNL     1       5.461  12.074  89.375  1.00  0.00     0.252 C 
HETATM   23  O   UNL     1       5.339  12.408  88.199  1.00  0.00    -0.268 OA
HETATM   24  N   UNL     1       4.820  12.687  90.443  1.00  0.00    -0.342 N 
HETATM   25  H   UNL     1       4.949  12.340  91.386  1.00  0.00     0.163 HD
BRANCH  24  26
HETATM   26  C   UNL     1       3.927  13.804  90.273  1.00  0.00     0.199 C 
BRANCH  26  27
HETATM   27  C   UNL     1       2.730  13.758  91.231  1.00  0.00     0.145 C 
HETATM   28  C   UNL     1       2.348  12.334  91.621  1.00  0.00     0.042 C 
BRANCH  27  29
HETATM   29  O   UNL     1       3.036  14.496  92.414  1.00  0.00    -0.393 OA
HETATM   30  H   UNL     1       2.513  14.129  93.146  1.00  0.00     0.210 HD
ENDBRANCH  27  29
ENDBRANCH  26  27
BRANCH  26  31
HETATM   31  C   UNL     1       4.738  15.082  90.461  1.00  0.00     0.220 C 
HETATM   32  O   UNL     1       4.968  15.573  91.564  1.00  0.00    -0.278 OA
HETATM   33  N   UNL     1       5.137  15.624  89.263  1.00  0.00    -0.271 NA
HETATM   34  H   UNL     1       4.890  15.296  88.336  1.00  0.00     0.127 HD
HETATM   35  H   UNL     1       4.666  16.787  88.632  1.00  0.00     0.127 HD
ENDBRANCH  26  31
ENDBRANCH  24  26
ENDBRANCH  19  22
ENDBRANCH  15  16
ENDBRANCH  11  14
ENDBRANCH   7   8
ENDBRANCH   2   7
TORSDOF 9
ENDMDL
MODEL 2
REMARK VINA RESULT:      -7.0      1.825      2.611
REMARK  9 active torsions:
REMARK  status: ('A' for Active; 'I' for Inactive)
REMARK    1  A    between atoms: O_2  and  C_17 
REMARK    2  A    between atoms: N_5  and  C_10 
REMARK    3  A    between atoms: N_6  and  C_14 
REMARK       I    between atoms: N_6  and  C_23 
REMARK       I    between atoms: N_7  and  C_22 
REMARK    4  A    between atoms: C_10  and  C_13 
REMARK    5  A    between atoms: C_14  and  C_17 
REMARK    6  A    between atoms: C_14  and  C_22 
REMARK    7  A    between atoms: C_20  and  C_25 
REMARK    8  A    between atoms: C_23  and  C_24 
REMARK    9  A    between atoms: C_28  and  C_31 
ROOT
HETATM    1  O   UNL     1      16.073   3.845  94.115  1.00  0.00    -0.388 OA
HETATM    2  N   UNL     1      14.143   2.588  92.443  1.00  0.00     0.096 N 
HETATM    3  C   UNL     1      14.333   4.045  92.435  1.00  0.00     0.299 C 
HETATM    4  C   UNL     1      14.488   2.043  93.763  1.00  0.00     0.299 C 
HETATM    5  C   UNL     1      15.771   4.381  92.825  1.00  0.00     0.198 C 
HETATM    6  C   UNL     1      15.920   2.425  94.123  1.00  0.00     0.198 C 
ENDROOT
BRANCH   2   7
HETATM    7  C   UNL     1      12.769   2.244  92.081  1.00  0.00     0.311 C 
BRANCH   7   8
HETATM    8  C   UNL     1      11.847   3.412  92.176  1.00  0.00    -0.030 A 
HETATM    9  C   UNL     1      11.255   3.927  91.022  1.00  0.00     0.010 A 
HETATM   10  C   UNL     1      10.395   5.021  91.109  1.00  0.00     0.021 A 
HETATM   11  C   UNL     1      10.124   5.597  92.349  1.00  0.00     0.018 A 
HETATM   12  C   UNL     1      10.714   5.083  93.502  1.00  0.00     0.021 A 
HETATM   13  C   UNL     1      11.576   3.990  93.416  1.00  0.00     0.010 A 
BRANCH  11  14
HETATM   14  C   UNL     1       9.239   6.718  92.438  1.00  0.00    -0.061 C 
HETATM   15  C   UNL     1       8.495   7.660  92.514  1.00  0.00    -0.061 C 
BRANCH  15  16
HETATM   16  C   UNL     1       7.612   8.780  92.604  1.00  0.00     0.018 A 
HETATM   17  C   UNL     1       6.828   9.139  91.507  1.00  0.00     0.022 A 
HETATM   18  C   UNL     1       5.964  10.230  91.596  1.00  0.00     0.018 A 
HETATM   19  C   UNL     1       5.902  10.937  92.778  1.00  0.00     0.032 A 
HETATM   20  C   UNL     1       6.666  10.603  93.877  1.00  0.00     0.018 A 
HETATM   21  C   UNL     1       7.531   9.512  93.789  1.00  0.00     0.022 A 
BRANCH  19  22
HETATM   22  C   UNL     1       4.982  12.100  92.872  1.00  0.00     0.252 C 
HETATM   23  O   UNL     1       4.840  12.667  93.953  1.00  0.00    -0.268 OA
HETATM   24  N   UNL     1       4.359  12.479  91.691  1.00  0.00    -0.342 N 
HETATM   25  H   UNL     1       4.545  11.978  90.830  1.00  0.00     0.163 HD
BRANCH  24  26
HETATM   26  C   UNL     1       3.459  13.602  91.615  1.00  0.00     0.199 C 
BRANCH  26  27
HETATM   27  C   UNL     1       3.481  14.288  90.243  1.00  0.00     0.145 C 
HETATM   28  C   UNL     1       4.844  14.887  89.912  1.00  0.00     0.042 C 
BRANCH  27  29
HETATM   29  O   UNL     1       3.132  13.344  89.231  1.00  0.00    -0.393 OA
HETATM   30  H   UNL     1       3.191  12.452  89.613  1.00  0.00     0.210 HD
ENDBRANCH  27  29
ENDBRANCH  26  27
BRANCH  26  31
HETATM   31  C   UNL     1       2.061  13.102  91.962  1.00  0.00     0.220 C 
HETATM   32  O   UNL     1       1.644  11.993  91.632  1.00  0.00    -0.278 OA
HETATM   33  N   UNL     1       1.327  14.044  92.642  1.00  0.00    -0.271 NA
HETATM   34  H   UNL     1       1.606  14.995  92.851  1.00  0.00     0.127 HD
HETATM   35  H   UNL     1       0.238  14.800  92.181  1.00  0.00     0.127 HD
ENDBRANCH  26  31
ENDBRANCH  24  26
ENDBRANCH  19  22
ENDBRANCH  15  16
ENDBRANCH  11  14
ENDBRANCH   7   8
ENDBRANCH   2   7
TORSDOF 9
ENDMDL
MODEL 3
REMARK VINA RESULT:      -6.5      1.901      2.484
REMARK  9 active torsions:
REMARK  status: ('A' for Active; 'I' for Inactive)
REMARK    1  A    between atoms: O_2  and  C_17 
REMARK    2  A    between atoms: N_5  and  C_10 
REMARK    3  A    between atoms: N_6  and  C_14 
REMARK       I    between atoms: N_6  and  C_23 
REMARK       I    between atoms: N_7  and  C_22 
REMARK    4  A    between atoms: C_10  and  C_13 
REMARK    5  A    between atoms: C_14  and  C_17 
REMARK    6  A    between atoms: C_14  and  C_22 
REMARK    7  A    between atoms: C_20  and  C_25 
REMARK    8  A    between atoms: C_23  and  C_24 
REMARK    9  A    between atoms: C_28  and  C_31 
ROOT
HETATM    1  O   UNL     1      16.391   2.940  93.818  1.00  0.00    -0.388 OA
HETATM    2  N   UNL     1      13.805   3.017  92.632  1.00  0.00     0.096 N 
HETATM    3  C   UNL     1      14.467   1.744  92.949  1.00  0.00     0.299 C 
HETATM    4  C   UNL     1      14.810   4.051  92.351  1.00  0.00     0.299 C 
HETATM    5  C   UNL     1      15.422   1.936  94.124  1.00  0.00     0.198 C 
HETATM    6  C   UNL     1      15.757   4.189  93.539  1.00  0.00     0.198 C 
ENDROOT
BRANCH   2   7
HETATM    7  C   UNL     1      12.892   2.859  91.501  1.00  0.00     0.311 C 
BRANCH   7   8
HETATM    8  C   UNL     1      11.769   3.839  91.536  1.00  0.00    -0.030 A 
HETATM    9  C   UNL     1      11.211   4.215  92.759  1.00  0.00     0.010 A 
HETATM   10  C   UNL     1      10.158   5.129  92.793  1.00  0.00     0.021 A 
HETATM   11  C   UNL     1       9.666   5.669  91.605  1.00  0.00     0.018 A 
HETATM   12  C   UNL     1      10.223   5.294  90.384  1.00  0.00     0.021 A 
HETATM   13  C   UNL     1      11.275   4.379  90.349  1.00  0.00     0.010 A 
BRANCH  11  14
HETATM   14  C   UNL     1       8.588   6.609  91.640  1.00  0.00    -0.061 C 
HETATM   15  C   UNL     1       7.682   7.398  91.669  1.00  0.00    -0.061 C 
BRANCH  15  16
HETATM   16  C   UNL     1       6.603   8.337  91.704  1.00  0.00     0.018 A 
HETATM   17  C   UNL     1       5.356   7.985  91.187  1.00  0.00     0.022 A 
HETATM   18  C   UNL     1       4.304   8.899  91.224  1.00  0.00     0.018 A 
HETATM   19  C   UNL     1       4.522  10.144  91.777  1.00  0.00     0.032 A 
HETATM   20  C   UNL     1       5.745  10.516  92.294  1.00  0.00     0.018 A 
HETATM   21  C   UNL     1       6.798   9.602  92.258  1.00  0.00     0.022 A 
BRANCH  19  22
HETATM   22  C   UNL     1       3.401  11.119  91.814  1.00  0.00     0.252 C 
HETATM   23  O   UNL     1       2.316  10.804  91.331  1.00  0.00    -0.268 OA
HETATM   24  N   UNL     1       3.671  12.332  92.432  1.00  0.00    -0.342 N 
HETATM   25  H   UNL     1       4.584  12.513  92.831  1.00  0.00     0.163 HD
BRANCH  24  26
HETATM   26  C   UNL     1       2.681  13.370  92.568  1.00  0.00     0.199 C 
BRANCH  26  27
HETATM   27  C   UNL     1       2.960  14.305  93.752  1.00  0.00     0.145 C 
HETATM   28  C   UNL     1       4.438  14.351  94.124  1.00  0.00     0.042 C 
BRANCH  27  29
HETATM   29  O   UNL     1       2.521  15.625  93.432  1.00  0.00    -0.393 OA
HETATM   30  H   UNL     1       1.993  15.581  92.617  1.00  0.00     0.210 HD
ENDBRANCH  27  29
ENDBRANCH  26  27
BRANCH  26  31
HETATM   31  C   UNL     1       2.629  14.141  91.253  1.00  0.00     0.220 C 
HETATM   32  O   UNL     1       3.621  14.653  90.738  1.00  0.00    -0.278 OA
HETATM   33  N   UNL     1       1.354  14.222  90.749  1.00  0.00    -0.271 NA
HETATM   34  H   UNL     1       0.504  13.891  91.191  1.00  0.00     0.127 HD
HETATM   35  H   UNL     1       0.510  15.343  90.690  1.00  0.00     0.127 HD
ENDBRANCH  26  31
ENDBRANCH  24  26
ENDBRANCH  19  22
ENDBRANCH  15  16
ENDBRANCH  11  14
ENDBRANCH   7   8
ENDBRANCH   2   7
TORSDOF 9
ENDMDL
MODEL 4
REMARK VINA RESULT:      -5.8      1.907     12.285
REMARK  9 active torsions:
REMARK  status: ('A' for Active; 'I' for Inactive)
REMARK    1  A    between atoms: O_2  and  C_17 
REMARK    2  A    between atoms: N_5  and  C_10 
REMARK    3  A    between atoms: N_6  and  C_14 
REMARK       I    between atoms: N_6  and  C_23 
REMARK       I    between atoms: N_7  and  C_22 
REMARK    4  A    between atoms: C_10  and  C_13 
REMARK    5  A    between atoms: C_14  and  C_17 
REMARK    6  A    between atoms: C_14  and  C_22 
REMARK    7  A    between atoms: C_20  and  C_25 
REMARK    8  A    between atoms: C_23  and  C_24 
REMARK    9  A    between atoms: C_28  and  C_31 
ROOT
HETATM    1  O   UNL     1       5.562  14.705  88.624  1.00  0.00    -0.388 OA
HETATM    2  N   UNL     1       3.598  13.090  89.903  1.00  0.00     0.096 N 
HETATM    3  C   UNL     1       4.197  14.250  90.578  1.00  0.00     0.299 C 
HETATM    4  C   UNL     1       4.549  12.523  88.938  1.00  0.00     0.299 C 
HETATM    5  C   UNL     1       4.632  15.283  89.542  1.00  0.00     0.198 C 
HETATM    6  C   UNL     1       4.977  13.596  87.941  1.00  0.00     0.198 C 
ENDROOT
BRANCH   2   7
HETATM    7  C   UNL     1       3.182  12.082  90.877  1.00  0.00     0.311 C 
BRANCH   7   8
HETATM    8  C   UNL     1       4.256  11.086  91.157  1.00  0.00    -0.030 A 
HETATM    9  C   UNL     1       5.144  11.298  92.212  1.00  0.00     0.010 A 
HETATM   10  C   UNL     1       6.150  10.368  92.473  1.00  0.00     0.021 A 
HETATM   11  C   UNL     1       6.266   9.226  91.681  1.00  0.00     0.018 A 
HETATM   12  C   UNL     1       5.379   9.014  90.628  1.00  0.00     0.021 A 
HETATM   13  C   UNL     1       4.373   9.944  90.365  1.00  0.00     0.010 A 
BRANCH  11  14
HETATM   14  C   UNL     1       7.297   8.271  91.951  1.00  0.00    -0.061 C 
HETATM   15  C   UNL     1       8.163   7.469  92.176  1.00  0.00    -0.061 C 
BRANCH  15  16
HETATM   16  C   UNL     1       9.194   6.515  92.445  1.00  0.00     0.018 A 
HETATM   17  C   UNL     1       9.590   6.270  93.760  1.00  0.00     0.022 A 
HETATM   18  C   UNL     1      10.594   5.338  94.022  1.00  0.00     0.018 A 
HETATM   19  C   UNL     1      11.177   4.671  92.965  1.00  0.00     0.032 A 
HETATM   20  C   UNL     1      10.803   4.895  91.657  1.00  0.00     0.018 A 
HETATM   21  C   UNL     1       9.799   5.828  91.393  1.00  0.00     0.022 A 
BRANCH  19  22
HETATM   22  C   UNL     1      12.247   3.679  93.245  1.00  0.00     0.252 C 
HETATM   23  O   UNL     1      11.942   2.503  93.430  1.00  0.00    -0.268 OA
HETATM   24  N   UNL     1      13.545   4.170  93.250  1.00  0.00    -0.342 N 
HETATM   25  H   UNL     1      13.724   5.150  93.063  1.00  0.00     0.163 HD
BRANCH  24  26
HETATM   26  C   UNL     1      14.692   3.329  93.481  1.00  0.00     0.199 C 
BRANCH  26  27
HETATM   27  C   UNL     1      15.023   2.433  92.281  1.00  0.00     0.145 C 
HETATM   28  C   UNL     1      14.699   3.099  90.948  1.00  0.00     0.042 C 
BRANCH  27  29
HETATM   29  O   UNL     1      16.410   2.096  92.305  1.00  0.00    -0.393 OA
HETATM   30  H   UNL     1      16.495   1.143  92.134  1.00  0.00     0.210 HD
ENDBRANCH  27  29
ENDBRANCH  26  27
BRANCH  26  31
HETATM   31  C   UNL     1      15.868   4.232  93.840  1.00  0.00     0.220 C 
HETATM   32  O   UNL     1      15.795   5.460  93.836  1.00  0.00    -0.278 OA
HETATM   33  N   UNL     1      17.005   3.516  94.124  1.00  0.00    -0.271 NA
HETATM   34  H   UNL     1      17.124   2.512  94.050  1.00  0.00     0.127 HD
HETATM   35  H   UNL     1      18.172   3.393  93.354  1.00  0.00     0.127 HD
ENDBRANCH  26  31
ENDBRANCH  24  26
ENDBRANCH  19  22
ENDBRANCH  15  16
ENDBRANCH  11  14
ENDBRANCH   7   8
ENDBRANCH   2   7
TORSDOF 9
ENDMDL
MODEL 5
REMARK VINA RESULT:      -5.5      1.953     12.265
REMARK  9 active torsions:
REMARK  status: ('A' for Active; 'I' for Inactive)
REMARK    1  A    between atoms: O_2  and  C_17 
REMARK    2  A    between atoms: N_5  and  C_10 
REMARK    3  A    between atoms: N_6  and  C_14 
REMARK       I    between atoms: N_6  and  C_23 
REMARK       I    between atoms: N_7  and  C_22 
REMARK    4  A    between atoms: C_10  and  C_13 
REMARK    5  A    between atoms: C_14  and  C_17 
REMARK    6  A    between atoms: C_14  and  C_22 
REMARK    7  A    between atoms: C_20  and  C_25 
REMARK    8  A    between atoms: C_23  and  C_24 
REMARK    9  A    between atoms: C_28  and  C_31 
ROOT
HETATM    1  O   UNL     1       5.640  14.568  88.535  1.00  0.00    -0.388 OA
HETATM    2  N   UNL     1       3.781  13.310  90.286  1.00  0.00     0.096 N 
HETATM    3  C   UNL     1       4.634  14.418  90.739  1.00  0.00     0.299 C 
HETATM    4  C   UNL     1       4.453  12.564  89.213  1.00  0.00     0.299 C 
HETATM    5  C   UNL     1       4.981  15.319  89.557  1.00  0.00     0.198 C 
HETATM    6  C   UNL     1       4.805  13.508  88.068  1.00  0.00     0.198 C 
ENDROOT
BRANCH   2   7
HETATM    7  C   UNL     1       3.444  12.426  91.401  1.00  0.00     0.311 C 
BRANCH   7   8
HETATM    8  C   UNL     1       4.483  11.383  91.632  1.00  0.00    -0.030 A 
HETATM    9  C   UNL     1       4.483  10.217  90.865  1.00  0.00     0.010 A 
HETATM   10  C   UNL     1       5.453   9.239  91.082  1.00  0.00     0.021 A 
HETATM   11  C   UNL     1       6.424   9.428  92.065  1.00  0.00     0.018 A 
HETATM   12  C   UNL     1       6.426  10.591  92.832  1.00  0.00     0.021 A 
HETATM   13  C   UNL     1       5.455  11.569  92.615  1.00  0.00     0.010 A 
BRANCH  11  14
HETATM   14  C   UNL     1       7.421   8.425  92.286  1.00  0.00    -0.061 C 
HETATM   15  C   UNL     1       8.258   7.583  92.473  1.00  0.00    -0.061 C 
BRANCH  15  16
HETATM   16  C   UNL     1       9.253   6.581  92.694  1.00  0.00     0.018 A 
HETATM   17  C   UNL     1       9.541   5.652  91.694  1.00  0.00     0.022 A 
HETATM   18  C   UNL     1      10.514   4.675  91.909  1.00  0.00     0.018 A 
HETATM   19  C   UNL     1      11.177   4.651  93.118  1.00  0.00     0.032 A 
HETATM   20  C   UNL     1      10.911   5.557  94.123  1.00  0.00     0.018 A 
HETATM   21  C   UNL     1       9.938   6.534  93.909  1.00  0.00     0.022 A 
BRANCH  19  22
HETATM   22  C   UNL     1      12.212   3.609  93.348  1.00  0.00     0.252 C 
HETATM   23  O   UNL     1      11.868   2.434  93.450  1.00  0.00    -0.268 OA
HETATM   24  N   UNL     1      13.524   4.058  93.406  1.00  0.00    -0.342 N 
HETATM   25  H   UNL     1      13.735   5.042  93.288  1.00  0.00     0.163 HD
BRANCH  24  26
HETATM   26  C   UNL     1      14.641   3.168  93.599  1.00  0.00     0.199 C 
BRANCH  26  27
HETATM   27  C   UNL     1      14.925   2.298  92.368  1.00  0.00     0.145 C 
HETATM   28  C   UNL     1      14.552   0.836  92.588  1.00  0.00     0.042 C 
BRANCH  27  29
HETATM   29  O   UNL     1      14.194   2.800  91.250  1.00  0.00    -0.393 OA
HETATM   30  H   UNL     1      14.830   3.074  90.568  1.00  0.00     0.210 HD
ENDBRANCH  27  29
ENDBRANCH  26  27
BRANCH  26  31
HETATM   31  C   UNL     1      15.853   4.016  93.971  1.00  0.00     0.220 C 
HETATM   32  O   UNL     1      15.806   5.239  94.084  1.00  0.00    -0.278 OA
HETATM   33  N   UNL     1      16.989   3.258  94.122  1.00  0.00    -0.271 NA
HETATM   34  H   UNL     1      17.083   2.264  93.949  1.00  0.00     0.127 HD
HETATM   35  H   UNL     1      18.109   3.189  93.278  1.00  0.00     0.127 HD
ENDBRANCH  26  31
ENDBRANCH  24  26
ENDBRANCH  19  22
ENDBRANCH  15  16
ENDBRANCH  11  14
ENDBRANCH   7   8
ENDBRANCH   2   7
TORSDOF 9
ENDMDL
MODEL 6
REMARK VINA RESULT:      -5.5      1.645     12.364
REMARK  9 active torsions:
REMARK  status: ('A' for Active; 'I' for Inactive)
REMARK    1  A    between atoms: O_2  and  C_17 
REMARK    2  A    between atoms: N_5  and  C_10 
REMARK    3  A    between atoms: N_6  and  C_14 
REMARK       I    between atoms: N_6  and  C_23 
REMARK       I    between atoms: N_7  and  C_22 
REMARK    4  A    between atoms: C_10  and  C_13 
REMARK    5  A    between atoms: C_14  and  C_17 
REMARK    6  A    between atoms: C_14  and  C_22 
REMARK    7  A    between atoms: C_20  and  C_25 
REMARK    8  A    between atoms: C_23  and  C_24 
REMARK    9  A    between atoms: C_28  and  C_31 
ROOT
HETATM    1  O   UNL     1       3.194  14.341  92.155  1.00  0.00    -0.388 OA
HETATM    2  N   UNL     1       3.971  13.956  89.444  1.00  0.00     0.096 N 
HETATM    3  C   UNL     1       2.902  13.155  90.058  1.00  0.00     0.299 C 
HETATM    4  C   UNL     1       4.937  14.376  90.469  1.00  0.00     0.299 C 
HETATM    5  C   UNL     1       2.232  13.955  91.172  1.00  0.00     0.198 C 
HETATM    6  C   UNL     1       4.220  15.146  91.573  1.00  0.00     0.198 C 
ENDROOT
BRANCH   2   7
HETATM    7  C   UNL     1       4.634  13.205  88.380  1.00  0.00     0.311 C 
BRANCH   7   8
HETATM    8  C   UNL     1       5.485  12.100  88.910  1.00  0.00    -0.030 A 
HETATM    9  C   UNL     1       6.875  12.207  88.861  1.00  0.00     0.010 A 
HETATM   10  C   UNL     1       7.671  11.174  89.354  1.00  0.00     0.021 A 
HETATM   11  C   UNL     1       7.077  10.036  89.898  1.00  0.00     0.018 A 
HETATM   12  C   UNL     1       5.689   9.928  89.948  1.00  0.00     0.021 A 
HETATM   13  C   UNL     1       4.892  10.961  89.454  1.00  0.00     0.010 A 
BRANCH  11  14
HETATM   14  C   UNL     1       7.894   8.977  90.406  1.00  0.00    -0.061 C 
HETATM   15  C   UNL     1       8.581   8.087  90.834  1.00  0.00    -0.061 C 
BRANCH  15  16
HETATM   16  C   UNL     1       9.396   7.029  91.342  1.00  0.00     0.018 A 
HETATM   17  C   UNL     1      10.096   6.204  90.461  1.00  0.00     0.022 A 
HETATM   18  C   UNL     1      10.894   5.173  90.957  1.00  0.00     0.018 A 
HETATM   19  C   UNL     1      10.975   4.991  92.322  1.00  0.00     0.032 A 
HETATM   20  C   UNL     1      10.293   5.792  93.213  1.00  0.00     0.018 A 
HETATM   21  C   UNL     1       9.494   6.823  92.718  1.00  0.00     0.022 A 
BRANCH  19  22
HETATM   22  C   UNL     1      11.824   3.891  92.850  1.00  0.00     0.252 C 
HETATM   23  O   UNL     1      11.328   2.780  93.021  1.00  0.00    -0.268 OA
HETATM   24  N   UNL     1      13.153   4.211  93.091  1.00  0.00    -0.342 N 
HETATM   25  H   UNL     1      13.498   5.145  92.901  1.00  0.00     0.163 HD
BRANCH  24  26
HETATM   26  C   UNL     1      14.106   3.247  93.580  1.00  0.00     0.199 C 
BRANCH  26  27
HETATM   27  C   UNL     1      14.269   2.045  92.642  1.00  0.00     0.145 C 
HETATM   28  C   UNL     1      15.204   2.338  91.474  1.00  0.00     0.042 C 
BRANCH  27  29
HETATM   29  O   UNL     1      14.780   0.933  93.376  1.00  0.00    -0.393 OA
HETATM   30  H   UNL     1      14.383   0.121  93.016  1.00  0.00     0.210 HD
ENDBRANCH  27  29
ENDBRANCH  26  27
BRANCH  26  31
HETATM   31  C   UNL     1      15.432   3.970  93.791  1.00  0.00     0.220 C 
HETATM   32  O   UNL     1      15.565   5.183  93.641  1.00  0.00    -0.278 OA
HETATM   33  N   UNL     1      16.447   3.106  94.124  1.00  0.00    -0.271 NA
HETATM   34  H   UNL     1      16.393   2.095  94.168  1.00  0.00     0.127 HD
HETATM   35  H   UNL     1      17.537   2.697  93.339  1.00  0.00     0.127 HD
ENDBRANCH  26  31
ENDBRANCH  24  26
ENDBRANCH  19  22
ENDBRANCH  15  16
ENDBRANCH  11  14
ENDBRANCH   7   8
ENDBRANCH   2   7
TORSDOF 9
ENDMDL
MODEL 7
REMARK VINA RESULT:      -5.2      2.360     12.363
REMARK  9 active torsions:
REMARK  status: ('A' for Active; 'I' for Inactive)
REMARK    1  A    between atoms: O_2  and  C_17 
REMARK    2  A    between atoms: N_5  and  C_10 
REMARK    3  A    between atoms: N_6  and  C_14 
REMARK       I    between atoms: N_6  and  C_23 
REMARK       I    between atoms: N_7  and  C_22 
REMARK    4  A    between atoms: C_10  and  C_13 
REMARK    5  A    between atoms: C_14  and  C_17 
REMARK    6  A    between atoms: C_14  and  C_22 
REMARK    7  A    between atoms: C_20  and  C_25 
REMARK    8  A    between atoms: C_23  and  C_24 
REMARK    9  A    between atoms: C_28  and  C_31 
ROOT
HETATM    1  O   UNL     1       3.753  14.742  89.684  1.00  0.00    -0.388 OA
HETATM    2  N   UNL     1       3.017  14.140  92.366  1.00  0.00     0.096 N 
HETATM    3  C   UNL     1       4.358  14.638  92.032  1.00  0.00     0.299 C 
HETATM    4  C   UNL     1       2.459  13.393  91.230  1.00  0.00     0.299 C 
HETATM    5  C   UNL     1       4.291  15.497  90.771  1.00  0.00     0.198 C 
HETATM    6  C   UNL     1       2.437  14.279  89.989  1.00  0.00     0.198 C 
ENDROOT
BRANCH   2   7
HETATM    7  C   UNL     1       3.059  13.305  93.566  1.00  0.00     0.311 C 
BRANCH   7   8
HETATM    8  C   UNL     1       4.013  12.167  93.433  1.00  0.00    -0.030 A 
HETATM    9  C   UNL     1       3.677  11.066  92.644  1.00  0.00     0.010 A 
HETATM   10  C   UNL     1       4.568  10.000  92.521  1.00  0.00     0.021 A 
HETATM   11  C   UNL     1       5.794  10.036  93.184  1.00  0.00     0.018 A 
HETATM   12  C   UNL     1       6.130  11.135  93.972  1.00  0.00     0.021 A 
HETATM   13  C   UNL     1       5.240  12.202  94.096  1.00  0.00     0.010 A 
BRANCH  11  14
HETATM   14  C   UNL     1       6.708   8.943  93.056  1.00  0.00    -0.061 C 
HETATM   15  C   UNL     1       7.476   8.025  92.947  1.00  0.00    -0.061 C 
BRANCH  15  16
HETATM   16  C   UNL     1       8.390   6.933  92.818  1.00  0.00     0.018 A 
HETATM   17  C   UNL     1       9.242   6.609  93.874  1.00  0.00     0.022 A 
HETATM   18  C   UNL     1      10.132   5.542  93.749  1.00  0.00     0.018 A 
HETATM   19  C   UNL     1      10.150   4.823  92.572  1.00  0.00     0.032 A 
HETATM   20  C   UNL     1       9.318   5.124  91.513  1.00  0.00     0.018 A 
HETATM   21  C   UNL     1       8.428   6.191  91.637  1.00  0.00     0.022 A 
BRANCH  19  22
HETATM   22  C   UNL     1      11.099   3.688  92.438  1.00  0.00     0.252 C 
HETATM   23  O   UNL     1      10.658   2.544  92.356  1.00  0.00    -0.268 OA
HETATM   24  N   UNL     1      12.445   4.023  92.391  1.00  0.00    -0.342 N 
HETATM   25  H   UNL     1      12.734   4.993  92.440  1.00  0.00     0.163 HD
BRANCH  24  26
HETATM   26  C   UNL     1      13.485   3.038  92.240  1.00  0.00     0.199 C 
BRANCH  26  27
HETATM   27  C   UNL     1      14.280   3.209  90.939  1.00  0.00     0.145 C 
HETATM   28  C   UNL     1      14.099   4.591  90.322  1.00  0.00     0.042 C 
BRANCH  27  29
HETATM   29  O   UNL     1      15.667   2.994  91.196  1.00  0.00    -0.393 OA
HETATM   30  H   UNL     1      16.139   3.830  91.042  1.00  0.00     0.210 HD
ENDBRANCH  27  29
ENDBRANCH  26  27
BRANCH  26  31
HETATM   31  C   UNL     1      14.394   3.128  93.461  1.00  0.00     0.220 C 
HETATM   32  O   UNL     1      14.975   4.161  93.789  1.00  0.00    -0.278 OA
HETATM   33  N   UNL     1      14.509   1.924  94.112  1.00  0.00    -0.271 NA
HETATM   34  H   UNL     1      14.117   1.036  93.820  1.00  0.00     0.127 HD
HETATM   35  H   UNL     1      15.615   1.060  94.160  1.00  0.00     0.127 HD
ENDBRANCH  26  31
ENDBRANCH  24  26
ENDBRANCH  19  22
ENDBRANCH  15  16
ENDBRANCH  11  14
ENDBRANCH   7   8
ENDBRANCH   2   7
TORSDOF 9
ENDMDL
MODEL 8
REMARK VINA RESULT:      -5.0      2.213     12.336
REMARK  9 active torsions:
REMARK  status: ('A' for Active; 'I' for Inactive)
REMARK    1  A    between atoms: O_2  and  C_17 
REMARK    2  A    between atoms: N_5  and  C_10 
REMARK    3  A    between atoms: N_6  and  C_14 
REMARK       I    between atoms: N_6  and  C_23 
REMARK       I    between atoms: N_7  and  C_22 
REMARK    4  A    between atoms: C_10  and  C_13 
REMARK    5  A    between atoms: C_14  and  C_17 
REMARK    6  A    between atoms: C_14  and  C_22 
REMARK    7  A    between atoms: C_20  and  C_25 
REMARK    8  A    between atoms: C_23  and  C_24 
REMARK    9  A    between atoms: C_28  and  C_31 
ROOT
HETATM    1  O   UNL     1       3.309  14.668  91.834  1.00  0.00    -0.388 OA
HETATM    2  N   UNL     1       1.862  12.218  91.902  1.00  0.00     0.096 N 
HETATM    3  C   UNL     1       2.000  13.062  93.097  1.00  0.00     0.299 C 
HETATM    4  C   UNL     1       3.023  12.401  91.021  1.00  0.00     0.299 C 
HETATM    5  C   UNL     1       2.169  14.521  92.683  1.00  0.00     0.198 C 
HETATM    6  C   UNL     1       3.169  13.875  90.655  1.00  0.00     0.198 C 
ENDROOT
BRANCH   2   7
HETATM    7  C   UNL     1       1.710  10.813  92.276  1.00  0.00     0.311 C 
BRANCH   7   8
HETATM    8  C   UNL     1       2.989  10.054  92.169  1.00  0.00    -0.030 A 
HETATM    9  C   UNL     1       3.236   9.259  91.050  1.00  0.00     0.010 A 
HETATM   10  C   UNL     1       4.431   8.547  90.950  1.00  0.00     0.021 A 
HETATM   11  C   UNL     1       5.380   8.634  91.969  1.00  0.00     0.018 A 
HETATM   12  C   UNL     1       5.134   9.428  93.087  1.00  0.00     0.021 A 
HETATM   13  C   UNL     1       3.939  10.139  93.187  1.00  0.00     0.010 A 
BRANCH  11  14
HETATM   14  C   UNL     1       6.607   7.905  91.865  1.00  0.00    -0.061 C 
HETATM   15  C   UNL     1       7.638   7.293  91.777  1.00  0.00    -0.061 C 
BRANCH  15  16
HETATM   16  C   UNL     1       8.864   6.566  91.673  1.00  0.00     0.018 A 
HETATM   17  C   UNL     1       9.368   6.226  90.417  1.00  0.00     0.022 A 
HETATM   18  C   UNL     1      10.566   5.519  90.315  1.00  0.00     0.018 A 
HETATM   19  C   UNL     1      11.233   5.168  91.470  1.00  0.00     0.032 A 
HETATM   20  C   UNL     1      10.756   5.492  92.723  1.00  0.00     0.018 A 
HETATM   21  C   UNL     1       9.558   6.199  92.826  1.00  0.00     0.022 A 
BRANCH  19  22
HETATM   22  C   UNL     1      12.508   4.413  91.362  1.00  0.00     0.252 C 
HETATM   23  O   UNL     1      12.898   4.050  90.254  1.00  0.00    -0.268 OA
HETATM   24  N   UNL     1      13.188   4.194  92.552  1.00  0.00    -0.342 N 
HETATM   25  H   UNL     1      12.818   4.545  93.427  1.00  0.00     0.163 HD
BRANCH  24  26
HETATM   26  C   UNL     1      14.449   3.499  92.607  1.00  0.00     0.199 C 
BRANCH  26  27
HETATM   27  C   UNL     1      15.387   4.057  93.685  1.00  0.00     0.145 C 
HETATM   28  C   UNL     1      16.615   3.180  93.902  1.00  0.00     0.042 C 
BRANCH  27  29
HETATM   29  O   UNL     1      15.814   5.368  93.314  1.00  0.00    -0.393 OA
HETATM   30  H   UNL     1      15.026   5.898  93.107  1.00  0.00     0.210 HD
ENDBRANCH  27  29
ENDBRANCH  26  27
BRANCH  26  31
HETATM   31  C   UNL     1      14.157   2.020  92.839  1.00  0.00     0.220 C 
HETATM   32  O   UNL     1      14.915   1.277  93.459  1.00  0.00    -0.278 OA
HETATM   33  N   UNL     1      12.982   1.624  92.246  1.00  0.00    -0.271 NA
HETATM   34  H   UNL     1      12.381   2.187  91.656  1.00  0.00     0.127 HD
HETATM   35  H   UNL     1      12.808   0.815  91.112  1.00  0.00     0.127 HD
ENDBRANCH  26  31
ENDBRANCH  24  26
ENDBRANCH  19  22
ENDBRANCH  15  16
ENDBRANCH  11  14
ENDBRANCH   7   8
ENDBRANCH   2   7
TORSDOF 9
ENDMDL
MODEL 9
REMARK VINA RESULT:      -5.0      1.984      2.634
REMARK  9 active torsions:
REMARK  status: ('A' for Active; 'I' for Inactive)
REMARK    1  A    between atoms: O_2  and  C_17 
REMARK    2  A    between atoms: N_5  and  C_10 
REMARK    3  A    between atoms: N_6  and  C_14 
REMARK       I    between atoms: N_6  and  C_23 
REMARK       I    between atoms: N_7  and  C_22 
REMARK    4  A    between atoms: C_10  and  C_13 
REMARK    5  A    between atoms: C_14  and  C_17 
REMARK    6  A    between atoms: C_14  and  C_22 
REMARK    7  A    between atoms: C_20  and  C_25 
REMARK    8  A    between atoms: C_23  and  C_24 
REMARK    9  A    between atoms: C_28  and  C_31 
ROOT
HETATM    1  O   UNL     1      16.805   2.617  92.845  1.00  0.00    -0.388 OA
HETATM    2  N   UNL     1      13.990   2.973  93.076  1.00  0.00     0.096 N 
HETATM    3  C   UNL     1      14.767   2.297  94.124  1.00  0.00     0.299 C 
HETATM    4  C   UNL     1      14.637   2.785  91.770  1.00  0.00     0.299 C 
HETATM    5  C   UNL     1      16.201   2.821  94.124  1.00  0.00     0.198 C 
HETATM    6  C   UNL     1      16.073   3.296  91.824  1.00  0.00     0.198 C 
ENDROOT
BRANCH   2   7
HETATM    7  C   UNL     1      12.615   2.478  93.051  1.00  0.00     0.311 C 
BRANCH   7   8
HETATM    8  C   UNL     1      11.614   3.582  93.041  1.00  0.00    -0.030 A 
HETATM    9  C   UNL     1      10.760   3.739  91.949  1.00  0.00     0.010 A 
HETATM   10  C   UNL     1       9.824   4.773  91.937  1.00  0.00     0.021 A 
HETATM   11  C   UNL     1       9.742   5.649  93.020  1.00  0.00     0.018 A 
HETATM   12  C   UNL     1      10.594   5.494  94.111  1.00  0.00     0.021 A 
HETATM   13  C   UNL     1      11.530   4.460  94.122  1.00  0.00     0.010 A 
BRANCH  11  14
HETATM   14  C   UNL     1       8.781   6.709  93.009  1.00  0.00    -0.061 C 
HETATM   15  C   UNL     1       7.973   7.600  92.999  1.00  0.00    -0.061 C 
BRANCH  15  16
HETATM   16  C   UNL     1       7.012   8.658  92.988  1.00  0.00     0.018 A 
HETATM   17  C   UNL     1       6.932   9.537  94.069  1.00  0.00     0.022 A 
HETATM   18  C   UNL     1       5.996  10.572  94.056  1.00  0.00     0.018 A 
HETATM   19  C   UNL     1       5.164  10.704  92.964  1.00  0.00     0.032 A 
HETATM   20  C   UNL     1       5.223   9.849  91.885  1.00  0.00     0.018 A 
HETATM   21  C   UNL     1       6.159   8.814  91.896  1.00  0.00     0.022 A 
BRANCH  19  22
HETATM   22  C   UNL     1       4.166  11.805  92.953  1.00  0.00     0.252 C 
HETATM   23  O   UNL     1       3.272  11.814  93.796  1.00  0.00    -0.268 OA
HETATM   24  N   UNL     1       4.343  12.776  91.976  1.00  0.00    -0.342 N 
HETATM   25  H   UNL     1       5.120  12.716  91.329  1.00  0.00     0.163 HD
BRANCH  24  26
HETATM   26  C   UNL     1       3.473  13.918  91.851  1.00  0.00     0.199 C 
BRANCH  26  27
HETATM   27  C   UNL     1       3.732  14.982  92.926  1.00  0.00     0.145 C 
HETATM   28  C   UNL     1       2.505  15.248  93.791  1.00  0.00     0.042 C 
BRANCH  27  29
HETATM   29  O   UNL     1       4.807  14.561  93.764  1.00  0.00    -0.393 OA
HETATM   30  H   UNL     1       5.548  14.289  93.197  1.00  0.00     0.210 HD
ENDBRANCH  27  29
ENDBRANCH  26  27
BRANCH  26  31
HETATM   31  C   UNL     1       3.654  14.490  90.449  1.00  0.00     0.220 C 
HETATM   32  O   UNL     1       4.598  15.214  90.139  1.00  0.00    -0.278 OA
HETATM   33  N   UNL     1       2.630  14.134  89.607  1.00  0.00    -0.271 NA
HETATM   34  H   UNL     1       1.794  13.615  89.852  1.00  0.00     0.127 HD
HETATM   35  H   UNL     1       1.598  14.939  89.099  1.00  0.00     0.127 HD
ENDBRANCH  26  31
ENDBRANCH  24  26
ENDBRANCH  19  22
ENDBRANCH  15  16
ENDBRANCH  11  14
ENDBRANCH   7   8
ENDBRANCH   2   7
TORSDOF 9
ENDMDL
