MODEL 1
REMARK VINA RESULT:      -6.8      0.000      0.000
REMARK  9 active torsions:
REMARK  status: ('A' for Active; 'I' for Inactive)
REMARK    1  A    between atoms: O_2  and  C_17 
REMARK    2  A    between atoms: N_5  and  C_10 
REMARK    3  A    between atoms: N_6  and  C_14 
REMARK       I    between atoms: N_6  and  C_23 
REMARK       I    between atoms: N_7  and  C_22 
REMARK    4  A    between atoms: C_10  and  C_13 
REMARK    5  A    between atoms: C_14  and  C_17 
REMARK    6  A    between atoms: C_14  and  C_22 
REMARK    7  A    between atoms: C_20  and  C_25 
REMARK    8  A    between atoms: C_23  and  C_24 
REMARK    9  A    between atoms: C_28  and  C_31 
ROOT
HETATM    1  O   UNL     1      16.895   3.837  93.735  1.00  0.00    -0.388 OA
HETATM    2  N   UNL     1      14.255   2.934  93.170  1.00  0.00     0.096 N 
HETATM    3  C   UNL     1      15.398   2.011  93.174  1.00  0.00     0.299 C 
HETATM    4  C   UNL     1      14.701   4.285  92.802  1.00  0.00     0.299 C 
HETATM    5  C   UNL     1      16.476   2.527  94.124  1.00  0.00     0.198 C 
HETATM    6  C   UNL     1      15.795   4.748  93.759  1.00  0.00     0.198 C 
ENDROOT
BRANCH   2   7
HETATM    7  C   UNL     1      13.213   2.464  92.258  1.00  0.00     0.311 C 
BRANCH   7   8
HETATM    8  C   UNL     1      12.236   3.536  91.911  1.00  0.00    -0.030 A 
HETATM    9  C   UNL     1      12.127   3.978  90.593  1.00  0.00     0.010 A 
HETATM   10  C   UNL     1      11.214   4.982  90.268  1.00  0.00     0.021 A 
HETATM   11  C   UNL     1      10.411   5.541  91.261  1.00  0.00     0.018 A 
HETATM   12  C   UNL     1      10.520   5.100  92.578  1.00  0.00     0.021 A 
HETATM   13  C   UNL     1      11.432   4.096  92.904  1.00  0.00     0.010 A 
BRANCH  11  14
HETATM   14  C   UNL     1       9.474   6.569  90.927  1.00  0.00    -0.061 C 
HETATM   15  C   UNL     1       8.686   7.433  90.647  1.00  0.00    -0.061 C 
BRANCH  15  16
HETATM   16  C   UNL     1       7.750   8.461  90.314  1.00  0.00     0.018 A 
HETATM   17  C   UNL     1       8.084   9.800  90.518  1.00  0.00     0.022 A 
HETATM   18  C   UNL     1       7.172  10.803  90.190  1.00  0.00     0.018 A 
HETATM   19  C   UNL     1       5.948  10.445  89.665  1.00  0.00     0.032 A 
HETATM   20  C   UNL     1       5.594   9.129  89.455  1.00  0.00     0.018 A 
HETATM   21  C   UNL     1       6.505   8.125  89.782  1.00  0.00     0.022 A 
BRANCH  19  22
HETATM   22  C   UNL     1       4.976  11.514  89.318  1.00  0.00     0.252 C 
HETATM   23  O   UNL     1       4.428  11.492  88.219  1.00  0.00    -0.268 OA
HETATM   24  N   UNL     1       4.740  12.464  90.302  1.00  0.00    -0.342 N 
HETATM   25  H   UNL     1       5.211  12.404  91.197  1.00  0.00     0.163 HD
BRANCH  24  26
HETATM   26  C   UNL     1       3.807  13.548  90.125  1.00  0.00     0.199 C 
BRANCH  26  27
HETATM   27  C   UNL     1       2.987  13.838  91.389  1.00  0.00     0.145 C 
HETATM   28  C   UNL     1       1.533  14.175  91.078  1.00  0.00     0.042 C 
BRANCH  27  29
HETATM   29  O   UNL     1       3.024  12.702  92.253  1.00  0.00    -0.393 OA
HETATM   30  H   UNL     1       2.143  12.292  92.255  1.00  0.00     0.210 HD
ENDBRANCH  27  29
ENDBRANCH  26  27
BRANCH  26  31
HETATM   31  C   UNL     1       4.597  14.775  89.683  1.00  0.00     0.220 C 
HETATM   32  O   UNL     1       4.972  14.949  88.525  1.00  0.00    -0.278 OA
HETATM   33  N   UNL     1       4.864  15.625  90.729  1.00  0.00    -0.271 NA
HETATM   34  H   UNL     1       4.649  15.470  91.707  1.00  0.00     0.127 HD
HETATM   35  H   UNL     1       6.093  15.865  91.364  1.00  0.00     0.127 HD
ENDBRANCH  26  31
ENDBRANCH  24  26
ENDBRANCH  19  22
ENDBRANCH  15  16
ENDBRANCH  11  14
ENDBRANCH   7   8
ENDBRANCH   2   7
TORSDOF 9
ENDMDL
