MODEL 1
REMARK VINA RESULT:      -6.8      0.000      0.000
REMARK  10 active torsions:
REMARK  status: ('A' for Active; 'I' for Inactive)
REMARK    1  A    between atoms: O_2  and  C_18 
REMARK    2  A    between atoms: O_5  and  N_8 
REMARK    3  A    between atoms: N_6  and  C_11 
REMARK    4  A    between atoms: N_7  and  C_15 
REMARK       I    between atoms: N_7  and  C_24 
REMARK       I    between atoms: N_8  and  C_23 
REMARK    5  A    between atoms: C_11  and  C_14 
REMARK    6  A    between atoms: C_15  and  C_18 
REMARK    7  A    between atoms: C_15  and  C_23 
REMARK    8  A    between atoms: C_21  and  C_26 
REMARK    9  A    between atoms: C_24  and  C_25 
REMARK   10  A    between atoms: C_29  and  C_32 
ROOT
HETATM    1  O   UNK     0      16.573   4.519  93.945  0.00  0.00    -0.388 OA
HETATM    2  N   UNK     0      14.784   2.711  92.666  0.00  0.00     0.096 N 
HETATM    3  C   UNK     0      14.669   4.165  92.482  0.00  0.00     0.299 C 
HETATM    4  C   UNK     0      15.365   2.415  93.982  0.00  0.00     0.299 C 
HETATM    5  C   UNK     0      16.038   4.818  92.654  0.00  0.00     0.198 C 
HETATM    6  C   UNK     0      16.717   3.109  94.120  0.00  0.00     0.198 C 
ENDROOT
BRANCH   2   7
HETATM    7  C   UNK     0      13.481   2.066  92.516  0.00  0.00     0.311 C 
BRANCH   7   8
HETATM    8  C   UNK     0      12.384   3.048  92.280  0.00  0.00    -0.030 A 
HETATM    9  C   UNK     0      11.910   3.264  90.985  0.00  0.00     0.010 A 
HETATM   10  C   UNK     0      10.886   4.184  90.762  0.00  0.00     0.021 A 
HETATM   11  C   UNK     0      10.335   4.885  91.834  0.00  0.00     0.018 A 
HETATM   12  C   UNK     0      10.807   4.670  93.127  0.00  0.00     0.021 A 
HETATM   13  C   UNK     0      11.832   3.751  93.350  0.00  0.00     0.010 A 
BRANCH  11  14
HETATM   14  C   UNK     0       9.283   5.827  91.606  0.00  0.00    -0.061 C 
HETATM   15  C   UNK     0       8.399   6.619  91.413  0.00  0.00    -0.061 C 
BRANCH  15  16
HETATM   16  C   UNK     0       7.348   7.561  91.185  0.00  0.00     0.018 A 
HETATM   17  C   UNK     0       6.256   7.208  90.392  0.00  0.00     0.022 A 
HETATM   18  C   UNK     0       5.230   8.126  90.171  0.00  0.00     0.018 A 
HETATM   19  C   UNK     0       5.317   9.376  90.748  0.00  0.00     0.032 A 
HETATM   20  C   UNK     0       6.386   9.749  91.536  0.00  0.00     0.018 A 
HETATM   21  C   UNK     0       7.413   8.832  91.756  0.00  0.00     0.022 A 
BRANCH  19  22
HETATM   22  C   UNK     0       4.225  10.354  90.511  0.00  0.00     0.252 C 
HETATM   23  O   UNK     0       3.058   9.974  90.560  0.00  0.00    -0.268 OA
HETATM   24  N   UNK     0       4.622  11.662  90.270  0.00  0.00    -0.341 N 
HETATM   25  H   UNK     0       5.605  11.908  90.269  0.00  0.00     0.163 HD
BRANCH  24  26
HETATM   26  C   UNK     0       3.680  12.730  90.046  0.00  0.00     0.207 C 
BRANCH  26  27
HETATM   27  C   UNK     0       3.421  13.566  91.305  0.00  0.00     0.146 C 
HETATM   28  C   UNK     0       2.015  13.364  91.861  0.00  0.00     0.042 C 
BRANCH  27  29
HETATM   29  O   UNK     0       4.371  13.221  92.312  0.00  0.00    -0.393 OA
HETATM   30  H   UNK     0       5.011  12.598  91.927  0.00  0.00     0.210 HD
ENDBRANCH  27  29
ENDBRANCH  26  27
BRANCH  26  31
HETATM   31  C   UNK     0       4.216  13.592  88.908  0.00  0.00     0.266 C 
HETATM   32  O   UNK     0       4.443  14.795  89.029  0.00  0.00    -0.269 OA
HETATM   33  N   UNK     0       4.372  12.878  87.744  0.00  0.00    -0.236 N 
HETATM   34  H   UNK     0       4.111  11.912  87.586  0.00  0.00     0.197 HD
BRANCH  33  35
HETATM   35  O   UNK     0       4.825  13.609  86.637  0.00  0.00    -0.287 OA
HETATM   36  H   UNK     0       4.015  14.093  86.403  0.00  0.00     0.244 HD
ENDBRANCH  33  35
ENDBRANCH  26  31
ENDBRANCH  24  26
ENDBRANCH  19  22
ENDBRANCH  15  16
ENDBRANCH  11  14
ENDBRANCH   7   8
ENDBRANCH   2   7
TORSDOF 10
ENDMDL
MODEL 2
REMARK VINA RESULT:      -5.4      1.731      2.544
REMARK  10 active torsions:
REMARK  status: ('A' for Active; 'I' for Inactive)
REMARK    1  A    between atoms: O_2  and  C_18 
REMARK    2  A    between atoms: O_5  and  N_8 
REMARK    3  A    between atoms: N_6  and  C_11 
REMARK    4  A    between atoms: N_7  and  C_15 
REMARK       I    between atoms: N_7  and  C_24 
REMARK       I    between atoms: N_8  and  C_23 
REMARK    5  A    between atoms: C_11  and  C_14 
REMARK    6  A    between atoms: C_15  and  C_18 
REMARK    7  A    between atoms: C_15  and  C_23 
REMARK    8  A    between atoms: C_21  and  C_26 
REMARK    9  A    between atoms: C_24  and  C_25 
REMARK   10  A    between atoms: C_29  and  C_32 
ROOT
HETATM    1  O   UNK     0      16.064   3.737  94.021  0.00  0.00    -0.388 OA
HETATM    2  N   UNK     0      14.007   2.547  92.454  0.00  0.00     0.096 N 
HETATM    3  C   UNK     0      14.216   4.002  92.471  0.00  0.00     0.299 C 
HETATM    4  C   UNK     0      14.434   1.962  93.731  0.00  0.00     0.299 C 
HETATM    5  C   UNK     0      15.680   4.311  92.770  0.00  0.00     0.198 C 
HETATM    6  C   UNK     0      15.893   2.319  94.002  0.00  0.00     0.198 C 
ENDROOT
BRANCH   2   7
HETATM    7  C   UNK     0      12.607   2.228  92.179  0.00  0.00     0.311 C 
BRANCH   7   8
HETATM    8  C   UNK     0      11.803   3.439  91.850  0.00  0.00    -0.030 A 
HETATM    9  C   UNK     0      11.736   3.895  90.533  0.00  0.00     0.010 A 
HETATM   10  C   UNK     0      10.985   5.029  90.224  0.00  0.00     0.021 A 
HETATM   11  C   UNK     0      10.300   5.706  91.233  0.00  0.00     0.018 A 
HETATM   12  C   UNK     0      10.366   5.252  92.549  0.00  0.00     0.021 A 
HETATM   13  C   UNK     0      11.117   4.118  92.858  0.00  0.00     0.010 A 
BRANCH  11  14
HETATM   14  C   UNK     0       9.528   6.868  90.916  0.00  0.00    -0.061 C 
HETATM   15  C   UNK     0       8.879   7.845  90.650  0.00  0.00    -0.061 C 
BRANCH  15  16
HETATM   16  C   UNK     0       8.108   9.005  90.332  0.00  0.00     0.018 A 
HETATM   17  C   UNK     0       6.919   9.260  91.016  0.00  0.00     0.022 A 
HETATM   18  C   UNK     0       6.167  10.393  90.708  0.00  0.00     0.018 A 
HETATM   19  C   UNK     0       6.620  11.247  89.724  0.00  0.00     0.032 A 
HETATM   20  C   UNK     0       7.792  11.018  89.033  0.00  0.00     0.018 A 
HETATM   21  C   UNK     0       8.544   9.884  89.341  0.00  0.00     0.022 A 
BRANCH  19  22
HETATM   22  C   UNK     0       5.818  12.453  89.394  0.00  0.00     0.252 C 
HETATM   23  O   UNK     0       5.816  12.876  88.241  0.00  0.00    -0.268 OA
HETATM   24  N   UNK     0       5.095  13.007  90.442  0.00  0.00    -0.341 N 
HETATM   25  H   UNK     0       5.125  12.588  91.364  0.00  0.00     0.163 HD
BRANCH  24  26
HETATM   26  C   UNK     0       4.251  14.163  90.275  0.00  0.00     0.207 C 
BRANCH  26  27
HETATM   27  C   UNK     0       2.881  13.817  89.679  0.00  0.00     0.146 C 
HETATM   28  C   UNK     0       2.678  12.315  89.514  0.00  0.00     0.042 C 
BRANCH  27  29
HETATM   29  O   UNK     0       1.850  14.335  90.519  0.00  0.00    -0.393 OA
HETATM   30  H   UNK     0       2.102  15.232  90.793  0.00  0.00     0.210 HD
ENDBRANCH  27  29
ENDBRANCH  26  27
BRANCH  26  31
HETATM   31  C   UNK     0       4.109  14.836  91.637  0.00  0.00     0.266 C 
HETATM   32  O   UNK     0       4.953  15.603  92.096  0.00  0.00    -0.269 OA
HETATM   33  N   UNK     0       2.961  14.452  92.288  0.00  0.00    -0.236 N 
HETATM   34  H   UNK     0       2.292  13.757  91.979  0.00  0.00     0.197 HD
BRANCH  33  35
HETATM   35  O   UNK     0       2.774  14.998  93.566  0.00  0.00    -0.287 OA
HETATM   36  H   UNK     0       2.798  14.189  94.106  0.00  0.00     0.244 HD
ENDBRANCH  33  35
ENDBRANCH  26  31
ENDBRANCH  24  26
ENDBRANCH  19  22
ENDBRANCH  15  16
ENDBRANCH  11  14
ENDBRANCH   7   8
ENDBRANCH   2   7
TORSDOF 10
ENDMDL
MODEL 3
REMARK VINA RESULT:      -5.3      2.817     12.349
REMARK  10 active torsions:
REMARK  status: ('A' for Active; 'I' for Inactive)
REMARK    1  A    between atoms: O_2  and  C_18 
REMARK    2  A    between atoms: O_5  and  N_8 
REMARK    3  A    between atoms: N_6  and  C_11 
REMARK    4  A    between atoms: N_7  and  C_15 
REMARK       I    between atoms: N_7  and  C_24 
REMARK       I    between atoms: N_8  and  C_23 
REMARK    5  A    between atoms: C_11  and  C_14 
REMARK    6  A    between atoms: C_15  and  C_18 
REMARK    7  A    between atoms: C_15  and  C_23 
REMARK    8  A    between atoms: C_21  and  C_26 
REMARK    9  A    between atoms: C_24  and  C_25 
REMARK   10  A    between atoms: C_29  and  C_32 
ROOT
HETATM    1  O   UNK     0       2.517  14.555  94.044  0.00  0.00    -0.388 OA
HETATM    2  N   UNK     0       2.587  14.654  91.200  0.00  0.00     0.096 N 
HETATM    3  C   UNK     0       1.447  14.071  91.920  0.00  0.00     0.299 C 
HETATM    4  C   UNK     0       3.814  14.504  91.994  0.00  0.00     0.299 C 
HETATM    5  C   UNK     0       1.313  14.724  93.293  0.00  0.00     0.198 C 
HETATM    6  C   UNK     0       3.625  15.147  93.365  0.00  0.00     0.198 C 
ENDROOT
BRANCH   2   7
HETATM    7  C   UNK     0       2.741  14.035  89.885  0.00  0.00     0.311 C 
BRANCH   7   8
HETATM    8  C   UNK     0       3.749  12.936  89.889  0.00  0.00    -0.030 A 
HETATM    9  C   UNK     0       5.016  13.152  89.347  0.00  0.00     0.010 A 
HETATM   10  C   UNK     0       5.959  12.124  89.348  0.00  0.00     0.021 A 
HETATM   11  C   UNK     0       5.635  10.882  89.893  0.00  0.00     0.018 A 
HETATM   12  C   UNK     0       4.369  10.666  90.434  0.00  0.00     0.021 A 
HETATM   13  C   UNK     0       3.426  11.693  90.433  0.00  0.00     0.010 A 
BRANCH  11  14
HETATM   14  C   UNK     0       6.603   9.829  89.896  0.00  0.00    -0.061 C 
HETATM   15  C   UNK     0       7.416   8.943  89.898  0.00  0.00    -0.061 C 
BRANCH  15  16
HETATM   16  C   UNK     0       8.382   7.891  89.903  0.00  0.00     0.018 A 
HETATM   17  C   UNK     0       8.411   6.975  90.955  0.00  0.00     0.022 A 
HETATM   18  C   UNK     0       9.353   5.947  90.959  0.00  0.00     0.018 A 
HETATM   19  C   UNK     0      10.245   5.856  89.911  0.00  0.00     0.032 A 
HETATM   20  C   UNK     0      10.238   6.748  88.859  0.00  0.00     0.018 A 
HETATM   21  C   UNK     0       9.297   7.777  88.855  0.00  0.00     0.022 A 
BRANCH  19  22
HETATM   22  C   UNK     0      11.250   4.762  89.916  0.00  0.00     0.252 C 
HETATM   23  O   UNK     0      11.459   4.134  88.881  0.00  0.00    -0.268 OA
HETATM   24  N   UNK     0      11.908   4.546  91.119  0.00  0.00    -0.341 N 
HETATM   25  H   UNK     0      11.701   5.122  91.927  0.00  0.00     0.163 HD
BRANCH  24  26
HETATM   26  C   UNK     0      12.926   3.539  91.277  0.00  0.00     0.207 C 
BRANCH  26  27
HETATM   27  C   UNK     0      14.112   4.020  92.123  0.00  0.00     0.146 C 
HETATM   28  C   UNK     0      15.036   2.879  92.534  0.00  0.00     0.042 C 
BRANCH  27  29
HETATM   29  O   UNK     0      14.864   4.984  91.386  0.00  0.00    -0.393 OA
HETATM   30  H   UNK     0      15.378   4.515  90.708  0.00  0.00     0.210 HD
ENDBRANCH  27  29
ENDBRANCH  26  27
BRANCH  26  31
HETATM   31  C   UNK     0      12.270   2.306  91.891  0.00  0.00     0.266 C 
HETATM   32  O   UNK     0      12.789   1.192  91.871  0.00  0.00    -0.269 OA
HETATM   33  N   UNK     0      11.035   2.587  92.424  0.00  0.00    -0.236 N 
HETATM   34  H   UNK     0      10.541   3.471  92.378  0.00  0.00     0.197 HD
BRANCH  33  35
HETATM   35  O   UNK     0      10.347   1.497  92.976  0.00  0.00    -0.287 OA
HETATM   36  H   UNK     0      10.172   0.976  92.173  0.00  0.00     0.244 HD
ENDBRANCH  33  35
ENDBRANCH  26  31
ENDBRANCH  24  26
ENDBRANCH  19  22
ENDBRANCH  15  16
ENDBRANCH  11  14
ENDBRANCH   7   8
ENDBRANCH   2   7
TORSDOF 10
ENDMDL
MODEL 4
REMARK VINA RESULT:      -5.1      1.983     12.493
REMARK  10 active torsions:
REMARK  status: ('A' for Active; 'I' for Inactive)
REMARK    1  A    between atoms: O_2  and  C_18 
REMARK    2  A    between atoms: O_5  and  N_8 
REMARK    3  A    between atoms: N_6  and  C_11 
REMARK    4  A    between atoms: N_7  and  C_15 
REMARK       I    between atoms: N_7  and  C_24 
REMARK       I    between atoms: N_8  and  C_23 
REMARK    5  A    between atoms: C_11  and  C_14 
REMARK    6  A    between atoms: C_15  and  C_18 
REMARK    7  A    between atoms: C_15  and  C_23 
REMARK    8  A    between atoms: C_21  and  C_26 
REMARK    9  A    between atoms: C_24  and  C_25 
REMARK   10  A    between atoms: C_29  and  C_32 
ROOT
HETATM    1  O   UNK     0       3.228  14.268  92.340  0.00  0.00    -0.388 OA
HETATM    2  N   UNK     0       3.771  13.744  89.596  0.00  0.00     0.096 N 
HETATM    3  C   UNK     0       2.890  12.871  90.384  0.00  0.00     0.299 C 
HETATM    4  C   UNK     0       4.769  14.373  90.470  0.00  0.00     0.299 C 
HETATM    5  C   UNK     0       2.233  13.676  91.503  0.00  0.00     0.198 C 
HETATM    6  C   UNK     0       4.069  15.142  91.587  0.00  0.00     0.198 C 
ENDROOT
BRANCH   2   7
HETATM    7  C   UNK     0       4.420  12.992  88.523  0.00  0.00     0.311 C 
BRANCH   7   8
HETATM    8  C   UNK     0       5.288  11.897  89.043  0.00  0.00    -0.030 A 
HETATM    9  C   UNK     0       4.713  10.716  89.514  0.00  0.00     0.010 A 
HETATM   10  C   UNK     0       5.525   9.692  90.002  0.00  0.00     0.021 A 
HETATM   11  C   UNK     0       6.910   9.849  90.017  0.00  0.00     0.018 A 
HETATM   12  C   UNK     0       7.485  11.027  89.547  0.00  0.00     0.021 A 
HETATM   13  C   UNK     0       6.674  12.052  89.059  0.00  0.00     0.010 A 
BRANCH  11  14
HETATM   14  C   UNK     0       7.743   8.797  90.516  0.00  0.00    -0.061 C 
HETATM   15  C   UNK     0       8.442   7.914  90.936  0.00  0.00    -0.061 C 
BRANCH  15  16
HETATM   16  C   UNK     0       9.274   6.865  91.435  0.00  0.00     0.018 A 
HETATM   17  C   UNK     0       9.853   5.955  90.550  0.00  0.00     0.022 A 
HETATM   18  C   UNK     0      10.667   4.932  91.036  0.00  0.00     0.018 A 
HETATM   19  C   UNK     0      10.884   4.842  92.395  0.00  0.00     0.032 A 
HETATM   20  C   UNK     0      10.324   5.728  93.291  0.00  0.00     0.018 A 
HETATM   21  C   UNK     0       9.509   6.751  92.805  0.00  0.00     0.022 A 
BRANCH  19  22
HETATM   22  C   UNK     0      11.750   3.750  92.913  0.00  0.00     0.252 C 
HETATM   23  O   UNK     0      11.258   2.645  93.126  0.00  0.00    -0.268 OA
HETATM   24  N   UNK     0      13.088   4.071  93.096  0.00  0.00    -0.341 N 
HETATM   25  H   UNK     0      13.428   4.999  92.874  0.00  0.00     0.163 HD
BRANCH  24  26
HETATM   26  C   UNK     0      14.057   3.114  93.568  0.00  0.00     0.207 C 
BRANCH  26  27
HETATM   27  C   UNK     0      14.240   1.932  92.609  0.00  0.00     0.146 C 
HETATM   28  C   UNK     0      15.169   2.263  91.446  0.00  0.00     0.042 C 
BRANCH  27  29
HETATM   29  O   UNK     0      14.771   0.816  93.322  0.00  0.00    -0.393 OA
HETATM   30  H   UNK     0      15.368   0.330  92.729  0.00  0.00     0.210 HD
ENDBRANCH  27  29
ENDBRANCH  26  27
BRANCH  26  31
HETATM   31  C   UNK     0      15.371   3.855  93.793  0.00  0.00     0.266 C 
HETATM   32  O   UNK     0      15.457   5.082  93.796  0.00  0.00    -0.269 OA
HETATM   33  N   UNK     0      16.431   2.995  93.950  0.00  0.00    -0.236 N 
HETATM   34  H   UNK     0      16.411   1.986  93.865  0.00  0.00     0.197 HD
BRANCH  33  35
HETATM   35  O   UNK     0      17.685   3.598  94.124  0.00  0.00    -0.287 OA
HETATM   36  H   UNK     0      17.895   3.833  93.204  0.00  0.00     0.244 HD
ENDBRANCH  33  35
ENDBRANCH  26  31
ENDBRANCH  24  26
ENDBRANCH  19  22
ENDBRANCH  15  16
ENDBRANCH  11  14
ENDBRANCH   7   8
ENDBRANCH   2   7
TORSDOF 10
ENDMDL
MODEL 5
REMARK VINA RESULT:      -5.1      2.468     12.408
REMARK  10 active torsions:
REMARK  status: ('A' for Active; 'I' for Inactive)
REMARK    1  A    between atoms: O_2  and  C_18 
REMARK    2  A    between atoms: O_5  and  N_8 
REMARK    3  A    between atoms: N_6  and  C_11 
REMARK    4  A    between atoms: N_7  and  C_15 
REMARK       I    between atoms: N_7  and  C_24 
REMARK       I    between atoms: N_8  and  C_23 
REMARK    5  A    between atoms: C_11  and  C_14 
REMARK    6  A    between atoms: C_15  and  C_18 
REMARK    7  A    between atoms: C_15  and  C_23 
REMARK    8  A    between atoms: C_21  and  C_26 
REMARK    9  A    between atoms: C_24  and  C_25 
REMARK   10  A    between atoms: C_29  and  C_32 
ROOT
HETATM    1  O   UNK     0       2.883  14.771  93.695  0.00  0.00    -0.388 OA
HETATM    2  N   UNK     0       2.644  14.288  90.900  0.00  0.00     0.096 N 
HETATM    3  C   UNK     0       1.769  13.618  91.872  0.00  0.00     0.299 C 
HETATM    4  C   UNK     0       3.940  14.597  91.518  0.00  0.00     0.299 C 
HETATM    5  C   UNK     0       1.608  14.494  93.112  0.00  0.00     0.198 C 
HETATM    6  C   UNK     0       3.729  15.450  92.766  0.00  0.00     0.198 C 
ENDROOT
BRANCH   2   7
HETATM    7  C   UNK     0       2.821  13.461  89.707  0.00  0.00     0.311 C 
BRANCH   7   8
HETATM    8  C   UNK     0       3.849  12.399  89.900  0.00  0.00    -0.030 A 
HETATM    9  C   UNK     0       5.111  12.538  89.322  0.00  0.00     0.010 A 
HETATM   10  C   UNK     0       6.073  11.543  89.500  0.00  0.00     0.021 A 
HETATM   11  C   UNK     0       5.772  10.412  90.258  0.00  0.00     0.018 A 
HETATM   12  C   UNK     0       4.512  10.273  90.836  0.00  0.00     0.021 A 
HETATM   13  C   UNK     0       3.550  11.266  90.658  0.00  0.00     0.010 A 
BRANCH  11  14
HETATM   14  C   UNK     0       6.760   9.393  90.443  0.00  0.00    -0.061 C 
HETATM   15  C   UNK     0       7.589   8.537  90.598  0.00  0.00    -0.061 C 
BRANCH  15  16
HETATM   16  C   UNK     0       8.575   7.520  90.783  0.00  0.00     0.018 A 
HETATM   17  C   UNK     0       9.107   7.288  92.053  0.00  0.00     0.022 A 
HETATM   18  C   UNK     0      10.068   6.293  92.235  0.00  0.00     0.018 A 
HETATM   19  C   UNK     0      10.477   5.554  91.145  0.00  0.00     0.032 A 
HETATM   20  C   UNK     0       9.968   5.764  89.880  0.00  0.00     0.018 A 
HETATM   21  C   UNK     0       9.007   6.758  89.698  0.00  0.00     0.022 A 
BRANCH  19  22
HETATM   22  C   UNK     0      11.502   4.496  91.339  0.00  0.00     0.252 C 
HETATM   23  O   UNK     0      11.868   3.831  90.373  0.00  0.00    -0.268 OA
HETATM   24  N   UNK     0      11.996   4.358  92.628  0.00  0.00    -0.341 N 
HETATM   25  H   UNK     0      11.665   4.961  93.372  0.00  0.00     0.163 HD
BRANCH  24  26
HETATM   26  C   UNK     0      13.011   3.394  92.970  0.00  0.00     0.207 C 
BRANCH  26  27
HETATM   27  C   UNK     0      12.960   2.139  92.090  0.00  0.00     0.146 C 
HETATM   28  C   UNK     0      14.020   1.113  92.473  0.00  0.00     0.042 C 
BRANCH  27  29
HETATM   29  O   UNK     0      11.671   1.535  92.195  0.00  0.00    -0.393 OA
HETATM   30  H   UNK     0      11.335   1.688  93.094  0.00  0.00     0.210 HD
ENDBRANCH  27  29
ENDBRANCH  26  27
BRANCH  26  31
HETATM   31  C   UNK     0      14.366   4.088  92.868  0.00  0.00     0.266 C 
HETATM   32  O   UNK     0      14.727   4.707  91.869  0.00  0.00    -0.269 OA
HETATM   33  N   UNK     0      15.130   3.904  93.995  0.00  0.00    -0.236 N 
HETATM   34  H   UNK     0      14.900   3.328  94.796  0.00  0.00     0.197 HD
BRANCH  33  35
HETATM   35  O   UNK     0      16.408   4.480  93.966  0.00  0.00    -0.287 OA
HETATM   36  H   UNK     0      16.701   4.299  94.875  0.00  0.00     0.244 HD
ENDBRANCH  33  35
ENDBRANCH  26  31
ENDBRANCH  24  26
ENDBRANCH  19  22
ENDBRANCH  15  16
ENDBRANCH  11  14
ENDBRANCH   7   8
ENDBRANCH   2   7
TORSDOF 10
ENDMDL
MODEL 6
REMARK VINA RESULT:      -4.8      1.910      3.073
REMARK  10 active torsions:
REMARK  status: ('A' for Active; 'I' for Inactive)
REMARK    1  A    between atoms: O_2  and  C_18 
REMARK    2  A    between atoms: O_5  and  N_8 
REMARK    3  A    between atoms: N_6  and  C_11 
REMARK    4  A    between atoms: N_7  and  C_15 
REMARK       I    between atoms: N_7  and  C_24 
REMARK       I    between atoms: N_8  and  C_23 
REMARK    5  A    between atoms: C_11  and  C_14 
REMARK    6  A    between atoms: C_15  and  C_18 
REMARK    7  A    between atoms: C_15  and  C_23 
REMARK    8  A    between atoms: C_21  and  C_26 
REMARK    9  A    between atoms: C_24  and  C_25 
REMARK   10  A    between atoms: C_29  and  C_32 
ROOT
HETATM    1  O   UNK     0      16.757   2.775  93.614  0.00  0.00    -0.388 OA
HETATM    2  N   UNK     0      14.070   2.996  92.700  0.00  0.00     0.096 N 
HETATM    3  C   UNK     0      14.487   3.543  93.998  0.00  0.00     0.299 C 
HETATM    4  C   UNK     0      14.909   1.844  92.346  0.00  0.00     0.299 C 
HETATM    5  C   UNK     0      15.966   3.916  93.952  0.00  0.00     0.198 C 
HETATM    6  C   UNK     0      16.379   2.256  92.339  0.00  0.00     0.198 C 
ENDROOT
BRANCH   2   7
HETATM    7  C   UNK     0      12.657   2.622  92.725  0.00  0.00     0.311 C 
BRANCH   7   8
HETATM    8  C   UNK     0      11.756   3.809  92.748  0.00  0.00    -0.030 A 
HETATM    9  C   UNK     0      11.350   4.398  91.550  0.00  0.00     0.010 A 
HETATM   10  C   UNK     0      10.508   5.510  91.570  0.00  0.00     0.021 A 
HETATM   11  C   UNK     0      10.070   6.030  92.788  0.00  0.00     0.018 A 
HETATM   12  C   UNK     0      10.475   5.442  93.984  0.00  0.00     0.021 A 
HETATM   13  C   UNK     0      11.317   4.331  93.965  0.00  0.00     0.010 A 
BRANCH  11  14
HETATM   14  C   UNK     0       9.205   7.169  92.808  0.00  0.00    -0.061 C 
HETATM   15  C   UNK     0       8.478   8.127  92.826  0.00  0.00    -0.061 C 
BRANCH  15  16
HETATM   16  C   UNK     0       7.612   9.263  92.846  0.00  0.00     0.018 A 
HETATM   17  C   UNK     0       7.290   9.872  94.060  0.00  0.00     0.022 A 
HETATM   18  C   UNK     0       6.447  10.983  94.080  0.00  0.00     0.018 A 
HETATM   19  C   UNK     0       5.946  11.461  92.887  0.00  0.00     0.032 A 
HETATM   20  C   UNK     0       6.248  10.878  91.675  0.00  0.00     0.018 A 
HETATM   21  C   UNK     0       7.091   9.766  91.654  0.00  0.00     0.022 A 
BRANCH  19  22
HETATM   22  C   UNK     0       5.046  12.643  92.910  0.00  0.00     0.252 C 
HETATM   23  O   UNK     0       4.838  13.219  93.975  0.00  0.00    -0.268 OA
HETATM   24  N   UNK     0       4.517  13.028  91.686  0.00  0.00    -0.341 N 
HETATM   25  H   UNK     0       4.753  12.519  90.842  0.00  0.00     0.163 HD
BRANCH  24  26
HETATM   26  C   UNK     0       3.648  14.168  91.540  0.00  0.00     0.207 C 
BRANCH  26  27
HETATM   27  C   UNK     0       3.487  14.609  90.080  0.00  0.00     0.146 C 
HETATM   28  C   UNK     0       4.819  14.681  89.341  0.00  0.00     0.042 C 
BRANCH  27  29
HETATM   29  O   UNK     0       2.627  13.696  89.398  0.00  0.00    -0.393 OA
HETATM   30  H   UNK     0       2.109  14.196  88.745  0.00  0.00     0.210 HD
ENDBRANCH  27  29
ENDBRANCH  26  27
BRANCH  26  31
HETATM   31  C   UNK     0       2.303  13.811  92.163  0.00  0.00     0.266 C 
HETATM   32  O   UNK     0       1.286  14.482  91.993  0.00  0.00    -0.269 OA
HETATM   33  N   UNK     0       2.378  12.690  92.954  0.00  0.00    -0.236 N 
HETATM   34  H   UNK     0       3.214  12.167  93.187  0.00  0.00     0.197 HD
BRANCH  33  35
HETATM   35  O   UNK     0       1.189  12.315  93.596  0.00  0.00    -0.287 OA
HETATM   36  H   UNK     0       0.977  11.501  93.109  0.00  0.00     0.244 HD
ENDBRANCH  33  35
ENDBRANCH  26  31
ENDBRANCH  24  26
ENDBRANCH  19  22
ENDBRANCH  15  16
ENDBRANCH  11  14
ENDBRANCH   7   8
ENDBRANCH   2   7
TORSDOF 10
ENDMDL
MODEL 7
REMARK VINA RESULT:      -4.5      1.272      1.482
REMARK  10 active torsions:
REMARK  status: ('A' for Active; 'I' for Inactive)
REMARK    1  A    between atoms: O_2  and  C_18 
REMARK    2  A    between atoms: O_5  and  N_8 
REMARK    3  A    between atoms: N_6  and  C_11 
REMARK    4  A    between atoms: N_7  and  C_15 
REMARK       I    between atoms: N_7  and  C_24 
REMARK       I    between atoms: N_8  and  C_23 
REMARK    5  A    between atoms: C_11  and  C_14 
REMARK    6  A    between atoms: C_15  and  C_18 
REMARK    7  A    between atoms: C_15  and  C_23 
REMARK    8  A    between atoms: C_21  and  C_26 
REMARK    9  A    between atoms: C_24  and  C_25 
REMARK   10  A    between atoms: C_29  and  C_32 
ROOT
HETATM    1  O   UNK     0      17.097   2.382  92.324  0.00  0.00    -0.388 OA
HETATM    2  N   UNK     0      14.394   2.788  93.119  0.00  0.00     0.096 N 
HETATM    3  C   UNK     0      15.457   2.551  94.105  0.00  0.00     0.299 C 
HETATM    4  C   UNK     0      14.731   2.133  91.848  0.00  0.00     0.299 C 
HETATM    5  C   UNK     0      16.793   3.043  93.554  0.00  0.00     0.198 C 
HETATM    6  C   UNK     0      16.084   2.634  91.350  0.00  0.00     0.198 C 
ENDROOT
BRANCH   2   7
HETATM    7  C   UNK     0      13.106   2.315  93.622  0.00  0.00     0.311 C 
BRANCH   7   8
HETATM    8  C   UNK     0      11.988   3.241  93.283  0.00  0.00    -0.030 A 
HETATM    9  C   UNK     0      11.179   2.982  92.176  0.00  0.00     0.010 A 
HETATM   10  C   UNK     0      10.135   3.849  91.857  0.00  0.00     0.021 A 
HETATM   11  C   UNK     0       9.899   4.975  92.646  0.00  0.00     0.018 A 
HETATM   12  C   UNK     0      10.706   5.235  93.751  0.00  0.00     0.021 A 
HETATM   13  C   UNK     0      11.751   4.368  94.070  0.00  0.00     0.010 A 
BRANCH  11  14
HETATM   14  C   UNK     0       8.826   5.863  92.320  0.00  0.00    -0.061 C 
HETATM   15  C   UNK     0       7.924   6.610  92.046  0.00  0.00    -0.061 C 
BRANCH  15  16
HETATM   16  C   UNK     0       6.852   7.497  91.721  0.00  0.00     0.018 A 
HETATM   17  C   UNK     0       5.754   7.027  90.999  0.00  0.00     0.022 A 
HETATM   18  C   UNK     0       4.706   7.892  90.683  0.00  0.00     0.018 A 
HETATM   19  C   UNK     0       4.779   9.206  91.096  0.00  0.00     0.032 A 
HETATM   20  C   UNK     0       5.852   9.695  91.809  0.00  0.00     0.018 A 
HETATM   21  C   UNK     0       6.901   8.831  92.125  0.00  0.00     0.022 A 
BRANCH  19  22
HETATM   22  C   UNK     0       3.663  10.127  90.757  0.00  0.00     0.252 C 
HETATM   23  O   UNK     0       2.599   9.659  90.358  0.00  0.00    -0.268 OA
HETATM   24  N   UNK     0       3.912  11.479  90.947  0.00  0.00    -0.341 N 
HETATM   25  H   UNK     0       4.807  11.790  91.305  0.00  0.00     0.163 HD
BRANCH  24  26
HETATM   26  C   UNK     0       2.922  12.493  90.687  0.00  0.00     0.207 C 
BRANCH  26  27
HETATM   27  C   UNK     0       2.439  13.193  91.965  0.00  0.00     0.146 C 
HETATM   28  C   UNK     0       3.583  13.813  92.759  0.00  0.00     0.042 C 
BRANCH  27  29
HETATM   29  O   UNK     0       1.504  14.215  91.624  0.00  0.00    -0.393 OA
HETATM   30  H   UNK     0       1.673  14.491  90.707  0.00  0.00     0.210 HD
ENDBRANCH  27  29
ENDBRANCH  26  27
BRANCH  26  31
HETATM   31  C   UNK     0       3.525  13.491  89.704  0.00  0.00     0.266 C 
HETATM   32  O   UNK     0       3.021  14.587  89.468  0.00  0.00    -0.269 OA
HETATM   33  N   UNK     0       4.657  13.002  89.098  0.00  0.00    -0.236 N 
HETATM   34  H   UNK     0       5.048  12.073  89.202  0.00  0.00     0.197 HD
BRANCH  33  35
HETATM   35  O   UNK     0       5.253  13.845  88.149  0.00  0.00    -0.287 OA
HETATM   36  H   UNK     0       6.184  13.576  88.236  0.00  0.00     0.244 HD
ENDBRANCH  33  35
ENDBRANCH  26  31
ENDBRANCH  24  26
ENDBRANCH  19  22
ENDBRANCH  15  16
ENDBRANCH  11  14
ENDBRANCH   7   8
ENDBRANCH   2   7
TORSDOF 10
ENDMDL
MODEL 8
REMARK VINA RESULT:      -4.3      1.666     12.336
REMARK  10 active torsions:
REMARK  status: ('A' for Active; 'I' for Inactive)
REMARK    1  A    between atoms: O_2  and  C_18 
REMARK    2  A    between atoms: O_5  and  N_8 
REMARK    3  A    between atoms: N_6  and  C_11 
REMARK    4  A    between atoms: N_7  and  C_15 
REMARK       I    between atoms: N_7  and  C_24 
REMARK       I    between atoms: N_8  and  C_23 
REMARK    5  A    between atoms: C_11  and  C_14 
REMARK    6  A    between atoms: C_15  and  C_18 
REMARK    7  A    between atoms: C_15  and  C_23 
REMARK    8  A    between atoms: C_21  and  C_26 
REMARK    9  A    between atoms: C_24  and  C_25 
REMARK   10  A    between atoms: C_29  and  C_32 
ROOT
HETATM    1  O   UNK     0       4.668  14.057  89.429  0.00  0.00    -0.388 OA
HETATM    2  N   UNK     0       3.227  11.683  88.805  0.00  0.00     0.096 N 
HETATM    3  C   UNK     0       3.065  12.362  90.098  0.00  0.00     0.299 C 
HETATM    4  C   UNK     0       4.575  11.925  88.275  0.00  0.00     0.299 C 
HETATM    5  C   UNK     0       3.349  13.854  89.938  0.00  0.00     0.198 C 
HETATM    6  C   UNK     0       4.824  13.426  88.158  0.00  0.00     0.198 C 
ENDROOT
BRANCH   2   7
HETATM    7  C   UNK     0       2.970  10.250  88.937  0.00  0.00     0.311 C 
BRANCH   7   8
HETATM    8  C   UNK     0       4.194   9.486  89.313  0.00  0.00    -0.030 A 
HETATM    9  C   UNK     0       4.612   9.452  90.644  0.00  0.00     0.010 A 
HETATM   10  C   UNK     0       5.757   8.740  90.998  0.00  0.00     0.021 A 
HETATM   11  C   UNK     0       6.484   8.060  90.020  0.00  0.00     0.018 A 
HETATM   12  C   UNK     0       6.068   8.094  88.691  0.00  0.00     0.021 A 
HETATM   13  C   UNK     0       4.922   8.807  88.337  0.00  0.00     0.010 A 
BRANCH  11  14
HETATM   14  C   UNK     0       7.658   7.328  90.383  0.00  0.00    -0.061 C 
HETATM   15  C   UNK     0       8.644   6.712  90.688  0.00  0.00    -0.061 C 
BRANCH  15  16
HETATM   16  C   UNK     0       9.817   5.980  91.051  0.00  0.00     0.018 A 
HETATM   17  C   UNK     0      10.609   5.398  90.061  0.00  0.00     0.022 A 
HETATM   18  C   UNK     0      11.755   4.685  90.416  0.00  0.00     0.018 A 
HETATM   19  C   UNK     0      12.083   4.571  91.750  0.00  0.00     0.032 A 
HETATM   20  C   UNK     0      11.316   5.136  92.748  0.00  0.00     0.018 A 
HETATM   21  C   UNK     0      10.170   5.848  92.394  0.00  0.00     0.022 A 
BRANCH  19  22
HETATM   22  C   UNK     0      13.302   3.810  92.127  0.00  0.00     0.252 C 
HETATM   23  O   UNK     0      14.154   3.580  91.272  0.00  0.00    -0.268 OA
HETATM   24  N   UNK     0      13.394   3.430  93.459  0.00  0.00    -0.341 N 
HETATM   25  H   UNK     0      12.662   3.677  94.115  0.00  0.00     0.163 HD
BRANCH  24  26
HETATM   26  C   UNK     0      14.526   2.708  93.983  0.00  0.00     0.207 C 
BRANCH  26  27
HETATM   27  C   UNK     0      14.817   1.417  93.209  0.00  0.00     0.146 C 
HETATM   28  C   UNK     0      13.576   0.852  92.528  0.00  0.00     0.042 C 
BRANCH  27  29
HETATM   29  O   UNK     0      15.815   1.669  92.219  0.00  0.00    -0.393 OA
HETATM   30  H   UNK     0      15.587   2.494  91.760  0.00  0.00     0.210 HD
ENDBRANCH  27  29
ENDBRANCH  26  27
BRANCH  26  31
HETATM   31  C   UNK     0      15.726   3.649  93.965  0.00  0.00     0.266 C 
HETATM   32  O   UNK     0      16.887   3.255  94.069  0.00  0.00    -0.269 OA
HETATM   33  N   UNK     0      15.352   4.966  93.860  0.00  0.00    -0.236 N 
HETATM   34  H   UNK     0      14.407   5.331  93.863  0.00  0.00     0.197 HD
BRANCH  33  35
HETATM   35  O   UNK     0      16.398   5.901  93.875  0.00  0.00    -0.287 OA
HETATM   36  H   UNK     0      16.970   5.510  94.557  0.00  0.00     0.244 HD
ENDBRANCH  33  35
ENDBRANCH  26  31
ENDBRANCH  24  26
ENDBRANCH  19  22
ENDBRANCH  15  16
ENDBRANCH  11  14
ENDBRANCH   7   8
ENDBRANCH   2   7
TORSDOF 10
ENDMDL
MODEL 9
REMARK VINA RESULT:      -4.1      2.458     12.378
REMARK  10 active torsions:
REMARK  status: ('A' for Active; 'I' for Inactive)
REMARK    1  A    between atoms: O_2  and  C_18 
REMARK    2  A    between atoms: O_5  and  N_8 
REMARK    3  A    between atoms: N_6  and  C_11 
REMARK    4  A    between atoms: N_7  and  C_15 
REMARK       I    between atoms: N_7  and  C_24 
REMARK       I    between atoms: N_8  and  C_23 
REMARK    5  A    between atoms: C_11  and  C_14 
REMARK    6  A    between atoms: C_15  and  C_18 
REMARK    7  A    between atoms: C_15  and  C_23 
REMARK    8  A    between atoms: C_21  and  C_26 
REMARK    9  A    between atoms: C_24  and  C_25 
REMARK   10  A    between atoms: C_29  and  C_32 
ROOT
HETATM    1  O   UNK     0       3.056  14.897  92.150  0.00  0.00    -0.388 OA
HETATM    2  N   UNK     0       1.404  12.598  92.447  0.00  0.00     0.096 N 
HETATM    3  C   UNK     0       1.908  13.337  93.613  0.00  0.00     0.299 C 
HETATM    4  C   UNK     0       2.341  12.731  91.324  0.00  0.00     0.299 C 
HETATM    5  C   UNK     0       2.135  14.800  93.238  0.00  0.00     0.198 C 
HETATM    6  C   UNK     0       2.559  14.207  91.003  0.00  0.00     0.198 C 
ENDROOT
BRANCH   2   7
HETATM    7  C   UNK     0       1.189  11.191  92.780  0.00  0.00     0.311 C 
BRANCH   7   8
HETATM    8  C   UNK     0       2.441  10.386  92.684  0.00  0.00    -0.030 A 
HETATM    9  C   UNK     0       2.629   9.517  91.609  0.00  0.00     0.010 A 
HETATM   10  C   UNK     0       3.799   8.762  91.520  0.00  0.00     0.021 A 
HETATM   11  C   UNK     0       4.780   8.880  92.504  0.00  0.00     0.018 A 
HETATM   12  C   UNK     0       4.593   9.748  93.577  0.00  0.00     0.021 A 
HETATM   13  C   UNK     0       3.423  10.502  93.668  0.00  0.00     0.010 A 
BRANCH  11  14
HETATM   14  C   UNK     0       5.981   8.107  92.411  0.00  0.00    -0.061 C 
HETATM   15  C   UNK     0       6.990   7.458  92.333  0.00  0.00    -0.061 C 
BRANCH  15  16
HETATM   16  C   UNK     0       8.188   6.686  92.241  0.00  0.00     0.018 A 
HETATM   17  C   UNK     0       8.912   6.383  93.395  0.00  0.00     0.022 A 
HETATM   18  C   UNK     0      10.081   5.627  93.306  0.00  0.00     0.018 A 
HETATM   19  C   UNK     0      10.501   5.191  92.067  0.00  0.00     0.032 A 
HETATM   20  C   UNK     0       9.804   5.477  90.911  0.00  0.00     0.018 A 
HETATM   21  C   UNK     0       8.635   6.233  91.000  0.00  0.00     0.022 A 
BRANCH  19  22
HETATM   22  C   UNK     0      11.747   4.388  91.973  0.00  0.00     0.252 C 
HETATM   23  O   UNK     0      12.150   4.033  90.867  0.00  0.00    -0.268 OA
HETATM   24  N   UNK     0      12.388   4.117  93.173  0.00  0.00    -0.341 N 
HETATM   25  H   UNK     0      12.010   4.465  94.047  0.00  0.00     0.163 HD
BRANCH  24  26
HETATM   26  C   UNK     0      13.619   3.371  93.245  0.00  0.00     0.207 C 
BRANCH  26  27
HETATM   27  C   UNK     0      13.619   2.137  92.333  0.00  0.00     0.146 C 
HETATM   28  C   UNK     0      14.561   1.045  92.828  0.00  0.00     0.042 C 
BRANCH  27  29
HETATM   29  O   UNK     0      12.297   1.606  92.249  0.00  0.00    -0.393 OA
HETATM   30  H   UNK     0      11.674   2.348  92.181  0.00  0.00     0.210 HD
ENDBRANCH  27  29
ENDBRANCH  26  27
BRANCH  26  31
HETATM   31  C   UNK     0      14.759   4.320  92.893  0.00  0.00     0.266 C 
HETATM   32  O   UNK     0      14.995   4.687  91.743  0.00  0.00    -0.269 OA
HETATM   33  N   UNK     0      15.498   4.675  93.996  0.00  0.00    -0.236 N 
HETATM   34  H   UNK     0      15.388   4.322  94.939  0.00  0.00     0.197 HD
BRANCH  33  35
HETATM   35  O   UNK     0      16.592   5.517  93.752  0.00  0.00    -0.287 OA
HETATM   36  H   UNK     0      16.289   6.329  94.194  0.00  0.00     0.244 HD
ENDBRANCH  33  35
ENDBRANCH  26  31
ENDBRANCH  24  26
ENDBRANCH  19  22
ENDBRANCH  15  16
ENDBRANCH  11  14
ENDBRANCH   7   8
ENDBRANCH   2   7
TORSDOF 10
ENDMDL
