MODEL 1
REMARK VINA RESULT:      -6.2      0.000      0.000
REMARK  12 active torsions:
REMARK  status: ('A' for Active; 'I' for Inactive)
REMARK    1  A    between atoms: O_2  and  C_16 
REMARK    2  A    between atoms: N_5  and  C_9 
REMARK    3  A    between atoms: N_6  and  C_13 
REMARK       I    between atoms: N_6  and  C_22 
REMARK    4  A    between atoms: C_9  and  C_12 
REMARK    5  A    between atoms: C_13  and  C_16 
REMARK    6  A    between atoms: C_13  and  C_21 
REMARK    7  A    between atoms: C_19  and  C_24 
REMARK    8  A    between atoms: C_21  and  C_33 
REMARK    9  A    between atoms: C_22  and  C_23 
REMARK   10  A    between atoms: C_27  and  C_30 
REMARK   11  A    between atoms: C_33  and  C_34 
REMARK   12  A    between atoms: C_34  and  C_35 
ROOT
HETATM    1  O   UNL     1      16.801   3.766  93.802  1.00  0.00    -0.350 OA
HETATM    2  N   UNL     1      14.214   3.038  92.865  1.00  0.00     0.147 N 
HETATM    3  C   UNL     1      15.280   2.040  93.030  1.00  0.00     0.283 C 
HETATM    4  C   UNL     1      14.798   4.353  92.567  1.00  0.00     0.283 C 
HETATM    5  C   UNL     1      16.245   2.489  94.124  1.00  0.00     0.178 C 
HETATM    6  C   UNL     1      15.774   4.748  93.671  1.00  0.00     0.178 C 
ENDROOT
BRANCH   2   7
HETATM    7  C   UNL     1      13.283   2.632  91.813  1.00  0.00     0.277 C 
BRANCH   7   8
HETATM    8  C   UNL     1      12.103   3.538  91.719  1.00  0.00     0.011 A 
HETATM    9  C   UNL     1      11.672   3.994  90.473  1.00  0.00    -0.002 A 
HETATM   10  C   UNL     1      10.569   4.842  90.384  1.00  0.00     0.008 A 
HETATM   11  C   UNL     1       9.896   5.233  91.541  1.00  0.00     0.042 A 
HETATM   12  C   UNL     1      10.325   4.778  92.786  1.00  0.00     0.008 A 
HETATM   13  C   UNL     1      11.429   3.930  92.876  1.00  0.00    -0.002 A 
BRANCH  11  14
HETATM   14  C   UNL     1       8.764   6.102  91.449  1.00  0.00    -0.059 C 
HETATM   15  C   UNL     1       7.811   6.832  91.373  1.00  0.00    -0.059 C 
BRANCH  15  16
HETATM   16  C   UNL     1       6.679   7.701  91.282  1.00  0.00     0.042 A 
HETATM   17  C   UNL     1       6.300   8.225  90.046  1.00  0.00     0.008 A 
HETATM   18  C   UNL     1       5.194   9.070  89.957  1.00  0.00     0.005 A 
HETATM   19  C   UNL     1       4.492   9.371  91.105  1.00  0.00     0.056 A 
HETATM   20  C   UNL     1       4.846   8.866  92.339  1.00  0.00     0.005 A 
HETATM   21  C   UNL     1       5.952   8.021  92.428  1.00  0.00     0.008 A 
BRANCH  19  22
HETATM   22  C   UNL     1       3.315  10.273  91.010  1.00  0.00     0.254 C 
HETATM   23  O   UNL     1       2.251   9.829  90.585  1.00  0.00    -0.268 OA
HETATM   24  N   UNL     1       3.511  11.576  91.445  1.00  0.00    -0.335 N 
HETATM   25  HN  UNL     1       4.412  11.866  91.808  1.00  0.00     0.164 HD
BRANCH  24  26
HETATM   26  C   UNL     1       2.461  12.562  91.439  1.00  0.00     0.166 C 
BRANCH  26  27
HETATM   27  C   UNL     1       2.169  13.128  92.835  1.00  0.00     0.138 C 
HETATM   28  C   UNL     1       3.421  13.667  93.519  1.00  0.00     0.034 C 
BRANCH  27  29
HETATM   29  O   UNL     1       1.209  14.179  92.733  1.00  0.00    -0.383 OA
HETATM   30  H   UNL     1       1.082  14.563  93.617  1.00  0.00     0.210 HD
ENDBRANCH  27  29
ENDBRANCH  26  27
BRANCH  26  31
HETATM   31  C   UNL     1       2.863  13.666  90.466  1.00  0.00     0.181 C 
HETATM   32  O   UNL     1       2.274  14.743  90.394  1.00  0.00    -0.294 OA
BRANCH  31  33
HETATM   33  C   UNL     1       4.441  14.021  90.577  1.00  0.00     0.138 C 
BRANCH  33  34
HETATM   34  C   UNL     1       4.759  14.280  89.226  1.00  0.00     0.208 C 
HETATM   35  O   UNL     1       4.950  15.438  88.936  1.00  0.00    -0.289 OA
BRANCH  34  36
HETATM   36  C   UNL     1       5.171  13.433  88.233  1.00  0.00     0.194 C 
HETATM   37  O   UNL     1       4.808  12.109  87.965  1.00  0.00    -0.185 OA
ENDBRANCH  34  36
ENDBRANCH  33  34
ENDBRANCH  31  33
ENDBRANCH  26  31
ENDBRANCH  24  26
ENDBRANCH  19  22
ENDBRANCH  15  16
ENDBRANCH  11  14
ENDBRANCH   7   8
ENDBRANCH   2   7
TORSDOF 12
ENDMDL
