MODEL 1
REMARK VINA RESULT:      -7.0      0.000      0.000
REMARK  9 active torsions:
REMARK  status: ('A' for Active; 'I' for Inactive)
REMARK    1  A    between atoms: O_2  and  C_17 
REMARK    2  A    between atoms: N_5  and  C_10 
REMARK    3  A    between atoms: N_6  and  C_14 
REMARK       I    between atoms: N_6  and  C_23 
REMARK       I    between atoms: N_7  and  C_22 
REMARK    4  A    between atoms: C_10  and  C_13 
REMARK    5  A    between atoms: C_14  and  C_17 
REMARK    6  A    between atoms: C_14  and  C_22 
REMARK    7  A    between atoms: C_20  and  C_25 
REMARK    8  A    between atoms: C_23  and  C_24 
REMARK    9  A    between atoms: C_28  and  C_31 
ROOT
HETATM    1  O   UNL     1      16.710   3.473  93.742  1.00  0.00    -0.388 OA
HETATM    2  N   UNL     1      14.012   2.755  93.184  1.00  0.00     0.096 N 
HETATM    3  C   UNL     1      15.090   1.756  93.177  1.00  0.00     0.299 C 
HETATM    4  C   UNL     1      14.547   4.075  92.823  1.00  0.00     0.299 C 
HETATM    5  C   UNL     1      16.205   2.192  94.124  1.00  0.00     0.198 C 
HETATM    6  C   UNL     1      15.674   4.456  93.777  1.00  0.00     0.198 C 
ENDROOT
BRANCH   2   7
HETATM    7  C   UNL     1      12.937   2.363  92.275  1.00  0.00     0.311 C 
BRANCH   7   8
HETATM    8  C   UNL     1      12.036   3.502  91.936  1.00  0.00    -0.030 A 
HETATM    9  C   UNL     1      11.869   3.885  90.605  1.00  0.00     0.010 A 
HETATM   10  C   UNL     1      11.028   4.952  90.287  1.00  0.00     0.021 A 
HETATM   11  C   UNL     1      10.353   5.632  91.300  1.00  0.00     0.018 A 
HETATM   12  C   UNL     1      10.519   5.250  92.630  1.00  0.00     0.021 A 
HETATM   13  C   UNL     1      11.361   4.184  92.948  1.00  0.00     0.010 A 
BRANCH  11  14
HETATM   14  C   UNL     1       9.489   6.725  90.974  1.00  0.00    -0.061 C 
HETATM   15  C   UNL     1       8.763   7.643  90.701  1.00  0.00    -0.061 C 
BRANCH  15  16
HETATM   16  C   UNL     1       7.900   8.736  90.375  1.00  0.00     0.018 A 
HETATM   17  C   UNL     1       6.516   8.576  90.447  1.00  0.00     0.022 A 
HETATM   18  C   UNL     1       5.675   9.642  90.132  1.00  0.00     0.018 A 
HETATM   19  C   UNL     1       6.235  10.844  89.752  1.00  0.00     0.032 A 
HETATM   20  C   UNL     1       7.599  11.027  89.672  1.00  0.00     0.018 A 
HETATM   21  C   UNL     1       8.442   9.961  89.987  1.00  0.00     0.022 A 
BRANCH  19  22
HETATM   22  C   UNL     1       5.338  11.979  89.414  1.00  0.00     0.252 C 
HETATM   23  O   UNL     1       5.245  12.343  88.244  1.00  0.00    -0.268 OA
HETATM   24  N   UNL     1       4.638  12.538  90.475  1.00  0.00    -0.342 N 
HETATM   25  H   UNL     1       4.747  12.168  91.412  1.00  0.00     0.163 HD
BRANCH  24  26
HETATM   26  C   UNL     1       3.712  13.628  90.304  1.00  0.00     0.199 C 
BRANCH  26  27
HETATM   27  C   UNL     1       2.560  13.592  91.316  1.00  0.00     0.145 C 
HETATM   28  C   UNL     1       2.965  12.953  92.640  1.00  0.00     0.042 C 
BRANCH  27  29
HETATM   29  O   UNL     1       2.101  14.921  91.565  1.00  0.00    -0.393 OA
HETATM   30  H   UNL     1       2.873  15.511  91.586  1.00  0.00     0.210 HD
ENDBRANCH  27  29
ENDBRANCH  26  27
BRANCH  26  31
HETATM   31  C   UNL     1       4.501  14.930  90.408  1.00  0.00     0.220 C 
HETATM   32  O   UNL     1       4.731  15.490  91.478  1.00  0.00    -0.278 OA
HETATM   33  N   UNL     1       4.879  15.407  89.177  1.00  0.00    -0.271 NA
HETATM   34  H   UNL     1       4.631  15.020  88.274  1.00  0.00     0.127 HD
HETATM   35  H   UNL     1       4.381  16.521  88.483  1.00  0.00     0.127 HD
ENDBRANCH  26  31
ENDBRANCH  24  26
ENDBRANCH  19  22
ENDBRANCH  15  16
ENDBRANCH  11  14
ENDBRANCH   7   8
ENDBRANCH   2   7
TORSDOF 9
ENDMDL
