MODEL 1
REMARK VINA RESULT:      -6.9      0.000      0.000
REMARK  11 active torsions:
REMARK  status: ('A' for Active; 'I' for Inactive)
REMARK    1  A    between atoms: O_2  and  C_18 
REMARK    2  A    between atoms: O_5  and  P_8 
REMARK    3  A    between atoms: N_6  and  C_11 
REMARK    4  A    between atoms: N_7  and  C_15 
REMARK       I    between atoms: N_7  and  C_24 
REMARK    5  A    between atoms: P_8  and  C_23 
REMARK    6  A    between atoms: C_11  and  C_14 
REMARK    7  A    between atoms: C_15  and  C_18 
REMARK    8  A    between atoms: C_15  and  C_23 
REMARK    9  A    between atoms: C_21  and  C_26 
REMARK   10  A    between atoms: C_24  and  C_25 
REMARK   11  A    between atoms: C_29  and  C_32 
ROOT
HETATM    1  O   UNL     1      16.402   4.309  93.993  1.00  0.00     0.000 OA
HETATM    2  N   UNL     1      14.559   2.601  92.656  1.00  0.00     0.000 N 
HETATM    3  C   UNL     1      14.490   4.063  92.518  1.00  0.00     0.000 C 
HETATM    4  C   UNL     1      15.128   2.245  93.963  1.00  0.00     0.000 C 
HETATM    5  C   UNL     1      15.879   4.666  92.712  1.00  0.00     0.000 C 
HETATM    6  C   UNL     1      16.501   2.890  94.123  1.00  0.00     0.000 C 
ENDROOT
BRANCH   2   7
HETATM    7  C   UNL     1      13.236   2.003  92.484  1.00  0.00     0.000 C 
BRANCH   7   8
HETATM    8  C   UNL     1      12.195   3.014  92.142  1.00  0.00     0.000 A 
HETATM    9  C   UNL     1      11.796   3.181  90.816  1.00  0.00     0.000 A 
HETATM   10  C   UNL     1      10.824   4.128  90.494  1.00  0.00     0.000 A 
HETATM   11  C   UNL     1      10.250   4.906  91.500  1.00  0.00     0.000 A 
HETATM   12  C   UNL     1      10.648   4.739  92.825  1.00  0.00     0.000 A 
HETATM   13  C   UNL     1      11.620   3.793  93.147  1.00  0.00     0.000 A 
BRANCH  11  14
HETATM   14  C   UNL     1       9.251   5.876  91.170  1.00  0.00     0.000 C 
HETATM   15  C   UNL     1       8.411   6.690  90.893  1.00  0.00     0.000 C 
BRANCH  15  16
HETATM   16  C   UNL     1       7.413   7.659  90.565  1.00  0.00     0.000 A 
HETATM   17  C   UNL     1       6.168   7.618  91.194  1.00  0.00     0.000 A 
HETATM   18  C   UNL     1       5.195   8.565  90.876  1.00  0.00     0.000 A 
HETATM   19  C   UNL     1       5.488   9.532  89.936  1.00  0.00     0.000 A 
HETATM   20  C   UNL     1       6.710   9.593  89.300  1.00  0.00     0.000 A 
HETATM   21  C   UNL     1       7.684   8.647  89.618  1.00  0.00     0.000 A 
BRANCH  19  22
HETATM   22  C   UNL     1       4.450  10.539  89.596  1.00  0.00     0.000 C 
HETATM   23  O   UNL     1       3.535  10.225  88.840  1.00  0.00     0.000 OA
HETATM   24  N   UNL     1       4.590  11.783  90.196  1.00  0.00     0.000 N 
HETATM   25  HN  UNL     1       5.360  11.962  90.831  1.00  0.00     0.000 HD
BRANCH  24  26
HETATM   26  C   UNL     1       3.652  12.856  89.985  1.00  0.00     0.000 C 
BRANCH  26  27
HETATM   27  C   UNL     1       2.931  13.276  91.272  1.00  0.00     0.000 C 
HETATM   28  C   UNL     1       2.158  12.127  91.910  1.00  0.00     0.000 C 
BRANCH  27  29
HETATM   29  O   UNL     1       3.883  13.773  92.212  1.00  0.00     0.000 OA
HETATM   30  H   UNL     1       3.863  13.201  92.998  1.00  0.00     0.000 HD
ENDBRANCH  27  29
ENDBRANCH  26  27
BRANCH  26  31
HETATM   31  C   UNL     1       4.413  14.025  89.369  1.00  0.00     0.000 C 
HETATM   32  O   UNL     1       4.334  15.176  89.796  1.00  0.00     0.000 OA
BRANCH  31  33
HETATM   33  P   UNL     1       5.152  13.645  88.275  1.00  0.00     0.000 P 
HETATM   34  H   UNL     1       5.563  14.790  87.623  1.00  0.00     0.000 HD
BRANCH  33  35
HETATM   35  O   UNL     1       4.490  12.834  87.343  1.00  0.00     0.000 OA
HETATM   36  H   UNL     1       5.248  12.383  86.933  1.00  0.00     0.000 HD
ENDBRANCH  33  35
ENDBRANCH  31  33
ENDBRANCH  26  31
ENDBRANCH  24  26
ENDBRANCH  19  22
ENDBRANCH  15  16
ENDBRANCH  11  14
ENDBRANCH   7   8
ENDBRANCH   2   7
TORSDOF 11
ENDMDL
MODEL 2
REMARK VINA RESULT:      -6.5      1.931      2.925
REMARK  11 active torsions:
REMARK  status: ('A' for Active; 'I' for Inactive)
REMARK    1  A    between atoms: O_2  and  C_18 
REMARK    2  A    between atoms: O_5  and  P_8 
REMARK    3  A    between atoms: N_6  and  C_11 
REMARK    4  A    between atoms: N_7  and  C_15 
REMARK       I    between atoms: N_7  and  C_24 
REMARK    5  A    between atoms: P_8  and  C_23 
REMARK    6  A    between atoms: C_11  and  C_14 
REMARK    7  A    between atoms: C_15  and  C_18 
REMARK    8  A    between atoms: C_15  and  C_23 
REMARK    9  A    between atoms: C_21  and  C_26 
REMARK   10  A    between atoms: C_24  and  C_25 
REMARK   11  A    between atoms: C_29  and  C_32 
ROOT
HETATM    1  O   UNL     1      16.217   3.924  94.099  1.00  0.00     0.000 OA
HETATM    2  N   UNL     1      14.330   2.598  92.431  1.00  0.00     0.000 N 
HETATM    3  C   UNL     1      14.484   4.059  92.405  1.00  0.00     0.000 C 
HETATM    4  C   UNL     1      14.679   2.078  93.760  1.00  0.00     0.000 C 
HETATM    5  C   UNL     1      15.910   4.435  92.801  1.00  0.00     0.000 C 
HETATM    6  C   UNL     1      16.099   2.501  94.124  1.00  0.00     0.000 C 
ENDROOT
BRANCH   2   7
HETATM    7  C   UNL     1      12.967   2.215  92.065  1.00  0.00     0.000 C 
BRANCH   7   8
HETATM    8  C   UNL     1      12.016   3.361  92.138  1.00  0.00     0.000 A 
HETATM    9  C   UNL     1      11.626   3.864  93.380  1.00  0.00     0.000 A 
HETATM   10  C   UNL     1      10.735   4.934  93.451  1.00  0.00     0.000 A 
HETATM   11  C   UNL     1      10.235   5.502  92.279  1.00  0.00     0.000 A 
HETATM   12  C   UNL     1      10.623   5.000  91.038  1.00  0.00     0.000 A 
HETATM   13  C   UNL     1      11.514   3.930  90.968  1.00  0.00     0.000 A 
BRANCH  11  14
HETATM   14  C   UNL     1       9.322   6.601  92.351  1.00  0.00     0.000 C 
HETATM   15  C   UNL     1       8.555   7.525  92.411  1.00  0.00     0.000 C 
BRANCH  15  16
HETATM   16  C   UNL     1       7.642   8.623  92.484  1.00  0.00     0.000 A 
HETATM   17  C   UNL     1       7.933   9.718  93.298  1.00  0.00     0.000 A 
HETATM   18  C   UNL     1       7.043  10.790  93.366  1.00  0.00     0.000 A 
HETATM   19  C   UNL     1       5.885  10.744  92.620  1.00  0.00     0.000 A 
HETATM   20  C   UNL     1       5.574   9.673  91.808  1.00  0.00     0.000 A 
HETATM   21  C   UNL     1       6.463   8.600  91.739  1.00  0.00     0.000 A 
BRANCH  19  22
HETATM   22  C   UNL     1       4.937  11.885  92.695  1.00  0.00     0.000 C 
HETATM   23  O   UNL     1       4.578  12.296  93.796  1.00  0.00     0.000 OA
HETATM   24  N   UNL     1       4.540  12.427  91.480  1.00  0.00     0.000 N 
HETATM   25  HN  UNL     1       4.897  12.051  90.610  1.00  0.00     0.000 HD
BRANCH  24  26
HETATM   26  C   UNL     1       3.644  13.552  91.388  1.00  0.00     0.000 C 
BRANCH  26  27
HETATM   27  C   UNL     1       3.584  14.149  89.976  1.00  0.00     0.000 C 
HETATM   28  C   UNL     1       4.931  14.696  89.516  1.00  0.00     0.000 C 
BRANCH  27  29
HETATM   29  O   UNL     1       3.150  13.150  89.054  1.00  0.00     0.000 OA
HETATM   30  H   UNL     1       2.184  13.210  88.972  1.00  0.00     0.000 HD
ENDBRANCH  27  29
ENDBRANCH  26  27
BRANCH  26  31
HETATM   31  C   UNL     1       2.267  13.090  91.854  1.00  0.00     0.000 C 
HETATM   32  O   UNL     1       1.769  12.019  91.512  1.00  0.00     0.000 OA
BRANCH  31  33
HETATM   33  P   UNL     1       1.651  14.021  92.655  1.00  0.00     0.000 P 
HETATM   34  H   UNL     1       1.018  14.933  91.834  1.00  0.00     0.000 HD
BRANCH  33  35
HETATM   35  O   UNL     1       2.493  14.733  93.520  1.00  0.00     0.000 OA
HETATM   36  H   UNL     1       3.140  14.043  93.742  1.00  0.00     0.000 HD
ENDBRANCH  33  35
ENDBRANCH  31  33
ENDBRANCH  26  31
ENDBRANCH  24  26
ENDBRANCH  19  22
ENDBRANCH  15  16
ENDBRANCH  11  14
ENDBRANCH   7   8
ENDBRANCH   2   7
TORSDOF 11
ENDMDL
MODEL 3
REMARK VINA RESULT:      -4.3      3.298     12.424
REMARK  11 active torsions:
REMARK  status: ('A' for Active; 'I' for Inactive)
REMARK    1  A    between atoms: O_2  and  C_18 
REMARK    2  A    between atoms: O_5  and  P_8 
REMARK    3  A    between atoms: N_6  and  C_11 
REMARK    4  A    between atoms: N_7  and  C_15 
REMARK       I    between atoms: N_7  and  C_24 
REMARK    5  A    between atoms: P_8  and  C_23 
REMARK    6  A    between atoms: C_11  and  C_14 
REMARK    7  A    between atoms: C_15  and  C_18 
REMARK    8  A    between atoms: C_15  and  C_23 
REMARK    9  A    between atoms: C_21  and  C_26 
REMARK   10  A    between atoms: C_24  and  C_25 
REMARK   11  A    between atoms: C_29  and  C_32 
ROOT
HETATM    1  O   UNL     1       4.080  13.310  88.743  1.00  0.00     0.000 OA
HETATM    2  N   UNL     1       3.283  12.180  91.231  1.00  0.00     0.000 N 
HETATM    3  C   UNL     1       3.675  13.592  91.119  1.00  0.00     0.000 C 
HETATM    4  C   UNL     1       3.979  11.382  90.212  1.00  0.00     0.000 C 
HETATM    5  C   UNL     1       3.384  14.100  89.709  1.00  0.00     0.000 C 
HETATM    6  C   UNL     1       3.682  11.941  88.825  1.00  0.00     0.000 C 
ENDROOT
BRANCH   2   7
HETATM    7  C   UNL     1       3.563  11.670  92.572  1.00  0.00     0.000 C 
BRANCH   7   8
HETATM    8  C   UNL     1       4.651  10.651  92.576  1.00  0.00     0.000 A 
HETATM    9  C   UNL     1       4.338   9.297  92.449  1.00  0.00     0.000 A 
HETATM   10  C   UNL     1       5.355   8.342  92.455  1.00  0.00     0.000 A 
HETATM   11  C   UNL     1       6.684   8.742  92.585  1.00  0.00     0.000 A 
HETATM   12  C   UNL     1       6.998  10.094  92.712  1.00  0.00     0.000 A 
HETATM   13  C   UNL     1       5.982  11.049  92.707  1.00  0.00     0.000 A 
BRANCH  11  14
HETATM   14  C   UNL     1       7.727   7.763  92.589  1.00  0.00     0.000 C 
HETATM   15  C   UNL     1       8.604   6.940  92.591  1.00  0.00     0.000 C 
BRANCH  15  16
HETATM   16  C   UNL     1       9.647   5.962  92.594  1.00  0.00     0.000 A 
HETATM   17  C   UNL     1      10.065   5.386  91.394  1.00  0.00     0.000 A 
HETATM   18  C   UNL     1      11.084   4.434  91.397  1.00  0.00     0.000 A 
HETATM   19  C   UNL     1      11.663   4.080  92.598  1.00  0.00     0.000 A 
HETATM   20  C   UNL     1      11.267   4.635  93.797  1.00  0.00     0.000 A 
HETATM   21  C   UNL     1      10.248   5.587  93.796  1.00  0.00     0.000 A 
BRANCH  19  22
HETATM   22  C   UNL     1      12.747   3.065  92.601  1.00  0.00     0.000 C 
HETATM   23  O   UNL     1      12.493   1.914  92.252  1.00  0.00     0.000 OA
HETATM   24  N   UNL     1      14.002   3.516  92.985  1.00  0.00     0.000 N 
HETATM   25  HN  UNL     1      14.143   4.488  93.236  1.00  0.00     0.000 HD
BRANCH  24  26
HETATM   26  C   UNL     1      15.159   2.658  93.016  1.00  0.00     0.000 C 
BRANCH  26  27
HETATM   27  C   UNL     1      15.604   2.212  91.617  1.00  0.00     0.000 C 
HETATM   28  C   UNL     1      15.430   3.307  90.571  1.00  0.00     0.000 C 
BRANCH  27  29
HETATM   29  O   UNL     1      16.977   1.821  91.655  1.00  0.00     0.000 OA
HETATM   30  H   UNL     1      17.156   1.419  92.521  1.00  0.00     0.000 HD
ENDBRANCH  27  29
ENDBRANCH  26  27
BRANCH  26  31
HETATM   31  C   UNL     1      16.274   3.405  93.740  1.00  0.00     0.000 C 
HETATM   32  O   UNL     1      17.307   2.859  94.124  1.00  0.00     0.000 OA
BRANCH  31  33
HETATM   33  P   UNL     1      15.967   4.729  93.940  1.00  0.00     0.000 P 
HETATM   34  H   UNL     1      14.593   4.841  93.999  1.00  0.00     0.000 HD
BRANCH  33  35
HETATM   35  O   UNL     1      16.429   5.617  92.958  1.00  0.00     0.000 OA
HETATM   36  H   UNL     1      16.804   4.989  92.318  1.00  0.00     0.000 HD
ENDBRANCH  33  35
ENDBRANCH  31  33
ENDBRANCH  26  31
ENDBRANCH  24  26
ENDBRANCH  19  22
ENDBRANCH  15  16
ENDBRANCH  11  14
ENDBRANCH   7   8
ENDBRANCH   2   7
TORSDOF 11
ENDMDL
MODEL 4
REMARK VINA RESULT:      -4.2      3.470     12.329
REMARK  11 active torsions:
REMARK  status: ('A' for Active; 'I' for Inactive)
REMARK    1  A    between atoms: O_2  and  C_18 
REMARK    2  A    between atoms: O_5  and  P_8 
REMARK    3  A    between atoms: N_6  and  C_11 
REMARK    4  A    between atoms: N_7  and  C_15 
REMARK       I    between atoms: N_7  and  C_24 
REMARK    5  A    between atoms: P_8  and  C_23 
REMARK    6  A    between atoms: C_11  and  C_14 
REMARK    7  A    between atoms: C_15  and  C_18 
REMARK    8  A    between atoms: C_15  and  C_23 
REMARK    9  A    between atoms: C_21  and  C_26 
REMARK   10  A    between atoms: C_24  and  C_25 
REMARK   11  A    between atoms: C_29  and  C_32 
ROOT
HETATM    1  O   UNL     1       5.294  15.033  89.257  1.00  0.00     0.000 OA
HETATM    2  N   UNL     1       3.358  13.349  90.488  1.00  0.00     0.000 N 
HETATM    3  C   UNL     1       3.942  14.494  91.199  1.00  0.00     0.000 C 
HETATM    4  C   UNL     1       4.314  12.828  89.501  1.00  0.00     0.000 C 
HETATM    5  C   UNL     1       4.359  15.567  90.197  1.00  0.00     0.000 C 
HETATM    6  C   UNL     1       4.722  13.939  88.540  1.00  0.00     0.000 C 
ENDROOT
BRANCH   2   7
HETATM    7  C   UNL     1       2.960  12.303  91.430  1.00  0.00     0.000 C 
BRANCH   7   8
HETATM    8  C   UNL     1       4.025  11.277  91.620  1.00  0.00     0.000 A 
HETATM    9  C   UNL     1       3.874  10.006  91.065  1.00  0.00     0.000 A 
HETATM   10  C   UNL     1       4.868   9.044  91.244  1.00  0.00     0.000 A 
HETATM   11  C   UNL     1       6.013   9.354  91.978  1.00  0.00     0.000 A 
HETATM   12  C   UNL     1       6.164  10.623  92.533  1.00  0.00     0.000 A 
HETATM   13  C   UNL     1       5.170  11.585  92.354  1.00  0.00     0.000 A 
BRANCH  11  14
HETATM   14  C   UNL     1       7.033   8.368  92.160  1.00  0.00     0.000 C 
HETATM   15  C   UNL     1       7.891   7.540  92.313  1.00  0.00     0.000 C 
BRANCH  15  16
HETATM   16  C   UNL     1       8.912   6.555  92.495  1.00  0.00     0.000 A 
HETATM   17  C   UNL     1       9.182   5.636  91.481  1.00  0.00     0.000 A 
HETATM   18  C   UNL     1      10.180   4.678  91.658  1.00  0.00     0.000 A 
HETATM   19  C   UNL     1      10.884   4.659  92.843  1.00  0.00     0.000 A 
HETATM   20  C   UNL     1      10.635   5.556  93.861  1.00  0.00     0.000 A 
HETATM   21  C   UNL     1       9.638   6.515  93.686  1.00  0.00     0.000 A 
BRANCH  19  22
HETATM   22  C   UNL     1      11.945   3.636  93.032  1.00  0.00     0.000 C 
HETATM   23  O   UNL     1      11.673   2.451  92.857  1.00  0.00     0.000 OA
HETATM   24  N   UNL     1      13.200   4.119  93.378  1.00  0.00     0.000 N 
HETATM   25  HN  UNL     1      13.356   5.115  93.481  1.00  0.00     0.000 HD
BRANCH  24  26
HETATM   26  C   UNL     1      14.336   3.255  93.572  1.00  0.00     0.000 C 
BRANCH  26  27
HETATM   27  C   UNL     1      14.587   2.326  92.377  1.00  0.00     0.000 C 
HETATM   28  C   UNL     1      13.827   1.009  92.491  1.00  0.00     0.000 C 
BRANCH  27  29
HETATM   29  O   UNL     1      14.196   2.983  91.172  1.00  0.00     0.000 OA
HETATM   30  H   UNL     1      13.647   3.749  91.406  1.00  0.00     0.000 HD
ENDBRANCH  27  29
ENDBRANCH  26  27
BRANCH  26  31
HETATM   31  C   UNL     1      15.549   4.136  93.853  1.00  0.00     0.000 C 
HETATM   32  O   UNL     1      15.510   5.364  93.804  1.00  0.00     0.000 OA
BRANCH  31  33
HETATM   33  P   UNL     1      16.676   3.398  94.123  1.00  0.00     0.000 P 
HETATM   34  H   UNL     1      17.273   3.933  95.246  1.00  0.00     0.000 HD
BRANCH  33  35
HETATM   35  O   UNL     1      17.637   3.356  93.103  1.00  0.00     0.000 OA
HETATM   36  H   UNL     1      17.305   2.605  92.581  1.00  0.00     0.000 HD
ENDBRANCH  33  35
ENDBRANCH  31  33
ENDBRANCH  26  31
ENDBRANCH  24  26
ENDBRANCH  19  22
ENDBRANCH  15  16
ENDBRANCH  11  14
ENDBRANCH   7   8
ENDBRANCH   2   7
TORSDOF 11
ENDMDL
MODEL 5
REMARK VINA RESULT:      -4.1      2.008      2.610
REMARK  11 active torsions:
REMARK  status: ('A' for Active; 'I' for Inactive)
REMARK    1  A    between atoms: O_2  and  C_18 
REMARK    2  A    between atoms: O_5  and  P_8 
REMARK    3  A    between atoms: N_6  and  C_11 
REMARK    4  A    between atoms: N_7  and  C_15 
REMARK       I    between atoms: N_7  and  C_24 
REMARK    5  A    between atoms: P_8  and  C_23 
REMARK    6  A    between atoms: C_11  and  C_14 
REMARK    7  A    between atoms: C_15  and  C_18 
REMARK    8  A    between atoms: C_15  and  C_23 
REMARK    9  A    between atoms: C_21  and  C_26 
REMARK   10  A    between atoms: C_24  and  C_25 
REMARK   11  A    between atoms: C_29  and  C_32 
ROOT
HETATM    1  O   UNL     1      15.538   3.892  91.951  1.00  0.00     0.000 OA
HETATM    2  N   UNL     1      13.112   2.405  91.979  1.00  0.00     0.000 N 
HETATM    3  C   UNL     1      13.181   3.750  91.391  1.00  0.00     0.000 C 
HETATM    4  C   UNL     1      14.107   2.273  93.052  1.00  0.00     0.000 C 
HETATM    5  C   UNL     1      14.596   4.020  90.885  1.00  0.00     0.000 C 
HETATM    6  C   UNL     1      15.499   2.578  92.508  1.00  0.00     0.000 C 
ENDROOT
BRANCH   2   7
HETATM    7  C   UNL     1      11.767   2.129  92.480  1.00  0.00     0.000 C 
BRANCH   7   8
HETATM    8  C   UNL     1      10.911   3.349  92.514  1.00  0.00     0.000 A 
HETATM    9  C   UNL     1       9.985   3.579  91.496  1.00  0.00     0.000 A 
HETATM   10  C   UNL     1       9.186   4.722  91.526  1.00  0.00     0.000 A 
HETATM   11  C   UNL     1       9.311   5.632  92.575  1.00  0.00     0.000 A 
HETATM   12  C   UNL     1      10.235   5.403  93.592  1.00  0.00     0.000 A 
HETATM   13  C   UNL     1      11.035   4.261  93.563  1.00  0.00     0.000 A 
BRANCH  11  14
HETATM   14  C   UNL     1       8.490   6.803  92.606  1.00  0.00     0.000 C 
HETATM   15  C   UNL     1       7.799   7.787  92.633  1.00  0.00     0.000 C 
BRANCH  15  16
HETATM   16  C   UNL     1       6.979   8.958  92.664  1.00  0.00     0.000 A 
HETATM   17  C   UNL     1       6.826   9.732  91.514  1.00  0.00     0.000 A 
HETATM   18  C   UNL     1       6.024  10.873  91.544  1.00  0.00     0.000 A 
HETATM   19  C   UNL     1       5.392  11.213  92.722  1.00  0.00     0.000 A 
HETATM   20  C   UNL     1       5.528  10.464  93.873  1.00  0.00     0.000 A 
HETATM   21  C   UNL     1       6.330   9.323  93.844  1.00  0.00     0.000 A 
BRANCH  19  22
HETATM   22  C   UNL     1       4.539  12.429  92.754  1.00  0.00     0.000 C 
HETATM   23  O   UNL     1       4.475  13.089  93.788  1.00  0.00     0.000 OA
HETATM   24  N   UNL     1       3.884  12.743  91.572  1.00  0.00     0.000 N 
HETATM   25  HN  UNL     1       4.004  12.164  90.749  1.00  0.00     0.000 HD
BRANCH  24  26
HETATM   26  C   UNL     1       3.040  13.903  91.438  1.00  0.00     0.000 C 
BRANCH  26  27
HETATM   27  C   UNL     1       1.775  13.821  92.302  1.00  0.00     0.000 C 
HETATM   28  C   UNL     1       1.219  12.404  92.389  1.00  0.00     0.000 C 
BRANCH  27  29
HETATM   29  O   UNL     1       2.066  14.286  93.619  1.00  0.00     0.000 OA
HETATM   30  H   UNL     1       2.901  13.882  93.908  1.00  0.00     0.000 HD
ENDBRANCH  27  29
ENDBRANCH  26  27
BRANCH  26  31
HETATM   31  C   UNL     1       3.875  15.130  91.792  1.00  0.00     0.000 C 
HETATM   32  O   UNL     1       3.893  15.625  92.918  1.00  0.00     0.000 OA
BRANCH  31  33
HETATM   33  P   UNL     1       4.559  15.623  90.708  1.00  0.00     0.000 P 
HETATM   34  H   UNL     1       3.902  16.757  90.274  1.00  0.00     0.000 HD
BRANCH  33  35
HETATM   35  O   UNL     1       4.681  14.753  89.616  1.00  0.00     0.000 OA
HETATM   36  H   UNL     1       5.495  15.096  89.210  1.00  0.00     0.000 HD
ENDBRANCH  33  35
ENDBRANCH  31  33
ENDBRANCH  26  31
ENDBRANCH  24  26
ENDBRANCH  19  22
ENDBRANCH  15  16
ENDBRANCH  11  14
ENDBRANCH   7   8
ENDBRANCH   2   7
TORSDOF 11
ENDMDL
MODEL 6
REMARK VINA RESULT:      -4.0      3.218     12.489
REMARK  11 active torsions:
REMARK  status: ('A' for Active; 'I' for Inactive)
REMARK    1  A    between atoms: O_2  and  C_18 
REMARK    2  A    between atoms: O_5  and  P_8 
REMARK    3  A    between atoms: N_6  and  C_11 
REMARK    4  A    between atoms: N_7  and  C_15 
REMARK       I    between atoms: N_7  and  C_24 
REMARK    5  A    between atoms: P_8  and  C_23 
REMARK    6  A    between atoms: C_11  and  C_14 
REMARK    7  A    between atoms: C_15  and  C_18 
REMARK    8  A    between atoms: C_15  and  C_23 
REMARK    9  A    between atoms: C_21  and  C_26 
REMARK   10  A    between atoms: C_24  and  C_25 
REMARK   11  A    between atoms: C_29  and  C_32 
ROOT
HETATM    1  O   UNL     1       3.552  14.916  91.851  1.00  0.00     0.000 OA
HETATM    2  N   UNL     1       4.030  12.312  90.805  1.00  0.00     0.000 N 
HETATM    3  C   UNL     1       3.132  13.259  90.129  1.00  0.00     0.000 C 
HETATM    4  C   UNL     1       4.041  12.574  92.251  1.00  0.00     0.000 C 
HETATM    5  C   UNL     1       3.560  14.690  90.440  1.00  0.00     0.000 C 
HETATM    6  C   UNL     1       4.447  14.021  92.512  1.00  0.00     0.000 C 
ENDROOT
BRANCH   2   7
HETATM    7  C   UNL     1       3.631  10.933  90.529  1.00  0.00     0.000 C 
BRANCH   7   8
HETATM    8  C   UNL     1       4.746   9.966  90.742  1.00  0.00     0.000 A 
HETATM    9  C   UNL     1       4.511   8.596  90.625  1.00  0.00     0.000 A 
HETATM   10  C   UNL     1       5.553   7.690  90.825  1.00  0.00     0.000 A 
HETATM   11  C   UNL     1       6.829   8.156  91.140  1.00  0.00     0.000 A 
HETATM   12  C   UNL     1       7.065   9.524  91.257  1.00  0.00     0.000 A 
HETATM   13  C   UNL     1       6.023  10.430  91.057  1.00  0.00     0.000 A 
BRANCH  11  14
HETATM   14  C   UNL     1       7.898   7.227  91.344  1.00  0.00     0.000 C 
HETATM   15  C   UNL     1       8.796   6.446  91.515  1.00  0.00     0.000 C 
BRANCH  15  16
HETATM   16  C   UNL     1       9.864   5.517  91.718  1.00  0.00     0.000 A 
HETATM   17  C   UNL     1      10.390   5.330  92.997  1.00  0.00     0.000 A 
HETATM   18  C   UNL     1      11.430   4.421  93.195  1.00  0.00     0.000 A 
HETATM   19  C   UNL     1      11.920   3.722  92.112  1.00  0.00     0.000 A 
HETATM   20  C   UNL     1      11.417   3.889  90.839  1.00  0.00     0.000 A 
HETATM   21  C   UNL     1      10.377   4.797  90.639  1.00  0.00     0.000 A 
BRANCH  19  22
HETATM   22  C   UNL     1      13.029   2.756  92.323  1.00  0.00     0.000 C 
HETATM   23  O   UNL     1      12.817   1.555  92.169  1.00  0.00     0.000 OA
HETATM   24  N   UNL     1      14.257   3.305  92.665  1.00  0.00     0.000 N 
HETATM   25  HN  UNL     1      14.363   4.309  92.750  1.00  0.00     0.000 HD
BRANCH  24  26
HETATM   26  C   UNL     1      15.433   2.501  92.879  1.00  0.00     0.000 C 
BRANCH  26  27
HETATM   27  C   UNL     1      16.069   2.020  91.569  1.00  0.00     0.000 C 
HETATM   28  C   UNL     1      15.653   2.866  90.371  1.00  0.00     0.000 C 
BRANCH  27  29
HETATM   29  O   UNL     1      17.491   2.053  91.688  1.00  0.00     0.000 OA
HETATM   30  H   UNL     1      17.824   1.142  91.632  1.00  0.00     0.000 HD
ENDBRANCH  27  29
ENDBRANCH  26  27
BRANCH  26  31
HETATM   31  C   UNL     1      16.417   3.326  93.702  1.00  0.00     0.000 C 
HETATM   32  O   UNL     1      17.481   2.875  94.124  1.00  0.00     0.000 OA
BRANCH  31  33
HETATM   33  P   UNL     1      15.956   4.598  93.941  1.00  0.00     0.000 P 
HETATM   34  H   UNL     1      14.578   4.568  93.872  1.00  0.00     0.000 HD
BRANCH  33  35
HETATM   35  O   UNL     1      16.409   5.588  93.058  1.00  0.00     0.000 OA
HETATM   36  H   UNL     1      17.160   5.125  92.648  1.00  0.00     0.000 HD
ENDBRANCH  33  35
ENDBRANCH  31  33
ENDBRANCH  26  31
ENDBRANCH  24  26
ENDBRANCH  19  22
ENDBRANCH  15  16
ENDBRANCH  11  14
ENDBRANCH   7   8
ENDBRANCH   2   7
TORSDOF 11
ENDMDL
