MODEL 1
REMARK VINA RESULT:      -6.1      0.000      0.000
REMARK  12 active torsions:
REMARK  status: ('A' for Active; 'I' for Inactive)
REMARK    1  A    between atoms: O_2  and  C_16 
REMARK    2  A    between atoms: N_5  and  C_9 
REMARK    3  A    between atoms: N_6  and  C_13 
REMARK       I    between atoms: N_6  and  C_22 
REMARK    4  A    between atoms: C_9  and  C_12 
REMARK    5  A    between atoms: C_13  and  C_16 
REMARK    6  A    between atoms: C_13  and  C_21 
REMARK    7  A    between atoms: C_19  and  C_24 
REMARK    8  A    between atoms: C_21  and  C_33 
REMARK    9  A    between atoms: C_22  and  C_23 
REMARK   10  A    between atoms: C_27  and  C_30 
REMARK   11  A    between atoms: C_33  and  C_34 
REMARK   12  A    between atoms: C_34  and  C_35 
ROOT
HETATM    1  O   UNL     1      16.185   4.295  94.112  1.00  0.00    -0.350 OA
HETATM    2  N   UNL     1      14.543   2.576  92.547  1.00  0.00     0.147 N 
HETATM    3  C   UNL     1      14.360   4.034  92.535  1.00  0.00     0.283 C 
HETATM    4  C   UNL     1      15.088   2.148  93.843  1.00  0.00     0.283 C 
HETATM    5  C   UNL     1      15.686   4.724  92.844  1.00  0.00     0.178 C 
HETATM    6  C   UNL     1      16.395   2.882  94.122  1.00  0.00     0.178 C 
ENDROOT
BRANCH   2   7
HETATM    7  C   UNL     1      13.281   1.893  92.263  1.00  0.00     0.277 C 
BRANCH   7   8
HETATM    8  C   UNL     1      12.155   2.846  92.052  1.00  0.00     0.011 A 
HETATM    9  C   UNL     1      11.612   3.535  93.137  1.00  0.00    -0.002 A 
HETATM   10  C   UNL     1      10.557   4.425  92.941  1.00  0.00     0.008 A 
HETATM   11  C   UNL     1      10.046   4.628  91.659  1.00  0.00     0.042 A 
HETATM   12  C   UNL     1      10.588   3.941  90.574  1.00  0.00     0.008 A 
HETATM   13  C   UNL     1      11.643   3.050  90.770  1.00  0.00    -0.002 A 
BRANCH  11  14
HETATM   14  C   UNL     1       8.965   5.543  91.457  1.00  0.00    -0.059 C 
HETATM   15  C   UNL     1       8.057   6.313  91.288  1.00  0.00    -0.059 C 
BRANCH  15  16
HETATM   16  C   UNL     1       6.977   7.228  91.087  1.00  0.00     0.042 A 
HETATM   17  C   UNL     1       7.206   8.602  91.160  1.00  0.00     0.008 A 
HETATM   18  C   UNL     1       6.153   9.495  90.961  1.00  0.00     0.005 A 
HETATM   19  C   UNL     1       4.896   8.994  90.693  1.00  0.00     0.056 A 
HETATM   20  C   UNL     1       4.644   7.640  90.615  1.00  0.00     0.005 A 
HETATM   21  C   UNL     1       5.696   6.747  90.814  1.00  0.00     0.008 A 
BRANCH  19  22
HETATM   22  C   UNL     1       3.774   9.945  90.482  1.00  0.00     0.254 C 
HETATM   23  O   UNL     1       2.880   9.653  89.692  1.00  0.00    -0.268 OA
HETATM   24  N   UNL     1       3.816  11.111  91.235  1.00  0.00    -0.335 N 
HETATM   25  HN  UNL     1       4.574  11.273  91.887  1.00  0.00     0.164 HD
BRANCH  24  26
HETATM   26  C   UNL     1       2.789  12.119  91.162  1.00  0.00     0.166 C 
BRANCH  26  27
HETATM   27  C   UNL     1       1.839  12.088  92.366  1.00  0.00     0.138 C 
HETATM   28  C   UNL     1       1.707  10.694  92.970  1.00  0.00     0.034 C 
BRANCH  27  29
HETATM   29  O   UNL     1       2.312  12.985  93.370  1.00  0.00    -0.383 OA
HETATM   30  H   UNL     1       1.679  13.719  93.446  1.00  0.00     0.210 HD
ENDBRANCH  27  29
ENDBRANCH  26  27
BRANCH  26  31
HETATM   31  C   UNL     1       3.476  13.474  91.032  1.00  0.00     0.181 C 
HETATM   32  O   UNL     1       4.630  13.679  91.404  1.00  0.00    -0.294 OA
BRANCH  31  33
HETATM   33  C   UNL     1       3.378  14.057  89.522  1.00  0.00     0.138 C 
BRANCH  33  34
HETATM   34  C   UNL     1       4.326  13.249  88.855  1.00  0.00     0.208 C 
HETATM   35  O   UNL     1       3.879  12.356  88.173  1.00  0.00    -0.289 OA
BRANCH  34  36
HETATM   36  C   UNL     1       5.655  13.462  88.608  1.00  0.00     0.194 C 
HETATM   37  O   UNL     1       6.713  12.551  88.509  1.00  0.00    -0.185 OA
ENDBRANCH  34  36
ENDBRANCH  33  34
ENDBRANCH  31  33
ENDBRANCH  26  31
ENDBRANCH  24  26
ENDBRANCH  19  22
ENDBRANCH  15  16
ENDBRANCH  11  14
ENDBRANCH   7   8
ENDBRANCH   2   7
TORSDOF 12
ENDMDL
