MODEL 1
REMARK VINA RESULT:      -6.8      0.000      0.000
REMARK  11 active torsions:
REMARK  status: ('A' for Active; 'I' for Inactive)
REMARK    1  A    between atoms: O_2  and  C_18 
REMARK    2  A    between atoms: O_5  and  P_8 
REMARK    3  A    between atoms: N_6  and  C_11 
REMARK    4  A    between atoms: N_7  and  C_15 
REMARK       I    between atoms: N_7  and  C_24 
REMARK    5  A    between atoms: P_8  and  C_23 
REMARK    6  A    between atoms: C_11  and  C_14 
REMARK    7  A    between atoms: C_15  and  C_18 
REMARK    8  A    between atoms: C_15  and  C_23 
REMARK    9  A    between atoms: C_21  and  C_26 
REMARK   10  A    between atoms: C_24  and  C_25 
REMARK   11  A    between atoms: C_29  and  C_32 
ROOT
HETATM    1  O   UNL     1      16.152   4.204  94.001  1.00  0.00     0.000 OA
HETATM    2  N   UNL     1      14.398   2.614  92.421  1.00  0.00     0.000 N 
HETATM    3  C   UNL     1      14.342   4.083  92.389  1.00  0.00     0.000 C 
HETATM    4  C   UNL     1      14.878   2.157  93.732  1.00  0.00     0.000 C 
HETATM    5  C   UNL     1      15.717   4.659  92.718  1.00  0.00     0.000 C 
HETATM    6  C   UNL     1      16.238   2.779  94.031  1.00  0.00     0.000 C 
ENDROOT
BRANCH   2   7
HETATM    7  C   UNL     1      13.088   2.040  92.118  1.00  0.00     0.000 C 
BRANCH   7   8
HETATM    8  C   UNL     1      12.054   3.085  91.866  1.00  0.00     0.000 A 
HETATM    9  C   UNL     1      11.390   3.681  92.939  1.00  0.00     0.000 A 
HETATM   10  C   UNL     1      10.421   4.656  92.704  1.00  0.00     0.000 A 
HETATM   11  C   UNL     1      10.119   5.037  91.397  1.00  0.00     0.000 A 
HETATM   12  C   UNL     1      10.782   4.444  90.325  1.00  0.00     0.000 A 
HETATM   13  C   UNL     1      11.751   3.467  90.559  1.00  0.00     0.000 A 
BRANCH  11  14
HETATM   14  C   UNL     1       9.127   6.040  91.157  1.00  0.00     0.000 C 
HETATM   15  C   UNL     1       8.294   6.883  90.955  1.00  0.00     0.000 C 
BRANCH  15  16
HETATM   16  C   UNL     1       7.304   7.885  90.714  1.00  0.00     0.000 A 
HETATM   17  C   UNL     1       7.692   9.201  90.456  1.00  0.00     0.000 A 
HETATM   18  C   UNL     1       6.725  10.178  90.219  1.00  0.00     0.000 A 
HETATM   19  C   UNL     1       5.394   9.818  90.243  1.00  0.00     0.000 A 
HETATM   20  C   UNL     1       4.985   8.526  90.496  1.00  0.00     0.000 A 
HETATM   21  C   UNL     1       5.950   7.548  90.734  1.00  0.00     0.000 A 
BRANCH  19  22
HETATM   22  C   UNL     1       4.364  10.860  89.992  1.00  0.00     0.000 C 
HETATM   23  O   UNL     1       3.245  10.519  89.619  1.00  0.00     0.000 OA
HETATM   24  N   UNL     1       4.755  12.171  90.230  1.00  0.00     0.000 N 
HETATM   25  HN  UNL     1       5.690  12.375  90.562  1.00  0.00     0.000 HD
BRANCH  24  26
HETATM   26  C   UNL     1       3.864  13.289  90.056  1.00  0.00     0.000 C 
BRANCH  26  27
HETATM   27  C   UNL     1       3.350  13.852  91.387  1.00  0.00     0.000 C 
HETATM   28  C   UNL     1       2.408  12.889  92.103  1.00  0.00     0.000 C 
BRANCH  27  29
HETATM   29  O   UNL     1       4.456  14.140  92.242  1.00  0.00     0.000 OA
HETATM   30  H   UNL     1       4.594  15.102  92.248  1.00  0.00     0.000 HD
ENDBRANCH  27  29
ENDBRANCH  26  27
BRANCH  26  31
HETATM   31  C   UNL     1       4.604  14.354  89.253  1.00  0.00     0.000 C 
HETATM   32  O   UNL     1       4.612  15.543  89.565  1.00  0.00     0.000 OA
BRANCH  31  33
HETATM   33  P   UNL     1       5.214  13.832  88.138  1.00  0.00     0.000 P 
HETATM   34  H   UNL     1       5.483  14.876  87.276  1.00  0.00     0.000 HD
BRANCH  33  35
HETATM   35  O   UNL     1       4.476  12.871  87.432  1.00  0.00     0.000 OA
HETATM   36  H   UNL     1       3.770  13.429  87.063  1.00  0.00     0.000 HD
ENDBRANCH  33  35
ENDBRANCH  31  33
ENDBRANCH  26  31
ENDBRANCH  24  26
ENDBRANCH  19  22
ENDBRANCH  15  16
ENDBRANCH  11  14
ENDBRANCH   7   8
ENDBRANCH   2   7
TORSDOF 11
ENDMDL
MODEL 2
REMARK VINA RESULT:      -6.1      1.946      2.717
REMARK  11 active torsions:
REMARK  status: ('A' for Active; 'I' for Inactive)
REMARK    1  A    between atoms: O_2  and  C_18 
REMARK    2  A    between atoms: O_5  and  P_8 
REMARK    3  A    between atoms: N_6  and  C_11 
REMARK    4  A    between atoms: N_7  and  C_15 
REMARK       I    between atoms: N_7  and  C_24 
REMARK    5  A    between atoms: P_8  and  C_23 
REMARK    6  A    between atoms: C_11  and  C_14 
REMARK    7  A    between atoms: C_15  and  C_18 
REMARK    8  A    between atoms: C_15  and  C_23 
REMARK    9  A    between atoms: C_21  and  C_26 
REMARK   10  A    between atoms: C_24  and  C_25 
REMARK   11  A    between atoms: C_29  and  C_32 
ROOT
HETATM    1  O   UNL     1      16.014   3.988  93.747  1.00  0.00     0.000 OA
HETATM    2  N   UNL     1      13.994   2.426  92.489  1.00  0.00     0.000 N 
HETATM    3  C   UNL     1      14.235   3.823  92.104  1.00  0.00     0.000 C 
HETATM    4  C   UNL     1      14.357   2.222  93.898  1.00  0.00     0.000 C 
HETATM    5  C   UNL     1      15.694   4.188  92.369  1.00  0.00     0.000 C 
HETATM    6  C   UNL     1      15.811   2.625  94.122  1.00  0.00     0.000 C 
ENDROOT
BRANCH   2   7
HETATM    7  C   UNL     1      12.599   2.058  92.253  1.00  0.00     0.000 C 
BRANCH   7   8
HETATM    8  C   UNL     1      11.683   3.232  92.318  1.00  0.00     0.000 A 
HETATM    9  C   UNL     1      11.649   4.027  93.464  1.00  0.00     0.000 A 
HETATM   10  C   UNL     1      10.790   5.124  93.527  1.00  0.00     0.000 A 
HETATM   11  C   UNL     1       9.969   5.428  92.442  1.00  0.00     0.000 A 
HETATM   12  C   UNL     1      10.002   4.635  91.296  1.00  0.00     0.000 A 
HETATM   13  C   UNL     1      10.860   3.537  91.234  1.00  0.00     0.000 A 
BRANCH  11  14
HETATM   14  C   UNL     1       9.090   6.555  92.505  1.00  0.00     0.000 C 
HETATM   15  C   UNL     1       8.351   7.502  92.558  1.00  0.00     0.000 C 
BRANCH  15  16
HETATM   16  C   UNL     1       7.472   8.628  92.622  1.00  0.00     0.000 A 
HETATM   17  C   UNL     1       7.563   9.637  91.662  1.00  0.00     0.000 A 
HETATM   18  C   UNL     1       6.704  10.735  91.723  1.00  0.00     0.000 A 
HETATM   19  C   UNL     1       5.775  10.798  92.741  1.00  0.00     0.000 A 
HETATM   20  C   UNL     1       5.666   9.814  93.701  1.00  0.00     0.000 A 
HETATM   21  C   UNL     1       6.524   8.717  93.641  1.00  0.00     0.000 A 
BRANCH  19  22
HETATM   22  C   UNL     1       4.861  11.968  92.806  1.00  0.00     0.000 C 
HETATM   23  O   UNL     1       4.656  12.509  93.890  1.00  0.00     0.000 OA
HETATM   24  N   UNL     1       4.317  12.383  91.599  1.00  0.00     0.000 N 
HETATM   25  HN  UNL     1       4.552  11.903  90.738  1.00  0.00     0.000 HD
BRANCH  24  26
HETATM   26  C   UNL     1       3.433  13.516  91.495  1.00  0.00     0.000 C 
BRANCH  26  27
HETATM   27  C   UNL     1       3.382  14.102  90.078  1.00  0.00     0.000 C 
HETATM   28  C   UNL     1       4.676  14.807  89.691  1.00  0.00     0.000 C 
BRANCH  27  29
HETATM   29  O   UNL     1       3.124  13.057  89.140  1.00  0.00     0.000 OA
HETATM   30  H   UNL     1       2.250  13.212  88.744  1.00  0.00     0.000 HD
ENDBRANCH  27  29
ENDBRANCH  26  27
BRANCH  26  31
HETATM   31  C   UNL     1       2.050  13.073  91.963  1.00  0.00     0.000 C 
HETATM   32  O   UNL     1       1.569  11.977  91.684  1.00  0.00     0.000 OA
BRANCH  31  33
HETATM   33  P   UNL     1       1.409  14.050  92.686  1.00  0.00     0.000 P 
HETATM   34  H   UNL     1       0.274  14.414  91.991  1.00  0.00     0.000 HD
BRANCH  33  35
HETATM   35  O   UNL     1       2.153  15.212  92.934  1.00  0.00     0.000 OA
HETATM   36  H   UNL     1       2.459  15.034  93.840  1.00  0.00     0.000 HD
ENDBRANCH  33  35
ENDBRANCH  31  33
ENDBRANCH  26  31
ENDBRANCH  24  26
ENDBRANCH  19  22
ENDBRANCH  15  16
ENDBRANCH  11  14
ENDBRANCH   7   8
ENDBRANCH   2   7
TORSDOF 11
ENDMDL
MODEL 3
REMARK VINA RESULT:      -6.0      1.567      2.090
REMARK  11 active torsions:
REMARK  status: ('A' for Active; 'I' for Inactive)
REMARK    1  A    between atoms: O_2  and  C_18 
REMARK    2  A    between atoms: O_5  and  P_8 
REMARK    3  A    between atoms: N_6  and  C_11 
REMARK    4  A    between atoms: N_7  and  C_15 
REMARK       I    between atoms: N_7  and  C_24 
REMARK    5  A    between atoms: P_8  and  C_23 
REMARK    6  A    between atoms: C_11  and  C_14 
REMARK    7  A    between atoms: C_15  and  C_18 
REMARK    8  A    between atoms: C_15  and  C_23 
REMARK    9  A    between atoms: C_21  and  C_26 
REMARK   10  A    between atoms: C_24  and  C_25 
REMARK   11  A    between atoms: C_29  and  C_32 
ROOT
HETATM    1  O   UNL     1      16.208   2.770  93.915  1.00  0.00     0.000 OA
HETATM    2  N   UNL     1      13.704   2.949  92.573  1.00  0.00     0.000 N 
HETATM    3  C   UNL     1      14.317   1.651  92.885  1.00  0.00     0.000 C 
HETATM    4  C   UNL     1      14.747   3.968  92.393  1.00  0.00     0.000 C 
HETATM    5  C   UNL     1      15.200   1.780  94.124  1.00  0.00     0.000 C 
HETATM    6  C   UNL     1      15.620   4.043  93.641  1.00  0.00     0.000 C 
ENDROOT
BRANCH   2   7
HETATM    7  C   UNL     1      12.862   2.851  91.382  1.00  0.00     0.000 C 
BRANCH   7   8
HETATM    8  C   UNL     1      11.705   3.791  91.426  1.00  0.00     0.000 A 
HETATM    9  C   UNL     1      11.304   4.456  90.266  1.00  0.00     0.000 A 
HETATM   10  C   UNL     1      10.224   5.337  90.306  1.00  0.00     0.000 A 
HETATM   11  C   UNL     1       9.544   5.551  91.505  1.00  0.00     0.000 A 
HETATM   12  C   UNL     1       9.943   4.888  92.663  1.00  0.00     0.000 A 
HETATM   13  C   UNL     1      11.024   4.007  92.624  1.00  0.00     0.000 A 
BRANCH  11  14
HETATM   14  C   UNL     1       8.434   6.454  91.545  1.00  0.00     0.000 C 
HETATM   15  C   UNL     1       7.502   7.212  91.578  1.00  0.00     0.000 C 
BRANCH  15  16
HETATM   16  C   UNL     1       6.392   8.113  91.618  1.00  0.00     0.000 A 
HETATM   17  C   UNL     1       6.614   9.489  91.669  1.00  0.00     0.000 A 
HETATM   18  C   UNL     1       5.532  10.368  91.705  1.00  0.00     0.000 A 
HETATM   19  C   UNL     1       4.253   9.852  91.689  1.00  0.00     0.000 A 
HETATM   20  C   UNL     1       4.007   8.495  91.639  1.00  0.00     0.000 A 
HETATM   21  C   UNL     1       5.089   7.616  91.603  1.00  0.00     0.000 A 
BRANCH  19  22
HETATM   22  C   UNL     1       3.100  10.788  91.729  1.00  0.00     0.000 C 
HETATM   23  O   UNL     1       1.962  10.345  91.595  1.00  0.00     0.000 OA
HETATM   24  N   UNL     1       3.409  12.124  91.946  1.00  0.00     0.000 N 
HETATM   25  HN  UNL     1       4.372  12.413  92.073  1.00  0.00     0.000 HD
BRANCH  24  26
HETATM   26  C   UNL     1       2.401  13.149  92.035  1.00  0.00     0.000 C 
BRANCH  26  27
HETATM   27  C   UNL     1       2.587  14.061  93.254  1.00  0.00     0.000 C 
HETATM   28  C   UNL     1       4.056  14.309  93.578  1.00  0.00     0.000 C 
BRANCH  27  29
HETATM   29  O   UNL     1       1.947  15.314  93.015  1.00  0.00     0.000 OA
HETATM   30  H   UNL     1       1.402  15.530  93.790  1.00  0.00     0.000 HD
ENDBRANCH  27  29
ENDBRANCH  26  27
BRANCH  26  31
HETATM   31  C   UNL     1       2.431  13.947  90.736  1.00  0.00     0.000 C 
HETATM   32  O   UNL     1       1.505  14.669  90.372  1.00  0.00     0.000 OA
BRANCH  31  33
HETATM   33  P   UNL     1       3.584  13.730  90.020  1.00  0.00     0.000 P 
HETATM   34  H   UNL     1       4.032  14.951  89.560  1.00  0.00     0.000 HD
BRANCH  33  35
HETATM   35  O   UNL     1       3.465  12.872  88.917  1.00  0.00     0.000 OA
HETATM   36  H   UNL     1       3.037  12.107  89.337  1.00  0.00     0.000 HD
ENDBRANCH  33  35
ENDBRANCH  31  33
ENDBRANCH  26  31
ENDBRANCH  24  26
ENDBRANCH  19  22
ENDBRANCH  15  16
ENDBRANCH  11  14
ENDBRANCH   7   8
ENDBRANCH   2   7
TORSDOF 11
ENDMDL
MODEL 4
REMARK VINA RESULT:      -5.4      3.488     12.234
REMARK  11 active torsions:
REMARK  status: ('A' for Active; 'I' for Inactive)
REMARK    1  A    between atoms: O_2  and  C_18 
REMARK    2  A    between atoms: O_5  and  P_8 
REMARK    3  A    between atoms: N_6  and  C_11 
REMARK    4  A    between atoms: N_7  and  C_15 
REMARK       I    between atoms: N_7  and  C_24 
REMARK    5  A    between atoms: P_8  and  C_23 
REMARK    6  A    between atoms: C_11  and  C_14 
REMARK    7  A    between atoms: C_15  and  C_18 
REMARK    8  A    between atoms: C_15  and  C_23 
REMARK    9  A    between atoms: C_21  and  C_26 
REMARK   10  A    between atoms: C_24  and  C_25 
REMARK   11  A    between atoms: C_29  and  C_32 
ROOT
HETATM    1  O   UNL     1       2.948  14.764  94.124  1.00  0.00     0.000 OA
HETATM    2  N   UNL     1       2.661  14.772  91.292  1.00  0.00     0.000 N 
HETATM    3  C   UNL     1       1.665  14.131  92.163  1.00  0.00     0.000 C 
HETATM    4  C   UNL     1       3.984  14.739  91.931  1.00  0.00     0.000 C 
HETATM    5  C   UNL     1       1.651  14.820  93.526  1.00  0.00     0.000 C 
HETATM    6  C   UNL     1       3.915  15.412  93.298  1.00  0.00     0.000 C 
ENDROOT
BRANCH   2   7
HETATM    7  C   UNL     1       2.699  14.120  89.984  1.00  0.00     0.000 C 
BRANCH   7   8
HETATM    8  C   UNL     1       3.688  13.007  89.932  1.00  0.00     0.000 A 
HETATM    9  C   UNL     1       4.923  13.200  89.311  1.00  0.00     0.000 A 
HETATM   10  C   UNL     1       5.848  12.158  89.261  1.00  0.00     0.000 A 
HETATM   11  C   UNL     1       5.540  10.924  89.833  1.00  0.00     0.000 A 
HETATM   12  C   UNL     1       4.307  10.730  90.453  1.00  0.00     0.000 A 
HETATM   13  C   UNL     1       3.381  11.771  90.503  1.00  0.00     0.000 A 
BRANCH  11  14
HETATM   14  C   UNL     1       6.490   9.856  89.782  1.00  0.00     0.000 C 
HETATM   15  C   UNL     1       7.288   8.958  89.740  1.00  0.00     0.000 C 
BRANCH  15  16
HETATM   16  C   UNL     1       8.238   7.890  89.689  1.00  0.00     0.000 A 
HETATM   17  C   UNL     1       8.003   6.714  90.402  1.00  0.00     0.000 A 
HETATM   18  C   UNL     1       8.929   5.672  90.350  1.00  0.00     0.000 A 
HETATM   19  C   UNL     1      10.066   5.828  89.586  1.00  0.00     0.000 A 
HETATM   20  C   UNL     1      10.322   6.980  88.872  1.00  0.00     0.000 A 
HETATM   21  C   UNL     1       9.397   8.023  88.924  1.00  0.00     0.000 A 
BRANCH  19  22
HETATM   22  C   UNL     1      11.053   4.718  89.532  1.00  0.00     0.000 C 
HETATM   23  O   UNL     1      11.168   4.068  88.496  1.00  0.00     0.000 OA
HETATM   24  N   UNL     1      11.803   4.515  90.682  1.00  0.00     0.000 N 
HETATM   25  HN  UNL     1      11.670   5.108  91.493  1.00  0.00     0.000 HD
BRANCH  24  26
HETATM   26  C   UNL     1      12.815   3.494  90.778  1.00  0.00     0.000 C 
BRANCH  26  27
HETATM   27  C   UNL     1      14.227   4.072  90.939  1.00  0.00     0.000 C 
HETATM   28  C   UNL     1      14.577   4.359  92.395  1.00  0.00     0.000 C 
BRANCH  27  29
HETATM   29  O   UNL     1      15.182   3.156  90.405  1.00  0.00     0.000 OA
HETATM   30  H   UNL     1      15.180   2.357  90.958  1.00  0.00     0.000 HD
ENDBRANCH  27  29
ENDBRANCH  26  27
BRANCH  26  31
HETATM   31  C   UNL     1      12.451   2.585  91.947  1.00  0.00     0.000 C 
HETATM   32  O   UNL     1      13.103   1.586  92.246  1.00  0.00     0.000 OA
BRANCH  31  33
HETATM   33  P   UNL     1      11.305   2.993  92.585  1.00  0.00     0.000 P 
HETATM   34  H   UNL     1      10.399   3.383  91.619  1.00  0.00     0.000 HD
BRANCH  33  35
HETATM   35  O   UNL     1      11.455   4.055  93.488  1.00  0.00     0.000 OA
HETATM   36  H   UNL     1      12.286   4.443  93.164  1.00  0.00     0.000 HD
ENDBRANCH  33  35
ENDBRANCH  31  33
ENDBRANCH  26  31
ENDBRANCH  24  26
ENDBRANCH  19  22
ENDBRANCH  15  16
ENDBRANCH  11  14
ENDBRANCH   7   8
ENDBRANCH   2   7
TORSDOF 11
ENDMDL
MODEL 5
REMARK VINA RESULT:      -5.4      1.767      2.640
REMARK  11 active torsions:
REMARK  status: ('A' for Active; 'I' for Inactive)
REMARK    1  A    between atoms: O_2  and  C_18 
REMARK    2  A    between atoms: O_5  and  P_8 
REMARK    3  A    between atoms: N_6  and  C_11 
REMARK    4  A    between atoms: N_7  and  C_15 
REMARK       I    between atoms: N_7  and  C_24 
REMARK    5  A    between atoms: P_8  and  C_23 
REMARK    6  A    between atoms: C_11  and  C_14 
REMARK    7  A    between atoms: C_15  and  C_18 
REMARK    8  A    between atoms: C_15  and  C_23 
REMARK    9  A    between atoms: C_21  and  C_26 
REMARK   10  A    between atoms: C_24  and  C_25 
REMARK   11  A    between atoms: C_29  and  C_32 
ROOT
HETATM    1  O   UNL     1      16.368   2.646  93.472  1.00  0.00     0.000 OA
HETATM    2  N   UNL     1      13.622   2.724  92.725  1.00  0.00     0.000 N 
HETATM    3  C   UNL     1      14.260   1.480  93.178  1.00  0.00     0.000 C 
HETATM    4  C   UNL     1      14.618   3.596  92.087  1.00  0.00     0.000 C 
HETATM    5  C   UNL     1      15.414   1.804  94.123  1.00  0.00     0.000 C 
HETATM    6  C   UNL     1      15.763   3.871  93.057  1.00  0.00     0.000 C 
ENDROOT
BRANCH   2   7
HETATM    7  C   UNL     1      12.520   2.437  91.810  1.00  0.00     0.000 C 
BRANCH   7   8
HETATM    8  C   UNL     1      11.573   3.582  91.684  1.00  0.00     0.000 A 
HETATM    9  C   UNL     1      11.267   4.097  90.424  1.00  0.00     0.000 A 
HETATM   10  C   UNL     1      10.383   5.170  90.305  1.00  0.00     0.000 A 
HETATM   11  C   UNL     1       9.805   5.725  91.446  1.00  0.00     0.000 A 
HETATM   12  C   UNL     1      10.110   5.211  92.705  1.00  0.00     0.000 A 
HETATM   13  C   UNL     1      10.994   4.139  92.824  1.00  0.00     0.000 A 
BRANCH  11  14
HETATM   14  C   UNL     1       8.897   6.824  91.324  1.00  0.00     0.000 C 
HETATM   15  C   UNL     1       8.135   7.748  91.221  1.00  0.00     0.000 C 
BRANCH  15  16
HETATM   16  C   UNL     1       7.228   8.846  91.097  1.00  0.00     0.000 A 
HETATM   17  C   UNL     1       7.001   9.688  92.187  1.00  0.00     0.000 A 
HETATM   18  C   UNL     1       6.118  10.761  92.066  1.00  0.00     0.000 A 
HETATM   19  C   UNL     1       5.482  10.968  90.859  1.00  0.00     0.000 A 
HETATM   20  C   UNL     1       5.689  10.150  89.768  1.00  0.00     0.000 A 
HETATM   21  C   UNL     1       6.572   9.077  89.888  1.00  0.00     0.000 A 
BRANCH  19  22
HETATM   22  C   UNL     1       4.540  12.110  90.732  1.00  0.00     0.000 C 
HETATM   23  O   UNL     1       3.752  12.135  89.790  1.00  0.00     0.000 OA
HETATM   24  N   UNL     1       4.613  13.073  91.729  1.00  0.00     0.000 N 
HETATM   25  HN  UNL     1       5.274  12.974  92.490  1.00  0.00     0.000 HD
BRANCH  24  26
HETATM   26  C   UNL     1       3.750  14.227  91.757  1.00  0.00     0.000 C 
BRANCH  26  27
HETATM   27  C   UNL     1       3.736  14.991  90.427  1.00  0.00     0.000 C 
HETATM   28  C   UNL     1       5.134  15.385  89.966  1.00  0.00     0.000 C 
BRANCH  27  29
HETATM   29  O   UNL     1       3.126  14.184  89.420  1.00  0.00     0.000 OA
HETATM   30  H   UNL     1       2.771  13.384  89.843  1.00  0.00     0.000 HD
ENDBRANCH  27  29
ENDBRANCH  26  27
BRANCH  26  31
HETATM   31  C   UNL     1       2.352  13.753  92.139  1.00  0.00     0.000 C 
HETATM   32  O   UNL     1       1.342  14.073  91.515  1.00  0.00     0.000 OA
BRANCH  31  33
HETATM   33  P   UNL     1       2.359  12.971  93.269  1.00  0.00     0.000 P 
HETATM   34  H   UNL     1       3.664  12.875  93.709  1.00  0.00     0.000 HD
BRANCH  33  35
HETATM   35  O   UNL     1       1.861  11.670  93.114  1.00  0.00     0.000 OA
HETATM   36  H   UNL     1       1.176  11.662  93.804  1.00  0.00     0.000 HD
ENDBRANCH  33  35
ENDBRANCH  31  33
ENDBRANCH  26  31
ENDBRANCH  24  26
ENDBRANCH  19  22
ENDBRANCH  15  16
ENDBRANCH  11  14
ENDBRANCH   7   8
ENDBRANCH   2   7
TORSDOF 11
ENDMDL
MODEL 6
REMARK VINA RESULT:      -4.7      3.511     12.410
REMARK  11 active torsions:
REMARK  status: ('A' for Active; 'I' for Inactive)
REMARK    1  A    between atoms: O_2  and  C_18 
REMARK    2  A    between atoms: O_5  and  P_8 
REMARK    3  A    between atoms: N_6  and  C_11 
REMARK    4  A    between atoms: N_7  and  C_15 
REMARK       I    between atoms: N_7  and  C_24 
REMARK    5  A    between atoms: P_8  and  C_23 
REMARK    6  A    between atoms: C_11  and  C_14 
REMARK    7  A    between atoms: C_15  and  C_18 
REMARK    8  A    between atoms: C_15  and  C_23 
REMARK    9  A    between atoms: C_21  and  C_26 
REMARK   10  A    between atoms: C_24  and  C_25 
REMARK   11  A    between atoms: C_29  and  C_32 
ROOT
HETATM    1  O   UNL     1       3.100  14.466  92.709  1.00  0.00     0.000 OA
HETATM    2  N   UNL     1       3.713  14.033  89.963  1.00  0.00     0.000 N 
HETATM    3  C   UNL     1       2.617  13.314  90.628  1.00  0.00     0.000 C 
HETATM    4  C   UNL     1       4.757  14.373  90.939  1.00  0.00     0.000 C 
HETATM    5  C   UNL     1       2.065  14.159  91.773  1.00  0.00     0.000 C 
HETATM    6  C   UNL     1       4.156  15.192  92.077  1.00  0.00     0.000 C 
ENDROOT
BRANCH   2   7
HETATM    7  C   UNL     1       4.265  13.237  88.868  1.00  0.00     0.000 C 
BRANCH   7   8
HETATM    8  C   UNL     1       5.160  12.148  89.352  1.00  0.00     0.000 A 
HETATM    9  C   UNL     1       6.510  12.145  88.998  1.00  0.00     0.000 A 
HETATM   10  C   UNL     1       7.347  11.125  89.449  1.00  0.00     0.000 A 
HETATM   11  C   UNL     1       6.835  10.110  90.256  1.00  0.00     0.000 A 
HETATM   12  C   UNL     1       5.488  10.111  90.611  1.00  0.00     0.000 A 
HETATM   13  C   UNL     1       4.650  11.131  90.159  1.00  0.00     0.000 A 
BRANCH  11  14
HETATM   14  C   UNL     1       7.695   9.064  90.720  1.00  0.00     0.000 C 
HETATM   15  C   UNL     1       8.417   8.186  91.110  1.00  0.00     0.000 C 
BRANCH  15  16
HETATM   16  C   UNL     1       9.276   7.141  91.574  1.00  0.00     0.000 A 
HETATM   17  C   UNL     1       9.751   6.182  90.679  1.00  0.00     0.000 A 
HETATM   18  C   UNL     1      10.591   5.164  91.131  1.00  0.00     0.000 A 
HETATM   19  C   UNL     1      10.937   5.128  92.465  1.00  0.00     0.000 A 
HETATM   20  C   UNL     1      10.480   6.064  93.369  1.00  0.00     0.000 A 
HETATM   21  C   UNL     1       9.640   7.082  92.919  1.00  0.00     0.000 A 
BRANCH  19  22
HETATM   22  C   UNL     1      11.830   4.043  92.946  1.00  0.00     0.000 C 
HETATM   23  O   UNL     1      11.341   2.965  93.275  1.00  0.00     0.000 OA
HETATM   24  N   UNL     1      13.187   4.334  92.963  1.00  0.00     0.000 N 
HETATM   25  HN  UNL     1      13.521   5.239  92.653  1.00  0.00     0.000 HD
BRANCH  24  26
HETATM   26  C   UNL     1      14.181   3.378  93.380  1.00  0.00     0.000 C 
BRANCH  26  27
HETATM   27  C   UNL     1      14.469   2.316  92.311  1.00  0.00     0.000 C 
HETATM   28  C   UNL     1      14.014   0.924  92.733  1.00  0.00     0.000 C 
BRANCH  27  29
HETATM   29  O   UNL     1      13.808   2.671  91.096  1.00  0.00     0.000 OA
HETATM   30  H   UNL     1      14.483   2.941  90.450  1.00  0.00     0.000 HD
ENDBRANCH  27  29
ENDBRANCH  26  27
BRANCH  26  31
HETATM   31  C   UNL     1      15.443   4.149  93.750  1.00  0.00     0.000 C 
HETATM   32  O   UNL     1      15.523   5.374  93.683  1.00  0.00     0.000 OA
BRANCH  31  33
HETATM   33  P   UNL     1      16.470   3.316  94.122  1.00  0.00     0.000 P 
HETATM   34  H   UNL     1      16.962   3.764  95.331  1.00  0.00     0.000 HD
BRANCH  33  35
HETATM   35  O   UNL     1      17.545   3.234  93.224  1.00  0.00     0.000 OA
HETATM   36  H   UNL     1      18.209   3.761  93.699  1.00  0.00     0.000 HD
ENDBRANCH  33  35
ENDBRANCH  31  33
ENDBRANCH  26  31
ENDBRANCH  24  26
ENDBRANCH  19  22
ENDBRANCH  15  16
ENDBRANCH  11  14
ENDBRANCH   7   8
ENDBRANCH   2   7
TORSDOF 11
ENDMDL
MODEL 7
REMARK VINA RESULT:      -4.4      3.448     12.398
REMARK  11 active torsions:
REMARK  status: ('A' for Active; 'I' for Inactive)
REMARK    1  A    between atoms: O_2  and  C_18 
REMARK    2  A    between atoms: O_5  and  P_8 
REMARK    3  A    between atoms: N_6  and  C_11 
REMARK    4  A    between atoms: N_7  and  C_15 
REMARK       I    between atoms: N_7  and  C_24 
REMARK    5  A    between atoms: P_8  and  C_23 
REMARK    6  A    between atoms: C_11  and  C_14 
REMARK    7  A    between atoms: C_15  and  C_18 
REMARK    8  A    between atoms: C_15  and  C_23 
REMARK    9  A    between atoms: C_21  and  C_26 
REMARK   10  A    between atoms: C_24  and  C_25 
REMARK   11  A    between atoms: C_29  and  C_32 
ROOT
HETATM    1  O   UNL     1       5.586  14.888  88.868  1.00  0.00     0.000 OA
HETATM    2  N   UNL     1       3.549  13.352  90.129  1.00  0.00     0.000 N 
HETATM    3  C   UNL     1       4.264  14.416  90.847  1.00  0.00     0.000 C 
HETATM    4  C   UNL     1       4.415  12.776  89.091  1.00  0.00     0.000 C 
HETATM    5  C   UNL     1       4.741  15.477  89.858  1.00  0.00     0.000 C 
HETATM    6  C   UNL     1       4.889  13.874  88.144  1.00  0.00     0.000 C 
ENDROOT
BRANCH   2   7
HETATM    7  C   UNL     1       3.092  12.318  91.057  1.00  0.00     0.000 C 
BRANCH   7   8
HETATM    8  C   UNL     1       4.126  11.271  91.294  1.00  0.00     0.000 A 
HETATM    9  C   UNL     1       3.941   9.983  90.791  1.00  0.00     0.000 A 
HETATM   10  C   UNL     1       4.906   9.001  91.014  1.00  0.00     0.000 A 
HETATM   11  C   UNL     1       6.057   9.309  91.740  1.00  0.00     0.000 A 
HETATM   12  C   UNL     1       6.243  10.595  92.243  1.00  0.00     0.000 A 
HETATM   13  C   UNL     1       5.277  11.576  92.020  1.00  0.00     0.000 A 
BRANCH  11  14
HETATM   14  C   UNL     1       7.048   8.303  91.967  1.00  0.00     0.000 C 
HETATM   15  C   UNL     1       7.882   7.457  92.159  1.00  0.00     0.000 C 
BRANCH  15  16
HETATM   16  C   UNL     1       8.872   6.452  92.387  1.00  0.00     0.000 A 
HETATM   17  C   UNL     1       9.646   6.487  93.548  1.00  0.00     0.000 A 
HETATM   18  C   UNL     1      10.610   5.504  93.771  1.00  0.00     0.000 A 
HETATM   19  C   UNL     1      10.778   4.509  92.831  1.00  0.00     0.000 A 
HETATM   20  C   UNL     1      10.026   4.453  91.676  1.00  0.00     0.000 A 
HETATM   21  C   UNL     1       9.062   5.435  91.451  1.00  0.00     0.000 A 
BRANCH  19  22
HETATM   22  C   UNL     1      11.807   3.463  93.069  1.00  0.00     0.000 C 
HETATM   23  O   UNL     1      11.499   2.280  92.944  1.00  0.00     0.000 OA
HETATM   24  N   UNL     1      13.074   3.922  93.400  1.00  0.00     0.000 N 
HETATM   25  HN  UNL     1      13.261   4.916  93.461  1.00  0.00     0.000 HD
BRANCH  24  26
HETATM   26  C   UNL     1      14.183   3.033  93.636  1.00  0.00     0.000 C 
BRANCH  26  27
HETATM   27  C   UNL     1      14.291   1.925  92.581  1.00  0.00     0.000 C 
HETATM   28  C   UNL     1      15.175   2.323  91.405  1.00  0.00     0.000 C 
BRANCH  27  29
HETATM   29  O   UNL     1      14.823   0.744  93.181  1.00  0.00     0.000 OA
HETATM   30  H   UNL     1      14.553   0.729  94.115  1.00  0.00     0.000 HD
ENDBRANCH  27  29
ENDBRANCH  26  27
BRANCH  26  31
HETATM   31  C   UNL     1      15.453   3.875  93.688  1.00  0.00     0.000 C 
HETATM   32  O   UNL     1      15.489   5.055  93.342  1.00  0.00     0.000 OA
BRANCH  31  33
HETATM   33  P   UNL     1      16.538   3.153  94.122  1.00  0.00     0.000 P 
HETATM   34  H   UNL     1      16.555   3.204  95.502  1.00  0.00     0.000 HD
BRANCH  33  35
HETATM   35  O   UNL     1      17.787   3.591  93.661  1.00  0.00     0.000 OA
HETATM   36  H   UNL     1      17.626   3.602  92.702  1.00  0.00     0.000 HD
ENDBRANCH  33  35
ENDBRANCH  31  33
ENDBRANCH  26  31
ENDBRANCH  24  26
ENDBRANCH  19  22
ENDBRANCH  15  16
ENDBRANCH  11  14
ENDBRANCH   7   8
ENDBRANCH   2   7
TORSDOF 11
ENDMDL
MODEL 8
REMARK VINA RESULT:      -4.1      1.641      2.241
REMARK  11 active torsions:
REMARK  status: ('A' for Active; 'I' for Inactive)
REMARK    1  A    between atoms: O_2  and  C_18 
REMARK    2  A    between atoms: O_5  and  P_8 
REMARK    3  A    between atoms: N_6  and  C_11 
REMARK    4  A    between atoms: N_7  and  C_15 
REMARK       I    between atoms: N_7  and  C_24 
REMARK    5  A    between atoms: P_8  and  C_23 
REMARK    6  A    between atoms: C_11  and  C_14 
REMARK    7  A    between atoms: C_15  and  C_18 
REMARK    8  A    between atoms: C_15  and  C_23 
REMARK    9  A    between atoms: C_21  and  C_26 
REMARK   10  A    between atoms: C_24  and  C_25 
REMARK   11  A    between atoms: C_29  and  C_32 
ROOT
HETATM    1  O   UNL     1      16.597   3.803  92.653  1.00  0.00     0.000 OA
HETATM    2  N   UNL     1      14.363   2.290  93.560  1.00  0.00     0.000 N 
HETATM    3  C   UNL     1      14.828   2.213  92.168  1.00  0.00     0.000 C 
HETATM    4  C   UNL     1      14.678   3.610  94.124  1.00  0.00     0.000 C 
HETATM    5  C   UNL     1      16.324   2.511  92.107  1.00  0.00     0.000 C 
HETATM    6  C   UNL     1      16.176   3.876  94.016  1.00  0.00     0.000 C 
ENDROOT
BRANCH   2   7
HETATM    7  C   UNL     1      12.929   2.018  93.642  1.00  0.00     0.000 C 
BRANCH   7   8
HETATM    8  C   UNL     1      12.105   3.174  93.185  1.00  0.00     0.000 A 
HETATM    9  C   UNL     1      11.634   4.103  94.114  1.00  0.00     0.000 A 
HETATM   10  C   UNL     1      10.861   5.183  93.688  1.00  0.00     0.000 A 
HETATM   11  C   UNL     1      10.561   5.335  92.335  1.00  0.00     0.000 A 
HETATM   12  C   UNL     1      11.032   4.407  91.407  1.00  0.00     0.000 A 
HETATM   13  C   UNL     1      11.804   3.327  91.832  1.00  0.00     0.000 A 
BRANCH  11  14
HETATM   14  C   UNL     1       9.770   6.444  91.898  1.00  0.00     0.000 C 
HETATM   15  C   UNL     1       9.106   7.377  91.532  1.00  0.00     0.000 C 
BRANCH  15  16
HETATM   16  C   UNL     1       8.316   8.486  91.095  1.00  0.00     0.000 A 
HETATM   17  C   UNL     1       8.863   9.432  90.228  1.00  0.00     0.000 A 
HETATM   18  C   UNL     1       8.091  10.512  89.800  1.00  0.00     0.000 A 
HETATM   19  C   UNL     1       6.792  10.622  90.248  1.00  0.00     0.000 A 
HETATM   20  C   UNL     1       6.228   9.701  91.106  1.00  0.00     0.000 A 
HETATM   21  C   UNL     1       6.999   8.620  91.534  1.00  0.00     0.000 A 
BRANCH  19  22
HETATM   22  C   UNL     1       5.971  11.774  89.794  1.00  0.00     0.000 C 
HETATM   23  O   UNL     1       6.018  12.116  88.614  1.00  0.00     0.000 OA
HETATM   24  N   UNL     1       5.176  12.374  90.761  1.00  0.00     0.000 N 
HETATM   25  HN  UNL     1       5.170  12.021  91.711  1.00  0.00     0.000 HD
BRANCH  24  26
HETATM   26  C   UNL     1       4.307  13.485  90.470  1.00  0.00     0.000 C 
BRANCH  26  27
HETATM   27  C   UNL     1       2.928  13.044  89.962  1.00  0.00     0.000 C 
HETATM   28  C   UNL     1       1.904  14.173  89.999  1.00  0.00     0.000 C 
BRANCH  27  29
HETATM   29  O   UNL     1       3.044  12.567  88.622  1.00  0.00     0.000 OA
HETATM   30  H   UNL     1       2.208  12.747  88.161  1.00  0.00     0.000 HD
ENDBRANCH  27  29
ENDBRANCH  26  27
BRANCH  26  31
HETATM   31  C   UNL     1       4.188  14.327  91.737  1.00  0.00     0.000 C 
HETATM   32  O   UNL     1       4.516  15.511  91.788  1.00  0.00     0.000 OA
BRANCH  31  33
HETATM   33  P   UNL     1       3.714  13.599  92.801  1.00  0.00     0.000 P 
HETATM   34  H   UNL     1       2.851  14.405  93.515  1.00  0.00     0.000 HD
BRANCH  33  35
HETATM   35  O   UNL     1       4.685  13.115  93.690  1.00  0.00     0.000 OA
HETATM   36  H   UNL     1       5.167  13.937  93.886  1.00  0.00     0.000 HD
ENDBRANCH  33  35
ENDBRANCH  31  33
ENDBRANCH  26  31
ENDBRANCH  24  26
ENDBRANCH  19  22
ENDBRANCH  15  16
ENDBRANCH  11  14
ENDBRANCH   7   8
ENDBRANCH   2   7
TORSDOF 11
ENDMDL
MODEL 9
REMARK VINA RESULT:      -3.8      3.741     12.382
REMARK  11 active torsions:
REMARK  status: ('A' for Active; 'I' for Inactive)
REMARK    1  A    between atoms: O_2  and  C_18 
REMARK    2  A    between atoms: O_5  and  P_8 
REMARK    3  A    between atoms: N_6  and  C_11 
REMARK    4  A    between atoms: N_7  and  C_15 
REMARK       I    between atoms: N_7  and  C_24 
REMARK    5  A    between atoms: P_8  and  C_23 
REMARK    6  A    between atoms: C_11  and  C_14 
REMARK    7  A    between atoms: C_15  and  C_18 
REMARK    8  A    between atoms: C_15  and  C_23 
REMARK    9  A    between atoms: C_21  and  C_26 
REMARK   10  A    between atoms: C_24  and  C_25 
REMARK   11  A    between atoms: C_29  and  C_32 
ROOT
HETATM    1  O   UNL     1       3.433  15.280  92.739  1.00  0.00     0.000 OA
HETATM    2  N   UNL     1       1.723  13.006  92.803  1.00  0.00     0.000 N 
HETATM    3  C   UNL     1       1.842  13.909  93.956  1.00  0.00     0.000 C 
HETATM    4  C   UNL     1       2.974  13.005  92.032  1.00  0.00     0.000 C 
HETATM    5  C   UNL     1       2.210  15.312  93.477  1.00  0.00     0.000 C 
HETATM    6  C   UNL     1       3.315  14.427  91.600  1.00  0.00     0.000 C 
ENDROOT
BRANCH   2   7
HETATM    7  C   UNL     1       1.381  11.653  93.239  1.00  0.00     0.000 C 
BRANCH   7   8
HETATM    8  C   UNL     1       2.535  10.715  93.138  1.00  0.00     0.000 A 
HETATM    9  C   UNL     1       2.627   9.837  92.057  1.00  0.00     0.000 A 
HETATM   10  C   UNL     1       3.705   8.958  91.963  1.00  0.00     0.000 A 
HETATM   11  C   UNL     1       4.692   8.957  92.948  1.00  0.00     0.000 A 
HETATM   12  C   UNL     1       4.601   9.833  94.028  1.00  0.00     0.000 A 
HETATM   13  C   UNL     1       3.522  10.712  94.124  1.00  0.00     0.000 A 
BRANCH  11  14
HETATM   14  C   UNL     1       5.799   8.056  92.850  1.00  0.00     0.000 C 
HETATM   15  C   UNL     1       6.729   7.299  92.769  1.00  0.00     0.000 C 
BRANCH  15  16
HETATM   16  C   UNL     1       7.835   6.398  92.671  1.00  0.00     0.000 A 
HETATM   17  C   UNL     1       8.118   5.772  91.457  1.00  0.00     0.000 A 
HETATM   18  C   UNL     1       9.199   4.895  91.361  1.00  0.00     0.000 A 
HETATM   19  C   UNL     1       9.972   4.665  92.480  1.00  0.00     0.000 A 
HETATM   20  C   UNL     1       9.712   5.272  93.692  1.00  0.00     0.000 A 
HETATM   21  C   UNL     1       8.632   6.148  93.788  1.00  0.00     0.000 A 
BRANCH  19  22
HETATM   22  C   UNL     1      11.122   3.730  92.378  1.00  0.00     0.000 C 
HETATM   23  O   UNL     1      10.912   2.519  92.379  1.00  0.00     0.000 OA
HETATM   24  N   UNL     1      12.374   4.316  92.263  1.00  0.00     0.000 N 
HETATM   25  HN  UNL     1      12.468   5.325  92.244  1.00  0.00     0.000 HD
BRANCH  24  26
HETATM   26  C   UNL     1      13.583   3.543  92.131  1.00  0.00     0.000 C 
BRANCH  26  27
HETATM   27  C   UNL     1      14.400   3.926  90.891  1.00  0.00     0.000 C 
HETATM   28  C   UNL     1      15.494   2.912  90.576  1.00  0.00     0.000 C 
BRANCH  27  29
HETATM   29  O   UNL     1      13.533   4.037  89.763  1.00  0.00     0.000 OA
HETATM   30  H   UNL     1      13.435   4.979  89.545  1.00  0.00     0.000 HD
ENDBRANCH  27  29
ENDBRANCH  26  27
BRANCH  26  31
HETATM   31  C   UNL     1      14.395   3.727  93.409  1.00  0.00     0.000 C 
HETATM   32  O   UNL     1      14.887   4.805  93.740  1.00  0.00     0.000 OA
BRANCH  31  33
HETATM   33  P   UNL     1      14.538   2.553  94.107  1.00  0.00     0.000 P 
HETATM   34  H   UNL     1      15.810   2.530  94.641  1.00  0.00     0.000 HD
BRANCH  33  35
HETATM   35  O   UNL     1      14.361   1.377  93.365  1.00  0.00     0.000 OA
HETATM   36  H   UNL     1      15.281   1.194  93.107  1.00  0.00     0.000 HD
ENDBRANCH  33  35
ENDBRANCH  31  33
ENDBRANCH  26  31
ENDBRANCH  24  26
ENDBRANCH  19  22
ENDBRANCH  15  16
ENDBRANCH  11  14
ENDBRANCH   7   8
ENDBRANCH   2   7
TORSDOF 11
ENDMDL
