MODEL 1
REMARK VINA RESULT:      -7.5      0.000      0.000
REMARK  9 active torsions:
REMARK  status: ('A' for Active; 'I' for Inactive)
REMARK    1  A    between atoms: N_3  and  C_6 
REMARK    2  A    between atoms: C_6  and  C_9 
REMARK    3  A    between atoms: C_14  and  C_17 
REMARK       I    between atoms: N_26  and  C_15 
REMARK    4  A    between atoms: C_15  and  C_16 
REMARK    5  A    between atoms: C_20  and  C_23 
REMARK    6  A    between atoms: OG1_24  and  CB_28 
REMARK    7  A    between atoms: N_26  and  CA_27 
REMARK    8  A    between atoms: CA_27  and  CB_28 
REMARK    9  A    between atoms: CA_27  and  C_30 
ROOT
HETATM    1  O   UNK A   0       1.912   8.187  87.821  1.00  0.00    -0.388 OA
HETATM    2  N   UNK A   0       4.695   7.614  87.655  1.00  0.00     0.096 N 
HETATM    3  C   UNK A   0       4.200   8.994  87.747  1.00  0.00     0.299 C 
HETATM    4  C   UNK A   0       3.694   6.763  86.997  1.00  0.00     0.299 C 
HETATM    5  C   UNK A   0       2.865   9.016  88.489  1.00  0.00     0.198 C 
HETATM    6  C   UNK A   0       2.372   6.837  87.755  1.00  0.00     0.198 C 
ENDROOT
BRANCH   2   7
HETATM    7  C   UNK A   0       5.968   7.568  86.938  1.00  0.00     0.311 C 
BRANCH   7   8
HETATM    8  C   UNK A   0       7.057   6.955  87.752  1.00  0.00    -0.030 A 
HETATM    9  C   UNK A   0       6.836   6.656  89.097  1.00  0.00     0.010 A 
HETATM   10  C   UNK A   0       7.854   6.084  89.860  1.00  0.00     0.021 A 
HETATM   11  C   UNK A   0       9.091   5.811  89.277  1.00  0.00     0.018 A 
HETATM   12  C   UNK A   0       9.312   6.109  87.934  1.00  0.00     0.021 A 
HETATM   13  C   UNK A   0       8.295   6.681  87.171  1.00  0.00     0.010 A 
BRANCH  11  14
HETATM   14  C   UNK A   0      10.135   5.223  90.060  1.00  0.00    -0.061 C 
HETATM   15  C   UNK A   0      11.012   4.729  90.717  1.00  0.00    -0.061 C 
BRANCH  15  16
HETATM   16  C   UNK A   0      12.056   4.142  91.498  1.00  0.00     0.018 A 
HETATM   17  C   UNK A   0      11.814   3.782  92.824  1.00  0.00     0.022 A 
HETATM   18  C   UNK A   0      12.831   3.207  93.586  1.00  0.00     0.018 A 
HETATM   19  C   UNK A   0      14.066   3.005  93.005  1.00  0.00     0.032 A 
HETATM   20  C   UNK A   0      14.330   3.353  91.697  1.00  0.00     0.018 A 
HETATM   21  C   UNK A   0      13.314   3.928  90.935  1.00  0.00     0.022 A 
BRANCH  19  22
HETATM   22  C   UNK A   0      15.150   2.394  93.818  1.00  0.00     0.252 C 
HETATM   23  O   UNK A   0      16.291   2.840  93.727  1.00  0.00    -0.268 OA
ENDBRANCH  19  22
ENDBRANCH  15  16
ENDBRANCH  11  14
ENDBRANCH   7   8
ENDBRANCH   2   7
TORSDOF 9
ENDMDL
MODEL 2
REMARK VINA RESULT:      -7.0      1.365      1.941
REMARK  9 active torsions:
REMARK  status: ('A' for Active; 'I' for Inactive)
REMARK    1  A    between atoms: N_3  and  C_6 
REMARK    2  A    between atoms: C_6  and  C_9 
REMARK    3  A    between atoms: C_14  and  C_17 
REMARK       I    between atoms: N_26  and  C_15 
REMARK    4  A    between atoms: C_15  and  C_16 
REMARK    5  A    between atoms: C_20  and  C_23 
REMARK    6  A    between atoms: OG1_24  and  CB_28 
REMARK    7  A    between atoms: N_26  and  CA_27 
REMARK    8  A    between atoms: CA_27  and  CB_28 
REMARK    9  A    between atoms: CA_27  and  C_30 
ROOT
HETATM    1  O   UNK A   0       4.670  10.979  88.667  1.00  0.00    -0.388 OA
HETATM    2  N   UNK A   0       5.267   8.197  88.611  1.00  0.00     0.096 N 
HETATM    3  C   UNK A   0       6.317   9.203  88.821  1.00  0.00     0.299 C 
HETATM    4  C   UNK A   0       4.178   8.766  87.804  1.00  0.00     0.299 C 
HETATM    5  C   UNK A   0       5.718  10.445  89.477  1.00  0.00     0.198 C 
HETATM    6  C   UNK A   0       3.631  10.017  88.483  1.00  0.00     0.198 C 
ENDROOT
BRANCH   2   7
HETATM    7  C   UNK A   0       5.816   7.001  87.973  1.00  0.00     0.311 C 
BRANCH   7   8
HETATM    8  C   UNK A   0       7.002   6.464  88.699  1.00  0.00    -0.030 A 
HETATM    9  C   UNK A   0       8.260   6.492  88.096  1.00  0.00     0.010 A 
HETATM   10  C   UNK A   0       9.370   5.988  88.773  1.00  0.00     0.021 A 
HETATM   11  C   UNK A   0       9.221   5.458  90.055  1.00  0.00     0.018 A 
HETATM   12  C   UNK A   0       7.966   5.429  90.658  1.00  0.00     0.021 A 
HETATM   13  C   UNK A   0       6.855   5.933  89.981  1.00  0.00     0.010 A 
BRANCH  11  14
HETATM   14  C   UNK A   0      10.360   4.942  90.751  1.00  0.00    -0.061 C 
HETATM   15  C   UNK A   0      11.317   4.509  91.336  1.00  0.00    -0.061 C 
BRANCH  15  16
HETATM   16  C   UNK A   0      12.455   3.993  92.031  1.00  0.00     0.018 A 
HETATM   17  C   UNK A   0      12.368   3.707  93.393  1.00  0.00     0.022 A 
HETATM   18  C   UNK A   0      13.478   3.201  94.070  1.00  0.00     0.018 A 
HETATM   19  C   UNK A   0      14.648   2.992  93.371  1.00  0.00     0.032 A 
HETATM   20  C   UNK A   0      14.759   3.267  92.024  1.00  0.00     0.018 A 
HETATM   21  C   UNK A   0      13.650   3.773  91.346  1.00  0.00     0.022 A 
BRANCH  19  22
HETATM   22  C   UNK A   0      15.830   2.455  94.093  1.00  0.00     0.252 C 
HETATM   23  O   UNK A   0      16.955   2.813  93.752  1.00  0.00    -0.268 OA
ENDBRANCH  19  22
ENDBRANCH  15  16
ENDBRANCH  11  14
ENDBRANCH   7   8
ENDBRANCH   2   7
TORSDOF 9
ENDMDL
MODEL 3
REMARK VINA RESULT:      -6.9      1.586      2.003
REMARK  9 active torsions:
REMARK  status: ('A' for Active; 'I' for Inactive)
REMARK    1  A    between atoms: N_3  and  C_6 
REMARK    2  A    between atoms: C_6  and  C_9 
REMARK    3  A    between atoms: C_14  and  C_17 
REMARK       I    between atoms: N_26  and  C_15 
REMARK    4  A    between atoms: C_15  and  C_16 
REMARK    5  A    between atoms: C_20  and  C_23 
REMARK    6  A    between atoms: OG1_24  and  CB_28 
REMARK    7  A    between atoms: N_26  and  CA_27 
REMARK    8  A    between atoms: CA_27  and  CB_28 
REMARK    9  A    between atoms: CA_27  and  C_30 
ROOT
HETATM    1  O   UNK A   0       2.885  11.386  89.923  1.00  0.00    -0.388 OA
HETATM    2  N   UNK A   0       4.627   9.397  88.869  1.00  0.00     0.096 N 
HETATM    3  C   UNK A   0       3.763  10.202  87.995  1.00  0.00     0.299 C 
HETATM    4  C   UNK A   0       4.008   9.253  90.194  1.00  0.00     0.299 C 
HETATM    5  C   UNK A   0       3.494  11.559  88.642  1.00  0.00     0.198 C 
HETATM    6  C   UNK A   0       3.733  10.630  90.789  1.00  0.00     0.198 C 
ENDROOT
BRANCH   2   7
HETATM    7  C   UNK A   0       4.890   8.088  88.274  1.00  0.00     0.311 C 
BRANCH   7   8
HETATM    8  C   UNK A   0       6.104   7.437  88.845  1.00  0.00    -0.030 A 
HETATM    9  C   UNK A   0       5.992   6.214  89.507  1.00  0.00     0.010 A 
HETATM   10  C   UNK A   0       7.126   5.605  90.044  1.00  0.00     0.021 A 
HETATM   11  C   UNK A   0       8.372   6.219  89.917  1.00  0.00     0.018 A 
HETATM   12  C   UNK A   0       8.485   7.440  89.256  1.00  0.00     0.021 A 
HETATM   13  C   UNK A   0       7.351   8.050  88.719  1.00  0.00     0.010 A 
BRANCH  11  14
HETATM   14  C   UNK A   0       9.535   5.594  90.466  1.00  0.00    -0.061 C 
HETATM   15  C   UNK A   0      10.513   5.067  90.927  1.00  0.00    -0.061 C 
BRANCH  15  16
HETATM   16  C   UNK A   0      11.676   4.442  91.475  1.00  0.00     0.018 A 
HETATM   17  C   UNK A   0      11.677   4.015  92.803  1.00  0.00     0.022 A 
HETATM   18  C   UNK A   0      12.811   3.403  93.336  1.00  0.00     0.018 A 
HETATM   19  C   UNK A   0      13.917   3.230  92.530  1.00  0.00     0.032 A 
HETATM   20  C   UNK A   0      13.941   3.643  91.215  1.00  0.00     0.018 A 
HETATM   21  C   UNK A   0      12.808   4.256  90.680  1.00  0.00     0.022 A 
BRANCH  19  22
HETATM   22  C   UNK A   0      15.126   2.579  93.099  1.00  0.00     0.252 C 
HETATM   23  O   UNK A   0      15.919   3.253  93.752  1.00  0.00    -0.268 OA
ENDBRANCH  19  22
ENDBRANCH  15  16
ENDBRANCH  11  14
ENDBRANCH   7   8
ENDBRANCH   2   7
TORSDOF 9
ENDMDL
MODEL 4
REMARK VINA RESULT:      -6.7      3.586     10.372
REMARK  9 active torsions:
REMARK  status: ('A' for Active; 'I' for Inactive)
REMARK    1  A    between atoms: N_3  and  C_6 
REMARK    2  A    between atoms: C_6  and  C_9 
REMARK    3  A    between atoms: C_14  and  C_17 
REMARK       I    between atoms: N_26  and  C_15 
REMARK    4  A    between atoms: C_15  and  C_16 
REMARK    5  A    between atoms: C_20  and  C_23 
REMARK    6  A    between atoms: OG1_24  and  CB_28 
REMARK    7  A    between atoms: N_26  and  CA_27 
REMARK    8  A    between atoms: CA_27  and  CB_28 
REMARK    9  A    between atoms: CA_27  and  C_30 
ROOT
HETATM    1  O   UNK A   0      16.256   3.131  93.611  1.00  0.00    -0.388 OA
HETATM    2  N   UNK A   0      13.533   2.886  92.817  1.00  0.00     0.096 N 
HETATM    3  C   UNK A   0      14.357   1.705  93.111  1.00  0.00     0.299 C 
HETATM    4  C   UNK A   0      14.381   3.981  92.327  1.00  0.00     0.299 C 
HETATM    5  C   UNK A   0      15.444   2.071  94.119  1.00  0.00     0.198 C 
HETATM    6  C   UNK A   0      15.468   4.293  93.351  1.00  0.00     0.198 C 
ENDROOT
BRANCH   2   7
HETATM    7  C   UNK A   0      12.491   2.561  91.845  1.00  0.00     0.311 C 
BRANCH   7   8
HETATM    8  C   UNK A   0      11.626   3.733  91.527  1.00  0.00    -0.030 A 
HETATM    9  C   UNK A   0      11.503   4.170  90.208  1.00  0.00     0.010 A 
HETATM   10  C   UNK A   0      10.696   5.268  89.909  1.00  0.00     0.021 A 
HETATM   11  C   UNK A   0      10.010   5.926  90.930  1.00  0.00     0.018 A 
HETATM   12  C   UNK A   0      10.131   5.489  92.248  1.00  0.00     0.021 A 
HETATM   13  C   UNK A   0      10.939   4.392  92.547  1.00  0.00     0.010 A 
BRANCH  11  14
HETATM   14  C   UNK A   0       9.180   7.050  90.624  1.00  0.00    -0.061 C 
HETATM   15  C   UNK A   0       8.483   7.995  90.365  1.00  0.00    -0.061 C 
BRANCH  15  16
HETATM   16  C   UNK A   0       7.654   9.118  90.058  1.00  0.00     0.018 A 
HETATM   17  C   UNK A   0       6.304   9.105  90.413  1.00  0.00     0.022 A 
HETATM   18  C   UNK A   0       5.496  10.203  90.115  1.00  0.00     0.018 A 
HETATM   19  C   UNK A   0       6.054  11.287  89.472  1.00  0.00     0.032 A 
HETATM   20  C   UNK A   0       7.385  11.324  89.110  1.00  0.00     0.018 A 
HETATM   21  C   UNK A   0       8.194  10.227  89.407  1.00  0.00     0.022 A 
BRANCH  19  22
HETATM   22  C   UNK A   0       5.192  12.455  89.153  1.00  0.00     0.252 C 
HETATM   23  O   UNK A   0       5.011  12.764  87.978  1.00  0.00    -0.268 OA
ENDBRANCH  19  22
ENDBRANCH  15  16
ENDBRANCH  11  14
ENDBRANCH   7   8
ENDBRANCH   2   7
TORSDOF 9
ENDMDL
MODEL 5
REMARK VINA RESULT:      -6.6      3.910     10.473
REMARK  9 active torsions:
REMARK  status: ('A' for Active; 'I' for Inactive)
REMARK    1  A    between atoms: N_3  and  C_6 
REMARK    2  A    between atoms: C_6  and  C_9 
REMARK    3  A    between atoms: C_14  and  C_17 
REMARK       I    between atoms: N_26  and  C_15 
REMARK    4  A    between atoms: C_15  and  C_16 
REMARK    5  A    between atoms: C_20  and  C_23 
REMARK    6  A    between atoms: OG1_24  and  CB_28 
REMARK    7  A    between atoms: N_26  and  CA_27 
REMARK    8  A    between atoms: CA_27  and  CB_28 
REMARK    9  A    between atoms: CA_27  and  C_30 
ROOT
HETATM    1  O   UNK A   0      14.665   3.326  92.160  1.00  0.00    -0.388 OA
HETATM    2  N   UNK A   0      11.949   4.160  92.330  1.00  0.00     0.096 N 
HETATM    3  C   UNK A   0      12.569   3.343  93.383  1.00  0.00     0.299 C 
HETATM    4  C   UNK A   0      12.589   3.884  91.037  1.00  0.00     0.299 C 
HETATM    5  C   UNK A   0      14.071   3.611  93.428  1.00  0.00     0.198 C 
HETATM    6  C   UNK A   0      14.090   4.138  91.137  1.00  0.00     0.198 C 
ENDROOT
BRANCH   2   7
HETATM    7  C   UNK A   0      10.510   3.912  92.262  1.00  0.00     0.311 C 
BRANCH   7   8
HETATM    8  C   UNK A   0       9.734   5.149  91.964  1.00  0.00    -0.030 A 
HETATM    9  C   UNK A   0      10.050   6.343  92.614  1.00  0.00     0.010 A 
HETATM   10  C   UNK A   0       9.323   7.501  92.337  1.00  0.00     0.021 A 
HETATM   11  C   UNK A   0       8.282   7.464  91.410  1.00  0.00     0.018 A 
HETATM   12  C   UNK A   0       7.965   6.273  90.761  1.00  0.00     0.021 A 
HETATM   13  C   UNK A   0       8.692   5.115  91.037  1.00  0.00     0.010 A 
BRANCH  11  14
HETATM   14  C   UNK A   0       7.537   8.653  91.126  1.00  0.00    -0.061 C 
HETATM   15  C   UNK A   0       6.912   9.651  90.886  1.00  0.00    -0.061 C 
BRANCH  15  16
HETATM   16  C   UNK A   0       6.167  10.838  90.601  1.00  0.00     0.018 A 
HETATM   17  C   UNK A   0       6.330  11.485  89.375  1.00  0.00     0.022 A 
HETATM   18  C   UNK A   0       5.602  12.641  89.097  1.00  0.00     0.018 A 
HETATM   19  C   UNK A   0       4.727  13.124  90.048  1.00  0.00     0.032 A 
HETATM   20  C   UNK A   0       4.549  12.503  91.266  1.00  0.00     0.018 A 
HETATM   21  C   UNK A   0       5.277  11.346  91.546  1.00  0.00     0.022 A 
BRANCH  19  22
HETATM   22  C   UNK A   0       3.953  14.357  89.751  1.00  0.00     0.252 C 
HETATM   23  O   UNK A   0       4.532  15.441  89.741  1.00  0.00    -0.268 OA
ENDBRANCH  19  22
ENDBRANCH  15  16
ENDBRANCH  11  14
ENDBRANCH   7   8
ENDBRANCH   2   7
TORSDOF 9
ENDMDL
MODEL 6
REMARK VINA RESULT:      -6.6      3.929     10.429
REMARK  9 active torsions:
REMARK  status: ('A' for Active; 'I' for Inactive)
REMARK    1  A    between atoms: N_3  and  C_6 
REMARK    2  A    between atoms: C_6  and  C_9 
REMARK    3  A    between atoms: C_14  and  C_17 
REMARK       I    between atoms: N_26  and  C_15 
REMARK    4  A    between atoms: C_15  and  C_16 
REMARK    5  A    between atoms: C_20  and  C_23 
REMARK    6  A    between atoms: OG1_24  and  CB_28 
REMARK    7  A    between atoms: N_26  and  CA_27 
REMARK    8  A    between atoms: CA_27  and  CB_28 
REMARK    9  A    between atoms: CA_27  and  C_30 
ROOT
HETATM    1  O   UNK A   0      14.579   3.353  92.104  1.00  0.00    -0.388 OA
HETATM    2  N   UNK A   0      11.861   4.183  92.276  1.00  0.00     0.096 N 
HETATM    3  C   UNK A   0      12.459   3.297  93.284  1.00  0.00     0.299 C 
HETATM    4  C   UNK A   0      12.526   3.990  90.979  1.00  0.00     0.299 C 
HETATM    5  C   UNK A   0      13.960   3.557  93.376  1.00  0.00     0.198 C 
HETATM    6  C   UNK A   0      14.025   4.232  91.125  1.00  0.00     0.198 C 
ENDROOT
BRANCH   2   7
HETATM    7  C   UNK A   0      10.424   3.945  92.163  1.00  0.00     0.311 C 
BRANCH   7   8
HETATM    8  C   UNK A   0       9.662   5.193  91.872  1.00  0.00    -0.030 A 
HETATM    9  C   UNK A   0       8.689   5.197  90.871  1.00  0.00     0.010 A 
HETATM   10  C   UNK A   0       7.977   6.365  90.596  1.00  0.00     0.021 A 
HETATM   11  C   UNK A   0       8.237   7.526  91.323  1.00  0.00     0.018 A 
HETATM   12  C   UNK A   0       9.208   7.523  92.322  1.00  0.00     0.021 A 
HETATM   13  C   UNK A   0       9.921   6.356  92.597  1.00  0.00     0.010 A 
BRANCH  11  14
HETATM   14  C   UNK A   0       7.505   8.723  91.042  1.00  0.00    -0.061 C 
HETATM   15  C   UNK A   0       6.890   9.729  90.806  1.00  0.00    -0.061 C 
BRANCH  15  16
HETATM   16  C   UNK A   0       6.158  10.924  90.525  1.00  0.00     0.018 A 
HETATM   17  C   UNK A   0       5.270  11.436  91.471  1.00  0.00     0.022 A 
HETATM   18  C   UNK A   0       4.558  12.603  91.198  1.00  0.00     0.018 A 
HETATM   19  C   UNK A   0       4.750  13.233  89.986  1.00  0.00     0.032 A 
HETATM   20  C   UNK A   0       5.622  12.748  89.034  1.00  0.00     0.018 A 
HETATM   21  C   UNK A   0       6.334  11.580  89.306  1.00  0.00     0.022 A 
BRANCH  19  22
HETATM   22  C   UNK A   0       3.990  14.476  89.695  1.00  0.00     0.252 C 
HETATM   23  O   UNK A   0       4.550  15.564  89.812  1.00  0.00    -0.268 OA
ENDBRANCH  19  22
ENDBRANCH  15  16
ENDBRANCH  11  14
ENDBRANCH   7   8
ENDBRANCH   2   7
TORSDOF 9
ENDMDL
MODEL 7
REMARK VINA RESULT:      -6.4      1.379      2.002
REMARK  9 active torsions:
REMARK  status: ('A' for Active; 'I' for Inactive)
REMARK    1  A    between atoms: N_3  and  C_6 
REMARK    2  A    between atoms: C_6  and  C_9 
REMARK    3  A    between atoms: C_14  and  C_17 
REMARK       I    between atoms: N_26  and  C_15 
REMARK    4  A    between atoms: C_15  and  C_16 
REMARK    5  A    between atoms: C_20  and  C_23 
REMARK    6  A    between atoms: OG1_24  and  CB_28 
REMARK    7  A    between atoms: N_26  and  CA_27 
REMARK    8  A    between atoms: CA_27  and  CB_28 
REMARK    9  A    between atoms: CA_27  and  C_30 
ROOT
HETATM    1  O   UNK A   0       1.189   8.096  89.432  1.00  0.00    -0.388 OA
HETATM    2  N   UNK A   0       4.009   8.315  89.114  1.00  0.00     0.096 N 
HETATM    3  C   UNK A   0       3.385   8.307  90.444  1.00  0.00     0.299 C 
HETATM    4  C   UNK A   0       3.078   8.874  88.124  1.00  0.00     0.299 C 
HETATM    5  C   UNK A   0       2.075   7.524  90.396  1.00  0.00     0.198 C 
HETATM    6  C   UNK A   0       1.777   8.079  88.130  1.00  0.00     0.198 C 
ENDROOT
BRANCH   2   7
HETATM    7  C   UNK A   0       5.261   9.069  89.134  1.00  0.00     0.311 C 
BRANCH   7   8
HETATM    8  C   UNK A   0       6.410   8.250  89.614  1.00  0.00    -0.030 A 
HETATM    9  C   UNK A   0       6.970   8.501  90.867  1.00  0.00     0.010 A 
HETATM   10  C   UNK A   0       8.047   7.737  91.316  1.00  0.00     0.021 A 
HETATM   11  C   UNK A   0       8.561   6.720  90.513  1.00  0.00     0.018 A 
HETATM   12  C   UNK A   0       8.003   6.467  89.262  1.00  0.00     0.021 A 
HETATM   13  C   UNK A   0       6.927   7.232  88.812  1.00  0.00     0.010 A 
BRANCH  11  14
HETATM   14  C   UNK A   0       9.664   5.934  90.975  1.00  0.00    -0.061 C 
HETATM   15  C   UNK A   0      10.592   5.274  91.363  1.00  0.00    -0.061 C 
BRANCH  15  16
HETATM   16  C   UNK A   0      11.694   4.490  91.825  1.00  0.00     0.018 A 
HETATM   17  C   UNK A   0      12.758   4.210  90.967  1.00  0.00     0.022 A 
HETATM   18  C   UNK A   0      13.834   3.446  91.419  1.00  0.00     0.018 A 
HETATM   19  C   UNK A   0      13.823   2.982  92.717  1.00  0.00     0.032 A 
HETATM   20  C   UNK A   0      12.784   3.244  93.585  1.00  0.00     0.018 A 
HETATM   21  C   UNK A   0      11.706   4.007  93.134  1.00  0.00     0.022 A 
BRANCH  19  22
HETATM   22  C   UNK A   0      14.969   2.167  93.198  1.00  0.00     0.252 C 
HETATM   23  O   UNK A   0      15.975   2.735  93.618  1.00  0.00    -0.268 OA
ENDBRANCH  19  22
ENDBRANCH  15  16
ENDBRANCH  11  14
ENDBRANCH   7   8
ENDBRANCH   2   7
TORSDOF 9
ENDMDL
MODEL 8
REMARK VINA RESULT:      -6.4      1.779      2.524
REMARK  9 active torsions:
REMARK  status: ('A' for Active; 'I' for Inactive)
REMARK    1  A    between atoms: N_3  and  C_6 
REMARK    2  A    between atoms: C_6  and  C_9 
REMARK    3  A    between atoms: C_14  and  C_17 
REMARK       I    between atoms: N_26  and  C_15 
REMARK    4  A    between atoms: C_15  and  C_16 
REMARK    5  A    between atoms: C_20  and  C_23 
REMARK    6  A    between atoms: OG1_24  and  CB_28 
REMARK    7  A    between atoms: N_26  and  CA_27 
REMARK    8  A    between atoms: CA_27  and  CB_28 
REMARK    9  A    between atoms: CA_27  and  C_30 
ROOT
HETATM    1  O   UNK A   0       2.181   9.125  87.817  1.00  0.00    -0.388 OA
HETATM    2  N   UNK A   0       3.809   7.993  89.858  1.00  0.00     0.096 N 
HETATM    3  C   UNK A   0       2.658   7.267  89.303  1.00  0.00     0.299 C 
HETATM    4  C   UNK A   0       3.580   9.441  89.773  1.00  0.00     0.299 C 
HETATM    5  C   UNK A   0       2.409   7.716  87.865  1.00  0.00     0.198 C 
HETATM    6  C   UNK A   0       3.308   9.839  88.326  1.00  0.00     0.198 C 
ENDROOT
BRANCH   2   7
HETATM    7  C   UNK A   0       4.060   7.586  91.240  1.00  0.00     0.311 C 
BRANCH   7   8
HETATM    8  C   UNK A   0       5.418   6.996  91.421  1.00  0.00    -0.030 A 
HETATM    9  C   UNK A   0       5.959   6.874  92.701  1.00  0.00     0.010 A 
HETATM   10  C   UNK A   0       7.229   6.324  92.872  1.00  0.00     0.021 A 
HETATM   11  C   UNK A   0       7.957   5.896  91.762  1.00  0.00     0.018 A 
HETATM   12  C   UNK A   0       7.418   6.017  90.483  1.00  0.00     0.021 A 
HETATM   13  C   UNK A   0       6.147   6.568  90.312  1.00  0.00     0.010 A 
BRANCH  11  14
HETATM   14  C   UNK A   0       9.259   5.330  91.937  1.00  0.00    -0.061 C 
HETATM   15  C   UNK A   0      10.354   4.855  92.085  1.00  0.00    -0.061 C 
BRANCH  15  16
HETATM   16  C   UNK A   0      11.655   4.289  92.261  1.00  0.00     0.018 A 
HETATM   17  C   UNK A   0      12.046   3.817  93.514  1.00  0.00     0.022 A 
HETATM   18  C   UNK A   0      13.314   3.263  93.685  1.00  0.00     0.018 A 
HETATM   19  C   UNK A   0      14.163   3.193  92.600  1.00  0.00     0.032 A 
HETATM   20  C   UNK A   0      13.801   3.653  91.351  1.00  0.00     0.018 A 
HETATM   21  C   UNK A   0      12.532   4.208  91.179  1.00  0.00     0.022 A 
BRANCH  19  22
HETATM   22  C   UNK A   0      15.515   2.604  92.783  1.00  0.00     0.252 C 
HETATM   23  O   UNK A   0      16.137   2.840  93.815  1.00  0.00    -0.268 OA
ENDBRANCH  19  22
ENDBRANCH  15  16
ENDBRANCH  11  14
ENDBRANCH   7   8
ENDBRANCH   2   7
TORSDOF 9
ENDMDL
MODEL 9
REMARK VINA RESULT:      -6.3      4.808     10.255
REMARK  9 active torsions:
REMARK  status: ('A' for Active; 'I' for Inactive)
REMARK    1  A    between atoms: N_3  and  C_6 
REMARK    2  A    between atoms: C_6  and  C_9 
REMARK    3  A    between atoms: C_14  and  C_17 
REMARK       I    between atoms: N_26  and  C_15 
REMARK    4  A    between atoms: C_15  and  C_16 
REMARK    5  A    between atoms: C_20  and  C_23 
REMARK    6  A    between atoms: OG1_24  and  CB_28 
REMARK    7  A    between atoms: N_26  and  CA_27 
REMARK    8  A    between atoms: CA_27  and  CB_28 
REMARK    9  A    between atoms: CA_27  and  C_30 
ROOT
HETATM    1  O   UNK A   0      11.163   3.787  88.896  1.00  0.00    -0.388 OA
HETATM    2  N   UNK A   0       9.543   5.844  87.779  1.00  0.00     0.096 N 
HETATM    3  C   UNK A   0      10.242   4.871  86.929  1.00  0.00     0.299 C 
HETATM    4  C   UNK A   0      10.286   6.044  89.031  1.00  0.00     0.299 C 
HETATM    5  C   UNK A   0      10.430   3.560  87.690  1.00  0.00     0.198 C 
HETATM    6  C   UNK A   0      10.474   4.708  89.742  1.00  0.00     0.198 C 
ENDROOT
BRANCH   2   7
HETATM    7  C   UNK A   0       9.361   7.111  87.074  1.00  0.00     0.311 C 
BRANCH   7   8
HETATM    8  C   UNK A   0       8.540   8.082  87.852  1.00  0.00    -0.030 A 
HETATM    9  C   UNK A   0       9.122   9.252  88.340  1.00  0.00     0.010 A 
HETATM   10  C   UNK A   0       8.355  10.160  89.070  1.00  0.00     0.021 A 
HETATM   11  C   UNK A   0       7.006   9.898  89.310  1.00  0.00     0.018 A 
HETATM   12  C   UNK A   0       6.424   8.730  88.822  1.00  0.00     0.021 A 
HETATM   13  C   UNK A   0       7.191   7.821  88.093  1.00  0.00     0.010 A 
BRANCH  11  14
HETATM   14  C   UNK A   0       6.219  10.831  90.057  1.00  0.00    -0.061 C 
HETATM   15  C   UNK A   0       5.557  11.614  90.685  1.00  0.00    -0.061 C 
BRANCH  15  16
HETATM   16  C   UNK A   0       4.771  12.545  91.432  1.00  0.00     0.018 A 
HETATM   17  C   UNK A   0       4.372  12.234  92.732  1.00  0.00     0.022 A 
HETATM   18  C   UNK A   0       3.607  13.144  93.462  1.00  0.00     0.018 A 
HETATM   19  C   UNK A   0       3.258  14.342  92.876  1.00  0.00     0.032 A 
HETATM   20  C   UNK A   0       3.639  14.673  91.593  1.00  0.00     0.018 A 
HETATM   21  C   UNK A   0       4.404  13.764  90.862  1.00  0.00     0.022 A 
BRANCH  19  22
HETATM   22  C   UNK A   0       2.441  15.310  93.653  1.00  0.00     0.252 C 
HETATM   23  O   UNK A   0       1.266  15.489  93.343  1.00  0.00    -0.268 OA
ENDBRANCH  19  22
ENDBRANCH  15  16
ENDBRANCH  11  14
ENDBRANCH   7   8
ENDBRANCH   2   7
TORSDOF 9
ENDMDL
