MODEL 1
REMARK VINA RESULT:      -7.5      0.000      0.000
REMARK  9 active torsions:
REMARK  status: ('A' for Active; 'I' for Inactive)
REMARK    1  A    between atoms: N_3  and  C_6 
REMARK    2  A    between atoms: C_6  and  C_9 
REMARK    3  A    between atoms: C_14  and  C_17 
REMARK       I    between atoms: N_26  and  C_15 
REMARK    4  A    between atoms: C_15  and  C_16 
REMARK    5  A    between atoms: C_20  and  C_23 
REMARK    6  A    between atoms: OG1_24  and  CB_28 
REMARK    7  A    between atoms: N_26  and  CA_27 
REMARK    8  A    between atoms: CA_27  and  CB_28 
REMARK    9  A    between atoms: CA_27  and  C_30 
ROOT
HETATM    1  O   UNK A   0       1.842   8.053  87.843  1.00  0.00    -0.388 OA
HETATM    2  N   UNK A   0       4.639   7.550  87.688  1.00  0.00     0.096 N 
HETATM    3  C   UNK A   0       4.110   8.915  87.813  1.00  0.00     0.299 C 
HETATM    4  C   UNK A   0       3.665   6.693  86.999  1.00  0.00     0.299 C 
HETATM    5  C   UNK A   0       2.769   8.885  88.542  1.00  0.00     0.198 C 
HETATM    6  C   UNK A   0       2.335   6.716  87.745  1.00  0.00     0.198 C 
ENDROOT
BRANCH   2   7
HETATM    7  C   UNK A   0       5.920   7.553  86.983  1.00  0.00     0.311 C 
BRANCH   7   8
HETATM    8  C   UNK A   0       7.015   6.945  87.791  1.00  0.00    -0.030 A 
HETATM    9  C   UNK A   0       8.280   6.769  87.229  1.00  0.00     0.010 A 
HETATM   10  C   UNK A   0       9.305   6.199  87.983  1.00  0.00     0.021 A 
HETATM   11  C   UNK A   0       9.065   5.807  89.300  1.00  0.00     0.018 A 
HETATM   12  C   UNK A   0       7.803   5.983  89.862  1.00  0.00     0.021 A 
HETATM   13  C   UNK A   0       6.777   6.552  89.108  1.00  0.00     0.010 A 
BRANCH  11  14
HETATM   14  C   UNK A   0      10.117   5.224  90.075  1.00  0.00    -0.061 C 
HETATM   15  C   UNK A   0      11.001   4.734  90.726  1.00  0.00    -0.061 C 
BRANCH  15  16
HETATM   16  C   UNK A   0      12.052   4.151  91.501  1.00  0.00     0.018 A 
HETATM   17  C   UNK A   0      13.304   3.932  90.924  1.00  0.00     0.022 A 
HETATM   18  C   UNK A   0      14.329   3.366  91.681  1.00  0.00     0.018 A 
HETATM   19  C   UNK A   0      14.082   3.033  92.996  1.00  0.00     0.032 A 
HETATM   20  C   UNK A   0      12.854   3.239  93.589  1.00  0.00     0.018 A 
HETATM   21  C   UNK A   0      11.827   3.805  92.833  1.00  0.00     0.022 A 
BRANCH  19  22
HETATM   22  C   UNK A   0      15.174   2.428  93.801  1.00  0.00     0.252 C 
HETATM   23  O   UNK A   0      16.326   2.827  93.645  1.00  0.00    -0.268 OA
ENDBRANCH  19  22
ENDBRANCH  15  16
ENDBRANCH  11  14
ENDBRANCH   7   8
ENDBRANCH   2   7
TORSDOF 9
ENDMDL
MODEL 2
REMARK VINA RESULT:      -7.5      0.140      1.427
REMARK  9 active torsions:
REMARK  status: ('A' for Active; 'I' for Inactive)
REMARK    1  A    between atoms: N_3  and  C_6 
REMARK    2  A    between atoms: C_6  and  C_9 
REMARK    3  A    between atoms: C_14  and  C_17 
REMARK       I    between atoms: N_26  and  C_15 
REMARK    4  A    between atoms: C_15  and  C_16 
REMARK    5  A    between atoms: C_20  and  C_23 
REMARK    6  A    between atoms: OG1_24  and  CB_28 
REMARK    7  A    between atoms: N_26  and  CA_27 
REMARK    8  A    between atoms: CA_27  and  CB_28 
REMARK    9  A    between atoms: CA_27  and  C_30 
ROOT
HETATM    1  O   UNK A   0       1.934   8.004  87.811  1.00  0.00    -0.388 OA
HETATM    2  N   UNK A   0       4.738   7.536  87.677  1.00  0.00     0.096 N 
HETATM    3  C   UNK A   0       4.190   8.897  87.756  1.00  0.00     0.299 C 
HETATM    4  C   UNK A   0       3.777   6.644  87.013  1.00  0.00     0.299 C 
HETATM    5  C   UNK A   0       2.848   8.872  88.484  1.00  0.00     0.198 C 
HETATM    6  C   UNK A   0       2.446   6.672  87.757  1.00  0.00     0.198 C 
ENDROOT
BRANCH   2   7
HETATM    7  C   UNK A   0       6.020   7.535  86.974  1.00  0.00     0.311 C 
BRANCH   7   8
HETATM    8  C   UNK A   0       7.115   6.937  87.790  1.00  0.00    -0.030 A 
HETATM    9  C   UNK A   0       6.932   6.735  89.159  1.00  0.00     0.010 A 
HETATM   10  C   UNK A   0       7.957   6.178  89.924  1.00  0.00     0.021 A 
HETATM   11  C   UNK A   0       9.162   5.821  89.320  1.00  0.00     0.018 A 
HETATM   12  C   UNK A   0       9.345   6.023  87.953  1.00  0.00     0.021 A 
HETATM   13  C   UNK A   0       8.321   6.581  87.188  1.00  0.00     0.010 A 
BRANCH  11  14
HETATM   14  C   UNK A   0      10.212   5.248  90.104  1.00  0.00    -0.061 C 
HETATM   15  C   UNK A   0      11.094   4.765  90.763  1.00  0.00    -0.061 C 
BRANCH  15  16
HETATM   16  C   UNK A   0      12.144   4.192  91.546  1.00  0.00     0.018 A 
HETATM   17  C   UNK A   0      11.922   3.883  92.889  1.00  0.00     0.022 A 
HETATM   18  C   UNK A   0      12.946   3.321  93.652  1.00  0.00     0.018 A 
HETATM   19  C   UNK A   0      14.166   3.081  93.057  1.00  0.00     0.032 A 
HETATM   20  C   UNK A   0      14.411   3.378  91.732  1.00  0.00     0.018 A 
HETATM   21  C   UNK A   0      13.388   3.940  90.968  1.00  0.00     0.022 A 
BRANCH  19  22
HETATM   22  C   UNK A   0      15.257   2.484  93.871  1.00  0.00     0.252 C 
HETATM   23  O   UNK A   0      16.395   2.937  93.772  1.00  0.00    -0.268 OA
ENDBRANCH  19  22
ENDBRANCH  15  16
ENDBRANCH  11  14
ENDBRANCH   7   8
ENDBRANCH   2   7
TORSDOF 9
ENDMDL
MODEL 3
REMARK VINA RESULT:      -7.1      0.864      1.416
REMARK  9 active torsions:
REMARK  status: ('A' for Active; 'I' for Inactive)
REMARK    1  A    between atoms: N_3  and  C_6 
REMARK    2  A    between atoms: C_6  and  C_9 
REMARK    3  A    between atoms: C_14  and  C_17 
REMARK       I    between atoms: N_26  and  C_15 
REMARK    4  A    between atoms: C_15  and  C_16 
REMARK    5  A    between atoms: C_20  and  C_23 
REMARK    6  A    between atoms: OG1_24  and  CB_28 
REMARK    7  A    between atoms: N_26  and  CA_27 
REMARK    8  A    between atoms: CA_27  and  CB_28 
REMARK    9  A    between atoms: CA_27  and  C_30 
ROOT
HETATM    1  O   UNK A   0       2.581   9.986  89.030  1.00  0.00    -0.388 OA
HETATM    2  N   UNK A   0       4.571   8.022  88.497  1.00  0.00     0.096 N 
HETATM    3  C   UNK A   0       4.902   9.453  88.563  1.00  0.00     0.299 C 
HETATM    4  C   UNK A   0       3.180   7.847  88.056  1.00  0.00     0.299 C 
HETATM    5  C   UNK A   0       3.922  10.168  89.490  1.00  0.00     0.198 C 
HETATM    6  C   UNK A   0       2.241   8.600  88.993  1.00  0.00     0.198 C 
ENDROOT
BRANCH   2   7
HETATM    7  C   UNK A   0       5.492   7.319  87.606  1.00  0.00     0.311 C 
BRANCH   7   8
HETATM    8  C   UNK A   0       6.661   6.748  88.333  1.00  0.00    -0.030 A 
HETATM    9  C   UNK A   0       6.500   6.242  89.623  1.00  0.00     0.010 A 
HETATM   10  C   UNK A   0       7.594   5.710  90.305  1.00  0.00     0.021 A 
HETATM   11  C   UNK A   0       8.848   5.682  89.696  1.00  0.00     0.018 A 
HETATM   12  C   UNK A   0       9.010   6.187  88.407  1.00  0.00     0.021 A 
HETATM   13  C   UNK A   0       7.917   6.720  87.725  1.00  0.00     0.010 A 
BRANCH  11  14
HETATM   14  C   UNK A   0       9.970   5.134  90.395  1.00  0.00    -0.061 C 
HETATM   15  C   UNK A   0      10.913   4.674  90.982  1.00  0.00    -0.061 C 
BRANCH  15  16
HETATM   16  C   UNK A   0      12.033   4.128  91.681  1.00  0.00     0.018 A 
HETATM   17  C   UNK A   0      13.242   3.930  91.013  1.00  0.00     0.022 A 
HETATM   18  C   UNK A   0      14.336   3.399  91.696  1.00  0.00     0.018 A 
HETATM   19  C   UNK A   0      14.198   3.079  93.031  1.00  0.00     0.032 A 
HETATM   20  C   UNK A   0      13.014   3.264  93.713  1.00  0.00     0.018 A 
HETATM   21  C   UNK A   0      11.919   3.795  93.031  1.00  0.00     0.022 A 
BRANCH  19  22
HETATM   22  C   UNK A   0      15.363   2.511  93.757  1.00  0.00     0.252 C 
HETATM   23  O   UNK A   0      16.434   3.114  93.737  1.00  0.00    -0.268 OA
ENDBRANCH  19  22
ENDBRANCH  15  16
ENDBRANCH  11  14
ENDBRANCH   7   8
ENDBRANCH   2   7
TORSDOF 9
ENDMDL
MODEL 4
REMARK VINA RESULT:      -6.9      1.649      2.379
REMARK  9 active torsions:
REMARK  status: ('A' for Active; 'I' for Inactive)
REMARK    1  A    between atoms: N_3  and  C_6 
REMARK    2  A    between atoms: C_6  and  C_9 
REMARK    3  A    between atoms: C_14  and  C_17 
REMARK       I    between atoms: N_26  and  C_15 
REMARK    4  A    between atoms: C_15  and  C_16 
REMARK    5  A    between atoms: C_20  and  C_23 
REMARK    6  A    between atoms: OG1_24  and  CB_28 
REMARK    7  A    between atoms: N_26  and  CA_27 
REMARK    8  A    between atoms: CA_27  and  CB_28 
REMARK    9  A    between atoms: CA_27  and  C_30 
ROOT
HETATM    1  O   UNK A   0       2.699  11.225  89.955  1.00  0.00    -0.388 OA
HETATM    2  N   UNK A   0       4.592   9.361  88.934  1.00  0.00     0.096 N 
HETATM    3  C   UNK A   0       3.813  10.231  88.042  1.00  0.00     0.299 C 
HETATM    4  C   UNK A   0       3.832   9.090  90.163  1.00  0.00     0.299 C 
HETATM    5  C   UNK A   0       3.443  11.520  88.771  1.00  0.00     0.198 C 
HETATM    6  C   UNK A   0       3.460  10.405  90.841  1.00  0.00     0.198 C 
ENDROOT
BRANCH   2   7
HETATM    7  C   UNK A   0       4.949   8.114  88.259  1.00  0.00     0.311 C 
BRANCH   7   8
HETATM    8  C   UNK A   0       6.151   7.467  88.860  1.00  0.00    -0.030 A 
HETATM    9  C   UNK A   0       6.048   6.196  89.426  1.00  0.00     0.010 A 
HETATM   10  C   UNK A   0       7.171   5.591  89.990  1.00  0.00     0.021 A 
HETATM   11  C   UNK A   0       8.396   6.256  89.985  1.00  0.00     0.018 A 
HETATM   12  C   UNK A   0       8.500   7.526  89.420  1.00  0.00     0.021 A 
HETATM   13  C   UNK A   0       7.377   8.132  88.857  1.00  0.00     0.010 A 
BRANCH  11  14
HETATM   14  C   UNK A   0       9.549   5.634  90.562  1.00  0.00    -0.061 C 
HETATM   15  C   UNK A   0      10.517   5.111  91.047  1.00  0.00    -0.061 C 
BRANCH  15  16
HETATM   16  C   UNK A   0      11.668   4.489  91.623  1.00  0.00     0.018 A 
HETATM   17  C   UNK A   0      11.657   4.112  92.966  1.00  0.00     0.022 A 
HETATM   18  C   UNK A   0      12.779   3.503  93.527  1.00  0.00     0.018 A 
HETATM   19  C   UNK A   0      13.885   3.283  92.734  1.00  0.00     0.032 A 
HETATM   20  C   UNK A   0      13.921   3.647  91.404  1.00  0.00     0.018 A 
HETATM   21  C   UNK A   0      12.799   4.257  90.842  1.00  0.00     0.022 A 
BRANCH  19  22
HETATM   22  C   UNK A   0      15.081   2.636  93.332  1.00  0.00     0.252 C 
HETATM   23  O   UNK A   0      14.929   1.692  94.105  1.00  0.00    -0.268 OA
ENDBRANCH  19  22
ENDBRANCH  15  16
ENDBRANCH  11  14
ENDBRANCH   7   8
ENDBRANCH   2   7
TORSDOF 9
ENDMDL
MODEL 5
REMARK VINA RESULT:      -6.8      1.246      1.777
REMARK  9 active torsions:
REMARK  status: ('A' for Active; 'I' for Inactive)
REMARK    1  A    between atoms: N_3  and  C_6 
REMARK    2  A    between atoms: C_6  and  C_9 
REMARK    3  A    between atoms: C_14  and  C_17 
REMARK       I    between atoms: N_26  and  C_15 
REMARK    4  A    between atoms: C_15  and  C_16 
REMARK    5  A    between atoms: C_20  and  C_23 
REMARK    6  A    between atoms: OG1_24  and  CB_28 
REMARK    7  A    between atoms: N_26  and  CA_27 
REMARK    8  A    between atoms: CA_27  and  CB_28 
REMARK    9  A    between atoms: CA_27  and  C_30 
ROOT
HETATM    1  O   UNK A   0       2.579   6.825  86.646  1.00  0.00    -0.388 OA
HETATM    2  N   UNK A   0       4.231   7.690  88.796  1.00  0.00     0.096 N 
HETATM    3  C   UNK A   0       3.047   8.455  88.382  1.00  0.00     0.299 C 
HETATM    4  C   UNK A   0       4.784   6.957  87.648  1.00  0.00     0.299 C 
HETATM    5  C   UNK A   0       2.015   7.516  87.762  1.00  0.00     0.198 C 
HETATM    6  C   UNK A   0       3.712   6.054  87.046  1.00  0.00     0.198 C 
ENDROOT
BRANCH   2   7
HETATM    7  C   UNK A   0       5.238   8.573  89.383  1.00  0.00     0.311 C 
BRANCH   7   8
HETATM    8  C   UNK A   0       6.441   7.828  89.853  1.00  0.00    -0.030 A 
HETATM    9  C   UNK A   0       7.691   8.100  89.293  1.00  0.00     0.010 A 
HETATM   10  C   UNK A   0       8.817   7.403  89.730  1.00  0.00     0.021 A 
HETATM   11  C   UNK A   0       8.693   6.436  90.728  1.00  0.00     0.018 A 
HETATM   12  C   UNK A   0       7.446   6.164  91.287  1.00  0.00     0.021 A 
HETATM   13  C   UNK A   0       6.320   6.860  90.850  1.00  0.00     0.010 A 
BRANCH  11  14
HETATM   14  C   UNK A   0       9.849   5.722  91.177  1.00  0.00    -0.061 C 
HETATM   15  C   UNK A   0      10.820   5.122  91.555  1.00  0.00    -0.061 C 
BRANCH  15  16
HETATM   16  C   UNK A   0      11.975   4.409  92.003  1.00  0.00     0.018 A 
HETATM   17  C   UNK A   0      12.001   3.861  93.286  1.00  0.00     0.022 A 
HETATM   18  C   UNK A   0      13.127   3.163  93.722  1.00  0.00     0.018 A 
HETATM   19  C   UNK A   0      14.200   3.028  92.867  1.00  0.00     0.032 A 
HETATM   20  C   UNK A   0      14.199   3.560  91.595  1.00  0.00     0.018 A 
HETATM   21  C   UNK A   0      13.074   4.258  91.157  1.00  0.00     0.022 A 
BRANCH  19  22
HETATM   22  C   UNK A   0      15.400   2.286  93.333  1.00  0.00     0.252 C 
HETATM   23  O   UNK A   0      16.210   2.853  94.063  1.00  0.00    -0.268 OA
ENDBRANCH  19  22
ENDBRANCH  15  16
ENDBRANCH  11  14
ENDBRANCH   7   8
ENDBRANCH   2   7
TORSDOF 9
ENDMDL
MODEL 6
REMARK VINA RESULT:      -6.6      3.440     10.368
REMARK  9 active torsions:
REMARK  status: ('A' for Active; 'I' for Inactive)
REMARK    1  A    between atoms: N_3  and  C_6 
REMARK    2  A    between atoms: C_6  and  C_9 
REMARK    3  A    between atoms: C_14  and  C_17 
REMARK       I    between atoms: N_26  and  C_15 
REMARK    4  A    between atoms: C_15  and  C_16 
REMARK    5  A    between atoms: C_20  and  C_23 
REMARK    6  A    between atoms: OG1_24  and  CB_28 
REMARK    7  A    between atoms: N_26  and  CA_27 
REMARK    8  A    between atoms: CA_27  and  CB_28 
REMARK    9  A    between atoms: CA_27  and  C_30 
ROOT
HETATM    1  O   UNK A   0      16.155   3.097  93.604  1.00  0.00    -0.388 OA
HETATM    2  N   UNK A   0      13.454   2.925  92.720  1.00  0.00     0.096 N 
HETATM    3  C   UNK A   0      14.218   1.726  93.093  1.00  0.00     0.299 C 
HETATM    4  C   UNK A   0      14.363   3.965  92.218  1.00  0.00     0.299 C 
HETATM    5  C   UNK A   0      15.283   2.091  94.124  1.00  0.00     0.198 C 
HETATM    6  C   UNK A   0      15.424   4.277  93.268  1.00  0.00     0.198 C 
ENDROOT
BRANCH   2   7
HETATM    7  C   UNK A   0      12.434   2.601  91.725  1.00  0.00     0.311 C 
BRANCH   7   8
HETATM    8  C   UNK A   0      11.573   3.771  91.392  1.00  0.00    -0.030 A 
HETATM    9  C   UNK A   0      10.980   4.513  92.415  1.00  0.00     0.010 A 
HETATM   10  C   UNK A   0      10.172   5.606  92.104  1.00  0.00     0.021 A 
HETATM   11  C   UNK A   0       9.959   5.959  90.772  1.00  0.00     0.018 A 
HETATM   12  C   UNK A   0      10.550   5.219  89.750  1.00  0.00     0.021 A 
HETATM   13  C   UNK A   0      11.358   4.125  90.060  1.00  0.00     0.010 A 
BRANCH  11  14
HETATM   14  C   UNK A   0       9.131   7.082  90.454  1.00  0.00    -0.061 C 
HETATM   15  C   UNK A   0       8.436   8.026  90.186  1.00  0.00    -0.061 C 
BRANCH  15  16
HETATM   16  C   UNK A   0       7.609   9.147  89.869  1.00  0.00     0.018 A 
HETATM   17  C   UNK A   0       8.191  10.377  89.562  1.00  0.00     0.022 A 
HETATM   18  C   UNK A   0       7.384  11.471  89.249  1.00  0.00     0.018 A 
HETATM   19  C   UNK A   0       6.014  11.310  89.250  1.00  0.00     0.032 A 
HETATM   20  C   UNK A   0       5.414  10.105  89.550  1.00  0.00     0.018 A 
HETATM   21  C   UNK A   0       6.221   9.011  89.863  1.00  0.00     0.022 A 
BRANCH  19  22
HETATM   22  C   UNK A   0       5.154  12.476  88.918  1.00  0.00     0.252 C 
HETATM   23  O   UNK A   0       4.627  12.537  87.811  1.00  0.00    -0.268 OA
ENDBRANCH  19  22
ENDBRANCH  15  16
ENDBRANCH  11  14
ENDBRANCH   7   8
ENDBRANCH   2   7
TORSDOF 9
ENDMDL
MODEL 7
REMARK VINA RESULT:      -6.6      3.978     10.475
REMARK  9 active torsions:
REMARK  status: ('A' for Active; 'I' for Inactive)
REMARK    1  A    between atoms: N_3  and  C_6 
REMARK    2  A    between atoms: C_6  and  C_9 
REMARK    3  A    between atoms: C_14  and  C_17 
REMARK       I    between atoms: N_26  and  C_15 
REMARK    4  A    between atoms: C_15  and  C_16 
REMARK    5  A    between atoms: C_20  and  C_23 
REMARK    6  A    between atoms: OG1_24  and  CB_28 
REMARK    7  A    between atoms: N_26  and  CA_27 
REMARK    8  A    between atoms: CA_27  and  CB_28 
REMARK    9  A    between atoms: CA_27  and  C_30 
ROOT
HETATM    1  O   UNK A   0      14.555   3.334  92.058  1.00  0.00    -0.388 OA
HETATM    2  N   UNK A   0      11.849   4.184  92.301  1.00  0.00     0.096 N 
HETATM    3  C   UNK A   0      12.478   3.324  93.314  1.00  0.00     0.299 C 
HETATM    4  C   UNK A   0      12.466   3.949  90.988  1.00  0.00     0.299 C 
HETATM    5  C   UNK A   0      13.983   3.578  93.345  1.00  0.00     0.198 C 
HETATM    6  C   UNK A   0      13.970   4.187  91.074  1.00  0.00     0.198 C 
ENDROOT
BRANCH   2   7
HETATM    7  C   UNK A   0      10.407   3.949  92.247  1.00  0.00     0.311 C 
BRANCH   7   8
HETATM    8  C   UNK A   0       9.641   5.192  91.945  1.00  0.00    -0.030 A 
HETATM    9  C   UNK A   0       9.913   6.366  92.649  1.00  0.00     0.010 A 
HETATM   10  C   UNK A   0       9.195   7.529  92.369  1.00  0.00     0.021 A 
HETATM   11  C   UNK A   0       8.207   7.517  91.384  1.00  0.00     0.018 A 
HETATM   12  C   UNK A   0       7.935   6.346  90.681  1.00  0.00     0.021 A 
HETATM   13  C   UNK A   0       8.652   5.183  90.961  1.00  0.00     0.010 A 
BRANCH  11  14
HETATM   14  C   UNK A   0       7.473   8.711  91.096  1.00  0.00    -0.061 C 
HETATM   15  C   UNK A   0       6.855   9.714  90.854  1.00  0.00    -0.061 C 
BRANCH  15  16
HETATM   16  C   UNK A   0       6.122  10.907  90.567  1.00  0.00     0.018 A 
HETATM   17  C   UNK A   0       5.236  11.425  91.512  1.00  0.00     0.022 A 
HETATM   18  C   UNK A   0       4.522  12.590  91.232  1.00  0.00     0.018 A 
HETATM   19  C   UNK A   0       4.711  13.211  90.015  1.00  0.00     0.032 A 
HETATM   20  C   UNK A   0       5.581  12.719  89.064  1.00  0.00     0.018 A 
HETATM   21  C   UNK A   0       6.294  11.554  89.343  1.00  0.00     0.022 A 
BRANCH  19  22
HETATM   22  C   UNK A   0       3.949  14.452  89.717  1.00  0.00     0.252 C 
HETATM   23  O   UNK A   0       4.534  15.532  89.728  1.00  0.00    -0.268 OA
ENDBRANCH  19  22
ENDBRANCH  15  16
ENDBRANCH  11  14
ENDBRANCH   7   8
ENDBRANCH   2   7
TORSDOF 9
ENDMDL
MODEL 8
REMARK VINA RESULT:      -6.5      4.891     10.310
REMARK  9 active torsions:
REMARK  status: ('A' for Active; 'I' for Inactive)
REMARK    1  A    between atoms: N_3  and  C_6 
REMARK    2  A    between atoms: C_6  and  C_9 
REMARK    3  A    between atoms: C_14  and  C_17 
REMARK       I    between atoms: N_26  and  C_15 
REMARK    4  A    between atoms: C_15  and  C_16 
REMARK    5  A    between atoms: C_20  and  C_23 
REMARK    6  A    between atoms: OG1_24  and  CB_28 
REMARK    7  A    between atoms: N_26  and  CA_27 
REMARK    8  A    between atoms: CA_27  and  CB_28 
REMARK    9  A    between atoms: CA_27  and  C_30 
ROOT
HETATM    1  O   UNK A   0      11.250   3.990  88.898  1.00  0.00    -0.388 OA
HETATM    2  N   UNK A   0       9.412   5.862  87.792  1.00  0.00     0.096 N 
HETATM    3  C   UNK A   0      10.107   4.878  86.950  1.00  0.00     0.299 C 
HETATM    4  C   UNK A   0      10.236   6.193  88.963  1.00  0.00     0.299 C 
HETATM    5  C   UNK A   0      10.443   3.637  87.773  1.00  0.00     0.198 C 
HETATM    6  C   UNK A   0      10.569   4.923  89.739  1.00  0.00     0.198 C 
ENDROOT
BRANCH   2   7
HETATM    7  C   UNK A   0       9.090   7.064  87.026  1.00  0.00     0.311 C 
BRANCH   7   8
HETATM    8  C   UNK A   0       8.312   8.055  87.824  1.00  0.00    -0.030 A 
HETATM    9  C   UNK A   0       6.979   7.797  88.145  1.00  0.00     0.010 A 
HETATM   10  C   UNK A   0       6.249   8.723  88.889  1.00  0.00     0.021 A 
HETATM   11  C   UNK A   0       6.854   9.906  89.313  1.00  0.00     0.018 A 
HETATM   12  C   UNK A   0       8.185  10.165  88.994  1.00  0.00     0.021 A 
HETATM   13  C   UNK A   0       8.915   9.239  88.249  1.00  0.00     0.010 A 
BRANCH  11  14
HETATM   14  C   UNK A   0       6.106  10.856  90.079  1.00  0.00    -0.061 C 
HETATM   15  C   UNK A   0       5.477  11.654  90.721  1.00  0.00    -0.061 C 
BRANCH  15  16
HETATM   16  C   UNK A   0       4.729  12.603  91.486  1.00  0.00     0.018 A 
HETATM   17  C   UNK A   0       4.299  12.277  92.772  1.00  0.00     0.022 A 
HETATM   18  C   UNK A   0       3.571  13.204  93.519  1.00  0.00     0.018 A 
HETATM   19  C   UNK A   0       3.291  14.434  92.963  1.00  0.00     0.032 A 
HETATM   20  C   UNK A   0       3.704  14.780  91.694  1.00  0.00     0.018 A 
HETATM   21  C   UNK A   0       4.432  13.855  90.946  1.00  0.00     0.022 A 
BRANCH  19  22
HETATM   22  C   UNK A   0       2.514  15.420  93.758  1.00  0.00     0.252 C 
HETATM   23  O   UNK A   0       1.327  15.600  93.497  1.00  0.00    -0.268 OA
ENDBRANCH  19  22
ENDBRANCH  15  16
ENDBRANCH  11  14
ENDBRANCH   7   8
ENDBRANCH   2   7
TORSDOF 9
ENDMDL
MODEL 9
REMARK VINA RESULT:      -6.4      3.333      4.264
REMARK  9 active torsions:
REMARK  status: ('A' for Active; 'I' for Inactive)
REMARK    1  A    between atoms: N_3  and  C_6 
REMARK    2  A    between atoms: C_6  and  C_9 
REMARK    3  A    between atoms: C_14  and  C_17 
REMARK       I    between atoms: N_26  and  C_15 
REMARK    4  A    between atoms: C_15  and  C_16 
REMARK    5  A    between atoms: C_20  and  C_23 
REMARK    6  A    between atoms: OG1_24  and  CB_28 
REMARK    7  A    between atoms: N_26  and  CA_27 
REMARK    8  A    between atoms: CA_27  and  CB_28 
REMARK    9  A    between atoms: CA_27  and  C_30 
ROOT
HETATM    1  O   UNK A   0       4.185  15.011  89.869  1.00  0.00    -0.388 OA
HETATM    2  N   UNK A   0       4.863  12.282  89.427  1.00  0.00     0.096 N 
HETATM    3  C   UNK A   0       4.861  13.260  88.330  1.00  0.00     0.299 C 
HETATM    4  C   UNK A   0       3.888  12.675  90.454  1.00  0.00     0.299 C 
HETATM    5  C   UNK A   0       5.153  14.654  88.880  1.00  0.00     0.198 C 
HETATM    6  C   UNK A   0       4.202  14.082  90.953  1.00  0.00     0.198 C 
ENDROOT
BRANCH   2   7
HETATM    7  C   UNK A   0       4.574  10.940  88.923  1.00  0.00     0.311 C 
BRANCH   7   8
HETATM    8  C   UNK A   0       5.614   9.948  89.322  1.00  0.00    -0.030 A 
HETATM    9  C   UNK A   0       6.866  10.387  89.755  1.00  0.00     0.010 A 
HETATM   10  C   UNK A   0       7.840   9.461  90.126  1.00  0.00     0.021 A 
HETATM   11  C   UNK A   0       7.561   8.096  90.066  1.00  0.00     0.018 A 
HETATM   12  C   UNK A   0       6.311   7.656  89.634  1.00  0.00     0.021 A 
HETATM   13  C   UNK A   0       5.337   8.582  89.262  1.00  0.00     0.010 A 
BRANCH  11  14
HETATM   14  C   UNK A   0       8.559   7.145  90.448  1.00  0.00    -0.061 C 
HETATM   15  C   UNK A   0       9.398   6.346  90.771  1.00  0.00    -0.061 C 
BRANCH  15  16
HETATM   16  C   UNK A   0      10.396   5.396  91.153  1.00  0.00     0.018 A 
HETATM   17  C   UNK A   0      10.608   5.115  92.503  1.00  0.00     0.022 A 
HETATM   18  C   UNK A   0      11.580   4.186  92.876  1.00  0.00     0.018 A 
HETATM   19  C   UNK A   0      12.315   3.558  91.892  1.00  0.00     0.032 A 
HETATM   20  C   UNK A   0      12.124   3.819  90.551  1.00  0.00     0.018 A 
HETATM   21  C   UNK A   0      11.153   4.748  90.177  1.00  0.00     0.022 A 
BRANCH  19  22
HETATM   22  C   UNK A   0      13.350   2.570  92.290  1.00  0.00     0.252 C 
HETATM   23  O   UNK A   0      13.872   2.661  93.398  1.00  0.00    -0.268 OA
ENDBRANCH  19  22
ENDBRANCH  15  16
ENDBRANCH  11  14
ENDBRANCH   7   8
ENDBRANCH   2   7
TORSDOF 9
ENDMDL
