MODEL 1
REMARK VINA RESULT:      -6.7      0.000      0.000
REMARK  10 active torsions:
REMARK  status: ('A' for Active; 'I' for Inactive)
REMARK    1  A    between atoms: O_2  and  C_16 
REMARK    2  A    between atoms: N_5  and  C_9 
REMARK    3  A    between atoms: N_6  and  C_13 
REMARK       I    between atoms: N_6  and  C_22 
REMARK    4  A    between atoms: C_9  and  C_12 
REMARK    5  A    between atoms: C_13  and  C_16 
REMARK    6  A    between atoms: C_13  and  C_21 
REMARK    7  A    between atoms: C_19  and  C_24 
REMARK    8  A    between atoms: C_22  and  C_23 
REMARK    9  A    between atoms: C_27  and  C_30 
REMARK   10  A    between atoms: N_33  and  S_34 
ROOT
HETATM    1  C   UNL     1       4.984   9.916  89.769  1.00  0.00     0.056 A 
HETATM    2  C   UNL     1       4.675   8.577  89.645  1.00  0.00     0.005 A 
HETATM    3  C   UNL     1       6.245  10.351  90.119  1.00  0.00     0.005 A 
HETATM    4  C   UNL     1       6.956   8.045  90.237  1.00  0.00     0.042 A 
HETATM    5  C   UNL     1       5.672   7.631  89.882  1.00  0.00     0.008 A 
HETATM    6  C   UNL     1       7.243   9.405  90.356  1.00  0.00     0.008 A 
ENDROOT
BRANCH   1   7
HETATM    7  C   UNL     1       3.923  10.924  89.515  1.00  0.00     0.254 C 
HETATM    8  O   UNL     1       3.085  10.706  88.644  1.00  0.00    -0.268 OA
HETATM    9  N   UNL     1       3.950  12.053  90.322  1.00  0.00    -0.337 N 
HETATM   10  HN  UNL     1       4.659  12.153  91.039  1.00  0.00     0.164 HD
BRANCH   9  11
HETATM   11  C   UNL     1       2.975  13.108  90.214  1.00  0.00     0.172 C 
BRANCH  11  12
HETATM   12  C   UNL     1       2.310  13.441  91.555  1.00  0.00     0.136 C 
HETATM   13  C   UNL     1       1.293  14.571  91.438  1.00  0.00     0.034 C 
BRANCH  12  14
HETATM   14  O   UNL     1       1.655  12.279  92.065  1.00  0.00    -0.383 OA
HETATM   15  H   UNL     1       0.945  12.034  91.448  1.00  0.00     0.210 HD
ENDBRANCH  12  14
ENDBRANCH  11  12
BRANCH  11  16
HETATM   16  C   UNL     1       3.673  14.328  89.623  1.00  0.00     0.398 A 
HETATM   17  O   UNL     1       4.509  14.252  88.725  1.00  0.00    -0.136 OA
HETATM   18  N   UNL     1       4.975  15.220  89.800  1.00  0.00     0.142 N 
HETATM   19  HN  UNL     1       5.733  15.315  89.184  1.00  0.00     0.338 HD
BRANCH  18  20
HETATM   20  S   UNL     1       4.807  15.566  91.136  1.00  0.00     0.076 SA
HETATM   21  H   UNL     1       4.996  16.705  91.417  1.00  0.00     0.136 HD
ENDBRANCH  18  20
ENDBRANCH  11  16
ENDBRANCH   9  11
ENDBRANCH   1   7
BRANCH   4  22
HETATM   22  C   UNL     1       7.977   7.075  90.483  1.00  0.00    -0.059 C 
HETATM   23  C   UNL     1       8.835   6.258  90.690  1.00  0.00    -0.059 C 
BRANCH  23  24
HETATM   24  C   UNL     1       9.856   5.286  90.935  1.00  0.00     0.042 A 
HETATM   25  C   UNL     1       9.813   4.509  92.092  1.00  0.00     0.008 A 
HETATM   26  C   UNL     1      10.810   3.564  92.333  1.00  0.00    -0.002 A 
HETATM   27  C   UNL     1      11.847   3.394  91.414  1.00  0.00     0.011 A 
HETATM   28  C   UNL     1      11.887   4.172  90.257  1.00  0.00    -0.002 A 
HETATM   29  C   UNL     1      10.891   5.118  90.018  1.00  0.00     0.008 A 
BRANCH  27  30
HETATM   30  C   UNL     1      12.910   2.381  91.671  1.00  0.00     0.277 C 
BRANCH  30  31
HETATM   31  N   UNL     1      13.821   2.789  92.739  1.00  0.00     0.147 N 
HETATM   32  C   UNL     1      14.806   1.733  93.014  1.00  0.00     0.283 C 
HETATM   33  C   UNL     1      15.752   2.185  94.124  1.00  0.00     0.178 C 
HETATM   34  O   UNL     1      16.410   3.397  93.753  1.00  0.00    -0.350 OA
HETATM   35  C   UNL     1      15.461   4.437  93.514  1.00  0.00     0.178 C 
HETATM   36  C   UNL     1      14.508   4.040  92.391  1.00  0.00     0.283 C 
ENDBRANCH  30  31
ENDBRANCH  27  30
ENDBRANCH  23  24
ENDBRANCH   4  22
TORSDOF 10
ENDMDL
