MODEL 1
REMARK VINA RESULT:      -7.2      0.000      0.000
REMARK  9 active torsions:
REMARK  status: ('A' for Active; 'I' for Inactive)
REMARK    1  A    between atoms: O_2  and  C_17 
REMARK    2  A    between atoms: N_5  and  C_10 
REMARK    3  A    between atoms: N_6  and  C_14 
REMARK       I    between atoms: N_6  and  C_23 
REMARK       I    between atoms: N_7  and  C_22 
REMARK    4  A    between atoms: C_10  and  C_13 
REMARK    5  A    between atoms: C_14  and  C_17 
REMARK    6  A    between atoms: C_14  and  C_22 
REMARK    7  A    between atoms: C_20  and  C_25 
REMARK    8  A    between atoms: C_23  and  C_24 
REMARK    9  A    between atoms: C_28  and  C_31 
ROOT
HETATM    1  O   UNL     1      16.705   4.329  94.120  1.00  0.00    -0.388 OA
HETATM    2  N   UNL     1      14.862   2.713  92.671  1.00  0.00     0.096 N 
HETATM    3  C   UNL     1      14.769   4.180  92.663  1.00  0.00     0.299 C 
HETATM    4  C   UNL     1      15.461   2.254  93.932  1.00  0.00     0.299 C 
HETATM    5  C   UNL     1      16.153   4.787  92.884  1.00  0.00     0.198 C 
HETATM    6  C   UNL     1      16.827   2.906  94.124  1.00  0.00     0.198 C 
ENDROOT
BRANCH   2   7
HETATM    7  C   UNL     1      13.546   2.110  92.471  1.00  0.00     0.311 C 
BRANCH   7   8
HETATM    8  C   UNL     1      12.519   3.111  92.061  1.00  0.00    -0.030 A 
HETATM    9  C   UNL     1      12.281   3.350  90.707  1.00  0.00     0.010 A 
HETATM   10  C   UNL     1      11.323   4.287  90.322  1.00  0.00     0.021 A 
HETATM   11  C   UNL     1      10.601   4.983  91.291  1.00  0.00     0.018 A 
HETATM   12  C   UNL     1      10.837   4.745  92.643  1.00  0.00     0.021 A 
HETATM   13  C   UNL     1      11.796   3.808  93.029  1.00  0.00     0.010 A 
BRANCH  11  14
HETATM   14  C   UNL     1       9.616   5.942  90.896  1.00  0.00    -0.061 C 
HETATM   15  C   UNL     1       8.789   6.749  90.565  1.00  0.00    -0.061 C 
BRANCH  15  16
HETATM   16  C   UNL     1       7.805   7.709  90.170  1.00  0.00     0.018 A 
HETATM   17  C   UNL     1       7.295   8.609  91.106  1.00  0.00     0.022 A 
HETATM   18  C   UNL     1       6.338   9.547  90.720  1.00  0.00     0.018 A 
HETATM   19  C   UNL     1       5.913   9.564  89.409  1.00  0.00     0.032 A 
HETATM   20  C   UNL     1       6.401   8.685  88.465  1.00  0.00     0.018 A 
HETATM   21  C   UNL     1       7.358   7.747  88.849  1.00  0.00     0.022 A 
BRANCH  19  22
HETATM   22  C   UNL     1       4.891  10.563  88.998  1.00  0.00     0.252 C 
HETATM   23  O   UNL     1       4.147  10.306  88.055  1.00  0.00    -0.268 OA
HETATM   24  N   UNL     1       4.843  11.728  89.751  1.00  0.00    -0.342 N 
HETATM   25  H   UNL     1       5.474  11.860  90.533  1.00  0.00     0.163 HD
BRANCH  24  26
HETATM   26  C   UNL     1       3.892  12.779  89.493  1.00  0.00     0.199 C 
BRANCH  26  27
HETATM   27  C   UNL     1       3.388  13.452  90.776  1.00  0.00     0.145 C 
HETATM   28  C   UNL     1       2.525  12.522  91.622  1.00  0.00     0.042 C 
BRANCH  27  29
HETATM   29  O   UNL     1       4.501  13.888  91.555  1.00  0.00    -0.393 OA
HETATM   30  H   UNL     1       5.275  13.355  91.307  1.00  0.00     0.210 HD
ENDBRANCH  27  29
ENDBRANCH  26  27
BRANCH  26  31
HETATM   31  C   UNL     1       4.555  13.788  88.562  1.00  0.00     0.220 C 
HETATM   32  O   UNL     1       4.864  14.925  88.916  1.00  0.00    -0.278 OA
HETATM   33  N   UNL     1       4.724  13.290  87.293  1.00  0.00    -0.271 NA
HETATM   34  H   UNL     1       4.402  12.395  86.944  1.00  0.00     0.127 HD
HETATM   35  H   UNL     1       4.034  13.638  86.121  1.00  0.00     0.127 HD
ENDBRANCH  26  31
ENDBRANCH  24  26
ENDBRANCH  19  22
ENDBRANCH  15  16
ENDBRANCH  11  14
ENDBRANCH   7   8
ENDBRANCH   2   7
TORSDOF 9
ENDMDL
MODEL 2
REMARK VINA RESULT:      -7.0      1.309      1.498
REMARK  9 active torsions:
REMARK  status: ('A' for Active; 'I' for Inactive)
REMARK    1  A    between atoms: O_2  and  C_17 
REMARK    2  A    between atoms: N_5  and  C_10 
REMARK    3  A    between atoms: N_6  and  C_14 
REMARK       I    between atoms: N_6  and  C_23 
REMARK       I    between atoms: N_7  and  C_22 
REMARK    4  A    between atoms: C_10  and  C_13 
REMARK    5  A    between atoms: C_14  and  C_17 
REMARK    6  A    between atoms: C_14  and  C_22 
REMARK    7  A    between atoms: C_20  and  C_25 
REMARK    8  A    between atoms: C_23  and  C_24 
REMARK    9  A    between atoms: C_28  and  C_31 
ROOT
HETATM    1  O   UNL     1      16.153   4.023  94.097  1.00  0.00    -0.388 OA
HETATM    2  N   UNL     1      14.236   2.644  92.508  1.00  0.00     0.096 N 
HETATM    3  C   UNL     1      14.334   4.111  92.493  1.00  0.00     0.299 C 
HETATM    4  C   UNL     1      14.671   2.124  93.811  1.00  0.00     0.299 C 
HETATM    5  C   UNL     1      15.762   4.537  92.822  1.00  0.00     0.198 C 
HETATM    6  C   UNL     1      16.090   2.597  94.110  1.00  0.00     0.198 C 
ENDROOT
BRANCH   2   7
HETATM    7  C   UNL     1      12.872   2.214  92.205  1.00  0.00     0.311 C 
BRANCH   7   8
HETATM    8  C   UNL     1      11.973   3.358  91.882  1.00  0.00    -0.030 A 
HETATM    9  C   UNL     1      11.784   3.742  90.554  1.00  0.00     0.010 A 
HETATM   10  C   UNL     1      10.946   4.815  90.251  1.00  0.00     0.021 A 
HETATM   11  C   UNL     1      10.294   5.501  91.276  1.00  0.00     0.018 A 
HETATM   12  C   UNL     1      10.482   5.118  92.602  1.00  0.00     0.021 A 
HETATM   13  C   UNL     1      11.321   4.046  92.906  1.00  0.00     0.010 A 
BRANCH  11  14
HETATM   14  C   UNL     1       9.432   6.599  90.964  1.00  0.00    -0.061 C 
HETATM   15  C   UNL     1       8.708   7.522  90.702  1.00  0.00    -0.061 C 
BRANCH  15  16
HETATM   16  C   UNL     1       7.846   8.619  90.390  1.00  0.00     0.018 A 
HETATM   17  C   UNL     1       8.388   9.873  90.109  1.00  0.00     0.022 A 
HETATM   18  C   UNL     1       7.547  10.943  89.802  1.00  0.00     0.018 A 
HETATM   19  C   UNL     1       6.184  10.735  89.782  1.00  0.00     0.032 A 
HETATM   20  C   UNL     1       5.623   9.505  90.057  1.00  0.00     0.018 A 
HETATM   21  C   UNL     1       6.463   8.435  90.364  1.00  0.00     0.022 A 
BRANCH  19  22
HETATM   22  C   UNL     1       5.288  11.875  89.457  1.00  0.00     0.252 C 
HETATM   23  O   UNL     1       5.025  12.114  88.282  1.00  0.00    -0.268 OA
HETATM   24  N   UNL     1       4.788  12.583  90.541  1.00  0.00    -0.342 N 
HETATM   25  H   UNL     1       5.030  12.312  91.487  1.00  0.00     0.163 HD
BRANCH  24  26
HETATM   26  C   UNL     1       3.889  13.699  90.390  1.00  0.00     0.199 C 
BRANCH  26  27
HETATM   27  C   UNL     1       2.598  13.534  91.201  1.00  0.00     0.145 C 
HETATM   28  C   UNL     1       2.835  12.854  92.545  1.00  0.00     0.042 C 
BRANCH  27  29
HETATM   29  O   UNL     1       2.009  14.815  91.427  1.00  0.00    -0.393 OA
HETATM   30  H   UNL     1       1.776  14.881  92.369  1.00  0.00     0.210 HD
ENDBRANCH  27  29
ENDBRANCH  26  27
BRANCH  26  31
HETATM   31  C   UNL     1       4.641  14.962  90.796  1.00  0.00     0.220 C 
HETATM   32  O   UNL     1       4.616  15.419  91.937  1.00  0.00    -0.278 OA
HETATM   33  N   UNL     1       5.305  15.533  89.738  1.00  0.00    -0.271 NA
HETATM   34  H   UNL     1       5.275  15.235  88.770  1.00  0.00     0.127 HD
HETATM   35  H   UNL     1       4.995  16.718  89.051  1.00  0.00     0.127 HD
ENDBRANCH  26  31
ENDBRANCH  24  26
ENDBRANCH  19  22
ENDBRANCH  15  16
ENDBRANCH  11  14
ENDBRANCH   7   8
ENDBRANCH   2   7
TORSDOF 9
ENDMDL
MODEL 3
REMARK VINA RESULT:      -6.8      2.075      3.277
REMARK  9 active torsions:
REMARK  status: ('A' for Active; 'I' for Inactive)
REMARK    1  A    between atoms: O_2  and  C_17 
REMARK    2  A    between atoms: N_5  and  C_10 
REMARK    3  A    between atoms: N_6  and  C_14 
REMARK       I    between atoms: N_6  and  C_23 
REMARK       I    between atoms: N_7  and  C_22 
REMARK    4  A    between atoms: C_10  and  C_13 
REMARK    5  A    between atoms: C_14  and  C_17 
REMARK    6  A    between atoms: C_14  and  C_22 
REMARK    7  A    between atoms: C_20  and  C_25 
REMARK    8  A    between atoms: C_23  and  C_24 
REMARK    9  A    between atoms: C_28  and  C_31 
ROOT
HETATM    1  O   UNL     1      16.629   2.980  93.719  1.00  0.00    -0.388 OA
HETATM    2  N   UNL     1      13.843   2.922  93.140  1.00  0.00     0.096 N 
HETATM    3  C   UNL     1      14.647   1.692  93.171  1.00  0.00     0.299 C 
HETATM    4  C   UNL     1      14.684   4.063  92.755  1.00  0.00     0.299 C 
HETATM    5  C   UNL     1      15.827   1.870  94.123  1.00  0.00     0.198 C 
HETATM    6  C   UNL     1      15.862   4.185  93.716  1.00  0.00     0.198 C 
ENDROOT
BRANCH   2   7
HETATM    7  C   UNL     1      12.712   2.777  92.225  1.00  0.00     0.311 C 
BRANCH   7   8
HETATM    8  C   UNL     1      11.758   3.919  92.317  1.00  0.00    -0.030 A 
HETATM    9  C   UNL     1      11.427   4.452  93.564  1.00  0.00     0.010 A 
HETATM   10  C   UNL     1      10.533   5.519  93.651  1.00  0.00     0.021 A 
HETATM   11  C   UNL     1       9.971   6.053  92.492  1.00  0.00     0.018 A 
HETATM   12  C   UNL     1      10.301   5.523  91.247  1.00  0.00     0.021 A 
HETATM   13  C   UNL     1      11.195   4.455  91.159  1.00  0.00     0.010 A 
BRANCH  11  14
HETATM   14  C   UNL     1       9.056   7.149  92.582  1.00  0.00    -0.061 C 
HETATM   15  C   UNL     1       8.286   8.069  92.658  1.00  0.00    -0.061 C 
BRANCH  15  16
HETATM   16  C   UNL     1       7.370   9.164  92.748  1.00  0.00     0.018 A 
HETATM   17  C   UNL     1       7.080   9.728  93.991  1.00  0.00     0.022 A 
HETATM   18  C   UNL     1       6.189  10.797  94.079  1.00  0.00     0.018 A 
HETATM   19  C   UNL     1       5.610  11.279  92.924  1.00  0.00     0.032 A 
HETATM   20  C   UNL     1       5.880  10.739  91.684  1.00  0.00     0.018 A 
HETATM   21  C   UNL     1       6.771   9.669  91.595  1.00  0.00     0.022 A 
BRANCH  19  22
HETATM   22  C   UNL     1       4.659  12.417  93.018  1.00  0.00     0.252 C 
HETATM   23  O   UNL     1       4.201  12.727  94.115  1.00  0.00    -0.268 OA
HETATM   24  N   UNL     1       4.376  13.073  91.828  1.00  0.00    -0.342 N 
HETATM   25  H   UNL     1       4.812  12.777  90.963  1.00  0.00     0.163 HD
BRANCH  24  26
HETATM   26  C   UNL     1       3.493  14.210  91.760  1.00  0.00     0.199 C 
BRANCH  26  27
HETATM   27  C   UNL     1       3.617  14.980  90.440  1.00  0.00     0.145 C 
HETATM   28  C   UNL     1       5.024  15.522  90.211  1.00  0.00     0.042 C 
BRANCH  27  29
HETATM   29  O   UNL     1       3.268  14.124  89.353  1.00  0.00    -0.393 OA
HETATM   30  H   UNL     1       4.069  13.656  89.064  1.00  0.00     0.210 HD
ENDBRANCH  27  29
ENDBRANCH  26  27
BRANCH  26  31
HETATM   31  C   UNL     1       2.069  13.707  91.977  1.00  0.00     0.220 C 
HETATM   32  O   UNL     1       1.664  12.634  91.535  1.00  0.00    -0.278 OA
HETATM   33  N   UNL     1       1.303  14.605  92.679  1.00  0.00    -0.271 NA
HETATM   34  H   UNL     1       1.578  15.533  92.979  1.00  0.00     0.127 HD
HETATM   35  H   UNL     1       0.255  15.412  92.209  1.00  0.00     0.127 HD
ENDBRANCH  26  31
ENDBRANCH  24  26
ENDBRANCH  19  22
ENDBRANCH  15  16
ENDBRANCH  11  14
ENDBRANCH   7   8
ENDBRANCH   2   7
TORSDOF 9
ENDMDL
MODEL 4
REMARK VINA RESULT:      -6.7      1.389      1.944
REMARK  9 active torsions:
REMARK  status: ('A' for Active; 'I' for Inactive)
REMARK    1  A    between atoms: O_2  and  C_17 
REMARK    2  A    between atoms: N_5  and  C_10 
REMARK    3  A    between atoms: N_6  and  C_14 
REMARK       I    between atoms: N_6  and  C_23 
REMARK       I    between atoms: N_7  and  C_22 
REMARK    4  A    between atoms: C_10  and  C_13 
REMARK    5  A    between atoms: C_14  and  C_17 
REMARK    6  A    between atoms: C_14  and  C_22 
REMARK    7  A    between atoms: C_20  and  C_25 
REMARK    8  A    between atoms: C_23  and  C_24 
REMARK    9  A    between atoms: C_28  and  C_31 
ROOT
HETATM    1  O   UNL     1      16.813   3.655  93.729  1.00  0.00    -0.388 OA
HETATM    2  N   UNL     1      14.145   2.966  93.014  1.00  0.00     0.096 N 
HETATM    3  C   UNL     1      15.200   1.949  93.113  1.00  0.00     0.299 C 
HETATM    4  C   UNL     1      14.730   4.263  92.645  1.00  0.00     0.299 C 
HETATM    5  C   UNL     1      16.258   2.397  94.118  1.00  0.00     0.198 C 
HETATM    6  C   UNL     1      15.798   4.657  93.660  1.00  0.00     0.198 C 
ENDROOT
BRANCH   2   7
HETATM    7  C   UNL     1      13.126   2.562  92.047  1.00  0.00     0.311 C 
BRANCH   7   8
HETATM    8  C   UNL     1      12.098   3.620  91.830  1.00  0.00    -0.030 A 
HETATM    9  C   UNL     1      11.325   4.071  92.901  1.00  0.00     0.010 A 
HETATM   10  C   UNL     1      10.362   5.059  92.698  1.00  0.00     0.021 A 
HETATM   11  C   UNL     1      10.174   5.598  91.425  1.00  0.00     0.018 A 
HETATM   12  C   UNL     1      10.945   5.148  90.355  1.00  0.00     0.021 A 
HETATM   13  C   UNL     1      11.908   4.160  90.557  1.00  0.00     0.010 A 
BRANCH  11  14
HETATM   14  C   UNL     1       9.187   6.613  91.218  1.00  0.00    -0.061 C 
HETATM   15  C   UNL     1       8.358   7.466  91.045  1.00  0.00    -0.061 C 
BRANCH  15  16
HETATM   16  C   UNL     1       7.372   8.481  90.838  1.00  0.00     0.018 A 
HETATM   17  C   UNL     1       6.532   8.860  91.886  1.00  0.00     0.022 A 
HETATM   18  C   UNL     1       5.573   9.852  91.685  1.00  0.00     0.018 A 
HETATM   19  C   UNL     1       5.476  10.443  90.443  1.00  0.00     0.032 A 
HETATM   20  C   UNL     1       6.294  10.087  89.391  1.00  0.00     0.018 A 
HETATM   21  C   UNL     1       7.254   9.094  89.591  1.00  0.00     0.022 A 
BRANCH  19  22
HETATM   22  C   UNL     1       4.452  11.499  90.229  1.00  0.00     0.252 C 
HETATM   23  O   UNL     1       3.483  11.259  89.512  1.00  0.00    -0.268 OA
HETATM   24  N   UNL     1       4.667  12.698  90.894  1.00  0.00    -0.342 N 
HETATM   25  H   UNL     1       5.478  12.816  91.489  1.00  0.00     0.163 HD
BRANCH  24  26
HETATM   26  C   UNL     1       3.753  13.808  90.806  1.00  0.00     0.199 C 
BRANCH  26  27
HETATM   27  C   UNL     1       2.599  13.708  91.811  1.00  0.00     0.145 C 
HETATM   28  C   UNL     1       3.003  12.991  93.095  1.00  0.00     0.042 C 
BRANCH  27  29
HETATM   29  O   UNL     1       2.135  15.017  92.139  1.00  0.00    -0.393 OA
HETATM   30  H   UNL     1       1.419  15.250  91.523  1.00  0.00     0.210 HD
ENDBRANCH  27  29
ENDBRANCH  26  27
BRANCH  26  31
HETATM   31  C   UNL     1       4.555  15.090  91.009  1.00  0.00     0.220 C 
HETATM   32  O   UNL     1       4.751  15.589  92.116  1.00  0.00    -0.278 OA
HETATM   33  N   UNL     1       4.988  15.625  89.820  1.00  0.00    -0.271 NA
HETATM   34  H   UNL     1       4.770  15.290  88.889  1.00  0.00     0.127 HD
HETATM   35  H   UNL     1       4.533  16.782  89.169  1.00  0.00     0.127 HD
ENDBRANCH  26  31
ENDBRANCH  24  26
ENDBRANCH  19  22
ENDBRANCH  15  16
ENDBRANCH  11  14
ENDBRANCH   7   8
ENDBRANCH   2   7
TORSDOF 9
ENDMDL
MODEL 5
REMARK VINA RESULT:      -5.9      2.659     12.210
REMARK  9 active torsions:
REMARK  status: ('A' for Active; 'I' for Inactive)
REMARK    1  A    between atoms: O_2  and  C_17 
REMARK    2  A    between atoms: N_5  and  C_10 
REMARK    3  A    between atoms: N_6  and  C_14 
REMARK       I    between atoms: N_6  and  C_23 
REMARK       I    between atoms: N_7  and  C_22 
REMARK    4  A    between atoms: C_10  and  C_13 
REMARK    5  A    between atoms: C_14  and  C_17 
REMARK    6  A    between atoms: C_14  and  C_22 
REMARK    7  A    between atoms: C_20  and  C_25 
REMARK    8  A    between atoms: C_23  and  C_24 
REMARK    9  A    between atoms: C_28  and  C_31 
ROOT
HETATM    1  O   UNL     1       2.579  14.448  94.124  1.00  0.00    -0.388 OA
HETATM    2  N   UNL     1       2.523  14.673  91.287  1.00  0.00     0.096 N 
HETATM    3  C   UNL     1       1.605  13.777  92.004  1.00  0.00     0.299 C 
HETATM    4  C   UNL     1       3.771  14.828  92.046  1.00  0.00     0.299 C 
HETATM    5  C   UNL     1       1.348  14.317  93.409  1.00  0.00     0.198 C 
HETATM    6  C   UNL     1       3.464  15.342  93.449  1.00  0.00     0.198 C 
ENDROOT
BRANCH   2   7
HETATM    7  C   UNL     1       2.792  14.170  89.941  1.00  0.00     0.311 C 
BRANCH   7   8
HETATM    8  C   UNL     1       3.783  13.056  89.939  1.00  0.00    -0.030 A 
HETATM    9  C   UNL     1       4.967  13.179  89.211  1.00  0.00     0.010 A 
HETATM   10  C   UNL     1       5.894  12.137  89.207  1.00  0.00     0.021 A 
HETATM   11  C   UNL     1       5.637  10.974  89.932  1.00  0.00     0.018 A 
HETATM   12  C   UNL     1       4.456  10.850  90.659  1.00  0.00     0.021 A 
HETATM   13  C   UNL     1       3.528  11.891  90.663  1.00  0.00     0.010 A 
BRANCH  11  14
HETATM   14  C   UNL     1       6.590   9.906  89.929  1.00  0.00    -0.061 C 
HETATM   15  C   UNL     1       7.389   9.008  89.927  1.00  0.00    -0.061 C 
BRANCH  15  16
HETATM   16  C   UNL     1       8.340   7.940  89.924  1.00  0.00     0.018 A 
HETATM   17  C   UNL     1       9.381   7.937  88.995  1.00  0.00     0.022 A 
HETATM   18  C   UNL     1      10.310   6.897  88.994  1.00  0.00     0.018 A 
HETATM   19  C   UNL     1      10.178   5.884  89.921  1.00  0.00     0.032 A 
HETATM   20  C   UNL     1       9.158   5.864  90.849  1.00  0.00     0.018 A 
HETATM   21  C   UNL     1       8.228   6.904  90.851  1.00  0.00     0.022 A 
BRANCH  19  22
HETATM   22  C   UNL     1      11.167   4.775  89.919  1.00  0.00     0.252 C 
HETATM   23  O   UNL     1      11.366   4.152  88.879  1.00  0.00    -0.268 OA
HETATM   24  N   UNL     1      11.822   4.541  91.120  1.00  0.00    -0.342 N 
HETATM   25  H   UNL     1      11.623   5.114  91.932  1.00  0.00     0.163 HD
BRANCH  24  26
HETATM   26  C   UNL     1      12.824   3.518  91.270  1.00  0.00     0.199 C 
BRANCH  26  27
HETATM   27  C   UNL     1      14.055   4.002  92.048  1.00  0.00     0.145 C 
HETATM   28  C   UNL     1      13.821   4.026  93.554  1.00  0.00     0.042 C 
BRANCH  27  29
HETATM   29  O   UNL     1      15.164   3.149  91.765  1.00  0.00    -0.393 OA
HETATM   30  H   UNL     1      15.852   3.679  91.328  1.00  0.00     0.210 HD
ENDBRANCH  27  29
ENDBRANCH  26  27
BRANCH  26  31
HETATM   31  C   UNL     1      12.171   2.322  91.955  1.00  0.00     0.220 C 
HETATM   32  O   UNL     1      12.720   1.227  92.058  1.00  0.00    -0.278 OA
HETATM   33  N   UNL     1      10.902   2.607  92.398  1.00  0.00    -0.271 NA
HETATM   34  H   UNL     1      10.387   3.468  92.251  1.00  0.00     0.127 HD
HETATM   35  H   UNL     1       9.677   2.157  91.881  1.00  0.00     0.127 HD
ENDBRANCH  26  31
ENDBRANCH  24  26
ENDBRANCH  19  22
ENDBRANCH  15  16
ENDBRANCH  11  14
ENDBRANCH   7   8
ENDBRANCH   2   7
TORSDOF 9
ENDMDL
MODEL 6
REMARK VINA RESULT:      -5.4      1.921     12.185
REMARK  9 active torsions:
REMARK  status: ('A' for Active; 'I' for Inactive)
REMARK    1  A    between atoms: O_2  and  C_17 
REMARK    2  A    between atoms: N_5  and  C_10 
REMARK    3  A    between atoms: N_6  and  C_14 
REMARK       I    between atoms: N_6  and  C_23 
REMARK       I    between atoms: N_7  and  C_22 
REMARK    4  A    between atoms: C_10  and  C_13 
REMARK    5  A    between atoms: C_14  and  C_17 
REMARK    6  A    between atoms: C_14  and  C_22 
REMARK    7  A    between atoms: C_20  and  C_25 
REMARK    8  A    between atoms: C_23  and  C_24 
REMARK    9  A    between atoms: C_28  and  C_31 
ROOT
HETATM    1  O   UNL     1       5.662  14.622  88.932  1.00  0.00    -0.388 OA
HETATM    2  N   UNL     1       3.595  12.997  90.021  1.00  0.00     0.096 N 
HETATM    3  C   UNL     1       4.322  13.970  90.848  1.00  0.00     0.299 C 
HETATM    4  C   UNL     1       4.457  12.517  88.932  1.00  0.00     0.299 C 
HETATM    5  C   UNL     1       4.821  15.119  89.975  1.00  0.00     0.198 C 
HETATM    6  C   UNL     1       4.953  13.698  88.106  1.00  0.00     0.198 C 
ENDROOT
BRANCH   2   7
HETATM    7  C   UNL     1       3.116  11.881  90.836  1.00  0.00     0.311 C 
BRANCH   7   8
HETATM    8  C   UNL     1       4.198  10.906  91.155  1.00  0.00    -0.030 A 
HETATM    9  C   UNL     1       5.259  11.287  91.978  1.00  0.00     0.010 A 
HETATM   10  C   UNL     1       6.272  10.377  92.275  1.00  0.00     0.021 A 
HETATM   11  C   UNL     1       6.223   9.085  91.752  1.00  0.00     0.018 A 
HETATM   12  C   UNL     1       5.164   8.703  90.931  1.00  0.00     0.021 A 
HETATM   13  C   UNL     1       4.151   9.614  90.633  1.00  0.00     0.010 A 
BRANCH  11  14
HETATM   14  C   UNL     1       7.262   8.150  92.059  1.00  0.00    -0.061 C 
HETATM   15  C   UNL     1       8.134   7.364  92.317  1.00  0.00    -0.061 C 
BRANCH  15  16
HETATM   16  C   UNL     1       9.172   6.430  92.623  1.00  0.00     0.018 A 
HETATM   17  C   UNL     1       9.878   6.541  93.822  1.00  0.00     0.022 A 
HETATM   18  C   UNL     1      10.889   5.627  94.121  1.00  0.00     0.018 A 
HETATM   19  C   UNL     1      11.171   4.624  93.217  1.00  0.00     0.032 A 
HETATM   20  C   UNL     1      10.488   4.494  92.026  1.00  0.00     0.018 A 
HETATM   21  C   UNL     1       9.477   5.406  91.725  1.00  0.00     0.022 A 
BRANCH  19  22
HETATM   22  C   UNL     1      12.249   3.653  93.536  1.00  0.00     0.252 C 
HETATM   23  O   UNL     1      11.946   2.521  93.907  1.00  0.00    -0.268 OA
HETATM   24  N   UNL     1      13.548   4.108  93.361  1.00  0.00    -0.342 N 
HETATM   25  H   UNL     1      13.722   5.049  93.027  1.00  0.00     0.163 HD
BRANCH  24  26
HETATM   26  C   UNL     1      14.700   3.277  93.605  1.00  0.00     0.199 C 
BRANCH  26  27
HETATM   27  C   UNL     1      15.041   2.371  92.415  1.00  0.00     0.145 C 
HETATM   28  C   UNL     1      14.412   0.987  92.537  1.00  0.00     0.042 C 
BRANCH  27  29
HETATM   29  O   UNL     1      14.589   2.980  91.206  1.00  0.00    -0.393 OA
HETATM   30  H   UNL     1      13.836   3.557  91.418  1.00  0.00     0.210 HD
ENDBRANCH  27  29
ENDBRANCH  26  27
BRANCH  26  31
HETATM   31  C   UNL     1      15.868   4.192  93.957  1.00  0.00     0.220 C 
HETATM   32  O   UNL     1      15.759   5.414  94.044  1.00  0.00    -0.278 OA
HETATM   33  N   UNL     1      17.041   3.496  94.123  1.00  0.00    -0.271 NA
HETATM   34  H   UNL     1      17.185   2.505  93.972  1.00  0.00     0.127 HD
HETATM   35  H   UNL     1      18.163   3.465  93.280  1.00  0.00     0.127 HD
ENDBRANCH  26  31
ENDBRANCH  24  26
ENDBRANCH  19  22
ENDBRANCH  15  16
ENDBRANCH  11  14
ENDBRANCH   7   8
ENDBRANCH   2   7
TORSDOF 9
ENDMDL
MODEL 7
REMARK VINA RESULT:      -5.2      2.369     12.616
REMARK  9 active torsions:
REMARK  status: ('A' for Active; 'I' for Inactive)
REMARK    1  A    between atoms: O_2  and  C_17 
REMARK    2  A    between atoms: N_5  and  C_10 
REMARK    3  A    between atoms: N_6  and  C_14 
REMARK       I    between atoms: N_6  and  C_23 
REMARK       I    between atoms: N_7  and  C_22 
REMARK    4  A    between atoms: C_10  and  C_13 
REMARK    5  A    between atoms: C_14  and  C_17 
REMARK    6  A    between atoms: C_14  and  C_22 
REMARK    7  A    between atoms: C_20  and  C_25 
REMARK    8  A    between atoms: C_23  and  C_24 
REMARK    9  A    between atoms: C_28  and  C_31 
ROOT
HETATM    1  O   UNL     1       2.218  15.338  92.835  1.00  0.00    -0.388 OA
HETATM    2  N   UNL     1       3.399  13.264  91.284  1.00  0.00     0.096 N 
HETATM    3  C   UNL     1       4.206  14.116  92.169  1.00  0.00     0.299 C 
HETATM    4  C   UNL     1       2.222  14.005  90.809  1.00  0.00     0.299 C 
HETATM    5  C   UNL     1       3.348  14.616  93.328  1.00  0.00     0.198 C 
HETATM    6  C   UNL     1       1.412  14.508  91.999  1.00  0.00     0.198 C 
ENDROOT
BRANCH   2   7
HETATM    7  C   UNL     1       4.199  12.782  90.159  1.00  0.00     0.311 C 
BRANCH   7   8
HETATM    8  C   UNL     1       5.147  11.702  90.558  1.00  0.00    -0.030 A 
HETATM    9  C   UNL     1       4.919  10.972  91.724  1.00  0.00     0.010 A 
HETATM   10  C   UNL     1       5.806   9.963  92.099  1.00  0.00     0.021 A 
HETATM   11  C   UNL     1       6.918   9.684  91.307  1.00  0.00     0.018 A 
HETATM   12  C   UNL     1       7.147  10.413  90.141  1.00  0.00     0.021 A 
HETATM   13  C   UNL     1       6.261  11.422  89.766  1.00  0.00     0.010 A 
BRANCH  11  14
HETATM   14  C   UNL     1       7.827   8.647  91.690  1.00  0.00    -0.061 C 
HETATM   15  C   UNL     1       8.591   7.776  92.013  1.00  0.00    -0.061 C 
BRANCH  15  16
HETATM   16  C   UNL     1       9.498   6.741  92.397  1.00  0.00     0.018 A 
HETATM   17  C   UNL     1       9.715   6.471  93.749  1.00  0.00     0.022 A 
HETATM   18  C   UNL     1      10.598   5.458  94.124  1.00  0.00     0.018 A 
HETATM   19  C   UNL     1      11.244   4.739  93.140  1.00  0.00     0.032 A 
HETATM   20  C   UNL     1      11.048   4.987  91.798  1.00  0.00     0.018 A 
HETATM   21  C   UNL     1      10.165   6.000  91.422  1.00  0.00     0.022 A 
BRANCH  19  22
HETATM   22  C   UNL     1      12.187   3.662  93.540  1.00  0.00     0.252 C 
HETATM   23  O   UNL     1      11.771   2.511  93.649  1.00  0.00    -0.268 OA
HETATM   24  N   UNL     1      13.504   4.050  93.739  1.00  0.00    -0.342 N 
HETATM   25  H   UNL     1      13.780   5.016  93.605  1.00  0.00     0.163 HD
BRANCH  24  26
HETATM   26  C   UNL     1      14.540   3.119  94.105  1.00  0.00     0.199 C 
BRANCH  26  27
HETATM   27  C   UNL     1      14.484   1.819  93.293  1.00  0.00     0.145 C 
HETATM   28  C   UNL     1      14.996   1.999  91.868  1.00  0.00     0.042 C 
BRANCH  27  29
HETATM   29  O   UNL     1      15.265   0.816  93.942  1.00  0.00    -0.393 OA
HETATM   30  H   UNL     1      14.688   0.330  94.555  1.00  0.00     0.210 HD
ENDBRANCH  27  29
ENDBRANCH  26  27
BRANCH  26  31
HETATM   31  C   UNL     1      15.882   3.823  93.933  1.00  0.00     0.220 C 
HETATM   32  O   UNL     1      16.961   3.262  94.119  1.00  0.00    -0.278 OA
HETATM   33  N   UNL     1      15.735   5.145  93.591  1.00  0.00    -0.271 NA
HETATM   34  H   UNL     1      14.864   5.659  93.518  1.00  0.00     0.127 HD
HETATM   35  H   UNL     1      15.973   6.282  94.379  1.00  0.00     0.127 HD
ENDBRANCH  26  31
ENDBRANCH  24  26
ENDBRANCH  19  22
ENDBRANCH  15  16
ENDBRANCH  11  14
ENDBRANCH   7   8
ENDBRANCH   2   7
TORSDOF 9
ENDMDL
MODEL 8
REMARK VINA RESULT:      -4.9      2.649     12.354
REMARK  9 active torsions:
REMARK  status: ('A' for Active; 'I' for Inactive)
REMARK    1  A    between atoms: O_2  and  C_17 
REMARK    2  A    between atoms: N_5  and  C_10 
REMARK    3  A    between atoms: N_6  and  C_14 
REMARK       I    between atoms: N_6  and  C_23 
REMARK       I    between atoms: N_7  and  C_22 
REMARK    4  A    between atoms: C_10  and  C_13 
REMARK    5  A    between atoms: C_14  and  C_17 
REMARK    6  A    between atoms: C_14  and  C_22 
REMARK    7  A    between atoms: C_20  and  C_25 
REMARK    8  A    between atoms: C_23  and  C_24 
REMARK    9  A    between atoms: C_28  and  C_31 
ROOT
HETATM    1  O   UNL     1       3.733  14.312  89.790  1.00  0.00    -0.388 OA
HETATM    2  N   UNL     1       3.086  13.701  92.493  1.00  0.00     0.096 N 
HETATM    3  C   UNL     1       4.475  13.919  92.067  1.00  0.00     0.299 C 
HETATM    4  C   UNL     1       2.293  13.173  91.375  1.00  0.00     0.299 C 
HETATM    5  C   UNL     1       4.504  14.857  90.862  1.00  0.00     0.198 C 
HETATM    6  C   UNL     1       2.374  14.126  90.187  1.00  0.00     0.198 C 
ENDROOT
BRANCH   2   7
HETATM    7  C   UNL     1       3.033  12.797  93.641  1.00  0.00     0.311 C 
BRANCH   7   8
HETATM    8  C   UNL     1       4.046  11.707  93.552  1.00  0.00    -0.030 A 
HETATM    9  C   UNL     1       3.664  10.433  93.132  1.00  0.00     0.010 A 
HETATM   10  C   UNL     1       4.610   9.412  93.051  1.00  0.00     0.021 A 
HETATM   11  C   UNL     1       5.939   9.666  93.388  1.00  0.00     0.018 A 
HETATM   12  C   UNL     1       6.322  10.938  93.808  1.00  0.00     0.021 A 
HETATM   13  C   UNL     1       5.376  11.959  93.890  1.00  0.00     0.010 A 
BRANCH  11  14
HETATM   14  C   UNL     1       6.911   8.619  93.303  1.00  0.00    -0.061 C 
HETATM   15  C   UNL     1       7.727   7.739  93.231  1.00  0.00    -0.061 C 
BRANCH  15  16
HETATM   16  C   UNL     1       8.697   6.692  93.145  1.00  0.00     0.018 A 
HETATM   17  C   UNL     1       8.493   5.623  92.272  1.00  0.00     0.022 A 
HETATM   18  C   UNL     1       9.441   4.604  92.186  1.00  0.00     0.018 A 
HETATM   19  C   UNL     1      10.571   4.676  92.974  1.00  0.00     0.032 A 
HETATM   20  C   UNL     1      10.795   5.721  93.845  1.00  0.00     0.018 A 
HETATM   21  C   UNL     1       9.848   6.741  93.932  1.00  0.00     0.022 A 
BRANCH  19  22
HETATM   22  C   UNL     1      11.579   3.589  92.883  1.00  0.00     0.252 C 
HETATM   23  O   UNL     1      11.216   2.458  92.567  1.00  0.00    -0.268 OA
HETATM   24  N   UNL     1      12.892   3.954  93.147  1.00  0.00    -0.342 N 
HETATM   25  H   UNL     1      13.121   4.914  93.378  1.00  0.00     0.163 HD
BRANCH  24  26
HETATM   26  C   UNL     1      13.986   3.019  93.077  1.00  0.00     0.199 C 
BRANCH  26  27
HETATM   27  C   UNL     1      14.309   2.590  91.640  1.00  0.00     0.145 C 
HETATM   28  C   UNL     1      13.860   3.620  90.609  1.00  0.00     0.042 C 
BRANCH  27  29
HETATM   29  O   UNL     1      15.716   2.386  91.508  1.00  0.00    -0.393 OA
HETATM   30  H   UNL     1      16.141   2.641  92.344  1.00  0.00     0.210 HD
ENDBRANCH  27  29
ENDBRANCH  26  27
BRANCH  26  31
HETATM   31  C   UNL     1      15.194   3.664  93.748  1.00  0.00     0.220 C 
HETATM   32  O   UNL     1      15.308   4.879  93.896  1.00  0.00    -0.278 OA
HETATM   33  N   UNL     1      16.137   2.737  94.123  1.00  0.00    -0.271 NA
HETATM   34  H   UNL     1      16.116   1.741  93.936  1.00  0.00     0.127 HD
HETATM   35  H   UNL     1      17.397   2.497  93.553  1.00  0.00     0.127 HD
ENDBRANCH  26  31
ENDBRANCH  24  26
ENDBRANCH  19  22
ENDBRANCH  15  16
ENDBRANCH  11  14
ENDBRANCH   7   8
ENDBRANCH   2   7
TORSDOF 9
ENDMDL
MODEL 9
REMARK VINA RESULT:      -4.9      1.717     12.216
REMARK  9 active torsions:
REMARK  status: ('A' for Active; 'I' for Inactive)
REMARK    1  A    between atoms: O_2  and  C_17 
REMARK    2  A    between atoms: N_5  and  C_10 
REMARK    3  A    between atoms: N_6  and  C_14 
REMARK       I    between atoms: N_6  and  C_23 
REMARK       I    between atoms: N_7  and  C_22 
REMARK    4  A    between atoms: C_10  and  C_13 
REMARK    5  A    between atoms: C_14  and  C_17 
REMARK    6  A    between atoms: C_14  and  C_22 
REMARK    7  A    between atoms: C_20  and  C_25 
REMARK    8  A    between atoms: C_23  and  C_24 
REMARK    9  A    between atoms: C_28  and  C_31 
ROOT
HETATM    1  O   UNL     1       3.762  14.199  91.358  1.00  0.00    -0.388 OA
HETATM    2  N   UNL     1       3.499  12.661  88.977  1.00  0.00     0.096 N 
HETATM    3  C   UNL     1       2.970  12.183  90.263  1.00  0.00     0.299 C 
HETATM    4  C   UNL     1       4.658  13.535  89.204  1.00  0.00     0.299 C 
HETATM    5  C   UNL     1       2.614  13.374  91.149  1.00  0.00     0.198 C 
HETATM    6  C   UNL     1       4.264  14.692  90.116  1.00  0.00     0.198 C 
ENDROOT
BRANCH   2   7
HETATM    7  C   UNL     1       3.857  11.536  88.115  1.00  0.00     0.311 C 
BRANCH   7   8
HETATM    8  C   UNL     1       4.858  10.630  88.749  1.00  0.00    -0.030 A 
HETATM    9  C   UNL     1       4.824   9.261  88.483  1.00  0.00     0.010 A 
HETATM   10  C   UNL     1       5.758   8.412  89.077  1.00  0.00     0.021 A 
HETATM   11  C   UNL     1       6.726   8.933  89.935  1.00  0.00     0.018 A 
HETATM   12  C   UNL     1       6.761  10.301  90.200  1.00  0.00     0.021 A 
HETATM   13  C   UNL     1       5.827  11.150  89.607  1.00  0.00     0.010 A 
BRANCH  11  14
HETATM   14  C   UNL     1       7.685   8.063  90.542  1.00  0.00    -0.061 C 
HETATM   15  C   UNL     1       8.491   7.331  91.052  1.00  0.00    -0.061 C 
BRANCH  15  16
HETATM   16  C   UNL     1       9.451   6.462  91.659  1.00  0.00     0.018 A 
HETATM   17  C   UNL     1       9.444   6.274  93.041  1.00  0.00     0.022 A 
HETATM   18  C   UNL     1      10.378   5.423  93.632  1.00  0.00     0.018 A 
HETATM   19  C   UNL     1      11.296   4.780  92.829  1.00  0.00     0.032 A 
HETATM   20  C   UNL     1      11.324   4.950  91.461  1.00  0.00     0.018 A 
HETATM   21  C   UNL     1      10.390   5.800  90.868  1.00  0.00     0.022 A 
BRANCH  19  22
HETATM   22  C   UNL     1      12.293   3.876  93.460  1.00  0.00     0.252 C 
HETATM   23  O   UNL     1      11.899   2.919  94.122  1.00  0.00    -0.268 OA
HETATM   24  N   UNL     1      13.626   4.180  93.222  1.00  0.00    -0.342 N 
HETATM   25  H   UNL     1      13.876   4.973  92.643  1.00  0.00     0.163 HD
BRANCH  24  26
HETATM   26  C   UNL     1      14.708   3.384  93.745  1.00  0.00     0.199 C 
BRANCH  26  27
HETATM   27  C   UNL     1      14.954   2.109  92.929  1.00  0.00     0.145 C 
HETATM   28  C   UNL     1      14.823   0.843  93.769  1.00  0.00     0.042 C 
BRANCH  27  29
HETATM   29  O   UNL     1      14.023   2.046  91.848  1.00  0.00    -0.393 OA
HETATM   30  H   UNL     1      14.279   2.711  91.187  1.00  0.00     0.210 HD
ENDBRANCH  27  29
ENDBRANCH  26  27
BRANCH  26  31
HETATM   31  C   UNL     1      15.953   4.263  93.789  1.00  0.00     0.220 C 
HETATM   32  O   UNL     1      15.907   5.492  93.760  1.00  0.00    -0.278 OA
HETATM   33  N   UNL     1      17.110   3.523  93.825  1.00  0.00    -0.271 NA
HETATM   34  H   UNL     1      17.187   2.514  93.760  1.00  0.00     0.127 HD
HETATM   35  H   UNL     1      18.063   3.345  92.809  1.00  0.00     0.127 HD
ENDBRANCH  26  31
ENDBRANCH  24  26
ENDBRANCH  19  22
ENDBRANCH  15  16
ENDBRANCH  11  14
ENDBRANCH   7   8
ENDBRANCH   2   7
TORSDOF 9
ENDMDL
