MODEL 1
REMARK VINA RESULT:      -6.4      0.000      0.000
REMARK  14 active torsions:
REMARK  status: ('A' for Active; 'I' for Inactive)
REMARK    1  A    between atoms: O_2  and  C_18 
REMARK    2  A    between atoms: C_5  and  C_8 
REMARK    3  A    between atoms: C_5  and  O_35 
REMARK    4  A    between atoms: C_5  and  C_36 
REMARK    5  A    between atoms: N_6  and  C_11 
REMARK    6  A    between atoms: N_7  and  C_15 
REMARK       I    between atoms: N_7  and  C_24 
REMARK    7  A    between atoms: C_8  and  C_23 
REMARK    8  A    between atoms: C_11  and  C_14 
REMARK    9  A    between atoms: C_15  and  C_18 
REMARK   10  A    between atoms: C_15  and  C_23 
REMARK   11  A    between atoms: C_21  and  C_26 
REMARK   12  A    between atoms: C_24  and  C_25 
REMARK   13  A    between atoms: C_29  and  C_32 
REMARK   14  A    between atoms: C_36  and  O_39 
ROOT
HETATM    1  O   UNL     1      16.301   3.177  93.625  1.00  0.00    -0.350 OA
HETATM    2  N   UNL     1      13.615   2.879  92.731  1.00  0.00     0.147 N 
HETATM    3  C   UNL     1      14.441   1.716  93.083  1.00  0.00     0.283 C 
HETATM    4  C   UNL     1      14.469   3.975  92.251  1.00  0.00     0.283 C 
HETATM    5  C   UNL     1      15.483   2.117  94.124  1.00  0.00     0.178 C 
HETATM    6  C   UNL     1      15.510   4.323  93.310  1.00  0.00     0.178 C 
ENDROOT
BRANCH   2   7
HETATM    7  C   UNL     1      12.616   2.520  91.727  1.00  0.00     0.277 C 
BRANCH   7   8
HETATM    8  C   UNL     1      11.465   3.468  91.706  1.00  0.00     0.011 A 
HETATM    9  C   UNL     1      10.686   3.592  90.556  1.00  0.00    -0.002 A 
HETATM   10  C   UNL     1       9.610   4.480  90.535  1.00  0.00     0.008 A 
HETATM   11  C   UNL     1       9.313   5.240  91.665  1.00  0.00     0.042 A 
HETATM   12  C   UNL     1      10.090   5.117  92.815  1.00  0.00     0.008 A 
HETATM   13  C   UNL     1      11.167   4.230  92.836  1.00  0.00    -0.002 A 
BRANCH  11  14
HETATM   14  C   UNL     1       8.208   6.149  91.644  1.00  0.00    -0.059 C 
HETATM   15  C   UNL     1       7.280   6.914  91.627  1.00  0.00    -0.059 C 
BRANCH  15  16
HETATM   16  C   UNL     1       6.176   7.822  91.605  1.00  0.00     0.042 A 
HETATM   17  C   UNL     1       5.791   8.477  92.774  1.00  0.00     0.008 A 
HETATM   18  C   UNL     1       4.715   9.365  92.752  1.00  0.00     0.005 A 
HETATM   19  C   UNL     1       4.051   9.579  91.563  1.00  0.00     0.056 A 
HETATM   20  C   UNL     1       4.413   8.943  90.393  1.00  0.00     0.005 A 
HETATM   21  C   UNL     1       5.488   8.054  90.414  1.00  0.00     0.008 A 
BRANCH  19  22
HETATM   22  C   UNL     1       2.904  10.523  91.540  1.00  0.00     0.254 C 
HETATM   23  O   UNL     1       1.765  10.081  91.420  1.00  0.00    -0.268 OA
HETATM   24  N   UNL     1       3.221  11.867  91.686  1.00  0.00    -0.335 N 
HETATM   25  HN  UNL     1       4.184  12.157  91.806  1.00  0.00     0.164 HD
BRANCH  24  26
HETATM   26  C   UNL     1       2.218  12.902  91.708  1.00  0.00     0.169 C 
BRANCH  26  27
HETATM   27  C   UNL     1       2.140  13.622  93.060  1.00  0.00     0.138 C 
HETATM   28  C   UNL     1       3.441  13.529  93.848  1.00  0.00     0.034 C 
BRANCH  27  29
HETATM   29  O   UNL     1       1.823  14.998  92.850  1.00  0.00    -0.383 OA
HETATM   30  H   UNL     1       1.194  15.057  92.111  1.00  0.00     0.210 HD
ENDBRANCH  27  29
ENDBRANCH  26  27
BRANCH  26  31
HETATM   31  C   UNL     1       2.529  13.877  90.578  1.00  0.00     0.194 C 
HETATM   32  O   UNL     1       1.656  14.456  89.934  1.00  0.00    -0.289 OA
BRANCH  31  33
HETATM   33  C   UNL     1       3.879  13.992  90.348  1.00  0.00     0.053 C 
BRANCH  33  34
HETATM   34  C   UNL     1       4.273  13.979  89.003  1.00  0.00     0.220 C 
BRANCH  34  35
HETATM   35  O   UNL     1       5.357  14.586  88.918  1.00  0.00    -0.371 OA
HETATM   36  H   UNL     1       5.833  13.938  88.421  1.00  0.00     0.211 HD
ENDBRANCH  34  35
BRANCH  34  37
HETATM   37  C   UNL     1       4.339  12.688  88.452  1.00  0.00     0.185 C 
HETATM   38  O   UNL     1       5.445  12.609  89.176  1.00  0.00    -0.647 OA
BRANCH  37  39
HETATM   39  O   UNL     1       3.710  12.037  87.673  1.00  0.00    -0.774 OA
HETATM   40  H   UNL     1       4.315  11.797  86.743  1.00  0.00     0.167 HD
ENDBRANCH  37  39
ENDBRANCH  34  37
ENDBRANCH  33  34
ENDBRANCH  31  33
ENDBRANCH  26  31
ENDBRANCH  24  26
ENDBRANCH  19  22
ENDBRANCH  15  16
ENDBRANCH  11  14
ENDBRANCH   7   8
ENDBRANCH   2   7
TORSDOF 14
ENDMDL
