MODEL 1
REMARK VINA RESULT:      -6.3      0.000      0.000
REMARK  10 active torsions:
REMARK  status: ('A' for Active; 'I' for Inactive)
REMARK    1  A    between atoms: O_2  and  C_18 
REMARK    2  A    between atoms: O_5  and  N_8 
REMARK    3  A    between atoms: N_6  and  C_11 
REMARK    4  A    between atoms: N_7  and  C_15 
REMARK       I    between atoms: N_7  and  C_24 
REMARK       I    between atoms: N_8  and  C_23 
REMARK    5  A    between atoms: C_11  and  C_14 
REMARK    6  A    between atoms: C_15  and  C_18 
REMARK    7  A    between atoms: C_15  and  C_23 
REMARK    8  A    between atoms: C_21  and  C_26 
REMARK    9  A    between atoms: C_24  and  C_25 
REMARK   10  A    between atoms: C_29  and  C_32 
ROOT
HETATM    1  O   UNK     0      16.199   4.402  93.502  0.00  0.00    -0.388 OA
HETATM    2  N   UNK     0      14.361   2.397  92.661  0.00  0.00     0.096 N 
HETATM    3  C   UNK     0      14.393   3.723  92.029  0.00  0.00     0.299 C 
HETATM    4  C   UNK     0      14.806   2.494  94.058  0.00  0.00     0.299 C 
HETATM    5  C   UNK     0      15.798   4.312  92.133  0.00  0.00     0.198 C 
HETATM    6  C   UNK     0      16.200   3.112  94.115  0.00  0.00     0.198 C 
ENDROOT
BRANCH   2   7
HETATM    7  C   UNK     0      13.021   1.818  92.582  0.00  0.00     0.311 C 
BRANCH   7   8
HETATM    8  C   UNK     0      11.985   2.830  92.231  0.00  0.00    -0.030 A 
HETATM    9  C   UNK     0      11.595   3.784  93.172  0.00  0.00     0.010 A 
HETATM   10  C   UNK     0      10.624   4.730  92.846  0.00  0.00     0.021 A 
HETATM   11  C   UNK     0      10.045   4.724  91.577  0.00  0.00     0.018 A 
HETATM   12  C   UNK     0      10.434   3.773  90.636  0.00  0.00     0.021 A 
HETATM   13  C   UNK     0      11.404   2.826  90.962  0.00  0.00     0.010 A 
BRANCH  11  14
HETATM   14  C   UNK     0       9.050   5.696  91.241  0.00  0.00    -0.061 C 
HETATM   15  C   UNK     0       8.214   6.513  90.959  0.00  0.00    -0.061 C 
BRANCH  15  16
HETATM   16  C   UNK     0       7.221   7.483  90.623  0.00  0.00     0.018 A 
HETATM   17  C   UNK     0       6.913   7.729  89.284  0.00  0.00     0.022 A 
HETATM   18  C   UNK     0       5.941   8.675  88.955  0.00  0.00     0.018 A 
HETATM   19  C   UNK     0       5.300   9.352  89.971  0.00  0.00     0.032 A 
HETATM   20  C   UNK     0       5.586   9.128  91.301  0.00  0.00     0.018 A 
HETATM   21  C   UNK     0       6.558   8.183  91.631  0.00  0.00     0.022 A 
BRANCH  19  22
HETATM   22  C   UNK     0       4.266  10.361  89.620  0.00  0.00     0.252 C 
HETATM   23  O   UNK     0       3.328  10.032  88.898  0.00  0.00    -0.268 OA
HETATM   24  N   UNK     0       4.436  11.623  90.172  0.00  0.00    -0.341 N 
HETATM   25  H   UNK     0       5.223  11.815  90.781  0.00  0.00     0.163 HD
BRANCH  24  26
HETATM   26  C   UNK     0       3.507  12.700  89.946  0.00  0.00     0.207 C 
BRANCH  26  27
HETATM   27  C   UNK     0       3.188  13.487  91.223  0.00  0.00     0.146 C 
HETATM   28  C   UNK     0       2.649  12.598  92.338  0.00  0.00     0.042 C 
BRANCH  27  29
HETATM   29  O   UNK     0       4.367  14.146  91.685  0.00  0.00    -0.393 OA
HETATM   30  H   UNK     0       5.138  13.649  91.366  0.00  0.00     0.210 HD
ENDBRANCH  27  29
ENDBRANCH  26  27
BRANCH  26  31
HETATM   31  C   UNK     0       4.096  13.606  88.869  0.00  0.00     0.266 C 
HETATM   32  O   UNK     0       4.293  14.807  89.039  0.00  0.00    -0.269 OA
HETATM   33  N   UNK     0       4.338  12.930  87.697  0.00  0.00    -0.236 N 
HETATM   34  H   UNK     0       4.105  11.965  87.495  0.00  0.00     0.197 HD
BRANCH  33  35
HETATM   35  O   UNK     0       4.846  13.700  86.642  0.00  0.00    -0.287 OA
HETATM   36  H   UNK     0       4.725  14.594  87.005  0.00  0.00     0.244 HD
ENDBRANCH  33  35
ENDBRANCH  26  31
ENDBRANCH  24  26
ENDBRANCH  19  22
ENDBRANCH  15  16
ENDBRANCH  11  14
ENDBRANCH   7   8
ENDBRANCH   2   7
TORSDOF 10
ENDMDL
