MODEL 1
REMARK VINA RESULT:      -6.7      0.000      0.000
REMARK  12 active torsions:
REMARK  status: ('A' for Active; 'I' for Inactive)
REMARK    1  A    between atoms: O_2  and  C_16 
REMARK    2  A    between atoms: N_5  and  C_9 
REMARK    3  A    between atoms: N_6  and  C_13 
REMARK       I    between atoms: N_6  and  C_22 
REMARK    4  A    between atoms: C_9  and  C_12 
REMARK    5  A    between atoms: C_13  and  C_16 
REMARK    6  A    between atoms: C_13  and  C_21 
REMARK    7  A    between atoms: C_19  and  C_24 
REMARK    8  A    between atoms: C_21  and  C_33 
REMARK    9  A    between atoms: C_22  and  C_23 
REMARK   10  A    between atoms: C_27  and  C_30 
REMARK   11  A    between atoms: C_33  and  C_34 
REMARK   12  A    between atoms: C_34  and  C_35 
ROOT
HETATM    1  O   UNL     1      17.364   4.794  93.782  1.00  0.00    -0.350 OA
HETATM    2  N   UNL     1      15.311   2.824  93.690  1.00  0.00     0.147 N 
HETATM    3  C   UNL     1      16.706   2.496  93.364  1.00  0.00     0.283 C 
HETATM    4  C   UNL     1      15.039   4.233  93.374  1.00  0.00     0.283 C 
HETATM    5  C   UNL     1      17.647   3.434  94.116  1.00  0.00     0.178 C 
HETATM    6  C   UNL     1      16.019   5.130  94.124  1.00  0.00     0.178 C 
ENDROOT
BRANCH   2   7
HETATM    7  C   UNL     1      14.391   1.944  92.973  1.00  0.00     0.277 C 
BRANCH   7   8
HETATM    8  C   UNL     1      13.273   2.692  92.330  1.00  0.00     0.011 A 
HETATM    9  C   UNL     1      13.460   3.286  91.081  1.00  0.00    -0.002 A 
HETATM   10  C   UNL     1      12.416   3.988  90.480  1.00  0.00     0.008 A 
HETATM   11  C   UNL     1      11.185   4.095  91.127  1.00  0.00     0.042 A 
HETATM   12  C   UNL     1      10.997   3.503  92.374  1.00  0.00     0.008 A 
HETATM   13  C   UNL     1      12.042   2.801  92.976  1.00  0.00    -0.002 A 
BRANCH  11  14
HETATM   14  C   UNL     1      10.113   4.814  90.509  1.00  0.00    -0.059 C 
HETATM   15  C   UNL     1       9.212   5.418  89.990  1.00  0.00    -0.059 C 
BRANCH  15  16
HETATM   16  C   UNL     1       8.141   6.135  89.373  1.00  0.00     0.042 A 
HETATM   17  C   UNL     1       8.191   6.424  88.009  1.00  0.00     0.008 A 
HETATM   18  C   UNL     1       7.144   7.122  87.406  1.00  0.00     0.005 A 
HETATM   19  C   UNL     1       6.072   7.514  88.180  1.00  0.00     0.056 A 
HETATM   20  C   UNL     1       5.999   7.241  89.530  1.00  0.00     0.005 A 
HETATM   21  C   UNL     1       7.045   6.543  90.133  1.00  0.00     0.008 A 
BRANCH  19  22
HETATM   22  C   UNL     1       4.958   8.259  87.538  1.00  0.00     0.254 C 
HETATM   23  O   UNL     1       4.604   7.949  86.403  1.00  0.00    -0.268 OA
HETATM   24  N   UNL     1       4.373   9.258  88.305  1.00  0.00    -0.335 N 
HETATM   25  HN  UNL     1       4.702   9.441  89.245  1.00  0.00     0.164 HD
BRANCH  24  26
HETATM   26  C   UNL     1       3.268  10.052  87.831  1.00  0.00     0.166 C 
BRANCH  26  27
HETATM   27  C   UNL     1       1.906   9.477  88.243  1.00  0.00     0.138 C 
HETATM   28  C   UNL     1       1.549   8.212  87.471  1.00  0.00     0.034 C 
BRANCH  27  29
HETATM   29  O   UNL     1       1.914   9.182  89.639  1.00  0.00    -0.383 OA
HETATM   30  H   UNL     1       1.687   8.244  89.753  1.00  0.00     0.210 HD
ENDBRANCH  27  29
ENDBRANCH  26  27
BRANCH  26  31
HETATM   31  C   UNL     1       3.453  11.471  88.359  1.00  0.00     0.181 C 
HETATM   32  O   UNL     1       2.725  11.966  89.217  1.00  0.00    -0.294 OA
BRANCH  31  33
HETATM   33  C   UNL     1       4.975  11.737  88.849  1.00  0.00     0.138 C 
BRANCH  33  34
HETATM   34  C   UNL     1       5.123  13.109  88.548  1.00  0.00     0.208 C 
HETATM   35  O   UNL     1       4.986  13.418  87.387  1.00  0.00    -0.289 OA
BRANCH  34  36
HETATM   36  C   UNL     1       5.113  14.203  89.369  1.00  0.00     0.194 C 
HETATM   37  O   UNL     1       4.832  15.544  89.085  1.00  0.00    -0.185 OA
ENDBRANCH  34  36
ENDBRANCH  33  34
ENDBRANCH  31  33
ENDBRANCH  26  31
ENDBRANCH  24  26
ENDBRANCH  19  22
ENDBRANCH  15  16
ENDBRANCH  11  14
ENDBRANCH   7   8
ENDBRANCH   2   7
TORSDOF 12
ENDMDL
