MODEL 1
REMARK VINA RESULT:      -6.6      0.000      0.000
REMARK  14 active torsions:
REMARK  status: ('A' for Active; 'I' for Inactive)
REMARK    1  A    between atoms: O_2  and  C_18 
REMARK    2  A    between atoms: C_5  and  C_8 
REMARK    3  A    between atoms: C_5  and  O_35 
REMARK    4  A    between atoms: C_5  and  C_36 
REMARK    5  A    between atoms: N_6  and  C_11 
REMARK    6  A    between atoms: N_7  and  C_15 
REMARK       I    between atoms: N_7  and  C_24 
REMARK    7  A    between atoms: C_8  and  C_23 
REMARK    8  A    between atoms: C_11  and  C_14 
REMARK    9  A    between atoms: C_15  and  C_18 
REMARK   10  A    between atoms: C_15  and  C_23 
REMARK   11  A    between atoms: C_21  and  C_26 
REMARK   12  A    between atoms: C_24  and  C_25 
REMARK   13  A    between atoms: C_29  and  C_32 
REMARK   14  A    between atoms: C_36  and  O_39 
ROOT
HETATM    1  O   UNL     1      16.571   3.241  93.643  1.00  0.00    -0.350 OA
HETATM    2  N   UNL     1      13.885   2.829  92.798  1.00  0.00     0.147 N 
HETATM    3  C   UNL     1      14.779   1.701  93.092  1.00  0.00     0.283 C 
HETATM    4  C   UNL     1      14.667   3.985  92.338  1.00  0.00     0.283 C 
HETATM    5  C   UNL     1      15.823   2.123  94.123  1.00  0.00     0.178 C 
HETATM    6  C   UNL     1      15.713   4.353  93.385  1.00  0.00     0.178 C 
ENDROOT
BRANCH   2   7
HETATM    7  C   UNL     1      12.882   2.450  91.804  1.00  0.00     0.277 C 
BRANCH   7   8
HETATM    8  C   UNL     1      11.745   3.413  91.749  1.00  0.00     0.011 A 
HETATM    9  C   UNL     1      11.066   3.621  90.547  1.00  0.00    -0.002 A 
HETATM   10  C   UNL     1      10.004   4.523  90.494  1.00  0.00     0.008 A 
HETATM   11  C   UNL     1       9.619   5.214  91.642  1.00  0.00     0.042 A 
HETATM   12  C   UNL     1      10.296   5.007  92.842  1.00  0.00     0.008 A 
HETATM   13  C   UNL     1      11.359   4.106  92.896  1.00  0.00    -0.002 A 
BRANCH  11  14
HETATM   14  C   UNL     1       8.528   6.138  91.588  1.00  0.00    -0.059 C 
HETATM   15  C   UNL     1       7.610   6.913  91.542  1.00  0.00    -0.059 C 
BRANCH  15  16
HETATM   16  C   UNL     1       6.519   7.836  91.489  1.00  0.00     0.042 A 
HETATM   17  C   UNL     1       5.303   7.444  90.927  1.00  0.00     0.008 A 
HETATM   18  C   UNL     1       4.238   8.344  90.878  1.00  0.00     0.005 A 
HETATM   19  C   UNL     1       4.412   9.612  91.390  1.00  0.00     0.056 A 
HETATM   20  C   UNL     1       5.604  10.023  91.950  1.00  0.00     0.005 A 
HETATM   21  C   UNL     1       6.670   9.124  92.000  1.00  0.00     0.008 A 
BRANCH  19  22
HETATM   22  C   UNL     1       3.278  10.570  91.336  1.00  0.00     0.254 C 
HETATM   23  O   UNL     1       2.151  10.152  91.082  1.00  0.00    -0.268 OA
HETATM   24  N   UNL     1       3.588  11.896  91.606  1.00  0.00    -0.335 N 
HETATM   25  HN  UNL     1       4.538  12.164  91.832  1.00  0.00     0.164 HD
BRANCH  24  26
HETATM   26  C   UNL     1       2.594  12.939  91.616  1.00  0.00     0.169 C 
BRANCH  26  27
HETATM   27  C   UNL     1       2.584  13.738  92.925  1.00  0.00     0.138 C 
HETATM   28  C   UNL     1       3.970  13.851  93.550  1.00  0.00     0.034 C 
BRANCH  27  29
HETATM   29  O   UNL     1       2.078  15.050  92.679  1.00  0.00    -0.383 OA
HETATM   30  H   UNL     1       2.224  15.262  91.742  1.00  0.00     0.210 HD
ENDBRANCH  27  29
ENDBRANCH  26  27
BRANCH  26  31
HETATM   31  C   UNL     1       2.856  13.843  90.416  1.00  0.00     0.194 C 
HETATM   32  O   UNL     1       1.961  14.437  89.816  1.00  0.00    -0.289 OA
BRANCH  31  33
HETATM   33  C   UNL     1       4.186  13.878  90.073  1.00  0.00     0.053 C 
BRANCH  33  34
HETATM   34  C   UNL     1       4.473  13.664  88.717  1.00  0.00     0.220 C 
BRANCH  34  35
HETATM   35  O   UNL     1       5.644  14.036  88.513  1.00  0.00    -0.371 OA
HETATM   36  H   UNL     1       6.044  13.633  89.268  1.00  0.00     0.211 HD
ENDBRANCH  34  35
BRANCH  34  37
HETATM   37  C   UNL     1       4.252  12.340  88.300  1.00  0.00     0.185 C 
HETATM   38  O   UNL     1       5.454  12.146  88.820  1.00  0.00    -0.647 OA
BRANCH  37  39
HETATM   39  O   UNL     1       3.401  11.738  87.719  1.00  0.00    -0.774 OA
HETATM   40  H   UNL     1       3.383  11.999  86.615  1.00  0.00     0.167 HD
ENDBRANCH  37  39
ENDBRANCH  34  37
ENDBRANCH  33  34
ENDBRANCH  31  33
ENDBRANCH  26  31
ENDBRANCH  24  26
ENDBRANCH  19  22
ENDBRANCH  15  16
ENDBRANCH  11  14
ENDBRANCH   7   8
ENDBRANCH   2   7
TORSDOF 14
ENDMDL
MODEL 2
REMARK VINA RESULT:      -5.0      2.624     12.953
REMARK  14 active torsions:
REMARK  status: ('A' for Active; 'I' for Inactive)
REMARK    1  A    between atoms: O_2  and  C_18 
REMARK    2  A    between atoms: C_5  and  C_8 
REMARK    3  A    between atoms: C_5  and  O_35 
REMARK    4  A    between atoms: C_5  and  C_36 
REMARK    5  A    between atoms: N_6  and  C_11 
REMARK    6  A    between atoms: N_7  and  C_15 
REMARK       I    between atoms: N_7  and  C_24 
REMARK    7  A    between atoms: C_8  and  C_23 
REMARK    8  A    between atoms: C_11  and  C_14 
REMARK    9  A    between atoms: C_15  and  C_18 
REMARK   10  A    between atoms: C_15  and  C_23 
REMARK   11  A    between atoms: C_21  and  C_26 
REMARK   12  A    between atoms: C_24  and  C_25 
REMARK   13  A    between atoms: C_29  and  C_32 
REMARK   14  A    between atoms: C_36  and  O_39 
ROOT
HETATM    1  O   UNL     1       2.968  14.569  93.875  1.00  0.00    -0.350 OA
HETATM    2  N   UNL     1       2.814  14.506  91.034  1.00  0.00     0.147 N 
HETATM    3  C   UNL     1       1.789  13.870  91.873  1.00  0.00     0.283 C 
HETATM    4  C   UNL     1       4.106  14.510  91.734  1.00  0.00     0.283 C 
HETATM    5  C   UNL     1       1.701  14.590  93.216  1.00  0.00     0.178 C 
HETATM    6  C   UNL     1       3.964  15.213  93.080  1.00  0.00     0.178 C 
ENDROOT
BRANCH   2   7
HETATM    7  C   UNL     1       2.923  13.826  89.745  1.00  0.00     0.277 C 
BRANCH   7   8
HETATM    8  C   UNL     1       3.871  12.676  89.788  1.00  0.00     0.011 A 
HETATM    9  C   UNL     1       3.478  11.471  90.374  1.00  0.00    -0.002 A 
HETATM   10  C   UNL     1       4.365  10.395  90.417  1.00  0.00     0.008 A 
HETATM   11  C   UNL     1       5.642  10.524  89.872  1.00  0.00     0.042 A 
HETATM   12  C   UNL     1       6.035  11.725  89.287  1.00  0.00     0.008 A 
HETATM   13  C   UNL     1       5.149  12.802  89.244  1.00  0.00    -0.002 A 
BRANCH  11  14
HETATM   14  C   UNL     1       6.551   9.419  89.914  1.00  0.00    -0.059 C 
HETATM   15  C   UNL     1       7.314   8.490  89.950  1.00  0.00    -0.059 C 
BRANCH  15  16
HETATM   16  C   UNL     1       8.221   7.386  89.991  1.00  0.00     0.042 A 
HETATM   17  C   UNL     1       9.466   7.485  89.370  1.00  0.00     0.008 A 
HETATM   18  C   UNL     1      10.353   6.409  89.413  1.00  0.00     0.005 A 
HETATM   19  C   UNL     1       9.975   5.260  90.075  1.00  0.00     0.056 A 
HETATM   20  C   UNL     1       8.750   5.137  90.697  1.00  0.00     0.005 A 
HETATM   21  C   UNL     1       7.863   6.213  90.654  1.00  0.00     0.008 A 
BRANCH  19  22
HETATM   22  C   UNL     1      10.919   4.113  90.119  1.00  0.00     0.254 C 
HETATM   23  O   UNL     1      10.706   3.134  89.408  1.00  0.00    -0.268 OA
HETATM   24  N   UNL     1      12.009   4.255  90.966  1.00  0.00    -0.335 N 
HETATM   25  HN  UNL     1      12.133   5.104  91.505  1.00  0.00     0.164 HD
BRANCH  24  26
HETATM   26  C   UNL     1      13.024   3.241  91.100  1.00  0.00     0.169 C 
BRANCH  26  27
HETATM   27  C   UNL     1      14.440   3.784  90.870  1.00  0.00     0.138 C 
HETATM   28  C   UNL     1      15.238   2.935  89.887  1.00  0.00     0.034 C 
BRANCH  27  29
HETATM   29  O   UNL     1      14.363   5.120  90.372  1.00  0.00    -0.383 OA
HETATM   30  H   UNL     1      13.897   5.664  91.029  1.00  0.00     0.210 HD
ENDBRANCH  27  29
ENDBRANCH  26  27
BRANCH  26  31
HETATM   31  C   UNL     1      12.886   2.624  92.488  1.00  0.00     0.194 C 
HETATM   32  O   UNL     1      12.144   1.674  92.728  1.00  0.00    -0.289 OA
BRANCH  31  33
HETATM   33  C   UNL     1      13.651   3.277  93.425  1.00  0.00     0.053 C 
BRANCH  33  34
HETATM   34  C   UNL     1      14.671   2.518  94.016  1.00  0.00     0.220 C 
BRANCH  34  35
HETATM   35  O   UNL     1      14.677   1.398  93.470  1.00  0.00    -0.371 OA
HETATM   36  H   UNL     1      14.334   1.659  92.629  1.00  0.00     0.211 HD
ENDBRANCH  34  35
BRANCH  34  37
HETATM   37  C   UNL     1      15.930   3.140  93.971  1.00  0.00     0.185 C 
HETATM   38  O   UNL     1      15.213   4.243  94.124  1.00  0.00    -0.647 OA
BRANCH  37  39
HETATM   39  O   UNL     1      17.066   2.805  93.818  1.00  0.00    -0.774 OA
HETATM   40  H   UNL     1      17.320   1.891  94.441  1.00  0.00     0.167 HD
ENDBRANCH  37  39
ENDBRANCH  34  37
ENDBRANCH  33  34
ENDBRANCH  31  33
ENDBRANCH  26  31
ENDBRANCH  24  26
ENDBRANCH  19  22
ENDBRANCH  15  16
ENDBRANCH  11  14
ENDBRANCH   7   8
ENDBRANCH   2   7
TORSDOF 14
ENDMDL
MODEL 3
REMARK VINA RESULT:      -4.6      2.898     12.409
REMARK  14 active torsions:
REMARK  status: ('A' for Active; 'I' for Inactive)
REMARK    1  A    between atoms: O_2  and  C_18 
REMARK    2  A    between atoms: C_5  and  C_8 
REMARK    3  A    between atoms: C_5  and  O_35 
REMARK    4  A    between atoms: C_5  and  C_36 
REMARK    5  A    between atoms: N_6  and  C_11 
REMARK    6  A    between atoms: N_7  and  C_15 
REMARK       I    between atoms: N_7  and  C_24 
REMARK    7  A    between atoms: C_8  and  C_23 
REMARK    8  A    between atoms: C_11  and  C_14 
REMARK    9  A    between atoms: C_15  and  C_18 
REMARK   10  A    between atoms: C_15  and  C_23 
REMARK   11  A    between atoms: C_21  and  C_26 
REMARK   12  A    between atoms: C_24  and  C_25 
REMARK   13  A    between atoms: C_29  and  C_32 
REMARK   14  A    between atoms: C_36  and  O_39 
ROOT
HETATM    1  O   UNL     1       3.123  14.815  94.119  1.00  0.00    -0.350 OA
HETATM    2  N   UNL     1       2.702  14.788  91.304  1.00  0.00     0.147 N 
HETATM    3  C   UNL     1       1.774  14.118  92.225  1.00  0.00     0.283 C 
HETATM    4  C   UNL     1       4.054  14.810  91.878  1.00  0.00     0.283 C 
HETATM    5  C   UNL     1       1.799  14.817  93.582  1.00  0.00     0.178 C 
HETATM    6  C   UNL     1       4.026  15.492  93.243  1.00  0.00     0.178 C 
ENDROOT
BRANCH   2   7
HETATM    7  C   UNL     1       2.702  14.128  89.999  1.00  0.00     0.277 C 
BRANCH   7   8
HETATM    8  C   UNL     1       3.689  13.013  89.927  1.00  0.00     0.011 A 
HETATM    9  C   UNL     1       3.382  11.774  90.491  1.00  0.00    -0.002 A 
HETATM   10  C   UNL     1       4.306  10.731  90.426  1.00  0.00     0.008 A 
HETATM   11  C   UNL     1       5.534  10.926  89.796  1.00  0.00     0.042 A 
HETATM   12  C   UNL     1       5.841  12.163  89.233  1.00  0.00     0.008 A 
HETATM   13  C   UNL     1       4.919  13.207  89.298  1.00  0.00    -0.002 A 
BRANCH  11  14
HETATM   14  C   UNL     1       6.481   9.855  89.728  1.00  0.00    -0.059 C 
HETATM   15  C   UNL     1       7.275   8.955  89.671  1.00  0.00    -0.059 C 
BRANCH  15  16
HETATM   16  C   UNL     1       8.220   7.884  89.602  1.00  0.00     0.042 A 
HETATM   17  C   UNL     1       9.539   8.142  89.225  1.00  0.00     0.008 A 
HETATM   18  C   UNL     1      10.461   7.098  89.161  1.00  0.00     0.005 A 
HETATM   19  C   UNL     1      10.045   5.821  89.475  1.00  0.00     0.056 A 
HETATM   20  C   UNL     1       8.748   5.540  89.850  1.00  0.00     0.005 A 
HETATM   21  C   UNL     1       7.825   6.584  89.915  1.00  0.00     0.008 A 
BRANCH  19  22
HETATM   22  C   UNL     1      11.028   4.708  89.405  1.00  0.00     0.254 C 
HETATM   23  O   UNL     1      11.102   4.038  88.378  1.00  0.00    -0.268 OA
HETATM   24  N   UNL     1      11.822   4.527  90.528  1.00  0.00    -0.335 N 
HETATM   25  HN  UNL     1      11.722   5.136  91.332  1.00  0.00     0.164 HD
BRANCH  24  26
HETATM   26  C   UNL     1      12.837   3.507  90.604  1.00  0.00     0.169 C 
BRANCH  26  27
HETATM   27  C   UNL     1      14.251   4.085  90.741  1.00  0.00     0.138 C 
HETATM   28  C   UNL     1      14.626   4.375  92.190  1.00  0.00     0.034 C 
BRANCH  27  29
HETATM   29  O   UNL     1      15.197   3.168  90.192  1.00  0.00    -0.383 OA
HETATM   30  H   UNL     1      14.742   2.326  90.021  1.00  0.00     0.210 HD
ENDBRANCH  27  29
ENDBRANCH  26  27
BRANCH  26  31
HETATM   31  C   UNL     1      12.495   2.595  91.778  1.00  0.00     0.194 C 
HETATM   32  O   UNL     1      13.268   1.743  92.211  1.00  0.00    -0.289 OA
BRANCH  31  33
HETATM   33  C   UNL     1      11.225   2.816  92.254  1.00  0.00     0.053 C 
BRANCH  33  34
HETATM   34  C   UNL     1      11.143   3.427  93.513  1.00  0.00     0.220 C 
BRANCH  34  35
HETATM   35  O   UNL     1      12.230   3.247  94.094  1.00  0.00    -0.371 OA
HETATM   36  H   UNL     1      11.900   3.185  94.977  1.00  0.00     0.211 HD
ENDBRANCH  34  35
BRANCH  34  37
HETATM   37  C   UNL     1      10.787   4.785  93.455  1.00  0.00     0.185 C 
HETATM   38  O   UNL     1      11.918   4.946  94.124  1.00  0.00    -0.647 OA
BRANCH  37  39
HETATM   39  O   UNL     1       9.874   5.432  93.038  1.00  0.00    -0.774 OA
HETATM   40  H   UNL     1       9.662   6.331  93.697  1.00  0.00     0.167 HD
ENDBRANCH  37  39
ENDBRANCH  34  37
ENDBRANCH  33  34
ENDBRANCH  31  33
ENDBRANCH  26  31
ENDBRANCH  24  26
ENDBRANCH  19  22
ENDBRANCH  15  16
ENDBRANCH  11  14
ENDBRANCH   7   8
ENDBRANCH   2   7
TORSDOF 14
ENDMDL
MODEL 4
REMARK VINA RESULT:      -4.3      1.499      1.936
REMARK  14 active torsions:
REMARK  status: ('A' for Active; 'I' for Inactive)
REMARK    1  A    between atoms: O_2  and  C_18 
REMARK    2  A    between atoms: C_5  and  C_8 
REMARK    3  A    between atoms: C_5  and  O_35 
REMARK    4  A    between atoms: C_5  and  C_36 
REMARK    5  A    between atoms: N_6  and  C_11 
REMARK    6  A    between atoms: N_7  and  C_15 
REMARK       I    between atoms: N_7  and  C_24 
REMARK    7  A    between atoms: C_8  and  C_23 
REMARK    8  A    between atoms: C_11  and  C_14 
REMARK    9  A    between atoms: C_15  and  C_18 
REMARK   10  A    between atoms: C_15  and  C_23 
REMARK   11  A    between atoms: C_21  and  C_26 
REMARK   12  A    between atoms: C_24  and  C_25 
REMARK   13  A    between atoms: C_29  and  C_32 
REMARK   14  A    between atoms: C_36  and  O_39 
ROOT
HETATM    1  O   UNL     1      15.615   4.374  92.067  1.00  0.00    -0.350 OA
HETATM    2  N   UNL     1      13.420   2.597  92.429  1.00  0.00     0.147 N 
HETATM    3  C   UNL     1      13.296   3.816  91.617  1.00  0.00     0.283 C 
HETATM    4  C   UNL     1      14.433   2.791  93.475  1.00  0.00     0.283 C 
HETATM    5  C   UNL     1      14.654   4.184  91.026  1.00  0.00     0.178 C 
HETATM    6  C   UNL     1      15.764   3.183  92.842  1.00  0.00     0.178 C 
ENDROOT
BRANCH   2   7
HETATM    7  C   UNL     1      12.131   2.232  93.014  1.00  0.00     0.277 C 
BRANCH   7   8
HETATM    8  C   UNL     1      11.156   3.360  92.991  1.00  0.00     0.011 A 
HETATM    9  C   UNL     1      10.175   3.412  92.001  1.00  0.00    -0.002 A 
HETATM   10  C   UNL     1       9.264   4.467  91.977  1.00  0.00     0.008 A 
HETATM   11  C   UNL     1       9.334   5.469  92.944  1.00  0.00     0.042 A 
HETATM   12  C   UNL     1      10.313   5.418  93.934  1.00  0.00     0.008 A 
HETATM   13  C   UNL     1      11.225   4.363  93.958  1.00  0.00    -0.002 A 
BRANCH  11  14
HETATM   14  C   UNL     1       8.397   6.551  92.921  1.00  0.00    -0.059 C 
HETATM   15  C   UNL     1       7.611   7.461  92.901  1.00  0.00    -0.059 C 
BRANCH  15  16
HETATM   16  C   UNL     1       6.676   8.542  92.877  1.00  0.00     0.042 A 
HETATM   17  C   UNL     1       5.439   8.379  92.254  1.00  0.00     0.008 A 
HETATM   18  C   UNL     1       4.526   9.433  92.233  1.00  0.00     0.005 A 
HETATM   19  C   UNL     1       4.870  10.625  92.835  1.00  0.00     0.056 A 
HETATM   20  C   UNL     1       6.087  10.812  93.457  1.00  0.00     0.005 A 
HETATM   21  C   UNL     1       7.001   9.758  93.479  1.00  0.00     0.008 A 
BRANCH  19  22
HETATM   22  C   UNL     1       3.898  11.749  92.811  1.00  0.00     0.254 C 
HETATM   23  O   UNL     1       2.834  11.635  93.416  1.00  0.00    -0.268 OA
HETATM   24  N   UNL     1       4.291  12.878  92.106  1.00  0.00    -0.335 N 
HETATM   25  HN  UNL     1       5.196  12.909  91.651  1.00  0.00     0.164 HD
BRANCH  24  26
HETATM   26  C   UNL     1       3.469  14.057  92.010  1.00  0.00     0.169 C 
BRANCH  26  27
HETATM   27  C   UNL     1       3.857  15.135  93.030  1.00  0.00     0.138 C 
HETATM   28  C   UNL     1       2.665  15.624  93.845  1.00  0.00     0.034 C 
BRANCH  27  29
HETATM   29  O   UNL     1       4.845  14.617  93.920  1.00  0.00    -0.383 OA
HETATM   30  H   UNL     1       4.890  13.654  93.799  1.00  0.00     0.210 HD
ENDBRANCH  27  29
ENDBRANCH  26  27
BRANCH  26  31
HETATM   31  C   UNL     1       3.572  14.582  90.582  1.00  0.00     0.194 C 
HETATM   32  O   UNL     1       4.175  15.614  90.290  1.00  0.00    -0.289 OA
BRANCH  31  33
HETATM   33  C   UNL     1       2.887  13.795  89.689  1.00  0.00     0.053 C 
BRANCH  33  34
HETATM   34  C   UNL     1       3.577  12.671  89.212  1.00  0.00     0.220 C 
BRANCH  34  35
HETATM   35  O   UNL     1       2.807  12.042  88.462  1.00  0.00    -0.371 OA
HETATM   36  H   UNL     1       2.478  12.776  87.965  1.00  0.00     0.211 HD
ENDBRANCH  34  35
BRANCH  34  37
HETATM   37  C   UNL     1       4.795  12.986  88.585  1.00  0.00     0.185 C 
HETATM   38  O   UNL     1       5.269  12.050  89.393  1.00  0.00    -0.647 OA
BRANCH  37  39
HETATM   39  O   UNL     1       5.180  13.762  87.764  1.00  0.00    -0.774 OA
HETATM   40  H   UNL     1       6.134  14.281  88.092  1.00  0.00     0.167 HD
ENDBRANCH  37  39
ENDBRANCH  34  37
ENDBRANCH  33  34
ENDBRANCH  31  33
ENDBRANCH  26  31
ENDBRANCH  24  26
ENDBRANCH  19  22
ENDBRANCH  15  16
ENDBRANCH  11  14
ENDBRANCH   7   8
ENDBRANCH   2   7
TORSDOF 14
ENDMDL
