MODEL 1
REMARK VINA RESULT:      -7.5      0.000      0.000
REMARK  9 active torsions:
REMARK  status: ('A' for Active; 'I' for Inactive)
REMARK    1  A    between atoms: N_3  and  C_6 
REMARK    2  A    between atoms: C_6  and  C_9 
REMARK    3  A    between atoms: C_14  and  C_17 
REMARK       I    between atoms: N_26  and  C_15 
REMARK    4  A    between atoms: C_15  and  C_16 
REMARK    5  A    between atoms: C_20  and  C_23 
REMARK    6  A    between atoms: OG1_24  and  CB_28 
REMARK    7  A    between atoms: N_26  and  CA_27 
REMARK    8  A    between atoms: CA_27  and  CB_28 
REMARK    9  A    between atoms: CA_27  and  C_30 
ROOT
HETATM    1  O   UNK A   0       1.917   8.024  87.805  1.00  0.00    -0.388 OA
HETATM    2  N   UNK A   0       4.714   7.516  87.663  1.00  0.00     0.096 N 
HETATM    3  C   UNK A   0       4.187   8.884  87.769  1.00  0.00     0.299 C 
HETATM    4  C   UNK A   0       3.740   6.652  86.982  1.00  0.00     0.299 C 
HETATM    5  C   UNK A   0       2.844   8.865  88.495  1.00  0.00     0.198 C 
HETATM    6  C   UNK A   0       2.409   6.686  87.726  1.00  0.00     0.198 C 
ENDROOT
BRANCH   2   7
HETATM    7  C   UNK A   0       5.996   7.509  86.961  1.00  0.00     0.311 C 
BRANCH   7   8
HETATM    8  C   UNK A   0       7.090   6.914  87.781  1.00  0.00    -0.030 A 
HETATM    9  C   UNK A   0       8.331   6.649  87.200  1.00  0.00     0.010 A 
HETATM   10  C   UNK A   0       9.354   6.090  87.966  1.00  0.00     0.021 A 
HETATM   11  C   UNK A   0       9.137   5.800  89.312  1.00  0.00     0.018 A 
HETATM   12  C   UNK A   0       7.899   6.066  89.893  1.00  0.00     0.021 A 
HETATM   13  C   UNK A   0       6.875   6.623  89.128  1.00  0.00     0.010 A 
BRANCH  11  14
HETATM   14  C   UNK A   0      10.187   5.229  90.098  1.00  0.00    -0.061 C 
HETATM   15  C   UNK A   0      11.071   4.750  90.758  1.00  0.00    -0.061 C 
BRANCH  15  16
HETATM   16  C   UNK A   0      12.121   4.181  91.544  1.00  0.00     0.018 A 
HETATM   17  C   UNK A   0      11.879   3.813  92.868  1.00  0.00     0.022 A 
HETATM   18  C   UNK A   0      12.903   3.255  93.633  1.00  0.00     0.018 A 
HETATM   19  C   UNK A   0      14.144   3.077  93.058  1.00  0.00     0.032 A 
HETATM   20  C   UNK A   0      14.408   3.433  91.753  1.00  0.00     0.018 A 
HETATM   21  C   UNK A   0      13.385   3.991  90.986  1.00  0.00     0.022 A 
BRANCH  19  22
HETATM   22  C   UNK A   0      15.235   2.484  93.875  1.00  0.00     0.252 C 
HETATM   23  O   UNK A   0      16.401   2.760  93.608  1.00  0.00    -0.268 OA
ENDBRANCH  19  22
ENDBRANCH  15  16
ENDBRANCH  11  14
ENDBRANCH   7   8
ENDBRANCH   2   7
TORSDOF 9
ENDMDL
