MODEL 1
REMARK VINA RESULT:      -7.1      0.000      0.000
REMARK  10 active torsions:
REMARK  status: ('A' for Active; 'I' for Inactive)
REMARK    1  A    between atoms: O_2  and  C_18 
REMARK    2  A    between atoms: O_5  and  N_8 
REMARK    3  A    between atoms: N_6  and  C_11 
REMARK    4  A    between atoms: N_7  and  C_15 
REMARK       I    between atoms: N_7  and  C_24 
REMARK       I    between atoms: N_8  and  C_23 
REMARK    5  A    between atoms: C_11  and  C_14 
REMARK    6  A    between atoms: C_15  and  C_18 
REMARK    7  A    between atoms: C_15  and  C_23 
REMARK    8  A    between atoms: C_21  and  C_26 
REMARK    9  A    between atoms: C_24  and  C_25 
REMARK   10  A    between atoms: C_29  and  C_32 
ROOT
HETATM    1  O   UNK     0      16.534   4.231  94.122  0.00  0.00    -0.388 OA
HETATM    2  N   UNK     0      14.713   2.572  92.696  0.00  0.00     0.096 N 
HETATM    3  C   UNK     0      14.585   4.036  92.690  0.00  0.00     0.299 C 
HETATM    4  C   UNK     0      15.338   2.127  93.949  0.00  0.00     0.299 C 
HETATM    5  C   UNK     0      15.956   4.676  92.894  0.00  0.00     0.198 C 
HETATM    6  C   UNK     0      16.690   2.811  94.124  0.00  0.00     0.198 C 
ENDROOT
BRANCH   2   7
HETATM    7  C   UNK     0      13.408   1.938  92.513  0.00  0.00     0.311 C 
BRANCH   7   8
HETATM    8  C   UNK     0      12.348   2.917  92.138  0.00  0.00    -0.030 A 
HETATM    9  C   UNK     0      11.739   3.695  93.124  0.00  0.00     0.010 A 
HETATM   10  C   UNK     0      10.745   4.610  92.775  0.00  0.00     0.021 A 
HETATM   11  C   UNK     0      10.364   4.748  91.440  0.00  0.00     0.018 A 
HETATM   12  C   UNK     0      10.972   3.972  90.456  0.00  0.00     0.021 A 
HETATM   13  C   UNK     0      11.965   3.057  90.804  0.00  0.00     0.010 A 
BRANCH  11  14
HETATM   14  C   UNK     0       9.346   5.688  91.082  0.00  0.00    -0.061 C 
HETATM   15  C   UNK     0       8.491   6.478  90.782  0.00  0.00    -0.061 C 
BRANCH  15  16
HETATM   16  C   UNK     0       7.474   7.416  90.424  0.00  0.00     0.018 A 
HETATM   17  C   UNK     0       6.820   7.300  89.197  0.00  0.00     0.022 A 
HETATM   18  C   UNK     0       5.826   8.214  88.848  0.00  0.00     0.018 A 
HETATM   19  C   UNK     0       5.507   9.222  89.734  0.00  0.00     0.032 A 
HETATM   20  C   UNK     0       6.139   9.359  90.952  0.00  0.00     0.018 A 
HETATM   21  C   UNK     0       7.134   8.446  91.301  0.00  0.00     0.022 A 
BRANCH  19  22
HETATM   22  C   UNK     0       4.449  10.197  89.361  0.00  0.00     0.252 C 
HETATM   23  O   UNK     0       3.645   9.901  88.481  0.00  0.00    -0.268 OA
HETATM   24  N   UNK     0       4.440  11.387  90.075  0.00  0.00    -0.341 N 
HETATM   25  H   UNK     0       5.121  11.551  90.807  0.00  0.00     0.163 HD
BRANCH  24  26
HETATM   26  C   UNK     0       3.462  12.420  89.847  0.00  0.00     0.207 C 
BRANCH  26  27
HETATM   27  C   UNK     0       3.007  13.103  91.143  0.00  0.00     0.146 C 
HETATM   28  C   UNK     0       2.140  12.194  92.008  0.00  0.00     0.042 C 
BRANCH  27  29
HETATM   29  O   UNK     0       4.149  13.508  91.897  0.00  0.00    -0.393 OA
HETATM   30  H   UNK     0       3.843  14.030  92.657  0.00  0.00     0.210 HD
ENDBRANCH  27  29
ENDBRANCH  26  27
BRANCH  26  31
HETATM   31  C   UNK     0       4.067  13.427  88.874  0.00  0.00     0.266 C 
HETATM   32  O   UNK     0       4.272  14.603  89.168  0.00  0.00    -0.269 OA
HETATM   33  N   UNK     0       4.311  12.874  87.640  0.00  0.00    -0.236 N 
HETATM   34  H   UNK     0       4.073  11.936  87.338  0.00  0.00     0.197 HD
BRANCH  33  35
HETATM   35  O   UNK     0       4.833  13.745  86.673  0.00  0.00    -0.287 OA
HETATM   36  H   UNK     0       5.494  13.166  86.256  0.00  0.00     0.244 HD
ENDBRANCH  33  35
ENDBRANCH  26  31
ENDBRANCH  24  26
ENDBRANCH  19  22
ENDBRANCH  15  16
ENDBRANCH  11  14
ENDBRANCH   7   8
ENDBRANCH   2   7
TORSDOF 10
ENDMDL
