MODEL 1
REMARK VINA RESULT:      -6.6      0.000      0.000
REMARK  14 active torsions:
REMARK  status: ('A' for Active; 'I' for Inactive)
REMARK    1  A    between atoms: O_2  and  C_18 
REMARK    2  A    between atoms: C_5  and  C_8 
REMARK    3  A    between atoms: C_5  and  O_35 
REMARK    4  A    between atoms: C_5  and  C_36 
REMARK    5  A    between atoms: N_6  and  C_11 
REMARK    6  A    between atoms: N_7  and  C_15 
REMARK       I    between atoms: N_7  and  C_24 
REMARK    7  A    between atoms: C_8  and  C_23 
REMARK    8  A    between atoms: C_11  and  C_14 
REMARK    9  A    between atoms: C_15  and  C_18 
REMARK   10  A    between atoms: C_15  and  C_23 
REMARK   11  A    between atoms: C_21  and  C_26 
REMARK   12  A    between atoms: C_24  and  C_25 
REMARK   13  A    between atoms: C_29  and  C_32 
REMARK   14  A    between atoms: C_36  and  O_39 
ROOT
HETATM    1  O   UNL     1      16.841   3.678  93.818  1.00  0.00    -0.350 OA
HETATM    2  N   UNL     1      14.241   3.091  92.821  1.00  0.00     0.147 N 
HETATM    3  C   UNL     1      15.248   2.037  93.007  1.00  0.00     0.283 C 
HETATM    4  C   UNL     1      14.901   4.374  92.539  1.00  0.00     0.283 C 
HETATM    5  C   UNL     1      16.210   2.434  94.124  1.00  0.00     0.178 C 
HETATM    6  C   UNL     1      15.871   4.715  93.665  1.00  0.00     0.178 C 
ENDROOT
BRANCH   2   7
HETATM    7  C   UNL     1      13.313   2.737  91.748  1.00  0.00     0.277 C 
BRANCH   7   8
HETATM    8  C   UNL     1      12.173   3.691  91.645  1.00  0.00     0.011 A 
HETATM    9  C   UNL     1      11.485   4.082  92.795  1.00  0.00    -0.002 A 
HETATM   10  C   UNL     1      10.416   4.973  92.699  1.00  0.00     0.008 A 
HETATM   11  C   UNL     1      10.037   5.475  91.455  1.00  0.00     0.042 A 
HETATM   12  C   UNL     1      10.723   5.086  90.306  1.00  0.00     0.008 A 
HETATM   13  C   UNL     1      11.791   4.194  90.401  1.00  0.00    -0.002 A 
BRANCH  11  14
HETATM   14  C   UNL     1       8.942   6.390  91.358  1.00  0.00    -0.059 C 
HETATM   15  C   UNL     1       8.022   7.159  91.275  1.00  0.00    -0.059 C 
BRANCH  15  16
HETATM   16  C   UNL     1       6.927   8.074  91.178  1.00  0.00     0.042 A 
HETATM   17  C   UNL     1       6.494   8.765  92.310  1.00  0.00     0.008 A 
HETATM   18  C   UNL     1       5.428   9.659  92.215  1.00  0.00     0.005 A 
HETATM   19  C   UNL     1       4.819   9.842  90.991  1.00  0.00     0.056 A 
HETATM   20  C   UNL     1       5.228   9.171  89.857  1.00  0.00     0.005 A 
HETATM   21  C   UNL     1       6.294   8.277  89.952  1.00  0.00     0.008 A 
BRANCH  19  22
HETATM   22  C   UNL     1       3.682  10.793  90.890  1.00  0.00     0.254 C 
HETATM   23  O   UNL     1       2.719  10.504  90.185  1.00  0.00    -0.268 OA
HETATM   24  N   UNL     1       3.792  11.955  91.642  1.00  0.00    -0.335 N 
HETATM   25  HN  UNL     1       4.608  12.115  92.222  1.00  0.00     0.164 HD
BRANCH  24  26
HETATM   26  C   UNL     1       2.762  12.962  91.668  1.00  0.00     0.169 C 
BRANCH  26  27
HETATM   27  C   UNL     1       2.307  13.308  93.091  1.00  0.00     0.138 C 
HETATM   28  C   UNL     1       1.387  12.247  93.685  1.00  0.00     0.034 C 
BRANCH  27  29
HETATM   29  O   UNL     1       3.449  13.456  93.935  1.00  0.00    -0.383 OA
HETATM   30  H   UNL     1       4.079  14.050  93.494  1.00  0.00     0.210 HD
ENDBRANCH  27  29
ENDBRANCH  26  27
BRANCH  26  31
HETATM   31  C   UNL     1       3.296  14.193  90.942  1.00  0.00     0.194 C 
HETATM   32  O   UNL     1       3.647  15.216  91.527  1.00  0.00    -0.289 OA
BRANCH  31  33
HETATM   33  C   UNL     1       3.297  14.031  89.578  1.00  0.00     0.053 C 
BRANCH  33  34
HETATM   34  C   UNL     1       4.558  14.025  88.965  1.00  0.00     0.220 C 
BRANCH  34  35
HETATM   35  O   UNL     1       5.418  14.102  89.863  1.00  0.00    -0.371 OA
HETATM   36  H   UNL     1       4.832  14.155  90.603  1.00  0.00     0.211 HD
ENDBRANCH  34  35
BRANCH  34  37
HETATM   37  C   UNL     1       4.766  12.921  88.121  1.00  0.00     0.185 C 
HETATM   38  O   UNL     1       6.022  13.057  88.516  1.00  0.00    -0.647 OA
BRANCH  37  39
HETATM   39  O   UNL     1       4.109  12.248  87.384  1.00  0.00    -0.774 OA
HETATM   40  H   UNL     1       4.188  11.146  87.642  1.00  0.00     0.167 HD
ENDBRANCH  37  39
ENDBRANCH  34  37
ENDBRANCH  33  34
ENDBRANCH  31  33
ENDBRANCH  26  31
ENDBRANCH  24  26
ENDBRANCH  19  22
ENDBRANCH  15  16
ENDBRANCH  11  14
ENDBRANCH   7   8
ENDBRANCH   2   7
TORSDOF 14
ENDMDL
