MODEL 1
REMARK VINA RESULT:      -7.0      0.000      0.000
REMARK  10 active torsions:
REMARK  status: ('A' for Active; 'I' for Inactive)
REMARK    1  A    between atoms: O_2  and  C_18 
REMARK    2  A    between atoms: O_5  and  N_8 
REMARK    3  A    between atoms: N_6  and  C_11 
REMARK    4  A    between atoms: N_7  and  C_15 
REMARK       I    between atoms: N_7  and  C_24 
REMARK       I    between atoms: N_8  and  C_23 
REMARK    5  A    between atoms: C_11  and  C_14 
REMARK    6  A    between atoms: C_15  and  C_18 
REMARK    7  A    between atoms: C_15  and  C_23 
REMARK    8  A    between atoms: C_21  and  C_26 
REMARK    9  A    between atoms: C_24  and  C_25 
REMARK   10  A    between atoms: C_29  and  C_32 
ROOT
HETATM    1  O   UNK     0      16.523   4.281  94.124  0.00  0.00    -0.388 OA
HETATM    2  N   UNK     0      14.745   2.613  92.656  0.00  0.00     0.096 N 
HETATM    3  C   UNK     0      14.605   4.076  92.652  0.00  0.00     0.299 C 
HETATM    4  C   UNK     0      15.348   2.168  93.919  0.00  0.00     0.299 C 
HETATM    5  C   UNK     0      15.966   4.726  92.885  0.00  0.00     0.198 C 
HETATM    6  C   UNK     0      16.692   2.863  94.124  0.00  0.00     0.198 C 
ENDROOT
BRANCH   2   7
HETATM    7  C   UNK     0      13.450   1.968  92.444  0.00  0.00     0.311 C 
BRANCH   7   8
HETATM    8  C   UNK     0      12.382   2.944  92.084  0.00  0.00    -0.030 A 
HETATM    9  C   UNK     0      12.209   3.328  90.754  0.00  0.00     0.010 A 
HETATM   10  C   UNK     0      11.211   4.243  90.416  0.00  0.00     0.021 A 
HETATM   11  C   UNK     0      10.386   4.771  91.409  0.00  0.00     0.018 A 
HETATM   12  C   UNK     0      10.558   4.388  92.737  0.00  0.00     0.021 A 
HETATM   13  C   UNK     0      11.556   3.474  93.075  0.00  0.00     0.010 A 
BRANCH  11  14
HETATM   14  C   UNK     0       9.362   5.707  91.062  0.00  0.00    -0.061 C 
HETATM   15  C   UNK     0       8.500   6.494  90.770  0.00  0.00    -0.061 C 
BRANCH  15  16
HETATM   16  C   UNK     0       7.478   7.429  90.423  0.00  0.00     0.018 A 
HETATM   17  C   UNK     0       6.769   7.276  89.231  0.00  0.00     0.022 A 
HETATM   18  C   UNK     0       5.769   8.187  88.892  0.00  0.00     0.018 A 
HETATM   19  C   UNK     0       5.499   9.231  89.752  0.00  0.00     0.032 A 
HETATM   20  C   UNK     0       6.186   9.406  90.936  0.00  0.00     0.018 A 
HETATM   21  C   UNK     0       7.186   8.495  91.275  0.00  0.00     0.022 A 
BRANCH  19  22
HETATM   22  C   UNK     0       4.436  10.203  89.390  0.00  0.00     0.252 C 
HETATM   23  O   UNK     0       3.629   9.910  88.511  0.00  0.00    -0.268 OA
HETATM   24  N   UNK     0       4.424  11.389  90.111  0.00  0.00    -0.341 N 
HETATM   25  H   UNK     0       5.108  11.552  90.841  0.00  0.00     0.163 HD
BRANCH  24  26
HETATM   26  C   UNK     0       3.441  12.420  89.894  0.00  0.00     0.207 C 
BRANCH  26  27
HETATM   27  C   UNK     0       3.013  13.115  91.193  0.00  0.00     0.146 C 
HETATM   28  C   UNK     0       2.103  12.242  92.050  0.00  0.00     0.042 C 
BRANCH  27  29
HETATM   29  O   UNK     0       4.171  13.463  91.951  0.00  0.00    -0.393 OA
HETATM   30  H   UNK     0       4.934  12.993  91.576  0.00  0.00     0.210 HD
ENDBRANCH  27  29
ENDBRANCH  26  27
BRANCH  26  31
HETATM   31  C   UNK     0       4.024  13.416  88.897  0.00  0.00     0.266 C 
HETATM   32  O   UNK     0       4.128  14.618  89.135  0.00  0.00    -0.269 OA
HETATM   33  N   UNK     0       4.373  12.819  87.710  0.00  0.00    -0.236 N 
HETATM   34  H   UNK     0       4.218  11.853  87.449  0.00  0.00     0.197 HD
BRANCH  33  35
HETATM   35  O   UNK     0       4.882  13.675  86.723  0.00  0.00    -0.287 OA
HETATM   36  H   UNK     0       4.227  14.392  86.759  0.00  0.00     0.244 HD
ENDBRANCH  33  35
ENDBRANCH  26  31
ENDBRANCH  24  26
ENDBRANCH  19  22
ENDBRANCH  15  16
ENDBRANCH  11  14
ENDBRANCH   7   8
ENDBRANCH   2   7
TORSDOF 10
ENDMDL
MODEL 2
REMARK VINA RESULT:      -6.2      1.735      2.384
REMARK  10 active torsions:
REMARK  status: ('A' for Active; 'I' for Inactive)
REMARK    1  A    between atoms: O_2  and  C_18 
REMARK    2  A    between atoms: O_5  and  N_8 
REMARK    3  A    between atoms: N_6  and  C_11 
REMARK    4  A    between atoms: N_7  and  C_15 
REMARK       I    between atoms: N_7  and  C_24 
REMARK       I    between atoms: N_8  and  C_23 
REMARK    5  A    between atoms: C_11  and  C_14 
REMARK    6  A    between atoms: C_15  and  C_18 
REMARK    7  A    between atoms: C_15  and  C_23 
REMARK    8  A    between atoms: C_21  and  C_26 
REMARK    9  A    between atoms: C_24  and  C_25 
REMARK   10  A    between atoms: C_29  and  C_32 
ROOT
HETATM    1  O   UNK     0      16.156   2.715  93.979  0.00  0.00    -0.388 OA
HETATM    2  N   UNK     0      13.676   2.817  92.586  0.00  0.00     0.096 N 
HETATM    3  C   UNK     0      14.351   1.541  92.859  0.00  0.00     0.299 C 
HETATM    4  C   UNK     0      14.666   3.896  92.471  0.00  0.00     0.299 C 
HETATM    5  C   UNK     0      15.198   1.665  94.123  0.00  0.00     0.198 C 
HETATM    6  C   UNK     0      15.507   3.965  93.743  0.00  0.00     0.198 C 
ENDROOT
BRANCH   2   7
HETATM    7  C   UNK     0      12.866   2.725  91.372  0.00  0.00     0.311 C 
BRANCH   7   8
HETATM    8  C   UNK     0      11.717   3.675  91.382  0.00  0.00    -0.030 A 
HETATM    9  C   UNK     0      10.792   3.638  92.426  0.00  0.00     0.010 A 
HETATM   10  C   UNK     0       9.715   4.524  92.435  0.00  0.00     0.021 A 
HETATM   11  C   UNK     0       9.566   5.449  91.402  0.00  0.00     0.018 A 
HETATM   12  C   UNK     0      10.490   5.487  90.359  0.00  0.00     0.021 A 
HETATM   13  C   UNK     0      11.566   4.600  90.349  0.00  0.00     0.010 A 
BRANCH  11  14
HETATM   14  C   UNK     0       8.463   6.360  91.412  0.00  0.00    -0.061 C 
HETATM   15  C   UNK     0       7.537   7.126  91.421  0.00  0.00    -0.061 C 
BRANCH  15  16
HETATM   16  C   UNK     0       6.435   8.036  91.433  0.00  0.00     0.018 A 
HETATM   17  C   UNK     0       6.666   9.410  91.342  0.00  0.00     0.022 A 
HETATM   18  C   UNK     0       5.591  10.299  91.351  0.00  0.00     0.018 A 
HETATM   19  C   UNK     0       4.311   9.796  91.451  0.00  0.00     0.032 A 
HETATM   20  C   UNK     0       4.056   8.444  91.543  0.00  0.00     0.018 A 
HETATM   21  C   UNK     0       5.131   7.554  91.534  0.00  0.00     0.022 A 
BRANCH  19  22
HETATM   22  C   UNK     0       3.166  10.744  91.463  0.00  0.00     0.252 C 
HETATM   23  O   UNK     0       2.026  10.308  91.326  0.00  0.00    -0.268 OA
HETATM   24  N   UNK     0       3.486  12.080  91.657  0.00  0.00    -0.341 N 
HETATM   25  H   UNK     0       4.450  12.363  91.788  0.00  0.00     0.163 HD
BRANCH  24  26
HETATM   26  C   UNK     0       2.486  13.116  91.718  0.00  0.00     0.207 C 
BRANCH  26  27
HETATM   27  C   UNK     0       2.389  13.768  93.103  0.00  0.00     0.146 C 
HETATM   28  C   UNK     0       3.592  13.448  93.983  0.00  0.00     0.042 C 
BRANCH  27  29
HETATM   29  O   UNK     0       2.284  15.184  92.957  0.00  0.00    -0.393 OA
HETATM   30  H   UNK     0       3.101  15.586  93.296  0.00  0.00     0.210 HD
ENDBRANCH  27  29
ENDBRANCH  26  27
BRANCH  26  31
HETATM   31  C   UNK     0       2.815  14.145  90.642  0.00  0.00     0.266 C 
HETATM   32  O   UNK     0       2.006  14.506  89.789  0.00  0.00    -0.269 OA
HETATM   33  N   UNK     0       4.116  14.580  90.721  0.00  0.00    -0.236 N 
HETATM   34  H   UNK     0       4.833  14.239  91.351  0.00  0.00     0.197 HD
BRANCH  33  35
HETATM   35  O   UNK     0       4.512  15.502  89.741  0.00  0.00    -0.287 OA
HETATM   36  H   UNK     0       4.820  14.896  89.046  0.00  0.00     0.244 HD
ENDBRANCH  33  35
ENDBRANCH  26  31
ENDBRANCH  24  26
ENDBRANCH  19  22
ENDBRANCH  15  16
ENDBRANCH  11  14
ENDBRANCH   7   8
ENDBRANCH   2   7
TORSDOF 10
ENDMDL
MODEL 3
REMARK VINA RESULT:      -6.2      1.688      2.474
REMARK  10 active torsions:
REMARK  status: ('A' for Active; 'I' for Inactive)
REMARK    1  A    between atoms: O_2  and  C_18 
REMARK    2  A    between atoms: O_5  and  N_8 
REMARK    3  A    between atoms: N_6  and  C_11 
REMARK    4  A    between atoms: N_7  and  C_15 
REMARK       I    between atoms: N_7  and  C_24 
REMARK       I    between atoms: N_8  and  C_23 
REMARK    5  A    between atoms: C_11  and  C_14 
REMARK    6  A    between atoms: C_15  and  C_18 
REMARK    7  A    between atoms: C_15  and  C_23 
REMARK    8  A    between atoms: C_21  and  C_26 
REMARK    9  A    between atoms: C_24  and  C_25 
REMARK   10  A    between atoms: C_29  and  C_32 
ROOT
HETATM    1  O   UNK     0      16.349   4.005  94.124  0.00  0.00    -0.388 OA
HETATM    2  N   UNK     0      14.387   2.642  92.576  0.00  0.00     0.096 N 
HETATM    3  C   UNK     0      14.481   4.109  92.578  0.00  0.00     0.299 C 
HETATM    4  C   UNK     0      14.862   2.106  93.858  0.00  0.00     0.299 C 
HETATM    5  C   UNK     0      15.918   4.534  92.869  0.00  0.00     0.198 C 
HETATM    6  C   UNK     0      16.290   2.578  94.119  0.00  0.00     0.198 C 
ENDROOT
BRANCH   2   7
HETATM    7  C   UNK     0      13.016   2.212  92.309  0.00  0.00     0.311 C 
BRANCH   7   8
HETATM    8  C   UNK     0      12.041   3.337  92.391  0.00  0.00    -0.030 A 
HETATM    9  C   UNK     0      11.769   3.934  93.623  0.00  0.00     0.010 A 
HETATM   10  C   UNK     0      10.856   4.985  93.701  0.00  0.00     0.021 A 
HETATM   11  C   UNK     0      10.217   5.440  92.548  0.00  0.00     0.018 A 
HETATM   12  C   UNK     0      10.488   4.845  91.318  0.00  0.00     0.021 A 
HETATM   13  C   UNK     0      11.401   3.793  91.239  0.00  0.00     0.010 A 
BRANCH  11  14
HETATM   14  C   UNK     0       9.282   6.520  92.629  0.00  0.00    -0.061 C 
HETATM   15  C   UNK     0       8.496   7.428  92.696  0.00  0.00    -0.061 C 
BRANCH  15  16
HETATM   16  C   UNK     0       7.563   8.506  92.778  0.00  0.00     0.018 A 
HETATM   17  C   UNK     0       6.560   8.634  91.816  0.00  0.00     0.022 A 
HETATM   18  C   UNK     0       5.647   9.686  91.896  0.00  0.00     0.018 A 
HETATM   19  C   UNK     0       5.757  10.586  92.936  0.00  0.00     0.032 A 
HETATM   20  C   UNK     0       6.739  10.482  93.898  0.00  0.00     0.018 A 
HETATM   21  C   UNK     0       7.652   9.431  93.818  0.00  0.00     0.022 A 
BRANCH  19  22
HETATM   22  C   UNK     0       4.785  11.707  93.020  0.00  0.00     0.252 C 
HETATM   23  O   UNK     0       4.442  12.122  94.124  0.00  0.00    -0.268 OA
HETATM   24  N   UNK     0       4.350  12.226  91.808  0.00  0.00    -0.341 N 
HETATM   25  H   UNK     0       4.697  11.849  90.934  0.00  0.00     0.163 HD
BRANCH  24  26
HETATM   26  C   UNK     0       3.428  13.330  91.724  0.00  0.00     0.207 C 
BRANCH  26  27
HETATM   27  C   UNK     0       3.944  14.590  92.432  0.00  0.00     0.146 C 
HETATM   28  C   UNK     0       4.788  15.469  91.516  0.00  0.00     0.042 C 
BRANCH  27  29
HETATM   29  O   UNK     0       2.838  15.352  92.916  0.00  0.00    -0.393 OA
HETATM   30  H   UNK     0       2.090  15.223  92.309  0.00  0.00     0.210 HD
ENDBRANCH  27  29
ENDBRANCH  26  27
BRANCH  26  31
HETATM   31  C   UNK     0       3.153  13.596  90.248  0.00  0.00     0.266 C 
HETATM   32  O   UNK     0       2.386  14.475  89.857  0.00  0.00    -0.269 OA
HETATM   33  N   UNK     0       3.826  12.723  89.429  0.00  0.00    -0.236 N 
HETATM   34  H   UNK     0       4.393  11.934  89.718  0.00  0.00     0.197 HD
BRANCH  33  35
HETATM   35  O   UNK     0       3.597  12.876  88.054  0.00  0.00    -0.287 OA
HETATM   36  H   UNK     0       4.157  13.650  87.870  0.00  0.00     0.244 HD
ENDBRANCH  33  35
ENDBRANCH  26  31
ENDBRANCH  24  26
ENDBRANCH  19  22
ENDBRANCH  15  16
ENDBRANCH  11  14
ENDBRANCH   7   8
ENDBRANCH   2   7
TORSDOF 10
ENDMDL
MODEL 4
REMARK VINA RESULT:      -5.3      2.901     12.285
REMARK  10 active torsions:
REMARK  status: ('A' for Active; 'I' for Inactive)
REMARK    1  A    between atoms: O_2  and  C_18 
REMARK    2  A    between atoms: O_5  and  N_8 
REMARK    3  A    between atoms: N_6  and  C_11 
REMARK    4  A    between atoms: N_7  and  C_15 
REMARK       I    between atoms: N_7  and  C_24 
REMARK       I    between atoms: N_8  and  C_23 
REMARK    5  A    between atoms: C_11  and  C_14 
REMARK    6  A    between atoms: C_15  and  C_18 
REMARK    7  A    between atoms: C_15  and  C_23 
REMARK    8  A    between atoms: C_21  and  C_26 
REMARK    9  A    between atoms: C_24  and  C_25 
REMARK   10  A    between atoms: C_29  and  C_32 
ROOT
HETATM    1  O   UNK     0       2.819  14.644  94.124  0.00  0.00    -0.388 OA
HETATM    2  N   UNK     0       2.467  14.623  91.300  0.00  0.00     0.096 N 
HETATM    3  C   UNK     0       1.617  13.815  92.185  0.00  0.00     0.299 C 
HETATM    4  C   UNK     0       3.791  14.811  91.907  0.00  0.00     0.299 C 
HETATM    5  C   UNK     0       1.518  14.481  93.555  0.00  0.00     0.198 C 
HETATM    6  C   UNK     0       3.642  15.453  93.284  0.00  0.00     0.198 C 
ENDROOT
BRANCH   2   7
HETATM    7  C   UNK     0       2.584  13.998  89.983  0.00  0.00     0.311 C 
BRANCH   7   8
HETATM    8  C   UNK     0       3.594  12.901  89.963  0.00  0.00    -0.030 A 
HETATM    9  C   UNK     0       4.861  13.130  89.425  0.00  0.00     0.010 A 
HETATM   10  C   UNK     0       5.805  12.104  89.404  0.00  0.00     0.021 A 
HETATM   11  C   UNK     0       5.483  10.850  89.923  0.00  0.00     0.018 A 
HETATM   12  C   UNK     0       4.218  10.620  90.461  0.00  0.00     0.021 A 
HETATM   13  C   UNK     0       3.273  11.646  90.481  0.00  0.00     0.010 A 
BRANCH  11  14
HETATM   14  C   UNK     0       6.453   9.798  89.903  0.00  0.00    -0.061 C 
HETATM   15  C   UNK     0       7.267   8.914  89.886  0.00  0.00    -0.061 C 
BRANCH  15  16
HETATM   16  C   UNK     0       8.236   7.864  89.868  0.00  0.00     0.018 A 
HETATM   17  C   UNK     0       8.943   7.548  91.029  0.00  0.00     0.022 A 
HETATM   18  C   UNK     0       9.887   6.521  91.012  0.00  0.00     0.018 A 
HETATM   19  C   UNK     0      10.103   5.834  89.836  0.00  0.00     0.032 A 
HETATM   20  C   UNK     0       9.419   6.127  88.675  0.00  0.00     0.018 A 
HETATM   21  C   UNK     0       8.475   7.154  88.691  0.00  0.00     0.022 A 
BRANCH  19  22
HETATM   22  C   UNK     0      11.111   4.742  89.818  0.00  0.00     0.252 C 
HETATM   23  O   UNK     0      11.264   4.084  88.792  0.00  0.00    -0.268 OA
HETATM   24  N   UNK     0      11.836   4.564  90.988  0.00  0.00    -0.341 N 
HETATM   25  H   UNK     0      11.672   5.163  91.789  0.00  0.00     0.163 HD
BRANCH  24  26
HETATM   26  C   UNK     0      12.864   3.563  91.118  0.00  0.00     0.207 C 
BRANCH  26  27
HETATM   27  C   UNK     0      14.123   4.093  91.817  0.00  0.00     0.146 C 
HETATM   28  C   UNK     0      13.981   4.118  93.335  0.00  0.00     0.042 C 
BRANCH  27  29
HETATM   29  O   UNK     0      15.241   3.277  91.470  0.00  0.00    -0.393 OA
HETATM   30  H   UNK     0      15.063   2.371  91.774  0.00  0.00     0.210 HD
ENDBRANCH  27  29
ENDBRANCH  26  27
BRANCH  26  31
HETATM   31  C   UNK     0      12.268   2.378  91.872  0.00  0.00     0.266 C 
HETATM   32  O   UNK     0      12.910   1.365  92.141  0.00  0.00    -0.269 OA
HETATM   33  N   UNK     0      10.941   2.568  92.172  0.00  0.00    -0.236 N 
HETATM   34  H   UNK     0      10.361   3.349  91.888  0.00  0.00     0.197 HD
BRANCH  33  35
HETATM   35  O   UNK     0      10.307   1.507  92.832  0.00  0.00    -0.287 OA
HETATM   36  H   UNK     0      10.557   1.700  93.752  0.00  0.00     0.244 HD
ENDBRANCH  33  35
ENDBRANCH  26  31
ENDBRANCH  24  26
ENDBRANCH  19  22
ENDBRANCH  15  16
ENDBRANCH  11  14
ENDBRANCH   7   8
ENDBRANCH   2   7
TORSDOF 10
ENDMDL
MODEL 5
REMARK VINA RESULT:      -5.0      2.082     12.534
REMARK  10 active torsions:
REMARK  status: ('A' for Active; 'I' for Inactive)
REMARK    1  A    between atoms: O_2  and  C_18 
REMARK    2  A    between atoms: O_5  and  N_8 
REMARK    3  A    between atoms: N_6  and  C_11 
REMARK    4  A    between atoms: N_7  and  C_15 
REMARK       I    between atoms: N_7  and  C_24 
REMARK       I    between atoms: N_8  and  C_23 
REMARK    5  A    between atoms: C_11  and  C_14 
REMARK    6  A    between atoms: C_15  and  C_18 
REMARK    7  A    between atoms: C_15  and  C_23 
REMARK    8  A    between atoms: C_21  and  C_26 
REMARK    9  A    between atoms: C_24  and  C_25 
REMARK   10  A    between atoms: C_29  and  C_32 
ROOT
HETATM    1  O   UNK     0       3.709  14.668  92.143  0.00  0.00    -0.388 OA
HETATM    2  N   UNK     0       3.893  13.672  89.483  0.00  0.00     0.096 N 
HETATM    3  C   UNK     0       3.063  13.006  90.497  0.00  0.00     0.299 C 
HETATM    4  C   UNK     0       5.022  14.356  90.127  0.00  0.00     0.299 C 
HETATM    5  C   UNK     0       2.589  14.027  91.529  0.00  0.00     0.198 C 
HETATM    6  C   UNK     0       4.504  15.344  91.169  0.00  0.00     0.198 C 
ENDROOT
BRANCH   2   7
HETATM    7  C   UNK     0       4.366  12.711  88.489  0.00  0.00     0.311 C 
BRANCH   7   8
HETATM    8  C   UNK     0       5.259  11.674  89.081  0.00  0.00    -0.030 A 
HETATM    9  C   UNK     0       4.711  10.617  89.809  0.00  0.00     0.010 A 
HETATM   10  C   UNK     0       5.545   9.648  90.365  0.00  0.00     0.021 A 
HETATM   11  C   UNK     0       6.926   9.735  90.192  0.00  0.00     0.018 A 
HETATM   12  C   UNK     0       7.474  10.790  89.466  0.00  0.00     0.021 A 
HETATM   13  C   UNK     0       6.641  11.760  88.910  0.00  0.00     0.010 A 
BRANCH  11  14
HETATM   14  C   UNK     0       7.782   8.739  90.761  0.00  0.00    -0.061 C 
HETATM   15  C   UNK     0       8.500   7.902  91.239  0.00  0.00    -0.061 C 
BRANCH  15  16
HETATM   16  C   UNK     0       9.353   6.907  91.808  0.00  0.00     0.018 A 
HETATM   17  C   UNK     0       9.887   5.902  90.999  0.00  0.00     0.022 A 
HETATM   18  C   UNK     0      10.722   4.932  91.554  0.00  0.00     0.018 A 
HETATM   19  C   UNK     0      11.005   4.987  92.903  0.00  0.00     0.032 A 
HETATM   20  C   UNK     0      10.489   5.969  93.723  0.00  0.00     0.018 A 
HETATM   21  C   UNK     0       9.654   6.939  93.169  0.00  0.00     0.022 A 
BRANCH  19  22
HETATM   22  C   UNK     0      11.892   3.952  93.493  0.00  0.00     0.252 C 
HETATM   23  O   UNK     0      11.392   3.013  94.108  0.00  0.00    -0.268 OA
HETATM   24  N   UNK     0      13.252   4.121  93.275  0.00  0.00    -0.341 N 
HETATM   25  H   UNK     0      13.591   4.908  92.734  0.00  0.00     0.163 HD
BRANCH  24  26
HETATM   26  C   UNK     0      14.237   3.189  93.762  0.00  0.00     0.207 C 
BRANCH  26  27
HETATM   27  C   UNK     0      14.314   1.911  92.918  0.00  0.00     0.146 C 
HETATM   28  C   UNK     0      15.195   2.077  91.685  0.00  0.00     0.042 C 
BRANCH  27  29
HETATM   29  O   UNK     0      14.828   0.843  93.714  0.00  0.00    -0.393 OA
HETATM   30  H   UNK     0      14.179   0.641  94.409  0.00  0.00     0.210 HD
ENDBRANCH  27  29
ENDBRANCH  26  27
BRANCH  26  31
HETATM   31  C   UNK     0      15.581   3.910  93.800  0.00  0.00     0.266 C 
HETATM   32  O   UNK     0      15.705   5.109  93.557  0.00  0.00    -0.269 OA
HETATM   33  N   UNK     0      16.618   3.058  94.095  0.00  0.00    -0.236 N 
HETATM   34  H   UNK     0      16.564   2.053  94.212  0.00  0.00     0.197 HD
BRANCH  33  35
HETATM   35  O   UNK     0      17.896   3.636  94.113  0.00  0.00    -0.287 OA
HETATM   36  H   UNK     0      18.128   3.518  95.049  0.00  0.00     0.244 HD
ENDBRANCH  33  35
ENDBRANCH  26  31
ENDBRANCH  24  26
ENDBRANCH  19  22
ENDBRANCH  15  16
ENDBRANCH  11  14
ENDBRANCH   7   8
ENDBRANCH   2   7
TORSDOF 10
ENDMDL
MODEL 6
REMARK VINA RESULT:      -4.9      1.930     12.379
REMARK  10 active torsions:
REMARK  status: ('A' for Active; 'I' for Inactive)
REMARK    1  A    between atoms: O_2  and  C_18 
REMARK    2  A    between atoms: O_5  and  N_8 
REMARK    3  A    between atoms: N_6  and  C_11 
REMARK    4  A    between atoms: N_7  and  C_15 
REMARK       I    between atoms: N_7  and  C_24 
REMARK       I    between atoms: N_8  and  C_23 
REMARK    5  A    between atoms: C_11  and  C_14 
REMARK    6  A    between atoms: C_15  and  C_18 
REMARK    7  A    between atoms: C_15  and  C_23 
REMARK    8  A    between atoms: C_21  and  C_26 
REMARK    9  A    between atoms: C_24  and  C_25 
REMARK   10  A    between atoms: C_29  and  C_32 
ROOT
HETATM    1  O   UNK     0       5.311  14.273  88.398  0.00  0.00    -0.388 OA
HETATM    2  N   UNK     0       3.510  12.937  90.151  0.00  0.00     0.096 N 
HETATM    3  C   UNK     0       4.257  14.127  90.579  0.00  0.00     0.299 C 
HETATM    4  C   UNK     0       4.270  12.206  89.128  0.00  0.00     0.299 C 
HETATM    5  C   UNK     0       4.565  15.007  89.370  0.00  0.00     0.198 C 
HETATM    6  C   UNK     0       4.578  13.130  87.953  0.00  0.00     0.198 C 
ENDROOT
BRANCH   2   7
HETATM    7  C   UNK     0       3.213  12.073  91.292  0.00  0.00     0.311 C 
BRANCH   7   8
HETATM    8  C   UNK     0       4.263  11.037  91.509  0.00  0.00    -0.030 A 
HETATM    9  C   UNK     0       3.966   9.690  91.300  0.00  0.00     0.010 A 
HETATM   10  C   UNK     0       4.947   8.720  91.505  0.00  0.00     0.021 A 
HETATM   11  C   UNK     0       6.225   9.098  91.916  0.00  0.00     0.018 A 
HETATM   12  C   UNK     0       6.523  10.443  92.125  0.00  0.00     0.021 A 
HETATM   13  C   UNK     0       5.542  11.413  91.921  0.00  0.00     0.010 A 
BRANCH  11  14
HETATM   14  C   UNK     0       7.232   8.102  92.124  0.00  0.00    -0.061 C 
HETATM   15  C   UNK     0       8.078   7.266  92.298  0.00  0.00    -0.061 C 
BRANCH  15  16
HETATM   16  C   UNK     0       9.082   6.272  92.505  0.00  0.00     0.018 A 
HETATM   17  C   UNK     0       9.559   5.528  91.424  0.00  0.00     0.022 A 
HETATM   18  C   UNK     0      10.542   4.558  91.625  0.00  0.00     0.018 A 
HETATM   19  C   UNK     0      11.026   4.354  92.900  0.00  0.00     0.032 A 
HETATM   20  C   UNK     0      10.571   5.075  93.985  0.00  0.00     0.018 A 
HETATM   21  C   UNK     0       9.588   6.044  93.784  0.00  0.00     0.022 A 
BRANCH  19  22
HETATM   22  C   UNK     0      12.071   3.319  93.114  0.00  0.00     0.252 C 
HETATM   23  O   UNK     0      11.866   2.171  92.727  0.00  0.00    -0.268 OA
HETATM   24  N   UNK     0      13.237   3.752  93.730  0.00  0.00    -0.341 N 
HETATM   25  H   UNK     0      13.345   4.722  94.000  0.00  0.00     0.163 HD
BRANCH  24  26
HETATM   26  C   UNK     0      14.351   2.874  93.984  0.00  0.00     0.207 C 
BRANCH  26  27
HETATM   27  C   UNK     0      14.424   1.705  92.993  0.00  0.00     0.146 C 
HETATM   28  C   UNK     0      15.298   2.018  91.784  0.00  0.00     0.042 C 
BRANCH  27  29
HETATM   29  O   UNK     0      14.943   0.551  93.654  0.00  0.00    -0.393 OA
HETATM   30  H   UNK     0      15.080  -0.145  92.989  0.00  0.00     0.210 HD
ENDBRANCH  27  29
ENDBRANCH  26  27
BRANCH  26  31
HETATM   31  C   UNK     0      15.624   3.713  93.946  0.00  0.00     0.266 C 
HETATM   32  O   UNK     0      16.744   3.239  94.124  0.00  0.00    -0.269 OA
HETATM   33  N   UNK     0      15.362   5.044  93.731  0.00  0.00    -0.236 N 
HETATM   34  H   UNK     0      14.449   5.481  93.669  0.00  0.00     0.197 HD
BRANCH  33  35
HETATM   35  O   UNK     0      16.478   5.892  93.720  0.00  0.00    -0.287 OA
HETATM   36  H   UNK     0      16.381   6.320  94.588  0.00  0.00     0.244 HD
ENDBRANCH  33  35
ENDBRANCH  26  31
ENDBRANCH  24  26
ENDBRANCH  19  22
ENDBRANCH  15  16
ENDBRANCH  11  14
ENDBRANCH   7   8
ENDBRANCH   2   7
TORSDOF 10
ENDMDL
MODEL 7
REMARK VINA RESULT:      -4.5      2.465     12.507
REMARK  10 active torsions:
REMARK  status: ('A' for Active; 'I' for Inactive)
REMARK    1  A    between atoms: O_2  and  C_18 
REMARK    2  A    between atoms: O_5  and  N_8 
REMARK    3  A    between atoms: N_6  and  C_11 
REMARK    4  A    between atoms: N_7  and  C_15 
REMARK       I    between atoms: N_7  and  C_24 
REMARK       I    between atoms: N_8  and  C_23 
REMARK    5  A    between atoms: C_11  and  C_14 
REMARK    6  A    between atoms: C_15  and  C_18 
REMARK    7  A    between atoms: C_15  and  C_23 
REMARK    8  A    between atoms: C_21  and  C_26 
REMARK    9  A    between atoms: C_24  and  C_25 
REMARK   10  A    between atoms: C_29  and  C_32 
ROOT
HETATM    1  O   UNK     0       4.300  15.005  89.928  0.00  0.00    -0.388 OA
HETATM    2  N   UNK     0       3.002  14.023  92.264  0.00  0.00     0.096 N 
HETATM    3  C   UNK     0       4.356  14.592  92.319  0.00  0.00     0.299 C 
HETATM    4  C   UNK     0       2.760  13.428  90.943  0.00  0.00     0.299 C 
HETATM    5  C   UNK     0       4.533  15.614  91.200  0.00  0.00     0.198 C 
HETATM    6  C   UNK     0       2.975  14.477  89.855  0.00  0.00     0.198 C 
ENDROOT
BRANCH   2   7
HETATM    7  C   UNK     0       2.813  13.032  93.322  0.00  0.00     0.311 C 
BRANCH   7   8
HETATM    8  C   UNK     0       3.821  11.936  93.260  0.00  0.00    -0.030 A 
HETATM    9  C   UNK     0       5.101  12.137  93.780  0.00  0.00     0.010 A 
HETATM   10  C   UNK     0       6.046  11.113  93.721  0.00  0.00     0.021 A 
HETATM   11  C   UNK     0       5.710   9.888  93.145  0.00  0.00     0.018 A 
HETATM   12  C   UNK     0       4.433   9.686  92.626  0.00  0.00     0.021 A 
HETATM   13  C   UNK     0       3.488  10.710  92.684  0.00  0.00     0.010 A 
BRANCH  11  14
HETATM   14  C   UNK     0       6.679   8.837  93.086  0.00  0.00    -0.061 C 
HETATM   15  C   UNK     0       7.494   7.954  93.037  0.00  0.00    -0.061 C 
BRANCH  15  16
HETATM   16  C   UNK     0       8.460   6.904  92.978  0.00  0.00     0.018 A 
HETATM   17  C   UNK     0       9.551   6.910  93.849  0.00  0.00     0.022 A 
HETATM   18  C   UNK     0      10.493   5.884  93.793  0.00  0.00     0.018 A 
HETATM   19  C   UNK     0      10.326   4.874  92.869  0.00  0.00     0.032 A 
HETATM   20  C   UNK     0       9.258   4.844  91.997  0.00  0.00     0.018 A 
HETATM   21  C   UNK     0       8.315   5.871  92.052  0.00  0.00     0.022 A 
BRANCH  19  22
HETATM   22  C   UNK     0      11.332   3.782  92.809  0.00  0.00     0.252 C 
HETATM   23  O   UNK     0      10.958   2.634  92.582  0.00  0.00    -0.268 OA
HETATM   24  N   UNK     0      12.653   4.162  92.995  0.00  0.00    -0.341 N 
HETATM   25  H   UNK     0      12.890   5.134  93.154  0.00  0.00     0.163 HD
BRANCH  24  26
HETATM   26  C   UNK     0      13.745   3.223  92.941  0.00  0.00     0.207 C 
BRANCH  26  27
HETATM   27  C   UNK     0      14.061   2.761  91.513  0.00  0.00     0.146 C 
HETATM   28  C   UNK     0      14.183   3.926  90.536  0.00  0.00     0.042 C 
BRANCH  27  29
HETATM   29  O   UNK     0      15.283   2.024  91.509  0.00  0.00    -0.393 OA
HETATM   30  H   UNK     0      15.074   1.088  91.668  0.00  0.00     0.210 HD
ENDBRANCH  27  29
ENDBRANCH  26  27
BRANCH  26  31
HETATM   31  C   UNK     0      14.958   3.881  93.592  0.00  0.00     0.266 C 
HETATM   32  O   UNK     0      14.938   5.025  94.043  0.00  0.00    -0.269 OA
HETATM   33  N   UNK     0      16.062   3.064  93.576  0.00  0.00    -0.236 N 
HETATM   34  H   UNK     0      16.138   2.155  93.134  0.00  0.00     0.197 HD
BRANCH  33  35
HETATM   35  O   UNK     0      17.233   3.610  94.122  0.00  0.00    -0.287 OA
HETATM   36  H   UNK     0      17.374   3.005  94.870  0.00  0.00     0.244 HD
ENDBRANCH  33  35
ENDBRANCH  26  31
ENDBRANCH  24  26
ENDBRANCH  19  22
ENDBRANCH  15  16
ENDBRANCH  11  14
ENDBRANCH   7   8
ENDBRANCH   2   7
TORSDOF 10
ENDMDL
