MODEL 1
REMARK VINA RESULT:      -7.1      0.000      0.000
REMARK  10 active torsions:
REMARK  status: ('A' for Active; 'I' for Inactive)
REMARK    1  A    between atoms: O_2  and  C_16 
REMARK    2  A    between atoms: N_5  and  C_9 
REMARK    3  A    between atoms: N_6  and  C_13 
REMARK       I    between atoms: N_6  and  C_22 
REMARK    4  A    between atoms: C_9  and  C_12 
REMARK    5  A    between atoms: C_13  and  C_16 
REMARK    6  A    between atoms: C_13  and  C_21 
REMARK    7  A    between atoms: C_19  and  C_24 
REMARK    8  A    between atoms: C_22  and  C_23 
REMARK    9  A    between atoms: C_27  and  C_30 
REMARK   10  A    between atoms: N_33  and  S_34 
ROOT
HETATM    1  C   UNL     1       5.818  10.932  89.530  1.00  0.00     0.056 A 
HETATM    2  C   UNL     1       5.283   9.680  89.753  1.00  0.00     0.005 A 
HETATM    3  C   UNL     1       7.175  11.172  89.583  1.00  0.00     0.005 A 
HETATM    4  C   UNL     1       7.520   8.838  90.102  1.00  0.00     0.042 A 
HETATM    5  C   UNL     1       6.143   8.621  90.043  1.00  0.00     0.008 A 
HETATM    6  C   UNL     1       8.036  10.114  89.873  1.00  0.00     0.008 A 
ENDROOT
BRANCH   1   7
HETATM    7  C   UNL     1       4.901  12.059  89.220  1.00  0.00     0.254 C 
HETATM    8  O   UNL     1       4.840  12.482  88.068  1.00  0.00    -0.268 OA
HETATM    9  N   UNL     1       4.149  12.541  90.281  1.00  0.00    -0.337 N 
HETATM   10  HN  UNL     1       4.234  12.124  91.201  1.00  0.00     0.164 HD
BRANCH   9  11
HETATM   11  C   UNL     1       3.198  13.614  90.135  1.00  0.00     0.172 C 
BRANCH  11  12
HETATM   12  C   UNL     1       1.959  13.435  91.021  1.00  0.00     0.136 C 
HETATM   13  C   UNL     1       2.063  12.215  91.930  1.00  0.00     0.034 C 
BRANCH  12  14
HETATM   14  O   UNL     1       1.777  14.599  91.826  1.00  0.00    -0.383 OA
HETATM   15  H   UNL     1       2.562  15.164  91.729  1.00  0.00     0.210 HD
ENDBRANCH  12  14
ENDBRANCH  11  12
BRANCH  11  16
HETATM   16  C   UNL     1       3.919  14.921  90.447  1.00  0.00     0.398 A 
HETATM   17  O   UNL     1       5.015  15.211  89.971  1.00  0.00    -0.136 OA
HETATM   18  N   UNL     1       4.979  15.544  91.454  1.00  0.00     0.142 N 
HETATM   19  HN  UNL     1       5.886  15.862  91.258  1.00  0.00     0.338 HD
BRANCH  18  20
HETATM   20  S   UNL     1       4.327  15.247  92.646  1.00  0.00     0.076 SA
HETATM   21  H   UNL     1       4.138  14.097  92.876  1.00  0.00     0.136 HD
ENDBRANCH  18  20
ENDBRANCH  11  16
ENDBRANCH   9  11
ENDBRANCH   1   7
BRANCH   4  22
HETATM   22  C   UNL     1       8.402   7.754  90.402  1.00  0.00    -0.059 C 
HETATM   23  C   UNL     1       9.143   6.841  90.654  1.00  0.00    -0.059 C 
BRANCH  23  24
HETATM   24  C   UNL     1      10.026   5.756  90.954  1.00  0.00     0.042 A 
HETATM   25  C   UNL     1      10.704   5.105  89.924  1.00  0.00     0.008 A 
HETATM   26  C   UNL     1      11.563   4.045  90.216  1.00  0.00    -0.002 A 
HETATM   27  C   UNL     1      11.746   3.640  91.539  1.00  0.00     0.011 A 
HETATM   28  C   UNL     1      11.068   4.294  92.568  1.00  0.00    -0.002 A 
HETATM   29  C   UNL     1      10.208   5.352  92.275  1.00  0.00     0.008 A 
BRANCH  27  30
HETATM   30  C   UNL     1      12.666   2.510  91.850  1.00  0.00     0.277 C 
BRANCH  30  31
HETATM   31  N   UNL     1      13.676   2.871  92.843  1.00  0.00     0.147 N 
HETATM   32  C   UNL     1      14.600   1.752  93.077  1.00  0.00     0.283 C 
HETATM   33  C   UNL     1      15.650   2.156  94.108  1.00  0.00     0.178 C 
HETATM   34  O   UNL     1      16.366   3.310  93.663  1.00  0.00    -0.350 OA
HETATM   35  C   UNL     1      15.479   4.411  93.464  1.00  0.00     0.178 C 
HETATM   36  C   UNL     1      14.425   4.062  92.419  1.00  0.00     0.283 C 
ENDBRANCH  30  31
ENDBRANCH  27  30
ENDBRANCH  23  24
ENDBRANCH   4  22
TORSDOF 10
ENDMDL
MODEL 2
REMARK VINA RESULT:      -7.1      1.147      1.727
REMARK  10 active torsions:
REMARK  status: ('A' for Active; 'I' for Inactive)
REMARK    1  A    between atoms: O_2  and  C_16 
REMARK    2  A    between atoms: N_5  and  C_9 
REMARK    3  A    between atoms: N_6  and  C_13 
REMARK       I    between atoms: N_6  and  C_22 
REMARK    4  A    between atoms: C_9  and  C_12 
REMARK    5  A    between atoms: C_13  and  C_16 
REMARK    6  A    between atoms: C_13  and  C_21 
REMARK    7  A    between atoms: C_19  and  C_24 
REMARK    8  A    between atoms: C_22  and  C_23 
REMARK    9  A    between atoms: C_27  and  C_30 
REMARK   10  A    between atoms: N_33  and  S_34 
ROOT
HETATM    1  C   UNL     1       5.014   9.818  90.032  1.00  0.00     0.056 A 
HETATM    2  C   UNL     1       6.208  10.260  90.563  1.00  0.00     0.005 A 
HETATM    3  C   UNL     1       4.792   8.493  89.721  1.00  0.00     0.005 A 
HETATM    4  C   UNL     1       7.028   7.989  90.486  1.00  0.00     0.042 A 
HETATM    5  C   UNL     1       7.227   9.335  90.793  1.00  0.00     0.008 A 
HETATM    6  C   UNL     1       5.811   7.567  89.950  1.00  0.00     0.008 A 
ENDROOT
BRANCH   1   7
HETATM    7  C   UNL     1       3.928  10.803  89.790  1.00  0.00     0.254 C 
HETATM    8  O   UNL     1       3.089  10.570  88.923  1.00  0.00    -0.268 OA
HETATM    9  N   UNL     1       3.934  11.927  90.604  1.00  0.00    -0.337 N 
HETATM   10  HN  UNL     1       4.645  12.040  91.317  1.00  0.00     0.164 HD
BRANCH   9  11
HETATM   11  C   UNL     1       2.934  12.960  90.507  1.00  0.00     0.172 C 
BRANCH  11  12
HETATM   12  C   UNL     1       2.480  13.476  91.878  1.00  0.00     0.136 C 
HETATM   13  C   UNL     1       1.224  14.336  91.792  1.00  0.00     0.034 C 
BRANCH  12  14
HETATM   14  O   UNL     1       2.227  12.371  92.745  1.00  0.00    -0.383 OA
HETATM   15  H   UNL     1       2.444  11.553  92.267  1.00  0.00     0.210 HD
ENDBRANCH  12  14
ENDBRANCH  11  12
BRANCH  11  16
HETATM   16  C   UNL     1       3.508  14.086  89.653  1.00  0.00     0.398 A 
HETATM   17  O   UNL     1       4.212  13.884  88.665  1.00  0.00    -0.136 OA
HETATM   18  N   UNL     1       4.797  15.003  89.512  1.00  0.00     0.142 N 
HETATM   19  HN  UNL     1       5.457  15.012  88.787  1.00  0.00     0.338 HD
BRANCH  18  20
HETATM   20  S   UNL     1       4.807  15.541  90.794  1.00  0.00     0.076 SA
HETATM   21  H   UNL     1       5.349  14.900  91.635  1.00  0.00     0.136 HD
ENDBRANCH  18  20
ENDBRANCH  11  16
ENDBRANCH   9  11
ENDBRANCH   1   7
BRANCH   4  22
HETATM   22  C   UNL     1       8.073   7.042  90.718  1.00  0.00    -0.059 C 
HETATM   23  C   UNL     1       8.952   6.245  90.913  1.00  0.00    -0.059 C 
BRANCH  23  24
HETATM   24  C   UNL     1       9.998   5.297  91.144  1.00  0.00     0.042 A 
HETATM   25  C   UNL     1      10.141   4.711  92.401  1.00  0.00     0.008 A 
HETATM   26  C   UNL     1      11.163   3.789  92.628  1.00  0.00    -0.002 A 
HETATM   27  C   UNL     1      12.039   3.451  91.596  1.00  0.00     0.011 A 
HETATM   28  C   UNL     1      11.894   4.038  90.339  1.00  0.00    -0.002 A 
HETATM   29  C   UNL     1      10.873   4.961  90.113  1.00  0.00     0.008 A 
BRANCH  27  30
HETATM   30  C   UNL     1      13.129   2.463  91.838  1.00  0.00     0.277 C 
BRANCH  30  31
HETATM   31  N   UNL     1      14.057   2.902  92.880  1.00  0.00     0.147 N 
HETATM   32  C   UNL     1      15.153   1.937  93.039  1.00  0.00     0.283 C 
HETATM   33  C   UNL     1      16.114   2.421  94.123  1.00  0.00     0.178 C 
HETATM   34  O   UNL     1      16.629   3.711  93.790  1.00  0.00    -0.350 OA
HETATM   35  C   UNL     1      15.571   4.662  93.663  1.00  0.00     0.178 C 
HETATM   36  C   UNL     1      14.598   4.232  92.570  1.00  0.00     0.283 C 
ENDBRANCH  30  31
ENDBRANCH  27  30
ENDBRANCH  23  24
ENDBRANCH   4  22
TORSDOF 10
ENDMDL
MODEL 3
REMARK VINA RESULT:      -7.0      1.514      1.982
REMARK  10 active torsions:
REMARK  status: ('A' for Active; 'I' for Inactive)
REMARK    1  A    between atoms: O_2  and  C_16 
REMARK    2  A    between atoms: N_5  and  C_9 
REMARK    3  A    between atoms: N_6  and  C_13 
REMARK       I    between atoms: N_6  and  C_22 
REMARK    4  A    between atoms: C_9  and  C_12 
REMARK    5  A    between atoms: C_13  and  C_16 
REMARK    6  A    between atoms: C_13  and  C_21 
REMARK    7  A    between atoms: C_19  and  C_24 
REMARK    8  A    between atoms: C_22  and  C_23 
REMARK    9  A    between atoms: C_27  and  C_30 
REMARK   10  A    between atoms: N_33  and  S_34 
ROOT
HETATM    1  C   UNL     1       5.404  10.482  90.978  1.00  0.00     0.056 A 
HETATM    2  C   UNL     1       5.257   9.319  90.252  1.00  0.00     0.005 A 
HETATM    3  C   UNL     1       6.465  10.685  91.835  1.00  0.00     0.005 A 
HETATM    4  C   UNL     1       7.295   8.494  91.251  1.00  0.00     0.042 A 
HETATM    5  C   UNL     1       6.213   8.312  90.390  1.00  0.00     0.008 A 
HETATM    6  C   UNL     1       7.421   9.680  91.974  1.00  0.00     0.008 A 
ENDROOT
BRANCH   1   7
HETATM    7  C   UNL     1       4.386  11.555  90.829  1.00  0.00     0.254 C 
HETATM    8  O   UNL     1       3.333  11.305  90.247  1.00  0.00    -0.268 OA
HETATM    9  N   UNL     1       4.707  12.780  91.396  1.00  0.00    -0.337 N 
HETATM   10  HN  UNL     1       5.587  12.905  91.883  1.00  0.00     0.164 HD
BRANCH   9  11
HETATM   11  C   UNL     1       3.815  13.910  91.357  1.00  0.00     0.172 C 
BRANCH  11  12
HETATM   12  C   UNL     1       3.712  14.537  89.960  1.00  0.00     0.136 C 
HETATM   13  C   UNL     1       5.058  14.600  89.248  1.00  0.00     0.034 C 
BRANCH  12  14
HETATM   14  O   UNL     1       2.801  13.780  89.164  1.00  0.00    -0.383 OA
HETATM   15  H   UNL     1       1.903  14.115  89.326  1.00  0.00     0.210 HD
ENDBRANCH  12  14
ENDBRANCH  11  12
BRANCH  11  16
HETATM   16  C   UNL     1       2.451  13.445  91.857  1.00  0.00     0.398 A 
HETATM   17  O   UNL     1       1.435  14.132  91.769  1.00  0.00    -0.136 OA
HETATM   18  N   UNL     1       1.520  13.490  93.144  1.00  0.00     0.142 N 
HETATM   19  HN  UNL     1       0.663  13.954  93.255  1.00  0.00     0.338 HD
BRANCH  18  20
HETATM   20  S   UNL     1       2.404  12.925  94.056  1.00  0.00     0.076 SA
HETATM   21  H   UNL     1       2.779  13.628  94.938  1.00  0.00     0.136 HD
ENDBRANCH  18  20
ENDBRANCH  11  16
ENDBRANCH   9  11
ENDBRANCH   1   7
BRANCH   4  22
HETATM   22  C   UNL     1       8.274   7.461  91.395  1.00  0.00    -0.059 C 
HETATM   23  C   UNL     1       9.097   6.593  91.516  1.00  0.00    -0.059 C 
BRANCH  23  24
HETATM   24  C   UNL     1      10.076   5.560  91.661  1.00  0.00     0.042 A 
HETATM   25  C   UNL     1      10.583   4.919  90.531  1.00  0.00     0.008 A 
HETATM   26  C   UNL     1      11.536   3.910  90.672  1.00  0.00    -0.002 A 
HETATM   27  C   UNL     1      11.982   3.545  91.943  1.00  0.00     0.011 A 
HETATM   28  C   UNL     1      11.474   4.188  93.072  1.00  0.00    -0.002 A 
HETATM   29  C   UNL     1      10.520   5.196  92.930  1.00  0.00     0.008 A 
BRANCH  27  30
HETATM   30  C   UNL     1      13.002   2.468  92.093  1.00  0.00     0.277 C 
BRANCH  30  31
HETATM   31  N   UNL     1      14.047   2.819  93.053  1.00  0.00     0.147 N 
HETATM   32  C   UNL     1      15.066   1.763  93.124  1.00  0.00     0.283 C 
HETATM   33  C   UNL     1      16.150   2.156  94.124  1.00  0.00     0.178 C 
HETATM   34  O   UNL     1      16.745   3.400  93.748  1.00  0.00    -0.350 OA
HETATM   35  C   UNL     1      15.766   4.439  93.708  1.00  0.00     0.178 C 
HETATM   36  C   UNL     1      14.673   4.100  92.699  1.00  0.00     0.283 C 
ENDBRANCH  30  31
ENDBRANCH  27  30
ENDBRANCH  23  24
ENDBRANCH   4  22
TORSDOF 10
ENDMDL
MODEL 4
REMARK VINA RESULT:      -6.1      1.372      1.708
REMARK  10 active torsions:
REMARK  status: ('A' for Active; 'I' for Inactive)
REMARK    1  A    between atoms: O_2  and  C_16 
REMARK    2  A    between atoms: N_5  and  C_9 
REMARK    3  A    between atoms: N_6  and  C_13 
REMARK       I    between atoms: N_6  and  C_22 
REMARK    4  A    between atoms: C_9  and  C_12 
REMARK    5  A    between atoms: C_13  and  C_16 
REMARK    6  A    between atoms: C_13  and  C_21 
REMARK    7  A    between atoms: C_19  and  C_24 
REMARK    8  A    between atoms: C_22  and  C_23 
REMARK    9  A    between atoms: C_27  and  C_30 
REMARK   10  A    between atoms: N_33  and  S_34 
ROOT
HETATM    1  C   UNL     1       5.712  10.040  90.704  1.00  0.00     0.056 A 
HETATM    2  C   UNL     1       5.368   8.710  90.586  1.00  0.00     0.005 A 
HETATM    3  C   UNL     1       6.987  10.443  91.043  1.00  0.00     0.005 A 
HETATM    4  C   UNL     1       7.638   8.120  91.161  1.00  0.00     0.042 A 
HETATM    5  C   UNL     1       6.341   7.738  90.817  1.00  0.00     0.008 A 
HETATM    6  C   UNL     1       7.961   9.472  91.274  1.00  0.00     0.008 A 
ENDROOT
BRANCH   1   7
HETATM    7  C   UNL     1       4.675  11.075  90.456  1.00  0.00     0.254 C 
HETATM    8  O   UNL     1       4.252  11.238  89.314  1.00  0.00    -0.268 OA
HETATM    9  N   UNL     1       4.239  11.778  91.570  1.00  0.00    -0.337 N 
HETATM   10  HN  UNL     1       4.616  11.571  92.488  1.00  0.00     0.164 HD
BRANCH   9  11
HETATM   11  C   UNL     1       3.221  12.796  91.496  1.00  0.00     0.172 C 
BRANCH  11  12
HETATM   12  C   UNL     1       2.198  12.697  92.635  1.00  0.00     0.136 C 
HETATM   13  C   UNL     1       2.140  11.302  93.248  1.00  0.00     0.034 C 
BRANCH  12  14
HETATM   14  O   UNL     1       2.528  13.638  93.656  1.00  0.00    -0.383 OA
HETATM   15  H   UNL     1       3.460  13.507  93.901  1.00  0.00     0.210 HD
ENDBRANCH  12  14
ENDBRANCH  11  12
BRANCH  11  16
HETATM   16  C   UNL     1       3.918  14.152  91.493  1.00  0.00     0.398 A 
HETATM   17  O   UNL     1       3.334  15.206  91.740  1.00  0.00    -0.136 OA
HETATM   18  N   UNL     1       4.245  15.377  90.535  1.00  0.00     0.142 N 
HETATM   19  HN  UNL     1       3.905  16.295  90.589  1.00  0.00     0.338 HD
BRANCH  18  20
HETATM   20  S   UNL     1       4.902  14.680  89.528  1.00  0.00     0.076 SA
HETATM   21  H   UNL     1       5.807  15.239  88.998  1.00  0.00     0.136 HD
ENDBRANCH  18  20
ENDBRANCH  11  16
ENDBRANCH   9  11
ENDBRANCH   1   7
BRANCH   4  22
HETATM   22  C   UNL     1       8.635   7.124  91.401  1.00  0.00    -0.059 C 
HETATM   23  C   UNL     1       9.473   6.286  91.602  1.00  0.00    -0.059 C 
BRANCH  23  24
HETATM   24  C   UNL     1      10.471   5.289  91.841  1.00  0.00     0.042 A 
HETATM   25  C   UNL     1      10.844   4.977  93.148  1.00  0.00     0.008 A 
HETATM   26  C   UNL     1      11.819   4.006  93.381  1.00  0.00    -0.002 A 
HETATM   27  C   UNL     1      12.418   3.348  92.307  1.00  0.00     0.011 A 
HETATM   28  C   UNL     1      12.044   3.661  91.001  1.00  0.00    -0.002 A 
HETATM   29  C   UNL     1      11.070   4.632  90.768  1.00  0.00     0.008 A 
BRANCH  27  30
HETATM   30  C   UNL     1      13.458   2.309  92.558  1.00  0.00     0.277 C 
BRANCH  30  31
HETATM   31  N   UNL     1      14.536   2.796  93.417  1.00  0.00     0.147 N 
HETATM   32  C   UNL     1      15.757   2.003  93.220  1.00  0.00     0.283 C 
HETATM   33  C   UNL     1      16.870   2.536  94.118  1.00  0.00     0.178 C 
HETATM   34  O   UNL     1      17.120   3.914  93.836  1.00  0.00    -0.350 OA
HETATM   35  C   UNL     1      15.946   4.697  94.055  1.00  0.00     0.178 C 
HETATM   36  C   UNL     1      14.811   4.216  93.157  1.00  0.00     0.283 C 
ENDBRANCH  30  31
ENDBRANCH  27  30
ENDBRANCH  23  24
ENDBRANCH   4  22
TORSDOF 10
ENDMDL
MODEL 5
REMARK VINA RESULT:      -6.0      2.065      2.621
REMARK  10 active torsions:
REMARK  status: ('A' for Active; 'I' for Inactive)
REMARK    1  A    between atoms: O_2  and  C_16 
REMARK    2  A    between atoms: N_5  and  C_9 
REMARK    3  A    between atoms: N_6  and  C_13 
REMARK       I    between atoms: N_6  and  C_22 
REMARK    4  A    between atoms: C_9  and  C_12 
REMARK    5  A    between atoms: C_13  and  C_16 
REMARK    6  A    between atoms: C_13  and  C_21 
REMARK    7  A    between atoms: C_19  and  C_24 
REMARK    8  A    between atoms: C_22  and  C_23 
REMARK    9  A    between atoms: C_27  and  C_30 
REMARK   10  A    between atoms: N_33  and  S_34 
ROOT
HETATM    1  C   UNL     1       4.977  10.086  92.463  1.00  0.00     0.056 A 
HETATM    2  C   UNL     1       5.943  10.064  91.480  1.00  0.00     0.005 A 
HETATM    3  C   UNL     1       4.982   9.200  93.520  1.00  0.00     0.005 A 
HETATM    4  C   UNL     1       6.988   8.205  92.615  1.00  0.00     0.042 A 
HETATM    5  C   UNL     1       6.961   9.113  91.555  1.00  0.00     0.008 A 
HETATM    6  C   UNL     1       5.999   8.249  93.597  1.00  0.00     0.008 A 
ENDROOT
BRANCH   1   7
HETATM    7  C   UNL     1       3.894  11.101  92.383  1.00  0.00     0.254 C 
HETATM    8  O   UNL     1       2.802  10.853  92.888  1.00  0.00    -0.268 OA
HETATM    9  N   UNL     1       4.222  12.290  91.747  1.00  0.00    -0.337 N 
HETATM   10  HN  UNL     1       5.153  12.433  91.376  1.00  0.00     0.164 HD
BRANCH   9  11
HETATM   11  C   UNL     1       3.288  13.379  91.611  1.00  0.00     0.172 C 
BRANCH  11  12
HETATM   12  C   UNL     1       3.488  14.469  92.672  1.00  0.00     0.136 C 
HETATM   13  C   UNL     1       2.188  14.849  93.372  1.00  0.00     0.034 C 
BRANCH  12  14
HETATM   14  O   UNL     1       4.425  14.017  93.649  1.00  0.00    -0.383 OA
HETATM   15  H   UNL     1       4.656  13.094  93.447  1.00  0.00     0.210 HD
ENDBRANCH  12  14
ENDBRANCH  11  12
BRANCH  11  16
HETATM   16  C   UNL     1       3.434  13.944  90.202  1.00  0.00     0.398 A 
HETATM   17  O   UNL     1       3.707  13.248  89.226  1.00  0.00    -0.136 OA
HETATM   18  N   UNL     1       4.525  14.530  89.207  1.00  0.00     0.142 N 
HETATM   19  HN  UNL     1       4.850  14.139  88.368  1.00  0.00     0.338 HD
BRANCH  18  20
HETATM   20  S   UNL     1       5.008  15.555  90.012  1.00  0.00     0.076 SA
HETATM   21  H   UNL     1       5.501  15.232  91.044  1.00  0.00     0.136 HD
ENDBRANCH  18  20
ENDBRANCH  11  16
ENDBRANCH   9  11
ENDBRANCH   1   7
BRANCH   4  22
HETATM   22  C   UNL     1       8.029   7.228  92.691  1.00  0.00    -0.059 C 
HETATM   23  C   UNL     1       8.904   6.407  92.756  1.00  0.00    -0.059 C 
BRANCH  23  24
HETATM   24  C   UNL     1       9.946   5.428  92.831  1.00  0.00     0.042 A 
HETATM   25  C   UNL     1      10.646   5.248  94.024  1.00  0.00     0.008 A 
HETATM   26  C   UNL     1      11.663   4.296  94.098  1.00  0.00    -0.002 A 
HETATM   27  C   UNL     1      11.977   3.523  92.979  1.00  0.00     0.011 A 
HETATM   28  C   UNL     1      11.275   3.705  91.787  1.00  0.00    -0.002 A 
HETATM   29  C   UNL     1      10.259   4.657  91.714  1.00  0.00     0.008 A 
BRANCH  27  30
HETATM   30  C   UNL     1      13.062   2.505  93.060  1.00  0.00     0.277 C 
BRANCH  30  31
HETATM   31  N   UNL     1      14.271   3.027  93.694  1.00  0.00     0.147 N 
HETATM   32  C   UNL     1      15.410   2.129  93.463  1.00  0.00     0.283 C 
HETATM   33  C   UNL     1      16.662   2.700  94.124  1.00  0.00     0.178 C 
HETATM   34  O   UNL     1      16.943   4.004  93.612  1.00  0.00    -0.350 OA
HETATM   35  C   UNL     1      15.853   4.892  93.861  1.00  0.00     0.178 C 
HETATM   36  C   UNL     1      14.582   4.374  93.195  1.00  0.00     0.283 C 
ENDBRANCH  30  31
ENDBRANCH  27  30
ENDBRANCH  23  24
ENDBRANCH   4  22
TORSDOF 10
ENDMDL
MODEL 6
REMARK VINA RESULT:      -5.7      1.912      2.422
REMARK  10 active torsions:
REMARK  status: ('A' for Active; 'I' for Inactive)
REMARK    1  A    between atoms: O_2  and  C_16 
REMARK    2  A    between atoms: N_5  and  C_9 
REMARK    3  A    between atoms: N_6  and  C_13 
REMARK       I    between atoms: N_6  and  C_22 
REMARK    4  A    between atoms: C_9  and  C_12 
REMARK    5  A    between atoms: C_13  and  C_16 
REMARK    6  A    between atoms: C_13  and  C_21 
REMARK    7  A    between atoms: C_19  and  C_24 
REMARK    8  A    between atoms: C_22  and  C_23 
REMARK    9  A    between atoms: C_27  and  C_30 
REMARK   10  A    between atoms: N_33  and  S_34 
ROOT
HETATM    1  C   UNL     1       4.666   9.469  91.565  1.00  0.00     0.056 A 
HETATM    2  C   UNL     1       5.516   9.355  90.485  1.00  0.00     0.005 A 
HETATM    3  C   UNL     1       4.804   8.691  92.695  1.00  0.00     0.005 A 
HETATM    4  C   UNL     1       6.711   7.622  91.668  1.00  0.00     0.042 A 
HETATM    5  C   UNL     1       6.551   8.421  90.536  1.00  0.00     0.008 A 
HETATM    6  C   UNL     1       5.838   7.756  92.748  1.00  0.00     0.008 A 
ENDROOT
BRANCH   1   7
HETATM    7  C   UNL     1       3.566  10.466  91.510  1.00  0.00     0.254 C 
HETATM    8  O   UNL     1       2.454  10.111  91.126  1.00  0.00    -0.268 OA
HETATM    9  N   UNL     1       3.886  11.748  91.932  1.00  0.00    -0.337 N 
HETATM   10  HN  UNL     1       4.820  11.962  92.261  1.00  0.00     0.164 HD
BRANCH   9  11
HETATM   11  C   UNL     1       2.921  12.819  91.961  1.00  0.00     0.172 C 
BRANCH  11  12
HETATM   12  C   UNL     1       2.898  13.561  93.303  1.00  0.00     0.136 C 
HETATM   13  C   UNL     1       4.233  13.484  94.036  1.00  0.00     0.034 C 
BRANCH  12  14
HETATM   14  O   UNL     1       2.568  14.932  93.085  1.00  0.00    -0.383 OA
HETATM   15  H   UNL     1       3.395  15.439  93.025  1.00  0.00     0.210 HD
ENDBRANCH  12  14
ENDBRANCH  11  12
BRANCH  11  16
HETATM   16  C   UNL     1       3.242  13.766  90.809  1.00  0.00     0.398 A 
HETATM   17  O   UNL     1       2.387  14.442  90.240  1.00  0.00    -0.136 OA
HETATM   18  N   UNL     1       3.321  13.807  89.223  1.00  0.00     0.142 N 
HETATM   19  HN  UNL     1       2.752  14.309  88.602  1.00  0.00     0.338 HD
BRANCH  18  20
HETATM   20  S   UNL     1       4.219  12.763  89.035  1.00  0.00     0.076 SA
HETATM   21  H   UNL     1       3.889  11.908  88.279  1.00  0.00     0.136 HD
ENDBRANCH  18  20
ENDBRANCH  11  16
ENDBRANCH   9  11
ENDBRANCH   1   7
BRANCH   4  22
HETATM   22  C   UNL     1       7.769   6.662  91.720  1.00  0.00    -0.059 C 
HETATM   23  C   UNL     1       8.659   5.854  91.764  1.00  0.00    -0.059 C 
BRANCH  23  24
HETATM   24  C   UNL     1       9.718   4.894  91.815  1.00  0.00     0.042 A 
HETATM   25  C   UNL     1      10.029   4.140  90.684  1.00  0.00     0.008 A 
HETATM   26  C   UNL     1      11.060   3.202  90.734  1.00  0.00    -0.002 A 
HETATM   27  C   UNL     1      11.781   3.020  91.915  1.00  0.00     0.011 A 
HETATM   28  C   UNL     1      11.469   3.775  93.045  1.00  0.00    -0.002 A 
HETATM   29  C   UNL     1      10.437   4.713  92.995  1.00  0.00     0.008 A 
BRANCH  27  30
HETATM   30  C   UNL     1      12.884   2.019  91.967  1.00  0.00     0.277 C 
BRANCH  30  31
HETATM   31  N   UNL     1      14.165   2.620  92.334  1.00  0.00     0.147 N 
HETATM   32  C   UNL     1      14.178   4.054  92.014  1.00  0.00     0.283 C 
HETATM   33  C   UNL     1      15.519   4.662  92.416  1.00  0.00     0.178 C 
HETATM   34  O   UNL     1      15.759   4.459  93.810  1.00  0.00    -0.350 OA
HETATM   35  C   UNL     1      15.779   3.066  94.124  1.00  0.00     0.178 C 
HETATM   36  C   UNL     1      14.445   2.420  93.763  1.00  0.00     0.283 C 
ENDBRANCH  30  31
ENDBRANCH  27  30
ENDBRANCH  23  24
ENDBRANCH   4  22
TORSDOF 10
ENDMDL
MODEL 7
REMARK VINA RESULT:      -5.7      3.687     12.389
REMARK  10 active torsions:
REMARK  status: ('A' for Active; 'I' for Inactive)
REMARK    1  A    between atoms: O_2  and  C_16 
REMARK    2  A    between atoms: N_5  and  C_9 
REMARK    3  A    between atoms: N_6  and  C_13 
REMARK       I    between atoms: N_6  and  C_22 
REMARK    4  A    between atoms: C_9  and  C_12 
REMARK    5  A    between atoms: C_13  and  C_16 
REMARK    6  A    between atoms: C_13  and  C_21 
REMARK    7  A    between atoms: C_19  and  C_24 
REMARK    8  A    between atoms: C_22  and  C_23 
REMARK    9  A    between atoms: C_27  and  C_30 
REMARK   10  A    between atoms: N_33  and  S_34 
ROOT
HETATM    1  C   UNL     1      10.208   5.605  89.998  1.00  0.00     0.056 A 
HETATM    2  C   UNL     1      10.093   6.394  88.873  1.00  0.00     0.005 A 
HETATM    3  C   UNL     1       9.435   5.808  91.122  1.00  0.00     0.005 A 
HETATM    4  C   UNL     1       8.370   7.661  89.995  1.00  0.00     0.042 A 
HETATM    5  C   UNL     1       9.164   7.435  88.871  1.00  0.00     0.008 A 
HETATM    6  C   UNL     1       8.505   6.848  91.121  1.00  0.00     0.008 A 
ENDROOT
BRANCH   1   7
HETATM    7  C   UNL     1      11.197   4.496  89.999  1.00  0.00     0.254 C 
HETATM    8  O   UNL     1      11.376   3.851  88.968  1.00  0.00    -0.268 OA
HETATM    9  N   UNL     1      11.875   4.287  91.191  1.00  0.00    -0.337 N 
HETATM   10  HN  UNL     1      11.692   4.876  91.995  1.00  0.00     0.164 HD
BRANCH   9  11
HETATM   11  C   UNL     1      12.881   3.266  91.343  1.00  0.00     0.172 C 
BRANCH  11  12
HETATM   12  C   UNL     1      14.285   3.756  90.966  1.00  0.00     0.136 C 
HETATM   13  C   UNL     1      14.768   3.179  89.640  1.00  0.00     0.034 C 
BRANCH  12  14
HETATM   14  O   UNL     1      14.286   5.180  90.880  1.00  0.00    -0.383 OA
HETATM   15  H   UNL     1      15.073   5.513  91.344  1.00  0.00     0.210 HD
ENDBRANCH  12  14
ENDBRANCH  11  12
BRANCH  11  16
HETATM   16  C   UNL     1      12.833   2.776  92.787  1.00  0.00     0.398 A 
HETATM   17  O   UNL     1      12.403   3.462  93.713  1.00  0.00    -0.136 OA
HETATM   18  N   UNL     1      13.692   2.768  94.123  1.00  0.00     0.142 N 
HETATM   19  HN  UNL     1      13.498   3.224  94.970  1.00  0.00     0.338 HD
BRANCH  18  20
HETATM   20  S   UNL     1      14.844   2.172  93.623  1.00  0.00     0.076 SA
HETATM   21  H   UNL     1      15.134   1.113  94.077  1.00  0.00     0.136 HD
ENDBRANCH  18  20
ENDBRANCH  11  16
ENDBRANCH   9  11
ENDBRANCH   1   7
BRANCH   4  22
HETATM   22  C   UNL     1       7.419   8.729  89.994  1.00  0.00    -0.059 C 
HETATM   23  C   UNL     1       6.620   9.627  89.995  1.00  0.00    -0.059 C 
BRANCH  23  24
HETATM   24  C   UNL     1       5.669  10.696  89.994  1.00  0.00     0.042 A 
HETATM   25  C   UNL     1       4.441  10.536  90.636  1.00  0.00     0.008 A 
HETATM   26  C   UNL     1       3.514  11.578  90.633  1.00  0.00    -0.002 A 
HETATM   27  C   UNL     1       3.816  12.780  89.992  1.00  0.00     0.011 A 
HETATM   28  C   UNL     1       5.045  12.938  89.351  1.00  0.00    -0.002 A 
HETATM   29  C   UNL     1       5.972  11.896  89.353  1.00  0.00     0.008 A 
BRANCH  27  30
HETATM   30  C   UNL     1       2.824  13.893  89.992  1.00  0.00     0.277 C 
BRANCH  30  31
HETATM   31  N   UNL     1       2.808  14.624  91.258  1.00  0.00     0.147 N 
HETATM   32  C   UNL     1       1.946  13.948  92.238  1.00  0.00     0.283 C 
HETATM   33  C   UNL     1       1.954  14.723  93.554  1.00  0.00     0.178 C 
HETATM   34  O   UNL     1       3.287  14.836  94.056  1.00  0.00    -0.350 OA
HETATM   35  C   UNL     1       4.124  15.519  93.122  1.00  0.00     0.178 C 
HETATM   36  C   UNL     1       4.168  14.766  91.797  1.00  0.00     0.283 C 
ENDBRANCH  30  31
ENDBRANCH  27  30
ENDBRANCH  23  24
ENDBRANCH   4  22
TORSDOF 10
ENDMDL
MODEL 8
REMARK VINA RESULT:      -5.6      3.623     12.535
REMARK  10 active torsions:
REMARK  status: ('A' for Active; 'I' for Inactive)
REMARK    1  A    between atoms: O_2  and  C_16 
REMARK    2  A    between atoms: N_5  and  C_9 
REMARK    3  A    between atoms: N_6  and  C_13 
REMARK       I    between atoms: N_6  and  C_22 
REMARK    4  A    between atoms: C_9  and  C_12 
REMARK    5  A    between atoms: C_13  and  C_16 
REMARK    6  A    between atoms: C_13  and  C_21 
REMARK    7  A    between atoms: C_19  and  C_24 
REMARK    8  A    between atoms: C_22  and  C_23 
REMARK    9  A    between atoms: C_27  and  C_30 
REMARK   10  A    between atoms: N_33  and  S_34 
ROOT
HETATM    1  C   UNL     1      10.227   5.149  91.908  1.00  0.00     0.056 A 
HETATM    2  C   UNL     1       9.503   5.694  92.947  1.00  0.00     0.005 A 
HETATM    3  C   UNL     1      10.117   5.611  90.613  1.00  0.00     0.005 A 
HETATM    4  C   UNL     1       8.500   7.233  91.379  1.00  0.00     0.042 A 
HETATM    5  C   UNL     1       8.629   6.748  92.680  1.00  0.00     0.008 A 
HETATM    6  C   UNL     1       9.244   6.665  90.345  1.00  0.00     0.008 A 
ENDROOT
BRANCH   1   7
HETATM    7  C   UNL     1      11.159   4.028  92.193  1.00  0.00     0.254 C 
HETATM    8  O   UNL     1      10.745   2.873  92.128  1.00  0.00    -0.268 OA
HETATM    9  N   UNL     1      12.466   4.385  92.495  1.00  0.00    -0.337 N 
HETATM   10  HN  UNL     1      12.741   5.360  92.505  1.00  0.00     0.164 HD
BRANCH   9  11
HETATM   11  C   UNL     1      13.492   3.412  92.770  1.00  0.00     0.172 C 
BRANCH  11  12
HETATM   12  C   UNL     1      14.047   2.758  91.499  1.00  0.00     0.136 C 
HETATM   13  C   UNL     1      14.015   3.697  90.298  1.00  0.00     0.034 C 
BRANCH  12  14
HETATM   14  O   UNL     1      15.393   2.341  91.725  1.00  0.00    -0.383 OA
HETATM   15  H   UNL     1      15.646   2.604  92.626  1.00  0.00     0.210 HD
ENDBRANCH  12  14
ENDBRANCH  11  12
BRANCH  11  16
HETATM   16  C   UNL     1      14.594   4.109  93.562  1.00  0.00     0.398 A 
HETATM   17  O   UNL     1      15.204   5.089  93.139  1.00  0.00    -0.136 OA
HETATM   18  N   UNL     1      16.169   4.098  93.770  1.00  0.00     0.142 N 
HETATM   19  HN  UNL     1      16.816   4.794  93.529  1.00  0.00     0.338 HD
BRANCH  18  20
HETATM   20  S   UNL     1      16.319   2.762  94.124  1.00  0.00     0.076 SA
HETATM   21  H   UNL     1      15.454   2.022  93.784  1.00  0.00     0.136 HD
ENDBRANCH  18  20
ENDBRANCH  11  16
ENDBRANCH   9  11
ENDBRANCH   1   7
BRANCH   4  22
HETATM   22  C   UNL     1       7.602   8.312  91.104  1.00  0.00    -0.059 C 
HETATM   23  C   UNL     1       6.847   9.218  90.873  1.00  0.00    -0.059 C 
BRANCH  23  24
HETATM   24  C   UNL     1       5.948  10.297  90.598  1.00  0.00     0.042 A 
HETATM   25  C   UNL     1       6.286  11.260  89.647  1.00  0.00     0.008 A 
HETATM   26  C   UNL     1       5.411  12.312  89.381  1.00  0.00    -0.002 A 
HETATM   27  C   UNL     1       4.197  12.400  90.063  1.00  0.00     0.011 A 
HETATM   28  C   UNL     1       3.860  11.436  91.014  1.00  0.00    -0.002 A 
HETATM   29  C   UNL     1       4.736  10.384  91.280  1.00  0.00     0.008 A 
BRANCH  27  30
HETATM   30  C   UNL     1       3.261  13.525  89.776  1.00  0.00     0.277 C 
BRANCH  30  31
HETATM   31  N   UNL     1       3.080  14.407  90.927  1.00  0.00     0.147 N 
HETATM   32  C   UNL     1       2.138  13.819  91.890  1.00  0.00     0.283 C 
HETATM   33  C   UNL     1       1.973  14.752  93.087  1.00  0.00     0.178 C 
HETATM   34  O   UNL     1       3.237  14.991  93.709  1.00  0.00    -0.350 OA
HETATM   35  C   UNL     1       4.150  15.590  92.788  1.00  0.00     0.178 C 
HETATM   36  C   UNL     1       4.366  14.679  91.584  1.00  0.00     0.283 C 
ENDBRANCH  30  31
ENDBRANCH  27  30
ENDBRANCH  23  24
ENDBRANCH   4  22
TORSDOF 10
ENDMDL
MODEL 9
REMARK VINA RESULT:      -5.6      3.610     12.350
REMARK  10 active torsions:
REMARK  status: ('A' for Active; 'I' for Inactive)
REMARK    1  A    between atoms: O_2  and  C_16 
REMARK    2  A    between atoms: N_5  and  C_9 
REMARK    3  A    between atoms: N_6  and  C_13 
REMARK       I    between atoms: N_6  and  C_22 
REMARK    4  A    between atoms: C_9  and  C_12 
REMARK    5  A    between atoms: C_13  and  C_16 
REMARK    6  A    between atoms: C_13  and  C_21 
REMARK    7  A    between atoms: C_19  and  C_24 
REMARK    8  A    between atoms: C_22  and  C_23 
REMARK    9  A    between atoms: C_27  and  C_30 
REMARK   10  A    between atoms: N_33  and  S_34 
ROOT
HETATM    1  C   UNL     1      10.094   5.805  89.910  1.00  0.00     0.056 A 
HETATM    2  C   UNL     1       9.189   5.883  90.948  1.00  0.00     0.005 A 
HETATM    3  C   UNL     1      10.118   6.727  88.885  1.00  0.00     0.005 A 
HETATM    4  C   UNL     1       8.271   7.874  89.936  1.00  0.00     0.042 A 
HETATM    5  C   UNL     1       8.266   6.929  90.962  1.00  0.00     0.008 A 
HETATM    6  C   UNL     1       9.196   7.774  88.898  1.00  0.00     0.008 A 
ENDROOT
BRANCH   1   7
HETATM    7  C   UNL     1      11.078   4.692  89.898  1.00  0.00     0.254 C 
HETATM    8  O   UNL     1      11.237   4.044  88.866  1.00  0.00    -0.268 OA
HETATM    9  N   UNL     1      11.774   4.482  91.080  1.00  0.00    -0.337 N 
HETATM   10  HN  UNL     1      11.607   5.074  91.885  1.00  0.00     0.164 HD
BRANCH   9  11
HETATM   11  C   UNL     1      12.778   3.458  91.217  1.00  0.00     0.172 C 
BRANCH  11  12
HETATM   12  C   UNL     1      14.202   4.026  91.275  1.00  0.00     0.136 C 
HETATM   13  C   UNL     1      15.260   2.986  90.924  1.00  0.00     0.034 C 
BRANCH  12  14
HETATM   14  O   UNL     1      14.314   5.125  90.372  1.00  0.00    -0.383 OA
HETATM   15  H   UNL     1      14.788   4.821  89.579  1.00  0.00     0.210 HD
ENDBRANCH  12  14
ENDBRANCH  11  12
BRANCH  11  16
HETATM   16  C   UNL     1      12.452   2.651  92.469  1.00  0.00     0.398 A 
HETATM   17  O   UNL     1      11.416   2.805  93.114  1.00  0.00    -0.136 OA
HETATM   18  N   UNL     1      12.609   2.694  94.049  1.00  0.00     0.142 N 
HETATM   19  HN  UNL     1      11.904   2.779  94.726  1.00  0.00     0.338 HD
BRANCH  18  20
HETATM   20  S   UNL     1      13.991   2.835  94.114  1.00  0.00     0.076 SA
HETATM   21  H   UNL     1      14.402   3.734  94.773  1.00  0.00     0.136 HD
ENDBRANCH  18  20
ENDBRANCH  11  16
ENDBRANCH   9  11
ENDBRANCH   1   7
BRANCH   4  22
HETATM   22  C   UNL     1       7.323   8.945  89.948  1.00  0.00    -0.059 C 
HETATM   23  C   UNL     1       6.527   9.845  89.959  1.00  0.00    -0.059 C 
BRANCH  23  24
HETATM   24  C   UNL     1       5.579  10.917  89.971  1.00  0.00     0.042 A 
HETATM   25  C   UNL     1       5.856  12.099  89.284  1.00  0.00     0.008 A 
HETATM   26  C   UNL     1       4.933  13.145  89.297  1.00  0.00    -0.002 A 
HETATM   27  C   UNL     1       3.734  13.007  89.996  1.00  0.00     0.011 A 
HETATM   28  C   UNL     1       3.458  11.825  90.682  1.00  0.00    -0.002 A 
HETATM   29  C   UNL     1       4.381  10.779  90.670  1.00  0.00     0.008 A 
BRANCH  27  30
HETATM   30  C   UNL     1       2.747  14.125  90.008  1.00  0.00     0.277 C 
BRANCH  30  31
HETATM   31  N   UNL     1       2.680  14.796  91.305  1.00  0.00     0.147 N 
HETATM   32  C   UNL     1       1.802  14.061  92.226  1.00  0.00     0.283 C 
HETATM   33  C   UNL     1       1.757  14.773  93.576  1.00  0.00     0.178 C 
HETATM   34  O   UNL     1       3.072  14.885  94.123  1.00  0.00    -0.350 OA
HETATM   35  C   UNL     1       3.924  15.625  93.248  1.00  0.00     0.178 C 
HETATM   36  C   UNL     1       4.021  14.935  91.891  1.00  0.00     0.283 C 
ENDBRANCH  30  31
ENDBRANCH  27  30
ENDBRANCH  23  24
ENDBRANCH   4  22
TORSDOF 10
ENDMDL
