MODEL 1
REMARK VINA RESULT:      -7.0      0.000      0.000
REMARK  10 active torsions:
REMARK  status: ('A' for Active; 'I' for Inactive)
REMARK    1  A    between atoms: O_2  and  C_18 
REMARK    2  A    between atoms: O_5  and  N_8 
REMARK    3  A    between atoms: N_6  and  C_11 
REMARK    4  A    between atoms: N_7  and  C_15 
REMARK       I    between atoms: N_7  and  C_24 
REMARK       I    between atoms: N_8  and  C_23 
REMARK    5  A    between atoms: C_11  and  C_14 
REMARK    6  A    between atoms: C_15  and  C_18 
REMARK    7  A    between atoms: C_15  and  C_23 
REMARK    8  A    between atoms: C_21  and  C_26 
REMARK    9  A    between atoms: C_24  and  C_25 
REMARK   10  A    between atoms: C_29  and  C_32 
ROOT
HETATM    1  O   UNK     0      16.504   4.296  94.107  0.00  0.00    -0.388 OA
HETATM    2  N   UNK     0      14.737   2.576  92.686  0.00  0.00     0.096 N 
HETATM    3  C   UNK     0      14.557   4.035  92.683  0.00  0.00     0.299 C 
HETATM    4  C   UNK     0      15.383   2.152  93.934  0.00  0.00     0.299 C 
HETATM    5  C   UNK     0      15.905   4.723  92.882  0.00  0.00     0.198 C 
HETATM    6  C   UNK     0      16.712   2.884  94.105  0.00  0.00     0.198 C 
ENDROOT
BRANCH   2   7
HETATM    7  C   UNK     0      13.456   1.896  92.507  0.00  0.00     0.311 C 
BRANCH   7   8
HETATM    8  C   UNK     0      12.345   2.846  92.213  0.00  0.00    -0.030 A 
HETATM    9  C   UNK     0      11.815   3.635  93.235  0.00  0.00     0.010 A 
HETATM   10  C   UNK     0      10.774   4.522  92.962  0.00  0.00     0.021 A 
HETATM   11  C   UNK     0      10.265   4.621  91.668  0.00  0.00     0.018 A 
HETATM   12  C   UNK     0      10.793   3.834  90.647  0.00  0.00     0.021 A 
HETATM   13  C   UNK     0      11.833   2.946  90.919  0.00  0.00     0.010 A 
BRANCH  11  14
HETATM   14  C   UNK     0       9.198   5.533  91.388  0.00  0.00    -0.061 C 
HETATM   15  C   UNK     0       8.302   6.299  91.152  0.00  0.00    -0.061 C 
BRANCH  15  16
HETATM   16  C   UNK     0       7.238   7.211  90.873  0.00  0.00     0.018 A 
HETATM   17  C   UNK     0       7.340   8.544  91.273  0.00  0.00     0.022 A 
HETATM   18  C   UNK     0       6.302   9.435  90.998  0.00  0.00     0.018 A 
HETATM   19  C   UNK     0       5.187   8.974  90.331  0.00  0.00     0.032 A 
HETATM   20  C   UNK     0       5.061   7.662  89.926  0.00  0.00     0.018 A 
HETATM   21  C   UNK     0       6.099   6.770  90.200  0.00  0.00     0.022 A 
BRANCH  19  22
HETATM   22  C   UNK     0       4.081   9.923  90.041  0.00  0.00     0.252 C 
HETATM   23  O   UNK     0       2.981   9.481  89.716  0.00  0.00    -0.268 OA
HETATM   24  N   UNK     0       4.381  11.270  90.187  0.00  0.00    -0.341 N 
HETATM   25  H   UNK     0       5.306  11.560  90.482  0.00  0.00     0.163 HD
BRANCH  24  26
HETATM   26  C   UNK     0       3.409  12.310  89.965  0.00  0.00     0.207 C 
BRANCH  26  27
HETATM   27  C   UNK     0       2.995  13.021  91.260  0.00  0.00     0.146 C 
HETATM   28  C   UNK     0       2.167  12.128  92.178  0.00  0.00     0.042 C 
BRANCH  27  29
HETATM   29  O   UNK     0       4.161  13.452  91.962  0.00  0.00    -0.393 OA
HETATM   30  H   UNK     0       3.903  13.677  92.871  0.00  0.00     0.210 HD
ENDBRANCH  27  29
ENDBRANCH  26  27
BRANCH  26  31
HETATM   31  C   UNK     0       3.998  13.292  88.958  0.00  0.00     0.266 C 
HETATM   32  O   UNK     0       4.139  14.490  89.194  0.00  0.00    -0.269 OA
HETATM   33  N   UNK     0       4.308  12.687  87.764  0.00  0.00    -0.236 N 
HETATM   34  H   UNK     0       4.122  11.725  87.505  0.00  0.00     0.197 HD
BRANCH  33  35
HETATM   35  O   UNK     0       4.820  13.530  86.768  0.00  0.00    -0.287 OA
HETATM   36  H   UNK     0       4.533  14.395  87.106  0.00  0.00     0.244 HD
ENDBRANCH  33  35
ENDBRANCH  26  31
ENDBRANCH  24  26
ENDBRANCH  19  22
ENDBRANCH  15  16
ENDBRANCH  11  14
ENDBRANCH   7   8
ENDBRANCH   2   7
TORSDOF 10
ENDMDL
