MODEL 1
REMARK VINA RESULT:      -6.4      0.000      0.000
REMARK  14 active torsions:
REMARK  status: ('A' for Active; 'I' for Inactive)
REMARK    1  A    between atoms: O_2  and  C_18 
REMARK    2  A    between atoms: C_5  and  C_8 
REMARK    3  A    between atoms: C_5  and  O_35 
REMARK    4  A    between atoms: C_5  and  C_36 
REMARK    5  A    between atoms: N_6  and  C_11 
REMARK    6  A    between atoms: N_7  and  C_15 
REMARK       I    between atoms: N_7  and  C_24 
REMARK    7  A    between atoms: C_8  and  C_23 
REMARK    8  A    between atoms: C_11  and  C_14 
REMARK    9  A    between atoms: C_15  and  C_18 
REMARK   10  A    between atoms: C_15  and  C_23 
REMARK   11  A    between atoms: C_21  and  C_26 
REMARK   12  A    between atoms: C_24  and  C_25 
REMARK   13  A    between atoms: C_29  and  C_32 
REMARK   14  A    between atoms: C_36  and  O_39 
ROOT
HETATM    1  O   UNL     1      16.824   4.025  93.954  1.00  0.00    -0.350 OA
HETATM    2  N   UNL     1      14.393   2.758  93.185  1.00  0.00     0.147 N 
HETATM    3  C   UNL     1      15.688   2.075  93.060  1.00  0.00     0.283 C 
HETATM    4  C   UNL     1      14.576   4.211  93.060  1.00  0.00     0.283 C 
HETATM    5  C   UNL     1      16.660   2.614  94.107  1.00  0.00     0.178 C 
HETATM    6  C   UNL     1      15.574   4.699  94.105  1.00  0.00     0.178 C 
ENDROOT
BRANCH   2   7
HETATM    7  C   UNL     1      13.449   2.265  92.183  1.00  0.00     0.277 C 
BRANCH   7   8
HETATM    8  C   UNL     1      12.331   3.220  91.938  1.00  0.00     0.011 A 
HETATM    9  C   UNL     1      11.373   3.441  92.928  1.00  0.00    -0.002 A 
HETATM   10  C   UNL     1      10.326   4.332  92.699  1.00  0.00     0.008 A 
HETATM   11  C   UNL     1      10.238   5.005  91.480  1.00  0.00     0.042 A 
HETATM   12  C   UNL     1      11.194   4.786  90.491  1.00  0.00     0.008 A 
HETATM   13  C   UNL     1      12.242   3.894  90.719  1.00  0.00    -0.002 A 
BRANCH  11  14
HETATM   14  C   UNL     1       9.165   5.921  91.246  1.00  0.00    -0.059 C 
HETATM   15  C   UNL     1       8.263   6.691  91.048  1.00  0.00    -0.059 C 
BRANCH  15  16
HETATM   16  C   UNL     1       7.189   7.606  90.813  1.00  0.00     0.042 A 
HETATM   17  C   UNL     1       6.894   8.014  89.512  1.00  0.00     0.008 A 
HETATM   18  C   UNL     1       5.845   8.905  89.283  1.00  0.00     0.005 A 
HETATM   19  C   UNL     1       5.116   9.367  90.359  1.00  0.00     0.056 A 
HETATM   20  C   UNL     1       5.389   8.979  91.654  1.00  0.00     0.005 A 
HETATM   21  C   UNL     1       6.437   8.089  91.884  1.00  0.00     0.008 A 
BRANCH  19  22
HETATM   22  C   UNL     1       4.000  10.317  90.115  1.00  0.00     0.254 C 
HETATM   23  O   UNL     1       3.229  10.110  89.180  1.00  0.00    -0.268 OA
HETATM   24  N   UNL     1       3.901  11.380  91.002  1.00  0.00    -0.335 N 
HETATM   25  HN  UNL     1       4.560  11.473  91.766  1.00  0.00     0.164 HD
BRANCH  24  26
HETATM   26  C   UNL     1       2.859  12.371  90.912  1.00  0.00     0.169 C 
BRANCH  26  27
HETATM   27  C   UNL     1       1.896  12.330  92.105  1.00  0.00     0.138 C 
HETATM   28  C   UNL     1       2.474  11.575  93.296  1.00  0.00     0.034 C 
BRANCH  27  29
HETATM   29  O   UNL     1       1.579  13.662  92.509  1.00  0.00    -0.383 OA
HETATM   30  H   UNL     1       2.369  14.050  92.923  1.00  0.00     0.210 HD
ENDBRANCH  27  29
ENDBRANCH  26  27
BRANCH  26  31
HETATM   31  C   UNL     1       3.526  13.737  90.784  1.00  0.00     0.194 C 
HETATM   32  O   UNL     1       4.075  14.305  91.727  1.00  0.00    -0.289 OA
BRANCH  31  33
HETATM   33  C   UNL     1       3.403  14.258  89.519  1.00  0.00     0.053 C 
BRANCH  33  34
HETATM   34  C   UNL     1       4.577  14.285  88.754  1.00  0.00     0.220 C 
BRANCH  34  35
HETATM   35  O   UNL     1       5.518  14.592  89.511  1.00  0.00    -0.371 OA
HETATM   36  H   UNL     1       5.018  15.066  90.158  1.00  0.00     0.211 HD
ENDBRANCH  34  35
BRANCH  34  37
HETATM   37  C   UNL     1       4.820  13.089  88.058  1.00  0.00     0.185 C 
HETATM   38  O   UNL     1       6.041  13.239  88.549  1.00  0.00    -0.647 OA
BRANCH  37  39
HETATM   39  O   UNL     1       4.208  12.353  87.344  1.00  0.00    -0.774 OA
HETATM   40  H   UNL     1       4.651  12.320  86.299  1.00  0.00     0.167 HD
ENDBRANCH  37  39
ENDBRANCH  34  37
ENDBRANCH  33  34
ENDBRANCH  31  33
ENDBRANCH  26  31
ENDBRANCH  24  26
ENDBRANCH  19  22
ENDBRANCH  15  16
ENDBRANCH  11  14
ENDBRANCH   7   8
ENDBRANCH   2   7
TORSDOF 14
ENDMDL
MODEL 2
REMARK VINA RESULT:      -6.0      2.259      3.469
REMARK  14 active torsions:
REMARK  status: ('A' for Active; 'I' for Inactive)
REMARK    1  A    between atoms: O_2  and  C_18 
REMARK    2  A    between atoms: C_5  and  C_8 
REMARK    3  A    between atoms: C_5  and  O_35 
REMARK    4  A    between atoms: C_5  and  C_36 
REMARK    5  A    between atoms: N_6  and  C_11 
REMARK    6  A    between atoms: N_7  and  C_15 
REMARK       I    between atoms: N_7  and  C_24 
REMARK    7  A    between atoms: C_8  and  C_23 
REMARK    8  A    between atoms: C_11  and  C_14 
REMARK    9  A    between atoms: C_15  and  C_18 
REMARK   10  A    between atoms: C_15  and  C_23 
REMARK   11  A    between atoms: C_21  and  C_26 
REMARK   12  A    between atoms: C_24  and  C_25 
REMARK   13  A    between atoms: C_29  and  C_32 
REMARK   14  A    between atoms: C_36  and  O_39 
ROOT
HETATM    1  O   UNL     1      17.308   4.820  93.770  1.00  0.00    -0.350 OA
HETATM    2  N   UNL     1      15.322   2.782  93.723  1.00  0.00     0.147 N 
HETATM    3  C   UNL     1      16.725   2.495  93.392  1.00  0.00     0.283 C 
HETATM    4  C   UNL     1      15.001   4.176  93.389  1.00  0.00     0.283 C 
HETATM    5  C   UNL     1      17.640   3.476  94.122  1.00  0.00     0.178 C 
HETATM    6  C   UNL     1      15.955   5.117  94.118  1.00  0.00     0.178 C 
ENDROOT
BRANCH   2   7
HETATM    7  C   UNL     1      14.427   1.860  93.026  1.00  0.00     0.277 C 
BRANCH   7   8
HETATM    8  C   UNL     1      13.302   2.565  92.348  1.00  0.00     0.011 A 
HETATM    9  C   UNL     1      13.532   3.262  91.161  1.00  0.00    -0.002 A 
HETATM   10  C   UNL     1      12.481   3.924  90.526  1.00  0.00     0.008 A 
HETATM   11  C   UNL     1      11.201   3.887  91.078  1.00  0.00     0.042 A 
HETATM   12  C   UNL     1      10.970   3.191  92.263  1.00  0.00     0.008 A 
HETATM   13  C   UNL     1      12.021   2.530  92.898  1.00  0.00    -0.002 A 
BRANCH  11  14
HETATM   14  C   UNL     1      10.122   4.564  90.426  1.00  0.00    -0.059 C 
HETATM   15  C   UNL     1       9.216   5.134  89.878  1.00  0.00    -0.059 C 
BRANCH  15  16
HETATM   16  C   UNL     1       8.138   5.810  89.225  1.00  0.00     0.042 A 
HETATM   17  C   UNL     1       8.312   6.315  87.936  1.00  0.00     0.008 A 
HETATM   18  C   UNL     1       7.259   6.972  87.299  1.00  0.00     0.005 A 
HETATM   19  C   UNL     1       6.059   7.109  87.964  1.00  0.00     0.056 A 
HETATM   20  C   UNL     1       5.863   6.619  89.238  1.00  0.00     0.005 A 
HETATM   21  C   UNL     1       6.914   5.962  89.876  1.00  0.00     0.008 A 
BRANCH  19  22
HETATM   22  C   UNL     1       4.939   7.811  87.285  1.00  0.00     0.254 C 
HETATM   23  O   UNL     1       5.044   8.098  86.095  1.00  0.00    -0.268 OA
HETATM   24  N   UNL     1       3.822   8.072  88.067  1.00  0.00    -0.335 N 
HETATM   25  HN  UNL     1       3.797   7.783  89.038  1.00  0.00     0.164 HD
BRANCH  24  26
HETATM   26  C   UNL     1       2.646   8.723  87.547  1.00  0.00     0.169 C 
BRANCH  26  27
HETATM   27  C   UNL     1       1.348   8.005  87.937  1.00  0.00     0.138 C 
HETATM   28  C   UNL     1       1.214   6.640  87.271  1.00  0.00     0.034 C 
BRANCH  27  29
HETATM   29  O   UNL     1       1.303   7.836  89.353  1.00  0.00    -0.383 OA
HETATM   30  H   UNL     1       1.682   8.629  89.767  1.00  0.00     0.210 HD
ENDBRANCH  27  29
ENDBRANCH  26  27
BRANCH  26  31
HETATM   31  C   UNL     1       2.654  10.165  88.046  1.00  0.00     0.194 C 
HETATM   32  O   UNL     1       1.983  11.056  87.528  1.00  0.00    -0.289 OA
BRANCH  31  33
HETATM   33  C   UNL     1       3.516  10.345  89.100  1.00  0.00     0.053 C 
BRANCH  33  34
HETATM   34  C   UNL     1       4.291  11.512  89.062  1.00  0.00     0.220 C 
BRANCH  34  35
HETATM   35  O   UNL     1       4.565  11.748  87.870  1.00  0.00    -0.371 OA
HETATM   36  H   UNL     1       4.274  10.928  87.502  1.00  0.00     0.211 HD
ENDBRANCH  34  35
BRANCH  34  37
HETATM   37  C   UNL     1       3.683  12.609  89.697  1.00  0.00     0.185 C 
HETATM   38  O   UNL     1       4.281  12.115  90.770  1.00  0.00    -0.647 OA
BRANCH  37  39
HETATM   39  O   UNL     1       2.950  13.501  89.389  1.00  0.00    -0.774 OA
HETATM   40  H   UNL     1       2.044  13.551  90.070  1.00  0.00     0.167 HD
ENDBRANCH  37  39
ENDBRANCH  34  37
ENDBRANCH  33  34
ENDBRANCH  31  33
ENDBRANCH  26  31
ENDBRANCH  24  26
ENDBRANCH  19  22
ENDBRANCH  15  16
ENDBRANCH  11  14
ENDBRANCH   7   8
ENDBRANCH   2   7
TORSDOF 14
ENDMDL
MODEL 3
REMARK VINA RESULT:      -5.3      1.571      2.807
REMARK  14 active torsions:
REMARK  status: ('A' for Active; 'I' for Inactive)
REMARK    1  A    between atoms: O_2  and  C_18 
REMARK    2  A    between atoms: C_5  and  C_8 
REMARK    3  A    between atoms: C_5  and  O_35 
REMARK    4  A    between atoms: C_5  and  C_36 
REMARK    5  A    between atoms: N_6  and  C_11 
REMARK    6  A    between atoms: N_7  and  C_15 
REMARK       I    between atoms: N_7  and  C_24 
REMARK    7  A    between atoms: C_8  and  C_23 
REMARK    8  A    between atoms: C_11  and  C_14 
REMARK    9  A    between atoms: C_15  and  C_18 
REMARK   10  A    between atoms: C_15  and  C_23 
REMARK   11  A    between atoms: C_21  and  C_26 
REMARK   12  A    between atoms: C_24  and  C_25 
REMARK   13  A    between atoms: C_29  and  C_32 
REMARK   14  A    between atoms: C_36  and  O_39 
ROOT
HETATM    1  O   UNL     1      16.025   3.663  93.406  1.00  0.00    -0.350 OA
HETATM    2  N   UNL     1      13.899   2.041  92.431  1.00  0.00     0.147 N 
HETATM    3  C   UNL     1      14.357   3.229  91.697  1.00  0.00     0.283 C 
HETATM    4  C   UNL     1      14.133   2.216  93.871  1.00  0.00     0.283 C 
HETATM    5  C   UNL     1      15.830   3.488  92.001  1.00  0.00     0.178 C 
HETATM    6  C   UNL     1      15.611   2.500  94.124  1.00  0.00     0.178 C 
ENDROOT
BRANCH   2   7
HETATM    7  C   UNL     1      12.486   1.779  92.162  1.00  0.00     0.277 C 
BRANCH   7   8
HETATM    8  C   UNL     1      11.727   3.025  91.852  1.00  0.00     0.011 A 
HETATM    9  C   UNL     1      11.338   3.879  92.885  1.00  0.00    -0.002 A 
HETATM   10  C   UNL     1      10.626   5.043  92.596  1.00  0.00     0.008 A 
HETATM   11  C   UNL     1      10.306   5.353  91.275  1.00  0.00     0.042 A 
HETATM   12  C   UNL     1      10.694   4.501  90.243  1.00  0.00     0.008 A 
HETATM   13  C   UNL     1      11.405   3.336  90.531  1.00  0.00    -0.002 A 
BRANCH  11  14
HETATM   14  C   UNL     1       9.577   6.548  90.978  1.00  0.00    -0.059 C 
HETATM   15  C   UNL     1       8.965   7.552  90.729  1.00  0.00    -0.059 C 
BRANCH  15  16
HETATM   16  C   UNL     1       8.236   8.746  90.433  1.00  0.00     0.042 A 
HETATM   17  C   UNL     1       8.728   9.646  89.486  1.00  0.00     0.008 A 
HETATM   18  C   UNL     1       8.015  10.809  89.196  1.00  0.00     0.005 A 
HETATM   19  C   UNL     1       6.828  11.047  89.857  1.00  0.00     0.056 A 
HETATM   20  C   UNL     1       6.322  10.174  90.797  1.00  0.00     0.005 A 
HETATM   21  C   UNL     1       7.033   9.010  91.088  1.00  0.00     0.008 A 
BRANCH  19  22
HETATM   22  C   UNL     1       6.071  12.287  89.549  1.00  0.00     0.254 C 
HETATM   23  O   UNL     1       6.260  12.854  88.475  1.00  0.00    -0.268 OA
HETATM   24  N   UNL     1       5.167  12.704  90.516  1.00  0.00    -0.335 N 
HETATM   25  HN  UNL     1       5.046  12.170  91.368  1.00  0.00     0.164 HD
BRANCH  24  26
HETATM   26  C   UNL     1       4.341  13.874  90.353  1.00  0.00     0.169 C 
BRANCH  26  27
HETATM   27  C   UNL     1       3.111  13.614  89.475  1.00  0.00     0.138 C 
HETATM   28  C   UNL     1       2.939  12.138  89.132  1.00  0.00     0.034 C 
BRANCH  27  29
HETATM   29  O   UNL     1       1.939  14.073  90.148  1.00  0.00    -0.383 OA
HETATM   30  H   UNL     1       1.203  14.077  89.512  1.00  0.00     0.210 HD
ENDBRANCH  27  29
ENDBRANCH  26  27
BRANCH  26  31
HETATM   31  C   UNL     1       3.939  14.357  91.743  1.00  0.00     0.194 C 
HETATM   32  O   UNL     1       3.452  15.466  91.951  1.00  0.00    -0.289 OA
BRANCH  31  33
HETATM   33  C   UNL     1       4.221  13.430  92.716  1.00  0.00     0.053 C 
BRANCH  33  34
HETATM   34  C   UNL     1       3.117  12.935  93.426  1.00  0.00     0.220 C 
BRANCH  34  35
HETATM   35  O   UNL     1       2.423  13.909  93.775  1.00  0.00    -0.371 OA
HETATM   36  H   UNL     1       2.977  14.223  94.473  1.00  0.00     0.211 HD
ENDBRANCH  34  35
BRANCH  34  37
HETATM   37  C   UNL     1       2.375  11.979  92.712  1.00  0.00     0.185 C 
HETATM   38  O   UNL     1       3.469  11.250  92.864  1.00  0.00    -0.647 OA
BRANCH  37  39
HETATM   39  O   UNL     1       1.300  11.915  92.194  1.00  0.00    -0.774 OA
HETATM   40  H   UNL     1       1.103  10.884  91.765  1.00  0.00     0.167 HD
ENDBRANCH  37  39
ENDBRANCH  34  37
ENDBRANCH  33  34
ENDBRANCH  31  33
ENDBRANCH  26  31
ENDBRANCH  24  26
ENDBRANCH  19  22
ENDBRANCH  15  16
ENDBRANCH  11  14
ENDBRANCH   7   8
ENDBRANCH   2   7
TORSDOF 14
ENDMDL
MODEL 4
REMARK VINA RESULT:      -3.8      1.650      3.078
REMARK  14 active torsions:
REMARK  status: ('A' for Active; 'I' for Inactive)
REMARK    1  A    between atoms: O_2  and  C_18 
REMARK    2  A    between atoms: C_5  and  C_8 
REMARK    3  A    between atoms: C_5  and  O_35 
REMARK    4  A    between atoms: C_5  and  C_36 
REMARK    5  A    between atoms: N_6  and  C_11 
REMARK    6  A    between atoms: N_7  and  C_15 
REMARK       I    between atoms: N_7  and  C_24 
REMARK    7  A    between atoms: C_8  and  C_23 
REMARK    8  A    between atoms: C_11  and  C_14 
REMARK    9  A    between atoms: C_15  and  C_18 
REMARK   10  A    between atoms: C_15  and  C_23 
REMARK   11  A    between atoms: C_21  and  C_26 
REMARK   12  A    between atoms: C_24  and  C_25 
REMARK   13  A    between atoms: C_29  and  C_32 
REMARK   14  A    between atoms: C_36  and  O_39 
ROOT
HETATM    1  O   UNL     1      16.759   3.879  92.887  1.00  0.00    -0.350 OA
HETATM    2  N   UNL     1      14.655   1.962  92.921  1.00  0.00     0.147 N 
HETATM    3  C   UNL     1      15.193   2.489  91.659  1.00  0.00     0.283 C 
HETATM    4  C   UNL     1      14.801   2.963  93.987  1.00  0.00     0.283 C 
HETATM    5  C   UNL     1      16.651   2.901  91.851  1.00  0.00     0.178 C 
HETATM    6  C   UNL     1      16.266   3.364  94.124  1.00  0.00     0.178 C 
ENDROOT
BRANCH   2   7
HETATM    7  C   UNL     1      13.255   1.571  92.763  1.00  0.00     0.277 C 
BRANCH   7   8
HETATM    8  C   UNL     1      12.348   2.747  92.634  1.00  0.00     0.011 A 
HETATM    9  C   UNL     1      11.757   3.039  91.404  1.00  0.00    -0.002 A 
HETATM   10  C   UNL     1      10.910   4.140  91.281  1.00  0.00     0.008 A 
HETATM   11  C   UNL     1      10.652   4.947  92.389  1.00  0.00     0.042 A 
HETATM   12  C   UNL     1      11.242   4.657  93.618  1.00  0.00     0.008 A 
HETATM   13  C   UNL     1      12.090   3.556  93.741  1.00  0.00    -0.002 A 
BRANCH  11  14
HETATM   14  C   UNL     1       9.781   6.076  92.264  1.00  0.00    -0.059 C 
HETATM   15  C   UNL     1       9.050   7.024  92.158  1.00  0.00    -0.059 C 
BRANCH  15  16
HETATM   16  C   UNL     1       8.179   8.151  92.032  1.00  0.00     0.042 A 
HETATM   17  C   UNL     1       8.689   9.443  92.160  1.00  0.00     0.008 A 
HETATM   18  C   UNL     1       7.840  10.542  92.035  1.00  0.00     0.005 A 
HETATM   19  C   UNL     1       6.501  10.325  91.783  1.00  0.00     0.056 A 
HETATM   20  C   UNL     1       5.973   9.058  91.652  1.00  0.00     0.005 A 
HETATM   21  C   UNL     1       6.821   7.958  91.778  1.00  0.00     0.008 A 
BRANCH  19  22
HETATM   22  C   UNL     1       5.597  11.497  91.652  1.00  0.00     0.254 C 
HETATM   23  O   UNL     1       5.290  12.133  92.657  1.00  0.00    -0.268 OA
HETATM   24  N   UNL     1       5.179  11.801  90.363  1.00  0.00    -0.335 N 
HETATM   25  HN  UNL     1       5.494  11.244  89.577  1.00  0.00     0.164 HD
BRANCH  24  26
HETATM   26  C   UNL     1       4.320  12.920  90.070  1.00  0.00     0.169 C 
BRANCH  26  27
HETATM   27  C   UNL     1       4.992  13.963  89.169  1.00  0.00     0.138 C 
HETATM   28  C   UNL     1       5.348  15.242  89.920  1.00  0.00     0.034 C 
BRANCH  27  29
HETATM   29  O   UNL     1       6.181  13.411  88.604  1.00  0.00    -0.383 OA
HETATM   30  H   UNL     1       6.580  14.078  88.020  1.00  0.00     0.210 HD
ENDBRANCH  27  29
ENDBRANCH  26  27
BRANCH  26  31
HETATM   31  C   UNL     1       3.046  12.376  89.434  1.00  0.00     0.194 C 
HETATM   32  O   UNL     1       2.136  13.099  89.033  1.00  0.00    -0.289 OA
BRANCH  31  33
HETATM   33  C   UNL     1       3.028  11.002  89.401  1.00  0.00     0.053 C 
BRANCH  33  34
HETATM   34  C   UNL     1       2.930  10.424  88.128  1.00  0.00     0.220 C 
BRANCH  34  35
HETATM   35  O   UNL     1       3.827  10.914  87.417  1.00  0.00    -0.371 OA
HETATM   36  H   UNL     1       4.008  10.153  86.887  1.00  0.00     0.211 HD
ENDBRANCH  34  35
BRANCH  34  37
HETATM   37  C   UNL     1       2.972   9.019  88.146  1.00  0.00     0.185 C 
HETATM   38  O   UNL     1       1.695   9.145  88.474  1.00  0.00    -0.647 OA
BRANCH  37  39
HETATM   39  O   UNL     1       3.793   8.167  87.987  1.00  0.00    -0.774 OA
HETATM   40  H   UNL     1       3.822   7.444  88.861  1.00  0.00     0.167 HD
ENDBRANCH  37  39
ENDBRANCH  34  37
ENDBRANCH  33  34
ENDBRANCH  31  33
ENDBRANCH  26  31
ENDBRANCH  24  26
ENDBRANCH  19  22
ENDBRANCH  15  16
ENDBRANCH  11  14
ENDBRANCH   7   8
ENDBRANCH   2   7
TORSDOF 14
ENDMDL
MODEL 5
REMARK VINA RESULT:      -3.7      2.987     12.386
REMARK  14 active torsions:
REMARK  status: ('A' for Active; 'I' for Inactive)
REMARK    1  A    between atoms: O_2  and  C_18 
REMARK    2  A    between atoms: C_5  and  C_8 
REMARK    3  A    between atoms: C_5  and  O_35 
REMARK    4  A    between atoms: C_5  and  C_36 
REMARK    5  A    between atoms: N_6  and  C_11 
REMARK    6  A    between atoms: N_7  and  C_15 
REMARK       I    between atoms: N_7  and  C_24 
REMARK    7  A    between atoms: C_8  and  C_23 
REMARK    8  A    between atoms: C_11  and  C_14 
REMARK    9  A    between atoms: C_15  and  C_18 
REMARK   10  A    between atoms: C_15  and  C_23 
REMARK   11  A    between atoms: C_21  and  C_26 
REMARK   12  A    between atoms: C_24  and  C_25 
REMARK   13  A    between atoms: C_29  and  C_32 
REMARK   14  A    between atoms: C_36  and  O_39 
ROOT
HETATM    1  O   UNL     1       3.167  14.809  93.802  1.00  0.00    -0.350 OA
HETATM    2  N   UNL     1       2.790  14.663  90.985  1.00  0.00     0.147 N 
HETATM    3  C   UNL     1       1.829  14.061  91.920  1.00  0.00     0.283 C 
HETATM    4  C   UNL     1       4.133  14.675  91.581  1.00  0.00     0.283 C 
HETATM    5  C   UNL     1       1.852  14.822  93.244  1.00  0.00     0.178 C 
HETATM    6  C   UNL     1       4.101  15.420  92.912  1.00  0.00     0.178 C 
ENDROOT
BRANCH   2   7
HETATM    7  C   UNL     1       2.793  13.943  89.712  1.00  0.00     0.277 C 
BRANCH   7   8
HETATM    8  C   UNL     1       3.795  12.839  89.686  1.00  0.00     0.011 A 
HETATM    9  C   UNL     1       5.114  13.105  89.316  1.00  0.00    -0.002 A 
HETATM   10  C   UNL     1       6.052  12.073  89.289  1.00  0.00     0.008 A 
HETATM   11  C   UNL     1       5.671  10.777  89.635  1.00  0.00     0.042 A 
HETATM   12  C   UNL     1       4.354  10.511  90.006  1.00  0.00     0.008 A 
HETATM   13  C   UNL     1       3.416  11.542  90.032  1.00  0.00    -0.002 A 
BRANCH  11  14
HETATM   14  C   UNL     1       6.633   9.718  89.610  1.00  0.00    -0.059 C 
HETATM   15  C   UNL     1       7.443   8.830  89.589  1.00  0.00    -0.059 C 
BRANCH  15  16
HETATM   16  C   UNL     1       8.405   7.772  89.564  1.00  0.00     0.042 A 
HETATM   17  C   UNL     1       8.748   7.115  90.746  1.00  0.00     0.008 A 
HETATM   18  C   UNL     1       9.684   6.082  90.722  1.00  0.00     0.005 A 
HETATM   19  C   UNL     1      10.255   5.728  89.517  1.00  0.00     0.056 A 
HETATM   20  C   UNL     1       9.933   6.362  88.335  1.00  0.00     0.005 A 
HETATM   21  C   UNL     1       8.997   7.396  88.359  1.00  0.00     0.008 A 
BRANCH  19  22
HETATM   22  C   UNL     1      11.254   4.629  89.492  1.00  0.00     0.254 C 
HETATM   23  O   UNL     1      11.406   3.980  88.460  1.00  0.00    -0.268 OA
HETATM   24  N   UNL     1      11.973   4.433  90.663  1.00  0.00    -0.335 N 
HETATM   25  HN  UNL     1      11.811   5.025  91.469  1.00  0.00     0.164 HD
BRANCH  24  26
HETATM   26  C   UNL     1      12.993   3.423  90.788  1.00  0.00     0.169 C 
BRANCH  26  27
HETATM   27  C   UNL     1      14.353   4.001  91.200  1.00  0.00     0.138 C 
HETATM   28  C   UNL     1      15.498   3.021  90.967  1.00  0.00     0.034 C 
BRANCH  27  29
HETATM   29  O   UNL     1      14.608   5.195  90.462  1.00  0.00    -0.383 OA
HETATM   30  H   UNL     1      15.053   4.952  89.633  1.00  0.00     0.210 HD
ENDBRANCH  27  29
ENDBRANCH  26  27
BRANCH  26  31
HETATM   31  C   UNL     1      12.503   2.387  91.794  1.00  0.00     0.194 C 
HETATM   32  O   UNL     1      11.799   1.429  91.479  1.00  0.00    -0.289 OA
BRANCH  31  33
HETATM   33  C   UNL     1      12.906   2.676  93.075  1.00  0.00     0.053 C 
BRANCH  33  34
HETATM   34  C   UNL     1      12.035   3.483  93.821  1.00  0.00     0.220 C 
BRANCH  34  35
HETATM   35  O   UNL     1      12.646   4.526  94.121  1.00  0.00    -0.371 OA
HETATM   36  H   UNL     1      13.249   4.540  93.393  1.00  0.00     0.211 HD
ENDBRANCH  34  35
BRANCH  34  37
HETATM   37  C   UNL     1      10.818   3.745  93.169  1.00  0.00     0.185 C 
HETATM   38  O   UNL     1      10.986   4.953  93.685  1.00  0.00    -0.647 OA
BRANCH  37  39
HETATM   39  O   UNL     1      10.025   3.133  92.519  1.00  0.00    -0.774 OA
HETATM   40  H   UNL     1       9.775   2.134  92.995  1.00  0.00     0.167 HD
ENDBRANCH  37  39
ENDBRANCH  34  37
ENDBRANCH  33  34
ENDBRANCH  31  33
ENDBRANCH  26  31
ENDBRANCH  24  26
ENDBRANCH  19  22
ENDBRANCH  15  16
ENDBRANCH  11  14
ENDBRANCH   7   8
ENDBRANCH   2   7
TORSDOF 14
ENDMDL
MODEL 6
REMARK VINA RESULT:      -3.7      2.683     12.835
REMARK  14 active torsions:
REMARK  status: ('A' for Active; 'I' for Inactive)
REMARK    1  A    between atoms: O_2  and  C_18 
REMARK    2  A    between atoms: C_5  and  C_8 
REMARK    3  A    between atoms: C_5  and  O_35 
REMARK    4  A    between atoms: C_5  and  C_36 
REMARK    5  A    between atoms: N_6  and  C_11 
REMARK    6  A    between atoms: N_7  and  C_15 
REMARK       I    between atoms: N_7  and  C_24 
REMARK    7  A    between atoms: C_8  and  C_23 
REMARK    8  A    between atoms: C_11  and  C_14 
REMARK    9  A    between atoms: C_15  and  C_18 
REMARK   10  A    between atoms: C_15  and  C_23 
REMARK   11  A    between atoms: C_21  and  C_26 
REMARK   12  A    between atoms: C_24  and  C_25 
REMARK   13  A    between atoms: C_29  and  C_32 
REMARK   14  A    between atoms: C_36  and  O_39 
ROOT
HETATM    1  O   UNL     1       2.561  14.629  94.079  1.00  0.00    -0.350 OA
HETATM    2  N   UNL     1       2.595  14.332  91.248  1.00  0.00     0.147 N 
HETATM    3  C   UNL     1       1.414  13.969  92.044  1.00  0.00     0.283 C 
HETATM    4  C   UNL     1       3.814  14.170  92.053  1.00  0.00     0.283 C 
HETATM    5  C   UNL     1       1.368  14.815  93.315  1.00  0.00     0.178 C 
HETATM    6  C   UNL     1       3.711  15.009  93.322  1.00  0.00     0.178 C 
ENDROOT
BRANCH   2   7
HETATM    7  C   UNL     1       2.665  13.526  90.030  1.00  0.00     0.277 C 
BRANCH   7   8
HETATM    8  C   UNL     1       3.617  12.386  90.157  1.00  0.00     0.011 A 
HETATM    9  C   UNL     1       4.992  12.620  90.121  1.00  0.00    -0.002 A 
HETATM   10  C   UNL     1       5.884  11.554  90.238  1.00  0.00     0.008 A 
HETATM   11  C   UNL     1       5.400  10.255  90.393  1.00  0.00     0.042 A 
HETATM   12  C   UNL     1       4.027  10.021  90.430  1.00  0.00     0.008 A 
HETATM   13  C   UNL     1       3.135  11.087  90.312  1.00  0.00    -0.002 A 
BRANCH  11  14
HETATM   14  C   UNL     1       6.315   9.162  90.515  1.00  0.00    -0.059 C 
HETATM   15  C   UNL     1       7.084   8.244  90.618  1.00  0.00    -0.059 C 
BRANCH  15  16
HETATM   16  C   UNL     1       7.998   7.151  90.740  1.00  0.00     0.042 A 
HETATM   17  C   UNL     1       8.627   6.903  91.961  1.00  0.00     0.008 A 
HETATM   18  C   UNL     1       9.516   5.835  92.081  1.00  0.00     0.005 A 
HETATM   19  C   UNL     1       9.757   5.040  90.980  1.00  0.00     0.056 A 
HETATM   20  C   UNL     1       9.148   5.265  89.763  1.00  0.00     0.005 A 
HETATM   21  C   UNL     1       8.258   6.333  89.641  1.00  0.00     0.008 A 
BRANCH  19  22
HETATM   22  C   UNL     1      10.706   3.904  91.108  1.00  0.00     0.254 C 
HETATM   23  O   UNL     1      10.288   2.756  90.982  1.00  0.00    -0.268 OA
HETATM   24  N   UNL     1      12.031   4.243  91.343  1.00  0.00    -0.335 N 
HETATM   25  HN  UNL     1      12.308   5.216  91.410  1.00  0.00     0.164 HD
BRANCH  24  26
HETATM   26  C   UNL     1      13.074   3.256  91.466  1.00  0.00     0.169 C 
BRANCH  26  27
HETATM   27  C   UNL     1      14.418   3.739  90.906  1.00  0.00     0.138 C 
HETATM   28  C   UNL     1      14.779   3.060  89.590  1.00  0.00     0.034 C 
BRANCH  27  29
HETATM   29  O   UNL     1      14.370   5.151  90.701  1.00  0.00    -0.383 OA
HETATM   30  H   UNL     1      14.847   5.581  91.431  1.00  0.00     0.210 HD
ENDBRANCH  27  29
ENDBRANCH  26  27
BRANCH  26  31
HETATM   31  C   UNL     1      13.190   2.884  92.941  1.00  0.00     0.194 C 
HETATM   32  O   UNL     1      12.214   2.756  93.678  1.00  0.00    -0.289 OA
BRANCH  31  33
HETATM   33  C   UNL     1      14.497   2.750  93.341  1.00  0.00     0.053 C 
BRANCH  33  34
HETATM   34  C   UNL     1      15.251   3.932  93.367  1.00  0.00     0.220 C 
BRANCH  34  35
HETATM   35  O   UNL     1      14.582   4.797  93.963  1.00  0.00    -0.371 OA
HETATM   36  H   UNL     1      14.303   5.293  93.209  1.00  0.00     0.211 HD
ENDBRANCH  34  35
BRANCH  34  37
HETATM   37  C   UNL     1      16.530   3.769  93.925  1.00  0.00     0.185 C 
HETATM   38  O   UNL     1      16.435   5.074  94.124  1.00  0.00    -0.647 OA
BRANCH  37  39
HETATM   39  O   UNL     1      17.309   2.876  94.080  1.00  0.00    -0.774 OA
HETATM   40  H   UNL     1      18.281   3.243  94.534  1.00  0.00     0.167 HD
ENDBRANCH  37  39
ENDBRANCH  34  37
ENDBRANCH  33  34
ENDBRANCH  31  33
ENDBRANCH  26  31
ENDBRANCH  24  26
ENDBRANCH  19  22
ENDBRANCH  15  16
ENDBRANCH  11  14
ENDBRANCH   7   8
ENDBRANCH   2   7
TORSDOF 14
ENDMDL
