MODEL 1
REMARK VINA RESULT:      -7.0      0.000      0.000
REMARK  10 active torsions:
REMARK  status: ('A' for Active; 'I' for Inactive)
REMARK    1  A    between atoms: O_2  and  C_18 
REMARK    2  A    between atoms: O_5  and  N_8 
REMARK    3  A    between atoms: N_6  and  C_11 
REMARK    4  A    between atoms: N_7  and  C_15 
REMARK       I    between atoms: N_7  and  C_24 
REMARK       I    between atoms: N_8  and  C_23 
REMARK    5  A    between atoms: C_11  and  C_14 
REMARK    6  A    between atoms: C_15  and  C_18 
REMARK    7  A    between atoms: C_15  and  C_23 
REMARK    8  A    between atoms: C_21  and  C_26 
REMARK    9  A    between atoms: C_24  and  C_25 
REMARK   10  A    between atoms: C_29  and  C_32 
ROOT
HETATM    1  O   UNK     0      16.505   4.435  94.073  0.00  0.00    -0.388 OA
HETATM    2  N   UNK     0      14.794   2.671  92.637  0.00  0.00     0.096 N 
HETATM    3  C   UNK     0      14.615   4.128  92.582  0.00  0.00     0.299 C 
HETATM    4  C   UNK     0      15.390   2.285  93.923  0.00  0.00     0.299 C 
HETATM    5  C   UNK     0      15.955   4.823  92.813  0.00  0.00     0.198 C 
HETATM    6  C   UNK     0      16.711   3.023  94.123  0.00  0.00     0.198 C 
ENDROOT
BRANCH   2   7
HETATM    7  C   UNK     0      13.520   1.985  92.429  0.00  0.00     0.311 C 
BRANCH   7   8
HETATM    8  C   UNK     0      12.406   2.931  92.139  0.00  0.00    -0.030 A 
HETATM    9  C   UNK     0      11.870   3.710  93.166  0.00  0.00     0.010 A 
HETATM   10  C   UNK     0      10.825   4.595  92.897  0.00  0.00     0.021 A 
HETATM   11  C   UNK     0      10.319   4.702  91.602  0.00  0.00     0.018 A 
HETATM   12  C   UNK     0      10.854   3.925  90.576  0.00  0.00     0.021 A 
HETATM   13  C   UNK     0      11.898   3.039  90.845  0.00  0.00     0.010 A 
BRANCH  11  14
HETATM   14  C   UNK     0       9.250   5.611  91.326  0.00  0.00    -0.061 C 
HETATM   15  C   UNK     0       8.351   6.374  91.093  0.00  0.00    -0.061 C 
BRANCH  15  16
HETATM   16  C   UNK     0       7.283   7.283  90.817  0.00  0.00     0.018 A 
HETATM   17  C   UNK     0       5.988   6.986  91.243  0.00  0.00     0.022 A 
HETATM   18  C   UNK     0       4.946   7.874  90.975  0.00  0.00     0.018 A 
HETATM   19  C   UNK     0       5.221   9.038  90.289  0.00  0.00     0.032 A 
HETATM   20  C   UNK     0       6.492   9.355  89.857  0.00  0.00     0.018 A 
HETATM   21  C   UNK     0       7.534   8.467  90.123  0.00  0.00     0.022 A 
BRANCH  19  22
HETATM   22  C   UNK     0       4.111   9.983  90.003  0.00  0.00     0.252 C 
HETATM   23  O   UNK     0       3.032   9.540  89.615  0.00  0.00    -0.268 OA
HETATM   24  N   UNK     0       4.382  11.326  90.225  0.00  0.00    -0.341 N 
HETATM   25  H   UNK     0       5.290  11.615  90.570  0.00  0.00     0.163 HD
BRANCH  24  26
HETATM   26  C   UNK     0       3.400  12.360  90.017  0.00  0.00     0.207 C 
BRANCH  26  27
HETATM   27  C   UNK     0       3.010  13.078  91.315  0.00  0.00     0.146 C 
HETATM   28  C   UNK     0       2.488  12.119  92.379  0.00  0.00     0.042 C 
BRANCH  27  29
HETATM   29  O   UNK     0       4.143  13.774  91.834  0.00  0.00    -0.393 OA
HETATM   30  H   UNK     0       3.833  14.398  92.512  0.00  0.00     0.210 HD
ENDBRANCH  27  29
ENDBRANCH  26  27
BRANCH  26  31
HETATM   31  C   UNK     0       3.964  13.337  88.990  0.00  0.00     0.266 C 
HETATM   32  O   UNK     0       4.089  14.541  89.209  0.00  0.00    -0.269 OA
HETATM   33  N   UNK     0       4.271  12.721  87.801  0.00  0.00    -0.236 N 
HETATM   34  H   UNK     0       4.098  11.753  87.557  0.00  0.00     0.197 HD
BRANCH  33  35
HETATM   35  O   UNK     0       4.760  13.559  86.789  0.00  0.00    -0.287 OA
HETATM   36  H   UNK     0       4.635  12.986  86.013  0.00  0.00     0.244 HD
ENDBRANCH  33  35
ENDBRANCH  26  31
ENDBRANCH  24  26
ENDBRANCH  19  22
ENDBRANCH  15  16
ENDBRANCH  11  14
ENDBRANCH   7   8
ENDBRANCH   2   7
TORSDOF 10
ENDMDL
