MODEL 1
REMARK VINA RESULT:      -7.5      0.000      0.000
REMARK  9 active torsions:
REMARK  status: ('A' for Active; 'I' for Inactive)
REMARK    1  A    between atoms: O_2  and  C_17 
REMARK    2  A    between atoms: N_5  and  C_10 
REMARK    3  A    between atoms: N_6  and  C_14 
REMARK       I    between atoms: N_6  and  C_23 
REMARK       I    between atoms: N_7  and  C_22 
REMARK    4  A    between atoms: C_10  and  C_13 
REMARK    5  A    between atoms: C_14  and  C_17 
REMARK    6  A    between atoms: C_14  and  C_22 
REMARK    7  A    between atoms: C_20  and  C_25 
REMARK    8  A    between atoms: C_23  and  C_24 
REMARK    9  A    between atoms: C_28  and  C_31 
ROOT
HETATM    1  O   UNL     1      16.177   3.861  94.124  1.00  0.00    -0.388 OA
HETATM    2  N   UNL     1      14.157   2.648  92.527  1.00  0.00     0.096 N 
HETATM    3  C   UNL     1      14.288   4.108  92.620  1.00  0.00     0.299 C 
HETATM    4  C   UNL     1      14.639   2.020  93.765  1.00  0.00     0.299 C 
HETATM    5  C   UNL     1      15.740   4.479  92.912  1.00  0.00     0.198 C 
HETATM    6  C   UNL     1      16.081   2.440  94.031  1.00  0.00     0.198 C 
ENDROOT
BRANCH   2   7
HETATM    7  C   UNL     1      12.771   2.269  92.259  1.00  0.00     0.311 C 
BRANCH   7   8
HETATM    8  C   UNL     1      11.918   3.442  91.913  1.00  0.00    -0.030 A 
HETATM    9  C   UNL     1      11.370   4.228  92.927  1.00  0.00     0.010 A 
HETATM   10  C   UNL     1      10.570   5.324  92.605  1.00  0.00     0.021 A 
HETATM   11  C   UNL     1      10.321   5.635  91.269  1.00  0.00     0.018 A 
HETATM   12  C   UNL     1      10.867   4.851  90.255  1.00  0.00     0.021 A 
HETATM   13  C   UNL     1      11.666   3.754  90.577  1.00  0.00     0.010 A 
BRANCH  11  14
HETATM   14  C   UNL     1       9.502   6.761  90.939  1.00  0.00    -0.061 C 
HETATM   15  C   UNL     1       8.814   7.707  90.661  1.00  0.00    -0.061 C 
BRANCH  15  16
HETATM   16  C   UNL     1       7.995   8.832  90.331  1.00  0.00     0.018 A 
HETATM   17  C   UNL     1       6.690   8.910  90.819  1.00  0.00     0.022 A 
HETATM   18  C   UNL     1       5.893  10.009  90.499  1.00  0.00     0.018 A 
HETATM   19  C   UNL     1       6.417  11.003  89.701  1.00  0.00     0.032 A 
HETATM   20  C   UNL     1       7.703  10.949  89.206  1.00  0.00     0.018 A 
HETATM   21  C   UNL     1       8.502   9.851  89.525  1.00  0.00     0.022 A 
BRANCH  19  22
HETATM   22  C   UNL     1       5.566  12.173  89.359  1.00  0.00     0.252 C 
HETATM   23  O   UNL     1       5.652  12.670  88.239  1.00  0.00    -0.268 OA
HETATM   24  N   UNL     1       4.700  12.606  90.353  1.00  0.00    -0.342 N 
HETATM   25  H   UNL     1       4.666  12.130  91.247  1.00  0.00     0.163 HD
BRANCH  24  26
HETATM   26  C   UNL     1       3.795  13.711  90.166  1.00  0.00     0.199 C 
BRANCH  26  27
HETATM   27  C   UNL     1       2.547  13.613  91.052  1.00  0.00     0.145 C 
HETATM   28  C   UNL     1       2.362  12.222  91.648  1.00  0.00     0.042 C 
BRANCH  27  29
HETATM   29  O   UNL     1       2.638  14.563  92.113  1.00  0.00    -0.393 OA
HETATM   30  H   UNL     1       3.462  15.067  92.001  1.00  0.00     0.210 HD
ENDBRANCH  27  29
ENDBRANCH  26  27
BRANCH  26  31
HETATM   31  C   UNL     1       4.568  14.998  90.438  1.00  0.00     0.220 C 
HETATM   32  O   UNL     1       4.778  15.425  91.572  1.00  0.00    -0.278 OA
HETATM   33  N   UNL     1       4.957  15.625  89.280  1.00  0.00    -0.271 NA
HETATM   34  H   UNL     1       4.725  15.349  88.333  1.00  0.00     0.127 HD
HETATM   35  H   UNL     1       4.456  16.810  88.720  1.00  0.00     0.127 HD
ENDBRANCH  26  31
ENDBRANCH  24  26
ENDBRANCH  19  22
ENDBRANCH  15  16
ENDBRANCH  11  14
ENDBRANCH   7   8
ENDBRANCH   2   7
TORSDOF 9
ENDMDL
