MODEL 1
REMARK VINA RESULT:      -7.1      0.000      0.000
REMARK  9 active torsions:
REMARK  status: ('A' for Active; 'I' for Inactive)
REMARK    1  A    between atoms: O_2  and  C_17 
REMARK    2  A    between atoms: N_5  and  C_10 
REMARK    3  A    between atoms: N_6  and  C_14 
REMARK       I    between atoms: N_6  and  C_23 
REMARK       I    between atoms: N_7  and  C_22 
REMARK    4  A    between atoms: C_10  and  C_13 
REMARK    5  A    between atoms: C_14  and  C_17 
REMARK    6  A    between atoms: C_14  and  C_22 
REMARK    7  A    between atoms: C_20  and  C_25 
REMARK    8  A    between atoms: C_23  and  C_24 
REMARK    9  A    between atoms: C_28  and  C_31 
ROOT
HETATM    1  O   UNL     1      16.636   3.381  93.706  1.00  0.00    -0.388 OA
HETATM    2  N   UNL     1      13.937   2.830  92.991  1.00  0.00     0.096 N 
HETATM    3  C   UNL     1      14.931   1.756  93.123  1.00  0.00     0.299 C 
HETATM    4  C   UNL     1      14.598   4.081  92.594  1.00  0.00     0.299 C 
HETATM    5  C   UNL     1      16.008   2.168  94.124  1.00  0.00     0.198 C 
HETATM    6  C   UNL     1      15.682   4.438  93.606  1.00  0.00     0.198 C 
ENDROOT
BRANCH   2   7
HETATM    7  C   UNL     1      12.901   2.461  92.028  1.00  0.00     0.311 C 
BRANCH   7   8
HETATM    8  C   UNL     1      11.988   3.596  91.713  1.00  0.00    -0.030 A 
HETATM    9  C   UNL     1      11.873   4.055  90.401  1.00  0.00     0.010 A 
HETATM   10  C   UNL     1      11.021   5.118  90.105  1.00  0.00     0.021 A 
HETATM   11  C   UNL     1      10.281   5.721  91.123  1.00  0.00     0.018 A 
HETATM   12  C   UNL     1      10.395   5.263  92.434  1.00  0.00     0.021 A 
HETATM   13  C   UNL     1      11.248   4.200  92.730  1.00  0.00     0.010 A 
BRANCH  11  14
HETATM   14  C   UNL     1       9.405   6.811  90.819  1.00  0.00    -0.061 C 
HETATM   15  C   UNL     1       8.669   7.726  90.564  1.00  0.00    -0.061 C 
BRANCH  15  16
HETATM   16  C   UNL     1       7.793   8.815  90.260  1.00  0.00     0.018 A 
HETATM   17  C   UNL     1       8.314  10.008  89.757  1.00  0.00     0.022 A 
HETATM   18  C   UNL     1       7.458  11.069  89.459  1.00  0.00     0.018 A 
HETATM   19  C   UNL     1       6.104  10.913  89.668  1.00  0.00     0.032 A 
HETATM   20  C   UNL     1       5.566   9.744  90.164  1.00  0.00     0.018 A 
HETATM   21  C   UNL     1       6.420   8.682  90.463  1.00  0.00     0.022 A 
BRANCH  19  22
HETATM   22  C   UNL     1       5.194  12.044  89.351  1.00  0.00     0.252 C 
HETATM   23  O   UNL     1       4.959  12.313  88.176  1.00  0.00    -0.268 OA
HETATM   24  N   UNL     1       4.648  12.708  90.440  1.00  0.00    -0.342 N 
HETATM   25  H   UNL     1       4.869  12.413  91.384  1.00  0.00     0.163 HD
BRANCH  24  26
HETATM   26  C   UNL     1       3.730  13.809  90.297  1.00  0.00     0.199 C 
BRANCH  26  27
HETATM   27  C   UNL     1       2.664  13.841  91.399  1.00  0.00     0.145 C 
HETATM   28  C   UNL     1       1.262  14.082  90.849  1.00  0.00     0.042 C 
BRANCH  27  29
HETATM   29  O   UNL     1       2.676  12.603  92.110  1.00  0.00    -0.393 OA
HETATM   30  H   UNL     1       3.541  12.509  92.544  1.00  0.00     0.210 HD
ENDBRANCH  27  29
ENDBRANCH  26  27
BRANCH  26  31
HETATM   31  C   UNL     1       4.546  15.098  90.278  1.00  0.00     0.220 C 
HETATM   32  O   UNL     1       5.022  15.574  89.249  1.00  0.00    -0.278 OA
HETATM   33  N   UNL     1       4.713  15.625  91.535  1.00  0.00    -0.271 NA
HETATM   34  H   UNL     1       4.413  15.212  92.411  1.00  0.00     0.127 HD
HETATM   35  H   UNL     1       5.878  15.662  92.317  1.00  0.00     0.127 HD
ENDBRANCH  26  31
ENDBRANCH  24  26
ENDBRANCH  19  22
ENDBRANCH  15  16
ENDBRANCH  11  14
ENDBRANCH   7   8
ENDBRANCH   2   7
TORSDOF 9
ENDMDL
MODEL 2
REMARK VINA RESULT:      -6.2      1.958      2.799
REMARK  9 active torsions:
REMARK  status: ('A' for Active; 'I' for Inactive)
REMARK    1  A    between atoms: O_2  and  C_17 
REMARK    2  A    between atoms: N_5  and  C_10 
REMARK    3  A    between atoms: N_6  and  C_14 
REMARK       I    between atoms: N_6  and  C_23 
REMARK       I    between atoms: N_7  and  C_22 
REMARK    4  A    between atoms: C_10  and  C_13 
REMARK    5  A    between atoms: C_14  and  C_17 
REMARK    6  A    between atoms: C_14  and  C_22 
REMARK    7  A    between atoms: C_20  and  C_25 
REMARK    8  A    between atoms: C_23  and  C_24 
REMARK    9  A    between atoms: C_28  and  C_31 
ROOT
HETATM    1  O   UNL     1      16.902   3.641  94.110  1.00  0.00    -0.388 OA
HETATM    2  N   UNL     1      14.375   3.169  92.887  1.00  0.00     0.096 N 
HETATM    3  C   UNL     1      14.577   4.277  93.831  1.00  0.00     0.299 C 
HETATM    4  C   UNL     1      15.296   2.067  93.200  1.00  0.00     0.299 C 
HETATM    5  C   UNL     1      16.034   4.731  93.793  1.00  0.00     0.198 C 
HETATM    6  C   UNL     1      16.735   2.572  93.178  1.00  0.00     0.198 C 
ENDROOT
BRANCH   2   7
HETATM    7  C   UNL     1      12.987   2.711  92.915  1.00  0.00     0.311 C 
BRANCH   7   8
HETATM    8  C   UNL     1      12.016   3.842  92.916  1.00  0.00    -0.030 A 
HETATM    9  C   UNL     1      11.526   4.341  91.709  1.00  0.00     0.010 A 
HETATM   10  C   UNL     1      10.619   5.401  91.709  1.00  0.00     0.021 A 
HETATM   11  C   UNL     1      10.201   5.959  92.916  1.00  0.00     0.018 A 
HETATM   12  C   UNL     1      10.689   5.462  94.123  1.00  0.00     0.021 A 
HETATM   13  C   UNL     1      11.597   4.403  94.123  1.00  0.00     0.010 A 
BRANCH  11  14
HETATM   14  C   UNL     1       9.269   7.044  92.916  1.00  0.00    -0.061 C 
HETATM   15  C   UNL     1       8.485   7.957  92.917  1.00  0.00    -0.061 C 
BRANCH  15  16
HETATM   16  C   UNL     1       7.554   9.042  92.918  1.00  0.00     0.018 A 
HETATM   17  C   UNL     1       7.415   9.839  94.054  1.00  0.00     0.022 A 
HETATM   18  C   UNL     1       6.509  10.900  94.053  1.00  0.00     0.018 A 
HETATM   19  C   UNL     1       5.764  11.139  92.917  1.00  0.00     0.032 A 
HETATM   20  C   UNL     1       5.883  10.365  91.782  1.00  0.00     0.018 A 
HETATM   21  C   UNL     1       6.789   9.304  91.782  1.00  0.00     0.022 A 
BRANCH  19  22
HETATM   22  C   UNL     1       4.797  12.267  92.918  1.00  0.00     0.252 C 
HETATM   23  O   UNL     1       4.373  12.694  93.989  1.00  0.00    -0.268 OA
HETATM   24  N   UNL     1       4.459  12.779  91.672  1.00  0.00    -0.342 N 
HETATM   25  H   UNL     1       4.869  12.392  90.830  1.00  0.00     0.163 HD
BRANCH  24  26
HETATM   26  C   UNL     1       3.554  13.888  91.509  1.00  0.00     0.199 C 
BRANCH  26  27
HETATM   27  C   UNL     1       3.510  14.411  90.068  1.00  0.00     0.145 C 
HETATM   28  C   UNL     1       4.897  14.725  89.517  1.00  0.00     0.042 C 
BRANCH  27  29
HETATM   29  O   UNL     1       2.886  13.441  89.227  1.00  0.00    -0.393 OA
HETATM   30  H   UNL     1       2.432  12.794  89.793  1.00  0.00     0.210 HD
ENDBRANCH  27  29
ENDBRANCH  26  27
BRANCH  26  31
HETATM   31  C   UNL     1       2.175  13.437  91.978  1.00  0.00     0.220 C 
HETATM   32  O   UNL     1       1.629  12.415  91.567  1.00  0.00    -0.278 OA
HETATM   33  N   UNL     1       1.615  14.320  92.870  1.00  0.00    -0.271 NA
HETATM   34  H   UNL     1       1.997  15.212  93.161  1.00  0.00     0.127 HD
HETATM   35  H   UNL     1       0.543  15.202  92.666  1.00  0.00     0.127 HD
ENDBRANCH  26  31
ENDBRANCH  24  26
ENDBRANCH  19  22
ENDBRANCH  15  16
ENDBRANCH  11  14
ENDBRANCH   7   8
ENDBRANCH   2   7
TORSDOF 9
ENDMDL
MODEL 3
REMARK VINA RESULT:      -6.1      1.679      2.025
REMARK  9 active torsions:
REMARK  status: ('A' for Active; 'I' for Inactive)
REMARK    1  A    between atoms: O_2  and  C_17 
REMARK    2  A    between atoms: N_5  and  C_10 
REMARK    3  A    between atoms: N_6  and  C_14 
REMARK       I    between atoms: N_6  and  C_23 
REMARK       I    between atoms: N_7  and  C_22 
REMARK    4  A    between atoms: C_10  and  C_13 
REMARK    5  A    between atoms: C_14  and  C_17 
REMARK    6  A    between atoms: C_14  and  C_22 
REMARK    7  A    between atoms: C_20  and  C_25 
REMARK    8  A    between atoms: C_23  and  C_24 
REMARK    9  A    between atoms: C_28  and  C_31 
ROOT
HETATM    1  O   UNL     1      16.770   3.392  93.736  1.00  0.00    -0.388 OA
HETATM    2  N   UNL     1      14.044   2.938  93.051  1.00  0.00     0.096 N 
HETATM    3  C   UNL     1      15.011   1.834  93.129  1.00  0.00     0.299 C 
HETATM    4  C   UNL     1      14.732   4.184  92.684  1.00  0.00     0.299 C 
HETATM    5  C   UNL     1      16.115   2.183  94.124  1.00  0.00     0.198 C 
HETATM    6  C   UNL     1      15.843   4.477  93.688  1.00  0.00     0.198 C 
ENDROOT
BRANCH   2   7
HETATM    7  C   UNL     1      12.982   2.630  92.096  1.00  0.00     0.311 C 
BRANCH   7   8
HETATM    8  C   UNL     1      11.916   3.672  92.076  1.00  0.00    -0.030 A 
HETATM    9  C   UNL     1      11.368   4.085  90.861  1.00  0.00     0.010 A 
HETATM   10  C   UNL     1      10.372   5.061  90.841  1.00  0.00     0.021 A 
HETATM   11  C   UNL     1       9.923   5.622  92.037  1.00  0.00     0.018 A 
HETATM   12  C   UNL     1      10.469   5.209  93.250  1.00  0.00     0.021 A 
HETATM   13  C   UNL     1      11.465   4.234  93.271  1.00  0.00     0.010 A 
BRANCH  11  14
HETATM   14  C   UNL     1       8.900   6.621  92.016  1.00  0.00    -0.061 C 
HETATM   15  C   UNL     1       8.040   7.462  91.999  1.00  0.00    -0.061 C 
BRANCH  15  16
HETATM   16  C   UNL     1       7.017   8.461  91.978  1.00  0.00     0.018 A 
HETATM   17  C   UNL     1       5.812   8.209  91.322  1.00  0.00     0.022 A 
HETATM   18  C   UNL     1       4.813   9.183  91.304  1.00  0.00     0.018 A 
HETATM   19  C   UNL     1       5.041  10.384  91.941  1.00  0.00     0.032 A 
HETATM   20  C   UNL     1       6.224  10.657  92.596  1.00  0.00     0.018 A 
HETATM   21  C   UNL     1       7.224   9.684  92.615  1.00  0.00     0.022 A 
BRANCH  19  22
HETATM   22  C   UNL     1       3.978  11.422  91.920  1.00  0.00     0.252 C 
HETATM   23  O   UNL     1       2.817  11.096  92.155  1.00  0.00    -0.268 OA
HETATM   24  N   UNL     1       4.398  12.717  91.652  1.00  0.00    -0.342 N 
HETATM   25  H   UNL     1       5.378  12.916  91.492  1.00  0.00     0.163 HD
BRANCH  24  26
HETATM   26  C   UNL     1       3.490  13.836  91.621  1.00  0.00     0.199 C 
BRANCH  26  27
HETATM   27  C   UNL     1       3.692  14.798  92.798  1.00  0.00     0.145 C 
HETATM   28  C   UNL     1       2.385  15.135  93.508  1.00  0.00     0.042 C 
BRANCH  27  29
HETATM   29  O   UNL     1       4.594  14.217  93.740  1.00  0.00    -0.393 OA
HETATM   30  H   UNL     1       4.251  13.342  93.991  1.00  0.00     0.210 HD
ENDBRANCH  27  29
ENDBRANCH  26  27
BRANCH  26  31
HETATM   31  C   UNL     1       3.674  14.548  90.285  1.00  0.00     0.220 C 
HETATM   32  O   UNL     1       4.263  15.622  90.174  1.00  0.00    -0.278 OA
HETATM   33  N   UNL     1       3.077  13.872  89.249  1.00  0.00    -0.271 NA
HETATM   34  H   UNL     1       2.510  13.035  89.318  1.00  0.00     0.127 HD
HETATM   35  H   UNL     1       1.918  14.217  88.536  1.00  0.00     0.127 HD
ENDBRANCH  26  31
ENDBRANCH  24  26
ENDBRANCH  19  22
ENDBRANCH  15  16
ENDBRANCH  11  14
ENDBRANCH   7   8
ENDBRANCH   2   7
TORSDOF 9
ENDMDL
MODEL 4
REMARK VINA RESULT:      -5.9      2.214     12.331
REMARK  9 active torsions:
REMARK  status: ('A' for Active; 'I' for Inactive)
REMARK    1  A    between atoms: O_2  and  C_17 
REMARK    2  A    between atoms: N_5  and  C_10 
REMARK    3  A    between atoms: N_6  and  C_14 
REMARK       I    between atoms: N_6  and  C_23 
REMARK       I    between atoms: N_7  and  C_22 
REMARK    4  A    between atoms: C_10  and  C_13 
REMARK    5  A    between atoms: C_14  and  C_17 
REMARK    6  A    between atoms: C_14  and  C_22 
REMARK    7  A    between atoms: C_20  and  C_25 
REMARK    8  A    between atoms: C_23  and  C_24 
REMARK    9  A    between atoms: C_28  and  C_31 
ROOT
HETATM    1  O   UNL     1       2.983  14.760  93.932  1.00  0.00    -0.388 OA
HETATM    2  N   UNL     1       2.705  14.624  91.102  1.00  0.00     0.096 N 
HETATM    3  C   UNL     1       1.749  13.962  92.000  1.00  0.00     0.299 C 
HETATM    4  C   UNL     1       4.026  14.702  91.742  1.00  0.00     0.299 C 
HETATM    5  C   UNL     1       1.688  14.708  93.331  1.00  0.00     0.198 C 
HETATM    6  C   UNL     1       3.912  15.429  93.078  1.00  0.00     0.198 C 
ENDROOT
BRANCH   2   7
HETATM    7  C   UNL     1       2.788  13.919  89.824  1.00  0.00     0.311 C 
BRANCH   7   8
HETATM    8  C   UNL     1       3.802  12.827  89.842  1.00  0.00    -0.030 A 
HETATM    9  C   UNL     1       5.033  13.008  89.211  1.00  0.00     0.010 A 
HETATM   10  C   UNL     1       5.981  11.986  89.226  1.00  0.00     0.021 A 
HETATM   11  C   UNL     1       5.699  10.783  89.873  1.00  0.00     0.018 A 
HETATM   12  C   UNL     1       4.470  10.601  90.503  1.00  0.00     0.021 A 
HETATM   13  C   UNL     1       3.521  11.623  90.489  1.00  0.00     0.010 A 
BRANCH  11  14
HETATM   14  C   UNL     1       6.673   9.735  89.889  1.00  0.00    -0.061 C 
HETATM   15  C   UNL     1       7.491   8.854  89.904  1.00  0.00    -0.061 C 
BRANCH  15  16
HETATM   16  C   UNL     1       8.463   7.806  89.920  1.00  0.00     0.018 A 
HETATM   17  C   UNL     1       9.391   7.701  88.884  1.00  0.00     0.022 A 
HETATM   18  C   UNL     1      10.342   6.680  88.902  1.00  0.00     0.018 A 
HETATM   19  C   UNL     1      10.344   5.789  89.954  1.00  0.00     0.032 A 
HETATM   20  C   UNL     1       9.437   5.872  90.990  1.00  0.00     0.018 A 
HETATM   21  C   UNL     1       8.486   6.892  90.974  1.00  0.00     0.022 A 
BRANCH  19  22
HETATM   22  C   UNL     1      11.355   4.701  89.972  1.00  0.00     0.252 C 
HETATM   23  O   UNL     1      11.577   4.072  88.940  1.00  0.00    -0.268 OA
HETATM   24  N   UNL     1      12.004   4.493  91.181  1.00  0.00    -0.342 N 
HETATM   25  H   UNL     1      11.786   5.069  91.985  1.00  0.00     0.163 HD
BRANCH  24  26
HETATM   26  C   UNL     1      13.026   3.492  91.350  1.00  0.00     0.199 C 
BRANCH  26  27
HETATM   27  C   UNL     1      14.207   3.986  92.196  1.00  0.00     0.145 C 
HETATM   28  C   UNL     1      13.838   4.167  93.664  1.00  0.00     0.042 C 
BRANCH  27  29
HETATM   29  O   UNL     1      15.285   3.056  92.100  1.00  0.00    -0.393 OA
HETATM   30  H   UNL     1      16.110   3.521  92.320  1.00  0.00     0.210 HD
ENDBRANCH  27  29
ENDBRANCH  26  27
BRANCH  26  31
HETATM   31  C   UNL     1      12.375   2.262  91.973  1.00  0.00     0.220 C 
HETATM   32  O   UNL     1      12.958   1.186  92.098  1.00  0.00    -0.278 OA
HETATM   33  N   UNL     1      11.069   2.492  92.333  1.00  0.00    -0.271 NA
HETATM   34  H   UNL     1      10.532   3.334  92.163  1.00  0.00     0.127 HD
HETATM   35  H   UNL     1       9.899   2.004  91.729  1.00  0.00     0.127 HD
ENDBRANCH  26  31
ENDBRANCH  24  26
ENDBRANCH  19  22
ENDBRANCH  15  16
ENDBRANCH  11  14
ENDBRANCH   7   8
ENDBRANCH   2   7
TORSDOF 9
ENDMDL
MODEL 5
REMARK VINA RESULT:      -5.9      2.479      3.389
REMARK  9 active torsions:
REMARK  status: ('A' for Active; 'I' for Inactive)
REMARK    1  A    between atoms: O_2  and  C_17 
REMARK    2  A    between atoms: N_5  and  C_10 
REMARK    3  A    between atoms: N_6  and  C_14 
REMARK       I    between atoms: N_6  and  C_23 
REMARK       I    between atoms: N_7  and  C_22 
REMARK    4  A    between atoms: C_10  and  C_13 
REMARK    5  A    between atoms: C_14  and  C_17 
REMARK    6  A    between atoms: C_14  and  C_22 
REMARK    7  A    between atoms: C_20  and  C_25 
REMARK    8  A    between atoms: C_23  and  C_24 
REMARK    9  A    between atoms: C_28  and  C_31 
ROOT
HETATM    1  O   UNL     1      17.541   4.590  93.657  1.00  0.00    -0.388 OA
HETATM    2  N   UNL     1      15.342   2.819  94.019  1.00  0.00     0.096 N 
HETATM    3  C   UNL     1      16.660   2.330  93.594  1.00  0.00     0.299 C 
HETATM    4  C   UNL     1      15.148   4.203  93.563  1.00  0.00     0.299 C 
HETATM    5  C   UNL     1      17.752   3.257  94.124  1.00  0.00     0.198 C 
HETATM    6  C   UNL     1      16.274   5.085  94.092  1.00  0.00     0.198 C 
ENDROOT
BRANCH   2   7
HETATM    7  C   UNL     1      14.280   1.952  93.514  1.00  0.00     0.311 C 
BRANCH   7   8
HETATM    8  C   UNL     1      13.207   2.715  92.815  1.00  0.00    -0.030 A 
HETATM    9  C   UNL     1      13.318   2.983  91.450  1.00  0.00     0.010 A 
HETATM   10  C   UNL     1      12.316   3.699  90.796  1.00  0.00     0.021 A 
HETATM   11  C   UNL     1      11.202   4.145  91.506  1.00  0.00     0.018 A 
HETATM   12  C   UNL     1      11.089   3.877  92.869  1.00  0.00     0.021 A 
HETATM   13  C   UNL     1      12.091   3.162  93.524  1.00  0.00     0.010 A 
BRANCH  11  14
HETATM   14  C   UNL     1      10.173   4.877  90.835  1.00  0.00    -0.061 C 
HETATM   15  C   UNL     1       9.309   5.493  90.270  1.00  0.00    -0.061 C 
BRANCH  15  16
HETATM   16  C   UNL     1       8.280   6.225  89.598  1.00  0.00     0.018 A 
HETATM   17  C   UNL     1       6.992   5.697  89.513  1.00  0.00     0.022 A 
HETATM   18  C   UNL     1       5.988   6.413  88.860  1.00  0.00     0.018 A 
HETATM   19  C   UNL     1       6.295   7.639  88.307  1.00  0.00     0.032 A 
HETATM   20  C   UNL     1       7.561   8.181  88.377  1.00  0.00     0.018 A 
HETATM   21  C   UNL     1       8.565   7.467  89.030  1.00  0.00     0.022 A 
BRANCH  19  22
HETATM   22  C   UNL     1       5.226   8.399  87.609  1.00  0.00     0.252 C 
HETATM   23  O   UNL     1       5.011   8.178  86.420  1.00  0.00    -0.268 OA
HETATM   24  N   UNL     1       4.521   9.308  88.386  1.00  0.00    -0.342 N 
HETATM   25  H   UNL     1       4.738   9.419  89.369  1.00  0.00     0.163 HD
BRANCH  24  26
HETATM   26  C   UNL     1       3.440  10.102  87.860  1.00  0.00     0.199 C 
BRANCH  26  27
HETATM   27  C   UNL     1       2.059   9.541  88.223  1.00  0.00     0.145 C 
HETATM   28  C   UNL     1       1.870   8.104  87.747  1.00  0.00     0.042 C 
BRANCH  27  29
HETATM   29  O   UNL     1       1.882   9.587  89.638  1.00  0.00    -0.393 OA
HETATM   30  H   UNL     1       2.439   8.898  90.038  1.00  0.00     0.210 HD
ENDBRANCH  27  29
ENDBRANCH  26  27
BRANCH  26  31
HETATM   31  C   UNL     1       3.613  11.526  88.379  1.00  0.00     0.220 C 
HETATM   32  O   UNL     1       3.021  11.955  89.368  1.00  0.00    -0.278 OA
HETATM   33  N   UNL     1       4.466  12.264  87.595  1.00  0.00    -0.271 NA
HETATM   34  H   UNL     1       4.898  11.972  86.727  1.00  0.00     0.127 HD
HETATM   35  H   UNL     1       4.153  13.315  86.717  1.00  0.00     0.127 HD
ENDBRANCH  26  31
ENDBRANCH  24  26
ENDBRANCH  19  22
ENDBRANCH  15  16
ENDBRANCH  11  14
ENDBRANCH   7   8
ENDBRANCH   2   7
TORSDOF 9
ENDMDL
MODEL 6
REMARK VINA RESULT:      -5.0      1.785      2.162
REMARK  9 active torsions:
REMARK  status: ('A' for Active; 'I' for Inactive)
REMARK    1  A    between atoms: O_2  and  C_17 
REMARK    2  A    between atoms: N_5  and  C_10 
REMARK    3  A    between atoms: N_6  and  C_14 
REMARK       I    between atoms: N_6  and  C_23 
REMARK       I    between atoms: N_7  and  C_22 
REMARK    4  A    between atoms: C_10  and  C_13 
REMARK    5  A    between atoms: C_14  and  C_17 
REMARK    6  A    between atoms: C_14  and  C_22 
REMARK    7  A    between atoms: C_20  and  C_25 
REMARK    8  A    between atoms: C_23  and  C_24 
REMARK    9  A    between atoms: C_28  and  C_31 
ROOT
HETATM    1  O   UNL     1      15.219   3.951  91.890  1.00  0.00    -0.388 OA
HETATM    2  N   UNL     1      12.811   2.434  91.927  1.00  0.00     0.096 N 
HETATM    3  C   UNL     1      12.973   3.595  91.041  1.00  0.00     0.299 C 
HETATM    4  C   UNL     1      13.632   2.603  93.134  1.00  0.00     0.299 C 
HETATM    5  C   UNL     1      14.449   3.781  90.698  1.00  0.00     0.198 C 
HETATM    6  C   UNL     1      15.091   2.813  92.743  1.00  0.00     0.198 C 
ENDROOT
BRANCH   2   7
HETATM    7  C   UNL     1      11.404   2.243  92.277  1.00  0.00     0.311 C 
BRANCH   7   8
HETATM    8  C   UNL     1      10.605   3.491  92.117  1.00  0.00    -0.030 A 
HETATM    9  C   UNL     1       9.788   3.657  90.998  1.00  0.00     0.010 A 
HETATM   10  C   UNL     1       9.041   4.825  90.846  1.00  0.00     0.021 A 
HETATM   11  C   UNL     1       9.110   5.826  91.815  1.00  0.00     0.018 A 
HETATM   12  C   UNL     1       9.924   5.661  92.933  1.00  0.00     0.021 A 
HETATM   13  C   UNL     1      10.672   4.494  93.085  1.00  0.00     0.010 A 
BRANCH  11  14
HETATM   14  C   UNL     1       8.342   7.023  91.660  1.00  0.00    -0.061 C 
HETATM   15  C   UNL     1       7.697   8.029  91.530  1.00  0.00    -0.061 C 
BRANCH  15  16
HETATM   16  C   UNL     1       6.930   9.226  91.375  1.00  0.00     0.018 A 
HETATM   17  C   UNL     1       6.670   9.725  90.099  1.00  0.00     0.022 A 
HETATM   18  C   UNL     1       5.919  10.892  89.947  1.00  0.00     0.018 A 
HETATM   19  C   UNL     1       5.446  11.531  91.074  1.00  0.00     0.032 A 
HETATM   20  C   UNL     1       5.690  11.058  92.346  1.00  0.00     0.018 A 
HETATM   21  C   UNL     1       6.441   9.892  92.499  1.00  0.00     0.022 A 
BRANCH  19  22
HETATM   22  C   UNL     1       4.649  12.774  90.912  1.00  0.00     0.252 C 
HETATM   23  O   UNL     1       4.494  13.246  89.788  1.00  0.00    -0.268 OA
HETATM   24  N   UNL     1       4.107  13.304  92.075  1.00  0.00    -0.342 N 
HETATM   25  H   UNL     1       4.256  12.846  92.966  1.00  0.00     0.163 HD
BRANCH  24  26
HETATM   26  C   UNL     1       3.290  14.491  92.079  1.00  0.00     0.199 C 
BRANCH  26  27
HETATM   27  C   UNL     1       1.790  14.180  91.998  1.00  0.00     0.145 C 
HETATM   28  C   UNL     1       1.231  14.361  90.591  1.00  0.00     0.042 C 
BRANCH  27  29
HETATM   29  O   UNL     1       1.558  12.837  92.421  1.00  0.00    -0.393 OA
HETATM   30  H   UNL     1       1.771  12.244  91.680  1.00  0.00     0.210 HD
ENDBRANCH  27  29
ENDBRANCH  26  27
BRANCH  26  31
HETATM   31  C   UNL     1       3.625  15.283  93.338  1.00  0.00     0.220 C 
HETATM   32  O   UNL     1       4.770  15.625  93.630  1.00  0.00    -0.278 OA
HETATM   33  N   UNL     1       2.514  15.527  94.109  1.00  0.00    -0.271 NA
HETATM   34  H   UNL     1       1.575  15.185  93.945  1.00  0.00     0.127 HD
HETATM   35  H   UNL     1       2.167  14.955  95.343  1.00  0.00     0.127 HD
ENDBRANCH  26  31
ENDBRANCH  24  26
ENDBRANCH  19  22
ENDBRANCH  15  16
ENDBRANCH  11  14
ENDBRANCH   7   8
ENDBRANCH   2   7
TORSDOF 9
ENDMDL
MODEL 7
REMARK VINA RESULT:      -5.0      2.311     12.469
REMARK  9 active torsions:
REMARK  status: ('A' for Active; 'I' for Inactive)
REMARK    1  A    between atoms: O_2  and  C_17 
REMARK    2  A    between atoms: N_5  and  C_10 
REMARK    3  A    between atoms: N_6  and  C_14 
REMARK       I    between atoms: N_6  and  C_23 
REMARK       I    between atoms: N_7  and  C_22 
REMARK    4  A    between atoms: C_10  and  C_13 
REMARK    5  A    between atoms: C_14  and  C_17 
REMARK    6  A    between atoms: C_14  and  C_22 
REMARK    7  A    between atoms: C_20  and  C_25 
REMARK    8  A    between atoms: C_23  and  C_24 
REMARK    9  A    between atoms: C_28  and  C_31 
ROOT
HETATM    1  O   UNL     1       4.542  14.933  89.787  1.00  0.00    -0.388 OA
HETATM    2  N   UNL     1       3.071  13.802  91.946  1.00  0.00     0.096 N 
HETATM    3  C   UNL     1       4.261  14.632  92.179  1.00  0.00     0.299 C 
HETATM    4  C   UNL     1       3.179  13.120  90.648  1.00  0.00     0.299 C 
HETATM    5  C   UNL     1       4.432  15.625  91.032  1.00  0.00     0.198 C 
HETATM    6  C   UNL     1       3.375  14.148  89.538  1.00  0.00     0.198 C 
ENDROOT
BRANCH   2   7
HETATM    7  C   UNL     1       2.894  12.835  93.028  1.00  0.00     0.311 C 
BRANCH   7   8
HETATM    8  C   UNL     1       3.881  11.720  92.960  1.00  0.00    -0.030 A 
HETATM    9  C   UNL     1       3.525  10.509  92.366  1.00  0.00     0.010 A 
HETATM   10  C   UNL     1       4.447   9.465  92.304  1.00  0.00     0.021 A 
HETATM   11  C   UNL     1       5.725   9.632  92.835  1.00  0.00     0.018 A 
HETATM   12  C   UNL     1       6.083  10.841  93.428  1.00  0.00     0.021 A 
HETATM   13  C   UNL     1       5.161  11.886  93.491  1.00  0.00     0.010 A 
BRANCH  11  14
HETATM   14  C   UNL     1       6.672   8.561  92.769  1.00  0.00    -0.061 C 
HETATM   15  C   UNL     1       7.468   7.662  92.715  1.00  0.00    -0.061 C 
BRANCH  15  16
HETATM   16  C   UNL     1       8.413   6.591  92.650  1.00  0.00     0.018 A 
HETATM   17  C   UNL     1       8.342   5.662  91.612  1.00  0.00     0.022 A 
HETATM   18  C   UNL     1       9.267   4.619  91.547  1.00  0.00     0.018 A 
HETATM   19  C   UNL     1      10.239   4.529  92.521  1.00  0.00     0.032 A 
HETATM   20  C   UNL     1      10.330   5.434  93.557  1.00  0.00     0.018 A 
HETATM   21  C   UNL     1       9.406   6.478  93.623  1.00  0.00     0.022 A 
BRANCH  19  22
HETATM   22  C   UNL     1      11.222   3.417  92.453  1.00  0.00     0.252 C 
HETATM   23  O   UNL     1      10.816   2.258  92.428  1.00  0.00    -0.268 OA
HETATM   24  N   UNL     1      12.558   3.788  92.396  1.00  0.00    -0.342 N 
HETATM   25  H   UNL     1      12.819   4.768  92.395  1.00  0.00     0.163 HD
BRANCH  24  26
HETATM   26  C   UNL     1      13.628   2.827  92.303  1.00  0.00     0.199 C 
BRANCH  26  27
HETATM   27  C   UNL     1      14.528   3.058  91.082  1.00  0.00     0.145 C 
HETATM   28  C   UNL     1      14.311   4.427  90.447  1.00  0.00     0.042 C 
BRANCH  27  29
HETATM   29  O   UNL     1      15.896   2.937  91.469  1.00  0.00    -0.393 OA
HETATM   30  H   UNL     1      16.393   3.667  91.063  1.00  0.00     0.210 HD
ENDBRANCH  27  29
ENDBRANCH  26  27
BRANCH  26  31
HETATM   31  C   UNL     1      14.426   2.891  93.601  1.00  0.00     0.220 C 
HETATM   32  O   UNL     1      14.829   3.945  94.088  1.00  0.00    -0.278 OA
HETATM   33  N   UNL     1      14.667   1.643  94.123  1.00  0.00    -0.271 NA
HETATM   34  H   UNL     1      14.428   0.753  93.703  1.00  0.00     0.127 HD
HETATM   35  H   UNL     1      15.879   0.937  94.171  1.00  0.00     0.127 HD
ENDBRANCH  26  31
ENDBRANCH  24  26
ENDBRANCH  19  22
ENDBRANCH  15  16
ENDBRANCH  11  14
ENDBRANCH   7   8
ENDBRANCH   2   7
TORSDOF 9
ENDMDL
MODEL 8
REMARK VINA RESULT:      -5.0      1.652     12.481
REMARK  9 active torsions:
REMARK  status: ('A' for Active; 'I' for Inactive)
REMARK    1  A    between atoms: O_2  and  C_17 
REMARK    2  A    between atoms: N_5  and  C_10 
REMARK    3  A    between atoms: N_6  and  C_14 
REMARK       I    between atoms: N_6  and  C_23 
REMARK       I    between atoms: N_7  and  C_22 
REMARK    4  A    between atoms: C_10  and  C_13 
REMARK    5  A    between atoms: C_14  and  C_17 
REMARK    6  A    between atoms: C_14  and  C_22 
REMARK    7  A    between atoms: C_20  and  C_25 
REMARK    8  A    between atoms: C_23  and  C_24 
REMARK    9  A    between atoms: C_28  and  C_31 
ROOT
HETATM    1  O   UNL     1       3.421  14.268  92.286  1.00  0.00    -0.388 OA
HETATM    2  N   UNL     1       3.906  13.580  89.567  1.00  0.00     0.096 N 
HETATM    3  C   UNL     1       3.038  12.760  90.423  1.00  0.00     0.299 C 
HETATM    4  C   UNL     1       4.925  14.256  90.382  1.00  0.00     0.299 C 
HETATM    5  C   UNL     1       2.407  13.632  91.505  1.00  0.00     0.198 C 
HETATM    6  C   UNL     1       4.250  15.092  91.465  1.00  0.00     0.198 C 
ENDROOT
BRANCH   2   7
HETATM    7  C   UNL     1       4.531  12.762  88.529  1.00  0.00     0.311 C 
BRANCH   7   8
HETATM    8  C   UNL     1       5.418  11.706  89.094  1.00  0.00    -0.030 A 
HETATM    9  C   UNL     1       6.803  11.878  89.077  1.00  0.00     0.010 A 
HETATM   10  C   UNL     1       7.635  10.890  89.604  1.00  0.00     0.021 A 
HETATM   11  C   UNL     1       7.081   9.732  90.150  1.00  0.00     0.018 A 
HETATM   12  C   UNL     1       5.699   9.560  90.168  1.00  0.00     0.021 A 
HETATM   13  C   UNL     1       4.867  10.547  89.640  1.00  0.00     0.010 A 
BRANCH  11  14
HETATM   14  C   UNL     1       7.934   8.720  90.693  1.00  0.00    -0.061 C 
HETATM   15  C   UNL     1       8.652   7.869  91.149  1.00  0.00    -0.061 C 
BRANCH  15  16
HETATM   16  C   UNL     1       9.504   6.858  91.692  1.00  0.00     0.018 A 
HETATM   17  C   UNL     1       9.684   6.767  93.073  1.00  0.00     0.022 A 
HETATM   18  C   UNL     1      10.514   5.778  93.602  1.00  0.00     0.018 A 
HETATM   19  C   UNL     1      11.144   4.905  92.741  1.00  0.00     0.032 A 
HETATM   20  C   UNL     1      10.983   4.975  91.373  1.00  0.00     0.018 A 
HETATM   21  C   UNL     1      10.153   5.963  90.842  1.00  0.00     0.022 A 
BRANCH  19  22
HETATM   22  C   UNL     1      12.029   3.853  93.306  1.00  0.00     0.252 C 
HETATM   23  O   UNL     1      11.530   2.814  93.731  1.00  0.00    -0.268 OA
HETATM   24  N   UNL     1      13.389   4.128  93.285  1.00  0.00    -0.342 N 
HETATM   25  H   UNL     1      13.731   4.999  92.895  1.00  0.00     0.163 HD
BRANCH  24  26
HETATM   26  C   UNL     1      14.376   3.199  93.774  1.00  0.00     0.199 C 
BRANCH  26  27
HETATM   27  C   UNL     1      14.441   1.911  92.944  1.00  0.00     0.145 C 
HETATM   28  C   UNL     1      15.204   2.096  91.637  1.00  0.00     0.042 C 
BRANCH  27  29
HETATM   29  O   UNL     1      15.070   0.882  93.707  1.00  0.00    -0.393 OA
HETATM   30  H   UNL     1      14.774   0.962  94.629  1.00  0.00     0.210 HD
ENDBRANCH  27  29
ENDBRANCH  26  27
BRANCH  26  31
HETATM   31  C   UNL     1      15.722   3.915  93.792  1.00  0.00     0.220 C 
HETATM   32  O   UNL     1      15.851   5.105  93.510  1.00  0.00    -0.278 OA
HETATM   33  N   UNL     1      16.755   3.071  94.118  1.00  0.00    -0.271 NA
HETATM   34  H   UNL     1      16.697   2.070  94.269  1.00  0.00     0.127 HD
HETATM   35  H   UNL     1      17.766   2.567  93.284  1.00  0.00     0.127 HD
ENDBRANCH  26  31
ENDBRANCH  24  26
ENDBRANCH  19  22
ENDBRANCH  15  16
ENDBRANCH  11  14
ENDBRANCH   7   8
ENDBRANCH   2   7
TORSDOF 9
ENDMDL
MODEL 9
REMARK VINA RESULT:      -4.5      1.341      2.019
REMARK  9 active torsions:
REMARK  status: ('A' for Active; 'I' for Inactive)
REMARK    1  A    between atoms: O_2  and  C_17 
REMARK    2  A    between atoms: N_5  and  C_10 
REMARK    3  A    between atoms: N_6  and  C_14 
REMARK       I    between atoms: N_6  and  C_23 
REMARK       I    between atoms: N_7  and  C_22 
REMARK    4  A    between atoms: C_10  and  C_13 
REMARK    5  A    between atoms: C_14  and  C_17 
REMARK    6  A    between atoms: C_14  and  C_22 
REMARK    7  A    between atoms: C_20  and  C_25 
REMARK    8  A    between atoms: C_23  and  C_24 
REMARK    9  A    between atoms: C_28  and  C_31 
ROOT
HETATM    1  O   UNL     1      16.843   4.560  93.662  1.00  0.00    -0.388 OA
HETATM    2  N   UNL     1      14.571   2.942  93.093  1.00  0.00     0.096 N 
HETATM    3  C   UNL     1      15.918   2.558  92.648  1.00  0.00     0.299 C 
HETATM    4  C   UNL     1      14.469   4.404  93.186  1.00  0.00     0.299 C 
HETATM    5  C   UNL     1      16.962   3.137  93.600  1.00  0.00     0.198 C 
HETATM    6  C   UNL     1      15.546   4.941  94.124  1.00  0.00     0.198 C 
ENDROOT
BRANCH   2   7
HETATM    7  C   UNL     1      13.555   2.406  92.189  1.00  0.00     0.311 C 
BRANCH   7   8
HETATM    8  C   UNL     1      12.413   3.344  91.998  1.00  0.00    -0.030 A 
HETATM    9  C   UNL     1      11.640   3.733  93.092  1.00  0.00     0.010 A 
HETATM   10  C   UNL     1      10.570   4.609  92.914  1.00  0.00     0.021 A 
HETATM   11  C   UNL     1      10.275   5.099  91.642  1.00  0.00     0.018 A 
HETATM   12  C   UNL     1      11.047   4.712  90.548  1.00  0.00     0.021 A 
HETATM   13  C   UNL     1      12.116   3.835  90.726  1.00  0.00     0.010 A 
BRANCH  11  14
HETATM   14  C   UNL     1       9.178   5.999  91.460  1.00  0.00    -0.061 C 
HETATM   15  C   UNL     1       8.258   6.757  91.307  1.00  0.00    -0.061 C 
BRANCH  15  16
HETATM   16  C   UNL     1       7.162   7.658  91.124  1.00  0.00     0.018 A 
HETATM   17  C   UNL     1       5.853   7.206  91.295  1.00  0.00     0.022 A 
HETATM   18  C   UNL     1       4.785   8.086  91.119  1.00  0.00     0.018 A 
HETATM   19  C   UNL     1       5.049   9.396  90.777  1.00  0.00     0.032 A 
HETATM   20  C   UNL     1       6.334   9.866  90.602  1.00  0.00     0.018 A 
HETATM   21  C   UNL     1       7.403   8.987  90.778  1.00  0.00     0.022 A 
BRANCH  19  22
HETATM   22  C   UNL     1       3.911  10.332  90.588  1.00  0.00     0.252 C 
HETATM   23  O   UNL     1       2.848   9.902  90.146  1.00  0.00    -0.268 OA
HETATM   24  N   UNL     1       4.139  11.650  90.960  1.00  0.00    -0.342 N 
HETATM   25  H   UNL     1       5.036  11.927  91.342  1.00  0.00     0.163 HD
BRANCH  24  26
HETATM   26  C   UNL     1       3.127  12.670  90.859  1.00  0.00     0.199 C 
BRANCH  26  27
HETATM   27  C   UNL     1       2.265  12.778  92.124  1.00  0.00     0.145 C 
HETATM   28  C   UNL     1       3.103  12.902  93.392  1.00  0.00     0.042 C 
BRANCH  27  29
HETATM   29  O   UNL     1       1.408  13.915  92.022  1.00  0.00    -0.393 OA
HETATM   30  H   UNL     1       1.187  14.211  92.921  1.00  0.00     0.210 HD
ENDBRANCH  27  29
ENDBRANCH  26  27
BRANCH  26  31
HETATM   31  C   UNL     1       3.825  13.990  90.550  1.00  0.00     0.220 C 
HETATM   32  O   UNL     1       3.770  14.535  89.449  1.00  0.00    -0.278 OA
HETATM   33  N   UNL     1       4.541  14.463  91.623  1.00  0.00    -0.271 NA
HETATM   34  H   UNL     1       4.681  13.997  92.512  1.00  0.00     0.127 HD
HETATM   35  H   UNL     1       5.934  14.511  91.789  1.00  0.00     0.127 HD
ENDBRANCH  26  31
ENDBRANCH  24  26
ENDBRANCH  19  22
ENDBRANCH  15  16
ENDBRANCH  11  14
ENDBRANCH   7   8
ENDBRANCH   2   7
TORSDOF 9
ENDMDL
