MODEL 1
REMARK VINA RESULT:      -7.6      0.000      0.000
REMARK  9 active torsions:
REMARK  status: ('A' for Active; 'I' for Inactive)
REMARK    1  A    between atoms: N_3  and  C_6 
REMARK    2  A    between atoms: C_6  and  C_9 
REMARK    3  A    between atoms: C_14  and  C_17 
REMARK       I    between atoms: N_26  and  C_15 
REMARK    4  A    between atoms: C_15  and  C_16 
REMARK    5  A    between atoms: C_20  and  C_23 
REMARK    6  A    between atoms: OG1_24  and  CB_28 
REMARK    7  A    between atoms: N_26  and  CA_27 
REMARK    8  A    between atoms: CA_27  and  CB_28 
REMARK    9  A    between atoms: CA_27  and  C_30 
ROOT
HETATM    1  O   UNK A   0       1.944   8.187  87.907  1.00  0.00    -0.388 OA
HETATM    2  N   UNK A   0       4.717   7.578  87.708  1.00  0.00     0.096 N 
HETATM    3  C   UNK A   0       4.240   8.965  87.803  1.00  0.00     0.299 C 
HETATM    4  C   UNK A   0       3.698   6.738  87.066  1.00  0.00     0.299 C 
HETATM    5  C   UNK A   0       2.915   9.005  88.561  1.00  0.00     0.198 C 
HETATM    6  C   UNK A   0       2.387   6.831  87.840  1.00  0.00     0.198 C 
ENDROOT
BRANCH   2   7
HETATM    7  C   UNK A   0       5.981   7.514  86.976  1.00  0.00     0.311 C 
BRANCH   7   8
HETATM    8  C   UNK A   0       7.080   6.922  87.791  1.00  0.00    -0.030 A 
HETATM    9  C   UNK A   0       8.311   6.640  87.199  1.00  0.00     0.010 A 
HETATM   10  C   UNK A   0       9.340   6.084  87.959  1.00  0.00     0.021 A 
HETATM   11  C   UNK A   0       9.137   5.812  89.312  1.00  0.00     0.018 A 
HETATM   12  C   UNK A   0       7.908   6.094  89.904  1.00  0.00     0.021 A 
HETATM   13  C   UNK A   0       6.879   6.650  89.144  1.00  0.00     0.010 A 
BRANCH  11  14
HETATM   14  C   UNK A   0      10.192   5.244  90.093  1.00  0.00    -0.061 C 
HETATM   15  C   UNK A   0      11.080   4.767  90.748  1.00  0.00    -0.061 C 
BRANCH  15  16
HETATM   16  C   UNK A   0      12.136   4.199  91.528  1.00  0.00     0.018 A 
HETATM   17  C   UNK A   0      11.917   3.882  92.869  1.00  0.00     0.022 A 
HETATM   18  C   UNK A   0      12.946   3.326  93.629  1.00  0.00     0.018 A 
HETATM   19  C   UNK A   0      14.169   3.100  93.032  1.00  0.00     0.032 A 
HETATM   20  C   UNK A   0      14.410   3.405  91.709  1.00  0.00     0.018 A 
HETATM   21  C   UNK A   0      13.381   3.961  90.948  1.00  0.00     0.022 A 
BRANCH  19  22
HETATM   22  C   UNK A   0      15.265   2.509  93.843  1.00  0.00     0.252 C 
HETATM   23  O   UNK A   0      16.396   2.983  93.759  1.00  0.00    -0.268 OA
ENDBRANCH  19  22
ENDBRANCH  15  16
ENDBRANCH  11  14
ENDBRANCH   7   8
ENDBRANCH   2   7
TORSDOF 9
ENDMDL
MODEL 2
REMARK VINA RESULT:      -7.5      0.116      1.014
REMARK  9 active torsions:
REMARK  status: ('A' for Active; 'I' for Inactive)
REMARK    1  A    between atoms: N_3  and  C_6 
REMARK    2  A    between atoms: C_6  and  C_9 
REMARK    3  A    between atoms: C_14  and  C_17 
REMARK       I    between atoms: N_26  and  C_15 
REMARK    4  A    between atoms: C_15  and  C_16 
REMARK    5  A    between atoms: C_20  and  C_23 
REMARK    6  A    between atoms: OG1_24  and  CB_28 
REMARK    7  A    between atoms: N_26  and  CA_27 
REMARK    8  A    between atoms: CA_27  and  CB_28 
REMARK    9  A    between atoms: CA_27  and  C_30 
ROOT
HETATM    1  O   UNK A   0       1.848   8.093  87.871  1.00  0.00    -0.388 OA
HETATM    2  N   UNK A   0       4.636   7.547  87.690  1.00  0.00     0.096 N 
HETATM    3  C   UNK A   0       4.130   8.918  87.844  1.00  0.00     0.299 C 
HETATM    4  C   UNK A   0       3.643   6.720  86.990  1.00  0.00     0.299 C 
HETATM    5  C   UNK A   0       2.793   8.897  88.580  1.00  0.00     0.198 C 
HETATM    6  C   UNK A   0       2.318   6.751  87.745  1.00  0.00     0.198 C 
ENDROOT
BRANCH   2   7
HETATM    7  C   UNK A   0       5.912   7.543  86.977  1.00  0.00     0.311 C 
BRANCH   7   8
HETATM    8  C   UNK A   0       7.010   6.936  87.782  1.00  0.00    -0.030 A 
HETATM    9  C   UNK A   0       8.263   6.727  87.204  1.00  0.00     0.010 A 
HETATM   10  C   UNK A   0       9.291   6.157  87.956  1.00  0.00     0.021 A 
HETATM   11  C   UNK A   0       9.066   5.799  89.284  1.00  0.00     0.018 A 
HETATM   12  C   UNK A   0       7.815   6.007  89.862  1.00  0.00     0.021 A 
HETATM   13  C   UNK A   0       6.787   6.576  89.111  1.00  0.00     0.010 A 
BRANCH  11  14
HETATM   14  C   UNK A   0      10.120   5.216  90.056  1.00  0.00    -0.061 C 
HETATM   15  C   UNK A   0      11.007   4.726  90.703  1.00  0.00    -0.061 C 
BRANCH  15  16
HETATM   16  C   UNK A   0      12.062   4.145  91.474  1.00  0.00     0.018 A 
HETATM   17  C   UNK A   0      13.314   3.936  90.894  1.00  0.00     0.022 A 
HETATM   18  C   UNK A   0      14.344   3.371  91.647  1.00  0.00     0.018 A 
HETATM   19  C   UNK A   0      14.099   3.029  92.960  1.00  0.00     0.032 A 
HETATM   20  C   UNK A   0      12.871   3.225  93.556  1.00  0.00     0.018 A 
HETATM   21  C   UNK A   0      11.840   3.790  92.804  1.00  0.00     0.022 A 
BRANCH  19  22
HETATM   22  C   UNK A   0      15.196   2.426  93.761  1.00  0.00     0.252 C 
HETATM   23  O   UNK A   0      16.333   2.879  93.658  1.00  0.00    -0.268 OA
ENDBRANCH  19  22
ENDBRANCH  15  16
ENDBRANCH  11  14
ENDBRANCH   7   8
ENDBRANCH   2   7
TORSDOF 9
ENDMDL
MODEL 3
REMARK VINA RESULT:      -7.5      0.200      1.438
REMARK  9 active torsions:
REMARK  status: ('A' for Active; 'I' for Inactive)
REMARK    1  A    between atoms: N_3  and  C_6 
REMARK    2  A    between atoms: C_6  and  C_9 
REMARK    3  A    between atoms: C_14  and  C_17 
REMARK       I    between atoms: N_26  and  C_15 
REMARK    4  A    between atoms: C_15  and  C_16 
REMARK    5  A    between atoms: C_20  and  C_23 
REMARK    6  A    between atoms: OG1_24  and  CB_28 
REMARK    7  A    between atoms: N_26  and  CA_27 
REMARK    8  A    between atoms: CA_27  and  CB_28 
REMARK    9  A    between atoms: CA_27  and  C_30 
ROOT
HETATM    1  O   UNK A   0       1.773   8.239  87.895  1.00  0.00    -0.388 OA
HETATM    2  N   UNK A   0       4.549   7.645  87.686  1.00  0.00     0.096 N 
HETATM    3  C   UNK A   0       4.065   9.029  87.795  1.00  0.00     0.299 C 
HETATM    4  C   UNK A   0       3.532   6.806  87.037  1.00  0.00     0.299 C 
HETATM    5  C   UNK A   0       2.742   9.055  88.555  1.00  0.00     0.198 C 
HETATM    6  C   UNK A   0       2.222   6.886  87.813  1.00  0.00     0.198 C 
ENDROOT
BRANCH   2   7
HETATM    7  C   UNK A   0       5.812   7.595  86.952  1.00  0.00     0.311 C 
BRANCH   7   8
HETATM    8  C   UNK A   0       6.911   6.986  87.754  1.00  0.00    -0.030 A 
HETATM    9  C   UNK A   0       6.702   6.671  89.097  1.00  0.00     0.010 A 
HETATM   10  C   UNK A   0       7.730   6.104  89.849  1.00  0.00     0.021 A 
HETATM   11  C   UNK A   0       8.967   5.851  89.257  1.00  0.00     0.018 A 
HETATM   12  C   UNK A   0       9.178   6.165  87.916  1.00  0.00     0.021 A 
HETATM   13  C   UNK A   0       8.150   6.733  87.164  1.00  0.00     0.010 A 
BRANCH  11  14
HETATM   14  C   UNK A   0      10.022   5.267  90.028  1.00  0.00    -0.061 C 
HETATM   15  C   UNK A   0      10.908   4.777  90.675  1.00  0.00    -0.061 C 
BRANCH  15  16
HETATM   16  C   UNK A   0      11.962   4.194  91.446  1.00  0.00     0.018 A 
HETATM   17  C   UNK A   0      13.230   4.035  90.885  1.00  0.00     0.022 A 
HETATM   18  C   UNK A   0      14.258   3.470  91.638  1.00  0.00     0.018 A 
HETATM   19  C   UNK A   0      13.997   3.076  92.934  1.00  0.00     0.032 A 
HETATM   20  C   UNK A   0      12.753   3.222  93.511  1.00  0.00     0.018 A 
HETATM   21  C   UNK A   0      11.724   3.788  92.759  1.00  0.00     0.022 A 
BRANCH  19  22
HETATM   22  C   UNK A   0      15.093   2.472  93.736  1.00  0.00     0.252 C 
HETATM   23  O   UNK A   0      16.253   2.815  93.521  1.00  0.00    -0.268 OA
ENDBRANCH  19  22
ENDBRANCH  15  16
ENDBRANCH  11  14
ENDBRANCH   7   8
ENDBRANCH   2   7
TORSDOF 9
ENDMDL
MODEL 4
REMARK VINA RESULT:      -6.9      1.470      2.077
REMARK  9 active torsions:
REMARK  status: ('A' for Active; 'I' for Inactive)
REMARK    1  A    between atoms: N_3  and  C_6 
REMARK    2  A    between atoms: C_6  and  C_9 
REMARK    3  A    between atoms: C_14  and  C_17 
REMARK       I    between atoms: N_26  and  C_15 
REMARK    4  A    between atoms: C_15  and  C_16 
REMARK    5  A    between atoms: C_20  and  C_23 
REMARK    6  A    between atoms: OG1_24  and  CB_28 
REMARK    7  A    between atoms: N_26  and  CA_27 
REMARK    8  A    between atoms: CA_27  and  CB_28 
REMARK    9  A    between atoms: CA_27  and  C_30 
ROOT
HETATM    1  O   UNK A   0       5.129  11.070  88.663  1.00  0.00    -0.388 OA
HETATM    2  N   UNK A   0       5.480   8.246  88.695  1.00  0.00     0.096 N 
HETATM    3  C   UNK A   0       6.600   9.162  88.951  1.00  0.00     0.299 C 
HETATM    4  C   UNK A   0       4.495   8.888  87.814  1.00  0.00     0.299 C 
HETATM    5  C   UNK A   0       6.076  10.466  89.546  1.00  0.00     0.198 C 
HETATM    6  C   UNK A   0       4.021  10.198  88.434  1.00  0.00     0.198 C 
ENDROOT
BRANCH   2   7
HETATM    7  C   UNK A   0       5.959   6.993  88.114  1.00  0.00     0.311 C 
BRANCH   7   8
HETATM    8  C   UNK A   0       7.153   6.456  88.826  1.00  0.00    -0.030 A 
HETATM    9  C   UNK A   0       8.382   6.383  88.168  1.00  0.00     0.010 A 
HETATM   10  C   UNK A   0       9.500   5.880  88.833  1.00  0.00     0.021 A 
HETATM   11  C   UNK A   0       9.389   5.451  90.155  1.00  0.00     0.018 A 
HETATM   12  C   UNK A   0       8.163   5.524  90.813  1.00  0.00     0.021 A 
HETATM   13  C   UNK A   0       7.045   6.027  90.149  1.00  0.00     0.010 A 
BRANCH  11  14
HETATM   14  C   UNK A   0      10.537   4.936  90.838  1.00  0.00    -0.061 C 
HETATM   15  C   UNK A   0      11.501   4.503  91.411  1.00  0.00    -0.061 C 
BRANCH  15  16
HETATM   16  C   UNK A   0      12.648   3.988  92.092  1.00  0.00     0.018 A 
HETATM   17  C   UNK A   0      13.869   3.891  91.424  1.00  0.00     0.022 A 
HETATM   18  C   UNK A   0      14.988   3.391  92.089  1.00  0.00     0.018 A 
HETATM   19  C   UNK A   0      14.862   3.001  93.406  1.00  0.00     0.032 A 
HETATM   20  C   UNK A   0      13.666   3.087  94.088  1.00  0.00     0.018 A 
HETATM   21  C   UNK A   0      12.546   3.587  93.424  1.00  0.00     0.022 A 
BRANCH  19  22
HETATM   22  C   UNK A   0      16.054   2.467  94.114  1.00  0.00     0.252 C 
HETATM   23  O   UNK A   0      17.165   2.919  93.844  1.00  0.00    -0.268 OA
ENDBRANCH  19  22
ENDBRANCH  15  16
ENDBRANCH  11  14
ENDBRANCH   7   8
ENDBRANCH   2   7
TORSDOF 9
ENDMDL
MODEL 5
REMARK VINA RESULT:      -6.9      1.497      1.881
REMARK  9 active torsions:
REMARK  status: ('A' for Active; 'I' for Inactive)
REMARK    1  A    between atoms: N_3  and  C_6 
REMARK    2  A    between atoms: C_6  and  C_9 
REMARK    3  A    between atoms: C_14  and  C_17 
REMARK       I    between atoms: N_26  and  C_15 
REMARK    4  A    between atoms: C_15  and  C_16 
REMARK    5  A    between atoms: C_20  and  C_23 
REMARK    6  A    between atoms: OG1_24  and  CB_28 
REMARK    7  A    between atoms: N_26  and  CA_27 
REMARK    8  A    between atoms: CA_27  and  CB_28 
REMARK    9  A    between atoms: CA_27  and  C_30 
ROOT
HETATM    1  O   UNK A   0       2.889  11.253  89.745  1.00  0.00    -0.388 OA
HETATM    2  N   UNK A   0       4.678   9.277  88.747  1.00  0.00     0.096 N 
HETATM    3  C   UNK A   0       3.844  10.083  87.845  1.00  0.00     0.299 C 
HETATM    4  C   UNK A   0       4.011   9.124  90.047  1.00  0.00     0.299 C 
HETATM    5  C   UNK A   0       3.544  11.435  88.489  1.00  0.00     0.198 C 
HETATM    6  C   UNK A   0       3.707  10.496  90.638  1.00  0.00     0.198 C 
ENDROOT
BRANCH   2   7
HETATM    7  C   UNK A   0       4.970   7.973  88.155  1.00  0.00     0.311 C 
BRANCH   7   8
HETATM    8  C   UNK A   0       6.179   7.336  88.750  1.00  0.00    -0.030 A 
HETATM    9  C   UNK A   0       7.433   7.920  88.570  1.00  0.00     0.010 A 
HETATM   10  C   UNK A   0       8.566   7.323  89.125  1.00  0.00     0.021 A 
HETATM   11  C   UNK A   0       8.443   6.146  89.861  1.00  0.00     0.018 A 
HETATM   12  C   UNK A   0       7.190   5.562  90.042  1.00  0.00     0.021 A 
HETATM   13  C   UNK A   0       6.058   6.158  89.487  1.00  0.00     0.010 A 
BRANCH  11  14
HETATM   14  C   UNK A   0       9.604   5.535  90.432  1.00  0.00    -0.061 C 
HETATM   15  C   UNK A   0      10.580   5.023  90.911  1.00  0.00    -0.061 C 
BRANCH  15  16
HETATM   16  C   UNK A   0      11.741   4.414  91.482  1.00  0.00     0.018 A 
HETATM   17  C   UNK A   0      11.703   3.932  92.790  1.00  0.00     0.022 A 
HETATM   18  C   UNK A   0      12.835   3.335  93.345  1.00  0.00     0.018 A 
HETATM   19  C   UNK A   0      13.978   3.234  92.581  1.00  0.00     0.032 A 
HETATM   20  C   UNK A   0      14.042   3.703  91.285  1.00  0.00     0.018 A 
HETATM   21  C   UNK A   0      12.910   4.300  90.729  1.00  0.00     0.022 A 
BRANCH  19  22
HETATM   22  C   UNK A   0      15.185   2.600  93.173  1.00  0.00     0.252 C 
HETATM   23  O   UNK A   0      15.786   3.180  94.074  1.00  0.00    -0.268 OA
ENDBRANCH  19  22
ENDBRANCH  15  16
ENDBRANCH  11  14
ENDBRANCH   7   8
ENDBRANCH   2   7
TORSDOF 9
ENDMDL
MODEL 6
REMARK VINA RESULT:      -6.6      3.856     10.394
REMARK  9 active torsions:
REMARK  status: ('A' for Active; 'I' for Inactive)
REMARK    1  A    between atoms: N_3  and  C_6 
REMARK    2  A    between atoms: C_6  and  C_9 
REMARK    3  A    between atoms: C_14  and  C_17 
REMARK       I    between atoms: N_26  and  C_15 
REMARK    4  A    between atoms: C_15  and  C_16 
REMARK    5  A    between atoms: C_20  and  C_23 
REMARK    6  A    between atoms: OG1_24  and  CB_28 
REMARK    7  A    between atoms: N_26  and  CA_27 
REMARK    8  A    between atoms: CA_27  and  CB_28 
REMARK    9  A    between atoms: CA_27  and  C_30 
ROOT
HETATM    1  O   UNK A   0      14.402   3.164  92.164  1.00  0.00    -0.388 OA
HETATM    2  N   UNK A   0      11.696   4.041  92.061  1.00  0.00     0.096 N 
HETATM    3  C   UNK A   0      12.187   3.192  93.155  1.00  0.00     0.299 C 
HETATM    4  C   UNK A   0      12.467   3.782  90.838  1.00  0.00     0.299 C 
HETATM    5  C   UNK A   0      13.679   3.433  93.367  1.00  0.00     0.198 C 
HETATM    6  C   UNK A   0      13.952   4.008  91.104  1.00  0.00     0.198 C 
ENDROOT
BRANCH   2   7
HETATM    7  C   UNK A   0      10.269   3.819  91.833  1.00  0.00     0.311 C 
BRANCH   7   8
HETATM    8  C   UNK A   0       9.528   5.089  91.588  1.00  0.00    -0.030 A 
HETATM    9  C   UNK A   0       8.489   5.121  90.657  1.00  0.00     0.010 A 
HETATM   10  C   UNK A   0       7.797   6.309  90.426  1.00  0.00     0.021 A 
HETATM   11  C   UNK A   0       8.142   7.464  91.127  1.00  0.00     0.018 A 
HETATM   12  C   UNK A   0       9.179   7.433  92.057  1.00  0.00     0.021 A 
HETATM   13  C   UNK A   0       9.872   6.245  92.288  1.00  0.00     0.010 A 
BRANCH  11  14
HETATM   14  C   UNK A   0       7.430   8.683  90.891  1.00  0.00    -0.061 C 
HETATM   15  C   UNK A   0       6.833   9.707  90.692  1.00  0.00    -0.061 C 
BRANCH  15  16
HETATM   16  C   UNK A   0       6.121  10.924  90.455  1.00  0.00     0.018 A 
HETATM   17  C   UNK A   0       6.288  11.605  89.248  1.00  0.00     0.022 A 
HETATM   18  C   UNK A   0       5.591  12.791  89.016  1.00  0.00     0.018 A 
HETATM   19  C   UNK A   0       4.745  13.269  89.995  1.00  0.00     0.032 A 
HETATM   20  C   UNK A   0       4.564  12.616  91.196  1.00  0.00     0.018 A 
HETATM   21  C   UNK A   0       5.260  11.429  91.429  1.00  0.00     0.022 A 
BRANCH  19  22
HETATM   22  C   UNK A   0       4.005  14.534  89.748  1.00  0.00     0.252 C 
HETATM   23  O   UNK A   0       4.636  15.563  89.518  1.00  0.00    -0.268 OA
ENDBRANCH  19  22
ENDBRANCH  15  16
ENDBRANCH  11  14
ENDBRANCH   7   8
ENDBRANCH   2   7
TORSDOF 9
ENDMDL
MODEL 7
REMARK VINA RESULT:      -6.6      3.888     10.402
REMARK  9 active torsions:
REMARK  status: ('A' for Active; 'I' for Inactive)
REMARK    1  A    between atoms: N_3  and  C_6 
REMARK    2  A    between atoms: C_6  and  C_9 
REMARK    3  A    between atoms: C_14  and  C_17 
REMARK       I    between atoms: N_26  and  C_15 
REMARK    4  A    between atoms: C_15  and  C_16 
REMARK    5  A    between atoms: C_20  and  C_23 
REMARK    6  A    between atoms: OG1_24  and  CB_28 
REMARK    7  A    between atoms: N_26  and  CA_27 
REMARK    8  A    between atoms: CA_27  and  CB_28 
REMARK    9  A    between atoms: CA_27  and  C_30 
ROOT
HETATM    1  O   UNK A   0      14.614   3.388  92.081  1.00  0.00    -0.388 OA
HETATM    2  N   UNK A   0      11.885   4.188  92.194  1.00  0.00     0.096 N 
HETATM    3  C   UNK A   0      12.457   3.267  93.186  1.00  0.00     0.299 C 
HETATM    4  C   UNK A   0      12.594   4.053  90.914  1.00  0.00     0.299 C 
HETATM    5  C   UNK A   0      13.952   3.535  93.339  1.00  0.00     0.198 C 
HETATM    6  C   UNK A   0      14.085   4.301  91.120  1.00  0.00     0.198 C 
ENDROOT
BRANCH   2   7
HETATM    7  C   UNK A   0      10.454   3.942  92.024  1.00  0.00     0.311 C 
BRANCH   7   8
HETATM    8  C   UNK A   0       9.693   5.192  91.740  1.00  0.00    -0.030 A 
HETATM    9  C   UNK A   0       9.822   6.293  92.587  1.00  0.00     0.010 A 
HETATM   10  C   UNK A   0       9.108   7.462  92.324  1.00  0.00     0.021 A 
HETATM   11  C   UNK A   0       8.268   7.530  91.214  1.00  0.00     0.018 A 
HETATM   12  C   UNK A   0       8.138   6.431  90.367  1.00  0.00     0.021 A 
HETATM   13  C   UNK A   0       8.851   5.261  90.630  1.00  0.00     0.010 A 
BRANCH  11  14
HETATM   14  C   UNK A   0       7.537   8.730  90.943  1.00  0.00    -0.061 C 
HETATM   15  C   UNK A   0       6.923   9.738  90.715  1.00  0.00    -0.061 C 
BRANCH  15  16
HETATM   16  C   UNK A   0       6.193  10.937  90.444  1.00  0.00     0.018 A 
HETATM   17  C   UNK A   0       5.274  11.419  91.377  1.00  0.00     0.022 A 
HETATM   18  C   UNK A   0       4.564  12.590  91.114  1.00  0.00     0.018 A 
HETATM   19  C   UNK A   0       4.788  13.253  89.925  1.00  0.00     0.032 A 
HETATM   20  C   UNK A   0       5.690  12.797  88.987  1.00  0.00     0.018 A 
HETATM   21  C   UNK A   0       6.401  11.626  89.249  1.00  0.00     0.022 A 
BRANCH  19  22
HETATM   22  C   UNK A   0       4.029  14.499  89.644  1.00  0.00     0.252 C 
HETATM   23  O   UNK A   0       4.642  15.553  89.493  1.00  0.00    -0.268 OA
ENDBRANCH  19  22
ENDBRANCH  15  16
ENDBRANCH  11  14
ENDBRANCH   7   8
ENDBRANCH   2   7
TORSDOF 9
ENDMDL
MODEL 8
REMARK VINA RESULT:      -6.6      3.551     10.286
REMARK  9 active torsions:
REMARK  status: ('A' for Active; 'I' for Inactive)
REMARK    1  A    between atoms: N_3  and  C_6 
REMARK    2  A    between atoms: C_6  and  C_9 
REMARK    3  A    between atoms: C_14  and  C_17 
REMARK       I    between atoms: N_26  and  C_15 
REMARK    4  A    between atoms: C_15  and  C_16 
REMARK    5  A    between atoms: C_20  and  C_23 
REMARK    6  A    between atoms: OG1_24  and  CB_28 
REMARK    7  A    between atoms: N_26  and  CA_27 
REMARK    8  A    between atoms: CA_27  and  CB_28 
REMARK    9  A    between atoms: CA_27  and  C_30 
ROOT
HETATM    1  O   UNK A   0      16.062   2.988  93.609  1.00  0.00    -0.388 OA
HETATM    2  N   UNK A   0      13.380   2.959  92.658  1.00  0.00     0.096 N 
HETATM    3  C   UNK A   0      14.063   1.724  93.068  1.00  0.00     0.299 C 
HETATM    4  C   UNK A   0      14.360   3.936  92.164  1.00  0.00     0.299 C 
HETATM    5  C   UNK A   0      15.120   2.044  94.121  1.00  0.00     0.198 C 
HETATM    6  C   UNK A   0      15.410   4.203  93.237  1.00  0.00     0.198 C 
ENDROOT
BRANCH   2   7
HETATM    7  C   UNK A   0      12.368   2.678  91.640  1.00  0.00     0.311 C 
BRANCH   7   8
HETATM    8  C   UNK A   0      11.518   3.865  91.342  1.00  0.00    -0.030 A 
HETATM    9  C   UNK A   0      11.408   4.331  90.031  1.00  0.00     0.010 A 
HETATM   10  C   UNK A   0      10.614   5.443  89.750  1.00  0.00     0.021 A 
HETATM   11  C   UNK A   0       9.929   6.087  90.780  1.00  0.00     0.018 A 
HETATM   12  C   UNK A   0      10.038   5.623  92.089  1.00  0.00     0.021 A 
HETATM   13  C   UNK A   0      10.832   4.511  92.370  1.00  0.00     0.010 A 
BRANCH  11  14
HETATM   14  C   UNK A   0       9.114   7.227  90.492  1.00  0.00    -0.061 C 
HETATM   15  C   UNK A   0       8.427   8.184  90.249  1.00  0.00    -0.061 C 
BRANCH  15  16
HETATM   16  C   UNK A   0       7.611   9.322  89.962  1.00  0.00     0.018 A 
HETATM   17  C   UNK A   0       6.259   9.314  90.304  1.00  0.00     0.022 A 
HETATM   18  C   UNK A   0       5.464  10.425  90.026  1.00  0.00     0.018 A 
HETATM   19  C   UNK A   0       6.038  11.519  89.413  1.00  0.00     0.032 A 
HETATM   20  C   UNK A   0       7.372  11.552  89.064  1.00  0.00     0.018 A 
HETATM   21  C   UNK A   0       8.168  10.441  89.342  1.00  0.00     0.022 A 
BRANCH  19  22
HETATM   22  C   UNK A   0       5.190  12.702  89.115  1.00  0.00     0.252 C 
HETATM   23  O   UNK A   0       5.113  13.109  87.958  1.00  0.00    -0.268 OA
ENDBRANCH  19  22
ENDBRANCH  15  16
ENDBRANCH  11  14
ENDBRANCH   7   8
ENDBRANCH   2   7
TORSDOF 9
ENDMDL
MODEL 9
REMARK VINA RESULT:      -6.4      1.757      2.501
REMARK  9 active torsions:
REMARK  status: ('A' for Active; 'I' for Inactive)
REMARK    1  A    between atoms: N_3  and  C_6 
REMARK    2  A    between atoms: C_6  and  C_9 
REMARK    3  A    between atoms: C_14  and  C_17 
REMARK       I    between atoms: N_26  and  C_15 
REMARK    4  A    between atoms: C_15  and  C_16 
REMARK    5  A    between atoms: C_20  and  C_23 
REMARK    6  A    between atoms: OG1_24  and  CB_28 
REMARK    7  A    between atoms: N_26  and  CA_27 
REMARK    8  A    between atoms: CA_27  and  CB_28 
REMARK    9  A    between atoms: CA_27  and  C_30 
ROOT
HETATM    1  O   UNK A   0       2.099   8.688  87.778  1.00  0.00    -0.388 OA
HETATM    2  N   UNK A   0       3.821   7.820  89.872  1.00  0.00     0.096 N 
HETATM    3  C   UNK A   0       2.724   6.975  89.379  1.00  0.00     0.299 C 
HETATM    4  C   UNK A   0       3.482   9.239  89.693  1.00  0.00     0.299 C 
HETATM    5  C   UNK A   0       2.433   7.306  87.917  1.00  0.00     0.198 C 
HETATM    6  C   UNK A   0       3.172   9.517  88.226  1.00  0.00     0.198 C 
ENDROOT
BRANCH   2   7
HETATM    7  C   UNK A   0       4.110   7.527  91.274  1.00  0.00     0.311 C 
BRANCH   7   8
HETATM    8  C   UNK A   0       5.468   6.941  91.464  1.00  0.00    -0.030 A 
HETATM    9  C   UNK A   0       6.176   6.455  90.364  1.00  0.00     0.010 A 
HETATM   10  C   UNK A   0       7.445   5.904  90.541  1.00  0.00     0.021 A 
HETATM   11  C   UNK A   0       8.006   5.843  91.816  1.00  0.00     0.018 A 
HETATM   12  C   UNK A   0       7.300   6.329  92.915  1.00  0.00     0.021 A 
HETATM   13  C   UNK A   0       6.030   6.878  92.739  1.00  0.00     0.010 A 
BRANCH  11  14
HETATM   14  C   UNK A   0       9.309   5.280  91.997  1.00  0.00    -0.061 C 
HETATM   15  C   UNK A   0      10.404   4.807  92.148  1.00  0.00    -0.061 C 
BRANCH  15  16
HETATM   16  C   UNK A   0      11.707   4.246  92.328  1.00  0.00     0.018 A 
HETATM   17  C   UNK A   0      12.062   3.692  93.558  1.00  0.00     0.022 A 
HETATM   18  C   UNK A   0      13.332   3.142  93.733  1.00  0.00     0.018 A 
HETATM   19  C   UNK A   0      14.217   3.157  92.675  1.00  0.00     0.032 A 
HETATM   20  C   UNK A   0      13.889   3.699  91.450  1.00  0.00     0.018 A 
HETATM   21  C   UNK A   0      12.620   4.249  91.274  1.00  0.00     0.022 A 
BRANCH  19  22
HETATM   22  C   UNK A   0      15.570   2.572  92.862  1.00  0.00     0.252 C 
HETATM   23  O   UNK A   0      16.188   2.811  93.897  1.00  0.00    -0.268 OA
ENDBRANCH  19  22
ENDBRANCH  15  16
ENDBRANCH  11  14
ENDBRANCH   7   8
ENDBRANCH   2   7
TORSDOF 9
ENDMDL
