MODEL 1
REMARK VINA RESULT:      -7.5      0.000      0.000
REMARK  9 active torsions:
REMARK  status: ('A' for Active; 'I' for Inactive)
REMARK    1  A    between atoms: N_3  and  C_6 
REMARK    2  A    between atoms: C_6  and  C_9 
REMARK    3  A    between atoms: C_14  and  C_17 
REMARK       I    between atoms: N_26  and  C_15 
REMARK    4  A    between atoms: C_15  and  C_16 
REMARK    5  A    between atoms: C_20  and  C_23 
REMARK    6  A    between atoms: OG1_24  and  CB_28 
REMARK    7  A    between atoms: N_26  and  CA_27 
REMARK    8  A    between atoms: CA_27  and  CB_28 
REMARK    9  A    between atoms: CA_27  and  C_30 
ROOT
HETATM    1  O   UNK A   0       1.982   8.065  87.794  1.00  0.00    -0.388 OA
HETATM    2  N   UNK A   0       4.778   7.547  87.666  1.00  0.00     0.096 N 
HETATM    3  C   UNK A   0       4.253   8.918  87.745  1.00  0.00     0.299 C 
HETATM    4  C   UNK A   0       3.802   6.673  87.000  1.00  0.00     0.299 C 
HETATM    5  C   UNK A   0       2.909   8.916  88.470  1.00  0.00     0.198 C 
HETATM    6  C   UNK A   0       2.470   6.724  87.740  1.00  0.00     0.198 C 
ENDROOT
BRANCH   2   7
HETATM    7  C   UNK A   0       6.061   7.524  86.966  1.00  0.00     0.311 C 
BRANCH   7   8
HETATM    8  C   UNK A   0       7.146   6.917  87.788  1.00  0.00    -0.030 A 
HETATM    9  C   UNK A   0       8.392   6.659  87.216  1.00  0.00     0.010 A 
HETATM   10  C   UNK A   0       9.407   6.090  87.985  1.00  0.00     0.021 A 
HETATM   11  C   UNK A   0       9.176   5.781  89.325  1.00  0.00     0.018 A 
HETATM   12  C   UNK A   0       7.933   6.039  89.897  1.00  0.00     0.021 A 
HETATM   13  C   UNK A   0       6.917   6.607  89.129  1.00  0.00     0.010 A 
BRANCH  11  14
HETATM   14  C   UNK A   0      10.219   5.199  90.113  1.00  0.00    -0.061 C 
HETATM   15  C   UNK A   0      11.095   4.709  90.775  1.00  0.00    -0.061 C 
BRANCH  15  16
HETATM   16  C   UNK A   0      12.137   4.128  91.563  1.00  0.00     0.018 A 
HETATM   17  C   UNK A   0      11.893   3.775  92.890  1.00  0.00     0.022 A 
HETATM   18  C   UNK A   0      12.909   3.205  93.657  1.00  0.00     0.018 A 
HETATM   19  C   UNK A   0      14.145   3.001  93.081  1.00  0.00     0.032 A 
HETATM   20  C   UNK A   0      14.412   3.342  91.771  1.00  0.00     0.018 A 
HETATM   21  C   UNK A   0      13.396   3.912  91.003  1.00  0.00     0.022 A 
BRANCH  19  22
HETATM   22  C   UNK A   0      15.228   2.396  93.899  1.00  0.00     0.252 C 
HETATM   23  O   UNK A   0      16.375   2.820  93.783  1.00  0.00    -0.268 OA
ENDBRANCH  19  22
ENDBRANCH  15  16
ENDBRANCH  11  14
ENDBRANCH   7   8
ENDBRANCH   2   7
TORSDOF 9
ENDMDL
