MODEL 1
REMARK VINA RESULT:      -5.0      0.000      0.000
REMARK  10 active torsions:
REMARK  status: ('A' for Active; 'I' for Inactive)
REMARK    1  A    between atoms: O_2  and  C_18 
REMARK    2  A    between atoms: O_5  and  N_8 
REMARK    3  A    between atoms: N_6  and  C_11 
REMARK    4  A    between atoms: N_7  and  C_15 
REMARK       I    between atoms: N_7  and  C_24 
REMARK       I    between atoms: N_8  and  C_23 
REMARK    5  A    between atoms: C_11  and  C_14 
REMARK    6  A    between atoms: C_15  and  C_18 
REMARK    7  A    between atoms: C_15  and  C_23 
REMARK    8  A    between atoms: C_21  and  C_26 
REMARK    9  A    between atoms: C_24  and  C_25 
REMARK   10  A    between atoms: C_29  and  C_32 
ROOT
HETATM    1  O   UNK     0       3.150  14.915  93.847  0.00  0.00    -0.388 OA
HETATM    2  N   UNK     0       2.842  14.769  91.021  0.00  0.00     0.096 N 
HETATM    3  C   UNK     0       1.911  14.087  91.931  0.00  0.00     0.299 C 
HETATM    4  C   UNK     0       4.167  14.876  91.645  0.00  0.00     0.299 C 
HETATM    5  C   UNK     0       1.849  14.833  93.261  0.00  0.00     0.198 C 
HETATM    6  C   UNK     0       4.053  15.603  92.982  0.00  0.00     0.198 C 
ENDROOT
BRANCH   2   7
HETATM    7  C   UNK     0       2.925  14.064  89.743  0.00  0.00     0.311 C 
BRANCH   7   8
HETATM    8  C   UNK     0       3.918  12.952  89.771  0.00  0.00    -0.030 A 
HETATM    9  C   UNK     0       5.179  13.130  89.202  0.00  0.00     0.010 A 
HETATM   10  C   UNK     0       6.108  12.090  89.225  0.00  0.00     0.021 A 
HETATM   11  C   UNK     0       5.776  10.873  89.820  0.00  0.00     0.018 A 
HETATM   12  C   UNK     0       4.517  10.694  90.389  0.00  0.00     0.021 A 
HETATM   13  C   UNK     0       3.587  11.734  90.365  0.00  0.00     0.010 A 
BRANCH  11  14
HETATM   14  C   UNK     0       6.730   9.807  89.846  0.00  0.00    -0.061 C 
HETATM   15  C   UNK     0       7.531   8.911  89.868  0.00  0.00    -0.061 C 
BRANCH  15  16
HETATM   16  C   UNK     0       8.483   7.846  89.895  0.00  0.00     0.018 A 
HETATM   17  C   UNK     0       9.221   7.542  88.750  0.00  0.00     0.022 A 
HETATM   18  C   UNK     0      10.152   6.503  88.777  0.00  0.00     0.018 A 
HETATM   19  C   UNK     0      10.325   5.793  89.947  0.00  0.00     0.032 A 
HETATM   20  C   UNK     0       9.608   6.073  91.091  0.00  0.00     0.018 A 
HETATM   21  C   UNK     0       8.676   7.111  91.065  0.00  0.00     0.022 A 
BRANCH  19  22
HETATM   22  C   UNK     0      11.315   4.686  89.974  0.00  0.00     0.252 C 
HETATM   23  O   UNK     0      11.458   3.984  88.976  0.00  0.00    -0.268 OA
HETATM   24  N   UNK     0      12.038   4.545  91.151  0.00  0.00    -0.341 N 
HETATM   25  H   UNK     0      11.883   5.179  91.926  0.00  0.00     0.163 HD
BRANCH  24  26
HETATM   26  C   UNK     0      13.050   3.535  91.323  0.00  0.00     0.207 C 
BRANCH  26  27
HETATM   27  C   UNK     0      14.223   4.011  92.189  0.00  0.00     0.146 C 
HETATM   28  C   UNK     0      13.856   4.111  93.666  0.00  0.00     0.042 C 
BRANCH  27  29
HETATM   29  O   UNK     0      15.321   3.111  92.044  0.00  0.00    -0.393 OA
HETATM   30  H   UNK     0      14.970   2.241  91.788  0.00  0.00     0.210 HD
ENDBRANCH  27  29
ENDBRANCH  26  27
BRANCH  26  31
HETATM   31  C   UNK     0      12.382   2.303  91.925  0.00  0.00     0.266 C 
HETATM   32  O   UNK     0      12.941   1.210  92.006  0.00  0.00    -0.269 OA
HETATM   33  N   UNK     0      11.090   2.554  92.319  0.00  0.00    -0.236 N 
HETATM   34  H   UNK     0      10.571   3.414  92.186  0.00  0.00     0.197 HD
BRANCH  33  35
HETATM   35  O   UNK     0      10.391   1.460  92.849  0.00  0.00    -0.287 OA
HETATM   36  H   UNK     0       9.954   1.884  93.608  0.00  0.00     0.244 HD
ENDBRANCH  33  35
ENDBRANCH  26  31
ENDBRANCH  24  26
ENDBRANCH  19  22
ENDBRANCH  15  16
ENDBRANCH  11  14
ENDBRANCH   7   8
ENDBRANCH   2   7
TORSDOF 10
ENDMDL
MODEL 2
REMARK VINA RESULT:      -4.5      1.937      3.155
REMARK  10 active torsions:
REMARK  status: ('A' for Active; 'I' for Inactive)
REMARK    1  A    between atoms: O_2  and  C_18 
REMARK    2  A    between atoms: O_5  and  N_8 
REMARK    3  A    between atoms: N_6  and  C_11 
REMARK    4  A    between atoms: N_7  and  C_15 
REMARK       I    between atoms: N_7  and  C_24 
REMARK       I    between atoms: N_8  and  C_23 
REMARK    5  A    between atoms: C_11  and  C_14 
REMARK    6  A    between atoms: C_15  and  C_18 
REMARK    7  A    between atoms: C_15  and  C_23 
REMARK    8  A    between atoms: C_21  and  C_26 
REMARK    9  A    between atoms: C_24  and  C_25 
REMARK   10  A    between atoms: C_29  and  C_32 
ROOT
HETATM    1  O   UNK     0       3.656  14.517  92.308  0.00  0.00    -0.388 OA
HETATM    2  N   UNK     0       3.760  13.588  89.619  0.00  0.00     0.096 N 
HETATM    3  C   UNK     0       2.949  12.905  90.636  0.00  0.00     0.299 C 
HETATM    4  C   UNK     0       4.913  14.243  90.251  0.00  0.00     0.299 C 
HETATM    5  C   UNK     0       2.514  13.904  91.707  0.00  0.00     0.198 C 
HETATM    6  C   UNK     0       4.434  15.209  91.330  0.00  0.00     0.198 C 
ENDROOT
BRANCH   2   7
HETATM    7  C   UNK     0       4.197  12.648  88.588  0.00  0.00     0.311 C 
BRANCH   7   8
HETATM    8  C   UNK     0       5.103  11.595  89.128  0.00  0.00    -0.030 A 
HETATM    9  C   UNK     0       4.567  10.426  89.671  0.00  0.00     0.010 A 
HETATM   10  C   UNK     0       5.414   9.441  90.178  0.00  0.00     0.021 A 
HETATM   11  C   UNK     0       6.796   9.623  90.140  0.00  0.00     0.018 A 
HETATM   12  C   UNK     0       7.332  10.789  89.597  0.00  0.00     0.021 A 
HETATM   13  C   UNK     0       6.486  11.775  89.091  0.00  0.00     0.010 A 
BRANCH  11  14
HETATM   14  C   UNK     0       7.664   8.611  90.658  0.00  0.00    -0.061 C 
HETATM   15  C   UNK     0       8.394   7.760  91.093  0.00  0.00    -0.061 C 
BRANCH  15  16
HETATM   16  C   UNK     0       9.260   6.749  91.611  0.00  0.00     0.018 A 
HETATM   17  C   UNK     0       9.927   5.888  90.738  0.00  0.00     0.022 A 
HETATM   18  C   UNK     0      10.774   4.903  91.243  0.00  0.00     0.018 A 
HETATM   19  C   UNK     0      10.937   4.799  92.609  0.00  0.00     0.032 A 
HETATM   20  C   UNK     0      10.290   5.637  93.493  0.00  0.00     0.018 A 
HETATM   21  C   UNK     0       9.442   6.623  92.988  0.00  0.00     0.022 A 
BRANCH  19  22
HETATM   22  C   UNK     0      11.839   3.748  93.147  0.00  0.00     0.252 C 
HETATM   23  O   UNK     0      11.375   2.643  93.420  0.00  0.00    -0.268 OA
HETATM   24  N   UNK     0      13.174   4.101  93.278  0.00  0.00    -0.341 N 
HETATM   25  H   UNK     0      13.490   5.025  93.008  0.00  0.00     0.163 HD
BRANCH  24  26
HETATM   26  C   UNK     0      14.175   3.184  93.762  0.00  0.00     0.207 C 
BRANCH  26  27
HETATM   27  C   UNK     0      14.265   1.905  92.920  0.00  0.00     0.146 C 
HETATM   28  C   UNK     0      15.097   2.095  91.656  0.00  0.00     0.042 C 
BRANCH  27  29
HETATM   29  O   UNK     0      14.842   0.859  93.701  0.00  0.00    -0.393 OA
HETATM   30  H   UNK     0      15.705   0.631  93.316  0.00  0.00     0.210 HD
ENDBRANCH  27  29
ENDBRANCH  26  27
BRANCH  26  31
HETATM   31  C   UNK     0      15.509   3.923  93.792  0.00  0.00     0.266 C 
HETATM   32  O   UNK     0      15.617   5.119  93.529  0.00  0.00    -0.269 OA
HETATM   33  N   UNK     0      16.556   3.091  94.106  0.00  0.00    -0.236 N 
HETATM   34  H   UNK     0      16.515   2.088  94.241  0.00  0.00     0.197 HD
BRANCH  33  35
HETATM   35  O   UNK     0      17.826   3.686  94.118  0.00  0.00    -0.287 OA
HETATM   36  H   UNK     0      17.772   4.196  94.944  0.00  0.00     0.244 HD
ENDBRANCH  33  35
ENDBRANCH  26  31
ENDBRANCH  24  26
ENDBRANCH  19  22
ENDBRANCH  15  16
ENDBRANCH  11  14
ENDBRANCH   7   8
ENDBRANCH   2   7
TORSDOF 10
ENDMDL
MODEL 3
REMARK VINA RESULT:      -4.1      2.601     12.389
REMARK  10 active torsions:
REMARK  status: ('A' for Active; 'I' for Inactive)
REMARK    1  A    between atoms: O_2  and  C_18 
REMARK    2  A    between atoms: O_5  and  N_8 
REMARK    3  A    between atoms: N_6  and  C_11 
REMARK    4  A    between atoms: N_7  and  C_15 
REMARK       I    between atoms: N_7  and  C_24 
REMARK       I    between atoms: N_8  and  C_23 
REMARK    5  A    between atoms: C_11  and  C_14 
REMARK    6  A    between atoms: C_15  and  C_18 
REMARK    7  A    between atoms: C_15  and  C_23 
REMARK    8  A    between atoms: C_21  and  C_26 
REMARK    9  A    between atoms: C_24  and  C_25 
REMARK   10  A    between atoms: C_29  and  C_32 
ROOT
HETATM    1  O   UNK     0      16.891   4.061  93.446  0.00  0.00    -0.388 OA
HETATM    2  N   UNK     0      14.464   2.599  93.178  0.00  0.00     0.096 N 
HETATM    3  C   UNK     0      15.699   2.167  92.508  0.00  0.00     0.299 C 
HETATM    4  C   UNK     0      14.467   4.058  93.347  0.00  0.00     0.299 C 
HETATM    5  C   UNK     0      16.912   2.639  93.306  0.00  0.00     0.198 C 
HETATM    6  C   UNK     0      15.708   4.487  94.124  0.00  0.00     0.198 C 
ENDROOT
BRANCH   2   7
HETATM    7  C   UNK     0      13.288   2.166  92.424  0.00  0.00     0.311 C 
BRANCH   7   8
HETATM    8  C   UNK     0      12.291   3.261  92.249  0.00  0.00    -0.030 A 
HETATM    9  C   UNK     0      12.202   3.933  91.030  0.00  0.00     0.010 A 
HETATM   10  C   UNK     0      11.271   4.959  90.866  0.00  0.00     0.021 A 
HETATM   11  C   UNK     0      10.428   5.310  91.920  0.00  0.00     0.018 A 
HETATM   12  C   UNK     0      10.517   4.639  93.138  0.00  0.00     0.021 A 
HETATM   13  C   UNK     0      11.448   3.614  93.303  0.00  0.00     0.010 A 
BRANCH  11  14
HETATM   14  C   UNK     0       9.472   6.360  91.751  0.00  0.00    -0.061 C 
HETATM   15  C   UNK     0       8.669   7.243  91.609  0.00  0.00    -0.061 C 
BRANCH  15  16
HETATM   16  C   UNK     0       7.713   8.292  91.441  0.00  0.00     0.018 A 
HETATM   17  C   UNK     0       7.808   9.153  90.347  0.00  0.00     0.022 A 
HETATM   18  C   UNK     0       6.874  10.176  90.182  0.00  0.00     0.018 A 
HETATM   19  C   UNK     0       5.867  10.316  91.113  0.00  0.00     0.032 A 
HETATM   20  C   UNK     0       5.751   9.479  92.203  0.00  0.00     0.018 A 
HETATM   21  C   UNK     0       6.685   8.456  92.369  0.00  0.00     0.022 A 
BRANCH  19  22
HETATM   22  C   UNK     0       4.874  11.407  90.937  0.00  0.00     0.252 C 
HETATM   23  O   UNK     0       3.676  11.149  91.033  0.00  0.00    -0.268 OA
HETATM   24  N   UNK     0       5.395  12.670  90.696  0.00  0.00    -0.341 N 
HETATM   25  H   UNK     0       6.397  12.812  90.656  0.00  0.00     0.163 HD
BRANCH  24  26
HETATM   26  C   UNK     0       4.561  13.834  90.529  0.00  0.00     0.207 C 
BRANCH  26  27
HETATM   27  C   UNK     0       3.904  13.898  89.145  0.00  0.00     0.146 C 
HETATM   28  C   UNK     0       4.921  13.831  88.011  0.00  0.00     0.042 C 
BRANCH  27  29
HETATM   29  O   UNK     0       2.981  12.819  89.004  0.00  0.00    -0.393 OA
HETATM   30  H   UNK     0       2.382  12.827  89.770  0.00  0.00     0.210 HD
ENDBRANCH  27  29
ENDBRANCH  26  27
BRANCH  26  31
HETATM   31  C   UNK     0       3.516  13.822  91.639  0.00  0.00     0.266 C 
HETATM   32  O   UNK     0       3.806  13.898  92.832  0.00  0.00    -0.269 OA
HETATM   33  N   UNK     0       2.240  13.680  91.150  0.00  0.00    -0.236 N 
HETATM   34  H   UNK     0       1.975  13.526  90.184  0.00  0.00     0.197 HD
BRANCH  33  35
HETATM   35  O   UNK     0       1.221  13.621  92.111  0.00  0.00    -0.287 OA
HETATM   36  H   UNK     0       0.614  12.994  91.683  0.00  0.00     0.244 HD
ENDBRANCH  33  35
ENDBRANCH  26  31
ENDBRANCH  24  26
ENDBRANCH  19  22
ENDBRANCH  15  16
ENDBRANCH  11  14
ENDBRANCH   7   8
ENDBRANCH   2   7
TORSDOF 10
ENDMDL
MODEL 4
REMARK VINA RESULT:      -3.4      2.134      3.005
REMARK  10 active torsions:
REMARK  status: ('A' for Active; 'I' for Inactive)
REMARK    1  A    between atoms: O_2  and  C_18 
REMARK    2  A    between atoms: O_5  and  N_8 
REMARK    3  A    between atoms: N_6  and  C_11 
REMARK    4  A    between atoms: N_7  and  C_15 
REMARK       I    between atoms: N_7  and  C_24 
REMARK       I    between atoms: N_8  and  C_23 
REMARK    5  A    between atoms: C_11  and  C_14 
REMARK    6  A    between atoms: C_15  and  C_18 
REMARK    7  A    between atoms: C_15  and  C_23 
REMARK    8  A    between atoms: C_21  and  C_26 
REMARK    9  A    between atoms: C_24  and  C_25 
REMARK   10  A    between atoms: C_29  and  C_32 
ROOT
HETATM    1  O   UNK     0       5.490  15.268  89.242  0.00  0.00    -0.388 OA
HETATM    2  N   UNK     0       3.459  13.399  89.937  0.00  0.00     0.096 N 
HETATM    3  C   UNK     0       3.957  14.387  90.904  0.00  0.00     0.299 C 
HETATM    4  C   UNK     0       4.514  13.063  88.972  0.00  0.00     0.299 C 
HETATM    5  C   UNK     0       4.461  15.625  90.166  0.00  0.00     0.198 C 
HETATM    6  C   UNK     0       5.005  14.331  88.280  0.00  0.00     0.198 C 
ENDROOT
BRANCH   2   7
HETATM    7  C   UNK     0       2.981  12.199  90.622  0.00  0.00     0.311 C 
BRANCH   7   8
HETATM    8  C   UNK     0       4.083  11.243  90.929  0.00  0.00    -0.030 A 
HETATM    9  C   UNK     0       4.299  10.828  92.244  0.00  0.00     0.010 A 
HETATM   10  C   UNK     0       5.331   9.935  92.532  0.00  0.00     0.021 A 
HETATM   11  C   UNK     0       6.145   9.457  91.506  0.00  0.00     0.018 A 
HETATM   12  C   UNK     0       5.930   9.871  90.193  0.00  0.00     0.021 A 
HETATM   13  C   UNK     0       4.899  10.764  89.904  0.00  0.00     0.010 A 
BRANCH  11  14
HETATM   14  C   UNK     0       7.202   8.540  91.802  0.00  0.00    -0.061 C 
HETATM   15  C   UNK     0       8.091   7.769  92.051  0.00  0.00    -0.061 C 
BRANCH  15  16
HETATM   16  C   UNK     0       9.148   6.854  92.346  0.00  0.00     0.018 A 
HETATM   17  C   UNK     0       9.863   6.257  91.307  0.00  0.00     0.022 A 
HETATM   18  C   UNK     0      10.896   5.365  91.594  0.00  0.00     0.018 A 
HETATM   19  C   UNK     0      11.192   5.090  92.913  0.00  0.00     0.032 A 
HETATM   20  C   UNK     0      10.500   5.665  93.958  0.00  0.00     0.018 A 
HETATM   21  C   UNK     0       9.466   6.557  93.671  0.00  0.00     0.022 A 
BRANCH  19  22
HETATM   22  C   UNK     0      12.291   4.138  93.218  0.00  0.00     0.252 C 
HETATM   23  O   UNK     0      12.143   3.321  94.124  0.00  0.00    -0.268 OA
HETATM   24  N   UNK     0      13.420   4.235  92.417  0.00  0.00    -0.341 N 
HETATM   25  H   UNK     0      13.462   4.919  91.670  0.00  0.00     0.163 HD
BRANCH  24  26
HETATM   26  C   UNK     0      14.559   3.367  92.573  0.00  0.00     0.207 C 
BRANCH  26  27
HETATM   27  C   UNK     0      15.397   3.704  93.813  0.00  0.00     0.146 C 
HETATM   28  C   UNK     0      16.794   3.097  93.757  0.00  0.00     0.042 C 
BRANCH  27  29
HETATM   29  O   UNK     0      15.512   5.121  93.941  0.00  0.00    -0.393 OA
HETATM   30  H   UNK     0      15.597   5.336  94.885  0.00  0.00     0.210 HD
ENDBRANCH  27  29
ENDBRANCH  26  27
BRANCH  26  31
HETATM   31  C   UNK     0      14.047   1.931  92.623  0.00  0.00     0.266 C 
HETATM   32  O   UNK     0      14.644   1.028  93.205  0.00  0.00    -0.269 OA
HETATM   33  N   UNK     0      12.880   1.772  91.917  0.00  0.00    -0.236 N 
HETATM   34  H   UNK     0      12.411   2.472  91.354  0.00  0.00     0.197 HD
BRANCH  33  35
HETATM   35  O   UNK     0      12.362   0.469  91.881  0.00  0.00    -0.287 OA
HETATM   36  H   UNK     0      12.976   0.021  92.487  0.00  0.00     0.244 HD
ENDBRANCH  33  35
ENDBRANCH  26  31
ENDBRANCH  24  26
ENDBRANCH  19  22
ENDBRANCH  15  16
ENDBRANCH  11  14
ENDBRANCH   7   8
ENDBRANCH   2   7
TORSDOF 10
ENDMDL
MODEL 5
REMARK VINA RESULT:      -3.3      2.200      3.208
REMARK  10 active torsions:
REMARK  status: ('A' for Active; 'I' for Inactive)
REMARK    1  A    between atoms: O_2  and  C_18 
REMARK    2  A    between atoms: O_5  and  N_8 
REMARK    3  A    between atoms: N_6  and  C_11 
REMARK    4  A    between atoms: N_7  and  C_15 
REMARK       I    between atoms: N_7  and  C_24 
REMARK       I    between atoms: N_8  and  C_23 
REMARK    5  A    between atoms: C_11  and  C_14 
REMARK    6  A    between atoms: C_15  and  C_18 
REMARK    7  A    between atoms: C_15  and  C_23 
REMARK    8  A    between atoms: C_21  and  C_26 
REMARK    9  A    between atoms: C_24  and  C_25 
REMARK   10  A    between atoms: C_29  and  C_32 
ROOT
HETATM    1  O   UNK     0       4.632  14.794  90.110  0.00  0.00    -0.388 OA
HETATM    2  N   UNK     0       3.371  12.512  88.967  0.00  0.00     0.096 N 
HETATM    3  C   UNK     0       2.903  13.095  90.232  0.00  0.00     0.299 C 
HETATM    4  C   UNK     0       4.810  12.759  88.801  0.00  0.00     0.299 C 
HETATM    5  C   UNK     0       3.226  14.586  90.265  0.00  0.00     0.198 C 
HETATM    6  C   UNK     0       5.089  14.258  88.869  0.00  0.00     0.198 C 
ENDROOT
BRANCH   2   7
HETATM    7  C   UNK     0       3.081  11.080  88.918  0.00  0.00     0.311 C 
BRANCH   7   8
HETATM    8  C   UNK     0       4.217  10.253  89.416  0.00  0.00    -0.030 A 
HETATM    9  C   UNK     0       4.311   9.945  90.773  0.00  0.00     0.010 A 
HETATM   10  C   UNK     0       5.375   9.173  91.241  0.00  0.00     0.021 A 
HETATM   11  C   UNK     0       6.342   8.708  90.350  0.00  0.00     0.018 A 
HETATM   12  C   UNK     0       6.248   9.015  88.994  0.00  0.00     0.021 A 
HETATM   13  C   UNK     0       5.186   9.787  88.526  0.00  0.00     0.010 A 
BRANCH  11  14
HETATM   14  C   UNK     0       7.431   7.914  90.829  0.00  0.00    -0.061 C 
HETATM   15  C   UNK     0       8.347   7.247  91.232  0.00  0.00    -0.061 C 
BRANCH  15  16
HETATM   16  C   UNK     0       9.436   6.455  91.710  0.00  0.00     0.018 A 
HETATM   17  C   UNK     0       9.665   6.340  93.082  0.00  0.00     0.022 A 
HETATM   18  C   UNK     0      10.726   5.565  93.549  0.00  0.00     0.018 A 
HETATM   19  C   UNK     0      11.535   4.922  92.635  0.00  0.00     0.032 A 
HETATM   20  C   UNK     0      11.331   5.020  91.275  0.00  0.00     0.018 A 
HETATM   21  C   UNK     0      10.270   5.796  90.807  0.00  0.00     0.022 A 
BRANCH  19  22
HETATM   22  C   UNK     0      12.667   4.099  93.133  0.00  0.00     0.252 C 
HETATM   23  O   UNK     0      12.502   3.387  94.121  0.00  0.00    -0.268 OA
HETATM   24  N   UNK     0      13.847   4.184  92.406  0.00  0.00    -0.341 N 
HETATM   25  H   UNK     0      13.901   4.775  91.585  0.00  0.00     0.163 HD
BRANCH  24  26
HETATM   26  C   UNK     0      15.025   3.428  92.749  0.00  0.00     0.207 C 
BRANCH  26  27
HETATM   27  C   UNK     0      15.792   4.029  93.933  0.00  0.00     0.146 C 
HETATM   28  C   UNK     0      17.165   3.394  94.122  0.00  0.00     0.042 C 
BRANCH  27  29
HETATM   29  O   UNK     0      15.955   5.433  93.733  0.00  0.00    -0.393 OA
HETATM   30  H   UNK     0      15.748   5.635  92.805  0.00  0.00     0.210 HD
ENDBRANCH  27  29
ENDBRANCH  26  27
BRANCH  26  31
HETATM   31  C   UNK     0      14.590   1.995  93.039  0.00  0.00     0.266 C 
HETATM   32  O   UNK     0      15.000   1.354  94.005  0.00  0.00    -0.269 OA
HETATM   33  N   UNK     0      13.732   1.509  92.083  0.00  0.00    -0.236 N 
HETATM   34  H   UNK     0      13.446   1.976  91.231  0.00  0.00     0.197 HD
BRANCH  33  35
HETATM   35  O   UNK     0      13.315   0.181  92.256  0.00  0.00    -0.287 OA
HETATM   36  H   UNK     0      13.052   0.202  93.192  0.00  0.00     0.244 HD
ENDBRANCH  33  35
ENDBRANCH  26  31
ENDBRANCH  24  26
ENDBRANCH  19  22
ENDBRANCH  15  16
ENDBRANCH  11  14
ENDBRANCH   7   8
ENDBRANCH   2   7
TORSDOF 10
ENDMDL
MODEL 6
REMARK VINA RESULT:      -2.9      2.652      3.857
REMARK  10 active torsions:
REMARK  status: ('A' for Active; 'I' for Inactive)
REMARK    1  A    between atoms: O_2  and  C_18 
REMARK    2  A    between atoms: O_5  and  N_8 
REMARK    3  A    between atoms: N_6  and  C_11 
REMARK    4  A    between atoms: N_7  and  C_15 
REMARK       I    between atoms: N_7  and  C_24 
REMARK       I    between atoms: N_8  and  C_23 
REMARK    5  A    between atoms: C_11  and  C_14 
REMARK    6  A    between atoms: C_15  and  C_18 
REMARK    7  A    between atoms: C_15  and  C_23 
REMARK    8  A    between atoms: C_21  and  C_26 
REMARK    9  A    between atoms: C_24  and  C_25 
REMARK   10  A    between atoms: C_29  and  C_32 
ROOT
HETATM    1  O   UNK     0       2.430  13.961  90.023  0.00  0.00    -0.388 OA
HETATM    2  N   UNK     0       2.995  12.993  92.639  0.00  0.00     0.096 N 
HETATM    3  C   UNK     0       3.661  12.435  91.454  0.00  0.00     0.299 C 
HETATM    4  C   UNK     0       1.664  13.498  92.278  0.00  0.00     0.299 C 
HETATM    5  C   UNK     0       3.738  13.495  90.358  0.00  0.00     0.198 C 
HETATM    6  C   UNK     0       1.788  14.533  91.163  0.00  0.00     0.198 C 
ENDROOT
BRANCH   2   7
HETATM    7  C   UNK     0       2.900  11.991  93.699  0.00  0.00     0.311 C 
BRANCH   7   8
HETATM    8  C   UNK     0       3.976  10.963  93.607  0.00  0.00    -0.030 A 
HETATM    9  C   UNK     0       5.315  11.344  93.702  0.00  0.00     0.010 A 
HETATM   10  C   UNK     0       6.322  10.383  93.613  0.00  0.00     0.021 A 
HETATM   11  C   UNK     0       5.989   9.041  93.431  0.00  0.00     0.018 A 
HETATM   12  C   UNK     0       4.653   8.659  93.336  0.00  0.00     0.021 A 
HETATM   13  C   UNK     0       3.645   9.620  93.424  0.00  0.00     0.010 A 
BRANCH  11  14
HETATM   14  C   UNK     0       7.022   8.055  93.342  0.00  0.00    -0.061 C 
HETATM   15  C   UNK     0       7.890   7.227  93.268  0.00  0.00    -0.061 C 
BRANCH  15  16
HETATM   16  C   UNK     0       8.923   6.244  93.178  0.00  0.00     0.018 A 
HETATM   17  C   UNK     0       8.754   5.130  92.354  0.00  0.00     0.022 A 
HETATM   18  C   UNK     0       9.763   4.170  92.265  0.00  0.00     0.018 A 
HETATM   19  C   UNK     0      10.917   4.345  93.000  0.00  0.00     0.032 A 
HETATM   20  C   UNK     0      11.108   5.436  93.822  0.00  0.00     0.018 A 
HETATM   21  C   UNK     0      10.099   6.396  93.912  0.00  0.00     0.022 A 
BRANCH  19  22
HETATM   22  C   UNK     0      11.990   3.322  92.906  0.00  0.00     0.252 C 
HETATM   23  O   UNK     0      11.778   2.286  92.280  0.00  0.00    -0.268 OA
HETATM   24  N   UNK     0      13.188   3.638  93.531  0.00  0.00    -0.341 N 
HETATM   25  H   UNK     0      13.299   4.524  94.010  0.00  0.00     0.163 HD
BRANCH  24  26
HETATM   26  C   UNK     0      14.330   2.760  93.508  0.00  0.00     0.207 C 
BRANCH  26  27
HETATM   27  C   UNK     0      14.475   2.010  92.178  0.00  0.00     0.146 C 
HETATM   28  C   UNK     0      14.730   2.948  91.004  0.00  0.00     0.042 C 
BRANCH  27  29
HETATM   29  O   UNK     0      15.553   1.079  92.271  0.00  0.00    -0.393 OA
HETATM   30  H   UNK     0      15.186   0.209  92.501  0.00  0.00     0.210 HD
ENDBRANCH  27  29
ENDBRANCH  26  27
BRANCH  26  31
HETATM   31  C   UNK     0      15.568   3.598  93.811  0.00  0.00     0.266 C 
HETATM   32  O   UNK     0      16.650   3.105  94.124  0.00  0.00    -0.269 OA
HETATM   33  N   UNK     0      15.315   4.946  93.728  0.00  0.00    -0.236 N 
HETATM   34  H   UNK     0      14.418   5.386  93.561  0.00  0.00     0.197 HD
BRANCH  33  35
HETATM   35  O   UNK     0      16.395   5.788  94.030  0.00  0.00    -0.287 OA
HETATM   36  H   UNK     0      16.180   6.553  93.469  0.00  0.00     0.244 HD
ENDBRANCH  33  35
ENDBRANCH  26  31
ENDBRANCH  24  26
ENDBRANCH  19  22
ENDBRANCH  15  16
ENDBRANCH  11  14
ENDBRANCH   7   8
ENDBRANCH   2   7
TORSDOF 10
ENDMDL
MODEL 7
REMARK VINA RESULT:      -2.8      2.398      3.218
REMARK  10 active torsions:
REMARK  status: ('A' for Active; 'I' for Inactive)
REMARK    1  A    between atoms: O_2  and  C_18 
REMARK    2  A    between atoms: O_5  and  N_8 
REMARK    3  A    between atoms: N_6  and  C_11 
REMARK    4  A    between atoms: N_7  and  C_15 
REMARK       I    between atoms: N_7  and  C_24 
REMARK       I    between atoms: N_8  and  C_23 
REMARK    5  A    between atoms: C_11  and  C_14 
REMARK    6  A    between atoms: C_15  and  C_18 
REMARK    7  A    between atoms: C_15  and  C_23 
REMARK    8  A    between atoms: C_21  and  C_26 
REMARK    9  A    between atoms: C_24  and  C_25 
REMARK   10  A    between atoms: C_29  and  C_32 
ROOT
HETATM    1  O   UNK     0       1.292  14.611  92.867  0.00  0.00    -0.388 OA
HETATM    2  N   UNK     0       2.192  11.911  92.781  0.00  0.00     0.096 N 
HETATM    3  C   UNK     0       2.073  12.721  91.560  0.00  0.00     0.299 C 
HETATM    4  C   UNK     0       1.217  12.365  93.782  0.00  0.00     0.299 C 
HETATM    5  C   UNK     0       2.258  14.198  91.898  0.00  0.00     0.198 C 
HETATM    6  C   UNK     0       1.422  13.850  94.068  0.00  0.00     0.198 C 
ENDROOT
BRANCH   2   7
HETATM    7  C   UNK     0       2.007  10.493  92.482  0.00  0.00     0.311 C 
BRANCH   7   8
HETATM    8  C   UNK     0       3.301   9.758  92.390  0.00  0.00    -0.030 A 
HETATM    9  C   UNK     0       3.568   8.952  91.283  0.00  0.00     0.010 A 
HETATM   10  C   UNK     0       4.778   8.263  91.197  0.00  0.00     0.021 A 
HETATM   11  C   UNK     0       5.720   8.382  92.218  0.00  0.00     0.018 A 
HETATM   12  C   UNK     0       5.455   9.186  93.324  0.00  0.00     0.021 A 
HETATM   13  C   UNK     0       4.245   9.875  93.411  0.00  0.00     0.010 A 
BRANCH  11  14
HETATM   14  C   UNK     0       6.962   7.676  92.129  0.00  0.00    -0.061 C 
HETATM   15  C   UNK     0       8.006   7.084  92.055  0.00  0.00    -0.061 C 
BRANCH  15  16
HETATM   16  C   UNK     0       9.246   6.380  91.965  0.00  0.00     0.018 A 
HETATM   17  C   UNK     0       9.785   6.076  90.714  0.00  0.00     0.022 A 
HETATM   18  C   UNK     0      10.997   5.391  90.626  0.00  0.00     0.018 A 
HETATM   19  C   UNK     0      11.642   5.024  91.788  0.00  0.00     0.032 A 
HETATM   20  C   UNK     0      11.130   5.312  93.036  0.00  0.00     0.018 A 
HETATM   21  C   UNK     0       9.918   5.997  93.125  0.00  0.00     0.022 A 
BRANCH  19  22
HETATM   22  C   UNK     0      12.931   4.292  91.694  0.00  0.00     0.252 C 
HETATM   23  O   UNK     0      13.156   3.598  90.705  0.00  0.00    -0.268 OA
HETATM   24  N   UNK     0      13.814   4.476  92.749  0.00  0.00    -0.341 N 
HETATM   25  H   UNK     0      13.570   5.084  93.522  0.00  0.00     0.163 HD
BRANCH  24  26
HETATM   26  C   UNK     0      15.113   3.853  92.791  0.00  0.00     0.207 C 
BRANCH  26  27
HETATM   27  C   UNK     0      15.941   4.290  94.007  0.00  0.00     0.146 C 
HETATM   28  C   UNK     0      17.275   3.557  94.098  0.00  0.00     0.042 C 
BRANCH  27  29
HETATM   29  O   UNK     0      16.187   5.694  93.937  0.00  0.00    -0.393 OA
HETATM   30  H   UNK     0      16.623   5.885  93.090  0.00  0.00     0.210 HD
ENDBRANCH  27  29
ENDBRANCH  26  27
BRANCH  26  31
HETATM   31  C   UNK     0      14.906   2.342  92.775  0.00  0.00     0.266 C 
HETATM   32  O   UNK     0      14.704   1.705  91.743  0.00  0.00    -0.269 OA
HETATM   33  N   UNK     0      14.934   1.801  94.037  0.00  0.00    -0.236 N 
HETATM   34  H   UNK     0      15.008   2.306  94.913  0.00  0.00     0.197 HD
BRANCH  33  35
HETATM   35  O   UNK     0      14.713   0.418  94.113  0.00  0.00    -0.287 OA
HETATM   36  H   UNK     0      13.798   0.370  93.789  0.00  0.00     0.244 HD
ENDBRANCH  33  35
ENDBRANCH  26  31
ENDBRANCH  24  26
ENDBRANCH  19  22
ENDBRANCH  15  16
ENDBRANCH  11  14
ENDBRANCH   7   8
ENDBRANCH   2   7
TORSDOF 10
ENDMDL
MODEL 8
REMARK VINA RESULT:      -2.0      2.154      3.771
REMARK  10 active torsions:
REMARK  status: ('A' for Active; 'I' for Inactive)
REMARK    1  A    between atoms: O_2  and  C_18 
REMARK    2  A    between atoms: O_5  and  N_8 
REMARK    3  A    between atoms: N_6  and  C_11 
REMARK    4  A    between atoms: N_7  and  C_15 
REMARK       I    between atoms: N_7  and  C_24 
REMARK       I    between atoms: N_8  and  C_23 
REMARK    5  A    between atoms: C_11  and  C_14 
REMARK    6  A    between atoms: C_15  and  C_18 
REMARK    7  A    between atoms: C_15  and  C_23 
REMARK    8  A    between atoms: C_21  and  C_26 
REMARK    9  A    between atoms: C_24  and  C_25 
REMARK   10  A    between atoms: C_29  and  C_32 
ROOT
HETATM    1  O   UNK     0       3.520  12.840  92.804  0.00  0.00    -0.388 OA
HETATM    2  N   UNK     0       2.839  11.440  90.421  0.00  0.00     0.096 N 
HETATM    3  C   UNK     0       2.583  10.865  91.749  0.00  0.00     0.299 C 
HETATM    4  C   UNK     0       3.997  12.342  90.478  0.00  0.00     0.299 C 
HETATM    5  C   UNK     0       2.375  11.985  92.765  0.00  0.00     0.198 C 
HETATM    6  C   UNK     0       3.757  13.427  91.524  0.00  0.00     0.198 C 
ENDROOT
BRANCH   2   7
HETATM    7  C   UNK     0       3.052  10.384  89.432  0.00  0.00     0.311 C 
BRANCH   7   8
HETATM    8  C   UNK     0       4.198   9.498  89.784  0.00  0.00    -0.030 A 
HETATM    9  C   UNK     0       4.090   8.614  90.858  0.00  0.00     0.010 A 
HETATM   10  C   UNK     0       5.163   7.786  91.190  0.00  0.00     0.021 A 
HETATM   11  C   UNK     0       6.342   7.843  90.446  0.00  0.00     0.018 A 
HETATM   12  C   UNK     0       6.450   8.725  89.374  0.00  0.00     0.021 A 
HETATM   13  C   UNK     0       5.378   9.554  89.042  0.00  0.00     0.010 A 
BRANCH  11  14
HETATM   14  C   UNK     0       7.441   6.992  90.785  0.00  0.00    -0.061 C 
HETATM   15  C   UNK     0       8.365   6.277  91.070  0.00  0.00    -0.061 C 
BRANCH  15  16
HETATM   16  C   UNK     0       9.462   5.428  91.410  0.00  0.00     0.018 A 
HETATM   17  C   UNK     0      10.028   5.497  92.684  0.00  0.00     0.022 A 
HETATM   18  C   UNK     0      11.098   4.666  93.017  0.00  0.00     0.018 A 
HETATM   19  C   UNK     0      11.578   3.785  92.070  0.00  0.00     0.032 A 
HETATM   20  C   UNK     0      11.037   3.698  90.804  0.00  0.00     0.018 A 
HETATM   21  C   UNK     0       9.968   4.529  90.471  0.00  0.00     0.022 A 
BRANCH  19  22
HETATM   22  C   UNK     0      12.720   2.902  92.425  0.00  0.00     0.252 C 
HETATM   23  O   UNK     0      12.530   1.694  92.538  0.00  0.00    -0.268 OA
HETATM   24  N   UNK     0      13.948   3.529  92.580  0.00  0.00    -0.341 N 
HETATM   25  H   UNK     0      14.034   4.530  92.446  0.00  0.00     0.163 HD
BRANCH  24  26
HETATM   26  C   UNK     0      15.153   2.806  92.899  0.00  0.00     0.207 C 
BRANCH  26  27
HETATM   27  C   UNK     0      15.707   2.019  91.705  0.00  0.00     0.146 C 
HETATM   28  C   UNK     0      15.438   2.711  90.374  0.00  0.00     0.042 C 
BRANCH  27  29
HETATM   29  O   UNK     0      17.115   1.844  91.861  0.00  0.00    -0.393 OA
HETATM   30  H   UNK     0      17.369   2.182  92.736  0.00  0.00     0.210 HD
ENDBRANCH  27  29
ENDBRANCH  26  27
BRANCH  26  31
HETATM   31  C   UNK     0      16.174   3.811  93.423  0.00  0.00     0.266 C 
HETATM   32  O   UNK     0      17.339   3.511  93.677  0.00  0.00    -0.269 OA
HETATM   33  N   UNK     0      15.628   5.058  93.607  0.00  0.00    -0.236 N 
HETATM   34  H   UNK     0      14.655   5.317  93.494  0.00  0.00     0.197 HD
BRANCH  33  35
HETATM   35  O   UNK     0      16.493   6.033  94.124  0.00  0.00    -0.287 OA
HETATM   36  H   UNK     0      15.867   6.563  94.646  0.00  0.00     0.244 HD
ENDBRANCH  33  35
ENDBRANCH  26  31
ENDBRANCH  24  26
ENDBRANCH  19  22
ENDBRANCH  15  16
ENDBRANCH  11  14
ENDBRANCH   7   8
ENDBRANCH   2   7
TORSDOF 10
ENDMDL
