MODEL 1
REMARK VINA RESULT:      -6.9      0.000      0.000
REMARK  10 active torsions:
REMARK  status: ('A' for Active; 'I' for Inactive)
REMARK    1  A    between atoms: O_2  and  C_18 
REMARK    2  A    between atoms: O_5  and  N_8 
REMARK    3  A    between atoms: N_6  and  C_11 
REMARK    4  A    between atoms: N_7  and  C_15 
REMARK       I    between atoms: N_7  and  C_24 
REMARK       I    between atoms: N_8  and  C_23 
REMARK    5  A    between atoms: C_11  and  C_14 
REMARK    6  A    between atoms: C_15  and  C_18 
REMARK    7  A    between atoms: C_15  and  C_23 
REMARK    8  A    between atoms: C_21  and  C_26 
REMARK    9  A    between atoms: C_24  and  C_25 
REMARK   10  A    between atoms: C_29  and  C_32 
ROOT
HETATM    1  O   UNK     0      16.295   4.266  94.117  0.00  0.00    -0.388 OA
HETATM    2  N   UNK     0      14.528   2.615  92.616  0.00  0.00     0.096 N 
HETATM    3  C   UNK     0      14.405   4.079  92.606  0.00  0.00     0.299 C 
HETATM    4  C   UNK     0      15.100   2.166  93.893  0.00  0.00     0.299 C 
HETATM    5  C   UNK     0      15.769   4.714  92.867  0.00  0.00     0.198 C 
HETATM    6  C   UNK     0      16.446   2.846  94.124  0.00  0.00     0.198 C 
ENDROOT
BRANCH   2   7
HETATM    7  C   UNK     0      13.230   1.985  92.379  0.00  0.00     0.311 C 
BRANCH   7   8
HETATM    8  C   UNK     0      12.159   2.981  92.095  0.00  0.00    -0.030 A 
HETATM    9  C   UNK     0      11.626   3.084  90.809  0.00  0.00     0.010 A 
HETATM   10  C   UNK     0      10.625   4.018  90.541  0.00  0.00     0.021 A 
HETATM   11  C   UNK     0      10.155   4.846  91.560  0.00  0.00     0.018 A 
HETATM   12  C   UNK     0      10.686   4.744  92.845  0.00  0.00     0.021 A 
HETATM   13  C   UNK     0      11.688   3.811  93.112  0.00  0.00     0.010 A 
BRANCH  11  14
HETATM   14  C   UNK     0       9.127   5.802  91.286  0.00  0.00    -0.061 C 
HETATM   15  C   UNK     0       8.262   6.605  91.056  0.00  0.00    -0.061 C 
BRANCH  15  16
HETATM   16  C   UNK     0       7.236   7.560  90.781  0.00  0.00     0.018 A 
HETATM   17  C   UNK     0       6.625   7.586  89.526  0.00  0.00     0.022 A 
HETATM   18  C   UNK     0       5.622   8.517  89.259  0.00  0.00     0.018 A 
HETATM   19  C   UNK     0       5.250   9.401  90.250  0.00  0.00     0.032 A 
HETATM   20  C   UNK     0       5.838   9.397  91.498  0.00  0.00     0.018 A 
HETATM   21  C   UNK     0       6.842   8.467  91.766  0.00  0.00     0.022 A 
BRANCH  19  22
HETATM   22  C   UNK     0       4.183  10.394  89.963  0.00  0.00     0.252 C 
HETATM   23  O   UNK     0       3.086  10.000  89.574  0.00  0.00    -0.268 OA
HETATM   24  N   UNK     0       4.512  11.723  90.189  0.00  0.00    -0.341 N 
HETATM   25  H   UNK     0       5.431  11.972  90.536  0.00  0.00     0.163 HD
BRANCH  24  26
HETATM   26  C   UNK     0       3.578  12.800  89.981  0.00  0.00     0.207 C 
BRANCH  26  27
HETATM   27  C   UNK     0       3.294  13.595  91.262  0.00  0.00     0.146 C 
HETATM   28  C   UNK     0       1.943  13.250  91.876  0.00  0.00     0.042 C 
BRANCH  27  29
HETATM   29  O   UNK     0       4.319  13.337  92.221  0.00  0.00    -0.393 OA
HETATM   30  H   UNK     0       3.979  12.694  92.865  0.00  0.00     0.210 HD
ENDBRANCH  27  29
ENDBRANCH  26  27
BRANCH  26  31
HETATM   31  C   UNK     0       4.138  13.698  88.883  0.00  0.00     0.266 C 
HETATM   32  O   UNK     0       4.252  14.916  89.007  0.00  0.00    -0.269 OA
HETATM   33  N   UNK     0       4.455  12.992  87.747  0.00  0.00    -0.236 N 
HETATM   34  H   UNK     0       4.292  12.006  87.580  0.00  0.00     0.197 HD
BRANCH  33  35
HETATM   35  O   UNK     0       4.943  13.751  86.674  0.00  0.00    -0.287 OA
HETATM   36  H   UNK     0       4.707  13.172  85.930  0.00  0.00     0.244 HD
ENDBRANCH  33  35
ENDBRANCH  26  31
ENDBRANCH  24  26
ENDBRANCH  19  22
ENDBRANCH  15  16
ENDBRANCH  11  14
ENDBRANCH   7   8
ENDBRANCH   2   7
TORSDOF 10
ENDMDL
