MODEL 1
REMARK VINA RESULT:      -6.2      0.000      0.000
REMARK  12 active torsions:
REMARK  status: ('A' for Active; 'I' for Inactive)
REMARK    1  A    between atoms: O_2  and  C_16 
REMARK    2  A    between atoms: N_5  and  C_9 
REMARK    3  A    between atoms: N_6  and  C_13 
REMARK       I    between atoms: N_6  and  C_22 
REMARK    4  A    between atoms: C_9  and  C_12 
REMARK    5  A    between atoms: C_13  and  C_16 
REMARK    6  A    between atoms: C_13  and  C_21 
REMARK    7  A    between atoms: C_19  and  C_24 
REMARK    8  A    between atoms: C_21  and  C_33 
REMARK    9  A    between atoms: C_22  and  C_23 
REMARK   10  A    between atoms: C_27  and  C_30 
REMARK   11  A    between atoms: C_33  and  C_34 
REMARK   12  A    between atoms: C_34  and  C_35 
ROOT
HETATM    1  O   UNL     1      16.917   3.651  93.929  1.00  0.00    -0.350 OA
HETATM    2  N   UNL     1      14.388   3.114  92.739  1.00  0.00     0.147 N 
HETATM    3  C   UNL     1      15.388   2.054  92.928  1.00  0.00     0.283 C 
HETATM    4  C   UNL     1      15.056   4.412  92.573  1.00  0.00     0.283 C 
HETATM    5  C   UNL     1      16.276   2.389  94.124  1.00  0.00     0.178 C 
HETATM    6  C   UNL     1      15.952   4.691  93.775  1.00  0.00     0.178 C 
ENDROOT
BRANCH   2   7
HETATM    7  C   UNL     1      13.532   2.819  91.591  1.00  0.00     0.277 C 
BRANCH   7   8
HETATM    8  C   UNL     1      12.322   3.688  91.547  1.00  0.00     0.011 A 
HETATM    9  C   UNL     1      11.921   4.263  90.340  1.00  0.00    -0.002 A 
HETATM   10  C   UNL     1      10.790   5.078  90.298  1.00  0.00     0.008 A 
HETATM   11  C   UNL     1      10.060   5.317  91.462  1.00  0.00     0.042 A 
HETATM   12  C   UNL     1      10.459   4.743  92.667  1.00  0.00     0.008 A 
HETATM   13  C   UNL     1      11.590   3.928  92.710  1.00  0.00    -0.002 A 
BRANCH  11  14
HETATM   14  C   UNL     1       8.899   6.152  91.418  1.00  0.00    -0.059 C 
HETATM   15  C   UNL     1       7.923   6.853  91.380  1.00  0.00    -0.059 C 
BRANCH  15  16
HETATM   16  C   UNL     1       6.762   7.687  91.336  1.00  0.00     0.042 A 
HETATM   17  C   UNL     1       5.676   7.326  90.539  1.00  0.00     0.008 A 
HETATM   18  C   UNL     1       4.542   8.138  90.498  1.00  0.00     0.005 A 
HETATM   19  C   UNL     1       4.520   9.290  91.255  1.00  0.00     0.056 A 
HETATM   20  C   UNL     1       5.581   9.669  92.051  1.00  0.00     0.005 A 
HETATM   21  C   UNL     1       6.715   8.858  92.092  1.00  0.00     0.008 A 
BRANCH  19  22
HETATM   22  C   UNL     1       3.313  10.156  91.210  1.00  0.00     0.254 C 
HETATM   23  O   UNL     1       2.215   9.644  91.008  1.00  0.00    -0.268 OA
HETATM   24  N   UNL     1       3.527  11.509  91.430  1.00  0.00    -0.335 N 
HETATM   25  HN  UNL     1       4.461  11.858  91.616  1.00  0.00     0.164 HD
BRANCH  24  26
HETATM   26  C   UNL     1       2.455  12.472  91.442  1.00  0.00     0.166 C 
BRANCH  26  27
HETATM   27  C   UNL     1       2.112  12.961  92.855  1.00  0.00     0.138 C 
HETATM   28  C   UNL     1       3.321  12.958  93.784  1.00  0.00     0.034 C 
BRANCH  27  29
HETATM   29  O   UNL     1       1.583  14.285  92.787  1.00  0.00    -0.383 OA
HETATM   30  H   UNL     1       0.615  14.224  92.719  1.00  0.00     0.210 HD
ENDBRANCH  27  29
ENDBRANCH  26  27
BRANCH  26  31
HETATM   31  C   UNL     1       2.860  13.631  90.537  1.00  0.00     0.181 C 
HETATM   32  O   UNL     1       2.136  14.603  90.328  1.00  0.00    -0.294 OA
BRANCH  31  33
HETATM   33  C   UNL     1       4.313  14.229  90.938  1.00  0.00     0.138 C 
BRANCH  33  34
HETATM   34  C   UNL     1       4.889  14.424  89.663  1.00  0.00     0.208 C 
HETATM   35  O   UNL     1       5.287  15.542  89.425  1.00  0.00    -0.289 OA
BRANCH  34  36
HETATM   36  C   UNL     1       5.343  13.517  88.746  1.00  0.00     0.194 C 
HETATM   37  O   UNL     1       4.934  13.280  87.429  1.00  0.00    -0.185 OA
ENDBRANCH  34  36
ENDBRANCH  33  34
ENDBRANCH  31  33
ENDBRANCH  26  31
ENDBRANCH  24  26
ENDBRANCH  19  22
ENDBRANCH  15  16
ENDBRANCH  11  14
ENDBRANCH   7   8
ENDBRANCH   2   7
TORSDOF 12
ENDMDL
MODEL 2
REMARK VINA RESULT:      -5.9      1.180      1.767
REMARK  12 active torsions:
REMARK  status: ('A' for Active; 'I' for Inactive)
REMARK    1  A    between atoms: O_2  and  C_16 
REMARK    2  A    between atoms: N_5  and  C_9 
REMARK    3  A    between atoms: N_6  and  C_13 
REMARK       I    between atoms: N_6  and  C_22 
REMARK    4  A    between atoms: C_9  and  C_12 
REMARK    5  A    between atoms: C_13  and  C_16 
REMARK    6  A    between atoms: C_13  and  C_21 
REMARK    7  A    between atoms: C_19  and  C_24 
REMARK    8  A    between atoms: C_21  and  C_33 
REMARK    9  A    between atoms: C_22  and  C_23 
REMARK   10  A    between atoms: C_27  and  C_30 
REMARK   11  A    between atoms: C_33  and  C_34 
REMARK   12  A    between atoms: C_34  and  C_35 
ROOT
HETATM    1  O   UNL     1      16.055   4.138  94.108  1.00  0.00    -0.350 OA
HETATM    2  N   UNL     1      14.336   2.526  92.512  1.00  0.00     0.147 N 
HETATM    3  C   UNL     1      14.205   3.989  92.544  1.00  0.00     0.283 C 
HETATM    4  C   UNL     1      14.879   2.040  93.788  1.00  0.00     0.283 C 
HETATM    5  C   UNL     1      15.557   4.623  92.860  1.00  0.00     0.178 C 
HETATM    6  C   UNL     1      16.215   2.719  94.074  1.00  0.00     0.178 C 
ENDROOT
BRANCH   2   7
HETATM    7  C   UNL     1      13.049   1.896  92.222  1.00  0.00     0.277 C 
BRANCH   7   8
HETATM    8  C   UNL     1      11.938   2.887  92.140  1.00  0.00     0.011 A 
HETATM    9  C   UNL     1      11.204   3.014  90.960  1.00  0.00    -0.002 A 
HETATM   10  C   UNL     1      10.166   3.943  90.882  1.00  0.00     0.008 A 
HETATM   11  C   UNL     1       9.861   4.742  91.984  1.00  0.00     0.042 A 
HETATM   12  C   UNL     1      10.594   4.615  93.162  1.00  0.00     0.008 A 
HETATM   13  C   UNL     1      11.633   3.688  93.241  1.00  0.00    -0.002 A 
BRANCH  11  14
HETATM   14  C   UNL     1       8.795   5.692  91.904  1.00  0.00    -0.059 C 
HETATM   15  C   UNL     1       7.899   6.491  91.836  1.00  0.00    -0.059 C 
BRANCH  15  16
HETATM   16  C   UNL     1       6.833   7.441  91.756  1.00  0.00     0.042 A 
HETATM   17  C   UNL     1       7.046   8.761  92.152  1.00  0.00     0.008 A 
HETATM   18  C   UNL     1       6.006   9.688  92.071  1.00  0.00     0.005 A 
HETATM   19  C   UNL     1       4.780   9.274  91.595  1.00  0.00     0.056 A 
HETATM   20  C   UNL     1       4.545   7.975  91.198  1.00  0.00     0.005 A 
HETATM   21  C   UNL     1       5.583   7.047  91.279  1.00  0.00     0.008 A 
BRANCH  19  22
HETATM   22  C   UNL     1       3.672  10.262  91.511  1.00  0.00     0.254 C 
HETATM   23  O   UNL     1       2.521   9.860  91.358  1.00  0.00    -0.268 OA
HETATM   24  N   UNL     1       4.035  11.595  91.640  1.00  0.00    -0.335 N 
HETATM   25  HN  UNL     1       5.005  11.850  91.790  1.00  0.00     0.164 HD
BRANCH  24  26
HETATM   26  C   UNL     1       3.074  12.667  91.604  1.00  0.00     0.166 C 
BRANCH  26  27
HETATM   27  C   UNL     1       3.202  13.620  92.800  1.00  0.00     0.138 C 
HETATM   28  C   UNL     1       2.008  13.535  93.745  1.00  0.00     0.034 C 
BRANCH  27  29
HETATM   29  O   UNL     1       4.392  13.315  93.528  1.00  0.00    -0.383 OA
HETATM   30  H   UNL     1       5.151  13.664  93.031  1.00  0.00     0.210 HD
ENDBRANCH  27  29
ENDBRANCH  26  27
BRANCH  26  31
HETATM   31  C   UNL     1       3.252  13.409  90.284  1.00  0.00     0.181 C 
HETATM   32  O   UNL     1       3.010  14.607  90.150  1.00  0.00    -0.294 OA
BRANCH  31  33
HETATM   33  C   UNL     1       4.727  13.173  89.654  1.00  0.00     0.138 C 
BRANCH  33  34
HETATM   34  C   UNL     1       4.402  12.658  88.380  1.00  0.00     0.208 C 
HETATM   35  O   UNL     1       4.890  13.232  87.434  1.00  0.00    -0.289 OA
BRANCH  34  36
HETATM   36  C   UNL     1       3.863  11.453  88.021  1.00  0.00     0.194 C 
HETATM   37  O   UNL     1       2.556  10.971  88.155  1.00  0.00    -0.185 OA
ENDBRANCH  34  36
ENDBRANCH  33  34
ENDBRANCH  31  33
ENDBRANCH  26  31
ENDBRANCH  24  26
ENDBRANCH  19  22
ENDBRANCH  15  16
ENDBRANCH  11  14
ENDBRANCH   7   8
ENDBRANCH   2   7
TORSDOF 12
ENDMDL
MODEL 3
REMARK VINA RESULT:      -5.1      2.448     12.834
REMARK  12 active torsions:
REMARK  status: ('A' for Active; 'I' for Inactive)
REMARK    1  A    between atoms: O_2  and  C_16 
REMARK    2  A    between atoms: N_5  and  C_9 
REMARK    3  A    between atoms: N_6  and  C_13 
REMARK       I    between atoms: N_6  and  C_22 
REMARK    4  A    between atoms: C_9  and  C_12 
REMARK    5  A    between atoms: C_13  and  C_16 
REMARK    6  A    between atoms: C_13  and  C_21 
REMARK    7  A    between atoms: C_19  and  C_24 
REMARK    8  A    between atoms: C_21  and  C_33 
REMARK    9  A    between atoms: C_22  and  C_23 
REMARK   10  A    between atoms: C_27  and  C_30 
REMARK   11  A    between atoms: C_33  and  C_34 
REMARK   12  A    between atoms: C_34  and  C_35 
ROOT
HETATM    1  O   UNL     1       2.740  14.859  93.902  1.00  0.00    -0.350 OA
HETATM    2  N   UNL     1       2.585  14.668  91.067  1.00  0.00     0.147 N 
HETATM    3  C   UNL     1       1.569  14.056  91.934  1.00  0.00     0.283 C 
HETATM    4  C   UNL     1       3.877  14.720  91.764  1.00  0.00     0.283 C 
HETATM    5  C   UNL     1       1.472  14.833  93.244  1.00  0.00     0.178 C 
HETATM    6  C   UNL     1       3.726  15.480  93.078  1.00  0.00     0.178 C 
ENDROOT
BRANCH   2   7
HETATM    7  C   UNL     1       2.702  13.933  89.809  1.00  0.00     0.277 C 
BRANCH   7   8
HETATM    8  C   UNL     1       3.651  12.787  89.907  1.00  0.00     0.011 A 
HETATM    9  C   UNL     1       4.913  12.875  89.320  1.00  0.00    -0.002 A 
HETATM   10  C   UNL     1       5.801  11.803  89.410  1.00  0.00     0.008 A 
HETATM   11  C   UNL     1       5.425  10.643  90.088  1.00  0.00     0.042 A 
HETATM   12  C   UNL     1       4.165  10.554  90.675  1.00  0.00     0.008 A 
HETATM   13  C   UNL     1       3.277  11.626  90.585  1.00  0.00    -0.002 A 
BRANCH  11  14
HETATM   14  C   UNL     1       6.336   9.544  90.182  1.00  0.00    -0.059 C 
HETATM   15  C   UNL     1       7.102   8.620  90.260  1.00  0.00    -0.059 C 
BRANCH  15  16
HETATM   16  C   UNL     1       8.013   7.522  90.352  1.00  0.00     0.042 A 
HETATM   17  C   UNL     1       7.525   6.225  90.514  1.00  0.00     0.008 A 
HETATM   18  C   UNL     1       8.414   5.154  90.602  1.00  0.00     0.005 A 
HETATM   19  C   UNL     1       9.769   5.403  90.526  1.00  0.00     0.056 A 
HETATM   20  C   UNL     1      10.275   6.676  90.366  1.00  0.00     0.005 A 
HETATM   21  C   UNL     1       9.387   7.748  90.278  1.00  0.00     0.008 A 
BRANCH  19  22
HETATM   22  C   UNL     1      10.715   4.261  90.621  1.00  0.00     0.254 C 
HETATM   23  O   UNL     1      10.463   3.221  90.019  1.00  0.00    -0.268 OA
HETATM   24  N   UNL     1      11.853   4.477  91.387  1.00  0.00    -0.335 N 
HETATM   25  HN  UNL     1      12.006   5.372  91.836  1.00  0.00     0.164 HD
BRANCH  24  26
HETATM   26  C   UNL     1      12.875   3.476  91.556  1.00  0.00     0.166 C 
BRANCH  26  27
HETATM   27  C   UNL     1      14.149   3.789  90.761  1.00  0.00     0.138 C 
HETATM   28  C   UNL     1      14.140   3.162  89.372  1.00  0.00     0.034 C 
BRANCH  27  29
HETATM   29  O   UNL     1      14.295   5.203  90.631  1.00  0.00    -0.383 OA
HETATM   30  H   UNL     1      13.514   5.548  90.167  1.00  0.00     0.210 HD
ENDBRANCH  27  29
ENDBRANCH  26  27
BRANCH  26  31
HETATM   31  C   UNL     1      13.167   3.356  93.048  1.00  0.00     0.181 C 
HETATM   32  O   UNL     1      12.299   3.109  93.882  1.00  0.00    -0.294 OA
BRANCH  31  33
HETATM   33  C   UNL     1      14.383   2.325  93.342  1.00  0.00     0.138 C 
BRANCH  33  34
HETATM   34  C   UNL     1      15.346   3.191  93.905  1.00  0.00     0.208 C 
HETATM   35  O   UNL     1      16.434   2.708  94.123  1.00  0.00    -0.289 OA
BRANCH  34  36
HETATM   36  C   UNL     1      15.370   4.556  93.989  1.00  0.00     0.194 C 
HETATM   37  O   UNL     1      16.449   5.446  93.946  1.00  0.00    -0.185 OA
ENDBRANCH  34  36
ENDBRANCH  33  34
ENDBRANCH  31  33
ENDBRANCH  26  31
ENDBRANCH  24  26
ENDBRANCH  19  22
ENDBRANCH  15  16
ENDBRANCH  11  14
ENDBRANCH   7   8
ENDBRANCH   2   7
TORSDOF 12
ENDMDL
MODEL 4
REMARK VINA RESULT:      -3.8      2.459     12.864
REMARK  12 active torsions:
REMARK  status: ('A' for Active; 'I' for Inactive)
REMARK    1  A    between atoms: O_2  and  C_16 
REMARK    2  A    between atoms: N_5  and  C_9 
REMARK    3  A    between atoms: N_6  and  C_13 
REMARK       I    between atoms: N_6  and  C_22 
REMARK    4  A    between atoms: C_9  and  C_12 
REMARK    5  A    between atoms: C_13  and  C_16 
REMARK    6  A    between atoms: C_13  and  C_21 
REMARK    7  A    between atoms: C_19  and  C_24 
REMARK    8  A    between atoms: C_21  and  C_33 
REMARK    9  A    between atoms: C_22  and  C_23 
REMARK   10  A    between atoms: C_27  and  C_30 
REMARK   11  A    between atoms: C_33  and  C_34 
REMARK   12  A    between atoms: C_34  and  C_35 
ROOT
HETATM    1  O   UNL     1       2.729  14.720  93.792  1.00  0.00    -0.350 OA
HETATM    2  N   UNL     1       3.017  14.767  90.961  1.00  0.00     0.147 N 
HETATM    3  C   UNL     1       1.989  13.945  91.615  1.00  0.00     0.283 C 
HETATM    4  C   UNL     1       4.172  14.933  91.854  1.00  0.00     0.283 C 
HETATM    5  C   UNL     1       1.588  14.580  92.944  1.00  0.00     0.178 C 
HETATM    6  C   UNL     1       3.720  15.544  93.176  1.00  0.00     0.178 C 
ENDROOT
BRANCH   2   7
HETATM    7  C   UNL     1       3.424  14.172  89.689  1.00  0.00     0.277 C 
BRANCH   7   8
HETATM    8  C   UNL     1       4.343  13.012  89.874  1.00  0.00     0.011 A 
HETATM    9  C   UNL     1       4.156  12.139  90.946  1.00  0.00    -0.002 A 
HETATM   10  C   UNL     1       5.016  11.055  91.121  1.00  0.00     0.008 A 
HETATM   11  C   UNL     1       6.061  10.844  90.222  1.00  0.00     0.042 A 
HETATM   12  C   UNL     1       6.249  11.715  89.151  1.00  0.00     0.008 A 
HETATM   13  C   UNL     1       5.390  12.799  88.976  1.00  0.00    -0.002 A 
BRANCH  11  14
HETATM   14  C   UNL     1       6.942   9.730  90.400  1.00  0.00    -0.059 C 
HETATM   15  C   UNL     1       7.683   8.795  90.549  1.00  0.00    -0.059 C 
BRANCH  15  16
HETATM   16  C   UNL     1       8.564   7.683  90.728  1.00  0.00     0.042 A 
HETATM   17  C   UNL     1       9.440   7.318  89.705  1.00  0.00     0.008 A 
HETATM   18  C   UNL     1      10.302   6.235  89.880  1.00  0.00     0.005 A 
HETATM   19  C   UNL     1      10.268   5.543  91.072  1.00  0.00     0.056 A 
HETATM   20  C   UNL     1       9.411   5.884  92.098  1.00  0.00     0.005 A 
HETATM   21  C   UNL     1       8.549   6.966  91.924  1.00  0.00     0.008 A 
BRANCH  19  22
HETATM   22  C   UNL     1      11.185   4.388  91.258  1.00  0.00     0.254 C 
HETATM   23  O   UNL     1      11.383   3.623  90.317  1.00  0.00    -0.268 OA
HETATM   24  N   UNL     1      11.779   4.278  92.507  1.00  0.00    -0.335 N 
HETATM   25  HN  UNL     1      11.588   4.963  93.228  1.00  0.00     0.164 HD
BRANCH  24  26
HETATM   26  C   UNL     1      12.710   3.227  92.833  1.00  0.00     0.166 C 
BRANCH  26  27
HETATM   27  C   UNL     1      12.488   1.958  92.000  1.00  0.00     0.138 C 
HETATM   28  C   UNL     1      13.550   0.896  92.260  1.00  0.00     0.034 C 
BRANCH  27  29
HETATM   29  O   UNL     1      11.204   1.411  92.296  1.00  0.00    -0.383 OA
HETATM   30  H   UNL     1      11.268   0.916  93.130  1.00  0.00     0.210 HD
ENDBRANCH  27  29
ENDBRANCH  26  27
BRANCH  26  31
HETATM   31  C   UNL     1      14.119   3.777  92.642  1.00  0.00     0.181 C 
HETATM   32  O   UNL     1      14.459   4.420  91.650  1.00  0.00    -0.294 OA
BRANCH  31  33
HETATM   33  C   UNL     1      14.611   4.635  93.926  1.00  0.00     0.138 C 
BRANCH  33  34
HETATM   34  C   UNL     1      16.014   4.536  93.801  1.00  0.00     0.208 C 
HETATM   35  O   UNL     1      16.619   5.582  93.740  1.00  0.00    -0.289 OA
BRANCH  34  36
HETATM   36  C   UNL     1      16.852   3.477  94.021  1.00  0.00     0.194 C 
HETATM   37  O   UNL     1      16.573   2.109  94.124  1.00  0.00    -0.185 OA
ENDBRANCH  34  36
ENDBRANCH  33  34
ENDBRANCH  31  33
ENDBRANCH  26  31
ENDBRANCH  24  26
ENDBRANCH  19  22
ENDBRANCH  15  16
ENDBRANCH  11  14
ENDBRANCH   7   8
ENDBRANCH   2   7
TORSDOF 12
ENDMDL
MODEL 5
REMARK VINA RESULT:      -3.3      2.786     12.414
REMARK  12 active torsions:
REMARK  status: ('A' for Active; 'I' for Inactive)
REMARK    1  A    between atoms: O_2  and  C_16 
REMARK    2  A    between atoms: N_5  and  C_9 
REMARK    3  A    between atoms: N_6  and  C_13 
REMARK       I    between atoms: N_6  and  C_22 
REMARK    4  A    between atoms: C_9  and  C_12 
REMARK    5  A    between atoms: C_13  and  C_16 
REMARK    6  A    between atoms: C_13  and  C_21 
REMARK    7  A    between atoms: C_19  and  C_24 
REMARK    8  A    between atoms: C_21  and  C_33 
REMARK    9  A    between atoms: C_22  and  C_23 
REMARK   10  A    between atoms: C_27  and  C_30 
REMARK   11  A    between atoms: C_33  and  C_34 
REMARK   12  A    between atoms: C_34  and  C_35 
ROOT
HETATM    1  O   UNL     1       3.330  15.550  92.686  1.00  0.00    -0.350 OA
HETATM    2  N   UNL     1       1.576  13.309  92.634  1.00  0.00     0.147 N 
HETATM    3  C   UNL     1       1.833  14.054  93.874  1.00  0.00     0.283 C 
HETATM    4  C   UNL     1       2.743  13.393  91.745  1.00  0.00     0.283 C 
HETATM    5  C   UNL     1       2.188  15.502  93.544  1.00  0.00     0.178 C 
HETATM    6  C   UNL     1       3.077  14.854  91.465  1.00  0.00     0.178 C 
ENDROOT
BRANCH   2   7
HETATM    7  C   UNL     1       1.244  11.916  92.927  1.00  0.00     0.277 C 
BRANCH   7   8
HETATM    8  C   UNL     1       2.451  11.042  92.974  1.00  0.00     0.011 A 
HETATM    9  C   UNL     1       3.301  11.088  94.080  1.00  0.00    -0.002 A 
HETATM   10  C   UNL     1       4.432  10.272  94.124  1.00  0.00     0.008 A 
HETATM   11  C   UNL     1       4.710   9.411  93.063  1.00  0.00     0.042 A 
HETATM   12  C   UNL     1       3.862   9.364  91.959  1.00  0.00     0.008 A 
HETATM   13  C   UNL     1       2.732  10.180  91.914  1.00  0.00    -0.002 A 
BRANCH  11  14
HETATM   14  C   UNL     1       5.869   8.573  93.110  1.00  0.00    -0.059 C 
HETATM   15  C   UNL     1       6.843   7.869  93.149  1.00  0.00    -0.059 C 
BRANCH  15  16
HETATM   16  C   UNL     1       8.002   7.032  93.196  1.00  0.00     0.042 A 
HETATM   17  C   UNL     1       7.976   5.773  92.597  1.00  0.00     0.008 A 
HETATM   18  C   UNL     1       9.107   4.958  92.640  1.00  0.00     0.005 A 
HETATM   19  C   UNL     1      10.238   5.420  93.280  1.00  0.00     0.056 A 
HETATM   20  C   UNL     1      10.288   6.661  93.880  1.00  0.00     0.005 A 
HETATM   21  C   UNL     1       9.158   7.477  93.837  1.00  0.00     0.008 A 
BRANCH  19  22
HETATM   22  C   UNL     1      11.442   4.551  93.328  1.00  0.00     0.254 C 
HETATM   23  O   UNL     1      11.475   3.615  94.124  1.00  0.00    -0.268 OA
HETATM   24  N   UNL     1      12.451   4.860  92.427  1.00  0.00    -0.335 N 
HETATM   25  HN  UNL     1      12.343   5.633  91.781  1.00  0.00     0.164 HD
BRANCH  24  26
HETATM   26  C   UNL     1      13.669   4.096  92.335  1.00  0.00     0.166 C 
BRANCH  26  27
HETATM   27  C   UNL     1      14.220   3.690  93.707  1.00  0.00     0.138 C 
HETATM   28  C   UNL     1      14.604   2.215  93.769  1.00  0.00     0.034 C 
BRANCH  27  29
HETATM   29  O   UNL     1      15.368   4.480  94.013  1.00  0.00    -0.383 OA
HETATM   30  H   UNL     1      15.108   5.416  93.993  1.00  0.00     0.210 HD
ENDBRANCH  27  29
ENDBRANCH  26  27
BRANCH  26  31
HETATM   31  C   UNL     1      13.388   2.874  91.466  1.00  0.00     0.181 C 
HETATM   32  O   UNL     1      12.485   2.075  91.707  1.00  0.00    -0.294 OA
BRANCH  31  33
HETATM   33  C   UNL     1      13.237   3.269  89.901  1.00  0.00     0.138 C 
BRANCH  33  34
HETATM   34  C   UNL     1      11.948   3.847  89.888  1.00  0.00     0.208 C 
HETATM   35  O   UNL     1      11.902   5.040  89.692  1.00  0.00    -0.289 OA
BRANCH  34  36
HETATM   36  C   UNL     1      10.716   3.265  89.773  1.00  0.00     0.194 C 
HETATM   37  O   UNL     1       9.575   3.691  89.084  1.00  0.00    -0.185 OA
ENDBRANCH  34  36
ENDBRANCH  33  34
ENDBRANCH  31  33
ENDBRANCH  26  31
ENDBRANCH  24  26
ENDBRANCH  19  22
ENDBRANCH  15  16
ENDBRANCH  11  14
ENDBRANCH   7   8
ENDBRANCH   2   7
TORSDOF 12
ENDMDL
