MODEL 1
REMARK VINA RESULT:      -6.9      0.000      0.000
REMARK  11 active torsions:
REMARK  status: ('A' for Active; 'I' for Inactive)
REMARK    1  A    between atoms: O_2  and  C_18 
REMARK    2  A    between atoms: O_5  and  P_8 
REMARK    3  A    between atoms: N_6  and  C_11 
REMARK    4  A    between atoms: N_7  and  C_15 
REMARK       I    between atoms: N_7  and  C_24 
REMARK    5  A    between atoms: P_8  and  C_23 
REMARK    6  A    between atoms: C_11  and  C_14 
REMARK    7  A    between atoms: C_15  and  C_18 
REMARK    8  A    between atoms: C_15  and  C_23 
REMARK    9  A    between atoms: C_21  and  C_26 
REMARK   10  A    between atoms: C_24  and  C_25 
REMARK   11  A    between atoms: C_29  and  C_32 
ROOT
HETATM    1  O   UNL     1      16.535   4.299  94.123  1.00  0.00     0.000 OA
HETATM    2  N   UNL     1      14.668   2.667  92.725  1.00  0.00     0.000 N 
HETATM    3  C   UNL     1      14.562   4.133  92.720  1.00  0.00     0.000 C 
HETATM    4  C   UNL     1      15.306   2.213  93.969  1.00  0.00     0.000 C 
HETATM    5  C   UNL     1      15.945   4.752  92.903  1.00  0.00     0.000 C 
HETATM    6  C   UNL     1      16.670   2.877  94.124  1.00  0.00     0.000 C 
ENDROOT
BRANCH   2   7
HETATM    7  C   UNL     1      13.352   2.052  92.562  1.00  0.00     0.000 C 
BRANCH   7   8
HETATM    8  C   UNL     1      12.295   3.051  92.234  1.00  0.00     0.000 A 
HETATM    9  C   UNL     1      11.747   3.843  93.244  1.00  0.00     0.000 A 
HETATM   10  C   UNL     1      10.757   4.777  92.938  1.00  0.00     0.000 A 
HETATM   11  C   UNL     1      10.317   4.919  91.623  1.00  0.00     0.000 A 
HETATM   12  C   UNL     1      10.863   4.129  90.613  1.00  0.00     0.000 A 
HETATM   13  C   UNL     1      11.853   3.195  90.918  1.00  0.00     0.000 A 
BRANCH  11  14
HETATM   14  C   UNL     1       9.302   5.879  91.309  1.00  0.00     0.000 C 
HETATM   15  C   UNL     1       8.449   6.684  91.046  1.00  0.00     0.000 C 
BRANCH  15  16
HETATM   16  C   UNL     1       7.436   7.643  90.734  1.00  0.00     0.000 A 
HETATM   17  C   UNL     1       6.907   8.450  91.741  1.00  0.00     0.000 A 
HETATM   18  C   UNL     1       5.920   9.387  91.435  1.00  0.00     0.000 A 
HETATM   19  C   UNL     1       5.485   9.496  90.131  1.00  0.00     0.000 A 
HETATM   20  C   UNL     1       5.992   8.710  89.118  1.00  0.00     0.000 A 
HETATM   21  C   UNL     1       6.979   7.772  89.422  1.00  0.00     0.000 A 
BRANCH  19  22
HETATM   22  C   UNL     1       4.432  10.493  89.806  1.00  0.00     0.000 C 
HETATM   23  O   UNL     1       3.422  10.127  89.211  1.00  0.00     0.000 OA
HETATM   24  N   UNL     1       4.671  11.792  90.235  1.00  0.00     0.000 N 
HETATM   25  HN  UNL     1       5.518  12.016  90.744  1.00  0.00     0.000 HD
BRANCH  24  26
HETATM   26  C   UNL     1       3.735  12.865  90.018  1.00  0.00     0.000 C 
BRANCH  26  27
HETATM   27  C   UNL     1       3.008  13.288  91.301  1.00  0.00     0.000 C 
HETATM   28  C   UNL     1       2.499  12.095  92.104  1.00  0.00     0.000 C 
BRANCH  27  29
HETATM   29  O   UNL     1       3.891  14.054  92.119  1.00  0.00     0.000 OA
HETATM   30  H   UNL     1       3.361  14.697  92.621  1.00  0.00     0.000 HD
ENDBRANCH  27  29
ENDBRANCH  26  27
BRANCH  26  31
HETATM   31  C   UNL     1       4.499  14.033  89.403  1.00  0.00     0.000 C 
HETATM   32  O   UNL     1       4.428  15.182  89.836  1.00  0.00     0.000 OA
BRANCH  31  33
HETATM   33  P   UNL     1       5.231  13.653  88.304  1.00  0.00     0.000 P 
HETATM   34  H   UNL     1       5.728  14.796  87.711  1.00  0.00     0.000 HD
BRANCH  33  35
HETATM   35  O   UNL     1       4.534  12.930  87.327  1.00  0.00     0.000 OA
HETATM   36  H   UNL     1       5.199  12.908  86.618  1.00  0.00     0.000 HD
ENDBRANCH  33  35
ENDBRANCH  31  33
ENDBRANCH  26  31
ENDBRANCH  24  26
ENDBRANCH  19  22
ENDBRANCH  15  16
ENDBRANCH  11  14
ENDBRANCH   7   8
ENDBRANCH   2   7
TORSDOF 11
ENDMDL
MODEL 2
REMARK VINA RESULT:      -6.7      1.875      2.906
REMARK  11 active torsions:
REMARK  status: ('A' for Active; 'I' for Inactive)
REMARK    1  A    between atoms: O_2  and  C_18 
REMARK    2  A    between atoms: O_5  and  P_8 
REMARK    3  A    between atoms: N_6  and  C_11 
REMARK    4  A    between atoms: N_7  and  C_15 
REMARK       I    between atoms: N_7  and  C_24 
REMARK    5  A    between atoms: P_8  and  C_23 
REMARK    6  A    between atoms: C_11  and  C_14 
REMARK    7  A    between atoms: C_15  and  C_18 
REMARK    8  A    between atoms: C_15  and  C_23 
REMARK    9  A    between atoms: C_21  and  C_26 
REMARK   10  A    between atoms: C_24  and  C_25 
REMARK   11  A    between atoms: C_29  and  C_32 
ROOT
HETATM    1  O   UNL     1      15.993   3.916  94.069  1.00  0.00     0.000 OA
HETATM    2  N   UNL     1      14.087   2.627  92.394  1.00  0.00     0.000 N 
HETATM    3  C   UNL     1      14.300   4.080  92.338  1.00  0.00     0.000 C 
HETATM    4  C   UNL     1      14.390   2.126  93.741  1.00  0.00     0.000 C 
HETATM    5  C   UNL     1      15.732   4.409  92.753  1.00  0.00     0.000 C 
HETATM    6  C   UNL     1      15.818   2.500  94.124  1.00  0.00     0.000 C 
ENDROOT
BRANCH   2   7
HETATM    7  C   UNL     1      12.717   2.290  92.010  1.00  0.00     0.000 C 
BRANCH   7   8
HETATM    8  C   UNL     1      11.797   3.459  92.104  1.00  0.00     0.000 A 
HETATM    9  C   UNL     1      11.241   4.003  90.945  1.00  0.00     0.000 A 
HETATM   10  C   UNL     1      10.381   5.098  91.032  1.00  0.00     0.000 A 
HETATM   11  C   UNL     1      10.077   5.647  92.277  1.00  0.00     0.000 A 
HETATM   12  C   UNL     1      10.631   5.105  93.434  1.00  0.00     0.000 A 
HETATM   13  C   UNL     1      11.491   4.011  93.348  1.00  0.00     0.000 A 
BRANCH  11  14
HETATM   14  C   UNL     1       9.193   6.769  92.365  1.00  0.00     0.000 C 
HETATM   15  C   UNL     1       8.451   7.712  92.441  1.00  0.00     0.000 C 
BRANCH  15  16
HETATM   16  C   UNL     1       7.569   8.834  92.530  1.00  0.00     0.000 A 
HETATM   17  C   UNL     1       7.024   9.195  93.763  1.00  0.00     0.000 A 
HETATM   18  C   UNL     1       6.165  10.291  93.850  1.00  0.00     0.000 A 
HETATM   19  C   UNL     1       5.872  11.001  92.705  1.00  0.00     0.000 A 
HETATM   20  C   UNL     1       6.397  10.664  91.475  1.00  0.00     0.000 A 
HETATM   21  C   UNL     1       7.256   9.568  91.386  1.00  0.00     0.000 A 
BRANCH  19  22
HETATM   22  C   UNL     1       4.956  12.167  92.798  1.00  0.00     0.000 C 
HETATM   23  O   UNL     1       4.732  12.667  93.897  1.00  0.00     0.000 OA
HETATM   24  N   UNL     1       4.431  12.625  91.598  1.00  0.00     0.000 N 
HETATM   25  HN  UNL     1       4.681  12.176  90.724  1.00  0.00     0.000 HD
BRANCH  24  26
HETATM   26  C   UNL     1       3.547  13.761  91.521  1.00  0.00     0.000 C 
BRANCH  26  27
HETATM   27  C   UNL     1       3.510  14.391  90.123  1.00  0.00     0.000 C 
HETATM   28  C   UNL     1       4.894  14.794  89.628  1.00  0.00     0.000 C 
BRANCH  27  29
HETATM   29  O   UNL     1       2.938  13.466  89.198  1.00  0.00     0.000 OA
HETATM   30  H   UNL     1       3.568  12.738  89.066  1.00  0.00     0.000 HD
ENDBRANCH  27  29
ENDBRANCH  26  27
BRANCH  26  31
HETATM   31  C   UNL     1       2.160  13.302  91.959  1.00  0.00     0.000 C 
HETATM   32  O   UNL     1       1.635  12.269  91.548  1.00  0.00     0.000 OA
BRANCH  31  33
HETATM   33  P   UNL     1       1.568  14.191  92.823  1.00  0.00     0.000 P 
HETATM   34  H   UNL     1       0.771  15.037  92.079  1.00  0.00     0.000 HD
BRANCH  33  35
HETATM   35  O   UNL     1       2.445  14.983  93.579  1.00  0.00     0.000 OA
HETATM   36  H   UNL     1       1.845  15.283  94.283  1.00  0.00     0.000 HD
ENDBRANCH  33  35
ENDBRANCH  31  33
ENDBRANCH  26  31
ENDBRANCH  24  26
ENDBRANCH  19  22
ENDBRANCH  15  16
ENDBRANCH  11  14
ENDBRANCH   7   8
ENDBRANCH   2   7
TORSDOF 11
ENDMDL
MODEL 3
REMARK VINA RESULT:      -6.1      1.565      2.043
REMARK  11 active torsions:
REMARK  status: ('A' for Active; 'I' for Inactive)
REMARK    1  A    between atoms: O_2  and  C_18 
REMARK    2  A    between atoms: O_5  and  P_8 
REMARK    3  A    between atoms: N_6  and  C_11 
REMARK    4  A    between atoms: N_7  and  C_15 
REMARK       I    between atoms: N_7  and  C_24 
REMARK    5  A    between atoms: P_8  and  C_23 
REMARK    6  A    between atoms: C_11  and  C_14 
REMARK    7  A    between atoms: C_15  and  C_18 
REMARK    8  A    between atoms: C_15  and  C_23 
REMARK    9  A    between atoms: C_21  and  C_26 
REMARK   10  A    between atoms: C_24  and  C_25 
REMARK   11  A    between atoms: C_29  and  C_32 
ROOT
HETATM    1  O   UNL     1      16.157   2.750  94.023  1.00  0.00     0.000 OA
HETATM    2  N   UNL     1      13.793   3.164  92.491  1.00  0.00     0.000 N 
HETATM    3  C   UNL     1      14.277   1.812  92.807  1.00  0.00     0.000 C 
HETATM    4  C   UNL     1      14.923   4.101  92.430  1.00  0.00     0.000 C 
HETATM    5  C   UNL     1      15.062   1.837  94.117  1.00  0.00     0.000 C 
HETATM    6  C   UNL     1      15.693   4.072  93.746  1.00  0.00     0.000 C 
ENDROOT
BRANCH   2   7
HETATM    7  C   UNL     1      13.047   3.166  91.234  1.00  0.00     0.000 C 
BRANCH   7   8
HETATM    8  C   UNL     1      11.866   4.074  91.277  1.00  0.00     0.000 A 
HETATM    9  C   UNL     1      11.360   4.502  92.505  1.00  0.00     0.000 A 
HETATM   10  C   UNL     1      10.253   5.350  92.545  1.00  0.00     0.000 A 
HETATM   11  C   UNL     1       9.655   5.771  91.358  1.00  0.00     0.000 A 
HETATM   12  C   UNL     1      10.159   5.344  90.132  1.00  0.00     0.000 A 
HETATM   13  C   UNL     1      11.265   4.495  90.090  1.00  0.00     0.000 A 
BRANCH  11  14
HETATM   14  C   UNL     1       8.521   6.642  91.400  1.00  0.00     0.000 C 
HETATM   15  C   UNL     1       7.568   7.375  91.436  1.00  0.00     0.000 C 
BRANCH  15  16
HETATM   16  C   UNL     1       6.435   8.246  91.479  1.00  0.00     0.000 A 
HETATM   17  C   UNL     1       5.583   8.227  92.583  1.00  0.00     0.000 A 
HETATM   18  C   UNL     1       4.479   9.079  92.626  1.00  0.00     0.000 A 
HETATM   19  C   UNL     1       4.254   9.931  91.565  1.00  0.00     0.000 A 
HETATM   20  C   UNL     1       5.081   9.968  90.462  1.00  0.00     0.000 A 
HETATM   21  C   UNL     1       6.184   9.117  90.418  1.00  0.00     0.000 A 
BRANCH  19  22
HETATM   22  C   UNL     1       3.077  10.837  91.610  1.00  0.00     0.000 C 
HETATM   23  O   UNL     1       1.953  10.369  91.448  1.00  0.00     0.000 OA
HETATM   24  N   UNL     1       3.349  12.174  91.863  1.00  0.00     0.000 N 
HETATM   25  HN  UNL     1       4.302  12.485  92.012  1.00  0.00     0.000 HD
BRANCH  24  26
HETATM   26  C   UNL     1       2.313  13.171  91.961  1.00  0.00     0.000 C 
BRANCH  26  27
HETATM   27  C   UNL     1       2.475  14.077  93.188  1.00  0.00     0.000 C 
HETATM   28  C   UNL     1       3.916  14.533  93.391  1.00  0.00     0.000 C 
BRANCH  27  29
HETATM   29  O   UNL     1       1.640  15.226  93.047  1.00  0.00     0.000 OA
HETATM   30  H   UNL     1       2.194  16.019  93.143  1.00  0.00     0.000 HD
ENDBRANCH  27  29
ENDBRANCH  26  27
BRANCH  26  31
HETATM   31  C   UNL     1       2.322  13.981  90.669  1.00  0.00     0.000 C 
HETATM   32  O   UNL     1       1.370  14.667  90.302  1.00  0.00     0.000 OA
BRANCH  31  33
HETATM   33  P   UNL     1       3.490  13.820  89.963  1.00  0.00     0.000 P 
HETATM   34  H   UNL     1       3.899  15.065  89.531  1.00  0.00     0.000 HD
BRANCH  33  35
HETATM   35  O   UNL     1       3.414  12.979  88.843  1.00  0.00     0.000 OA
HETATM   36  H   UNL     1       4.324  12.636  88.822  1.00  0.00     0.000 HD
ENDBRANCH  33  35
ENDBRANCH  31  33
ENDBRANCH  26  31
ENDBRANCH  24  26
ENDBRANCH  19  22
ENDBRANCH  15  16
ENDBRANCH  11  14
ENDBRANCH   7   8
ENDBRANCH   2   7
TORSDOF 11
ENDMDL
MODEL 4
REMARK VINA RESULT:      -5.4      1.849      2.431
REMARK  11 active torsions:
REMARK  status: ('A' for Active; 'I' for Inactive)
REMARK    1  A    between atoms: O_2  and  C_18 
REMARK    2  A    between atoms: O_5  and  P_8 
REMARK    3  A    between atoms: N_6  and  C_11 
REMARK    4  A    between atoms: N_7  and  C_15 
REMARK       I    between atoms: N_7  and  C_24 
REMARK    5  A    between atoms: P_8  and  C_23 
REMARK    6  A    between atoms: C_11  and  C_14 
REMARK    7  A    between atoms: C_15  and  C_18 
REMARK    8  A    between atoms: C_15  and  C_23 
REMARK    9  A    between atoms: C_21  and  C_26 
REMARK   10  A    between atoms: C_24  and  C_25 
REMARK   11  A    between atoms: C_29  and  C_32 
ROOT
HETATM    1  O   UNL     1      16.577   3.011  93.628  1.00  0.00     0.000 OA
HETATM    2  N   UNL     1      13.789   2.986  93.054  1.00  0.00     0.000 N 
HETATM    3  C   UNL     1      14.556   1.740  93.189  1.00  0.00     0.000 C 
HETATM    4  C   UNL     1      14.663   4.067  92.576  1.00  0.00     0.000 C 
HETATM    5  C   UNL     1      15.742   1.962  94.124  1.00  0.00     0.000 C 
HETATM    6  C   UNL     1      15.846   4.234  93.524  1.00  0.00     0.000 C 
ENDROOT
BRANCH   2   7
HETATM    7  C   UNL     1      12.653   2.800  92.153  1.00  0.00     0.000 C 
BRANCH   7   8
HETATM    8  C   UNL     1      11.683   3.930  92.220  1.00  0.00     0.000 A 
HETATM    9  C   UNL     1      11.352   4.492  93.453  1.00  0.00     0.000 A 
HETATM   10  C   UNL     1      10.443   5.548  93.517  1.00  0.00     0.000 A 
HETATM   11  C   UNL     1       9.868   6.043  92.347  1.00  0.00     0.000 A 
HETATM   12  C   UNL     1      10.199   5.483  91.115  1.00  0.00     0.000 A 
HETATM   13  C   UNL     1      11.107   4.427  91.051  1.00  0.00     0.000 A 
BRANCH  11  14
HETATM   14  C   UNL     1       8.938   7.128  92.413  1.00  0.00     0.000 C 
HETATM   15  C   UNL     1       8.157   8.040  92.468  1.00  0.00     0.000 C 
BRANCH  15  16
HETATM   16  C   UNL     1       7.227   9.125  92.532  1.00  0.00     0.000 A 
HETATM   17  C   UNL     1       6.539   9.383  93.718  1.00  0.00     0.000 A 
HETATM   18  C   UNL     1       5.635  10.442  93.782  1.00  0.00     0.000 A 
HETATM   19  C   UNL     1       5.439  11.220  92.660  1.00  0.00     0.000 A 
HETATM   20  C   UNL     1       6.106  10.986  91.476  1.00  0.00     0.000 A 
HETATM   21  C   UNL     1       7.011   9.926  91.411  1.00  0.00     0.000 A 
BRANCH  19  22
HETATM   22  C   UNL     1       4.474  12.348  92.727  1.00  0.00     0.000 C 
HETATM   23  O   UNL     1       4.321  12.943  93.791  1.00  0.00     0.000 OA
HETATM   24  N   UNL     1       3.822  12.662  91.543  1.00  0.00     0.000 N 
HETATM   25  HN  UNL     1       4.017  12.141  90.696  1.00  0.00     0.000 HD
BRANCH  24  26
HETATM   26  C   UNL     1       2.875  13.744  91.442  1.00  0.00     0.000 C 
BRANCH  26  27
HETATM   27  C   UNL     1       1.597  13.492  92.251  1.00  0.00     0.000 C 
HETATM   28  C   UNL     1       1.383  12.014  92.560  1.00  0.00     0.000 C 
BRANCH  27  29
HETATM   29  O   UNL     1       1.658  14.218  93.479  1.00  0.00     0.000 OA
HETATM   30  H   UNL     1       2.590  14.413  93.671  1.00  0.00     0.000 HD
ENDBRANCH  27  29
ENDBRANCH  26  27
BRANCH  26  31
HETATM   31  C   UNL     1       3.577  15.020  91.897  1.00  0.00     0.000 C 
HETATM   32  O   UNL     1       3.268  15.625  92.921  1.00  0.00     0.000 OA
BRANCH  31  33
HETATM   33  P   UNL     1       4.550  15.420  91.013  1.00  0.00     0.000 P 
HETATM   34  H   UNL     1       4.333  16.751  90.719  1.00  0.00     0.000 HD
BRANCH  33  35
HETATM   35  O   UNL     1       4.602  14.715  89.803  1.00  0.00     0.000 OA
HETATM   36  H   UNL     1       4.142  15.340  89.217  1.00  0.00     0.000 HD
ENDBRANCH  33  35
ENDBRANCH  31  33
ENDBRANCH  26  31
ENDBRANCH  24  26
ENDBRANCH  19  22
ENDBRANCH  15  16
ENDBRANCH  11  14
ENDBRANCH   7   8
ENDBRANCH   2   7
TORSDOF 11
ENDMDL
MODEL 5
REMARK VINA RESULT:      -5.0      3.681     12.448
REMARK  11 active torsions:
REMARK  status: ('A' for Active; 'I' for Inactive)
REMARK    1  A    between atoms: O_2  and  C_18 
REMARK    2  A    between atoms: O_5  and  P_8 
REMARK    3  A    between atoms: N_6  and  C_11 
REMARK    4  A    between atoms: N_7  and  C_15 
REMARK       I    between atoms: N_7  and  C_24 
REMARK    5  A    between atoms: P_8  and  C_23 
REMARK    6  A    between atoms: C_11  and  C_14 
REMARK    7  A    between atoms: C_15  and  C_18 
REMARK    8  A    between atoms: C_15  and  C_23 
REMARK    9  A    between atoms: C_21  and  C_26 
REMARK   10  A    between atoms: C_24  and  C_25 
REMARK   11  A    between atoms: C_29  and  C_32 
ROOT
HETATM    1  O   UNL     1       3.894  14.708  90.046  1.00  0.00     0.000 OA
HETATM    2  N   UNL     1       2.986  13.963  92.638  1.00  0.00     0.000 N 
HETATM    3  C   UNL     1       4.310  14.566  92.433  1.00  0.00     0.000 C 
HETATM    4  C   UNL     1       2.579  13.220  91.438  1.00  0.00     0.000 C 
HETATM    5  C   UNL     1       4.284  15.461  91.196  1.00  0.00     0.000 C 
HETATM    6  C   UNL     1       2.594  14.145  90.226  1.00  0.00     0.000 C 
ENDROOT
BRANCH   2   7
HETATM    7  C   UNL     1       2.990  13.093  93.813  1.00  0.00     0.000 C 
BRANCH   7   8
HETATM    8  C   UNL     1       3.986  11.990  93.699  1.00  0.00     0.000 A 
HETATM    9  C   UNL     1       3.572  10.713  93.317  1.00  0.00     0.000 A 
HETATM   10  C   UNL     1       4.503   9.680  93.212  1.00  0.00     0.000 A 
HETATM   11  C   UNL     1       5.848   9.925  93.487  1.00  0.00     0.000 A 
HETATM   12  C   UNL     1       6.263  11.199  93.868  1.00  0.00     0.000 A 
HETATM   13  C   UNL     1       5.332  12.232  93.973  1.00  0.00     0.000 A 
BRANCH  11  14
HETATM   14  C   UNL     1       6.803   8.865  93.377  1.00  0.00     0.000 C 
HETATM   15  C   UNL     1       7.606   7.975  93.285  1.00  0.00     0.000 C 
BRANCH  15  16
HETATM   16  C   UNL     1       8.560   6.916  93.174  1.00  0.00     0.000 A 
HETATM   17  C   UNL     1       9.766   6.989  93.872  1.00  0.00     0.000 A 
HETATM   18  C   UNL     1      10.695   5.955  93.766  1.00  0.00     0.000 A 
HETATM   19  C   UNL     1      10.398   4.871  92.967  1.00  0.00     0.000 A 
HETATM   20  C   UNL     1       9.214   4.775  92.267  1.00  0.00     0.000 A 
HETATM   21  C   UNL     1       8.284   5.809  92.372  1.00  0.00     0.000 A 
BRANCH  19  22
HETATM   22  C   UNL     1      11.390   3.770  92.853  1.00  0.00     0.000 C 
HETATM   23  O   UNL     1      10.992   2.619  92.686  1.00  0.00     0.000 OA
HETATM   24  N   UNL     1      12.725   4.144  92.923  1.00  0.00     0.000 N 
HETATM   25  HN  UNL     1      12.979   5.118  93.037  1.00  0.00     0.000 HD
BRANCH  24  26
HETATM   26  C   UNL     1      13.803   3.196  92.804  1.00  0.00     0.000 C 
BRANCH  26  27
HETATM   27  C   UNL     1      14.234   2.965  91.351  1.00  0.00     0.000 C 
HETATM   28  C   UNL     1      13.836   4.116  90.434  1.00  0.00     0.000 C 
BRANCH  27  29
HETATM   29  O   UNL     1      15.650   2.796  91.294  1.00  0.00     0.000 OA
HETATM   30  H   UNL     1      16.047   3.639  91.019  1.00  0.00     0.000 HD
ENDBRANCH  27  29
ENDBRANCH  26  27
BRANCH  26  31
HETATM   31  C   UNL     1      14.964   3.703  93.653  1.00  0.00     0.000 C 
HETATM   32  O   UNL     1      15.176   4.898  93.854  1.00  0.00     0.000 OA
BRANCH  31  33
HETATM   33  P   UNL     1      15.750   2.678  94.123  1.00  0.00     0.000 P 
HETATM   34  H   UNL     1      15.530   2.564  95.480  1.00  0.00     0.000 HD
BRANCH  33  35
HETATM   35  O   UNL     1      17.130   2.827  93.922  1.00  0.00     0.000 OA
HETATM   36  H   UNL     1      17.452   2.707  94.832  1.00  0.00     0.000 HD
ENDBRANCH  33  35
ENDBRANCH  31  33
ENDBRANCH  26  31
ENDBRANCH  24  26
ENDBRANCH  19  22
ENDBRANCH  15  16
ENDBRANCH  11  14
ENDBRANCH   7   8
ENDBRANCH   2   7
TORSDOF 11
ENDMDL
MODEL 6
REMARK VINA RESULT:      -4.4      3.423     12.409
REMARK  11 active torsions:
REMARK  status: ('A' for Active; 'I' for Inactive)
REMARK    1  A    between atoms: O_2  and  C_18 
REMARK    2  A    between atoms: O_5  and  P_8 
REMARK    3  A    between atoms: N_6  and  C_11 
REMARK    4  A    between atoms: N_7  and  C_15 
REMARK       I    between atoms: N_7  and  C_24 
REMARK    5  A    between atoms: P_8  and  C_23 
REMARK    6  A    between atoms: C_11  and  C_14 
REMARK    7  A    between atoms: C_15  and  C_18 
REMARK    8  A    between atoms: C_15  and  C_23 
REMARK    9  A    between atoms: C_21  and  C_26 
REMARK   10  A    between atoms: C_24  and  C_25 
REMARK   11  A    between atoms: C_29  and  C_32 
ROOT
HETATM    1  O   UNL     1       5.657  14.686  88.342  1.00  0.00     0.000 OA
HETATM    2  N   UNL     1       3.649  13.369  89.870  1.00  0.00     0.000 N 
HETATM    3  C   UNL     1       4.497  14.416  90.456  1.00  0.00     0.000 C 
HETATM    4  C   UNL     1       4.374  12.678  88.795  1.00  0.00     0.000 C 
HETATM    5  C   UNL     1       4.949  15.386  89.367  1.00  0.00     0.000 C 
HETATM    6  C   UNL     1       4.829  13.687  87.746  1.00  0.00     0.000 C 
ENDROOT
BRANCH   2   7
HETATM    7  C   UNL     1       3.212  12.423  90.895  1.00  0.00     0.000 C 
BRANCH   7   8
HETATM    8  C   UNL     1       4.242  11.385  91.185  1.00  0.00     0.000 A 
HETATM    9  C   UNL     1       4.370  10.277  90.346  1.00  0.00     0.000 A 
HETATM   10  C   UNL     1       5.331   9.304  90.618  1.00  0.00     0.000 A 
HETATM   11  C   UNL     1       6.166   9.440  91.726  1.00  0.00     0.000 A 
HETATM   12  C   UNL     1       6.040  10.546  92.564  1.00  0.00     0.000 A 
HETATM   13  C   UNL     1       5.078  11.519  92.293  1.00  0.00     0.000 A 
BRANCH  11  14
HETATM   14  C   UNL     1       7.154   8.443  92.004  1.00  0.00     0.000 C 
HETATM   15  C   UNL     1       7.984   7.605  92.236  1.00  0.00     0.000 C 
BRANCH  15  16
HETATM   16  C   UNL     1       8.971   6.608  92.513  1.00  0.00     0.000 A 
HETATM   17  C   UNL     1       9.438   6.433  93.815  1.00  0.00     0.000 A 
HETATM   18  C   UNL     1      10.399   5.459  94.085  1.00  0.00     0.000 A 
HETATM   19  C   UNL     1      10.871   4.682  93.047  1.00  0.00     0.000 A 
HETATM   20  C   UNL     1      10.425   4.836  91.751  1.00  0.00     0.000 A 
HETATM   21  C   UNL     1       9.464   5.810  91.480  1.00  0.00     0.000 A 
BRANCH  19  22
HETATM   22  C   UNL     1      11.896   3.646  93.335  1.00  0.00     0.000 C 
HETATM   23  O   UNL     1      11.547   2.475  93.460  1.00  0.00     0.000 OA
HETATM   24  N   UNL     1      13.207   4.094  93.417  1.00  0.00     0.000 N 
HETATM   25  HN  UNL     1      13.424   5.074  93.277  1.00  0.00     0.000 HD
BRANCH  24  26
HETATM   26  C   UNL     1      14.316   3.208  93.666  1.00  0.00     0.000 C 
BRANCH  26  27
HETATM   27  C   UNL     1      14.340   2.006  92.712  1.00  0.00     0.000 C 
HETATM   28  C   UNL     1      15.300   2.207  91.545  1.00  0.00     0.000 C 
BRANCH  27  29
HETATM   29  O   UNL     1      14.724   0.835  93.431  1.00  0.00     0.000 OA
HETATM   30  H   UNL     1      14.356   0.061  92.971  1.00  0.00     0.000 HD
ENDBRANCH  27  29
ENDBRANCH  26  27
BRANCH  26  31
HETATM   31  C   UNL     1      15.599   4.026  93.560  1.00  0.00     0.000 C 
HETATM   32  O   UNL     1      15.652   5.120  93.001  1.00  0.00     0.000 OA
BRANCH  31  33
HETATM   33  P   UNL     1      16.673   3.381  94.124  1.00  0.00     0.000 P 
HETATM   34  H   UNL     1      17.045   4.084  95.251  1.00  0.00     0.000 HD
BRANCH  33  35
HETATM   35  O   UNL     1      17.804   3.251  93.305  1.00  0.00     0.000 OA
HETATM   36  H   UNL     1      18.490   3.104  93.978  1.00  0.00     0.000 HD
ENDBRANCH  33  35
ENDBRANCH  31  33
ENDBRANCH  26  31
ENDBRANCH  24  26
ENDBRANCH  19  22
ENDBRANCH  15  16
ENDBRANCH  11  14
ENDBRANCH   7   8
ENDBRANCH   2   7
TORSDOF 11
ENDMDL
MODEL 7
REMARK VINA RESULT:      -4.0      1.952      2.421
REMARK  11 active torsions:
REMARK  status: ('A' for Active; 'I' for Inactive)
REMARK    1  A    between atoms: O_2  and  C_18 
REMARK    2  A    between atoms: O_5  and  P_8 
REMARK    3  A    between atoms: N_6  and  C_11 
REMARK    4  A    between atoms: N_7  and  C_15 
REMARK       I    between atoms: N_7  and  C_24 
REMARK    5  A    between atoms: P_8  and  C_23 
REMARK    6  A    between atoms: C_11  and  C_14 
REMARK    7  A    between atoms: C_15  and  C_18 
REMARK    8  A    between atoms: C_15  and  C_23 
REMARK    9  A    between atoms: C_21  and  C_26 
REMARK   10  A    between atoms: C_24  and  C_25 
REMARK   11  A    between atoms: C_29  and  C_32 
ROOT
HETATM    1  O   UNL     1      15.546   3.673  90.996  1.00  0.00     0.000 OA
HETATM    2  N   UNL     1      13.340   2.525  92.381  1.00  0.00     0.000 N 
HETATM    3  C   UNL     1      13.172   3.689  91.500  1.00  0.00     0.000 C 
HETATM    4  C   UNL     1      14.694   2.516  92.951  1.00  0.00     0.000 C 
HETATM    5  C   UNL     1      14.242   3.673  90.412  1.00  0.00     0.000 C 
HETATM    6  C   UNL     1      15.728   2.527  91.830  1.00  0.00     0.000 C 
ENDROOT
BRANCH   2   7
HETATM    7  C   UNL     1      12.331   2.526  93.439  1.00  0.00     0.000 C 
BRANCH   7   8
HETATM    8  C   UNL     1      11.305   3.590  93.244  1.00  0.00     0.000 A 
HETATM    9  C   UNL     1      10.380   3.484  92.204  1.00  0.00     0.000 A 
HETATM   10  C   UNL     1       9.421   4.480  92.019  1.00  0.00     0.000 A 
HETATM   11  C   UNL     1       9.386   5.580  92.875  1.00  0.00     0.000 A 
HETATM   12  C   UNL     1      10.309   5.687  93.914  1.00  0.00     0.000 A 
HETATM   13  C   UNL     1      11.269   4.691  94.099  1.00  0.00     0.000 A 
BRANCH  11  14
HETATM   14  C   UNL     1       8.401   6.600  92.687  1.00  0.00     0.000 C 
HETATM   15  C   UNL     1       7.574   7.458  92.528  1.00  0.00     0.000 C 
BRANCH  15  16
HETATM   16  C   UNL     1       6.590   8.478  92.339  1.00  0.00     0.000 A 
HETATM   17  C   UNL     1       5.237   8.140  92.293  1.00  0.00     0.000 A 
HETATM   18  C   UNL     1       4.277   9.135  92.111  1.00  0.00     0.000 A 
HETATM   19  C   UNL     1       4.690  10.444  91.981  1.00  0.00     0.000 A 
HETATM   20  C   UNL     1       6.021  10.804  92.023  1.00  0.00     0.000 A 
HETATM   21  C   UNL     1       6.982   9.810  92.204  1.00  0.00     0.000 A 
BRANCH  19  22
HETATM   22  C   UNL     1       3.667  11.504  91.785  1.00  0.00     0.000 C 
HETATM   23  O   UNL     1       2.515  11.181  91.503  1.00  0.00     0.000 OA
HETATM   24  N   UNL     1       4.101  12.810  91.966  1.00  0.00     0.000 N 
HETATM   25  HN  UNL     1       5.063  12.999  92.224  1.00  0.00     0.000 HD
BRANCH  24  26
HETATM   26  C   UNL     1       3.223  13.944  91.836  1.00  0.00     0.000 C 
BRANCH  26  27
HETATM   27  C   UNL     1       3.461  15.007  92.916  1.00  0.00     0.000 C 
HETATM   28  C   UNL     1       2.207  15.303  93.731  1.00  0.00     0.000 C 
BRANCH  27  29
HETATM   29  O   UNL     1       4.494  14.568  93.798  1.00  0.00     0.000 OA
HETATM   30  H   UNL     1       4.116  13.911  94.407  1.00  0.00     0.000 HD
ENDBRANCH  27  29
ENDBRANCH  26  27
BRANCH  26  31
HETATM   31  C   UNL     1       3.414  14.523  90.437  1.00  0.00     0.000 C 
HETATM   32  O   UNL     1       2.641  14.296  89.508  1.00  0.00     0.000 OA
BRANCH  31  33
HETATM   33  P   UNL     1       4.555  15.281  90.340  1.00  0.00     0.000 P 
HETATM   34  H   UNL     1       4.198  16.605  90.490  1.00  0.00     0.000 HD
BRANCH  33  35
HETATM   35  O   UNL     1       5.267  15.161  89.138  1.00  0.00     0.000 OA
HETATM   36  H   UNL     1       4.882  14.339  88.789  1.00  0.00     0.000 HD
ENDBRANCH  33  35
ENDBRANCH  31  33
ENDBRANCH  26  31
ENDBRANCH  24  26
ENDBRANCH  19  22
ENDBRANCH  15  16
ENDBRANCH  11  14
ENDBRANCH   7   8
ENDBRANCH   2   7
TORSDOF 11
ENDMDL
MODEL 8
REMARK VINA RESULT:      -4.0      3.328     12.679
REMARK  11 active torsions:
REMARK  status: ('A' for Active; 'I' for Inactive)
REMARK    1  A    between atoms: O_2  and  C_18 
REMARK    2  A    between atoms: O_5  and  P_8 
REMARK    3  A    between atoms: N_6  and  C_11 
REMARK    4  A    between atoms: N_7  and  C_15 
REMARK       I    between atoms: N_7  and  C_24 
REMARK    5  A    between atoms: P_8  and  C_23 
REMARK    6  A    between atoms: C_11  and  C_14 
REMARK    7  A    between atoms: C_15  and  C_18 
REMARK    8  A    between atoms: C_15  and  C_23 
REMARK    9  A    between atoms: C_21  and  C_26 
REMARK   10  A    between atoms: C_24  and  C_25 
REMARK   11  A    between atoms: C_29  and  C_32 
ROOT
HETATM    1  O   UNL     1       1.939  15.028  91.767  1.00  0.00     0.000 OA
HETATM    2  N   UNL     1       3.847  13.240  90.643  1.00  0.00     0.000 N 
HETATM    3  C   UNL     1       4.239  14.563  91.147  1.00  0.00     0.000 C 
HETATM    4  C   UNL     1       2.454  13.272  90.175  1.00  0.00     0.000 C 
HETATM    5  C   UNL     1       3.282  14.999  92.254  1.00  0.00     0.000 C 
HETATM    6  C   UNL     1       1.539  13.738  91.303  1.00  0.00     0.000 C 
ENDROOT
BRANCH   2   7
HETATM    7  C   UNL     1       4.744  12.806  89.573  1.00  0.00     0.000 C 
BRANCH   7   8
HETATM    8  C   UNL     1       5.636  11.689  89.998  1.00  0.00     0.000 A 
HETATM    9  C   UNL     1       5.391  11.020  91.197  1.00  0.00     0.000 A 
HETATM   10  C   UNL     1       6.225   9.976  91.596  1.00  0.00     0.000 A 
HETATM   11  C   UNL     1       7.303   9.601  90.795  1.00  0.00     0.000 A 
HETATM   12  C   UNL     1       7.548  10.268  89.596  1.00  0.00     0.000 A 
HETATM   13  C   UNL     1       6.714  11.313  89.197  1.00  0.00     0.000 A 
BRANCH  11  14
HETATM   14  C   UNL     1       8.157   8.529  91.203  1.00  0.00     0.000 C 
HETATM   15  C   UNL     1       8.875   7.627  91.546  1.00  0.00     0.000 C 
BRANCH  15  16
HETATM   16  C   UNL     1       9.729   6.555  91.953  1.00  0.00     0.000 A 
HETATM   17  C   UNL     1      10.173   6.482  93.274  1.00  0.00     0.000 A 
HETATM   18  C   UNL     1      11.004   5.435  93.672  1.00  0.00     0.000 A 
HETATM   19  C   UNL     1      11.372   4.485  92.741  1.00  0.00     0.000 A 
HETATM   20  C   UNL     1      10.947   4.536  91.430  1.00  0.00     0.000 A 
HETATM   21  C   UNL     1      10.116   5.583  91.031  1.00  0.00     0.000 A 
BRANCH  19  22
HETATM   22  C   UNL     1      12.259   3.371  93.165  1.00  0.00     0.000 C 
HETATM   23  O   UNL     1      11.794   2.238  93.261  1.00  0.00     0.000 OA
HETATM   24  N   UNL     1      13.585   3.706  93.402  1.00  0.00     0.000 N 
HETATM   25  HN  UNL     1      13.903   4.660  93.277  1.00  0.00     0.000 HD
BRANCH  24  26
HETATM   26  C   UNL     1      14.572   2.733  93.795  1.00  0.00     0.000 C 
BRANCH  26  27
HETATM   27  C   UNL     1      14.684   1.567  92.805  1.00  0.00     0.000 C 
HETATM   28  C   UNL     1      15.610   1.880  91.635  1.00  0.00     0.000 C 
BRANCH  27  29
HETATM   29  O   UNL     1      15.170   0.409  93.484  1.00  0.00     0.000 OA
HETATM   30  H   UNL     1      15.974   0.657  93.971  1.00  0.00     0.000 HD
ENDBRANCH  27  29
ENDBRANCH  26  27
BRANCH  26  31
HETATM   31  C   UNL     1      15.905   3.458  93.950  1.00  0.00     0.000 C 
HETATM   32  O   UNL     1      16.983   2.870  94.024  1.00  0.00     0.000 OA
BRANCH  31  33
HETATM   33  P   UNL     1      15.748   4.820  94.036  1.00  0.00     0.000 P 
HETATM   34  H   UNL     1      14.546   5.146  93.439  1.00  0.00     0.000 HD
BRANCH  33  35
HETATM   35  O   UNL     1      16.751   5.589  93.429  1.00  0.00     0.000 OA
HETATM   36  H   UNL     1      16.869   6.283  94.100  1.00  0.00     0.000 HD
ENDBRANCH  33  35
ENDBRANCH  31  33
ENDBRANCH  26  31
ENDBRANCH  24  26
ENDBRANCH  19  22
ENDBRANCH  15  16
ENDBRANCH  11  14
ENDBRANCH   7   8
ENDBRANCH   2   7
TORSDOF 11
ENDMDL
