MODEL 1
REMARK VINA RESULT:      -6.7      0.000      0.000
REMARK  10 active torsions:
REMARK  status: ('A' for Active; 'I' for Inactive)
REMARK    1  A    between atoms: O_2  and  C_18 
REMARK    2  A    between atoms: O_5  and  N_8 
REMARK    3  A    between atoms: N_6  and  C_11 
REMARK    4  A    between atoms: N_7  and  C_15 
REMARK       I    between atoms: N_7  and  C_24 
REMARK       I    between atoms: N_8  and  C_23 
REMARK    5  A    between atoms: C_11  and  C_14 
REMARK    6  A    between atoms: C_15  and  C_18 
REMARK    7  A    between atoms: C_15  and  C_23 
REMARK    8  A    between atoms: C_21  and  C_26 
REMARK    9  A    between atoms: C_24  and  C_25 
REMARK   10  A    between atoms: C_29  and  C_32 
ROOT
HETATM    1  O   UNK     0      16.435   4.304  94.034  0.00  0.00    -0.388 OA
HETATM    2  N   UNK     0      14.638   2.694  92.524  0.00  0.00     0.096 N 
HETATM    3  C   UNK     0      14.619   4.161  92.431  0.00  0.00     0.299 C 
HETATM    4  C   UNK     0      15.110   2.280  93.852  0.00  0.00     0.299 C 
HETATM    5  C   UNK     0      16.008   4.716  92.734  0.00  0.00     0.198 C 
HETATM    6  C   UNK     0      16.487   2.880  94.122  0.00  0.00     0.198 C 
ENDROOT
BRANCH   2   7
HETATM    7  C   UNK     0      13.314   2.140  92.247  0.00  0.00     0.311 C 
BRANCH   7   8
HETATM    8  C   UNK     0      12.311   3.197  91.931  0.00  0.00    -0.030 A 
HETATM    9  C   UNK     0      11.554   3.768  92.955  0.00  0.00     0.010 A 
HETATM   10  C   UNK     0      10.614   4.755  92.660  0.00  0.00     0.021 A 
HETATM   11  C   UNK     0      10.433   5.173  91.341  0.00  0.00     0.018 A 
HETATM   12  C   UNK     0      11.189   4.603  90.318  0.00  0.00     0.021 A 
HETATM   13  C   UNK     0      12.128   3.615  90.613  0.00  0.00     0.010 A 
BRANCH  11  14
HETATM   14  C   UNK     0       9.470   6.187  91.039  0.00  0.00    -0.061 C 
HETATM   15  C   UNK     0       8.661   7.039  90.785  0.00  0.00    -0.061 C 
BRANCH  15  16
HETATM   16  C   UNK     0       7.700   8.052  90.482  0.00  0.00     0.018 A 
HETATM   17  C   UNK     0       7.991   9.390  90.749  0.00  0.00     0.022 A 
HETATM   18  C   UNK     0       7.054  10.380  90.451  0.00  0.00     0.018 A 
HETATM   19  C   UNK     0       5.848  10.010  89.893  0.00  0.00     0.032 A 
HETATM   20  C   UNK     0       5.536   8.694  89.620  0.00  0.00     0.018 A 
HETATM   21  C   UNK     0       6.473   7.704  89.918  0.00  0.00     0.022 A 
BRANCH  19  22
HETATM   22  C   UNK     0       4.849  11.064  89.578  0.00  0.00     0.252 C 
HETATM   23  O   UNK     0       4.540  11.266  88.406  0.00  0.00    -0.268 OA
HETATM   24  N   UNK     0       4.313  11.738  90.666  0.00  0.00    -0.341 N 
HETATM   25  H   UNK     0       4.598  11.499  91.609  0.00  0.00     0.163 HD
BRANCH  24  26
HETATM   26  C   UNK     0       3.316  12.769  90.525  0.00  0.00     0.207 C 
BRANCH  26  27
HETATM   27  C   UNK     0       2.330  12.805  91.700  0.00  0.00     0.146 C 
HETATM   28  C   UNK     0       3.002  12.512  93.036  0.00  0.00     0.042 C 
BRANCH  27  29
HETATM   29  O   UNK     0       1.712  14.090  91.764  0.00  0.00    -0.393 OA
HETATM   30  H   UNK     0       2.173  14.617  92.438  0.00  0.00     0.210 HD
ENDBRANCH  27  29
ENDBRANCH  26  27
BRANCH  26  31
HETATM   31  C   UNK     0       4.043  14.101  90.370  0.00  0.00     0.266 C 
HETATM   32  O   UNK     0       4.254  14.862  91.312  0.00  0.00    -0.269 OA
HETATM   33  N   UNK     0       4.389  14.354  89.065  0.00  0.00    -0.236 N 
HETATM   34  H   UNK     0       4.153  13.793  88.255  0.00  0.00     0.197 HD
BRANCH  33  35
HETATM   35  O   UNK     0       5.029  15.579  88.830  0.00  0.00    -0.287 OA
HETATM   36  H   UNK     0       5.497  15.376  88.002  0.00  0.00     0.244 HD
ENDBRANCH  33  35
ENDBRANCH  26  31
ENDBRANCH  24  26
ENDBRANCH  19  22
ENDBRANCH  15  16
ENDBRANCH  11  14
ENDBRANCH   7   8
ENDBRANCH   2   7
TORSDOF 10
ENDMDL
