MODEL 1
REMARK VINA RESULT:      -6.8      0.000      0.000
REMARK  10 active torsions:
REMARK  status: ('A' for Active; 'I' for Inactive)
REMARK    1  A    between atoms: O_2  and  C_16 
REMARK    2  A    between atoms: N_5  and  C_9 
REMARK    3  A    between atoms: N_6  and  C_13 
REMARK       I    between atoms: N_6  and  C_22 
REMARK    4  A    between atoms: C_9  and  C_12 
REMARK    5  A    between atoms: C_13  and  C_16 
REMARK    6  A    between atoms: C_13  and  C_21 
REMARK    7  A    between atoms: C_19  and  C_24 
REMARK    8  A    between atoms: C_22  and  C_23 
REMARK    9  A    between atoms: C_27  and  C_30 
REMARK   10  A    between atoms: N_33  and  S_34 
ROOT
HETATM    1  C   UNL     1       5.894  11.306  90.070  1.00  0.00     0.056 A 
HETATM    2  C   UNL     1       7.023  11.158  89.293  1.00  0.00     0.005 A 
HETATM    3  C   UNL     1       5.564  10.413  91.068  1.00  0.00     0.005 A 
HETATM    4  C   UNL     1       7.550   9.149  90.526  1.00  0.00     0.042 A 
HETATM    5  C   UNL     1       7.862  10.067  89.523  1.00  0.00     0.008 A 
HETATM    6  C   UNL     1       6.402   9.321  91.299  1.00  0.00     0.008 A 
ENDROOT
BRANCH   1   7
HETATM    7  C   UNL     1       5.002  12.470  89.826  1.00  0.00     0.254 C 
HETATM    8  O   UNL     1       5.023  13.022  88.729  1.00  0.00    -0.268 OA
HETATM    9  N   UNL     1       4.176  12.834  90.880  1.00  0.00    -0.337 N 
HETATM   10  HN  UNL     1       4.196  12.315  91.750  1.00  0.00     0.164 HD
BRANCH   9  11
HETATM   11  C   UNL     1       3.239  13.925  90.790  1.00  0.00     0.172 C 
BRANCH  11  12
HETATM   12  C   UNL     1       1.875  13.588  91.405  1.00  0.00     0.136 C 
HETATM   13  C   UNL     1       1.927  12.358  92.303  1.00  0.00     0.034 C 
BRANCH  12  14
HETATM   14  O   UNL     1       1.408  14.700  92.168  1.00  0.00    -0.383 OA
HETATM   15  H   UNL     1       1.763  14.622  93.069  1.00  0.00     0.210 HD
ENDBRANCH  12  14
ENDBRANCH  11  12
BRANCH  11  16
HETATM   16  C   UNL     1       3.869  15.137  91.469  1.00  0.00     0.398 A 
HETATM   17  O   UNL     1       4.963  15.595  91.142  1.00  0.00    -0.136 OA
HETATM   18  N   UNL     1       4.851  15.523  92.656  1.00  0.00     0.142 N 
HETATM   19  HN  UNL     1       5.744  15.925  92.597  1.00  0.00     0.338 HD
BRANCH  18  20
HETATM   20  S   UNL     1       4.175  14.893  93.695  1.00  0.00     0.076 SA
HETATM   21  H   UNL     1       3.126  15.358  94.004  1.00  0.00     0.136 HD
ENDBRANCH  18  20
ENDBRANCH  11  16
ENDBRANCH   9  11
ENDBRANCH   1   7
BRANCH   4  22
HETATM   22  C   UNL     1       8.408   8.029  90.760  1.00  0.00    -0.059 C 
HETATM   23  C   UNL     1       9.129   7.087  90.956  1.00  0.00    -0.059 C 
BRANCH  23  24
HETATM   24  C   UNL     1       9.987   5.967  91.190  1.00  0.00     0.042 A 
HETATM   25  C   UNL     1      10.634   5.350  90.119  1.00  0.00     0.008 A 
HETATM   26  C   UNL     1      11.470   4.257  90.346  1.00  0.00    -0.002 A 
HETATM   27  C   UNL     1      11.659   3.782  91.644  1.00  0.00     0.011 A 
HETATM   28  C   UNL     1      11.012   4.400  92.714  1.00  0.00    -0.002 A 
HETATM   29  C   UNL     1      10.176   5.493  92.486  1.00  0.00     0.008 A 
BRANCH  27  30
HETATM   30  C   UNL     1      12.555   2.615  91.886  1.00  0.00     0.277 C 
BRANCH  30  31
HETATM   31  N   UNL     1      13.613   2.914  92.849  1.00  0.00     0.147 N 
HETATM   32  C   UNL     1      14.419   1.717  93.125  1.00  0.00     0.283 C 
HETATM   33  C   UNL     1      15.523   2.057  94.124  1.00  0.00     0.178 C 
HETATM   34  O   UNL     1      16.347   3.107  93.616  1.00  0.00    -0.350 OA
HETATM   35  C   UNL     1      15.576   4.285  93.374  1.00  0.00     0.178 C 
HETATM   36  C   UNL     1      14.474   3.999  92.359  1.00  0.00     0.283 C 
ENDBRANCH  30  31
ENDBRANCH  27  30
ENDBRANCH  23  24
ENDBRANCH   4  22
TORSDOF 10
ENDMDL
