MODEL 1
REMARK VINA RESULT:      -6.0      0.000      0.000
REMARK  12 active torsions:
REMARK  status: ('A' for Active; 'I' for Inactive)
REMARK    1  A    between atoms: O_2  and  C_16 
REMARK    2  A    between atoms: N_5  and  C_9 
REMARK    3  A    between atoms: N_6  and  C_13 
REMARK       I    between atoms: N_6  and  C_22 
REMARK    4  A    between atoms: C_9  and  C_12 
REMARK    5  A    between atoms: C_13  and  C_16 
REMARK    6  A    between atoms: C_13  and  C_21 
REMARK    7  A    between atoms: C_19  and  C_24 
REMARK    8  A    between atoms: C_21  and  C_33 
REMARK    9  A    between atoms: C_22  and  C_23 
REMARK   10  A    between atoms: C_27  and  C_30 
REMARK   11  A    between atoms: C_33  and  C_34 
REMARK   12  A    between atoms: C_34  and  C_35 
ROOT
HETATM    1  O   UNL     1      16.610   3.201  93.990  1.00  0.00    -0.350 OA
HETATM    2  N   UNL     1      14.123   3.025  92.617  1.00  0.00     0.147 N 
HETATM    3  C   UNL     1      14.949   1.836  92.864  1.00  0.00     0.283 C 
HETATM    4  C   UNL     1      14.976   4.218  92.514  1.00  0.00     0.283 C 
HETATM    5  C   UNL     1      15.787   2.041  94.124  1.00  0.00     0.178 C 
HETATM    6  C   UNL     1      15.813   4.367  93.780  1.00  0.00     0.178 C 
ENDROOT
BRANCH   2   7
HETATM    7  C   UNL     1      13.319   2.855  91.408  1.00  0.00     0.277 C 
BRANCH   7   8
HETATM    8  C   UNL     1      12.123   3.745  91.391  1.00  0.00     0.011 A 
HETATM    9  C   UNL     1      11.655   4.260  90.182  1.00  0.00    -0.002 A 
HETATM   10  C   UNL     1      10.537   5.094  90.166  1.00  0.00     0.008 A 
HETATM   11  C   UNL     1       9.887   5.410  91.358  1.00  0.00     0.042 A 
HETATM   12  C   UNL     1      10.353   4.896  92.566  1.00  0.00     0.008 A 
HETATM   13  C   UNL     1      11.471   4.063  92.583  1.00  0.00    -0.002 A 
BRANCH  11  14
HETATM   14  C   UNL     1       8.739   6.264  91.341  1.00  0.00    -0.059 C 
HETATM   15  C   UNL     1       7.774   6.982  91.327  1.00  0.00    -0.059 C 
BRANCH  15  16
HETATM   16  C   UNL     1       6.628   7.836  91.309  1.00  0.00     0.042 A 
HETATM   17  C   UNL     1       5.545   7.531  90.483  1.00  0.00     0.008 A 
HETATM   18  C   UNL     1       4.426   8.363  90.468  1.00  0.00     0.005 A 
HETATM   19  C   UNL     1       4.413   9.478  91.279  1.00  0.00     0.056 A 
HETATM   20  C   UNL     1       5.470   9.801  92.104  1.00  0.00     0.005 A 
HETATM   21  C   UNL     1       6.590   8.970  92.120  1.00  0.00     0.008 A 
BRANCH  19  22
HETATM   22  C   UNL     1       3.221  10.365  91.261  1.00  0.00     0.254 C 
HETATM   23  O   UNL     1       2.110   9.874  91.073  1.00  0.00    -0.268 OA
HETATM   24  N   UNL     1       3.462  11.713  91.489  1.00  0.00    -0.335 N 
HETATM   25  HN  UNL     1       4.404  12.043  91.663  1.00  0.00     0.164 HD
BRANCH  24  26
HETATM   26  C   UNL     1       2.407  12.694  91.527  1.00  0.00     0.166 C 
BRANCH  26  27
HETATM   27  C   UNL     1       2.255  13.349  92.906  1.00  0.00     0.138 C 
HETATM   28  C   UNL     1       3.596  13.584  93.592  1.00  0.00     0.034 C 
BRANCH  27  29
HETATM   29  O   UNL     1       1.579  14.599  92.768  1.00  0.00    -0.383 OA
HETATM   30  H   UNL     1       0.653  14.420  92.534  1.00  0.00     0.210 HD
ENDBRANCH  27  29
ENDBRANCH  26  27
BRANCH  26  31
HETATM   31  C   UNL     1       2.698  13.732  90.449  1.00  0.00     0.181 C 
HETATM   32  O   UNL     1       2.059  14.777  90.335  1.00  0.00    -0.294 OA
BRANCH  31  33
HETATM   33  C   UNL     1       4.263  14.154  90.426  1.00  0.00     0.138 C 
BRANCH  33  34
HETATM   34  C   UNL     1       4.543  14.090  89.043  1.00  0.00     0.208 C 
HETATM   35  O   UNL     1       4.954  15.108  88.535  1.00  0.00    -0.289 OA
BRANCH  34  36
HETATM   36  C   UNL     1       4.707  13.009  88.220  1.00  0.00     0.194 C 
HETATM   37  O   UNL     1       4.798  11.646  88.525  1.00  0.00    -0.185 OA
ENDBRANCH  34  36
ENDBRANCH  33  34
ENDBRANCH  31  33
ENDBRANCH  26  31
ENDBRANCH  24  26
ENDBRANCH  19  22
ENDBRANCH  15  16
ENDBRANCH  11  14
ENDBRANCH   7   8
ENDBRANCH   2   7
TORSDOF 12
ENDMDL
