MODEL 1
REMARK VINA RESULT:      -6.6      0.000      0.000
REMARK  12 active torsions:
REMARK  status: ('A' for Active; 'I' for Inactive)
REMARK    1  A    between atoms: O_2  and  C_16 
REMARK    2  A    between atoms: N_5  and  C_9 
REMARK    3  A    between atoms: N_6  and  C_13 
REMARK       I    between atoms: N_6  and  C_22 
REMARK    4  A    between atoms: C_9  and  C_12 
REMARK    5  A    between atoms: C_13  and  C_16 
REMARK    6  A    between atoms: C_13  and  C_21 
REMARK    7  A    between atoms: C_19  and  C_24 
REMARK    8  A    between atoms: C_21  and  C_33 
REMARK    9  A    between atoms: C_22  and  C_23 
REMARK   10  A    between atoms: C_27  and  C_30 
REMARK   11  A    between atoms: C_33  and  C_34 
REMARK   12  A    between atoms: C_34  and  C_35 
ROOT
HETATM    1  O   UNL     1      17.309   4.733  93.753  1.00  0.00    -0.350 OA
HETATM    2  N   UNL     1      15.299   2.721  93.641  1.00  0.00     0.147 N 
HETATM    3  C   UNL     1      16.698   2.429  93.297  1.00  0.00     0.283 C 
HETATM    4  C   UNL     1      14.994   4.129  93.354  1.00  0.00     0.283 C 
HETATM    5  C   UNL     1      17.625   3.374  94.059  1.00  0.00     0.178 C 
HETATM    6  C   UNL     1      15.960   5.033  94.113  1.00  0.00     0.178 C 
ENDROOT
BRANCH   2   7
HETATM    7  C   UNL     1      14.392   1.834  92.914  1.00  0.00     0.277 C 
BRANCH   7   8
HETATM    8  C   UNL     1      13.273   2.575  92.266  1.00  0.00     0.011 A 
HETATM    9  C   UNL     1      11.995   2.534  92.825  1.00  0.00    -0.002 A 
HETATM   10  C   UNL     1      10.946   3.225  92.218  1.00  0.00     0.008 A 
HETATM   11  C   UNL     1      11.176   3.957  91.053  1.00  0.00     0.042 A 
HETATM   12  C   UNL     1      12.451   3.998  90.494  1.00  0.00     0.008 A 
HETATM   13  C   UNL     1      13.500   3.307  91.100  1.00  0.00    -0.002 A 
BRANCH  11  14
HETATM   14  C   UNL     1      10.100   4.667  90.432  1.00  0.00    -0.059 C 
HETATM   15  C   UNL     1       9.197   5.264  89.910  1.00  0.00    -0.059 C 
BRANCH  15  16
HETATM   16  C   UNL     1       8.123   5.974  89.289  1.00  0.00     0.042 A 
HETATM   17  C   UNL     1       8.307   6.557  88.034  1.00  0.00     0.008 A 
HETATM   18  C   UNL     1       7.258   7.247  87.427  1.00  0.00     0.005 A 
HETATM   19  C   UNL     1       6.049   7.338  88.086  1.00  0.00     0.056 A 
HETATM   20  C   UNL     1       5.843   6.771  89.326  1.00  0.00     0.005 A 
HETATM   21  C   UNL     1       6.891   6.081  89.935  1.00  0.00     0.008 A 
BRANCH  19  22
HETATM   22  C   UNL     1       4.933   8.075  87.439  1.00  0.00     0.254 C 
HETATM   23  O   UNL     1       4.624   7.801  86.282  1.00  0.00    -0.268 OA
HETATM   24  N   UNL     1       4.295   9.024  88.226  1.00  0.00    -0.335 N 
HETATM   25  HN  UNL     1       4.589   9.179  89.183  1.00  0.00     0.164 HD
BRANCH  24  26
HETATM   26  C   UNL     1       3.180   9.803  87.750  1.00  0.00     0.166 C 
BRANCH  26  27
HETATM   27  C   UNL     1       1.825   9.220  88.172  1.00  0.00     0.138 C 
HETATM   28  C   UNL     1       1.383   8.066  87.279  1.00  0.00     0.034 C 
BRANCH  27  29
HETATM   29  O   UNL     1       1.903   8.759  89.520  1.00  0.00    -0.383 OA
HETATM   30  H   UNL     1       2.612   9.249  89.970  1.00  0.00     0.210 HD
ENDBRANCH  27  29
ENDBRANCH  26  27
BRANCH  26  31
HETATM   31  C   UNL     1       3.354  11.228  88.264  1.00  0.00     0.181 C 
HETATM   32  O   UNL     1       2.491  11.816  88.914  1.00  0.00    -0.294 OA
BRANCH  31  33
HETATM   33  C   UNL     1       4.739  11.407  89.088  1.00  0.00     0.138 C 
BRANCH  33  34
HETATM   34  C   UNL     1       5.028  12.767  88.844  1.00  0.00     0.208 C 
HETATM   35  O   UNL     1       5.334  13.052  87.709  1.00  0.00    -0.289 OA
BRANCH  34  36
HETATM   36  C   UNL     1       4.754  13.880  89.591  1.00  0.00     0.194 C 
HETATM   37  O   UNL     1       4.861  15.237  89.265  1.00  0.00    -0.185 OA
ENDBRANCH  34  36
ENDBRANCH  33  34
ENDBRANCH  31  33
ENDBRANCH  26  31
ENDBRANCH  24  26
ENDBRANCH  19  22
ENDBRANCH  15  16
ENDBRANCH  11  14
ENDBRANCH   7   8
ENDBRANCH   2   7
TORSDOF 12
ENDMDL
