MODEL 1
REMARK VINA RESULT:      -7.0      0.000      0.000
REMARK  10 active torsions:
REMARK  status: ('A' for Active; 'I' for Inactive)
REMARK    1  A    between atoms: O_2  and  C_16 
REMARK    2  A    between atoms: N_5  and  C_9 
REMARK    3  A    between atoms: N_6  and  C_13 
REMARK       I    between atoms: N_6  and  C_22 
REMARK    4  A    between atoms: C_9  and  C_12 
REMARK    5  A    between atoms: C_13  and  C_16 
REMARK    6  A    between atoms: C_13  and  C_21 
REMARK    7  A    between atoms: C_19  and  C_24 
REMARK    8  A    between atoms: C_22  and  C_23 
REMARK    9  A    between atoms: C_27  and  C_30 
REMARK   10  A    between atoms: N_33  and  S_34 
ROOT
HETATM    1  C   UNL     1       5.627  10.895  89.470  1.00  0.00     0.056 A 
HETATM    2  C   UNL     1       6.986  11.129  89.469  1.00  0.00     0.005 A 
HETATM    3  C   UNL     1       5.093   9.655  89.754  1.00  0.00     0.005 A 
HETATM    4  C   UNL     1       7.336   8.812  90.056  1.00  0.00     0.042 A 
HETATM    5  C   UNL     1       7.852  10.075  89.765  1.00  0.00     0.008 A 
HETATM    6  C   UNL     1       5.958   8.601  90.050  1.00  0.00     0.008 A 
ENDROOT
BRANCH   1   7
HETATM    7  C   UNL     1       4.706  12.018  89.156  1.00  0.00     0.254 C 
HETATM    8  O   UNL     1       4.540  12.348  87.985  1.00  0.00    -0.268 OA
HETATM    9  N   UNL     1       4.070  12.604  90.242  1.00  0.00    -0.337 N 
HETATM   10  HN  UNL     1       4.237  12.260  91.181  1.00  0.00     0.164 HD
BRANCH   9  11
HETATM   11  C   UNL     1       3.130  13.686  90.099  1.00  0.00     0.172 C 
BRANCH  11  12
HETATM   12  C   UNL     1       1.922  13.551  91.034  1.00  0.00     0.136 C 
HETATM   13  C   UNL     1       2.076  12.403  92.025  1.00  0.00     0.034 C 
BRANCH  12  14
HETATM   14  O   UNL     1       1.741  14.767  91.759  1.00  0.00    -0.383 OA
HETATM   15  H   UNL     1       1.118  14.599  92.486  1.00  0.00     0.210 HD
ENDBRANCH  12  14
ENDBRANCH  11  12
BRANCH  11  16
HETATM   16  C   UNL     1       3.880  14.990  90.347  1.00  0.00     0.398 A 
HETATM   17  O   UNL     1       4.935  15.274  89.782  1.00  0.00    -0.136 OA
HETATM   18  N   UNL     1       5.021  15.611  91.262  1.00  0.00     0.142 N 
HETATM   19  HN  UNL     1       5.910  15.924  90.992  1.00  0.00     0.338 HD
BRANCH  18  20
HETATM   20  S   UNL     1       4.468  15.321  92.504  1.00  0.00     0.076 SA
HETATM   21  H   UNL     1       3.310  15.556  92.638  1.00  0.00     0.136 HD
ENDBRANCH  18  20
ENDBRANCH  11  16
ENDBRANCH   9  11
ENDBRANCH   1   7
BRANCH   4  22
HETATM   22  C   UNL     1       8.223   7.731  90.357  1.00  0.00    -0.059 C 
HETATM   23  C   UNL     1       8.970   6.823  90.609  1.00  0.00    -0.059 C 
BRANCH  23  24
HETATM   24  C   UNL     1       9.858   5.743  90.910  1.00  0.00     0.042 A 
HETATM   25  C   UNL     1      10.119   5.405  92.237  1.00  0.00     0.008 A 
HETATM   26  C   UNL     1      10.986   4.353  92.531  1.00  0.00    -0.002 A 
HETATM   27  C   UNL     1      11.591   3.638  91.497  1.00  0.00     0.011 A 
HETATM   28  C   UNL     1      11.328   3.977  90.169  1.00  0.00    -0.002 A 
HETATM   29  C   UNL     1      10.461   5.029  89.876  1.00  0.00     0.008 A 
BRANCH  27  30
HETATM   30  C   UNL     1      12.516   2.512  91.812  1.00  0.00     0.277 C 
BRANCH  30  31
HETATM   31  N   UNL     1      13.535   2.886  92.791  1.00  0.00     0.147 N 
HETATM   32  C   UNL     1      14.412   1.746  93.090  1.00  0.00     0.283 C 
HETATM   33  C   UNL     1      15.473   2.163  94.106  1.00  0.00     0.178 C 
HETATM   34  O   UNL     1      16.237   3.261  93.604  1.00  0.00    -0.350 OA
HETATM   35  C   UNL     1      15.395   4.385  93.339  1.00  0.00     0.178 C 
HETATM   36  C   UNL     1      14.332   4.022  92.307  1.00  0.00     0.283 C 
ENDBRANCH  30  31
ENDBRANCH  27  30
ENDBRANCH  23  24
ENDBRANCH   4  22
TORSDOF 10
ENDMDL
