MODEL 1
REMARK VINA RESULT:      -6.7      0.000      0.000
REMARK  11 active torsions:
REMARK  status: ('A' for Active; 'I' for Inactive)
REMARK    1  A    between atoms: O_2  and  C_18 
REMARK    2  A    between atoms: O_5  and  P_8 
REMARK    3  A    between atoms: N_6  and  C_11 
REMARK    4  A    between atoms: N_7  and  C_15 
REMARK       I    between atoms: N_7  and  C_24 
REMARK    5  A    between atoms: P_8  and  C_23 
REMARK    6  A    between atoms: C_11  and  C_14 
REMARK    7  A    between atoms: C_15  and  C_18 
REMARK    8  A    between atoms: C_15  and  C_23 
REMARK    9  A    between atoms: C_21  and  C_26 
REMARK   10  A    between atoms: C_24  and  C_25 
REMARK   11  A    between atoms: C_29  and  C_32 
ROOT
HETATM    1  O   UNL     1      16.499   4.304  94.124  1.00  0.00     0.000 OA
HETATM    2  N   UNL     1      14.756   2.714  92.532  1.00  0.00     0.000 N 
HETATM    3  C   UNL     1      14.672   4.181  92.532  1.00  0.00     0.000 C 
HETATM    4  C   UNL     1      15.261   2.239  93.827  1.00  0.00     0.000 C 
HETATM    5  C   UNL     1      16.039   4.777  92.857  1.00  0.00     0.000 C 
HETATM    6  C   UNL     1      16.613   2.880  94.122  1.00  0.00     0.000 C 
ENDROOT
BRANCH   2   7
HETATM    7  C   UNL     1      13.453   2.121  92.233  1.00  0.00     0.000 C 
BRANCH   7   8
HETATM    8  C   UNL     1      12.411   3.150  91.955  1.00  0.00     0.000 A 
HETATM    9  C   UNL     1      11.565   3.580  92.978  1.00  0.00     0.000 A 
HETATM   10  C   UNL     1      10.589   4.541  92.718  1.00  0.00     0.000 A 
HETATM   11  C   UNL     1      10.460   5.073  91.436  1.00  0.00     0.000 A 
HETATM   12  C   UNL     1      11.304   4.645  90.413  1.00  0.00     0.000 A 
HETATM   13  C   UNL     1      12.280   3.683  90.673  1.00  0.00     0.000 A 
BRANCH  11  14
HETATM   14  C   UNL     1       9.459   6.061  91.170  1.00  0.00     0.000 C 
HETATM   15  C   UNL     1       8.619   6.891  90.946  1.00  0.00     0.000 C 
BRANCH  15  16
HETATM   16  C   UNL     1       7.619   7.878  90.679  1.00  0.00     0.000 A 
HETATM   17  C   UNL     1       7.870   8.892  89.754  1.00  0.00     0.000 A 
HETATM   18  C   UNL     1       6.894   9.852  89.492  1.00  0.00     0.000 A 
HETATM   19  C   UNL     1       5.689   9.777  90.159  1.00  0.00     0.000 A 
HETATM   20  C   UNL     1       5.416   8.785  91.077  1.00  0.00     0.000 A 
HETATM   21  C   UNL     1       6.392   7.824  91.340  1.00  0.00     0.000 A 
BRANCH  19  22
HETATM   22  C   UNL     1       4.650  10.802  89.881  1.00  0.00     0.000 C 
HETATM   23  O   UNL     1       3.521  10.440  89.557  1.00  0.00     0.000 OA
HETATM   24  N   UNL     1       5.042  12.124  90.037  1.00  0.00     0.000 N 
HETATM   25  HN  UNL     1       5.986  12.348  90.332  1.00  0.00     0.000 HD
BRANCH  24  26
HETATM   26  C   UNL     1       4.143  13.231  89.828  1.00  0.00     0.000 C 
BRANCH  26  27
HETATM   27  C   UNL     1       3.475  13.705  91.125  1.00  0.00     0.000 C 
HETATM   28  C   UNL     1       2.287  12.836  91.522  1.00  0.00     0.000 C 
BRANCH  27  29
HETATM   29  O   UNL     1       4.430  13.698  92.185  1.00  0.00     0.000 OA
HETATM   30  H   UNL     1       5.320  13.678  91.793  1.00  0.00     0.000 HD
ENDBRANCH  27  29
ENDBRANCH  26  27
BRANCH  26  31
HETATM   31  C   UNL     1       4.933  14.355  89.167  1.00  0.00     0.000 C 
HETATM   32  O   UNL     1       5.168  15.426  89.725  1.00  0.00     0.000 OA
BRANCH  31  33
HETATM   33  P   UNL     1       5.308  14.041  87.883  1.00  0.00     0.000 P 
HETATM   34  H   UNL     1       5.161  15.176  87.111  1.00  0.00     0.000 HD
BRANCH  33  35
HETATM   35  O   UNL     1       4.584  13.008  87.272  1.00  0.00     0.000 OA
HETATM   36  H   UNL     1       5.105  12.238  87.558  1.00  0.00     0.000 HD
ENDBRANCH  33  35
ENDBRANCH  31  33
ENDBRANCH  26  31
ENDBRANCH  24  26
ENDBRANCH  19  22
ENDBRANCH  15  16
ENDBRANCH  11  14
ENDBRANCH   7   8
ENDBRANCH   2   7
TORSDOF 11
ENDMDL
