MODEL 1
REMARK VINA RESULT:      -6.5      0.000      0.000
REMARK  12 active torsions:
REMARK  status: ('A' for Active; 'I' for Inactive)
REMARK    1  A    between atoms: O_2  and  C_16 
REMARK    2  A    between atoms: N_5  and  C_9 
REMARK    3  A    between atoms: N_6  and  C_13 
REMARK       I    between atoms: N_6  and  C_22 
REMARK    4  A    between atoms: C_9  and  C_12 
REMARK    5  A    between atoms: C_13  and  C_16 
REMARK    6  A    between atoms: C_13  and  C_21 
REMARK    7  A    between atoms: C_19  and  C_24 
REMARK    8  A    between atoms: C_21  and  C_33 
REMARK    9  A    between atoms: C_22  and  C_23 
REMARK   10  A    between atoms: C_27  and  C_30 
REMARK   11  A    between atoms: C_33  and  C_34 
REMARK   12  A    between atoms: C_34  and  C_35 
ROOT
HETATM    1  O   UNL     1      16.343   4.273  94.107  1.00  0.00    -0.350 OA
HETATM    2  N   UNL     1      14.542   2.743  92.521  1.00  0.00     0.147 N 
HETATM    3  C   UNL     1      14.524   4.212  92.502  1.00  0.00     0.283 C 
HETATM    4  C   UNL     1      15.016   2.262  93.826  1.00  0.00     0.283 C 
HETATM    5  C   UNL     1      15.914   4.750  92.830  1.00  0.00     0.178 C 
HETATM    6  C   UNL     1      16.393   2.846  94.124  1.00  0.00     0.178 C 
ENDROOT
BRANCH   2   7
HETATM    7  C   UNL     1      13.216   2.205  92.219  1.00  0.00     0.277 C 
BRANCH   7   8
HETATM    8  C   UNL     1      12.163   3.260  92.214  1.00  0.00     0.011 A 
HETATM    9  C   UNL     1      11.803   3.891  93.406  1.00  0.00    -0.002 A 
HETATM   10  C   UNL     1      10.816   4.876  93.403  1.00  0.00     0.008 A 
HETATM   11  C   UNL     1      10.191   5.232  92.208  1.00  0.00     0.042 A 
HETATM   12  C   UNL     1      10.550   4.604  91.018  1.00  0.00     0.008 A 
HETATM   13  C   UNL     1      11.536   3.617  91.020  1.00  0.00    -0.002 A 
BRANCH  11  14
HETATM   14  C   UNL     1       9.181   6.245  92.205  1.00  0.00    -0.059 C 
HETATM   15  C   UNL     1       8.331   7.095  92.203  1.00  0.00    -0.059 C 
BRANCH  15  16
HETATM   16  C   UNL     1       7.320   8.106  92.200  1.00  0.00     0.042 A 
HETATM   17  C   UNL     1       5.996   7.767  91.921  1.00  0.00     0.008 A 
HETATM   18  C   UNL     1       5.010   8.754  91.922  1.00  0.00     0.005 A 
HETATM   19  C   UNL     1       5.369  10.055  92.201  1.00  0.00     0.056 A 
HETATM   20  C   UNL     1       6.671  10.416  92.480  1.00  0.00     0.005 A 
HETATM   21  C   UNL     1       7.658   9.431  92.479  1.00  0.00     0.008 A 
BRANCH  19  22
HETATM   22  C   UNL     1       4.318  11.106  92.200  1.00  0.00     0.254 C 
HETATM   23  O   UNL     1       3.244  10.880  92.750  1.00  0.00    -0.268 OA
HETATM   24  N   UNL     1       4.655  12.301  91.579  1.00  0.00    -0.335 N 
HETATM   25  HN  UNL     1       5.572  12.425  91.167  1.00  0.00     0.164 HD
BRANCH  24  26
HETATM   26  C   UNL     1       3.753  13.423  91.516  1.00  0.00     0.166 C 
BRANCH  26  27
HETATM   27  C   UNL     1       3.920  14.386  92.699  1.00  0.00     0.138 C 
HETATM   28  C   UNL     1       2.585  14.911  93.217  1.00  0.00     0.034 C 
BRANCH  27  29
HETATM   29  O   UNL     1       4.600  13.721  93.763  1.00  0.00    -0.383 OA
HETATM   30  H   UNL     1       3.959  13.545  94.472  1.00  0.00     0.210 HD
ENDBRANCH  27  29
ENDBRANCH  26  27
BRANCH  26  31
HETATM   31  C   UNL     1       3.984  14.133  90.187  1.00  0.00     0.181 C 
HETATM   32  O   UNL     1       3.979  15.357  90.071  1.00  0.00    -0.294 OA
BRANCH  31  33
HETATM   33  C   UNL     1       5.335  13.616  89.455  1.00  0.00     0.138 C 
BRANCH  33  34
HETATM   34  C   UNL     1       4.805  13.035  88.281  1.00  0.00     0.208 C 
HETATM   35  O   UNL     1       5.149  13.538  87.236  1.00  0.00    -0.289 OA
BRANCH  34  36
HETATM   36  C   UNL     1       4.194  11.826  88.087  1.00  0.00     0.194 C 
HETATM   37  O   UNL     1       4.578  10.544  88.495  1.00  0.00    -0.185 OA
ENDBRANCH  34  36
ENDBRANCH  33  34
ENDBRANCH  31  33
ENDBRANCH  26  31
ENDBRANCH  24  26
ENDBRANCH  19  22
ENDBRANCH  15  16
ENDBRANCH  11  14
ENDBRANCH   7   8
ENDBRANCH   2   7
TORSDOF 12
ENDMDL
MODEL 2
REMARK VINA RESULT:      -6.4      1.204      1.426
REMARK  12 active torsions:
REMARK  status: ('A' for Active; 'I' for Inactive)
REMARK    1  A    between atoms: O_2  and  C_16 
REMARK    2  A    between atoms: N_5  and  C_9 
REMARK    3  A    between atoms: N_6  and  C_13 
REMARK       I    between atoms: N_6  and  C_22 
REMARK    4  A    between atoms: C_9  and  C_12 
REMARK    5  A    between atoms: C_13  and  C_16 
REMARK    6  A    between atoms: C_13  and  C_21 
REMARK    7  A    between atoms: C_19  and  C_24 
REMARK    8  A    between atoms: C_21  and  C_33 
REMARK    9  A    between atoms: C_22  and  C_23 
REMARK   10  A    between atoms: C_27  and  C_30 
REMARK   11  A    between atoms: C_33  and  C_34 
REMARK   12  A    between atoms: C_34  and  C_35 
ROOT
HETATM    1  O   UNL     1      15.768   4.539  93.767  1.00  0.00    -0.350 OA
HETATM    2  N   UNL     1      14.154   2.653  92.375  1.00  0.00     0.147 N 
HETATM    3  C   UNL     1      14.137   4.081  92.030  1.00  0.00     0.283 C 
HETATM    4  C   UNL     1      14.482   2.483  93.797  1.00  0.00     0.283 C 
HETATM    5  C   UNL     1      15.482   4.714  92.378  1.00  0.00     0.178 C 
HETATM    6  C   UNL     1      15.817   3.152  94.105  1.00  0.00     0.178 C 
ENDROOT
BRANCH   2   7
HETATM    7  C   UNL     1      12.870   2.029  92.059  1.00  0.00     0.277 C 
BRANCH   7   8
HETATM    8  C   UNL     1      11.775   3.028  91.906  1.00  0.00     0.011 A 
HETATM    9  C   UNL     1      11.359   3.780  93.005  1.00  0.00    -0.002 A 
HETATM   10  C   UNL     1      10.333   4.714  92.864  1.00  0.00     0.008 A 
HETATM   11  C   UNL     1       9.725   4.897  91.622  1.00  0.00     0.042 A 
HETATM   12  C   UNL     1      10.140   4.147  90.523  1.00  0.00     0.008 A 
HETATM   13  C   UNL     1      11.165   3.213  90.665  1.00  0.00    -0.002 A 
BRANCH  11  14
HETATM   14  C   UNL     1       8.674   5.857  91.477  1.00  0.00    -0.059 C 
HETATM   15  C   UNL     1       7.790   6.663  91.354  1.00  0.00    -0.059 C 
BRANCH  15  16
HETATM   16  C   UNL     1       6.739   7.621  91.209  1.00  0.00     0.042 A 
HETATM   17  C   UNL     1       5.595   7.296  90.479  1.00  0.00     0.008 A 
HETATM   18  C   UNL     1       4.569   8.230  90.340  1.00  0.00     0.005 A 
HETATM   19  C   UNL     1       4.708   9.467  90.934  1.00  0.00     0.056 A 
HETATM   20  C   UNL     1       5.829   9.813  91.660  1.00  0.00     0.005 A 
HETATM   21  C   UNL     1       6.856   8.879  91.800  1.00  0.00     0.008 A 
BRANCH  19  22
HETATM   22  C   UNL     1       3.615  10.462  90.784  1.00  0.00     0.254 C 
HETATM   23  O   UNL     1       2.762  10.290  89.917  1.00  0.00    -0.268 OA
HETATM   24  N   UNL     1       3.634  11.525  91.677  1.00  0.00    -0.335 N 
HETATM   25  HN  UNL     1       4.358  11.588  92.383  1.00  0.00     0.164 HD
BRANCH  24  26
HETATM   26  C   UNL     1       2.630  12.558  91.674  1.00  0.00     0.166 C 
BRANCH  26  27
HETATM   27  C   UNL     1       2.513  13.276  93.024  1.00  0.00     0.138 C 
HETATM   28  C   UNL     1       1.189  12.989  93.725  1.00  0.00     0.034 C 
BRANCH  27  29
HETATM   29  O   UNL     1       3.585  12.870  93.875  1.00  0.00    -0.383 OA
HETATM   30  H   UNL     1       4.326  12.583  93.315  1.00  0.00     0.210 HD
ENDBRANCH  27  29
ENDBRANCH  26  27
BRANCH  26  31
HETATM   31  C   UNL     1       2.970  13.536  90.554  1.00  0.00     0.181 C 
HETATM   32  O   UNL     1       2.241  14.475  90.240  1.00  0.00    -0.294 OA
BRANCH  31  33
HETATM   33  C   UNL     1       4.458  14.156  90.728  1.00  0.00     0.138 C 
BRANCH  33  34
HETATM   34  C   UNL     1       4.859  14.286  89.380  1.00  0.00     0.208 C 
HETATM   35  O   UNL     1       5.045  15.414  88.986  1.00  0.00    -0.289 OA
BRANCH  34  36
HETATM   36  C   UNL     1       5.355  13.355  88.508  1.00  0.00     0.194 C 
HETATM   37  O   UNL     1       4.701  12.341  87.800  1.00  0.00    -0.185 OA
ENDBRANCH  34  36
ENDBRANCH  33  34
ENDBRANCH  31  33
ENDBRANCH  26  31
ENDBRANCH  24  26
ENDBRANCH  19  22
ENDBRANCH  15  16
ENDBRANCH  11  14
ENDBRANCH   7   8
ENDBRANCH   2   7
TORSDOF 12
ENDMDL
MODEL 3
REMARK VINA RESULT:      -5.1      2.981     12.298
REMARK  12 active torsions:
REMARK  status: ('A' for Active; 'I' for Inactive)
REMARK    1  A    between atoms: O_2  and  C_16 
REMARK    2  A    between atoms: N_5  and  C_9 
REMARK    3  A    between atoms: N_6  and  C_13 
REMARK       I    between atoms: N_6  and  C_22 
REMARK    4  A    between atoms: C_9  and  C_12 
REMARK    5  A    between atoms: C_13  and  C_16 
REMARK    6  A    between atoms: C_13  and  C_21 
REMARK    7  A    between atoms: C_19  and  C_24 
REMARK    8  A    between atoms: C_21  and  C_33 
REMARK    9  A    between atoms: C_22  and  C_23 
REMARK   10  A    between atoms: C_27  and  C_30 
REMARK   11  A    between atoms: C_33  and  C_34 
REMARK   12  A    between atoms: C_34  and  C_35 
ROOT
HETATM    1  O   UNL     1       3.115  14.837  93.849  1.00  0.00    -0.350 OA
HETATM    2  N   UNL     1       2.824  14.865  91.017  1.00  0.00     0.147 N 
HETATM    3  C   UNL     1       1.881  14.139  91.879  1.00  0.00     0.283 C 
HETATM    4  C   UNL     1       4.146  14.923  91.655  1.00  0.00     0.283 C 
HETATM    5  C   UNL     1       1.817  14.804  93.252  1.00  0.00     0.178 C 
HETATM    6  C   UNL     1       4.030  15.569  93.032  1.00  0.00     0.178 C 
ENDROOT
BRANCH   2   7
HETATM    7  C   UNL     1       2.909  14.239  89.699  1.00  0.00     0.277 C 
BRANCH   7   8
HETATM    8  C   UNL     1       3.880  13.108  89.670  1.00  0.00     0.011 A 
HETATM    9  C   UNL     1       3.479  11.835  90.078  1.00  0.00    -0.002 A 
HETATM   10  C   UNL     1       4.388  10.777  90.052  1.00  0.00     0.008 A 
HETATM   11  C   UNL     1       5.695  10.992  89.617  1.00  0.00     0.042 A 
HETATM   12  C   UNL     1       6.096  12.262  89.210  1.00  0.00     0.008 A 
HETATM   13  C   UNL     1       5.188  13.321  89.235  1.00  0.00    -0.002 A 
BRANCH  11  14
HETATM   14  C   UNL     1       6.626   9.906  89.589  1.00  0.00    -0.059 C 
HETATM   15  C   UNL     1       7.409   8.993  89.565  1.00  0.00    -0.059 C 
BRANCH  15  16
HETATM   16  C   UNL     1       8.340   7.909  89.537  1.00  0.00     0.042 A 
HETATM   17  C   UNL     1       8.822   7.374  90.732  1.00  0.00     0.008 A 
HETATM   18  C   UNL     1       9.728   6.314  90.704  1.00  0.00     0.005 A 
HETATM   19  C   UNL     1      10.131   5.813  89.484  1.00  0.00     0.056 A 
HETATM   20  C   UNL     1       9.669   6.324  88.290  1.00  0.00     0.005 A 
HETATM   21  C   UNL     1       8.763   7.384  88.316  1.00  0.00     0.008 A 
BRANCH  19  22
HETATM   22  C   UNL     1      11.098   4.685  89.455  1.00  0.00     0.254 C 
HETATM   23  O   UNL     1      11.276   4.074  88.404  1.00  0.00    -0.268 OA
HETATM   24  N   UNL     1      11.759   4.420  90.647  1.00  0.00    -0.335 N 
HETATM   25  HN  UNL     1      11.579   4.984  91.469  1.00  0.00     0.164 HD
BRANCH  24  26
HETATM   26  C   UNL     1      12.743   3.375  90.772  1.00  0.00     0.166 C 
BRANCH  26  27
HETATM   27  C   UNL     1      14.142   3.913  91.096  1.00  0.00     0.138 C 
HETATM   28  C   UNL     1      15.247   2.929  90.727  1.00  0.00     0.034 C 
BRANCH  27  29
HETATM   29  O   UNL     1      14.358   5.137  90.394  1.00  0.00    -0.383 OA
HETATM   30  H   UNL     1      13.501   5.584  90.291  1.00  0.00     0.210 HD
ENDBRANCH  27  29
ENDBRANCH  26  27
BRANCH  26  31
HETATM   31  C   UNL     1      12.259   2.406  91.845  1.00  0.00     0.181 C 
HETATM   32  O   UNL     1      12.611   1.228  91.893  1.00  0.00    -0.294 OA
BRANCH  31  33
HETATM   33  C   UNL     1      12.474   3.002  93.337  1.00  0.00     0.138 C 
BRANCH  33  34
HETATM   34  C   UNL     1      11.397   3.912  93.426  1.00  0.00     0.208 C 
HETATM   35  O   UNL     1      10.323   3.503  93.050  1.00  0.00    -0.289 OA
BRANCH  34  36
HETATM   36  C   UNL     1      11.280   5.082  94.124  1.00  0.00     0.194 C 
HETATM   37  O   UNL     1      10.295   6.075  94.066  1.00  0.00    -0.185 OA
ENDBRANCH  34  36
ENDBRANCH  33  34
ENDBRANCH  31  33
ENDBRANCH  26  31
ENDBRANCH  24  26
ENDBRANCH  19  22
ENDBRANCH  15  16
ENDBRANCH  11  14
ENDBRANCH   7   8
ENDBRANCH   2   7
TORSDOF 12
ENDMDL
MODEL 4
REMARK VINA RESULT:      -3.9      1.693      3.227
REMARK  12 active torsions:
REMARK  status: ('A' for Active; 'I' for Inactive)
REMARK    1  A    between atoms: O_2  and  C_16 
REMARK    2  A    between atoms: N_5  and  C_9 
REMARK    3  A    between atoms: N_6  and  C_13 
REMARK       I    between atoms: N_6  and  C_22 
REMARK    4  A    between atoms: C_9  and  C_12 
REMARK    5  A    between atoms: C_13  and  C_16 
REMARK    6  A    between atoms: C_13  and  C_21 
REMARK    7  A    between atoms: C_19  and  C_24 
REMARK    8  A    between atoms: C_21  and  C_33 
REMARK    9  A    between atoms: C_22  and  C_23 
REMARK   10  A    between atoms: C_27  and  C_30 
REMARK   11  A    between atoms: C_33  and  C_34 
REMARK   12  A    between atoms: C_34  and  C_35 
ROOT
HETATM    1  O   UNL     1      16.692   3.501  92.934  1.00  0.00    -0.350 OA
HETATM    2  N   UNL     1      14.395   1.821  92.922  1.00  0.00     0.147 N 
HETATM    3  C   UNL     1      14.840   2.521  91.710  1.00  0.00     0.283 C 
HETATM    4  C   UNL     1      14.782   2.585  94.116  1.00  0.00     0.283 C 
HETATM    5  C   UNL     1      16.348   2.749  91.769  1.00  0.00     0.178 C 
HETATM    6  C   UNL     1      16.290   2.813  94.119  1.00  0.00     0.178 C 
ENDROOT
BRANCH   2   7
HETATM    7  C   UNL     1      12.950   1.601  92.892  1.00  0.00     0.277 C 
BRANCH   7   8
HETATM    8  C   UNL     1      12.199   2.818  92.472  1.00  0.00     0.011 A 
HETATM    9  C   UNL     1      11.966   3.061  91.118  1.00  0.00    -0.002 A 
HETATM   10  C   UNL     1      11.266   4.201  90.724  1.00  0.00     0.008 A 
HETATM   11  C   UNL     1      10.796   5.096  91.685  1.00  0.00     0.042 A 
HETATM   12  C   UNL     1      11.027   4.855  93.037  1.00  0.00     0.008 A 
HETATM   13  C   UNL     1      11.729   3.715  93.432  1.00  0.00    -0.002 A 
BRANCH  11  14
HETATM   14  C   UNL     1      10.075   6.264  91.280  1.00  0.00    -0.059 C 
HETATM   15  C   UNL     1       9.470   7.246  90.941  1.00  0.00    -0.059 C 
BRANCH  15  16
HETATM   16  C   UNL     1       8.750   8.414  90.538  1.00  0.00     0.042 A 
HETATM   17  C   UNL     1       8.979   9.630  91.182  1.00  0.00     0.008 A 
HETATM   18  C   UNL     1       8.279  10.770  90.786  1.00  0.00     0.005 A 
HETATM   19  C   UNL     1       7.368  10.668  89.756  1.00  0.00     0.056 A 
HETATM   20  C   UNL     1       7.124   9.478  89.104  1.00  0.00     0.005 A 
HETATM   21  C   UNL     1       7.823   8.337  89.499  1.00  0.00     0.008 A 
BRANCH  19  22
HETATM   22  C   UNL     1       6.621  11.882  89.336  1.00  0.00     0.254 C 
HETATM   23  O   UNL     1       7.050  12.558  88.405  1.00  0.00    -0.268 OA
HETATM   24  N   UNL     1       5.452  12.148  90.035  1.00  0.00    -0.335 N 
HETATM   25  HN  UNL     1       5.146  11.530  90.777  1.00  0.00     0.164 HD
BRANCH  24  26
HETATM   26  C   UNL     1       4.605  13.274  89.730  1.00  0.00     0.166 C 
BRANCH  26  27
HETATM   27  C   UNL     1       3.310  12.867  89.017  1.00  0.00     0.138 C 
HETATM   28  C   UNL     1       2.812  11.493  89.451  1.00  0.00     0.034 C 
BRANCH  27  29
HETATM   29  O   UNL     1       2.294  13.833  89.284  1.00  0.00    -0.383 OA
HETATM   30  H   UNL     1       2.500  14.639  88.781  1.00  0.00     0.210 HD
ENDBRANCH  27  29
ENDBRANCH  26  27
BRANCH  26  31
HETATM   31  C   UNL     1       4.314  14.005  91.036  1.00  0.00     0.181 C 
HETATM   32  O   UNL     1       3.978  15.187  91.082  1.00  0.00    -0.294 OA
BRANCH  31  33
HETATM   33  C   UNL     1       3.248  13.197  91.953  1.00  0.00     0.138 C 
BRANCH  33  34
HETATM   34  C   UNL     1       4.044  12.871  93.074  1.00  0.00     0.208 C 
HETATM   35  O   UNL     1       3.743  13.409  94.115  1.00  0.00    -0.289 OA
BRANCH  34  36
HETATM   36  C   UNL     1       4.921  11.840  93.270  1.00  0.00     0.194 C 
HETATM   37  O   UNL     1       5.027  10.606  92.617  1.00  0.00    -0.185 OA
ENDBRANCH  34  36
ENDBRANCH  33  34
ENDBRANCH  31  33
ENDBRANCH  26  31
ENDBRANCH  24  26
ENDBRANCH  19  22
ENDBRANCH  15  16
ENDBRANCH  11  14
ENDBRANCH   7   8
ENDBRANCH   2   7
TORSDOF 12
ENDMDL
