MODEL 1
REMARK VINA RESULT:      -7.0      0.000      0.000
REMARK  10 active torsions:
REMARK  status: ('A' for Active; 'I' for Inactive)
REMARK    1  A    between atoms: O_2  and  C_18 
REMARK    2  A    between atoms: O_5  and  N_8 
REMARK    3  A    between atoms: N_6  and  C_11 
REMARK    4  A    between atoms: N_7  and  C_15 
REMARK       I    between atoms: N_7  and  C_24 
REMARK       I    between atoms: N_8  and  C_23 
REMARK    5  A    between atoms: C_11  and  C_14 
REMARK    6  A    between atoms: C_15  and  C_18 
REMARK    7  A    between atoms: C_15  and  C_23 
REMARK    8  A    between atoms: C_21  and  C_26 
REMARK    9  A    between atoms: C_24  and  C_25 
REMARK   10  A    between atoms: C_29  and  C_32 
ROOT
HETATM    1  O   UNK     0      16.793   4.247  94.119  0.00  0.00    -0.388 OA
HETATM    2  N   UNK     0      14.824   2.654  92.820  0.00  0.00     0.096 N 
HETATM    3  C   UNK     0      14.720   4.120  92.864  0.00  0.00     0.299 C 
HETATM    4  C   UNK     0      15.552   2.166  93.998  0.00  0.00     0.299 C 
HETATM    5  C   UNK     0      16.114   4.734  92.960  0.00  0.00     0.198 C 
HETATM    6  C   UNK     0      16.926   2.826  94.068  0.00  0.00     0.198 C 
ENDROOT
BRANCH   2   7
HETATM    7  C   UNK     0      13.498   2.044  92.738  0.00  0.00     0.311 C 
BRANCH   7   8
HETATM    8  C   UNK     0      12.437   3.034  92.398  0.00  0.00    -0.030 A 
HETATM    9  C   UNK     0      11.867   3.817  93.402  0.00  0.00     0.010 A 
HETATM   10  C   UNK     0      10.872   4.742  93.085  0.00  0.00     0.021 A 
HETATM   11  C   UNK     0      10.450   4.885  91.764  0.00  0.00     0.018 A 
HETATM   12  C   UNK     0      11.018   4.103  90.760  0.00  0.00     0.021 A 
HETATM   13  C   UNK     0      12.012   3.178  91.077  0.00  0.00     0.010 A 
BRANCH  11  14
HETATM   14  C   UNK     0       9.431   5.835  91.439  0.00  0.00    -0.061 C 
HETATM   15  C   UNK     0       8.575   6.634  91.165  0.00  0.00    -0.061 C 
BRANCH  15  16
HETATM   16  C   UNK     0       7.558   7.584  90.841  0.00  0.00     0.018 A 
HETATM   17  C   UNK     0       6.214   7.214  90.903  0.00  0.00     0.022 A 
HETATM   18  C   UNK     0       5.221   8.142  90.587  0.00  0.00     0.018 A 
HETATM   19  C   UNK     0       5.594   9.418  90.218  0.00  0.00     0.032 A 
HETATM   20  C   UNK     0       6.915   9.808  90.149  0.00  0.00     0.018 A 
HETATM   21  C   UNK     0       7.908   8.880  90.463  0.00  0.00     0.022 A 
BRANCH  19  22
HETATM   22  C   UNK     0       4.536  10.405  89.881  0.00  0.00     0.252 C 
HETATM   23  O   UNK     0       3.524  10.024  89.298  0.00  0.00    -0.268 OA
HETATM   24  N   UNK     0       4.773  11.712  90.285  0.00  0.00    -0.341 N 
HETATM   25  H   UNK     0       5.622  11.948  90.785  0.00  0.00     0.163 HD
BRANCH  24  26
HETATM   26  C   UNK     0       3.832  12.778  90.052  0.00  0.00     0.207 C 
BRANCH  26  27
HETATM   27  C   UNK     0       3.603  13.649  91.294  0.00  0.00     0.146 C 
HETATM   28  C   UNK     0       2.142  13.671  91.731  0.00  0.00     0.042 C 
BRANCH  27  29
HETATM   29  O   UNK     0       4.401  13.162  92.372  0.00  0.00    -0.393 OA
HETATM   30  H   UNK     0       4.681  13.921  92.911  0.00  0.00     0.210 HD
ENDBRANCH  27  29
ENDBRANCH  26  27
BRANCH  26  31
HETATM   31  C   UNK     0       4.347  13.608  88.881  0.00  0.00     0.266 C 
HETATM   32  O   UNK     0       4.616  14.804  88.975  0.00  0.00    -0.269 OA
HETATM   33  N   UNK     0       4.434  12.873  87.723  0.00  0.00    -0.236 N 
HETATM   34  H   UNK     0       4.138  11.913  87.590  0.00  0.00     0.197 HD
BRANCH  33  35
HETATM   35  O   UNK     0       4.865  13.573  86.588  0.00  0.00    -0.287 OA
HETATM   36  H   UNK     0       5.555  12.970  86.262  0.00  0.00     0.244 HD
ENDBRANCH  33  35
ENDBRANCH  26  31
ENDBRANCH  24  26
ENDBRANCH  19  22
ENDBRANCH  15  16
ENDBRANCH  11  14
ENDBRANCH   7   8
ENDBRANCH   2   7
TORSDOF 10
ENDMDL
MODEL 2
REMARK VINA RESULT:      -6.8      1.324      1.708
REMARK  10 active torsions:
REMARK  status: ('A' for Active; 'I' for Inactive)
REMARK    1  A    between atoms: O_2  and  C_18 
REMARK    2  A    between atoms: O_5  and  N_8 
REMARK    3  A    between atoms: N_6  and  C_11 
REMARK    4  A    between atoms: N_7  and  C_15 
REMARK       I    between atoms: N_7  and  C_24 
REMARK       I    between atoms: N_8  and  C_23 
REMARK    5  A    between atoms: C_11  and  C_14 
REMARK    6  A    between atoms: C_15  and  C_18 
REMARK    7  A    between atoms: C_15  and  C_23 
REMARK    8  A    between atoms: C_21  and  C_26 
REMARK    9  A    between atoms: C_24  and  C_25 
REMARK   10  A    between atoms: C_29  and  C_32 
ROOT
HETATM    1  O   UNK     0      16.776   3.630  93.714  0.00  0.00    -0.388 OA
HETATM    2  N   UNK     0      14.116   2.915  92.996  0.00  0.00     0.096 N 
HETATM    3  C   UNK     0      15.176   1.905  93.118  0.00  0.00     0.299 C 
HETATM    4  C   UNK     0      14.695   4.208  92.608  0.00  0.00     0.299 C 
HETATM    5  C   UNK     0      16.226   2.376  94.122  0.00  0.00     0.198 C 
HETATM    6  C   UNK     0      15.756   4.625  93.623  0.00  0.00     0.198 C 
ENDROOT
BRANCH   2   7
HETATM    7  C   UNK     0      13.104   2.489  92.030  0.00  0.00     0.311 C 
BRANCH   7   8
HETATM    8  C   UNK     0      12.007   3.487  91.880  0.00  0.00    -0.030 A 
HETATM    9  C   UNK     0      11.412   4.044  93.013  0.00  0.00     0.010 A 
HETATM   10  C   UNK     0      10.384   4.975  92.875  0.00  0.00     0.021 A 
HETATM   11  C   UNK     0       9.952   5.352  91.603  0.00  0.00     0.018 A 
HETATM   12  C   UNK     0      10.545   4.797  90.471  0.00  0.00     0.021 A 
HETATM   13  C   UNK     0      11.573   3.865  90.609  0.00  0.00     0.010 A 
BRANCH  11  14
HETATM   14  C   UNK     0       8.898   6.309  91.461  0.00  0.00    -0.061 C 
HETATM   15  C   UNK     0       8.013   7.114  91.341  0.00  0.00    -0.061 C 
BRANCH  15  16
HETATM   16  C   UNK     0       6.961   8.070  91.198  0.00  0.00     0.018 A 
HETATM   17  C   UNK     0       5.631   7.667  91.325  0.00  0.00     0.022 A 
HETATM   18  C   UNK     0       4.604   8.600  91.188  0.00  0.00     0.018 A 
HETATM   19  C   UNK     0       4.928   9.915  90.926  0.00  0.00     0.032 A 
HETATM   20  C   UNK     0       6.234  10.339  90.795  0.00  0.00     0.018 A 
HETATM   21  C   UNK     0       7.261   9.405  90.932  0.00  0.00     0.022 A 
BRANCH  19  22
HETATM   22  C   UNK     0       3.833  10.908  90.778  0.00  0.00     0.252 C 
HETATM   23  O   UNK     0       2.906  10.668  90.009  0.00  0.00    -0.268 OA
HETATM   24  N   UNK     0       3.938  12.050  91.560  0.00  0.00    -0.341 N 
HETATM   25  H   UNK     0       4.721  12.169  92.192  0.00  0.00     0.163 HD
BRANCH  24  26
HETATM   26  C   UNK     0       2.944  13.093  91.546  0.00  0.00     0.207 C 
BRANCH  26  27
HETATM   27  C   UNK     0       2.773  13.768  92.913  0.00  0.00     0.146 C 
HETATM   28  C   UNK     0       3.947  13.500  93.848  0.00  0.00     0.042 C 
BRANCH  27  29
HETATM   29  O   UNK     0       2.635  15.178  92.735  0.00  0.00    -0.393 OA
HETATM   30  H   UNK     0       1.718  15.364  92.471  0.00  0.00     0.210 HD
ENDBRANCH  27  29
ENDBRANCH  26  27
BRANCH  26  31
HETATM   31  C   UNK     0       3.344  14.103  90.475  0.00  0.00     0.266 C 
HETATM   32  O   UNK     0       2.548  14.562  89.658  0.00  0.00    -0.269 OA
HETATM   33  N   UNK     0       4.685  14.398  90.515  0.00  0.00    -0.236 N 
HETATM   34  H   UNK     0       5.382  13.973  91.114  0.00  0.00     0.197 HD
BRANCH  33  35
HETATM   35  O   UNK     0       5.142  15.292  89.536  0.00  0.00    -0.287 OA
HETATM   36  H   UNK     0       4.378  15.299  88.935  0.00  0.00     0.244 HD
ENDBRANCH  33  35
ENDBRANCH  26  31
ENDBRANCH  24  26
ENDBRANCH  19  22
ENDBRANCH  15  16
ENDBRANCH  11  14
ENDBRANCH   7   8
ENDBRANCH   2   7
TORSDOF 10
ENDMDL
MODEL 3
REMARK VINA RESULT:      -6.6      1.530      2.127
REMARK  10 active torsions:
REMARK  status: ('A' for Active; 'I' for Inactive)
REMARK    1  A    between atoms: O_2  and  C_18 
REMARK    2  A    between atoms: O_5  and  N_8 
REMARK    3  A    between atoms: N_6  and  C_11 
REMARK    4  A    between atoms: N_7  and  C_15 
REMARK       I    between atoms: N_7  and  C_24 
REMARK       I    between atoms: N_8  and  C_23 
REMARK    5  A    between atoms: C_11  and  C_14 
REMARK    6  A    between atoms: C_15  and  C_18 
REMARK    7  A    between atoms: C_15  and  C_23 
REMARK    8  A    between atoms: C_21  and  C_26 
REMARK    9  A    between atoms: C_24  and  C_25 
REMARK   10  A    between atoms: C_29  and  C_32 
ROOT
HETATM    1  O   UNK     0      16.592   4.298  94.118  0.00  0.00    -0.388 OA
HETATM    2  N   UNK     0      14.714   2.804  92.588  0.00  0.00     0.096 N 
HETATM    3  C   UNK     0      14.716   4.273  92.579  0.00  0.00     0.299 C 
HETATM    4  C   UNK     0      15.226   2.308  93.872  0.00  0.00     0.299 C 
HETATM    5  C   UNK     0      16.125   4.790  92.861  0.00  0.00     0.198 C 
HETATM    6  C   UNK     0      16.622   2.870  94.124  0.00  0.00     0.198 C 
ENDROOT
BRANCH   2   7
HETATM    7  C   UNK     0      13.371   2.287  92.330  0.00  0.00     0.311 C 
BRANCH   7   8
HETATM    8  C   UNK     0      12.334   3.357  92.366  0.00  0.00    -0.030 A 
HETATM    9  C   UNK     0      11.790   3.840  91.175  0.00  0.00     0.010 A 
HETATM   10  C   UNK     0      10.821   4.843  91.206  0.00  0.00     0.021 A 
HETATM   11  C   UNK     0      10.395   5.361  92.429  0.00  0.00     0.018 A 
HETATM   12  C   UNK     0      10.937   4.880  93.619  0.00  0.00     0.021 A 
HETATM   13  C   UNK     0      11.907   3.877  93.588  0.00  0.00     0.010 A 
BRANCH  11  14
HETATM   14  C   UNK     0       9.400   6.388  92.461  0.00  0.00    -0.061 C 
HETATM   15  C   UNK     0       8.563   7.251  92.489  0.00  0.00    -0.061 C 
BRANCH  15  16
HETATM   16  C   UNK     0       7.568   8.276  92.520  0.00  0.00     0.018 A 
HETATM   17  C   UNK     0       7.947   9.610  92.682  0.00  0.00     0.022 A 
HETATM   18  C   UNK     0       6.976  10.611  92.710  0.00  0.00     0.018 A 
HETATM   19  C   UNK     0       5.650  10.258  92.576  0.00  0.00     0.032 A 
HETATM   20  C   UNK     0       5.249   8.948  92.416  0.00  0.00     0.018 A 
HETATM   21  C   UNK     0       6.220   7.946  92.388  0.00  0.00     0.022 A 
BRANCH  19  22
HETATM   22  C   UNK     0       4.616  11.325  92.609  0.00  0.00     0.252 C 
HETATM   23  O   UNK     0       3.890  11.426  93.595  0.00  0.00    -0.268 OA
HETATM   24  N   UNK     0       4.569  12.160  91.501  0.00  0.00    -0.341 N 
HETATM   25  H   UNK     0       5.218  12.031  90.734  0.00  0.00     0.163 HD
BRANCH  24  26
HETATM   26  C   UNK     0       3.639  13.255  91.395  0.00  0.00     0.207 C 
BRANCH  26  27
HETATM   27  C   UNK     0       4.167  14.547  92.031  0.00  0.00     0.146 C 
HETATM   28  C   UNK     0       4.925  15.420  91.038  0.00  0.00     0.042 C 
BRANCH  27  29
HETATM   29  O   UNK     0       3.077  15.295  92.568  0.00  0.00    -0.393 OA
HETATM   30  H   UNK     0       2.718  14.808  93.329  0.00  0.00     0.210 HD
ENDBRANCH  27  29
ENDBRANCH  26  27
BRANCH  26  31
HETATM   31  C   UNK     0       3.322  13.455  89.916  0.00  0.00     0.266 C 
HETATM   32  O   UNK     0       2.388  14.150  89.519  0.00  0.00    -0.269 OA
HETATM   33  N   UNK     0       4.171  12.744  89.103  0.00  0.00    -0.236 N 
HETATM   34  H   UNK     0       4.891  12.094  89.397  0.00  0.00     0.197 HD
BRANCH  33  35
HETATM   35  O   UNK     0       3.923  12.844  87.726  0.00  0.00    -0.287 OA
HETATM   36  H   UNK     0       4.556  13.540  87.485  0.00  0.00     0.244 HD
ENDBRANCH  33  35
ENDBRANCH  26  31
ENDBRANCH  24  26
ENDBRANCH  19  22
ENDBRANCH  15  16
ENDBRANCH  11  14
ENDBRANCH   7   8
ENDBRANCH   2   7
TORSDOF 10
ENDMDL
MODEL 4
REMARK VINA RESULT:      -5.8      2.868     12.343
REMARK  10 active torsions:
REMARK  status: ('A' for Active; 'I' for Inactive)
REMARK    1  A    between atoms: O_2  and  C_18 
REMARK    2  A    between atoms: O_5  and  N_8 
REMARK    3  A    between atoms: N_6  and  C_11 
REMARK    4  A    between atoms: N_7  and  C_15 
REMARK       I    between atoms: N_7  and  C_24 
REMARK       I    between atoms: N_8  and  C_23 
REMARK    5  A    between atoms: C_11  and  C_14 
REMARK    6  A    between atoms: C_15  and  C_18 
REMARK    7  A    between atoms: C_15  and  C_23 
REMARK    8  A    between atoms: C_21  and  C_26 
REMARK    9  A    between atoms: C_24  and  C_25 
REMARK   10  A    between atoms: C_29  and  C_32 
ROOT
HETATM    1  O   UNK     0       3.036  14.869  94.040  0.00  0.00    -0.388 OA
HETATM    2  N   UNK     0       2.832  14.848  91.201  0.00  0.00     0.096 N 
HETATM    3  C   UNK     0       1.839  14.172  92.047  0.00  0.00     0.299 C 
HETATM    4  C   UNK     0       4.136  14.874  91.877  0.00  0.00     0.299 C 
HETATM    5  C   UNK     0       1.756  14.867  93.404  0.00  0.00     0.198 C 
HETATM    6  C   UNK     0       4.000  15.552  93.238  0.00  0.00     0.198 C 
ENDROOT
BRANCH   2   7
HETATM    7  C   UNK     0       2.935  14.192  89.899  0.00  0.00     0.311 C 
BRANCH   7   8
HETATM    8  C   UNK     0       3.923  13.075  89.903  0.00  0.00    -0.030 A 
HETATM    9  C   UNK     0       5.148  13.226  89.252  0.00  0.00     0.010 A 
HETATM   10  C   UNK     0       6.071  12.180  89.254  0.00  0.00     0.021 A 
HETATM   11  C   UNK     0       5.770  10.986  89.907  0.00  0.00     0.018 A 
HETATM   12  C   UNK     0       4.547  10.834  90.557  0.00  0.00     0.021 A 
HETATM   13  C   UNK     0       3.623  11.879  90.555  0.00  0.00     0.010 A 
BRANCH  11  14
HETATM   14  C   UNK     0       6.718   9.914  89.910  0.00  0.00    -0.061 C 
HETATM   15  C   UNK     0       7.515   9.014  89.913  0.00  0.00    -0.061 C 
BRANCH  15  16
HETATM   16  C   UNK     0       8.463   7.945  89.916  0.00  0.00     0.018 A 
HETATM   17  C   UNK     0       9.321   7.772  88.829  0.00  0.00     0.022 A 
HETATM   18  C   UNK     0      10.248   6.729  88.833  0.00  0.00     0.018 A 
HETATM   19  C   UNK     0      10.297   5.884  89.922  0.00  0.00     0.032 A 
HETATM   20  C   UNK     0       9.460   6.034  91.008  0.00  0.00     0.018 A 
HETATM   21  C   UNK     0       8.532   7.075  91.004  0.00  0.00     0.022 A 
BRANCH  19  22
HETATM   22  C   UNK     0      11.283   4.773  89.924  0.00  0.00     0.252 C 
HETATM   23  O   UNK     0      11.451   4.117  88.899  0.00  0.00    -0.268 OA
HETATM   24  N   UNK     0      11.973   4.575  91.112  0.00  0.00    -0.341 N 
HETATM   25  H   UNK     0      11.800   5.173  91.912  0.00  0.00     0.163 HD
BRANCH  24  26
HETATM   26  C   UNK     0      12.978   3.554  91.265  0.00  0.00     0.207 C 
BRANCH  26  27
HETATM   27  C   UNK     0      14.172   4.017  92.110  0.00  0.00     0.146 C 
HETATM   28  C   UNK     0      13.809   4.205  93.579  0.00  0.00     0.042 C 
BRANCH  27  29
HETATM   29  O   UNK     0      15.226   3.060  92.012  0.00  0.00    -0.393 OA
HETATM   30  H   UNK     0      15.845   3.213  92.745  0.00  0.00     0.210 HD
ENDBRANCH  27  29
ENDBRANCH  26  27
BRANCH  26  31
HETATM   31  C   UNK     0      12.308   2.328  91.876  0.00  0.00     0.266 C 
HETATM   32  O   UNK     0      12.857   1.230  91.948  0.00  0.00    -0.269 OA
HETATM   33  N   UNK     0      11.025   2.591  92.292  0.00  0.00    -0.236 N 
HETATM   34  H   UNK     0      10.512   3.456  92.168  0.00  0.00     0.197 HD
BRANCH  33  35
HETATM   35  O   UNK     0      10.324   1.504  92.833  0.00  0.00    -0.287 OA
HETATM   36  H   UNK     0      11.042   0.852  92.906  0.00  0.00     0.244 HD
ENDBRANCH  33  35
ENDBRANCH  26  31
ENDBRANCH  24  26
ENDBRANCH  19  22
ENDBRANCH  15  16
ENDBRANCH  11  14
ENDBRANCH   7   8
ENDBRANCH   2   7
TORSDOF 10
ENDMDL
MODEL 5
REMARK VINA RESULT:      -5.3      1.648      2.773
REMARK  10 active torsions:
REMARK  status: ('A' for Active; 'I' for Inactive)
REMARK    1  A    between atoms: O_2  and  C_18 
REMARK    2  A    between atoms: O_5  and  N_8 
REMARK    3  A    between atoms: N_6  and  C_11 
REMARK    4  A    between atoms: N_7  and  C_15 
REMARK       I    between atoms: N_7  and  C_24 
REMARK       I    between atoms: N_8  and  C_23 
REMARK    5  A    between atoms: C_11  and  C_14 
REMARK    6  A    between atoms: C_15  and  C_18 
REMARK    7  A    between atoms: C_15  and  C_23 
REMARK    8  A    between atoms: C_21  and  C_26 
REMARK    9  A    between atoms: C_24  and  C_25 
REMARK   10  A    between atoms: C_29  and  C_32 
ROOT
HETATM    1  O   UNK     0      16.276   3.888  93.535  0.00  0.00    -0.388 OA
HETATM    2  N   UNK     0      14.232   2.187  92.519  0.00  0.00     0.096 N 
HETATM    3  C   UNK     0      14.512   3.497  91.915  0.00  0.00     0.299 C 
HETATM    4  C   UNK     0      14.574   2.208  93.947  0.00  0.00     0.299 C 
HETATM    5  C   UNK     0      15.976   3.867  92.138  0.00  0.00     0.198 C 
HETATM    6  C   UNK     0      16.036   2.609  94.124  0.00  0.00     0.198 C 
ENDROOT
BRANCH   2   7
HETATM    7  C   UNK     0      12.831   1.817  92.326  0.00  0.00     0.311 C 
BRANCH   7   8
HETATM    8  C   UNK     0      11.927   3.002  92.315  0.00  0.00    -0.030 A 
HETATM    9  C   UNK     0      11.243   3.346  91.148  0.00  0.00     0.010 A 
HETATM   10  C   UNK     0      10.398   4.455  91.137  0.00  0.00     0.021 A 
HETATM   11  C   UNK     0      10.236   5.219  92.292  0.00  0.00     0.018 A 
HETATM   12  C   UNK     0      10.917   4.876  93.458  0.00  0.00     0.021 A 
HETATM   13  C   UNK     0      11.763   3.767  93.470  0.00  0.00     0.010 A 
BRANCH  11  14
HETATM   14  C   UNK     0       9.367   6.356  92.281  0.00  0.00    -0.061 C 
HETATM   15  C   UNK     0       8.637   7.311  92.271  0.00  0.00    -0.061 C 
BRANCH  15  16
HETATM   16  C   UNK     0       7.771   8.447  92.259  0.00  0.00     0.018 A 
HETATM   17  C   UNK     0       8.165   9.617  91.609  0.00  0.00     0.022 A 
HETATM   18  C   UNK     0       7.319  10.726  91.596  0.00  0.00     0.018 A 
HETATM   19  C   UNK     0       6.098  10.641  92.232  0.00  0.00     0.032 A 
HETATM   20  C   UNK     0       5.685   9.497  92.882  0.00  0.00     0.018 A 
HETATM   21  C   UNK     0       6.532   8.388  92.896  0.00  0.00     0.022 A 
BRANCH  19  22
HETATM   22  C   UNK     0       5.198  11.823  92.219  0.00  0.00     0.252 C 
HETATM   23  O   UNK     0       4.897  12.359  93.283  0.00  0.00    -0.268 OA
HETATM   24  N   UNK     0       4.777  12.254  90.969  0.00  0.00    -0.341 N 
HETATM   25  H   UNK     0       5.088  11.776  90.131  0.00  0.00     0.163 HD
BRANCH  24  26
HETATM   26  C   UNK     0       3.923  13.400  90.790  0.00  0.00     0.207 C 
BRANCH  26  27
HETATM   27  C   UNK     0       3.999  13.982  89.373  0.00  0.00     0.146 C 
HETATM   28  C   UNK     0       5.109  15.017  89.226  0.00  0.00     0.042 C 
BRANCH  27  29
HETATM   29  O   UNK     0       4.220  12.929  88.436  0.00  0.00    -0.393 OA
HETATM   30  H   UNK     0       5.170  12.892  88.237  0.00  0.00     0.210 HD
ENDBRANCH  27  29
ENDBRANCH  26  27
BRANCH  26  31
HETATM   31  C   UNK     0       2.499  12.978  91.141  0.00  0.00     0.266 C 
HETATM   32  O   UNK     0       1.515  13.674  90.895  0.00  0.00    -0.269 OA
HETATM   33  N   UNK     0       2.461  11.767  91.788  0.00  0.00    -0.236 N 
HETATM   34  H   UNK     0       3.255  11.212  92.084  0.00  0.00     0.197 HD
BRANCH  33  35
HETATM   35  O   UNK     0       1.190  11.324  92.180  0.00  0.00    -0.287 OA
HETATM   36  H   UNK     0       1.405  10.906  93.031  0.00  0.00     0.244 HD
ENDBRANCH  33  35
ENDBRANCH  26  31
ENDBRANCH  24  26
ENDBRANCH  19  22
ENDBRANCH  15  16
ENDBRANCH  11  14
ENDBRANCH   7   8
ENDBRANCH   2   7
TORSDOF 10
ENDMDL
MODEL 6
REMARK VINA RESULT:      -5.2      2.035     12.516
REMARK  10 active torsions:
REMARK  status: ('A' for Active; 'I' for Inactive)
REMARK    1  A    between atoms: O_2  and  C_18 
REMARK    2  A    between atoms: O_5  and  N_8 
REMARK    3  A    between atoms: N_6  and  C_11 
REMARK    4  A    between atoms: N_7  and  C_15 
REMARK       I    between atoms: N_7  and  C_24 
REMARK       I    between atoms: N_8  and  C_23 
REMARK    5  A    between atoms: C_11  and  C_14 
REMARK    6  A    between atoms: C_15  and  C_18 
REMARK    7  A    between atoms: C_15  and  C_23 
REMARK    8  A    between atoms: C_21  and  C_26 
REMARK    9  A    between atoms: C_24  and  C_25 
REMARK   10  A    between atoms: C_29  and  C_32 
ROOT
HETATM    1  O   UNK     0       5.414  14.820  88.953  0.00  0.00    -0.388 OA
HETATM    2  N   UNK     0       3.656  13.479  90.746  0.00  0.00     0.096 N 
HETATM    3  C   UNK     0       4.436  14.652  91.168  0.00  0.00     0.299 C 
HETATM    4  C   UNK     0       4.370  12.756  89.685  0.00  0.00     0.299 C 
HETATM    5  C   UNK     0       4.713  15.548  89.963  0.00  0.00     0.198 C 
HETATM    6  C   UNK     0       4.650  13.696  88.516  0.00  0.00     0.198 C 
ENDROOT
BRANCH   2   7
HETATM    7  C   UNK     0       3.388  12.601  91.883  0.00  0.00     0.311 C 
BRANCH   7   8
HETATM    8  C   UNK     0       4.414  11.530  92.028  0.00  0.00    -0.030 A 
HETATM    9  C   UNK     0       5.446  11.675  92.957  0.00  0.00     0.010 A 
HETATM   10  C   UNK     0       6.408  10.674  93.092  0.00  0.00     0.021 A 
HETATM   11  C   UNK     0       6.337   9.528  92.300  0.00  0.00     0.018 A 
HETATM   12  C   UNK     0       5.307   9.382  91.373  0.00  0.00     0.021 A 
HETATM   13  C   UNK     0       4.345  10.383  91.237  0.00  0.00     0.010 A 
BRANCH  11  14
HETATM   14  C   UNK     0       7.323   8.501  92.440  0.00  0.00    -0.061 C 
HETATM   15  C   UNK     0       8.152   7.638  92.559  0.00  0.00    -0.061 C 
BRANCH  15  16
HETATM   16  C   UNK     0       9.137   6.613  92.699  0.00  0.00     0.018 A 
HETATM   17  C   UNK     0       9.563   6.226  93.971  0.00  0.00     0.022 A 
HETATM   18  C   UNK     0      10.524   5.224  94.108  0.00  0.00     0.018 A 
HETATM   19  C   UNK     0      11.036   4.631  92.973  0.00  0.00     0.032 A 
HETATM   20  C   UNK     0      10.633   4.996  91.706  0.00  0.00     0.018 A 
HETATM   21  C   UNK     0       9.673   5.998  91.568  0.00  0.00     0.022 A 
BRANCH  19  22
HETATM   22  C   UNK     0      12.061   3.565  93.121  0.00  0.00     0.252 C 
HETATM   23  O   UNK     0      11.867   2.470  92.598  0.00  0.00    -0.268 OA
HETATM   24  N   UNK     0      13.199   3.910  93.837  0.00  0.00    -0.341 N 
HETATM   25  H   UNK     0      13.301   4.843  94.219  0.00  0.00     0.163 HD
BRANCH  24  26
HETATM   26  C   UNK     0      14.292   2.995  94.045  0.00  0.00     0.207 C 
BRANCH  26  27
HETATM   27  C   UNK     0      14.274   1.816  93.063  0.00  0.00     0.146 C 
HETATM   28  C   UNK     0      15.050   2.111  91.784  0.00  0.00     0.042 C 
BRANCH  27  29
HETATM   29  O   UNK     0      14.835   0.664  93.691  0.00  0.00    -0.393 OA
HETATM   30  H   UNK     0      15.007  -0.003  93.005  0.00  0.00     0.210 HD
ENDBRANCH  27  29
ENDBRANCH  26  27
BRANCH  26  31
HETATM   31  C   UNK     0      15.590   3.787  93.937  0.00  0.00     0.266 C 
HETATM   32  O   UNK     0      15.622   4.989  93.678  0.00  0.00    -0.269 OA
HETATM   33  N   UNK     0      16.698   2.996  94.124  0.00  0.00    -0.236 N 
HETATM   34  H   UNK     0      16.711   1.991  94.250  0.00  0.00     0.197 HD
BRANCH  33  35
HETATM   35  O   UNK     0      17.937   3.642  94.003  0.00  0.00    -0.287 OA
HETATM   36  H   UNK     0      18.095   3.890  94.930  0.00  0.00     0.244 HD
ENDBRANCH  33  35
ENDBRANCH  26  31
ENDBRANCH  24  26
ENDBRANCH  19  22
ENDBRANCH  15  16
ENDBRANCH  11  14
ENDBRANCH   7   8
ENDBRANCH   2   7
TORSDOF 10
ENDMDL
MODEL 7
REMARK VINA RESULT:      -4.8      2.528     12.629
REMARK  10 active torsions:
REMARK  status: ('A' for Active; 'I' for Inactive)
REMARK    1  A    between atoms: O_2  and  C_18 
REMARK    2  A    between atoms: O_5  and  N_8 
REMARK    3  A    between atoms: N_6  and  C_11 
REMARK    4  A    between atoms: N_7  and  C_15 
REMARK       I    between atoms: N_7  and  C_24 
REMARK       I    between atoms: N_8  and  C_23 
REMARK    5  A    between atoms: C_11  and  C_14 
REMARK    6  A    between atoms: C_15  and  C_18 
REMARK    7  A    between atoms: C_15  and  C_23 
REMARK    8  A    between atoms: C_21  and  C_26 
REMARK    9  A    between atoms: C_24  and  C_25 
REMARK   10  A    between atoms: C_29  and  C_32 
ROOT
HETATM    1  O   UNK     0       2.181  13.312  93.812  0.00  0.00    -0.388 OA
HETATM    2  N   UNK     0       3.252  13.639  91.195  0.00  0.00     0.096 N 
HETATM    3  C   UNK     0       2.673  12.362  91.634  0.00  0.00     0.299 C 
HETATM    4  C   UNK     0       3.805  14.363  92.348  0.00  0.00     0.299 C 
HETATM    5  C   UNK     0       1.612  12.615  92.702  0.00  0.00     0.198 C 
HETATM    6  C   UNK     0       2.718  14.569  93.399  0.00  0.00     0.198 C 
ENDROOT
BRANCH   2   7
HETATM    7  C   UNK     0       4.280  13.420  90.179  0.00  0.00     0.311 C 
BRANCH   7   8
HETATM    8  C   UNK     0       5.168  12.269  90.508  0.00  0.00    -0.030 A 
HETATM    9  C   UNK     0       5.921  11.661  89.502  0.00  0.00     0.010 A 
HETATM   10  C   UNK     0       6.750  10.582  89.809  0.00  0.00     0.021 A 
HETATM   11  C   UNK     0       6.828  10.113  91.120  0.00  0.00     0.018 A 
HETATM   12  C   UNK     0       6.077  10.720  92.124  0.00  0.00     0.021 A 
HETATM   13  C   UNK     0       5.246  11.798  91.818  0.00  0.00     0.010 A 
BRANCH  11  14
HETATM   14  C   UNK     0       7.680   9.008  91.434  0.00  0.00    -0.061 C 
HETATM   15  C   UNK     0       8.397   8.080  91.698  0.00  0.00    -0.061 C 
BRANCH  15  16
HETATM   16  C   UNK     0       9.248   6.976  92.011  0.00  0.00     0.018 A 
HETATM   17  C   UNK     0       9.623   6.079  91.008  0.00  0.00     0.022 A 
HETATM   18  C   UNK     0      10.456   5.002  91.313  0.00  0.00     0.018 A 
HETATM   19  C   UNK     0      10.895   4.845  92.611  0.00  0.00     0.032 A 
HETATM   20  C   UNK     0      10.539   5.716  93.619  0.00  0.00     0.018 A 
HETATM   21  C   UNK     0       9.706   6.793  93.315  0.00  0.00     0.022 A 
BRANCH  19  22
HETATM   22  C   UNK     0      11.781   3.697  92.935  0.00  0.00     0.252 C 
HETATM   23  O   UNK     0      11.382   2.554  92.724  0.00  0.00    -0.268 OA
HETATM   24  N   UNK     0      13.032   4.018  93.441  0.00  0.00    -0.341 N 
HETATM   25  H   UNK     0      13.303   4.987  93.564  0.00  0.00     0.163 HD
BRANCH  24  26
HETATM   26  C   UNK     0      14.012   3.017  93.780  0.00  0.00     0.207 C 
BRANCH  26  27
HETATM   27  C   UNK     0      14.066   1.871  92.762  0.00  0.00     0.146 C 
HETATM   28  C   UNK     0      14.841   2.244  91.503  0.00  0.00     0.042 C 
BRANCH  27  29
HETATM   29  O   UNK     0      14.678   0.729  93.361  0.00  0.00    -0.393 OA
HETATM   30  H   UNK     0      14.862   0.936  94.293  0.00  0.00     0.210 HD
ENDBRANCH  27  29
ENDBRANCH  26  27
BRANCH  26  31
HETATM   31  C   UNK     0      15.364   3.712  93.905  0.00  0.00     0.266 C 
HETATM   32  O   UNK     0      15.495   4.934  93.868  0.00  0.00    -0.269 OA
HETATM   33  N   UNK     0      16.399   2.816  94.023  0.00  0.00    -0.236 N 
HETATM   34  H   UNK     0      16.336   1.806  93.968  0.00  0.00     0.197 HD
BRANCH  33  35
HETATM   35  O   UNK     0      17.682   3.374  94.105  0.00  0.00    -0.287 OA
HETATM   36  H   UNK     0      18.159   2.651  94.547  0.00  0.00     0.244 HD
ENDBRANCH  33  35
ENDBRANCH  26  31
ENDBRANCH  24  26
ENDBRANCH  19  22
ENDBRANCH  15  16
ENDBRANCH  11  14
ENDBRANCH   7   8
ENDBRANCH   2   7
TORSDOF 10
ENDMDL
MODEL 8
REMARK VINA RESULT:      -4.4      1.730     12.431
REMARK  10 active torsions:
REMARK  status: ('A' for Active; 'I' for Inactive)
REMARK    1  A    between atoms: O_2  and  C_18 
REMARK    2  A    between atoms: O_5  and  N_8 
REMARK    3  A    between atoms: N_6  and  C_11 
REMARK    4  A    between atoms: N_7  and  C_15 
REMARK       I    between atoms: N_7  and  C_24 
REMARK       I    between atoms: N_8  and  C_23 
REMARK    5  A    between atoms: C_11  and  C_14 
REMARK    6  A    between atoms: C_15  and  C_18 
REMARK    7  A    between atoms: C_15  and  C_23 
REMARK    8  A    between atoms: C_21  and  C_26 
REMARK    9  A    between atoms: C_24  and  C_25 
REMARK   10  A    between atoms: C_29  and  C_32 
ROOT
HETATM    1  O   UNK     0       4.468  14.376  90.719  0.00  0.00    -0.388 OA
HETATM    2  N   UNK     0       3.551  12.392  88.896  0.00  0.00     0.096 N 
HETATM    3  C   UNK     0       3.041  12.465  90.272  0.00  0.00     0.299 C 
HETATM    4  C   UNK     0       4.924  12.911  88.840  0.00  0.00     0.299 C 
HETATM    5  C   UNK     0       3.121  13.903  90.778  0.00  0.00     0.198 C 
HETATM    6  C   UNK     0       4.960  14.338  89.379  0.00  0.00     0.198 C 
ENDROOT
BRANCH   2   7
HETATM    7  C   UNK     0       3.494  11.020  88.394  0.00  0.00     0.311 C 
BRANCH   7   8
HETATM    8  C   UNK     0       4.536  10.148  89.006  0.00  0.00    -0.030 A 
HETATM    9  C   UNK     0       5.380   9.393  88.190  0.00  0.00     0.010 A 
HETATM   10  C   UNK     0       6.354   8.575  88.761  0.00  0.00     0.021 A 
HETATM   11  C   UNK     0       6.486   8.513  90.148  0.00  0.00     0.018 A 
HETATM   12  C   UNK     0       5.644   9.267  90.964  0.00  0.00     0.021 A 
HETATM   13  C   UNK     0       4.669  10.084  90.393  0.00  0.00     0.010 A 
BRANCH  11  14
HETATM   14  C   UNK     0       7.487   7.676  90.734  0.00  0.00    -0.061 C 
HETATM   15  C   UNK     0       8.328   6.972  91.226  0.00  0.00    -0.061 C 
BRANCH  15  16
HETATM   16  C   UNK     0       9.327   6.134  91.811  0.00  0.00     0.018 A 
HETATM   17  C   UNK     0       9.818   5.037  91.102  0.00  0.00     0.022 A 
HETATM   18  C   UNK     0      10.795   4.220  91.671  0.00  0.00     0.018 A 
HETATM   19  C   UNK     0      11.260   4.518  92.935  0.00  0.00     0.032 A 
HETATM   20  C   UNK     0      10.791   5.596  93.656  0.00  0.00     0.018 A 
HETATM   21  C   UNK     0       9.814   6.413  93.088  0.00  0.00     0.022 A 
BRANCH  19  22
HETATM   22  C   UNK     0      12.299   3.647  93.541  0.00  0.00     0.252 C 
HETATM   23  O   UNK     0      11.956   2.620  94.123  0.00  0.00    -0.268 OA
HETATM   24  N   UNK     0      13.613   4.062  93.376  0.00  0.00    -0.341 N 
HETATM   25  H   UNK     0      13.823   4.909  92.861  0.00  0.00     0.163 HD
BRANCH  24  26
HETATM   26  C   UNK     0      14.734   3.312  93.885  0.00  0.00     0.207 C 
BRANCH  26  27
HETATM   27  C   UNK     0      14.913   1.961  93.181  0.00  0.00     0.146 C 
HETATM   28  C   UNK     0      14.711   0.780  94.124  0.00  0.00     0.042 C 
BRANCH  27  29
HETATM   29  O   UNK     0      13.983   1.857  92.103  0.00  0.00    -0.393 OA
HETATM   30  H   UNK     0      13.097   1.716  92.477  0.00  0.00     0.210 HD
ENDBRANCH  27  29
ENDBRANCH  26  27
BRANCH  26  31
HETATM   31  C   UNK     0      15.979   4.181  93.742  0.00  0.00     0.266 C 
HETATM   32  O   UNK     0      15.932   5.403  93.617  0.00  0.00    -0.269 OA
HETATM   33  N   UNK     0      17.133   3.436  93.732  0.00  0.00    -0.236 N 
HETATM   34  H   UNK     0      17.203   2.425  93.743  0.00  0.00     0.197 HD
BRANCH  33  35
HETATM   35  O   UNK     0      18.324   4.157  93.566  0.00  0.00    -0.287 OA
HETATM   36  H   UNK     0      18.144   4.597  92.717  0.00  0.00     0.244 HD
ENDBRANCH  33  35
ENDBRANCH  26  31
ENDBRANCH  24  26
ENDBRANCH  19  22
ENDBRANCH  15  16
ENDBRANCH  11  14
ENDBRANCH   7   8
ENDBRANCH   2   7
TORSDOF 10
ENDMDL
MODEL 9
REMARK VINA RESULT:      -4.4      1.587      2.377
REMARK  10 active torsions:
REMARK  status: ('A' for Active; 'I' for Inactive)
REMARK    1  A    between atoms: O_2  and  C_18 
REMARK    2  A    between atoms: O_5  and  N_8 
REMARK    3  A    between atoms: N_6  and  C_11 
REMARK    4  A    between atoms: N_7  and  C_15 
REMARK       I    between atoms: N_7  and  C_24 
REMARK       I    between atoms: N_8  and  C_23 
REMARK    5  A    between atoms: C_11  and  C_14 
REMARK    6  A    between atoms: C_15  and  C_18 
REMARK    7  A    between atoms: C_15  and  C_23 
REMARK    8  A    between atoms: C_21  and  C_26 
REMARK    9  A    between atoms: C_24  and  C_25 
REMARK   10  A    between atoms: C_29  and  C_32 
ROOT
HETATM    1  O   UNK     0      16.901   3.519  92.961  0.00  0.00    -0.388 OA
HETATM    2  N   UNK     0      14.666   1.757  92.907  0.00  0.00     0.096 N 
HETATM    3  C   UNK     0      15.075   2.516  91.716  0.00  0.00     0.299 C 
HETATM    4  C   UNK     0      15.034   2.493  94.123  0.00  0.00     0.299 C 
HETATM    5  C   UNK     0      16.575   2.796  91.773  0.00  0.00     0.198 C 
HETATM    6  C   UNK     0      16.534   2.775  94.124  0.00  0.00     0.198 C 
ENDROOT
BRANCH   2   7
HETATM    7  C   UNK     0      13.230   1.486  92.879  0.00  0.00     0.311 C 
BRANCH   7   8
HETATM    8  C   UNK     0      12.433   2.683  92.486  0.00  0.00    -0.030 A 
HETATM    9  C   UNK     0      11.998   3.581  93.461  0.00  0.00     0.010 A 
HETATM   10  C   UNK     0      11.250   4.700  93.095  0.00  0.00     0.021 A 
HETATM   11  C   UNK     0      10.941   4.922  91.754  0.00  0.00     0.018 A 
HETATM   12  C   UNK     0      11.375   4.027  90.779  0.00  0.00     0.021 A 
HETATM   13  C   UNK     0      12.122   2.907  91.144  0.00  0.00     0.010 A 
BRANCH  11  14
HETATM   14  C   UNK     0      10.176   6.072  91.378  0.00  0.00    -0.061 C 
HETATM   15  C   UNK     0       9.534   7.038  91.062  0.00  0.00    -0.061 C 
BRANCH  15  16
HETATM   16  C   UNK     0       8.769   8.185  90.688  0.00  0.00     0.018 A 
HETATM   17  C   UNK     0       7.712   8.054  89.786  0.00  0.00     0.022 A 
HETATM   18  C   UNK     0       6.964   9.173  89.422  0.00  0.00     0.018 A 
HETATM   19  C   UNK     0       7.288  10.398  89.967  0.00  0.00     0.032 A 
HETATM   20  C   UNK     0       8.328  10.555  90.859  0.00  0.00     0.018 A 
HETATM   21  C   UNK     0       9.077   9.436  91.224  0.00  0.00     0.022 A 
BRANCH  19  22
HETATM   22  C   UNK     0       6.492  11.591  89.577  0.00  0.00     0.252 C 
HETATM   23  O   UNK     0       6.840  12.251  88.601  0.00  0.00    -0.268 OA
HETATM   24  N   UNK     0       5.373  11.856  90.355  0.00  0.00    -0.341 N 
HETATM   25  H   UNK     0       5.134  11.251  91.131  0.00  0.00     0.163 HD
BRANCH  24  26
HETATM   26  C   UNK     0       4.488  12.961  90.089  0.00  0.00     0.207 C 
BRANCH  26  27
HETATM   27  C   UNK     0       3.478  12.658  88.975  0.00  0.00     0.146 C 
HETATM   28  C   UNK     0       3.242  11.163  88.792  0.00  0.00     0.042 C 
BRANCH  27  29
HETATM   29  O   UNK     0       2.234  13.291  89.274  0.00  0.00    -0.393 OA
HETATM   30  H   UNK     0       1.775  12.759  89.946  0.00  0.00     0.210 HD
ENDBRANCH  27  29
ENDBRANCH  26  27
BRANCH  26  31
HETATM   31  C   UNK     0       3.785  13.319  91.394  0.00  0.00     0.266 C 
HETATM   32  O   UNK     0       3.980  14.375  91.992  0.00  0.00    -0.269 OA
HETATM   33  N   UNK     0       2.952  12.315  91.827  0.00  0.00    -0.236 N 
HETATM   34  H   UNK     0       2.836  11.400  91.407  0.00  0.00     0.197 HD
BRANCH  33  35
HETATM   35  O   UNK     0       2.295  12.550  93.042  0.00  0.00    -0.287 OA
HETATM   36  H   UNK     0       2.773  13.338  93.350  0.00  0.00     0.244 HD
ENDBRANCH  33  35
ENDBRANCH  26  31
ENDBRANCH  24  26
ENDBRANCH  19  22
ENDBRANCH  15  16
ENDBRANCH  11  14
ENDBRANCH   7   8
ENDBRANCH   2   7
TORSDOF 10
ENDMDL
