MODEL 1
REMARK VINA RESULT:      -7.1      0.000      0.000
REMARK  10 active torsions:
REMARK  status: ('A' for Active; 'I' for Inactive)
REMARK    1  A    between atoms: O_2  and  C_16 
REMARK    2  A    between atoms: N_5  and  C_9 
REMARK    3  A    between atoms: N_6  and  C_13 
REMARK       I    between atoms: N_6  and  C_22 
REMARK    4  A    between atoms: C_9  and  C_12 
REMARK    5  A    between atoms: C_13  and  C_16 
REMARK    6  A    between atoms: C_13  and  C_21 
REMARK    7  A    between atoms: C_19  and  C_24 
REMARK    8  A    between atoms: C_22  and  C_23 
REMARK    9  A    between atoms: C_27  and  C_30 
REMARK   10  A    between atoms: N_33  and  S_34 
ROOT
HETATM    1  C   UNL     1       5.860  10.997  89.579  1.00  0.00     0.056 A 
HETATM    2  C   UNL     1       7.215  11.153  89.377  1.00  0.00     0.005 A 
HETATM    3  C   UNL     1       5.318   9.827  90.068  1.00  0.00     0.005 A 
HETATM    4  C   UNL     1       7.545   8.896  90.172  1.00  0.00     0.042 A 
HETATM    5  C   UNL     1       8.068  10.091  89.676  1.00  0.00     0.008 A 
HETATM    6  C   UNL     1       6.170   8.764  90.368  1.00  0.00     0.008 A 
ENDROOT
BRANCH   1   7
HETATM    7  C   UNL     1       4.952  12.130  89.262  1.00  0.00     0.254 C 
HETATM    8  O   UNL     1       4.875  12.531  88.103  1.00  0.00    -0.268 OA
HETATM    9  N   UNL     1       4.225  12.643  90.327  1.00  0.00    -0.337 N 
HETATM   10  HN  UNL     1       4.322  12.245  91.254  1.00  0.00     0.164 HD
BRANCH   9  11
HETATM   11  C   UNL     1       3.286  13.725  90.176  1.00  0.00     0.172 C 
BRANCH  11  12
HETATM   12  C   UNL     1       2.022  13.538  91.025  1.00  0.00     0.136 C 
HETATM   13  C   UNL     1       2.198  12.479  92.107  1.00  0.00     0.034 C 
BRANCH  12  14
HETATM   14  O   UNL     1       1.673  14.777  91.641  1.00  0.00    -0.383 OA
HETATM   15  H   UNL     1       1.317  15.368  90.957  1.00  0.00     0.210 HD
ENDBRANCH  12  14
ENDBRANCH  11  12
BRANCH  11  16
HETATM   16  C   UNL     1       4.006  15.021  90.533  1.00  0.00     0.398 A 
HETATM   17  O   UNL     1       5.129  15.300  90.115  1.00  0.00    -0.136 OA
HETATM   18  N   UNL     1       5.020  15.625  91.596  1.00  0.00     0.142 N 
HETATM   19  HN  UNL     1       5.940  15.932  91.449  1.00  0.00     0.338 HD
BRANCH  18  20
HETATM   20  S   UNL     1       4.305  15.330  92.752  1.00  0.00     0.076 SA
HETATM   21  H   UNL     1       4.326  14.199  93.115  1.00  0.00     0.136 HD
ENDBRANCH  18  20
ENDBRANCH  11  16
ENDBRANCH   9  11
ENDBRANCH   1   7
BRANCH   4  22
HETATM   22  C   UNL     1       8.419   7.806  90.476  1.00  0.00    -0.059 C 
HETATM   23  C   UNL     1       9.153   6.889  90.731  1.00  0.00    -0.059 C 
BRANCH  23  24
HETATM   24  C   UNL     1      10.028   5.799  91.035  1.00  0.00     0.042 A 
HETATM   25  C   UNL     1      10.721   5.156  90.009  1.00  0.00     0.008 A 
HETATM   26  C   UNL     1      11.572   4.091  90.305  1.00  0.00    -0.002 A 
HETATM   27  C   UNL     1      11.732   3.672  91.626  1.00  0.00     0.011 A 
HETATM   28  C   UNL     1      11.038   4.317  92.651  1.00  0.00    -0.002 A 
HETATM   29  C   UNL     1      10.187   5.381  92.354  1.00  0.00     0.008 A 
BRANCH  27  30
HETATM   30  C   UNL     1      12.644   2.535  91.941  1.00  0.00     0.277 C 
BRANCH  30  31
HETATM   31  N   UNL     1      13.690   2.908  92.892  1.00  0.00     0.147 N 
HETATM   32  C   UNL     1      14.596   1.777  93.137  1.00  0.00     0.283 C 
HETATM   33  C   UNL     1      15.685   2.193  94.123  1.00  0.00     0.178 C 
HETATM   34  O   UNL     1      16.412   3.315  93.618  1.00  0.00    -0.350 OA
HETATM   35  C   UNL     1      15.542   4.428  93.407  1.00  0.00     0.178 C 
HETATM   36  C   UNL     1      14.450   4.067  92.405  1.00  0.00     0.283 C 
ENDBRANCH  30  31
ENDBRANCH  27  30
ENDBRANCH  23  24
ENDBRANCH   4  22
TORSDOF 10
ENDMDL
MODEL 2
REMARK VINA RESULT:      -6.8      1.418      1.777
REMARK  10 active torsions:
REMARK  status: ('A' for Active; 'I' for Inactive)
REMARK    1  A    between atoms: O_2  and  C_16 
REMARK    2  A    between atoms: N_5  and  C_9 
REMARK    3  A    between atoms: N_6  and  C_13 
REMARK       I    between atoms: N_6  and  C_22 
REMARK    4  A    between atoms: C_9  and  C_12 
REMARK    5  A    between atoms: C_13  and  C_16 
REMARK    6  A    between atoms: C_13  and  C_21 
REMARK    7  A    between atoms: C_19  and  C_24 
REMARK    8  A    between atoms: C_22  and  C_23 
REMARK    9  A    between atoms: C_27  and  C_30 
REMARK   10  A    between atoms: N_33  and  S_34 
ROOT
HETATM    1  C   UNL     1       4.935   9.660  90.242  1.00  0.00     0.056 A 
HETATM    2  C   UNL     1       5.577   9.663  91.462  1.00  0.00     0.005 A 
HETATM    3  C   UNL     1       5.269   8.776  89.237  1.00  0.00     0.005 A 
HETATM    4  C   UNL     1       6.956   7.837  90.688  1.00  0.00     0.042 A 
HETATM    5  C   UNL     1       6.600   8.742  91.689  1.00  0.00     0.008 A 
HETATM    6  C   UNL     1       6.291   7.854  89.462  1.00  0.00     0.008 A 
ENDROOT
BRANCH   1   7
HETATM    7  C   UNL     1       3.845  10.640  90.002  1.00  0.00     0.254 C 
HETATM    8  O   UNL     1       2.763  10.242  89.576  1.00  0.00    -0.268 OA
HETATM    9  N   UNL     1       4.137  11.962  90.309  1.00  0.00    -0.337 N 
HETATM   10  HN  UNL     1       5.045  12.213  90.680  1.00  0.00     0.164 HD
BRANCH   9  11
HETATM   11  C   UNL     1       3.176  13.024  90.154  1.00  0.00     0.172 C 
BRANCH  11  12
HETATM   12  C   UNL     1       2.737  13.628  91.494  1.00  0.00     0.136 C 
HETATM   13  C   UNL     1       1.535  12.907  92.094  1.00  0.00     0.034 C 
BRANCH  12  14
HETATM   14  O   UNL     1       3.821  13.572  92.420  1.00  0.00    -0.383 OA
HETATM   15  H   UNL     1       3.491  13.843  93.293  1.00  0.00     0.210 HD
ENDBRANCH  12  14
ENDBRANCH  11  12
BRANCH  11  16
HETATM   16  C   UNL     1       3.794  14.082  89.245  1.00  0.00     0.398 A 
HETATM   17  O   UNL     1       4.542  13.806  88.309  1.00  0.00    -0.136 OA
HETATM   18  N   UNL     1       5.092  14.984  89.096  1.00  0.00     0.142 N 
HETATM   19  HN  UNL     1       5.786  14.938  88.403  1.00  0.00     0.338 HD
BRANCH  18  20
HETATM   20  S   UNL     1       5.046  15.617  90.333  1.00  0.00     0.076 SA
HETATM   21  H   UNL     1       4.401  15.084  91.177  1.00  0.00     0.136 HD
ENDBRANCH  18  20
ENDBRANCH  11  16
ENDBRANCH   9  11
ENDBRANCH   1   7
BRANCH   4  22
HETATM   22  C   UNL     1       8.006   6.895  90.919  1.00  0.00    -0.059 C 
HETATM   23  C   UNL     1       8.890   6.102  91.113  1.00  0.00    -0.059 C 
BRANCH  23  24
HETATM   24  C   UNL     1       9.941   5.160  91.344  1.00  0.00     0.042 A 
HETATM   25  C   UNL     1      10.213   4.725  92.640  1.00  0.00     0.008 A 
HETATM   26  C   UNL     1      11.239   3.808  92.866  1.00  0.00    -0.002 A 
HETATM   27  C   UNL     1      11.991   3.325  91.795  1.00  0.00     0.011 A 
HETATM   28  C   UNL     1      11.717   3.761  90.498  1.00  0.00    -0.002 A 
HETATM   29  C   UNL     1      10.692   4.679  90.273  1.00  0.00     0.008 A 
BRANCH  27  30
HETATM   30  C   UNL     1      13.086   2.343  92.037  1.00  0.00     0.277 C 
BRANCH  30  31
HETATM   31  N   UNL     1      14.050   2.816  93.030  1.00  0.00     0.147 N 
HETATM   32  C   UNL     1      15.216   1.924  93.090  1.00  0.00     0.283 C 
HETATM   33  C   UNL     1      16.211   2.444  94.124  1.00  0.00     0.178 C 
HETATM   34  O   UNL     1      16.617   3.775  93.798  1.00  0.00    -0.350 OA
HETATM   35  C   UNL     1      15.493   4.655  93.768  1.00  0.00     0.178 C 
HETATM   36  C   UNL     1      14.480   4.188  92.727  1.00  0.00     0.283 C 
ENDBRANCH  30  31
ENDBRANCH  27  30
ENDBRANCH  23  24
ENDBRANCH   4  22
TORSDOF 10
ENDMDL
MODEL 3
REMARK VINA RESULT:      -6.7      1.512      2.342
REMARK  10 active torsions:
REMARK  status: ('A' for Active; 'I' for Inactive)
REMARK    1  A    between atoms: O_2  and  C_16 
REMARK    2  A    between atoms: N_5  and  C_9 
REMARK    3  A    between atoms: N_6  and  C_13 
REMARK       I    between atoms: N_6  and  C_22 
REMARK    4  A    between atoms: C_9  and  C_12 
REMARK    5  A    between atoms: C_13  and  C_16 
REMARK    6  A    between atoms: C_13  and  C_21 
REMARK    7  A    between atoms: C_19  and  C_24 
REMARK    8  A    between atoms: C_22  and  C_23 
REMARK    9  A    between atoms: C_27  and  C_30 
REMARK   10  A    between atoms: N_33  and  S_34 
ROOT
HETATM    1  C   UNL     1       5.313  10.462  90.966  1.00  0.00     0.056 A 
HETATM    2  C   UNL     1       4.911   9.173  91.242  1.00  0.00     0.005 A 
HETATM    3  C   UNL     1       6.641  10.803  90.814  1.00  0.00     0.005 A 
HETATM    4  C   UNL     1       7.230   8.497  91.226  1.00  0.00     0.042 A 
HETATM    5  C   UNL     1       5.880   8.178  91.375  1.00  0.00     0.008 A 
HETATM    6  C   UNL     1       7.611   9.809  90.946  1.00  0.00     0.008 A 
ENDROOT
BRANCH   1   7
HETATM    7  C   UNL     1       4.281  11.521  90.823  1.00  0.00     0.254 C 
HETATM    8  O   UNL     1       3.289  11.302  90.132  1.00  0.00    -0.268 OA
HETATM    9  N   UNL     1       4.515  12.698  91.521  1.00  0.00    -0.337 N 
HETATM   10  HN  UNL     1       5.346  12.797  92.093  1.00  0.00     0.164 HD
BRANCH   9  11
HETATM   11  C   UNL     1       3.596  13.807  91.503  1.00  0.00     0.172 C 
BRANCH  11  12
HETATM   12  C   UNL     1       3.615  14.572  90.174  1.00  0.00     0.136 C 
HETATM   13  C   UNL     1       5.009  14.642  89.560  1.00  0.00     0.034 C 
BRANCH  12  14
HETATM   14  O   UNL     1       2.732  13.941  89.247  1.00  0.00    -0.383 OA
HETATM   15  H   UNL     1       2.700  14.481  88.440  1.00  0.00     0.210 HD
ENDBRANCH  12  14
ENDBRANCH  11  12
BRANCH  11  16
HETATM   16  C   UNL     1       2.204  13.264  91.810  1.00  0.00     0.398 A 
HETATM   17  O   UNL     1       1.199  13.971  91.833  1.00  0.00    -0.136 OA
HETATM   18  N   UNL     1       1.205  13.024  93.022  1.00  0.00     0.142 N 
HETATM   19  HN  UNL     1       0.346  13.466  93.195  1.00  0.00     0.338 HD
BRANCH  18  20
HETATM   20  S   UNL     1       2.034  12.244  93.820  1.00  0.00     0.076 SA
HETATM   21  H   UNL     1       2.980  12.786  94.293  1.00  0.00     0.136 HD
ENDBRANCH  18  20
ENDBRANCH  11  16
ENDBRANCH   9  11
ENDBRANCH   1   7
BRANCH   4  22
HETATM   22  C   UNL     1       8.223   7.478  91.365  1.00  0.00    -0.059 C 
HETATM   23  C   UNL     1       9.059   6.622  91.481  1.00  0.00    -0.059 C 
BRANCH  23  24
HETATM   24  C   UNL     1      10.053   5.602  91.621  1.00  0.00     0.042 A 
HETATM   25  C   UNL     1      10.441   5.177  92.891  1.00  0.00     0.008 A 
HETATM   26  C   UNL     1      11.411   4.184  93.027  1.00  0.00    -0.002 A 
HETATM   27  C   UNL     1      11.991   3.616  91.892  1.00  0.00     0.011 A 
HETATM   28  C   UNL     1      11.601   4.042  90.623  1.00  0.00    -0.002 A 
HETATM   29  C   UNL     1      10.632   5.035  90.487  1.00  0.00     0.008 A 
BRANCH  27  30
HETATM   30  C   UNL     1      13.027   2.553  92.039  1.00  0.00     0.277 C 
BRANCH  30  31
HETATM   31  N   UNL     1      14.021   2.881  93.060  1.00  0.00     0.147 N 
HETATM   32  C   UNL     1      15.112   1.897  93.059  1.00  0.00     0.283 C 
HETATM   33  C   UNL     1      16.142   2.266  94.124  1.00  0.00     0.178 C 
HETATM   34  O   UNL     1      16.654   3.578  93.886  1.00  0.00    -0.350 OA
HETATM   35  C   UNL     1      15.603   4.545  93.916  1.00  0.00     0.178 C 
HETATM   36  C   UNL     1      14.561   4.231  92.848  1.00  0.00     0.283 C 
ENDBRANCH  30  31
ENDBRANCH  27  30
ENDBRANCH  23  24
ENDBRANCH   4  22
TORSDOF 10
ENDMDL
MODEL 4
REMARK VINA RESULT:      -6.0      2.880      3.823
REMARK  10 active torsions:
REMARK  status: ('A' for Active; 'I' for Inactive)
REMARK    1  A    between atoms: O_2  and  C_16 
REMARK    2  A    between atoms: N_5  and  C_9 
REMARK    3  A    between atoms: N_6  and  C_13 
REMARK       I    between atoms: N_6  and  C_22 
REMARK    4  A    between atoms: C_9  and  C_12 
REMARK    5  A    between atoms: C_13  and  C_16 
REMARK    6  A    between atoms: C_13  and  C_21 
REMARK    7  A    between atoms: C_19  and  C_24 
REMARK    8  A    between atoms: C_22  and  C_23 
REMARK    9  A    between atoms: C_27  and  C_30 
REMARK   10  A    between atoms: N_33  and  S_34 
ROOT
HETATM    1  C   UNL     1       6.084   7.141  88.243  1.00  0.00     0.056 A 
HETATM    2  C   UNL     1       5.770   6.314  89.302  1.00  0.00     0.005 A 
HETATM    3  C   UNL     1       7.383   7.345  87.829  1.00  0.00     0.005 A 
HETATM    4  C   UNL     1       8.125   5.853  89.578  1.00  0.00     0.042 A 
HETATM    5  C   UNL     1       6.801   5.663  89.977  1.00  0.00     0.008 A 
HETATM    6  C   UNL     1       8.416   6.694  88.504  1.00  0.00     0.008 A 
ENDROOT
BRANCH   1   7
HETATM    7  C   UNL     1       4.984   7.833  87.523  1.00  0.00     0.254 C 
HETATM    8  O   UNL     1       4.785   7.572  86.339  1.00  0.00    -0.268 OA
HETATM    9  N   UNL     1       4.234   8.728  88.273  1.00  0.00    -0.337 N 
HETATM   10  HN  UNL     1       4.441   8.875  89.254  1.00  0.00     0.164 HD
BRANCH   9  11
HETATM   11  C   UNL     1       3.120   9.458  87.723  1.00  0.00     0.172 C 
BRANCH  11  12
HETATM   12  C   UNL     1       1.764   8.904  88.179  1.00  0.00     0.136 C 
HETATM   13  C   UNL     1       1.423   7.575  87.514  1.00  0.00     0.034 C 
BRANCH  12  14
HETATM   14  O   UNL     1       1.774   8.724  89.595  1.00  0.00    -0.383 OA
HETATM   15  H   UNL     1       1.466   9.548  90.009  1.00  0.00     0.210 HD
ENDBRANCH  12  14
ENDBRANCH  11  12
BRANCH  11  16
HETATM   16  C   UNL     1       3.282  10.922  88.119  1.00  0.00     0.398 A 
HETATM   17  O   UNL     1       4.227  11.615  87.748  1.00  0.00    -0.136 OA
HETATM   18  N   UNL     1       3.955  11.841  89.226  1.00  0.00     0.142 N 
HETATM   19  HN  UNL     1       4.693  12.478  89.117  1.00  0.00     0.338 HD
BRANCH  18  20
HETATM   20  S   UNL     1       3.367  11.271  90.350  1.00  0.00     0.076 SA
HETATM   21  H   UNL     1       3.381  11.922  91.344  1.00  0.00     0.136 HD
ENDBRANCH  18  20
ENDBRANCH  11  16
ENDBRANCH   9  11
ENDBRANCH   1   7
BRANCH   4  22
HETATM   22  C   UNL     1       9.183   5.187  90.272  1.00  0.00    -0.059 C 
HETATM   23  C   UNL     1      10.073   4.628  90.856  1.00  0.00    -0.059 C 
BRANCH  23  24
HETATM   24  C   UNL     1      11.131   3.963  91.551  1.00  0.00     0.042 A 
HETATM   25  C   UNL     1      12.268   3.550  90.857  1.00  0.00     0.008 A 
HETATM   26  C   UNL     1      13.299   2.899  91.535  1.00  0.00    -0.002 A 
HETATM   27  C   UNL     1      13.194   2.664  92.906  1.00  0.00     0.011 A 
HETATM   28  C   UNL     1      12.056   3.078  93.598  1.00  0.00    -0.002 A 
HETATM   29  C   UNL     1      11.024   3.728  92.920  1.00  0.00     0.008 A 
BRANCH  27  30
HETATM   30  C   UNL     1      14.297   1.971  93.629  1.00  0.00     0.277 C 
BRANCH  30  31
HETATM   31  N   UNL     1      15.350   2.892  94.055  1.00  0.00     0.147 N 
HETATM   32  C   UNL     1      16.643   2.509  93.473  1.00  0.00     0.283 C 
HETATM   33  C   UNL     1      17.723   3.490  93.921  1.00  0.00     0.178 C 
HETATM   34  O   UNL     1      17.377   4.821  93.534  1.00  0.00    -0.350 OA
HETATM   35  C   UNL     1      16.135   5.213  94.121  1.00  0.00     0.178 C 
HETATM   36  C   UNL     1      15.018   4.273  93.679  1.00  0.00     0.283 C 
ENDBRANCH  30  31
ENDBRANCH  27  30
ENDBRANCH  23  24
ENDBRANCH   4  22
TORSDOF 10
ENDMDL
MODEL 5
REMARK VINA RESULT:      -6.0      1.992      2.669
REMARK  10 active torsions:
REMARK  status: ('A' for Active; 'I' for Inactive)
REMARK    1  A    between atoms: O_2  and  C_16 
REMARK    2  A    between atoms: N_5  and  C_9 
REMARK    3  A    between atoms: N_6  and  C_13 
REMARK       I    between atoms: N_6  and  C_22 
REMARK    4  A    between atoms: C_9  and  C_12 
REMARK    5  A    between atoms: C_13  and  C_16 
REMARK    6  A    between atoms: C_13  and  C_21 
REMARK    7  A    between atoms: C_19  and  C_24 
REMARK    8  A    between atoms: C_22  and  C_23 
REMARK    9  A    between atoms: C_27  and  C_30 
REMARK   10  A    between atoms: N_33  and  S_34 
ROOT
HETATM    1  C   UNL     1       5.578   9.772  91.687  1.00  0.00     0.056 A 
HETATM    2  C   UNL     1       6.744  10.113  92.341  1.00  0.00     0.005 A 
HETATM    3  C   UNL     1       5.365   8.510  91.172  1.00  0.00     0.005 A 
HETATM    4  C   UNL     1       7.552   7.866  91.973  1.00  0.00     0.042 A 
HETATM    5  C   UNL     1       7.743   9.150  92.485  1.00  0.00     0.008 A 
HETATM    6  C   UNL     1       6.363   7.546  91.316  1.00  0.00     0.008 A 
ENDROOT
BRANCH   1   7
HETATM    7  C   UNL     1       4.514  10.797  91.536  1.00  0.00     0.254 C 
HETATM    8  O   UNL     1       3.349  10.435  91.389  1.00  0.00    -0.268 OA
HETATM    9  N   UNL     1       4.931  12.120  91.597  1.00  0.00    -0.337 N 
HETATM   10  HN  UNL     1       5.908  12.343  91.746  1.00  0.00     0.164 HD
BRANCH   9  11
HETATM   11  C   UNL     1       4.015  13.227  91.491  1.00  0.00     0.172 C 
BRANCH  11  12
HETATM   12  C   UNL     1       4.590  14.529  92.063  1.00  0.00     0.136 C 
HETATM   13  C   UNL     1       4.849  15.576  90.985  1.00  0.00     0.034 C 
BRANCH  12  14
HETATM   14  O   UNL     1       3.684  15.069  93.024  1.00  0.00    -0.383 OA
HETATM   15  H   UNL     1       3.690  14.493  93.807  1.00  0.00     0.210 HD
ENDBRANCH  12  14
ENDBRANCH  11  12
BRANCH  11  16
HETATM   16  C   UNL     1       3.642  13.384  90.021  1.00  0.00     0.398 A 
HETATM   17  O   UNL     1       2.742  12.739  89.486  1.00  0.00    -0.136 OA
HETATM   18  N   UNL     1       3.968  12.782  88.587  1.00  0.00     0.142 N 
HETATM   19  HN  UNL     1       3.375  12.270  87.997  1.00  0.00     0.338 HD
BRANCH  18  20
HETATM   20  S   UNL     1       5.344  12.981  88.589  1.00  0.00     0.076 SA
HETATM   21  H   UNL     1       6.022  12.005  88.593  1.00  0.00     0.136 HD
ENDBRANCH  18  20
ENDBRANCH  11  16
ENDBRANCH   9  11
ENDBRANCH   1   7
BRANCH   4  22
HETATM   22  C   UNL     1       8.576   6.880  92.118  1.00  0.00    -0.059 C 
HETATM   23  C   UNL     1       9.439   6.051  92.241  1.00  0.00    -0.059 C 
BRANCH  23  24
HETATM   24  C   UNL     1      10.464   5.064  92.387  1.00  0.00     0.042 A 
HETATM   25  C   UNL     1      11.122   4.920  93.608  1.00  0.00     0.008 A 
HETATM   26  C   UNL     1      12.124   3.960  93.751  1.00  0.00    -0.002 A 
HETATM   27  C   UNL     1      12.464   3.142  92.672  1.00  0.00     0.011 A 
HETATM   28  C   UNL     1      11.805   3.288  91.452  1.00  0.00    -0.002 A 
HETATM   29  C   UNL     1      10.804   4.249  91.310  1.00  0.00     0.008 A 
BRANCH  27  30
HETATM   30  C   UNL     1      13.533   2.114  92.826  1.00  0.00     0.277 C 
BRANCH  30  31
HETATM   31  N   UNL     1      14.871   2.702  92.853  1.00  0.00     0.147 N 
HETATM   32  C   UNL     1      14.804   4.159  92.672  1.00  0.00     0.283 C 
HETATM   33  C   UNL     1      16.210   4.751  92.715  1.00  0.00     0.178 C 
HETATM   34  O   UNL     1      16.847   4.431  93.953  1.00  0.00    -0.350 OA
HETATM   35  C   UNL     1      16.945   3.016  94.122  1.00  0.00     0.178 C 
HETATM   36  C   UNL     1      15.557   2.383  94.113  1.00  0.00     0.283 C 
ENDBRANCH  30  31
ENDBRANCH  27  30
ENDBRANCH  23  24
ENDBRANCH   4  22
TORSDOF 10
ENDMDL
MODEL 6
REMARK VINA RESULT:      -5.6      3.722     12.463
REMARK  10 active torsions:
REMARK  status: ('A' for Active; 'I' for Inactive)
REMARK    1  A    between atoms: O_2  and  C_16 
REMARK    2  A    between atoms: N_5  and  C_9 
REMARK    3  A    between atoms: N_6  and  C_13 
REMARK       I    between atoms: N_6  and  C_22 
REMARK    4  A    between atoms: C_9  and  C_12 
REMARK    5  A    between atoms: C_13  and  C_16 
REMARK    6  A    between atoms: C_13  and  C_21 
REMARK    7  A    between atoms: C_19  and  C_24 
REMARK    8  A    between atoms: C_22  and  C_23 
REMARK    9  A    between atoms: C_27  and  C_30 
REMARK   10  A    between atoms: N_33  and  S_34 
ROOT
HETATM    1  C   UNL     1      10.234   5.708  90.046  1.00  0.00     0.056 A 
HETATM    2  C   UNL     1       9.776   6.199  91.250  1.00  0.00     0.005 A 
HETATM    3  C   UNL     1       9.786   6.191  88.834  1.00  0.00     0.005 A 
HETATM    4  C   UNL     1       8.354   7.725  90.032  1.00  0.00     0.042 A 
HETATM    5  C   UNL     1       8.824   7.219  91.244  1.00  0.00     0.008 A 
HETATM    6  C   UNL     1       8.835   7.212  88.827  1.00  0.00     0.008 A 
ENDROOT
BRANCH   1   7
HETATM    7  C   UNL     1      11.249   4.622  90.053  1.00  0.00     0.254 C 
HETATM    8  O   UNL     1      11.472   4.003  89.016  1.00  0.00    -0.268 OA
HETATM    9  N   UNL     1      11.899   4.406  91.260  1.00  0.00    -0.337 N 
HETATM   10  HN  UNL     1      11.680   4.974  92.069  1.00  0.00     0.164 HD
BRANCH   9  11
HETATM   11  C   UNL     1      12.925   3.407  91.420  1.00  0.00     0.172 C 
BRANCH  11  12
HETATM   12  C   UNL     1      14.327   3.938  91.098  1.00  0.00     0.136 C 
HETATM   13  C   UNL     1      15.151   2.953  90.276  1.00  0.00     0.034 C 
BRANCH  12  14
HETATM   14  O   UNL     1      14.219   5.165  90.377  1.00  0.00    -0.383 OA
HETATM   15  H   UNL     1      13.275   5.360  90.248  1.00  0.00     0.210 HD
ENDBRANCH  12  14
ENDBRANCH  11  12
BRANCH  11  16
HETATM   16  C   UNL     1      12.846   2.883  92.850  1.00  0.00     0.398 A 
HETATM   17  O   UNL     1      12.653   3.612  93.821  1.00  0.00    -0.136 OA
HETATM   18  N   UNL     1      13.755   2.610  94.124  1.00  0.00     0.142 N 
HETATM   19  HN  UNL     1      13.730   3.063  94.994  1.00  0.00     0.338 HD
BRANCH  18  20
HETATM   20  S   UNL     1      14.694   1.774  93.531  1.00  0.00     0.076 SA
HETATM   21  H   UNL     1      15.835   1.998  93.775  1.00  0.00     0.136 HD
ENDBRANCH  18  20
ENDBRANCH  11  16
ENDBRANCH   9  11
ENDBRANCH   1   7
BRANCH   4  22
HETATM   22  C   UNL     1       7.377   8.769  90.025  1.00  0.00    -0.059 C 
HETATM   23  C   UNL     1       6.555   9.646  90.020  1.00  0.00    -0.059 C 
BRANCH  23  24
HETATM   24  C   UNL     1       5.578  10.691  90.014  1.00  0.00     0.042 A 
HETATM   25  C   UNL     1       4.375  10.523  90.700  1.00  0.00     0.008 A 
HETATM   26  C   UNL     1       3.421  11.541  90.692  1.00  0.00    -0.002 A 
HETATM   27  C   UNL     1       3.672  12.727  90.001  1.00  0.00     0.011 A 
HETATM   28  C   UNL     1       4.876  12.893  89.316  1.00  0.00    -0.002 A 
HETATM   29  C   UNL     1       5.829  11.875  89.323  1.00  0.00     0.008 A 
BRANCH  27  30
HETATM   30  C   UNL     1       2.653  13.815  89.995  1.00  0.00     0.277 C 
BRANCH  30  31
HETATM   31  N   UNL     1       2.650  14.581  91.240  1.00  0.00     0.147 N 
HETATM   32  C   UNL     1       1.693  14.011  92.200  1.00  0.00     0.283 C 
HETATM   33  C   UNL     1       1.716  14.820  93.494  1.00  0.00     0.178 C 
HETATM   34  O   UNL     1       3.032  14.833  94.049  1.00  0.00    -0.350 OA
HETATM   35  C   UNL     1       3.962  15.414  93.135  1.00  0.00     0.178 C 
HETATM   36  C   UNL     1       3.994  14.621  91.833  1.00  0.00     0.283 C 
ENDBRANCH  30  31
ENDBRANCH  27  30
ENDBRANCH  23  24
ENDBRANCH   4  22
TORSDOF 10
ENDMDL
MODEL 7
REMARK VINA RESULT:      -5.5      3.642     12.579
REMARK  10 active torsions:
REMARK  status: ('A' for Active; 'I' for Inactive)
REMARK    1  A    between atoms: O_2  and  C_16 
REMARK    2  A    between atoms: N_5  and  C_9 
REMARK    3  A    between atoms: N_6  and  C_13 
REMARK       I    between atoms: N_6  and  C_22 
REMARK    4  A    between atoms: C_9  and  C_12 
REMARK    5  A    between atoms: C_13  and  C_16 
REMARK    6  A    between atoms: C_13  and  C_21 
REMARK    7  A    between atoms: C_19  and  C_24 
REMARK    8  A    between atoms: C_22  and  C_23 
REMARK    9  A    between atoms: C_27  and  C_30 
REMARK   10  A    between atoms: N_33  and  S_34 
ROOT
HETATM    1  C   UNL     1      10.357   5.016  92.055  1.00  0.00     0.056 A 
HETATM    2  C   UNL     1       9.616   5.539  93.094  1.00  0.00     0.005 A 
HETATM    3  C   UNL     1      10.230   5.471  90.759  1.00  0.00     0.005 A 
HETATM    4  C   UNL     1       8.559   7.039  91.525  1.00  0.00     0.042 A 
HETATM    5  C   UNL     1       8.707   6.562  92.827  1.00  0.00     0.008 A 
HETATM    6  C   UNL     1       9.321   6.495  90.490  1.00  0.00     0.008 A 
ENDROOT
BRANCH   1   7
HETATM    7  C   UNL     1      11.327   3.928  92.341  1.00  0.00     0.254 C 
HETATM    8  O   UNL     1      10.948   2.760  92.296  1.00  0.00    -0.268 OA
HETATM    9  N   UNL     1      12.626   4.329  92.620  1.00  0.00    -0.337 N 
HETATM   10  HN  UNL     1      12.871   5.312  92.615  1.00  0.00     0.164 HD
BRANCH   9  11
HETATM   11  C   UNL     1      13.685   3.391  92.893  1.00  0.00     0.172 C 
BRANCH  11  12
HETATM   12  C   UNL     1      14.187   2.678  91.631  1.00  0.00     0.136 C 
HETATM   13  C   UNL     1      14.230   3.599  90.418  1.00  0.00     0.034 C 
BRANCH  12  14
HETATM   14  O   UNL     1      15.495   2.158  91.865  1.00  0.00    -0.383 OA
HETATM   15  H   UNL     1      15.457   1.190  91.785  1.00  0.00     0.210 HD
ENDBRANCH  12  14
ENDBRANCH  11  12
BRANCH  11  16
HETATM   16  C   UNL     1      14.812   4.151  93.585  1.00  0.00     0.398 A 
HETATM   17  O   UNL     1      15.378   5.118  93.079  1.00  0.00    -0.136 OA
HETATM   18  N   UNL     1      16.396   4.180  93.708  1.00  0.00     0.142 N 
HETATM   19  HN  UNL     1      17.014   4.875  93.396  1.00  0.00     0.338 HD
BRANCH  18  20
HETATM   20  S   UNL     1      16.594   2.869  94.124  1.00  0.00     0.076 SA
HETATM   21  H   UNL     1      16.326   2.017  93.340  1.00  0.00     0.136 HD
ENDBRANCH  18  20
ENDBRANCH  11  16
ENDBRANCH   9  11
ENDBRANCH   1   7
BRANCH   4  22
HETATM   22  C   UNL     1       7.625   8.086  91.250  1.00  0.00    -0.059 C 
HETATM   23  C   UNL     1       6.840   8.967  91.018  1.00  0.00    -0.059 C 
BRANCH  23  24
HETATM   24  C   UNL     1       5.905  10.014  90.742  1.00  0.00     0.042 A 
HETATM   25  C   UNL     1       6.236  11.021  89.836  1.00  0.00     0.008 A 
HETATM   26  C   UNL     1       5.326  12.044  89.569  1.00  0.00    -0.002 A 
HETATM   27  C   UNL     1       4.084  12.057  90.206  1.00  0.00     0.011 A 
HETATM   28  C   UNL     1       3.755  11.048  91.111  1.00  0.00    -0.002 A 
HETATM   29  C   UNL     1       4.666  10.027  91.379  1.00  0.00     0.008 A 
BRANCH  27  30
HETATM   30  C   UNL     1       3.111  13.149  89.917  1.00  0.00     0.277 C 
BRANCH  30  31
HETATM   31  N   UNL     1       3.045  14.135  90.995  1.00  0.00     0.147 N 
HETATM   32  C   UNL     1       2.014  13.766  91.974  1.00  0.00     0.283 C 
HETATM   33  C   UNL     1       1.970  14.803  93.094  1.00  0.00     0.178 C 
HETATM   34  O   UNL     1       3.247  14.904  93.728  1.00  0.00    -0.350 OA
HETATM   35  C   UNL     1       4.250  15.292  92.788  1.00  0.00     0.178 C 
HETATM   36  C   UNL     1       4.348  14.269  91.661  1.00  0.00     0.283 C 
ENDBRANCH  30  31
ENDBRANCH  27  30
ENDBRANCH  23  24
ENDBRANCH   4  22
TORSDOF 10
ENDMDL
MODEL 8
REMARK VINA RESULT:      -5.4      3.758     12.597
REMARK  10 active torsions:
REMARK  status: ('A' for Active; 'I' for Inactive)
REMARK    1  A    between atoms: O_2  and  C_16 
REMARK    2  A    between atoms: N_5  and  C_9 
REMARK    3  A    between atoms: N_6  and  C_13 
REMARK       I    between atoms: N_6  and  C_22 
REMARK    4  A    between atoms: C_9  and  C_12 
REMARK    5  A    between atoms: C_13  and  C_16 
REMARK    6  A    between atoms: C_13  and  C_21 
REMARK    7  A    between atoms: C_19  and  C_24 
REMARK    8  A    between atoms: C_22  and  C_23 
REMARK    9  A    between atoms: C_27  and  C_30 
REMARK   10  A    between atoms: N_33  and  S_34 
ROOT
HETATM    1  C   UNL     1      10.391   4.668  92.607  1.00  0.00     0.056 A 
HETATM    2  C   UNL     1       9.409   4.506  91.653  1.00  0.00     0.005 A 
HETATM    3  C   UNL     1      10.408   5.744  93.470  1.00  0.00     0.005 A 
HETATM    4  C   UNL     1       8.394   6.560  92.417  1.00  0.00     0.042 A 
HETATM    5  C   UNL     1       8.399   5.463  91.555  1.00  0.00     0.008 A 
HETATM    6  C   UNL     1       9.398   6.701  93.374  1.00  0.00     0.008 A 
ENDROOT
BRANCH   1   7
HETATM    7  C   UNL     1      11.467   3.648  92.711  1.00  0.00     0.254 C 
HETATM    8  O   UNL     1      11.191   2.465  92.525  1.00  0.00    -0.268 OA
HETATM    9  N   UNL     1      12.737   4.130  92.995  1.00  0.00    -0.337 N 
HETATM   10  HN  UNL     1      12.894   5.124  93.112  1.00  0.00     0.164 HD
BRANCH   9  11
HETATM   11  C   UNL     1      13.887   3.269  93.104  1.00  0.00     0.172 C 
BRANCH  11  12
HETATM   12  C   UNL     1      14.334   2.702  91.751  1.00  0.00     0.136 C 
HETATM   13  C   UNL     1      14.295   3.745  90.639  1.00  0.00     0.034 C 
BRANCH  12  14
HETATM   14  O   UNL     1      15.663   2.193  91.862  1.00  0.00    -0.383 OA
HETATM   15  H   UNL     1      15.937   1.862  90.990  1.00  0.00     0.210 HD
ENDBRANCH  12  14
ENDBRANCH  11  12
BRANCH  11  16
HETATM   16  C   UNL     1      15.005   4.066  93.768  1.00  0.00     0.398 A 
HETATM   17  O   UNL     1      15.472   5.095  93.284  1.00  0.00    -0.136 OA
HETATM   18  N   UNL     1      16.587   4.197  93.795  1.00  0.00     0.142 N 
HETATM   19  HN  UNL     1      17.138   4.948  93.486  1.00  0.00     0.338 HD
BRANCH  18  20
HETATM   20  S   UNL     1      16.897   2.882  94.124  1.00  0.00     0.076 SA
HETATM   21  H   UNL     1      17.247   2.682  95.242  1.00  0.00     0.136 HD
ENDBRANCH  18  20
ENDBRANCH  11  16
ENDBRANCH   9  11
ENDBRANCH   1   7
BRANCH   4  22
HETATM   22  C   UNL     1       7.360   7.542  92.316  1.00  0.00    -0.059 C 
HETATM   23  C   UNL     1       6.490   8.369  92.230  1.00  0.00    -0.059 C 
BRANCH  23  24
HETATM   24  C   UNL     1       5.456   9.352  92.128  1.00  0.00     0.042 A 
HETATM   25  C   UNL     1       5.380  10.383  93.064  1.00  0.00     0.008 A 
HETATM   26  C   UNL     1       4.370  11.340  92.966  1.00  0.00    -0.002 A 
HETATM   27  C   UNL     1       3.438  11.266  91.930  1.00  0.00     0.011 A 
HETATM   28  C   UNL     1       3.515  10.234  90.995  1.00  0.00    -0.002 A 
HETATM   29  C   UNL     1       4.525   9.277  91.094  1.00  0.00     0.008 A 
BRANCH  27  30
HETATM   30  C   UNL     1       2.360  12.291  91.825  1.00  0.00     0.277 C 
BRANCH  30  31
HETATM   31  N   UNL     1       2.880  13.611  91.471  1.00  0.00     0.147 N 
HETATM   32  C   UNL     1       3.559  14.227  92.619  1.00  0.00     0.283 C 
HETATM   33  C   UNL     1       4.102  15.598  92.223  1.00  0.00     0.178 C 
HETATM   34  O   UNL     1       5.000  15.477  91.118  1.00  0.00    -0.350 OA
HETATM   35  C   UNL     1       4.338  14.907  89.988  1.00  0.00     0.178 C 
HETATM   36  C   UNL     1       3.801  13.521  90.330  1.00  0.00     0.283 C 
ENDBRANCH  30  31
ENDBRANCH  27  30
ENDBRANCH  23  24
ENDBRANCH   4  22
TORSDOF 10
ENDMDL
MODEL 9
REMARK VINA RESULT:      -5.2      2.554      3.428
REMARK  10 active torsions:
REMARK  status: ('A' for Active; 'I' for Inactive)
REMARK    1  A    between atoms: O_2  and  C_16 
REMARK    2  A    between atoms: N_5  and  C_9 
REMARK    3  A    between atoms: N_6  and  C_13 
REMARK       I    between atoms: N_6  and  C_22 
REMARK    4  A    between atoms: C_9  and  C_12 
REMARK    5  A    between atoms: C_13  and  C_16 
REMARK    6  A    between atoms: C_13  and  C_21 
REMARK    7  A    between atoms: C_19  and  C_24 
REMARK    8  A    between atoms: C_22  and  C_23 
REMARK    9  A    between atoms: C_27  and  C_30 
REMARK   10  A    between atoms: N_33  and  S_34 
ROOT
HETATM    1  C   UNL     1       6.037   8.881  89.277  1.00  0.00     0.056 A 
HETATM    2  C   UNL     1       5.643   7.699  89.868  1.00  0.00     0.005 A 
HETATM    3  C   UNL     1       7.360   9.268  89.217  1.00  0.00     0.005 A 
HETATM    4  C   UNL     1       7.958   7.235  90.376  1.00  0.00     0.042 A 
HETATM    5  C   UNL     1       6.613   6.865  90.424  1.00  0.00     0.008 A 
HETATM    6  C   UNL     1       8.331   8.435  89.773  1.00  0.00     0.008 A 
ENDROOT
BRANCH   1   7
HETATM    7  C   UNL     1       5.003   9.767  88.683  1.00  0.00     0.254 C 
HETATM    8  O   UNL     1       5.042  10.011  87.480  1.00  0.00    -0.268 OA
HETATM    9  N   UNL     1       4.034  10.241  89.556  1.00  0.00    -0.337 N 
HETATM   10  HN  UNL     1       4.052   9.977  90.534  1.00  0.00     0.164 HD
BRANCH   9  11
HETATM   11  C   UNL     1       2.952  11.090  89.127  1.00  0.00     0.172 C 
BRANCH  11  12
HETATM   12  C   UNL     1       3.397  12.537  88.875  1.00  0.00     0.136 C 
HETATM   13  C   UNL     1       4.161  13.127  90.055  1.00  0.00     0.034 C 
BRANCH  12  14
HETATM   14  O   UNL     1       4.226  12.586  87.714  1.00  0.00    -0.383 OA
HETATM   15  H   UNL     1       4.558  11.689  87.539  1.00  0.00     0.210 HD
ENDBRANCH  12  14
ENDBRANCH  11  12
BRANCH  11  16
HETATM   16  C   UNL     1       2.343  10.471  87.874  1.00  0.00     0.398 A 
HETATM   17  O   UNL     1       1.403  10.978  87.265  1.00  0.00    -0.136 OA
HETATM   18  N   UNL     1       1.189   9.481  87.414  1.00  0.00     0.142 N 
HETATM   19  HN  UNL     1       0.381   9.690  86.898  1.00  0.00     0.338 HD
BRANCH  18  20
HETATM   20  S   UNL     1       1.556   8.373  88.170  1.00  0.00     0.076 SA
HETATM   21  H   UNL     1       2.105   8.592  89.201  1.00  0.00     0.136 HD
ENDBRANCH  18  20
ENDBRANCH  11  16
ENDBRANCH   9  11
ENDBRANCH   1   7
BRANCH   4  22
HETATM   22  C   UNL     1       8.952   6.382  90.949  1.00  0.00    -0.059 C 
HETATM   23  C   UNL     1       9.790   5.666  91.430  1.00  0.00    -0.059 C 
BRANCH  23  24
HETATM   24  C   UNL     1      10.786   4.814  92.004  1.00  0.00     0.042 A 
HETATM   25  C   UNL     1      11.520   3.954  91.188  1.00  0.00     0.008 A 
HETATM   26  C   UNL     1      12.490   3.122  91.747  1.00  0.00    -0.002 A 
HETATM   27  C   UNL     1      12.725   3.151  93.122  1.00  0.00     0.011 A 
HETATM   28  C   UNL     1      11.989   4.012  93.937  1.00  0.00    -0.002 A 
HETATM   29  C   UNL     1      11.020   4.843  93.377  1.00  0.00     0.008 A 
BRANCH  27  30
HETATM   30  C   UNL     1      13.763   2.263  93.718  1.00  0.00     0.277 C 
BRANCH  30  31
HETATM   31  N   UNL     1      14.961   2.998  94.121  1.00  0.00     0.147 N 
HETATM   32  C   UNL     1      16.175   2.292  93.688  1.00  0.00     0.283 C 
HETATM   33  C   UNL     1      17.411   3.083  94.109  1.00  0.00     0.178 C 
HETATM   34  O   UNL     1      17.373   4.398  93.552  1.00  0.00    -0.350 OA
HETATM   35  C   UNL     1      16.212   5.102  93.993  1.00  0.00     0.178 C 
HETATM   36  C   UNL     1      14.948   4.360  93.570  1.00  0.00     0.283 C 
ENDBRANCH  30  31
ENDBRANCH  27  30
ENDBRANCH  23  24
ENDBRANCH   4  22
TORSDOF 10
ENDMDL
