MODEL 1
REMARK VINA RESULT:      -7.6      0.000      0.000
REMARK  9 active torsions:
REMARK  status: ('A' for Active; 'I' for Inactive)
REMARK    1  A    between atoms: N_3  and  C_6 
REMARK    2  A    between atoms: C_6  and  C_9 
REMARK    3  A    between atoms: C_14  and  C_17 
REMARK       I    between atoms: N_26  and  C_15 
REMARK    4  A    between atoms: C_15  and  C_16 
REMARK    5  A    between atoms: C_20  and  C_23 
REMARK    6  A    between atoms: OG1_24  and  CB_28 
REMARK    7  A    between atoms: N_26  and  CA_27 
REMARK    8  A    between atoms: CA_27  and  CB_28 
REMARK    9  A    between atoms: CA_27  and  C_30 
ROOT
HETATM    1  O   UNK A   0       1.914   8.194  87.934  1.00  0.00    -0.388 OA
HETATM    2  N   UNK A   0       4.695   7.619  87.739  1.00  0.00     0.096 N 
HETATM    3  C   UNK A   0       4.198   9.001  87.786  1.00  0.00     0.299 C 
HETATM    4  C   UNK A   0       3.684   6.741  87.134  1.00  0.00     0.299 C 
HETATM    5  C   UNK A   0       2.877   9.050  88.551  1.00  0.00     0.198 C 
HETATM    6  C   UNK A   0       2.377   6.843  87.912  1.00  0.00     0.198 C 
ENDROOT
BRANCH   2   7
HETATM    7  C   UNK A   0       5.955   7.548  87.002  1.00  0.00     0.311 C 
BRANCH   7   8
HETATM    8  C   UNK A   0       7.052   6.943  87.810  1.00  0.00    -0.030 A 
HETATM    9  C   UNK A   0       6.860   6.694  89.170  1.00  0.00     0.010 A 
HETATM   10  C   UNK A   0       7.887   6.131  89.927  1.00  0.00     0.021 A 
HETATM   11  C   UNK A   0       9.104   5.815  89.324  1.00  0.00     0.018 A 
HETATM   12  C   UNK A   0       9.297   6.063  87.967  1.00  0.00     0.021 A 
HETATM   13  C   UNK A   0       8.271   6.627  87.209  1.00  0.00     0.010 A 
BRANCH  11  14
HETATM   14  C   UNK A   0      10.156   5.235  90.101  1.00  0.00    -0.061 C 
HETATM   15  C   UNK A   0      11.041   4.748  90.754  1.00  0.00    -0.061 C 
BRANCH  15  16
HETATM   16  C   UNK A   0      12.092   4.169  91.531  1.00  0.00     0.018 A 
HETATM   17  C   UNK A   0      13.349   3.967  90.961  1.00  0.00     0.022 A 
HETATM   18  C   UNK A   0      14.376   3.405  91.720  1.00  0.00     0.018 A 
HETATM   19  C   UNK A   0      14.122   3.058  93.031  1.00  0.00     0.032 A 
HETATM   20  C   UNK A   0      12.888   3.247  93.617  1.00  0.00     0.018 A 
HETATM   21  C   UNK A   0      11.861   3.810  92.859  1.00  0.00     0.022 A 
BRANCH  19  22
HETATM   22  C   UNK A   0      15.215   2.457  93.838  1.00  0.00     0.252 C 
HETATM   23  O   UNK A   0      16.359   2.887  93.714  1.00  0.00    -0.268 OA
ENDBRANCH  19  22
ENDBRANCH  15  16
ENDBRANCH  11  14
ENDBRANCH   7   8
ENDBRANCH   2   7
TORSDOF 9
ENDMDL
MODEL 2
REMARK VINA RESULT:      -7.6      0.099      1.012
REMARK  9 active torsions:
REMARK  status: ('A' for Active; 'I' for Inactive)
REMARK    1  A    between atoms: N_3  and  C_6 
REMARK    2  A    between atoms: C_6  and  C_9 
REMARK    3  A    between atoms: C_14  and  C_17 
REMARK       I    between atoms: N_26  and  C_15 
REMARK    4  A    between atoms: C_15  and  C_16 
REMARK    5  A    between atoms: C_20  and  C_23 
REMARK    6  A    between atoms: OG1_24  and  CB_28 
REMARK    7  A    between atoms: N_26  and  CA_27 
REMARK    8  A    between atoms: CA_27  and  CB_28 
REMARK    9  A    between atoms: CA_27  and  C_30 
ROOT
HETATM    1  O   UNK A   0       1.935   8.045  87.825  1.00  0.00    -0.388 OA
HETATM    2  N   UNK A   0       4.732   7.534  87.684  1.00  0.00     0.096 N 
HETATM    3  C   UNK A   0       4.204   8.903  87.766  1.00  0.00     0.299 C 
HETATM    4  C   UNK A   0       3.756   6.658  87.021  1.00  0.00     0.299 C 
HETATM    5  C   UNK A   0       2.864   8.898  88.497  1.00  0.00     0.198 C 
HETATM    6  C   UNK A   0       2.427   6.706  87.768  1.00  0.00     0.198 C 
ENDROOT
BRANCH   2   7
HETATM    7  C   UNK A   0       6.012   7.514  86.978  1.00  0.00     0.311 C 
BRANCH   7   8
HETATM    8  C   UNK A   0       7.102   6.910  87.796  1.00  0.00    -0.030 A 
HETATM    9  C   UNK A   0       8.331   6.611  87.206  1.00  0.00     0.010 A 
HETATM   10  C   UNK A   0       9.351   6.044  87.970  1.00  0.00     0.021 A 
HETATM   11  C   UNK A   0       9.142   5.779  89.323  1.00  0.00     0.018 A 
HETATM   12  C   UNK A   0       7.916   6.078  89.913  1.00  0.00     0.021 A 
HETATM   13  C   UNK A   0       6.895   6.644  89.150  1.00  0.00     0.010 A 
BRANCH  11  14
HETATM   14  C   UNK A   0      10.189   5.199  90.107  1.00  0.00    -0.061 C 
HETATM   15  C   UNK A   0      11.069   4.711  90.766  1.00  0.00    -0.061 C 
BRANCH  15  16
HETATM   16  C   UNK A   0      12.115   4.131  91.549  1.00  0.00     0.018 A 
HETATM   17  C   UNK A   0      13.382   3.948  90.993  1.00  0.00     0.022 A 
HETATM   18  C   UNK A   0      14.403   3.385  91.758  1.00  0.00     0.018 A 
HETATM   19  C   UNK A   0      14.136   3.018  93.061  1.00  0.00     0.032 A 
HETATM   20  C   UNK A   0      12.892   3.189  93.633  1.00  0.00     0.018 A 
HETATM   21  C   UNK A   0      11.870   3.752  92.869  1.00  0.00     0.022 A 
BRANCH  19  22
HETATM   22  C   UNK A   0      15.223   2.416  93.874  1.00  0.00     0.252 C 
HETATM   23  O   UNK A   0      16.387   2.746  93.658  1.00  0.00    -0.268 OA
ENDBRANCH  19  22
ENDBRANCH  15  16
ENDBRANCH  11  14
ENDBRANCH   7   8
ENDBRANCH   2   7
TORSDOF 9
ENDMDL
MODEL 3
REMARK VINA RESULT:      -6.9      1.543      2.163
REMARK  9 active torsions:
REMARK  status: ('A' for Active; 'I' for Inactive)
REMARK    1  A    between atoms: N_3  and  C_6 
REMARK    2  A    between atoms: C_6  and  C_9 
REMARK    3  A    between atoms: C_14  and  C_17 
REMARK       I    between atoms: N_26  and  C_15 
REMARK    4  A    between atoms: C_15  and  C_16 
REMARK    5  A    between atoms: C_20  and  C_23 
REMARK    6  A    between atoms: OG1_24  and  CB_28 
REMARK    7  A    between atoms: N_26  and  CA_27 
REMARK    8  A    between atoms: CA_27  and  CB_28 
REMARK    9  A    between atoms: CA_27  and  C_30 
ROOT
HETATM    1  O   UNK A   0       2.757  11.252  89.946  1.00  0.00    -0.388 OA
HETATM    2  N   UNK A   0       4.595   9.340  88.915  1.00  0.00     0.096 N 
HETATM    3  C   UNK A   0       3.808  10.205  88.025  1.00  0.00     0.299 C 
HETATM    4  C   UNK A   0       3.863   9.105  90.167  1.00  0.00     0.299 C 
HETATM    5  C   UNK A   0       3.475  11.513  88.739  1.00  0.00     0.198 C 
HETATM    6  C   UNK A   0       3.529  10.437  90.829  1.00  0.00     0.198 C 
ENDROOT
BRANCH   2   7
HETATM    7  C   UNK A   0       4.917   8.075  88.255  1.00  0.00     0.311 C 
BRANCH   7   8
HETATM    8  C   UNK A   0       6.126   7.424  88.834  1.00  0.00    -0.030 A 
HETATM    9  C   UNK A   0       6.006   6.211  89.514  1.00  0.00     0.010 A 
HETATM   10  C   UNK A   0       7.136   5.601  90.058  1.00  0.00     0.021 A 
HETATM   11  C   UNK A   0       8.386   6.204  89.920  1.00  0.00     0.018 A 
HETATM   12  C   UNK A   0       8.507   7.415  89.242  1.00  0.00     0.021 A 
HETATM   13  C   UNK A   0       7.377   8.025  88.698  1.00  0.00     0.010 A 
BRANCH  11  14
HETATM   14  C   UNK A   0       9.546   5.578  90.477  1.00  0.00    -0.061 C 
HETATM   15  C   UNK A   0      10.520   5.051  90.945  1.00  0.00    -0.061 C 
BRANCH  15  16
HETATM   16  C   UNK A   0      11.679   4.424  91.501  1.00  0.00     0.018 A 
HETATM   17  C   UNK A   0      11.655   3.958  92.815  1.00  0.00     0.022 A 
HETATM   18  C   UNK A   0      12.785   3.344  93.357  1.00  0.00     0.018 A 
HETATM   19  C   UNK A   0      13.911   3.210  92.572  1.00  0.00     0.032 A 
HETATM   20  C   UNK A   0      13.960   3.663  91.271  1.00  0.00     0.018 A 
HETATM   21  C   UNK A   0      12.831   4.278  90.728  1.00  0.00     0.022 A 
BRANCH  19  22
HETATM   22  C   UNK A   0      15.115   2.558  93.150  1.00  0.00     0.252 C 
HETATM   23  O   UNK A   0      16.034   3.258  93.568  1.00  0.00    -0.268 OA
ENDBRANCH  19  22
ENDBRANCH  15  16
ENDBRANCH  11  14
ENDBRANCH   7   8
ENDBRANCH   2   7
TORSDOF 9
ENDMDL
MODEL 4
REMARK VINA RESULT:      -6.8      1.412      1.742
REMARK  9 active torsions:
REMARK  status: ('A' for Active; 'I' for Inactive)
REMARK    1  A    between atoms: N_3  and  C_6 
REMARK    2  A    between atoms: C_6  and  C_9 
REMARK    3  A    between atoms: C_14  and  C_17 
REMARK       I    between atoms: N_26  and  C_15 
REMARK    4  A    between atoms: C_15  and  C_16 
REMARK    5  A    between atoms: C_20  and  C_23 
REMARK    6  A    between atoms: OG1_24  and  CB_28 
REMARK    7  A    between atoms: N_26  and  CA_27 
REMARK    8  A    between atoms: CA_27  and  CB_28 
REMARK    9  A    between atoms: CA_27  and  C_30 
ROOT
HETATM    1  O   UNK A   0       2.694  11.139  89.532  1.00  0.00    -0.388 OA
HETATM    2  N   UNK A   0       4.587   9.152  88.776  1.00  0.00     0.096 N 
HETATM    3  C   UNK A   0       4.059  10.120  87.804  1.00  0.00     0.299 C 
HETATM    4  C   UNK A   0       3.594   8.906  89.832  1.00  0.00     0.299 C 
HETATM    5  C   UNK A   0       3.665  11.409  88.520  1.00  0.00     0.198 C 
HETATM    6  C   UNK A   0       3.210  10.223  90.499  1.00  0.00     0.198 C 
ENDROOT
BRANCH   2   7
HETATM    7  C   UNK A   0       4.961   7.904  88.114  1.00  0.00     0.311 C 
BRANCH   7   8
HETATM    8  C   UNK A   0       6.175   7.283  88.717  1.00  0.00    -0.030 A 
HETATM    9  C   UNK A   0       6.048   6.166  89.544  1.00  0.00     0.010 A 
HETATM   10  C   UNK A   0       7.183   5.586  90.110  1.00  0.00     0.021 A 
HETATM   11  C   UNK A   0       8.444   6.121  89.848  1.00  0.00     0.018 A 
HETATM   12  C   UNK A   0       8.571   7.236  89.022  1.00  0.00     0.021 A 
HETATM   13  C   UNK A   0       7.437   7.817  88.456  1.00  0.00     0.010 A 
BRANCH  11  14
HETATM   14  C   UNK A   0       9.608   5.524  90.427  1.00  0.00    -0.061 C 
HETATM   15  C   UNK A   0      10.585   5.022  90.915  1.00  0.00    -0.061 C 
BRANCH  15  16
HETATM   16  C   UNK A   0      11.748   4.425  91.494  1.00  0.00     0.018 A 
HETATM   17  C   UNK A   0      12.916   4.300  90.741  1.00  0.00     0.022 A 
HETATM   18  C   UNK A   0      14.051   3.720  91.308  1.00  0.00     0.018 A 
HETATM   19  C   UNK A   0      13.993   3.279  92.613  1.00  0.00     0.032 A 
HETATM   20  C   UNK A   0      12.851   3.391  93.378  1.00  0.00     0.018 A 
HETATM   21  C   UNK A   0      11.715   3.970  92.813  1.00  0.00     0.022 A 
BRANCH  19  22
HETATM   22  C   UNK A   0      15.202   2.659  93.215  1.00  0.00     0.252 C 
HETATM   23  O   UNK A   0      16.062   3.382  93.713  1.00  0.00    -0.268 OA
ENDBRANCH  19  22
ENDBRANCH  15  16
ENDBRANCH  11  14
ENDBRANCH   7   8
ENDBRANCH   2   7
TORSDOF 9
ENDMDL
MODEL 5
REMARK VINA RESULT:      -6.6      3.880     10.405
REMARK  9 active torsions:
REMARK  status: ('A' for Active; 'I' for Inactive)
REMARK    1  A    between atoms: N_3  and  C_6 
REMARK    2  A    between atoms: C_6  and  C_9 
REMARK    3  A    between atoms: C_14  and  C_17 
REMARK       I    between atoms: N_26  and  C_15 
REMARK    4  A    between atoms: C_15  and  C_16 
REMARK    5  A    between atoms: C_20  and  C_23 
REMARK    6  A    between atoms: OG1_24  and  CB_28 
REMARK    7  A    between atoms: N_26  and  CA_27 
REMARK    8  A    between atoms: CA_27  and  CB_28 
REMARK    9  A    between atoms: CA_27  and  C_30 
ROOT
HETATM    1  O   UNK A   0      14.617   3.323  92.071  1.00  0.00    -0.388 OA
HETATM    2  N   UNK A   0      11.908   4.158  92.324  1.00  0.00     0.096 N 
HETATM    3  C   UNK A   0      12.539   3.285  93.324  1.00  0.00     0.299 C 
HETATM    4  C   UNK A   0      12.527   3.946  91.008  1.00  0.00     0.299 C 
HETATM    5  C   UNK A   0      14.043   3.545  93.360  1.00  0.00     0.198 C 
HETATM    6  C   UNK A   0      14.030   4.189  91.099  1.00  0.00     0.198 C 
ENDROOT
BRANCH   2   7
HETATM    7  C   UNK A   0      10.467   3.918  92.265  1.00  0.00     0.311 C 
BRANCH   7   8
HETATM    8  C   UNK A   0       9.697   5.158  91.961  1.00  0.00    -0.030 A 
HETATM    9  C   UNK A   0      10.009   6.350  92.616  1.00  0.00     0.010 A 
HETATM   10  C   UNK A   0       9.288   7.510  92.334  1.00  0.00     0.021 A 
HETATM   11  C   UNK A   0       8.257   7.478  91.396  1.00  0.00     0.018 A 
HETATM   12  C   UNK A   0       7.944   6.288  90.741  1.00  0.00     0.021 A 
HETATM   13  C   UNK A   0       8.664   5.128  91.023  1.00  0.00     0.010 A 
BRANCH  11  14
HETATM   14  C   UNK A   0       7.519   8.669  91.105  1.00  0.00    -0.061 C 
HETATM   15  C   UNK A   0       6.898   9.669  90.861  1.00  0.00    -0.061 C 
BRANCH  15  16
HETATM   16  C   UNK A   0       6.161  10.860  90.572  1.00  0.00     0.018 A 
HETATM   17  C   UNK A   0       6.323  11.496  89.341  1.00  0.00     0.022 A 
HETATM   18  C   UNK A   0       5.601  12.656  89.057  1.00  0.00     0.018 A 
HETATM   19  C   UNK A   0       4.735  13.152  90.009  1.00  0.00     0.032 A 
HETATM   20  C   UNK A   0       4.559  12.542  91.233  1.00  0.00     0.018 A 
HETATM   21  C   UNK A   0       5.280  11.382  91.518  1.00  0.00     0.022 A 
BRANCH  19  22
HETATM   22  C   UNK A   0       3.969  14.389  89.707  1.00  0.00     0.252 C 
HETATM   23  O   UNK A   0       4.549  15.472  89.716  1.00  0.00    -0.268 OA
ENDBRANCH  19  22
ENDBRANCH  15  16
ENDBRANCH  11  14
ENDBRANCH   7   8
ENDBRANCH   2   7
TORSDOF 9
ENDMDL
MODEL 6
REMARK VINA RESULT:      -6.4      1.745      2.671
REMARK  9 active torsions:
REMARK  status: ('A' for Active; 'I' for Inactive)
REMARK    1  A    between atoms: N_3  and  C_6 
REMARK    2  A    between atoms: C_6  and  C_9 
REMARK    3  A    between atoms: C_14  and  C_17 
REMARK       I    between atoms: N_26  and  C_15 
REMARK    4  A    between atoms: C_15  and  C_16 
REMARK    5  A    between atoms: C_20  and  C_23 
REMARK    6  A    between atoms: OG1_24  and  CB_28 
REMARK    7  A    between atoms: N_26  and  CA_27 
REMARK    8  A    between atoms: CA_27  and  CB_28 
REMARK    9  A    between atoms: CA_27  and  C_30 
ROOT
HETATM    1  O   UNK A   0       2.185   8.963  87.854  1.00  0.00    -0.388 OA
HETATM    2  N   UNK A   0       3.853   7.930  89.916  1.00  0.00     0.096 N 
HETATM    3  C   UNK A   0       2.623   7.239  89.505  1.00  0.00     0.299 C 
HETATM    4  C   UNK A   0       3.718   9.375  89.688  1.00  0.00     0.299 C 
HETATM    5  C   UNK A   0       2.318   7.553  88.042  1.00  0.00     0.198 C 
HETATM    6  C   UNK A   0       3.387   9.639  88.222  1.00  0.00     0.198 C 
ENDROOT
BRANCH   2   7
HETATM    7  C   UNK A   0       4.158   7.652  91.318  1.00  0.00     0.311 C 
BRANCH   7   8
HETATM    8  C   UNK A   0       5.510   7.048  91.496  1.00  0.00    -0.030 A 
HETATM    9  C   UNK A   0       6.021   6.851  92.779  1.00  0.00     0.010 A 
HETATM   10  C   UNK A   0       7.287   6.288  92.946  1.00  0.00     0.021 A 
HETATM   11  C   UNK A   0       8.038   5.921  91.831  1.00  0.00     0.018 A 
HETATM   12  C   UNK A   0       7.528   6.117  90.549  1.00  0.00     0.021 A 
HETATM   13  C   UNK A   0       6.264   6.681  90.381  1.00  0.00     0.010 A 
BRANCH  11  14
HETATM   14  C   UNK A   0       9.335   5.342  92.003  1.00  0.00    -0.061 C 
HETATM   15  C   UNK A   0      10.426   4.856  92.146  1.00  0.00    -0.061 C 
BRANCH  15  16
HETATM   16  C   UNK A   0      11.722   4.278  92.318  1.00  0.00     0.018 A 
HETATM   17  C   UNK A   0      12.081   3.727  93.549  1.00  0.00     0.022 A 
HETATM   18  C   UNK A   0      13.345   3.161  93.715  1.00  0.00     0.018 A 
HETATM   19  C   UNK A   0      14.220   3.157  92.649  1.00  0.00     0.032 A 
HETATM   20  C   UNK A   0      13.889   3.696  91.423  1.00  0.00     0.018 A 
HETATM   21  C   UNK A   0      12.625   4.262  91.255  1.00  0.00     0.022 A 
BRANCH  19  22
HETATM   22  C   UNK A   0      15.567   2.556  92.827  1.00  0.00     0.252 C 
HETATM   23  O   UNK A   0      16.131   2.660  93.914  1.00  0.00    -0.268 OA
ENDBRANCH  19  22
ENDBRANCH  15  16
ENDBRANCH  11  14
ENDBRANCH   7   8
ENDBRANCH   2   7
TORSDOF 9
ENDMDL
MODEL 7
REMARK VINA RESULT:      -6.3      1.600      2.355
REMARK  9 active torsions:
REMARK  status: ('A' for Active; 'I' for Inactive)
REMARK    1  A    between atoms: N_3  and  C_6 
REMARK    2  A    between atoms: C_6  and  C_9 
REMARK    3  A    between atoms: C_14  and  C_17 
REMARK       I    between atoms: N_26  and  C_15 
REMARK    4  A    between atoms: C_15  and  C_16 
REMARK    5  A    between atoms: C_20  and  C_23 
REMARK    6  A    between atoms: OG1_24  and  CB_28 
REMARK    7  A    between atoms: N_26  and  CA_27 
REMARK    8  A    between atoms: CA_27  and  CB_28 
REMARK    9  A    between atoms: CA_27  and  C_30 
ROOT
HETATM    1  O   UNK A   0       3.979   6.822  86.743  1.00  0.00    -0.388 OA
HETATM    2  N   UNK A   0       4.570   8.659  88.835  1.00  0.00     0.096 N 
HETATM    3  C   UNK A   0       5.627   8.110  87.974  1.00  0.00     0.299 C 
HETATM    4  C   UNK A   0       3.461   7.702  88.943  1.00  0.00     0.299 C 
HETATM    5  C   UNK A   0       5.048   7.760  86.605  1.00  0.00     0.198 C 
HETATM    6  C   UNK A   0       2.934   7.360  87.553  1.00  0.00     0.198 C 
ENDROOT
BRANCH   2   7
HETATM    7  C   UNK A   0       5.100   8.993  90.156  1.00  0.00     0.311 C 
BRANCH   7   8
HETATM    8  C   UNK A   0       6.307   8.189  90.503  1.00  0.00    -0.030 A 
HETATM    9  C   UNK A   0       7.580   8.737  90.340  1.00  0.00     0.010 A 
HETATM   10  C   UNK A   0       8.709   7.986  90.662  1.00  0.00     0.021 A 
HETATM   11  C   UNK A   0       8.566   6.687  91.150  1.00  0.00     0.018 A 
HETATM   12  C   UNK A   0       7.295   6.139  91.314  1.00  0.00     0.021 A 
HETATM   13  C   UNK A   0       6.165   6.890  90.991  1.00  0.00     0.010 A 
BRANCH  11  14
HETATM   14  C   UNK A   0       9.725   5.917  91.483  1.00  0.00    -0.061 C 
HETATM   15  C   UNK A   0      10.699   5.269  91.762  1.00  0.00    -0.061 C 
BRANCH  15  16
HETATM   16  C   UNK A   0      11.857   4.500  92.093  1.00  0.00     0.018 A 
HETATM   17  C   UNK A   0      11.986   3.950  93.369  1.00  0.00     0.022 A 
HETATM   18  C   UNK A   0      13.115   3.197  93.692  1.00  0.00     0.018 A 
HETATM   19  C   UNK A   0      14.089   3.012  92.733  1.00  0.00     0.032 A 
HETATM   20  C   UNK A   0      13.985   3.545  91.465  1.00  0.00     0.018 A 
HETATM   21  C   UNK A   0      12.857   4.298  91.142  1.00  0.00     0.022 A 
BRANCH  19  22
HETATM   22  C   UNK A   0      15.292   2.211  93.078  1.00  0.00     0.252 C 
HETATM   23  O   UNK A   0      16.283   2.782  93.529  1.00  0.00    -0.268 OA
ENDBRANCH  19  22
ENDBRANCH  15  16
ENDBRANCH  11  14
ENDBRANCH   7   8
ENDBRANCH   2   7
TORSDOF 9
ENDMDL
MODEL 8
REMARK VINA RESULT:      -6.2      2.987      3.906
REMARK  9 active torsions:
REMARK  status: ('A' for Active; 'I' for Inactive)
REMARK    1  A    between atoms: N_3  and  C_6 
REMARK    2  A    between atoms: C_6  and  C_9 
REMARK    3  A    between atoms: C_14  and  C_17 
REMARK       I    between atoms: N_26  and  C_15 
REMARK    4  A    between atoms: C_15  and  C_16 
REMARK    5  A    between atoms: C_20  and  C_23 
REMARK    6  A    between atoms: OG1_24  and  CB_28 
REMARK    7  A    between atoms: N_26  and  CA_27 
REMARK    8  A    between atoms: CA_27  and  CB_28 
REMARK    9  A    between atoms: CA_27  and  C_30 
ROOT
HETATM    1  O   UNK A   0       4.150  14.579  89.598  1.00  0.00    -0.388 OA
HETATM    2  N   UNK A   0       4.833  11.827  89.352  1.00  0.00     0.096 N 
HETATM    3  C   UNK A   0       4.641  12.679  88.170  1.00  0.00     0.299 C 
HETATM    4  C   UNK A   0       4.011  12.319  90.466  1.00  0.00     0.299 C 
HETATM    5  C   UNK A   0       4.970  14.128  88.518  1.00  0.00     0.198 C 
HETATM    6  C   UNK A   0       4.354  13.775  90.760  1.00  0.00     0.198 C 
ENDROOT
BRANCH   2   7
HETATM    7  C   UNK A   0       4.513  10.435  89.044  1.00  0.00     0.311 C 
BRANCH   7   8
HETATM    8  C   UNK A   0       5.595   9.497  89.461  1.00  0.00    -0.030 A 
HETATM    9  C   UNK A   0       5.329   8.132  89.572  1.00  0.00     0.010 A 
HETATM   10  C   UNK A   0       6.339   7.254  89.964  1.00  0.00     0.021 A 
HETATM   11  C   UNK A   0       7.616   7.742  90.242  1.00  0.00     0.018 A 
HETATM   12  C   UNK A   0       7.883   9.105  90.131  1.00  0.00     0.021 A 
HETATM   13  C   UNK A   0       6.872   9.983  89.740  1.00  0.00     0.010 A 
BRANCH  11  14
HETATM   14  C   UNK A   0       8.653   6.842  90.642  1.00  0.00    -0.061 C 
HETATM   15  C   UNK A   0       9.525   6.084  90.977  1.00  0.00    -0.061 C 
BRANCH  15  16
HETATM   16  C   UNK A   0      10.562   5.185  91.376  1.00  0.00     0.018 A 
HETATM   17  C   UNK A   0      10.780   4.930  92.730  1.00  0.00     0.022 A 
HETATM   18  C   UNK A   0      11.790   4.050  93.119  1.00  0.00     0.018 A 
HETATM   19  C   UNK A   0      12.558   3.445  92.147  1.00  0.00     0.032 A 
HETATM   20  C   UNK A   0      12.363   3.681  90.802  1.00  0.00     0.018 A 
HETATM   21  C   UNK A   0      11.354   4.561  90.412  1.00  0.00     0.022 A 
BRANCH  19  22
HETATM   22  C   UNK A   0      13.636   2.510  92.562  1.00  0.00     0.252 C 
HETATM   23  O   UNK A   0      14.807   2.873  92.489  1.00  0.00    -0.268 OA
ENDBRANCH  19  22
ENDBRANCH  15  16
ENDBRANCH  11  14
ENDBRANCH   7   8
ENDBRANCH   2   7
TORSDOF 9
ENDMDL
MODEL 9
REMARK VINA RESULT:      -6.1      4.748     10.038
REMARK  9 active torsions:
REMARK  status: ('A' for Active; 'I' for Inactive)
REMARK    1  A    between atoms: N_3  and  C_6 
REMARK    2  A    between atoms: C_6  and  C_9 
REMARK    3  A    between atoms: C_14  and  C_17 
REMARK       I    between atoms: N_26  and  C_15 
REMARK    4  A    between atoms: C_15  and  C_16 
REMARK    5  A    between atoms: C_20  and  C_23 
REMARK    6  A    between atoms: OG1_24  and  CB_28 
REMARK    7  A    between atoms: N_26  and  CA_27 
REMARK    8  A    between atoms: CA_27  and  CB_28 
REMARK    9  A    between atoms: CA_27  and  C_30 
ROOT
HETATM    1  O   UNK A   0      10.078   3.141  88.895  1.00  0.00    -0.388 OA
HETATM    2  N   UNK A   0       9.632   5.696  87.722  1.00  0.00     0.096 N 
HETATM    3  C   UNK A   0       8.793   5.199  88.821  1.00  0.00     0.299 C 
HETATM    4  C   UNK A   0      10.152   4.568  86.935  1.00  0.00     0.299 C 
HETATM    5  C   UNK A   0       9.595   4.229  89.686  1.00  0.00     0.198 C 
HETATM    6  C   UNK A   0      10.920   3.614  87.843  1.00  0.00     0.198 C 
ENDROOT
BRANCH   2   7
HETATM    7  C   UNK A   0       8.881   6.619  86.873  1.00  0.00     0.311 C 
BRANCH   7   8
HETATM    8  C   UNK A   0       8.163   7.660  87.663  1.00  0.00    -0.030 A 
HETATM    9  C   UNK A   0       6.774   7.601  87.792  1.00  0.00     0.010 A 
HETATM   10  C   UNK A   0       6.101   8.575  88.529  1.00  0.00     0.021 A 
HETATM   11  C   UNK A   0       6.816   9.606  89.139  1.00  0.00     0.018 A 
HETATM   12  C   UNK A   0       8.203   9.665  89.011  1.00  0.00     0.021 A 
HETATM   13  C   UNK A   0       8.876   8.691  88.273  1.00  0.00     0.010 A 
BRANCH  11  14
HETATM   14  C   UNK A   0       6.126  10.604  89.897  1.00  0.00    -0.061 C 
HETATM   15  C   UNK A   0       5.546  11.443  90.533  1.00  0.00    -0.061 C 
BRANCH  15  16
HETATM   16  C   UNK A   0       4.856  12.440  91.290  1.00  0.00     0.018 A 
HETATM   17  C   UNK A   0       4.513  13.654  90.693  1.00  0.00     0.022 A 
HETATM   18  C   UNK A   0       3.837  14.626  91.431  1.00  0.00     0.018 A 
HETATM   19  C   UNK A   0       3.519  14.363  92.746  1.00  0.00     0.032 A 
HETATM   20  C   UNK A   0       3.846  13.171  93.359  1.00  0.00     0.018 A 
HETATM   21  C   UNK A   0       4.522  12.199  92.622  1.00  0.00     0.022 A 
BRANCH  19  22
HETATM   22  C   UNK A   0       2.800  15.399  93.532  1.00  0.00     0.252 C 
HETATM   23  O   UNK A   0       1.583  15.511  93.406  1.00  0.00    -0.268 OA
ENDBRANCH  19  22
ENDBRANCH  15  16
ENDBRANCH  11  14
ENDBRANCH   7   8
ENDBRANCH   2   7
TORSDOF 9
ENDMDL
