MODEL 1
REMARK VINA RESULT:      -7.5      0.000      0.000
REMARK  9 active torsions:
REMARK  status: ('A' for Active; 'I' for Inactive)
REMARK    1  A    between atoms: N_3  and  C_6 
REMARK    2  A    between atoms: C_6  and  C_9 
REMARK    3  A    between atoms: C_14  and  C_17 
REMARK       I    between atoms: N_26  and  C_15 
REMARK    4  A    between atoms: C_15  and  C_16 
REMARK    5  A    between atoms: C_20  and  C_23 
REMARK    6  A    between atoms: OG1_24  and  CB_28 
REMARK    7  A    between atoms: N_26  and  CA_27 
REMARK    8  A    between atoms: CA_27  and  CB_28 
REMARK    9  A    between atoms: CA_27  and  C_30 
ROOT
HETATM    1  O   UNK A   0       1.947   8.026  87.810  1.00  0.00    -0.388 OA
HETATM    2  N   UNK A   0       4.750   7.553  87.680  1.00  0.00     0.096 N 
HETATM    3  C   UNK A   0       4.204   8.915  87.763  1.00  0.00     0.299 C 
HETATM    4  C   UNK A   0       3.789   6.665  87.012  1.00  0.00     0.299 C 
HETATM    5  C   UNK A   0       2.861   8.890  88.488  1.00  0.00     0.198 C 
HETATM    6  C   UNK A   0       2.456   6.693  87.752  1.00  0.00     0.198 C 
ENDROOT
BRANCH   2   7
HETATM    7  C   UNK A   0       6.034   7.551  86.980  1.00  0.00     0.311 C 
BRANCH   7   8
HETATM    8  C   UNK A   0       7.125   6.947  87.796  1.00  0.00    -0.030 A 
HETATM    9  C   UNK A   0       6.967   6.804  89.175  1.00  0.00     0.010 A 
HETATM   10  C   UNK A   0       7.988   6.240  89.939  1.00  0.00     0.021 A 
HETATM   11  C   UNK A   0       9.166   5.818  89.324  1.00  0.00     0.018 A 
HETATM   12  C   UNK A   0       9.325   5.959  87.947  1.00  0.00     0.021 A 
HETATM   13  C   UNK A   0       8.304   6.524  87.183  1.00  0.00     0.010 A 
BRANCH  11  14
HETATM   14  C   UNK A   0      10.213   5.238  90.108  1.00  0.00    -0.061 C 
HETATM   15  C   UNK A   0      11.092   4.750  90.768  1.00  0.00    -0.061 C 
BRANCH  15  16
HETATM   16  C   UNK A   0      12.137   4.169  91.551  1.00  0.00     0.018 A 
HETATM   17  C   UNK A   0      13.378   3.905  90.970  1.00  0.00     0.022 A 
HETATM   18  C   UNK A   0      14.399   3.341  91.735  1.00  0.00     0.018 A 
HETATM   19  C   UNK A   0      14.157   3.055  93.062  1.00  0.00     0.032 A 
HETATM   20  C   UNK A   0      12.940   3.306  93.660  1.00  0.00     0.018 A 
HETATM   21  C   UNK A   0      11.918   3.870  92.896  1.00  0.00     0.022 A 
BRANCH  19  22
HETATM   22  C   UNK A   0      15.245   2.452  93.876  1.00  0.00     0.252 C 
HETATM   23  O   UNK A   0      16.370   2.943  93.832  1.00  0.00    -0.268 OA
ENDBRANCH  19  22
ENDBRANCH  15  16
ENDBRANCH  11  14
ENDBRANCH   7   8
ENDBRANCH   2   7
TORSDOF 9
ENDMDL
MODEL 2
REMARK VINA RESULT:      -7.5      0.073      1.010
REMARK  9 active torsions:
REMARK  status: ('A' for Active; 'I' for Inactive)
REMARK    1  A    between atoms: N_3  and  C_6 
REMARK    2  A    between atoms: C_6  and  C_9 
REMARK    3  A    between atoms: C_14  and  C_17 
REMARK       I    between atoms: N_26  and  C_15 
REMARK    4  A    between atoms: C_15  and  C_16 
REMARK    5  A    between atoms: C_20  and  C_23 
REMARK    6  A    between atoms: OG1_24  and  CB_28 
REMARK    7  A    between atoms: N_26  and  CA_27 
REMARK    8  A    between atoms: CA_27  and  CB_28 
REMARK    9  A    between atoms: CA_27  and  C_30 
ROOT
HETATM    1  O   UNK A   0       1.947   8.071  87.793  1.00  0.00    -0.388 OA
HETATM    2  N   UNK A   0       4.745   7.566  87.657  1.00  0.00     0.096 N 
HETATM    3  C   UNK A   0       4.215   8.934  87.748  1.00  0.00     0.299 C 
HETATM    4  C   UNK A   0       3.773   6.693  86.986  1.00  0.00     0.299 C 
HETATM    5  C   UNK A   0       2.872   8.921  88.474  1.00  0.00     0.198 C 
HETATM    6  C   UNK A   0       2.441   6.733  87.728  1.00  0.00     0.198 C 
ENDROOT
BRANCH   2   7
HETATM    7  C   UNK A   0       6.027   7.553  86.956  1.00  0.00     0.311 C 
BRANCH   7   8
HETATM    8  C   UNK A   0       7.115   6.941  87.771  1.00  0.00    -0.030 A 
HETATM    9  C   UNK A   0       6.940   6.763  89.144  1.00  0.00     0.010 A 
HETATM   10  C   UNK A   0       7.958   6.192  89.908  1.00  0.00     0.021 A 
HETATM   11  C   UNK A   0       9.149   5.798  89.299  1.00  0.00     0.018 A 
HETATM   12  C   UNK A   0       9.324   5.975  87.928  1.00  0.00     0.021 A 
HETATM   13  C   UNK A   0       8.307   6.546  87.163  1.00  0.00     0.010 A 
BRANCH  11  14
HETATM   14  C   UNK A   0      10.192   5.210  90.082  1.00  0.00    -0.061 C 
HETATM   15  C   UNK A   0      11.068   4.716  90.741  1.00  0.00    -0.061 C 
BRANCH  15  16
HETATM   16  C   UNK A   0      12.110   4.128  91.524  1.00  0.00     0.018 A 
HETATM   17  C   UNK A   0      11.887   3.831  92.869  1.00  0.00     0.022 A 
HETATM   18  C   UNK A   0      12.903   3.255  93.631  1.00  0.00     0.018 A 
HETATM   19  C   UNK A   0      14.117   2.989  93.033  1.00  0.00     0.032 A 
HETATM   20  C   UNK A   0      14.361   3.273  91.706  1.00  0.00     0.018 A 
HETATM   21  C   UNK A   0      13.346   3.850  90.942  1.00  0.00     0.022 A 
BRANCH  19  22
HETATM   22  C   UNK A   0      15.200   2.377  93.846  1.00  0.00     0.252 C 
HETATM   23  O   UNK A   0      16.358   2.754  93.684  1.00  0.00    -0.268 OA
ENDBRANCH  19  22
ENDBRANCH  15  16
ENDBRANCH  11  14
ENDBRANCH   7   8
ENDBRANCH   2   7
TORSDOF 9
ENDMDL
MODEL 3
REMARK VINA RESULT:      -7.5      0.491      1.105
REMARK  9 active torsions:
REMARK  status: ('A' for Active; 'I' for Inactive)
REMARK    1  A    between atoms: N_3  and  C_6 
REMARK    2  A    between atoms: C_6  and  C_9 
REMARK    3  A    between atoms: C_14  and  C_17 
REMARK       I    between atoms: N_26  and  C_15 
REMARK    4  A    between atoms: C_15  and  C_16 
REMARK    5  A    between atoms: C_20  and  C_23 
REMARK    6  A    between atoms: OG1_24  and  CB_28 
REMARK    7  A    between atoms: N_26  and  CA_27 
REMARK    8  A    between atoms: CA_27  and  CB_28 
REMARK    9  A    between atoms: CA_27  and  C_30 
ROOT
HETATM    1  O   UNK A   0       1.861   8.832  88.302  1.00  0.00    -0.388 OA
HETATM    2  N   UNK A   0       4.490   7.828  87.874  1.00  0.00     0.096 N 
HETATM    3  C   UNK A   0       4.220   9.271  87.939  1.00  0.00     0.299 C 
HETATM    4  C   UNK A   0       3.305   7.117  87.376  1.00  0.00     0.299 C 
HETATM    5  C   UNK A   0       2.997   9.529  88.816  1.00  0.00     0.198 C 
HETATM    6  C   UNK A   0       2.104   7.425  88.264  1.00  0.00     0.198 C 
ENDROOT
BRANCH   2   7
HETATM    7  C   UNK A   0       5.652   7.556  87.030  1.00  0.00     0.311 C 
BRANCH   7   8
HETATM    8  C   UNK A   0       6.785   6.963  87.797  1.00  0.00    -0.030 A 
HETATM    9  C   UNK A   0       8.044   6.855  87.207  1.00  0.00     0.010 A 
HETATM   10  C   UNK A   0       9.104   6.298  87.923  1.00  0.00     0.021 A 
HETATM   11  C   UNK A   0       8.904   5.852  89.229  1.00  0.00     0.018 A 
HETATM   12  C   UNK A   0       7.646   5.960  89.819  1.00  0.00     0.021 A 
HETATM   13  C   UNK A   0       6.586   6.516  89.103  1.00  0.00     0.010 A 
BRANCH  11  14
HETATM   14  C   UNK A   0       9.991   5.282  89.964  1.00  0.00    -0.061 C 
HETATM   15  C   UNK A   0      10.906   4.804  90.580  1.00  0.00    -0.061 C 
BRANCH  15  16
HETATM   16  C   UNK A   0      11.993   4.235  91.314  1.00  0.00     0.018 A 
HETATM   17  C   UNK A   0      13.244   4.099  90.711  1.00  0.00     0.022 A 
HETATM   18  C   UNK A   0      14.306   3.547  91.428  1.00  0.00     0.018 A 
HETATM   19  C   UNK A   0      14.093   3.145  92.731  1.00  0.00     0.032 A 
HETATM   20  C   UNK A   0      12.866   3.269  93.348  1.00  0.00     0.018 A 
HETATM   21  C   UNK A   0      11.804   3.820  92.632  1.00  0.00     0.022 A 
BRANCH  19  22
HETATM   22  C   UNK A   0      15.224   2.555  93.493  1.00  0.00     0.252 C 
HETATM   23  O   UNK A   0      16.116   3.291  93.908  1.00  0.00    -0.268 OA
ENDBRANCH  19  22
ENDBRANCH  15  16
ENDBRANCH  11  14
ENDBRANCH   7   8
ENDBRANCH   2   7
TORSDOF 9
ENDMDL
MODEL 4
REMARK VINA RESULT:      -7.1      0.962      1.442
REMARK  9 active torsions:
REMARK  status: ('A' for Active; 'I' for Inactive)
REMARK    1  A    between atoms: N_3  and  C_6 
REMARK    2  A    between atoms: C_6  and  C_9 
REMARK    3  A    between atoms: C_14  and  C_17 
REMARK       I    between atoms: N_26  and  C_15 
REMARK    4  A    between atoms: C_15  and  C_16 
REMARK    5  A    between atoms: C_20  and  C_23 
REMARK    6  A    between atoms: OG1_24  and  CB_28 
REMARK    7  A    between atoms: N_26  and  CA_27 
REMARK    8  A    between atoms: CA_27  and  CB_28 
REMARK    9  A    between atoms: CA_27  and  C_30 
ROOT
HETATM    1  O   UNK A   0       1.772   7.142  86.975  1.00  0.00    -0.388 OA
HETATM    2  N   UNK A   0       4.216   7.911  88.214  1.00  0.00     0.096 N 
HETATM    3  C   UNK A   0       3.050   8.805  88.196  1.00  0.00     0.299 C 
HETATM    4  C   UNK A   0       4.195   7.032  87.037  1.00  0.00     0.299 C 
HETATM    5  C   UNK A   0       1.767   7.979  88.133  1.00  0.00     0.198 C 
HETATM    6  C   UNK A   0       2.886   6.249  87.000  1.00  0.00     0.198 C 
ENDROOT
BRANCH   2   7
HETATM    7  C   UNK A   0       5.458   8.681  88.264  1.00  0.00     0.311 C 
BRANCH   7   8
HETATM    8  C   UNK A   0       6.579   7.912  88.875  1.00  0.00    -0.030 A 
HETATM    9  C   UNK A   0       6.399   7.274  90.102  1.00  0.00     0.010 A 
HETATM   10  C   UNK A   0       7.448   6.555  90.676  1.00  0.00     0.021 A 
HETATM   11  C   UNK A   0       8.676   6.474  90.020  1.00  0.00     0.018 A 
HETATM   12  C   UNK A   0       8.857   7.111  88.794  1.00  0.00     0.021 A 
HETATM   13  C   UNK A   0       7.809   7.830  88.221  1.00  0.00     0.010 A 
BRANCH  11  14
HETATM   14  C   UNK A   0       9.752   5.735  90.607  1.00  0.00    -0.061 C 
HETATM   15  C   UNK A   0      10.655   5.114  91.101  1.00  0.00    -0.061 C 
BRANCH  15  16
HETATM   16  C   UNK A   0      11.729   4.375  91.687  1.00  0.00     0.018 A 
HETATM   17  C   UNK A   0      11.653   3.975  93.021  1.00  0.00     0.022 A 
HETATM   18  C   UNK A   0      12.700   3.251  93.592  1.00  0.00     0.018 A 
HETATM   19  C   UNK A   0      13.799   2.944  92.816  1.00  0.00     0.032 A 
HETATM   20  C   UNK A   0      13.898   3.328  91.496  1.00  0.00     0.018 A 
HETATM   21  C   UNK A   0      12.852   4.052  90.924  1.00  0.00     0.022 A 
BRANCH  19  22
HETATM   22  C   UNK A   0      14.915   2.175  93.426  1.00  0.00     0.252 C 
HETATM   23  O   UNK A   0      15.805   2.779  94.019  1.00  0.00    -0.268 OA
ENDBRANCH  19  22
ENDBRANCH  15  16
ENDBRANCH  11  14
ENDBRANCH   7   8
ENDBRANCH   2   7
TORSDOF 9
ENDMDL
MODEL 5
REMARK VINA RESULT:      -6.8      1.624      2.313
REMARK  9 active torsions:
REMARK  status: ('A' for Active; 'I' for Inactive)
REMARK    1  A    between atoms: N_3  and  C_6 
REMARK    2  A    between atoms: C_6  and  C_9 
REMARK    3  A    between atoms: C_14  and  C_17 
REMARK       I    between atoms: N_26  and  C_15 
REMARK    4  A    between atoms: C_15  and  C_16 
REMARK    5  A    between atoms: C_20  and  C_23 
REMARK    6  A    between atoms: OG1_24  and  CB_28 
REMARK    7  A    between atoms: N_26  and  CA_27 
REMARK    8  A    between atoms: CA_27  and  CB_28 
REMARK    9  A    between atoms: CA_27  and  C_30 
ROOT
HETATM    1  O   UNK A   0       3.030  11.535  89.461  1.00  0.00    -0.388 OA
HETATM    2  N   UNK A   0       4.600   9.236  88.867  1.00  0.00     0.096 N 
HETATM    3  C   UNK A   0       3.887   9.972  87.814  1.00  0.00     0.299 C 
HETATM    4  C   UNK A   0       3.888   9.372  90.146  1.00  0.00     0.299 C 
HETATM    5  C   UNK A   0       3.732  11.436  88.221  1.00  0.00     0.198 C 
HETATM    6  C   UNK A   0       3.732  10.848  90.498  1.00  0.00     0.198 C 
ENDROOT
BRANCH   2   7
HETATM    7  C   UNK A   0       4.750   7.828  88.503  1.00  0.00     0.311 C 
BRANCH   7   8
HETATM    8  C   UNK A   0       6.002   7.231  89.050  1.00  0.00    -0.030 A 
HETATM    9  C   UNK A   0       5.975   5.956  89.617  1.00  0.00     0.010 A 
HETATM   10  C   UNK A   0       7.145   5.397  90.131  1.00  0.00     0.021 A 
HETATM   11  C   UNK A   0       8.341   6.112  90.075  1.00  0.00     0.018 A 
HETATM   12  C   UNK A   0       8.369   7.384  89.508  1.00  0.00     0.021 A 
HETATM   13  C   UNK A   0       7.199   7.944  88.995  1.00  0.00     0.010 A 
BRANCH  11  14
HETATM   14  C   UNK A   0       9.542   5.537  90.600  1.00  0.00    -0.061 C 
HETATM   15  C   UNK A   0      10.551   5.055  91.042  1.00  0.00    -0.061 C 
BRANCH  15  16
HETATM   16  C   UNK A   0      11.750   4.480  91.567  1.00  0.00     0.018 A 
HETATM   17  C   UNK A   0      11.814   4.111  92.911  1.00  0.00     0.022 A 
HETATM   18  C   UNK A   0      12.983   3.548  93.423  1.00  0.00     0.018 A 
HETATM   19  C   UNK A   0      14.060   3.367  92.580  1.00  0.00     0.032 A 
HETATM   20  C   UNK A   0      14.021   3.724  91.249  1.00  0.00     0.018 A 
HETATM   21  C   UNK A   0      12.853   4.287  90.736  1.00  0.00     0.022 A 
BRANCH  19  22
HETATM   22  C   UNK A   0      15.306   2.769  93.127  1.00  0.00     0.252 C 
HETATM   23  O   UNK A   0      16.080   3.476  93.768  1.00  0.00    -0.268 OA
ENDBRANCH  19  22
ENDBRANCH  15  16
ENDBRANCH  11  14
ENDBRANCH   7   8
ENDBRANCH   2   7
TORSDOF 9
ENDMDL
MODEL 6
REMARK VINA RESULT:      -6.6      3.921     10.403
REMARK  9 active torsions:
REMARK  status: ('A' for Active; 'I' for Inactive)
REMARK    1  A    between atoms: N_3  and  C_6 
REMARK    2  A    between atoms: C_6  and  C_9 
REMARK    3  A    between atoms: C_14  and  C_17 
REMARK       I    between atoms: N_26  and  C_15 
REMARK    4  A    between atoms: C_15  and  C_16 
REMARK    5  A    between atoms: C_20  and  C_23 
REMARK    6  A    between atoms: OG1_24  and  CB_28 
REMARK    7  A    between atoms: N_26  and  CA_27 
REMARK    8  A    between atoms: CA_27  and  CB_28 
REMARK    9  A    between atoms: CA_27  and  C_30 
ROOT
HETATM    1  O   UNK A   0      14.566   3.356  92.094  1.00  0.00    -0.388 OA
HETATM    2  N   UNK A   0      11.846   4.166  92.306  1.00  0.00     0.096 N 
HETATM    3  C   UNK A   0      12.462   3.277  93.301  1.00  0.00     0.299 C 
HETATM    4  C   UNK A   0      12.495   3.986  91.000  1.00  0.00     0.299 C 
HETATM    5  C   UNK A   0      13.963   3.547  93.375  1.00  0.00     0.198 C 
HETATM    6  C   UNK A   0      13.994   4.238  91.127  1.00  0.00     0.198 C 
ENDROOT
BRANCH   2   7
HETATM    7  C   UNK A   0      10.408   3.917  92.211  1.00  0.00     0.311 C 
BRANCH   7   8
HETATM    8  C   UNK A   0       9.635   5.159  91.924  1.00  0.00    -0.030 A 
HETATM    9  C   UNK A   0       9.902   6.327  92.639  1.00  0.00     0.010 A 
HETATM   10  C   UNK A   0       9.178   7.489  92.373  1.00  0.00     0.021 A 
HETATM   11  C   UNK A   0       8.188   7.483  91.391  1.00  0.00     0.018 A 
HETATM   12  C   UNK A   0       7.921   6.317  90.676  1.00  0.00     0.021 A 
HETATM   13  C   UNK A   0       8.644   5.155  90.942  1.00  0.00     0.010 A 
BRANCH  11  14
HETATM   14  C   UNK A   0       7.447   8.675  91.117  1.00  0.00    -0.061 C 
HETATM   15  C   UNK A   0       6.825   9.678  90.886  1.00  0.00    -0.061 C 
BRANCH  15  16
HETATM   16  C   UNK A   0       6.084  10.869  90.611  1.00  0.00     0.018 A 
HETATM   17  C   UNK A   0       6.213  11.499  89.373  1.00  0.00     0.022 A 
HETATM   18  C   UNK A   0       5.487  12.660  89.104  1.00  0.00     0.018 A 
HETATM   19  C   UNK A   0       4.650  13.164  90.077  1.00  0.00     0.032 A 
HETATM   20  C   UNK A   0       4.506  12.560  91.309  1.00  0.00     0.018 A 
HETATM   21  C   UNK A   0       5.231  11.399  91.579  1.00  0.00     0.022 A 
BRANCH  19  22
HETATM   22  C   UNK A   0       3.880  14.402  89.791  1.00  0.00     0.252 C 
HETATM   23  O   UNK A   0       4.476  15.472  89.700  1.00  0.00    -0.268 OA
ENDBRANCH  19  22
ENDBRANCH  15  16
ENDBRANCH  11  14
ENDBRANCH   7   8
ENDBRANCH   2   7
TORSDOF 9
ENDMDL
MODEL 7
REMARK VINA RESULT:      -6.5      4.870     10.258
REMARK  9 active torsions:
REMARK  status: ('A' for Active; 'I' for Inactive)
REMARK    1  A    between atoms: N_3  and  C_6 
REMARK    2  A    between atoms: C_6  and  C_9 
REMARK    3  A    between atoms: C_14  and  C_17 
REMARK       I    between atoms: N_26  and  C_15 
REMARK    4  A    between atoms: C_15  and  C_16 
REMARK    5  A    between atoms: C_20  and  C_23 
REMARK    6  A    between atoms: OG1_24  and  CB_28 
REMARK    7  A    between atoms: N_26  and  CA_27 
REMARK    8  A    between atoms: CA_27  and  CB_28 
REMARK    9  A    between atoms: CA_27  and  C_30 
ROOT
HETATM    1  O   UNK A   0      11.258   3.980  88.939  1.00  0.00    -0.388 OA
HETATM    2  N   UNK A   0       9.432   5.843  87.801  1.00  0.00     0.096 N 
HETATM    3  C   UNK A   0      10.143   4.861  86.972  1.00  0.00     0.299 C 
HETATM    4  C   UNK A   0      10.237   6.180  88.984  1.00  0.00     0.299 C 
HETATM    5  C   UNK A   0      10.469   3.622  87.803  1.00  0.00     0.198 C 
HETATM    6  C   UNK A   0      10.561   4.912  89.767  1.00  0.00     0.198 C 
ENDROOT
BRANCH   2   7
HETATM    7  C   UNK A   0       9.118   7.043  87.027  1.00  0.00     0.311 C 
BRANCH   7   8
HETATM    8  C   UNK A   0       8.335   8.038  87.814  1.00  0.00    -0.030 A 
HETATM    9  C   UNK A   0       7.007   7.771  88.150  1.00  0.00     0.010 A 
HETATM   10  C   UNK A   0       6.273   8.702  88.884  1.00  0.00     0.021 A 
HETATM   11  C   UNK A   0       6.867   9.898  89.285  1.00  0.00     0.018 A 
HETATM   12  C   UNK A   0       8.193  10.166  88.950  1.00  0.00     0.021 A 
HETATM   13  C   UNK A   0       8.928   9.236  88.215  1.00  0.00     0.010 A 
BRANCH  11  14
HETATM   14  C   UNK A   0       6.114  10.852  90.040  1.00  0.00    -0.061 C 
HETATM   15  C   UNK A   0       5.481  11.653  90.675  1.00  0.00    -0.061 C 
BRANCH  15  16
HETATM   16  C   UNK A   0       4.730  12.606  91.431  1.00  0.00     0.018 A 
HETATM   17  C   UNK A   0       4.500  13.880  90.912  1.00  0.00     0.022 A 
HETATM   18  C   UNK A   0       3.764  14.809  91.648  1.00  0.00     0.018 A 
HETATM   19  C   UNK A   0       3.275  14.443  92.884  1.00  0.00     0.032 A 
HETATM   20  C   UNK A   0       3.488  13.190  93.419  1.00  0.00     0.018 A 
HETATM   21  C   UNK A   0       4.224  12.260  92.684  1.00  0.00     0.022 A 
BRANCH  19  22
HETATM   22  C   UNK A   0       2.493  15.434  93.668  1.00  0.00     0.252 C 
HETATM   23  O   UNK A   0       1.282  15.526  93.481  1.00  0.00    -0.268 OA
ENDBRANCH  19  22
ENDBRANCH  15  16
ENDBRANCH  11  14
ENDBRANCH   7   8
ENDBRANCH   2   7
TORSDOF 9
ENDMDL
MODEL 8
REMARK VINA RESULT:      -6.3      1.589      2.128
REMARK  9 active torsions:
REMARK  status: ('A' for Active; 'I' for Inactive)
REMARK    1  A    between atoms: N_3  and  C_6 
REMARK    2  A    between atoms: C_6  and  C_9 
REMARK    3  A    between atoms: C_14  and  C_17 
REMARK       I    between atoms: N_26  and  C_15 
REMARK    4  A    between atoms: C_15  and  C_16 
REMARK    5  A    between atoms: C_20  and  C_23 
REMARK    6  A    between atoms: OG1_24  and  CB_28 
REMARK    7  A    between atoms: N_26  and  CA_27 
REMARK    8  A    between atoms: CA_27  and  CB_28 
REMARK    9  A    between atoms: CA_27  and  C_30 
ROOT
HETATM    1  O   UNK A   0       4.168   6.837  86.651  1.00  0.00    -0.388 OA
HETATM    2  N   UNK A   0       4.693   8.587  88.834  1.00  0.00     0.096 N 
HETATM    3  C   UNK A   0       5.777   8.066  87.989  1.00  0.00     0.299 C 
HETATM    4  C   UNK A   0       3.577   7.632  88.865  1.00  0.00     0.299 C 
HETATM    5  C   UNK A   0       5.246   7.773  86.588  1.00  0.00     0.198 C 
HETATM    6  C   UNK A   0       3.098   7.349  87.445  1.00  0.00     0.198 C 
ENDROOT
BRANCH   2   7
HETATM    7  C   UNK A   0       5.177   8.865  90.185  1.00  0.00     0.311 C 
BRANCH   7   8
HETATM    8  C   UNK A   0       6.395   8.075  90.526  1.00  0.00    -0.030 A 
HETATM    9  C   UNK A   0       7.659   8.652  90.396  1.00  0.00     0.010 A 
HETATM   10  C   UNK A   0       8.798   7.912  90.712  1.00  0.00     0.021 A 
HETATM   11  C   UNK A   0       8.673   6.598  91.160  1.00  0.00     0.018 A 
HETATM   12  C   UNK A   0       7.412   6.021  91.291  1.00  0.00     0.021 A 
HETATM   13  C   UNK A   0       6.272   6.759  90.973  1.00  0.00     0.010 A 
BRANCH  11  14
HETATM   14  C   UNK A   0       9.842   5.840  91.487  1.00  0.00    -0.061 C 
HETATM   15  C   UNK A   0      10.825   5.204  91.761  1.00  0.00    -0.061 C 
BRANCH  15  16
HETATM   16  C   UNK A   0      11.994   4.448  92.087  1.00  0.00     0.018 A 
HETATM   17  C   UNK A   0      13.012   4.298  91.144  1.00  0.00     0.022 A 
HETATM   18  C   UNK A   0      14.153   3.562  91.464  1.00  0.00     0.018 A 
HETATM   19  C   UNK A   0      14.252   2.995  92.717  1.00  0.00     0.032 A 
HETATM   20  C   UNK A   0      13.259   3.129  93.665  1.00  0.00     0.018 A 
HETATM   21  C   UNK A   0      12.118   3.864  93.347  1.00  0.00     0.022 A 
BRANCH  19  22
HETATM   22  C   UNK A   0      15.467   2.210  93.056  1.00  0.00     0.252 C 
HETATM   23  O   UNK A   0      16.392   2.762  93.647  1.00  0.00    -0.268 OA
ENDBRANCH  19  22
ENDBRANCH  15  16
ENDBRANCH  11  14
ENDBRANCH   7   8
ENDBRANCH   2   7
TORSDOF 9
ENDMDL
MODEL 9
REMARK VINA RESULT:      -6.2      3.695      4.638
REMARK  9 active torsions:
REMARK  status: ('A' for Active; 'I' for Inactive)
REMARK    1  A    between atoms: N_3  and  C_6 
REMARK    2  A    between atoms: C_6  and  C_9 
REMARK    3  A    between atoms: C_14  and  C_17 
REMARK       I    between atoms: N_26  and  C_15 
REMARK    4  A    between atoms: C_15  and  C_16 
REMARK    5  A    between atoms: C_20  and  C_23 
REMARK    6  A    between atoms: OG1_24  and  CB_28 
REMARK    7  A    between atoms: N_26  and  CA_27 
REMARK    8  A    between atoms: CA_27  and  CB_28 
REMARK    9  A    between atoms: CA_27  and  C_30 
ROOT
HETATM    1  O   UNK A   0       4.056  15.275  90.966  1.00  0.00    -0.388 OA
HETATM    2  N   UNK A   0       4.987  12.839  89.826  1.00  0.00     0.096 N 
HETATM    3  C   UNK A   0       4.822  14.052  89.015  1.00  0.00     0.299 C 
HETATM    4  C   UNK A   0       4.037  12.850  90.947  1.00  0.00     0.299 C 
HETATM    5  C   UNK A   0       4.998  15.289  89.892  1.00  0.00     0.198 C 
HETATM    6  C   UNK A   0       4.231  14.114  91.778  1.00  0.00     0.198 C 
ENDROOT
BRANCH   2   7
HETATM    7  C   UNK A   0       4.812  11.641  89.008  1.00  0.00     0.311 C 
BRANCH   7   8
HETATM    8  C   UNK A   0       5.773  10.560  89.370  1.00  0.00    -0.030 A 
HETATM    9  C   UNK A   0       7.124  10.859  89.546  1.00  0.00     0.010 A 
HETATM   10  C   UNK A   0       8.025   9.849  89.882  1.00  0.00     0.021 A 
HETATM   11  C   UNK A   0       7.573   8.539  90.044  1.00  0.00     0.018 A 
HETATM   12  C   UNK A   0       6.223   8.239  89.869  1.00  0.00     0.021 A 
HETATM   13  C   UNK A   0       5.323   9.249  89.532  1.00  0.00     0.010 A 
BRANCH  11  14
HETATM   14  C   UNK A   0       8.496   7.503  90.391  1.00  0.00    -0.061 C 
HETATM   15  C   UNK A   0       9.272   6.633  90.684  1.00  0.00    -0.061 C 
BRANCH  15  16
HETATM   16  C   UNK A   0      10.195   5.597  91.032  1.00  0.00     0.018 A 
HETATM   17  C   UNK A   0      10.790   4.830  90.030  1.00  0.00     0.022 A 
HETATM   18  C   UNK A   0      11.692   3.821  90.370  1.00  0.00     0.018 A 
HETATM   19  C   UNK A   0      11.978   3.604  91.701  1.00  0.00     0.032 A 
HETATM   20  C   UNK A   0      11.403   4.348  92.709  1.00  0.00     0.018 A 
HETATM   21  C   UNK A   0      10.500   5.356  92.371  1.00  0.00     0.022 A 
BRANCH  19  22
HETATM   22  C   UNK A   0      12.938   2.528  92.062  1.00  0.00     0.252 C 
HETATM   23  O   UNK A   0      14.126   2.806  92.200  1.00  0.00    -0.268 OA
ENDBRANCH  19  22
ENDBRANCH  15  16
ENDBRANCH  11  14
ENDBRANCH   7   8
ENDBRANCH   2   7
TORSDOF 9
ENDMDL
