MODEL 1
REMARK VINA RESULT:      -7.5      0.000      0.000
REMARK  9 active torsions:
REMARK  status: ('A' for Active; 'I' for Inactive)
REMARK    1  A    between atoms: N_3  and  C_6 
REMARK    2  A    between atoms: C_6  and  C_9 
REMARK    3  A    between atoms: C_14  and  C_17 
REMARK       I    between atoms: N_26  and  C_15 
REMARK    4  A    between atoms: C_15  and  C_16 
REMARK    5  A    between atoms: C_20  and  C_23 
REMARK    6  A    between atoms: OG1_24  and  CB_28 
REMARK    7  A    between atoms: N_26  and  CA_27 
REMARK    8  A    between atoms: CA_27  and  CB_28 
REMARK    9  A    between atoms: CA_27  and  C_30 
ROOT
HETATM    1  O   UNK A   0       1.791   7.974  87.841  1.00  0.00    -0.388 OA
HETATM    2  N   UNK A   0       4.600   7.537  87.697  1.00  0.00     0.096 N 
HETATM    3  C   UNK A   0       4.039   8.890  87.816  1.00  0.00     0.299 C 
HETATM    4  C   UNK A   0       3.649   6.656  87.006  1.00  0.00     0.299 C 
HETATM    5  C   UNK A   0       2.696   8.831  88.541  1.00  0.00     0.198 C 
HETATM    6  C   UNK A   0       2.316   6.650  87.748  1.00  0.00     0.198 C 
ENDROOT
BRANCH   2   7
HETATM    7  C   UNK A   0       5.883   7.568  86.996  1.00  0.00     0.311 C 
BRANCH   7   8
HETATM    8  C   UNK A   0       6.984   6.964  87.800  1.00  0.00    -0.030 A 
HETATM    9  C   UNK A   0       6.762   6.611  89.131  1.00  0.00     0.010 A 
HETATM   10  C   UNK A   0       7.792   6.048  89.884  1.00  0.00     0.021 A 
HETATM   11  C   UNK A   0       9.043   5.836  89.305  1.00  0.00     0.018 A 
HETATM   12  C   UNK A   0       9.265   6.188  87.975  1.00  0.00     0.021 A 
HETATM   13  C   UNK A   0       8.236   6.752  87.222  1.00  0.00     0.010 A 
BRANCH  11  14
HETATM   14  C   UNK A   0      10.099   5.256  90.077  1.00  0.00    -0.061 C 
HETATM   15  C   UNK A   0      10.986   4.768  90.725  1.00  0.00    -0.061 C 
BRANCH  15  16
HETATM   16  C   UNK A   0      12.041   4.189  91.496  1.00  0.00     0.018 A 
HETATM   17  C   UNK A   0      13.293   3.979  90.916  1.00  0.00     0.022 A 
HETATM   18  C   UNK A   0      14.323   3.416  91.669  1.00  0.00     0.018 A 
HETATM   19  C   UNK A   0      14.080   3.076  92.983  1.00  0.00     0.032 A 
HETATM   20  C   UNK A   0      12.852   3.273  93.579  1.00  0.00     0.018 A 
HETATM   21  C   UNK A   0      11.820   3.836  92.827  1.00  0.00     0.022 A 
BRANCH  19  22
HETATM   22  C   UNK A   0      15.177   2.475  93.784  1.00  0.00     0.252 C 
HETATM   23  O   UNK A   0      16.288   3.001  93.770  1.00  0.00    -0.268 OA
ENDBRANCH  19  22
ENDBRANCH  15  16
ENDBRANCH  11  14
ENDBRANCH   7   8
ENDBRANCH   2   7
TORSDOF 9
ENDMDL
