MODEL 1
REMARK VINA RESULT:      -6.6      0.000      0.000
REMARK  11 active torsions:
REMARK  status: ('A' for Active; 'I' for Inactive)
REMARK    1  A    between atoms: O_2  and  C_18 
REMARK    2  A    between atoms: O_5  and  P_8 
REMARK    3  A    between atoms: N_6  and  C_11 
REMARK    4  A    between atoms: N_7  and  C_15 
REMARK       I    between atoms: N_7  and  C_24 
REMARK    5  A    between atoms: P_8  and  C_23 
REMARK    6  A    between atoms: C_11  and  C_14 
REMARK    7  A    between atoms: C_15  and  C_18 
REMARK    8  A    between atoms: C_15  and  C_23 
REMARK    9  A    between atoms: C_21  and  C_26 
REMARK   10  A    between atoms: C_24  and  C_25 
REMARK   11  A    between atoms: C_29  and  C_32 
ROOT
HETATM    1  O   UNL     1      15.774   4.239  93.743  1.00  0.00     0.000 OA
HETATM    2  N   UNL     1      13.986   2.560  92.299  1.00  0.00     0.000 N 
HETATM    3  C   UNL     1      14.205   3.960  91.912  1.00  0.00     0.000 C 
HETATM    4  C   UNL     1      14.194   2.399  93.745  1.00  0.00     0.000 C 
HETATM    5  C   UNL     1      15.606   4.400  92.333  1.00  0.00     0.000 C 
HETATM    6  C   UNL     1      15.593   2.875  94.123  1.00  0.00     0.000 C 
ENDROOT
BRANCH   2   7
HETATM    7  C   UNL     1      12.646   2.120  91.915  1.00  0.00     0.000 C 
BRANCH   7   8
HETATM    8  C   UNL     1      11.731   3.264  91.636  1.00  0.00     0.000 A 
HETATM    9  C   UNL     1      11.464   3.637  90.318  1.00  0.00     0.000 A 
HETATM   10  C   UNL     1      10.610   4.708  90.055  1.00  0.00     0.000 A 
HETATM   11  C   UNL     1      10.023   5.405  91.111  1.00  0.00     0.000 A 
HETATM   12  C   UNL     1      10.289   5.033  92.427  1.00  0.00     0.000 A 
HETATM   13  C   UNL     1      11.143   3.963  92.690  1.00  0.00     0.000 A 
BRANCH  11  14
HETATM   14  C   UNL     1       9.145   6.502  90.842  1.00  0.00     0.000 C 
HETATM   15  C   UNL     1       8.408   7.424  90.615  1.00  0.00     0.000 C 
BRANCH  15  16
HETATM   16  C   UNL     1       7.530   8.520  90.345  1.00  0.00     0.000 A 
HETATM   17  C   UNL     1       6.254   8.282  89.836  1.00  0.00     0.000 A 
HETATM   18  C   UNL     1       5.397   9.351  89.576  1.00  0.00     0.000 A 
HETATM   19  C   UNL     1       5.835  10.634  89.832  1.00  0.00     0.000 A 
HETATM   20  C   UNL     1       7.092  10.896  90.334  1.00  0.00     0.000 A 
HETATM   21  C   UNL     1       7.950   9.827  90.595  1.00  0.00     0.000 A 
BRANCH  19  22
HETATM   22  C   UNL     1       4.922  11.773  89.553  1.00  0.00     0.000 C 
HETATM   23  O   UNL     1       4.576  11.994  88.395  1.00  0.00     0.000 OA
HETATM   24  N   UNL     1       4.503  12.501  90.657  1.00  0.00     0.000 N 
HETATM   25  HN  UNL     1       4.811  12.243  91.588  1.00  0.00     0.000 HD
BRANCH  24  26
HETATM   26  C   UNL     1       3.599  13.618  90.553  1.00  0.00     0.000 C 
BRANCH  26  27
HETATM   27  C   UNL     1       2.277  13.383  91.295  1.00  0.00     0.000 C 
HETATM   28  C   UNL     1       2.334  12.173  92.220  1.00  0.00     0.000 C 
BRANCH  27  29
HETATM   29  O   UNL     1       1.949  14.540  92.063  1.00  0.00     0.000 OA
HETATM   30  H   UNL     1       1.044  14.435  92.401  1.00  0.00     0.000 HD
ENDBRANCH  27  29
ENDBRANCH  26  27
BRANCH  26  31
HETATM   31  C   UNL     1       4.321  14.852  91.083  1.00  0.00     0.000 C 
HETATM   32  O   UNL     1       4.384  15.129  92.279  1.00  0.00     0.000 OA
BRANCH  31  33
HETATM   33  P   UNL     1       4.846  15.621  90.072  1.00  0.00     0.000 P 
HETATM   34  H   UNL     1       3.813  16.343  89.510  1.00  0.00     0.000 HD
BRANCH  33  35
HETATM   35  O   UNL     1       5.489  14.918  89.043  1.00  0.00     0.000 OA
HETATM   36  H   UNL     1       6.386  15.288  89.114  1.00  0.00     0.000 HD
ENDBRANCH  33  35
ENDBRANCH  31  33
ENDBRANCH  26  31
ENDBRANCH  24  26
ENDBRANCH  19  22
ENDBRANCH  15  16
ENDBRANCH  11  14
ENDBRANCH   7   8
ENDBRANCH   2   7
TORSDOF 11
ENDMDL
MODEL 2
REMARK VINA RESULT:      -6.0      2.018      2.953
REMARK  11 active torsions:
REMARK  status: ('A' for Active; 'I' for Inactive)
REMARK    1  A    between atoms: O_2  and  C_18 
REMARK    2  A    between atoms: O_5  and  P_8 
REMARK    3  A    between atoms: N_6  and  C_11 
REMARK    4  A    between atoms: N_7  and  C_15 
REMARK       I    between atoms: N_7  and  C_24 
REMARK    5  A    between atoms: P_8  and  C_23 
REMARK    6  A    between atoms: C_11  and  C_14 
REMARK    7  A    between atoms: C_15  and  C_18 
REMARK    8  A    between atoms: C_15  and  C_23 
REMARK    9  A    between atoms: C_21  and  C_26 
REMARK   10  A    between atoms: C_24  and  C_25 
REMARK   11  A    between atoms: C_29  and  C_32 
ROOT
HETATM    1  O   UNL     1      16.670   3.115  93.530  1.00  0.00     0.000 OA
HETATM    2  N   UNL     1      13.841   2.880  93.318  1.00  0.00     0.000 N 
HETATM    3  C   UNL     1      14.710   1.695  93.348  1.00  0.00     0.000 C 
HETATM    4  C   UNL     1      14.564   4.020  92.736  1.00  0.00     0.000 C 
HETATM    5  C   UNL     1      15.987   2.010  94.124  1.00  0.00     0.000 C 
HETATM    6  C   UNL     1      15.843   4.279  93.525  1.00  0.00     0.000 C 
ENDROOT
BRANCH   2   7
HETATM    7  C   UNL     1      12.616   2.605  92.569  1.00  0.00     0.000 C 
BRANCH   7   8
HETATM    8  C   UNL     1      11.653   3.742  92.618  1.00  0.00     0.000 A 
HETATM    9  C   UNL     1      10.911   4.075  91.484  1.00  0.00     0.000 A 
HETATM   10  C   UNL     1      10.011   5.140  91.528  1.00  0.00     0.000 A 
HETATM   11  C   UNL     1       9.853   5.869  92.706  1.00  0.00     0.000 A 
HETATM   12  C   UNL     1      10.593   5.537  93.838  1.00  0.00     0.000 A 
HETATM   13  C   UNL     1      11.493   4.473  93.795  1.00  0.00     0.000 A 
BRANCH  11  14
HETATM   14  C   UNL     1       8.928   6.961  92.751  1.00  0.00     0.000 C 
HETATM   15  C   UNL     1       8.152   7.877  92.789  1.00  0.00     0.000 C 
BRANCH  15  16
HETATM   16  C   UNL     1       7.228   8.968  92.835  1.00  0.00     0.000 A 
HETATM   17  C   UNL     1       7.070   9.698  94.014  1.00  0.00     0.000 A 
HETATM   18  C   UNL     1       6.171  10.764  94.057  1.00  0.00     0.000 A 
HETATM   19  C   UNL     1       5.453  11.076  92.922  1.00  0.00     0.000 A 
HETATM   20  C   UNL     1       5.591  10.371  91.745  1.00  0.00     0.000 A 
HETATM   21  C   UNL     1       6.490   9.304  91.701  1.00  0.00     0.000 A 
BRANCH  19  22
HETATM   22  C   UNL     1       4.494  12.211  92.969  1.00  0.00     0.000 C 
HETATM   23  O   UNL     1       3.879  12.433  94.009  1.00  0.00     0.000 OA
HETATM   24  N   UNL     1       4.386  12.964  91.808  1.00  0.00     0.000 N 
HETATM   25  HN  UNL     1       4.945  12.736  90.995  1.00  0.00     0.000 HD
BRANCH  24  26
HETATM   26  C   UNL     1       3.518  14.109  91.705  1.00  0.00     0.000 C 
BRANCH  26  27
HETATM   27  C   UNL     1       3.537  14.745  90.310  1.00  0.00     0.000 C 
HETATM   28  C   UNL     1       4.864  15.428  89.998  1.00  0.00     0.000 C 
BRANCH  27  29
HETATM   29  O   UNL     1       3.289  13.743  89.325  1.00  0.00     0.000 OA
HETATM   30  H   UNL     1       3.320  14.162  88.448  1.00  0.00     0.000 HD
ENDBRANCH  27  29
ENDBRANCH  26  27
BRANCH  26  31
HETATM   31  C   UNL     1       2.111  13.664  92.092  1.00  0.00     0.000 C 
HETATM   32  O   UNL     1       1.654  12.561  91.799  1.00  0.00     0.000 OA
BRANCH  31  33
HETATM   33  P   UNL     1       1.421  14.646  92.761  1.00  0.00     0.000 P 
HETATM   34  H   UNL     1       1.531  15.812  92.031  1.00  0.00     0.000 HD
BRANCH  33  35
HETATM   35  O   UNL     1       1.854  14.914  94.067  1.00  0.00     0.000 OA
HETATM   36  H   UNL     1       2.413  14.135  94.229  1.00  0.00     0.000 HD
ENDBRANCH  33  35
ENDBRANCH  31  33
ENDBRANCH  26  31
ENDBRANCH  24  26
ENDBRANCH  19  22
ENDBRANCH  15  16
ENDBRANCH  11  14
ENDBRANCH   7   8
ENDBRANCH   2   7
TORSDOF 11
ENDMDL
MODEL 3
REMARK VINA RESULT:      -5.9      1.600      2.238
REMARK  11 active torsions:
REMARK  status: ('A' for Active; 'I' for Inactive)
REMARK    1  A    between atoms: O_2  and  C_18 
REMARK    2  A    between atoms: O_5  and  P_8 
REMARK    3  A    between atoms: N_6  and  C_11 
REMARK    4  A    between atoms: N_7  and  C_15 
REMARK       I    between atoms: N_7  and  C_24 
REMARK    5  A    between atoms: P_8  and  C_23 
REMARK    6  A    between atoms: C_11  and  C_14 
REMARK    7  A    between atoms: C_15  and  C_18 
REMARK    8  A    between atoms: C_15  and  C_23 
REMARK    9  A    between atoms: C_21  and  C_26 
REMARK   10  A    between atoms: C_24  and  C_25 
REMARK   11  A    between atoms: C_29  and  C_32 
ROOT
HETATM    1  O   UNL     1      16.503   3.147  93.912  1.00  0.00     0.000 OA
HETATM    2  N   UNL     1      13.959   3.149  92.635  1.00  0.00     0.000 N 
HETATM    3  C   UNL     1      14.682   1.898  92.904  1.00  0.00     0.000 C 
HETATM    4  C   UNL     1      14.912   4.252  92.451  1.00  0.00     0.000 C 
HETATM    5  C   UNL     1      15.583   2.074  94.124  1.00  0.00     0.000 C 
HETATM    6  C   UNL     1      15.808   4.373  93.680  1.00  0.00     0.000 C 
ENDROOT
BRANCH   2   7
HETATM    7  C   UNL     1      13.096   3.007  91.463  1.00  0.00     0.000 C 
BRANCH   7   8
HETATM    8  C   UNL     1      11.930   3.935  91.500  1.00  0.00     0.000 A 
HETATM    9  C   UNL     1      11.446   4.492  90.316  1.00  0.00     0.000 A 
HETATM   10  C   UNL     1      10.356   5.362  90.350  1.00  0.00     0.000 A 
HETATM   11  C   UNL     1       9.750   5.672  91.567  1.00  0.00     0.000 A 
HETATM   12  C   UNL     1      10.232   5.115  92.749  1.00  0.00     0.000 A 
HETATM   13  C   UNL     1      11.323   4.246  92.717  1.00  0.00     0.000 A 
BRANCH  11  14
HETATM   14  C   UNL     1       8.631   6.563  91.601  1.00  0.00     0.000 C 
HETATM   15  C   UNL     1       7.690   7.311  91.629  1.00  0.00     0.000 C 
BRANCH  15  16
HETATM   16  C   UNL     1       6.571   8.200  91.663  1.00  0.00     0.000 A 
HETATM   17  C   UNL     1       6.774   9.578  91.582  1.00  0.00     0.000 A 
HETATM   18  C   UNL     1       5.682  10.445  91.613  1.00  0.00     0.000 A 
HETATM   19  C   UNL     1       4.413   9.916  91.723  1.00  0.00     0.000 A 
HETATM   20  C   UNL     1       4.186   8.558  91.805  1.00  0.00     0.000 A 
HETATM   21  C   UNL     1       5.277   7.690  91.775  1.00  0.00     0.000 A 
BRANCH  19  22
HETATM   22  C   UNL     1       3.250  10.840  91.758  1.00  0.00     0.000 C 
HETATM   23  O   UNL     1       2.115  10.375  91.826  1.00  0.00     0.000 OA
HETATM   24  N   UNL     1       3.550  12.195  91.735  1.00  0.00     0.000 N 
HETATM   25  HN  UNL     1       4.513  12.507  91.704  1.00  0.00     0.000 HD
BRANCH  24  26
HETATM   26  C   UNL     1       2.533  13.215  91.788  1.00  0.00     0.000 C 
BRANCH  26  27
HETATM   27  C   UNL     1       2.744  14.204  92.941  1.00  0.00     0.000 C 
HETATM   28  C   UNL     1       4.088  14.920  92.860  1.00  0.00     0.000 C 
BRANCH  27  29
HETATM   29  O   UNL     1       1.699  15.177  92.933  1.00  0.00     0.000 OA
HETATM   30  H   UNL     1       1.999  15.950  93.441  1.00  0.00     0.000 HD
ENDBRANCH  27  29
ENDBRANCH  26  27
BRANCH  26  31
HETATM   31  C   UNL     1       2.521  13.930  90.440  1.00  0.00     0.000 C 
HETATM   32  O   UNL     1       1.576  14.616  90.055  1.00  0.00     0.000 OA
BRANCH  31  33
HETATM   33  P   UNL     1       3.659  13.684  89.711  1.00  0.00     0.000 P 
HETATM   34  H   UNL     1       4.074  14.879  89.159  1.00  0.00     0.000 HD
BRANCH  33  35
HETATM   35  O   UNL     1       3.528  12.753  88.672  1.00  0.00     0.000 OA
HETATM   36  H   UNL     1       4.437  12.411  88.628  1.00  0.00     0.000 HD
ENDBRANCH  33  35
ENDBRANCH  31  33
ENDBRANCH  26  31
ENDBRANCH  24  26
ENDBRANCH  19  22
ENDBRANCH  15  16
ENDBRANCH  11  14
ENDBRANCH   7   8
ENDBRANCH   2   7
TORSDOF 11
ENDMDL
MODEL 4
REMARK VINA RESULT:      -4.4      3.750     12.496
REMARK  11 active torsions:
REMARK  status: ('A' for Active; 'I' for Inactive)
REMARK    1  A    between atoms: O_2  and  C_18 
REMARK    2  A    between atoms: O_5  and  P_8 
REMARK    3  A    between atoms: N_6  and  C_11 
REMARK    4  A    between atoms: N_7  and  C_15 
REMARK       I    between atoms: N_7  and  C_24 
REMARK    5  A    between atoms: P_8  and  C_23 
REMARK    6  A    between atoms: C_11  and  C_14 
REMARK    7  A    between atoms: C_15  and  C_18 
REMARK    8  A    between atoms: C_15  and  C_23 
REMARK    9  A    between atoms: C_21  and  C_26 
REMARK   10  A    between atoms: C_24  and  C_25 
REMARK   11  A    between atoms: C_29  and  C_32 
ROOT
HETATM    1  O   UNL     1       4.204  14.760  89.576  1.00  0.00     0.000 OA
HETATM    2  N   UNL     1       3.070  13.984  92.068  1.00  0.00     0.000 N 
HETATM    3  C   UNL     1       4.466  14.431  91.966  1.00  0.00     0.000 C 
HETATM    4  C   UNL     1       2.645  13.366  90.805  1.00  0.00     0.000 C 
HETATM    5  C   UNL     1       4.616  15.392  90.789  1.00  0.00     0.000 C 
HETATM    6  C   UNL     1       2.839  14.350  89.656  1.00  0.00     0.000 C 
ENDROOT
BRANCH   2   7
HETATM    7  C   UNL     1       2.905  13.053  93.184  1.00  0.00     0.000 C 
BRANCH   7   8
HETATM    8  C   UNL     1       3.911  11.954  93.159  1.00  0.00     0.000 A 
HETATM    9  C   UNL     1       5.009  11.994  94.020  1.00  0.00     0.000 A 
HETATM   10  C   UNL     1       5.951  10.967  93.996  1.00  0.00     0.000 A 
HETATM   11  C   UNL     1       5.795   9.899  93.114  1.00  0.00     0.000 A 
HETATM   12  C   UNL     1       4.700   9.857  92.254  1.00  0.00     0.000 A 
HETATM   13  C   UNL     1       3.757  10.884  92.277  1.00  0.00     0.000 A 
BRANCH  11  14
HETATM   14  C   UNL     1       6.762   8.844  93.092  1.00  0.00     0.000 C 
HETATM   15  C   UNL     1       7.573   7.957  93.073  1.00  0.00     0.000 C 
BRANCH  15  16
HETATM   16  C   UNL     1       8.538   6.902  93.050  1.00  0.00     0.000 A 
HETATM   17  C   UNL     1       8.306   5.762  92.279  1.00  0.00     0.000 A 
HETATM   18  C   UNL     1       9.249   4.735  92.255  1.00  0.00     0.000 A 
HETATM   19  C   UNL     1      10.402   4.870  93.000  1.00  0.00     0.000 A 
HETATM   20  C   UNL     1      10.654   5.986  93.769  1.00  0.00     0.000 A 
HETATM   21  C   UNL     1       9.712   7.014  93.795  1.00  0.00     0.000 A 
BRANCH  19  22
HETATM   22  C   UNL     1      11.405   3.774  92.975  1.00  0.00     0.000 C 
HETATM   23  O   UNL     1      11.039   2.621  93.190  1.00  0.00     0.000 OA
HETATM   24  N   UNL     1      12.708   4.149  92.678  1.00  0.00     0.000 N 
HETATM   25  HN  UNL     1      12.931   5.119  92.486  1.00  0.00     0.000 HD
BRANCH  24  26
HETATM   26  C   UNL     1      13.788   3.200  92.592  1.00  0.00     0.000 C 
BRANCH  26  27
HETATM   27  C   UNL     1      14.387   3.107  91.183  1.00  0.00     0.000 C 
HETATM   28  C   UNL     1      13.776   4.119  90.221  1.00  0.00     0.000 C 
BRANCH  27  29
HETATM   29  O   UNL     1      15.796   3.321  91.248  1.00  0.00     0.000 OA
HETATM   30  H   UNL     1      16.235   2.620  90.738  1.00  0.00     0.000 HD
ENDBRANCH  27  29
ENDBRANCH  26  27
BRANCH  26  31
HETATM   31  C   UNL     1      14.843   3.601  93.618  1.00  0.00     0.000 C 
HETATM   32  O   UNL     1      15.070   4.770  93.922  1.00  0.00     0.000 OA
BRANCH  31  33
HETATM   33  P   UNL     1      15.521   2.515  94.117  1.00  0.00     0.000 P 
HETATM   34  H   UNL     1      15.296   2.466  95.478  1.00  0.00     0.000 HD
BRANCH  33  35
HETATM   35  O   UNL     1      16.907   2.513  93.910  1.00  0.00     0.000 OA
HETATM   36  H   UNL     1      17.204   2.979  94.710  1.00  0.00     0.000 HD
ENDBRANCH  33  35
ENDBRANCH  31  33
ENDBRANCH  26  31
ENDBRANCH  24  26
ENDBRANCH  19  22
ENDBRANCH  15  16
ENDBRANCH  11  14
ENDBRANCH   7   8
ENDBRANCH   2   7
TORSDOF 11
ENDMDL
MODEL 5
REMARK VINA RESULT:      -4.2      3.545     12.486
REMARK  11 active torsions:
REMARK  status: ('A' for Active; 'I' for Inactive)
REMARK    1  A    between atoms: O_2  and  C_18 
REMARK    2  A    between atoms: O_5  and  P_8 
REMARK    3  A    between atoms: N_6  and  C_11 
REMARK    4  A    between atoms: N_7  and  C_15 
REMARK       I    between atoms: N_7  and  C_24 
REMARK    5  A    between atoms: P_8  and  C_23 
REMARK    6  A    between atoms: C_11  and  C_14 
REMARK    7  A    between atoms: C_15  and  C_18 
REMARK    8  A    between atoms: C_15  and  C_23 
REMARK    9  A    between atoms: C_21  and  C_26 
REMARK   10  A    between atoms: C_24  and  C_25 
REMARK   11  A    between atoms: C_29  and  C_32 
ROOT
HETATM    1  O   UNL     1       5.320  14.924  88.908  1.00  0.00     0.000 OA
HETATM    2  N   UNL     1       3.415  13.047  89.884  1.00  0.00     0.000 N 
HETATM    3  C   UNL     1       3.774  14.247  90.652  1.00  0.00     0.000 C 
HETATM    4  C   UNL     1       4.548  12.628  89.046  1.00  0.00     0.000 C 
HETATM    5  C   UNL     1       4.213  15.357  89.701  1.00  0.00     0.000 C 
HETATM    6  C   UNL     1       4.970  13.775  88.134  1.00  0.00     0.000 C 
ENDROOT
BRANCH   2   7
HETATM    7  C   UNL     1       3.001  11.965  90.776  1.00  0.00     0.000 C 
BRANCH   7   8
HETATM    8  C   UNL     1       4.079  10.957  90.985  1.00  0.00     0.000 A 
HETATM    9  C   UNL     1       5.088  11.200  91.917  1.00  0.00     0.000 A 
HETATM   10  C   UNL     1       6.099  10.258  92.112  1.00  0.00     0.000 A 
HETATM   11  C   UNL     1       6.097   9.073  91.377  1.00  0.00     0.000 A 
HETATM   12  C   UNL     1       5.090   8.830  90.446  1.00  0.00     0.000 A 
HETATM   13  C   UNL     1       4.080   9.772  90.250  1.00  0.00     0.000 A 
BRANCH  11  14
HETATM   14  C   UNL     1       7.132   8.106  91.578  1.00  0.00     0.000 C 
HETATM   15  C   UNL     1       8.003   7.294  91.748  1.00  0.00     0.000 C 
BRANCH  15  16
HETATM   16  C   UNL     1       9.038   6.329  91.950  1.00  0.00     0.000 A 
HETATM   17  C   UNL     1       9.648   6.213  93.199  1.00  0.00     0.000 A 
HETATM   18  C   UNL     1      10.656   5.269  93.396  1.00  0.00     0.000 A 
HETATM   19  C   UNL     1      11.030   4.462  92.342  1.00  0.00     0.000 A 
HETATM   20  C   UNL     1      10.442   4.557  91.098  1.00  0.00     0.000 A 
HETATM   21  C   UNL     1       9.434   5.501  90.899  1.00  0.00     0.000 A 
BRANCH  19  22
HETATM   22  C   UNL     1      12.105   3.458  92.553  1.00  0.00     0.000 C 
HETATM   23  O   UNL     1      11.812   2.266  92.590  1.00  0.00     0.000 OA
HETATM   24  N   UNL     1      13.393   3.962  92.669  1.00  0.00     0.000 N 
HETATM   25  HN  UNL     1      13.561   4.959  92.603  1.00  0.00     0.000 HD
BRANCH  24  26
HETATM   26  C   UNL     1      14.543   3.114  92.852  1.00  0.00     0.000 C 
BRANCH  26  27
HETATM   27  C   UNL     1      14.977   2.415  91.558  1.00  0.00     0.000 C 
HETATM   28  C   UNL     1      14.982   3.358  90.359  1.00  0.00     0.000 C 
BRANCH  27  29
HETATM   29  O   UNL     1      16.287   1.872  91.725  1.00  0.00     0.000 OA
HETATM   30  H   UNL     1      16.619   1.604  90.851  1.00  0.00     0.000 HD
ENDBRANCH  27  29
ENDBRANCH  26  27
BRANCH  26  31
HETATM   31  C   UNL     1      15.668   3.972  93.423  1.00  0.00     0.000 C 
HETATM   32  O   UNL     1      15.745   5.185  93.238  1.00  0.00     0.000 OA
BRANCH  31  33
HETATM   33  P   UNL     1      16.585   3.226  94.124  1.00  0.00     0.000 P 
HETATM   34  H   UNL     1      16.724   3.793  95.375  1.00  0.00     0.000 HD
BRANCH  33  35
HETATM   35  O   UNL     1      17.860   3.132  93.550  1.00  0.00     0.000 OA
HETATM   36  H   UNL     1      17.640   3.266  92.612  1.00  0.00     0.000 HD
ENDBRANCH  33  35
ENDBRANCH  31  33
ENDBRANCH  26  31
ENDBRANCH  24  26
ENDBRANCH  19  22
ENDBRANCH  15  16
ENDBRANCH  11  14
ENDBRANCH   7   8
ENDBRANCH   2   7
TORSDOF 11
ENDMDL
MODEL 6
REMARK VINA RESULT:      -3.9      3.608     12.477
REMARK  11 active torsions:
REMARK  status: ('A' for Active; 'I' for Inactive)
REMARK    1  A    between atoms: O_2  and  C_18 
REMARK    2  A    between atoms: O_5  and  P_8 
REMARK    3  A    between atoms: N_6  and  C_11 
REMARK    4  A    between atoms: N_7  and  C_15 
REMARK       I    between atoms: N_7  and  C_24 
REMARK    5  A    between atoms: P_8  and  C_23 
REMARK    6  A    between atoms: C_11  and  C_14 
REMARK    7  A    between atoms: C_15  and  C_18 
REMARK    8  A    between atoms: C_15  and  C_23 
REMARK    9  A    between atoms: C_21  and  C_26 
REMARK   10  A    between atoms: C_24  and  C_25 
REMARK   11  A    between atoms: C_29  and  C_32 
ROOT
HETATM    1  O   UNL     1       2.373  13.443  92.982  1.00  0.00     0.000 OA
HETATM    2  N   UNL     1       2.560  12.484  90.309  1.00  0.00     0.000 N 
HETATM    3  C   UNL     1       2.370  11.567  91.442  1.00  0.00     0.000 C 
HETATM    4  C   UNL     1       3.286  13.683  90.748  1.00  0.00     0.000 C 
HETATM    5  C   UNL     1       1.639  12.288  92.572  1.00  0.00     0.000 C 
HETATM    6  C   UNL     1       2.535  14.353  91.894  1.00  0.00     0.000 C 
ENDROOT
BRANCH   2   7
HETATM    7  C   UNL     1       3.269  11.817  89.218  1.00  0.00     0.000 C 
BRANCH   7   8
HETATM    8  C   UNL     1       4.317  10.878  89.711  1.00  0.00     0.000 A 
HETATM    9  C   UNL     1       5.380  11.360  90.476  1.00  0.00     0.000 A 
HETATM   10  C   UNL     1       6.361  10.482  90.936  1.00  0.00     0.000 A 
HETATM   11  C   UNL     1       6.279   9.124  90.632  1.00  0.00     0.000 A 
HETATM   12  C   UNL     1       5.218   8.642  89.869  1.00  0.00     0.000 A 
HETATM   13  C   UNL     1       4.236   9.519  89.408  1.00  0.00     0.000 A 
BRANCH  11  14
HETATM   14  C   UNL     1       7.285   8.223  91.106  1.00  0.00     0.000 C 
HETATM   15  C   UNL     1       8.129   7.466  91.504  1.00  0.00     0.000 C 
BRANCH  15  16
HETATM   16  C   UNL     1       9.134   6.566  91.977  1.00  0.00     0.000 A 
HETATM   17  C   UNL     1       9.628   5.569  91.135  1.00  0.00     0.000 A 
HETATM   18  C   UNL     1      10.610   4.692  91.596  1.00  0.00     0.000 A 
HETATM   19  C   UNL     1      11.077   4.833  92.886  1.00  0.00     0.000 A 
HETATM   20  C   UNL     1      10.606   5.810  93.737  1.00  0.00     0.000 A 
HETATM   21  C   UNL     1       9.623   6.687  93.278  1.00  0.00     0.000 A 
BRANCH  19  22
HETATM   22  C   UNL     1      12.123   3.898  93.377  1.00  0.00     0.000 C 
HETATM   23  O   UNL     1      11.783   2.866  93.950  1.00  0.00     0.000 OA
HETATM   24  N   UNL     1      13.436   4.264  93.119  1.00  0.00     0.000 N 
HETATM   25  HN  UNL     1      13.641   5.121  92.617  1.00  0.00     0.000 HD
BRANCH  24  26
HETATM   26  C   UNL     1      14.560   3.451  93.510  1.00  0.00     0.000 C 
BRANCH  26  27
HETATM   27  C   UNL     1      14.770   2.246  92.585  1.00  0.00     0.000 C 
HETATM   28  C   UNL     1      14.644   0.916  93.320  1.00  0.00     0.000 C 
BRANCH  27  29
HETATM   29  O   UNL     1      13.813   2.283  91.527  1.00  0.00     0.000 OA
HETATM   30  H   UNL     1      14.196   2.782  90.786  1.00  0.00     0.000 HD
ENDBRANCH  27  29
ENDBRANCH  26  27
BRANCH  26  31
HETATM   31  C   UNL     1      15.794   4.346  93.543  1.00  0.00     0.000 C 
HETATM   32  O   UNL     1      15.811   5.481  93.069  1.00  0.00     0.000 OA
BRANCH  31  33
HETATM   33  P   UNL     1      16.872   3.723  94.124  1.00  0.00     0.000 P 
HETATM   34  H   UNL     1      17.744   4.702  94.557  1.00  0.00     0.000 HD
BRANCH  33  35
HETATM   35  O   UNL     1      17.587   2.845  93.297  1.00  0.00     0.000 OA
HETATM   36  H   UNL     1      18.406   2.748  93.813  1.00  0.00     0.000 HD
ENDBRANCH  33  35
ENDBRANCH  31  33
ENDBRANCH  26  31
ENDBRANCH  24  26
ENDBRANCH  19  22
ENDBRANCH  15  16
ENDBRANCH  11  14
ENDBRANCH   7   8
ENDBRANCH   2   7
TORSDOF 11
ENDMDL
