MODEL 1
REMARK VINA RESULT:      -7.6      0.000      0.000
REMARK  9 active torsions:
REMARK  status: ('A' for Active; 'I' for Inactive)
REMARK    1  A    between atoms: N_3  and  C_6 
REMARK    2  A    between atoms: C_6  and  C_9 
REMARK    3  A    between atoms: C_14  and  C_17 
REMARK       I    between atoms: N_26  and  C_15 
REMARK    4  A    between atoms: C_15  and  C_16 
REMARK    5  A    between atoms: C_20  and  C_23 
REMARK    6  A    between atoms: OG1_24  and  CB_28 
REMARK    7  A    between atoms: N_26  and  CA_27 
REMARK    8  A    between atoms: CA_27  and  CB_28 
REMARK    9  A    between atoms: CA_27  and  C_30 
ROOT
HETATM    1  O   UNK A   0       1.890   8.175  87.877  1.00  0.00    -0.388 OA
HETATM    2  N   UNK A   0       4.669   7.588  87.682  1.00  0.00     0.096 N 
HETATM    3  C   UNK A   0       4.181   8.970  87.784  1.00  0.00     0.299 C 
HETATM    4  C   UNK A   0       3.657   6.744  87.031  1.00  0.00     0.299 C 
HETATM    5  C   UNK A   0       2.854   8.997  88.538  1.00  0.00     0.198 C 
HETATM    6  C   UNK A   0       2.343   6.823  87.802  1.00  0.00     0.198 C 
ENDROOT
BRANCH   2   7
HETATM    7  C   UNK A   0       5.935   7.537  86.954  1.00  0.00     0.311 C 
BRANCH   7   8
HETATM    8  C   UNK A   0       7.031   6.930  87.762  1.00  0.00    -0.030 A 
HETATM    9  C   UNK A   0       6.809   6.597  89.098  1.00  0.00     0.010 A 
HETATM   10  C   UNK A   0       7.835   6.032  89.856  1.00  0.00     0.021 A 
HETATM   11  C   UNK A   0       9.081   5.798  89.275  1.00  0.00     0.018 A 
HETATM   12  C   UNK A   0       9.304   6.130  87.941  1.00  0.00     0.021 A 
HETATM   13  C   UNK A   0       8.279   6.696  87.183  1.00  0.00     0.010 A 
BRANCH  11  14
HETATM   14  C   UNK A   0      10.132   5.216  90.052  1.00  0.00    -0.061 C 
HETATM   15  C   UNK A   0      11.015   4.726  90.705  1.00  0.00    -0.061 C 
BRANCH  15  16
HETATM   16  C   UNK A   0      12.066   4.143  91.480  1.00  0.00     0.018 A 
HETATM   17  C   UNK A   0      13.328   3.959  90.915  1.00  0.00     0.022 A 
HETATM   18  C   UNK A   0      14.353   3.393  91.673  1.00  0.00     0.018 A 
HETATM   19  C   UNK A   0      14.094   3.025  92.977  1.00  0.00     0.032 A 
HETATM   20  C   UNK A   0      12.855   3.197  93.557  1.00  0.00     0.018 A 
HETATM   21  C   UNK A   0      11.829   3.763  92.801  1.00  0.00     0.022 A 
BRANCH  19  22
HETATM   22  C   UNK A   0      15.187   2.421  93.783  1.00  0.00     0.252 C 
HETATM   23  O   UNK A   0      16.350   2.743  93.553  1.00  0.00    -0.268 OA
ENDBRANCH  19  22
ENDBRANCH  15  16
ENDBRANCH  11  14
ENDBRANCH   7   8
ENDBRANCH   2   7
TORSDOF 9
ENDMDL
MODEL 2
REMARK VINA RESULT:      -7.5      0.082      1.011
REMARK  9 active torsions:
REMARK  status: ('A' for Active; 'I' for Inactive)
REMARK    1  A    between atoms: N_3  and  C_6 
REMARK    2  A    between atoms: C_6  and  C_9 
REMARK    3  A    between atoms: C_14  and  C_17 
REMARK       I    between atoms: N_26  and  C_15 
REMARK    4  A    between atoms: C_15  and  C_16 
REMARK    5  A    between atoms: C_20  and  C_23 
REMARK    6  A    between atoms: OG1_24  and  CB_28 
REMARK    7  A    between atoms: N_26  and  CA_27 
REMARK    8  A    between atoms: CA_27  and  CB_28 
REMARK    9  A    between atoms: CA_27  and  C_30 
ROOT
HETATM    1  O   UNK A   0       1.906   8.117  87.823  1.00  0.00    -0.388 OA
HETATM    2  N   UNK A   0       4.697   7.580  87.661  1.00  0.00     0.096 N 
HETATM    3  C   UNK A   0       4.183   8.954  87.745  1.00  0.00     0.299 C 
HETATM    4  C   UNK A   0       3.708   6.711  87.009  1.00  0.00     0.299 C 
HETATM    5  C   UNK A   0       2.848   8.963  88.486  1.00  0.00     0.198 C 
HETATM    6  C   UNK A   0       2.385   6.773  87.766  1.00  0.00     0.198 C 
ENDROOT
BRANCH   2   7
HETATM    7  C   UNK A   0       5.971   7.547  86.945  1.00  0.00     0.311 C 
BRANCH   7   8
HETATM    8  C   UNK A   0       7.064   6.942  87.759  1.00  0.00    -0.030 A 
HETATM    9  C   UNK A   0       6.843   6.631  89.101  1.00  0.00     0.010 A 
HETATM   10  C   UNK A   0       7.865   6.067  89.864  1.00  0.00     0.021 A 
HETATM   11  C   UNK A   0       9.107   5.813  89.284  1.00  0.00     0.018 A 
HETATM   12  C   UNK A   0       9.329   6.122  87.943  1.00  0.00     0.021 A 
HETATM   13  C   UNK A   0       8.307   6.687  87.180  1.00  0.00     0.010 A 
BRANCH  11  14
HETATM   14  C   UNK A   0      10.156   5.232  90.066  1.00  0.00    -0.061 C 
HETATM   15  C   UNK A   0      11.036   4.745  90.723  1.00  0.00    -0.061 C 
BRANCH  15  16
HETATM   16  C   UNK A   0      12.083   4.164  91.505  1.00  0.00     0.018 A 
HETATM   17  C   UNK A   0      11.845   3.807  92.832  1.00  0.00     0.022 A 
HETATM   18  C   UNK A   0      12.866   3.238  93.594  1.00  0.00     0.018 A 
HETATM   19  C   UNK A   0      14.100   3.038  93.011  1.00  0.00     0.032 A 
HETATM   20  C   UNK A   0      14.360   3.383  91.702  1.00  0.00     0.018 A 
HETATM   21  C   UNK A   0      13.340   3.952  90.939  1.00  0.00     0.022 A 
BRANCH  19  22
HETATM   22  C   UNK A   0      15.187   2.433  93.824  1.00  0.00     0.252 C 
HETATM   23  O   UNK A   0      16.304   2.945  93.806  1.00  0.00    -0.268 OA
ENDBRANCH  19  22
ENDBRANCH  15  16
ENDBRANCH  11  14
ENDBRANCH   7   8
ENDBRANCH   2   7
TORSDOF 9
ENDMDL
MODEL 3
REMARK VINA RESULT:      -7.5      0.155      1.433
REMARK  9 active torsions:
REMARK  status: ('A' for Active; 'I' for Inactive)
REMARK    1  A    between atoms: N_3  and  C_6 
REMARK    2  A    between atoms: C_6  and  C_9 
REMARK    3  A    between atoms: C_14  and  C_17 
REMARK       I    between atoms: N_26  and  C_15 
REMARK    4  A    between atoms: C_15  and  C_16 
REMARK    5  A    between atoms: C_20  and  C_23 
REMARK    6  A    between atoms: OG1_24  and  CB_28 
REMARK    7  A    between atoms: N_26  and  CA_27 
REMARK    8  A    between atoms: CA_27  and  CB_28 
REMARK    9  A    between atoms: CA_27  and  C_30 
ROOT
HETATM    1  O   UNK A   0       1.766   7.957  87.917  1.00  0.00    -0.388 OA
HETATM    2  N   UNK A   0       4.570   7.501  87.739  1.00  0.00     0.096 N 
HETATM    3  C   UNK A   0       4.018   8.858  87.851  1.00  0.00     0.299 C 
HETATM    4  C   UNK A   0       3.603   6.618  87.072  1.00  0.00     0.299 C 
HETATM    5  C   UNK A   0       2.685   8.815  88.595  1.00  0.00     0.198 C 
HETATM    6  C   UNK A   0       2.281   6.628  87.832  1.00  0.00     0.198 C 
ENDROOT
BRANCH   2   7
HETATM    7  C   UNK A   0       5.842   7.517  87.021  1.00  0.00     0.311 C 
BRANCH   7   8
HETATM    8  C   UNK A   0       6.954   6.926  87.820  1.00  0.00    -0.030 A 
HETATM    9  C   UNK A   0       8.189   6.679  87.219  1.00  0.00     0.010 A 
HETATM   10  C   UNK A   0       9.228   6.124  87.965  1.00  0.00     0.021 A 
HETATM   11  C   UNK A   0       9.033   5.818  89.311  1.00  0.00     0.018 A 
HETATM   12  C   UNK A   0       7.800   6.064  89.912  1.00  0.00     0.021 A 
HETATM   13  C   UNK A   0       6.760   6.618  89.166  1.00  0.00     0.010 A 
BRANCH  11  14
HETATM   14  C   UNK A   0      10.100   5.251  90.077  1.00  0.00    -0.061 C 
HETATM   15  C   UNK A   0      10.997   4.774  90.721  1.00  0.00    -0.061 C 
BRANCH  15  16
HETATM   16  C   UNK A   0      12.063   4.207  91.487  1.00  0.00     0.018 A 
HETATM   17  C   UNK A   0      11.861   3.886  92.829  1.00  0.00     0.022 A 
HETATM   18  C   UNK A   0      12.901   3.330  93.575  1.00  0.00     0.018 A 
HETATM   19  C   UNK A   0      14.116   3.107  92.963  1.00  0.00     0.032 A 
HETATM   20  C   UNK A   0      14.340   3.416  91.638  1.00  0.00     0.018 A 
HETATM   21  C   UNK A   0      13.302   3.972  90.891  1.00  0.00     0.022 A 
BRANCH  19  22
HETATM   22  C   UNK A   0      15.223   2.516  93.759  1.00  0.00     0.252 C 
HETATM   23  O   UNK A   0      16.312   3.084  93.784  1.00  0.00    -0.268 OA
ENDBRANCH  19  22
ENDBRANCH  15  16
ENDBRANCH  11  14
ENDBRANCH   7   8
ENDBRANCH   2   7
TORSDOF 9
ENDMDL
MODEL 4
REMARK VINA RESULT:      -7.5      0.421      1.086
REMARK  9 active torsions:
REMARK  status: ('A' for Active; 'I' for Inactive)
REMARK    1  A    between atoms: N_3  and  C_6 
REMARK    2  A    between atoms: C_6  and  C_9 
REMARK    3  A    between atoms: C_14  and  C_17 
REMARK       I    between atoms: N_26  and  C_15 
REMARK    4  A    between atoms: C_15  and  C_16 
REMARK    5  A    between atoms: C_20  and  C_23 
REMARK    6  A    between atoms: OG1_24  and  CB_28 
REMARK    7  A    between atoms: N_26  and  CA_27 
REMARK    8  A    between atoms: CA_27  and  CB_28 
REMARK    9  A    between atoms: CA_27  and  C_30 
ROOT
HETATM    1  O   UNK A   0       1.831   8.873  88.254  1.00  0.00    -0.388 OA
HETATM    2  N   UNK A   0       4.460   7.865  87.834  1.00  0.00     0.096 N 
HETATM    3  C   UNK A   0       4.185   9.308  87.854  1.00  0.00     0.299 C 
HETATM    4  C   UNK A   0       3.273   7.133  87.372  1.00  0.00     0.299 C 
HETATM    5  C   UNK A   0       2.970   9.591  88.734  1.00  0.00     0.198 C 
HETATM    6  C   UNK A   0       2.079   7.466  88.261  1.00  0.00     0.198 C 
ENDROOT
BRANCH   2   7
HETATM    7  C   UNK A   0       5.615   7.569  86.988  1.00  0.00     0.311 C 
BRANCH   7   8
HETATM    8  C   UNK A   0       6.745   6.976  87.757  1.00  0.00    -0.030 A 
HETATM    9  C   UNK A   0       8.025   6.942  87.201  1.00  0.00     0.010 A 
HETATM   10  C   UNK A   0       9.083   6.385  87.919  1.00  0.00     0.021 A 
HETATM   11  C   UNK A   0       8.861   5.864  89.193  1.00  0.00     0.018 A 
HETATM   12  C   UNK A   0       7.585   5.898  89.750  1.00  0.00     0.021 A 
HETATM   13  C   UNK A   0       6.526   6.454  89.032  1.00  0.00     0.010 A 
BRANCH  11  14
HETATM   14  C   UNK A   0       9.947   5.294  89.930  1.00  0.00    -0.061 C 
HETATM   15  C   UNK A   0      10.860   4.816  90.551  1.00  0.00    -0.061 C 
BRANCH  15  16
HETATM   16  C   UNK A   0      11.944   4.246  91.288  1.00  0.00     0.018 A 
HETATM   17  C   UNK A   0      13.195   4.102  90.687  1.00  0.00     0.022 A 
HETATM   18  C   UNK A   0      14.254   3.549  91.407  1.00  0.00     0.018 A 
HETATM   19  C   UNK A   0      14.038   3.153  92.710  1.00  0.00     0.032 A 
HETATM   20  C   UNK A   0      12.812   3.284  93.327  1.00  0.00     0.018 A 
HETATM   21  C   UNK A   0      11.752   3.837  92.607  1.00  0.00     0.022 A 
BRANCH  19  22
HETATM   22  C   UNK A   0      15.166   2.562  93.476  1.00  0.00     0.252 C 
HETATM   23  O   UNK A   0      16.167   3.241  93.690  1.00  0.00    -0.268 OA
ENDBRANCH  19  22
ENDBRANCH  15  16
ENDBRANCH  11  14
ENDBRANCH   7   8
ENDBRANCH   2   7
TORSDOF 9
ENDMDL
MODEL 5
REMARK VINA RESULT:      -7.1      1.040      1.494
REMARK  9 active torsions:
REMARK  status: ('A' for Active; 'I' for Inactive)
REMARK    1  A    between atoms: N_3  and  C_6 
REMARK    2  A    between atoms: C_6  and  C_9 
REMARK    3  A    between atoms: C_14  and  C_17 
REMARK       I    between atoms: N_26  and  C_15 
REMARK    4  A    between atoms: C_15  and  C_16 
REMARK    5  A    between atoms: C_20  and  C_23 
REMARK    6  A    between atoms: OG1_24  and  CB_28 
REMARK    7  A    between atoms: N_26  and  CA_27 
REMARK    8  A    between atoms: CA_27  and  CB_28 
REMARK    9  A    between atoms: CA_27  and  C_30 
ROOT
HETATM    1  O   UNK A   0       1.921   7.119  86.989  1.00  0.00    -0.388 OA
HETATM    2  N   UNK A   0       4.279   7.903  88.378  1.00  0.00     0.096 N 
HETATM    3  C   UNK A   0       3.074   8.745  88.373  1.00  0.00     0.299 C 
HETATM    4  C   UNK A   0       4.342   7.108  87.144  1.00  0.00     0.299 C 
HETATM    5  C   UNK A   0       1.834   7.872  88.200  1.00  0.00     0.198 C 
HETATM    6  C   UNK A   0       3.073   6.274  86.999  1.00  0.00     0.198 C 
ENDROOT
BRANCH   2   7
HETATM    7  C   UNK A   0       5.481   8.721  88.531  1.00  0.00     0.311 C 
BRANCH   7   8
HETATM    8  C   UNK A   0       6.619   7.954  89.114  1.00  0.00    -0.030 A 
HETATM    9  C   UNK A   0       7.877   8.012  88.515  1.00  0.00     0.010 A 
HETATM   10  C   UNK A   0       8.942   7.293  89.057  1.00  0.00     0.021 A 
HETATM   11  C   UNK A   0       8.748   6.518  90.200  1.00  0.00     0.018 A 
HETATM   12  C   UNK A   0       7.491   6.459  90.800  1.00  0.00     0.021 A 
HETATM   13  C   UNK A   0       6.426   7.177  90.257  1.00  0.00     0.010 A 
BRANCH  11  14
HETATM   14  C   UNK A   0       9.841   5.782  90.758  1.00  0.00    -0.061 C 
HETATM   15  C   UNK A   0      10.760   5.164  91.227  1.00  0.00    -0.061 C 
BRANCH  15  16
HETATM   16  C   UNK A   0      11.852   4.429  91.784  1.00  0.00     0.018 A 
HETATM   17  C   UNK A   0      12.975   4.151  91.004  1.00  0.00     0.022 A 
HETATM   18  C   UNK A   0      14.042   3.437  91.549  1.00  0.00     0.018 A 
HETATM   19  C   UNK A   0      13.963   3.018  92.861  1.00  0.00     0.032 A 
HETATM   20  C   UNK A   0      12.864   3.279  93.652  1.00  0.00     0.018 A 
HETATM   21  C   UNK A   0      11.796   3.993  93.108  1.00  0.00     0.022 A 
BRANCH  19  22
HETATM   22  C   UNK A   0      15.099   2.255  93.440  1.00  0.00     0.252 C 
HETATM   23  O   UNK A   0      16.204   2.787  93.511  1.00  0.00    -0.268 OA
ENDBRANCH  19  22
ENDBRANCH  15  16
ENDBRANCH  11  14
ENDBRANCH   7   8
ENDBRANCH   2   7
TORSDOF 9
ENDMDL
MODEL 6
REMARK VINA RESULT:      -7.0      1.445      2.272
REMARK  9 active torsions:
REMARK  status: ('A' for Active; 'I' for Inactive)
REMARK    1  A    between atoms: N_3  and  C_6 
REMARK    2  A    between atoms: C_6  and  C_9 
REMARK    3  A    between atoms: C_14  and  C_17 
REMARK       I    between atoms: N_26  and  C_15 
REMARK    4  A    between atoms: C_15  and  C_16 
REMARK    5  A    between atoms: C_20  and  C_23 
REMARK    6  A    between atoms: OG1_24  and  CB_28 
REMARK    7  A    between atoms: N_26  and  CA_27 
REMARK    8  A    between atoms: CA_27  and  CB_28 
REMARK    9  A    between atoms: CA_27  and  C_30 
ROOT
HETATM    1  O   UNK A   0       4.930  11.063  88.677  1.00  0.00    -0.388 OA
HETATM    2  N   UNK A   0       5.425   8.260  88.637  1.00  0.00     0.096 N 
HETATM    3  C   UNK A   0       6.506   9.227  88.871  1.00  0.00     0.299 C 
HETATM    4  C   UNK A   0       4.377   8.868  87.805  1.00  0.00     0.299 C 
HETATM    5  C   UNK A   0       5.939  10.491  89.512  1.00  0.00     0.198 C 
HETATM    6  C   UNK A   0       3.861  10.139  88.470  1.00  0.00     0.198 C 
ENDROOT
BRANCH   2   7
HETATM    7  C   UNK A   0       5.944   7.044  88.013  1.00  0.00     0.311 C 
BRANCH   7   8
HETATM    8  C   UNK A   0       7.127   6.495  88.736  1.00  0.00    -0.030 A 
HETATM    9  C   UNK A   0       8.393   6.563  88.153  1.00  0.00     0.010 A 
HETATM   10  C   UNK A   0       9.500   6.048  88.827  1.00  0.00     0.021 A 
HETATM   11  C   UNK A   0       9.340   5.468  90.085  1.00  0.00     0.018 A 
HETATM   12  C   UNK A   0       8.077   5.400  90.669  1.00  0.00     0.021 A 
HETATM   13  C   UNK A   0       6.970   5.914  89.994  1.00  0.00     0.010 A 
BRANCH  11  14
HETATM   14  C   UNK A   0      10.476   4.941  90.778  1.00  0.00    -0.061 C 
HETATM   15  C   UNK A   0      11.430   4.499  91.361  1.00  0.00    -0.061 C 
BRANCH  15  16
HETATM   16  C   UNK A   0      12.565   3.972  92.053  1.00  0.00     0.018 A 
HETATM   17  C   UNK A   0      12.451   3.597  93.392  1.00  0.00     0.022 A 
HETATM   18  C   UNK A   0      13.558   3.080  94.067  1.00  0.00     0.018 A 
HETATM   19  C   UNK A   0      14.751   2.950  93.388  1.00  0.00     0.032 A 
HETATM   20  C   UNK A   0      14.889   3.313  92.065  1.00  0.00     0.018 A 
HETATM   21  C   UNK A   0      13.783   3.830  91.389  1.00  0.00     0.022 A 
BRANCH  19  22
HETATM   22  C   UNK A   0      15.930   2.401  94.107  1.00  0.00     0.252 C 
HETATM   23  O   UNK A   0      17.051   2.816  93.825  1.00  0.00    -0.268 OA
ENDBRANCH  19  22
ENDBRANCH  15  16
ENDBRANCH  11  14
ENDBRANCH   7   8
ENDBRANCH   2   7
TORSDOF 9
ENDMDL
MODEL 7
REMARK VINA RESULT:      -6.9      1.528      2.153
REMARK  9 active torsions:
REMARK  status: ('A' for Active; 'I' for Inactive)
REMARK    1  A    between atoms: N_3  and  C_6 
REMARK    2  A    between atoms: C_6  and  C_9 
REMARK    3  A    between atoms: C_14  and  C_17 
REMARK       I    between atoms: N_26  and  C_15 
REMARK    4  A    between atoms: C_15  and  C_16 
REMARK    5  A    between atoms: C_20  and  C_23 
REMARK    6  A    between atoms: OG1_24  and  CB_28 
REMARK    7  A    between atoms: N_26  and  CA_27 
REMARK    8  A    between atoms: CA_27  and  CB_28 
REMARK    9  A    between atoms: CA_27  and  C_30 
ROOT
HETATM    1  O   UNK A   0       2.784  11.237  89.842  1.00  0.00    -0.388 OA
HETATM    2  N   UNK A   0       4.606   9.296  88.836  1.00  0.00     0.096 N 
HETATM    3  C   UNK A   0       3.804  10.135  87.935  1.00  0.00     0.299 C 
HETATM    4  C   UNK A   0       3.894   9.097  90.106  1.00  0.00     0.299 C 
HETATM    5  C   UNK A   0       3.482  11.463  88.616  1.00  0.00     0.198 C 
HETATM    6  C   UNK A   0       3.570  10.448  90.735  1.00  0.00     0.198 C 
ENDROOT
BRANCH   2   7
HETATM    7  C   UNK A   0       4.917   8.013  88.208  1.00  0.00     0.311 C 
BRANCH   7   8
HETATM    8  C   UNK A   0       6.131   7.374  88.793  1.00  0.00    -0.030 A 
HETATM    9  C   UNK A   0       6.015   6.177  89.501  1.00  0.00     0.010 A 
HETATM   10  C   UNK A   0       7.149   5.579  90.050  1.00  0.00     0.021 A 
HETATM   11  C   UNK A   0       8.399   6.178  89.889  1.00  0.00     0.018 A 
HETATM   12  C   UNK A   0       8.515   7.372  89.182  1.00  0.00     0.021 A 
HETATM   13  C   UNK A   0       7.381   7.971  88.633  1.00  0.00     0.010 A 
BRANCH  11  14
HETATM   14  C   UNK A   0       9.562   5.563  90.451  1.00  0.00    -0.061 C 
HETATM   15  C   UNK A   0      10.540   5.047  90.922  1.00  0.00    -0.061 C 
BRANCH  15  16
HETATM   16  C   UNK A   0      11.704   4.433  91.482  1.00  0.00     0.018 A 
HETATM   17  C   UNK A   0      11.695   4.008  92.811  1.00  0.00     0.022 A 
HETATM   18  C   UNK A   0      12.830   3.407  93.357  1.00  0.00     0.018 A 
HETATM   19  C   UNK A   0      13.945   3.244  92.563  1.00  0.00     0.032 A 
HETATM   20  C   UNK A   0      13.978   3.655  91.247  1.00  0.00     0.018 A 
HETATM   21  C   UNK A   0      12.845   4.256  90.700  1.00  0.00     0.022 A 
BRANCH  19  22
HETATM   22  C   UNK A   0      15.154   2.605  93.145  1.00  0.00     0.252 C 
HETATM   23  O   UNK A   0      16.039   3.315  93.617  1.00  0.00    -0.268 OA
ENDBRANCH  19  22
ENDBRANCH  15  16
ENDBRANCH  11  14
ENDBRANCH   7   8
ENDBRANCH   2   7
TORSDOF 9
ENDMDL
MODEL 8
REMARK VINA RESULT:      -6.6      3.920     10.483
REMARK  9 active torsions:
REMARK  status: ('A' for Active; 'I' for Inactive)
REMARK    1  A    between atoms: N_3  and  C_6 
REMARK    2  A    between atoms: C_6  and  C_9 
REMARK    3  A    between atoms: C_14  and  C_17 
REMARK       I    between atoms: N_26  and  C_15 
REMARK    4  A    between atoms: C_15  and  C_16 
REMARK    5  A    between atoms: C_20  and  C_23 
REMARK    6  A    between atoms: OG1_24  and  CB_28 
REMARK    7  A    between atoms: N_26  and  CA_27 
REMARK    8  A    between atoms: CA_27  and  CB_28 
REMARK    9  A    between atoms: CA_27  and  C_30 
ROOT
HETATM    1  O   UNK A   0      14.639   3.408  92.139  1.00  0.00    -0.388 OA
HETATM    2  N   UNK A   0      11.914   4.204  92.334  1.00  0.00     0.096 N 
HETATM    3  C   UNK A   0      12.533   3.331  93.341  1.00  0.00     0.299 C 
HETATM    4  C   UNK A   0      12.567   4.013  91.032  1.00  0.00     0.299 C 
HETATM    5  C   UNK A   0      14.032   3.610  93.416  1.00  0.00     0.198 C 
HETATM    6  C   UNK A   0      14.064   4.275  91.161  1.00  0.00     0.198 C 
ENDROOT
BRANCH   2   7
HETATM    7  C   UNK A   0      10.478   3.946  92.238  1.00  0.00     0.311 C 
BRANCH   7   8
HETATM    8  C   UNK A   0       9.697   5.182  91.944  1.00  0.00    -0.030 A 
HETATM    9  C   UNK A   0       9.898   6.331  92.709  1.00  0.00     0.010 A 
HETATM   10  C   UNK A   0       9.166   7.487  92.436  1.00  0.00     0.021 A 
HETATM   11  C   UNK A   0       8.237   7.493  91.397  1.00  0.00     0.018 A 
HETATM   12  C   UNK A   0       8.036   6.346  90.631  1.00  0.00     0.021 A 
HETATM   13  C   UNK A   0       8.767   5.190  90.905  1.00  0.00     0.010 A 
BRANCH  11  14
HETATM   14  C   UNK A   0       7.488   8.680  91.115  1.00  0.00    -0.061 C 
HETATM   15  C   UNK A   0       6.859   9.677  90.879  1.00  0.00    -0.061 C 
BRANCH  15  16
HETATM   16  C   UNK A   0       6.111  10.863  90.599  1.00  0.00     0.018 A 
HETATM   17  C   UNK A   0       5.288  11.415  91.581  1.00  0.00     0.022 A 
HETATM   18  C   UNK A   0       4.561  12.574  91.308  1.00  0.00     0.018 A 
HETATM   19  C   UNK A   0       4.673  13.153  90.062  1.00  0.00     0.032 A 
HETATM   20  C   UNK A   0       5.479  12.626  89.074  1.00  0.00     0.018 A 
HETATM   21  C   UNK A   0       6.207  11.468  89.346  1.00  0.00     0.022 A 
BRANCH  19  22
HETATM   22  C   UNK A   0       3.896  14.386  89.771  1.00  0.00     0.252 C 
HETATM   23  O   UNK A   0       4.476  15.469  89.750  1.00  0.00    -0.268 OA
ENDBRANCH  19  22
ENDBRANCH  15  16
ENDBRANCH  11  14
ENDBRANCH   7   8
ENDBRANCH   2   7
TORSDOF 9
ENDMDL
MODEL 9
REMARK VINA RESULT:      -6.6      3.877     10.420
REMARK  9 active torsions:
REMARK  status: ('A' for Active; 'I' for Inactive)
REMARK    1  A    between atoms: N_3  and  C_6 
REMARK    2  A    between atoms: C_6  and  C_9 
REMARK    3  A    between atoms: C_14  and  C_17 
REMARK       I    between atoms: N_26  and  C_15 
REMARK    4  A    between atoms: C_15  and  C_16 
REMARK    5  A    between atoms: C_20  and  C_23 
REMARK    6  A    between atoms: OG1_24  and  CB_28 
REMARK    7  A    between atoms: N_26  and  CA_27 
REMARK    8  A    between atoms: CA_27  and  CB_28 
REMARK    9  A    between atoms: CA_27  and  C_30 
ROOT
HETATM    1  O   UNK A   0      14.685   3.257  92.188  1.00  0.00    -0.388 OA
HETATM    2  N   UNK A   0      11.961   4.079  92.287  1.00  0.00     0.096 N 
HETATM    3  C   UNK A   0      12.553   3.251  93.347  1.00  0.00     0.299 C 
HETATM    4  C   UNK A   0      12.641   3.821  91.010  1.00  0.00     0.299 C 
HETATM    5  C   UNK A   0      14.052   3.523  93.441  1.00  0.00     0.198 C 
HETATM    6  C   UNK A   0      14.137   4.080  91.158  1.00  0.00     0.198 C 
ENDROOT
BRANCH   2   7
HETATM    7  C   UNK A   0      10.526   3.826  92.172  1.00  0.00     0.311 C 
BRANCH   7   8
HETATM    8  C   UNK A   0       9.751   5.069  91.895  1.00  0.00    -0.030 A 
HETATM    9  C   UNK A   0       8.736   5.057  90.937  1.00  0.00     0.010 A 
HETATM   10  C   UNK A   0       8.012   6.220  90.675  1.00  0.00     0.021 A 
HETATM   11  C   UNK A   0       8.301   7.392  91.372  1.00  0.00     0.018 A 
HETATM   12  C   UNK A   0       9.314   7.405  92.329  1.00  0.00     0.021 A 
HETATM   13  C   UNK A   0      10.039   6.243  92.591  1.00  0.00     0.010 A 
BRANCH  11  14
HETATM   14  C   UNK A   0       7.556   8.584  91.105  1.00  0.00    -0.061 C 
HETATM   15  C   UNK A   0       6.929   9.585  90.880  1.00  0.00    -0.061 C 
BRANCH  15  16
HETATM   16  C   UNK A   0       6.184  10.776  90.613  1.00  0.00     0.018 A 
HETATM   17  C   UNK A   0       6.341  11.438  89.395  1.00  0.00     0.022 A 
HETATM   18  C   UNK A   0       5.613  12.598  89.134  1.00  0.00     0.018 A 
HETATM   19  C   UNK A   0       4.743  13.070  90.096  1.00  0.00     0.032 A 
HETATM   20  C   UNK A   0       4.571  12.434  91.307  1.00  0.00     0.018 A 
HETATM   21  C   UNK A   0       5.299  11.274  91.569  1.00  0.00     0.022 A 
BRANCH  19  22
HETATM   22  C   UNK A   0       3.969  14.307  89.818  1.00  0.00     0.252 C 
HETATM   23  O   UNK A   0       4.549  15.288  89.359  1.00  0.00    -0.268 OA
ENDBRANCH  19  22
ENDBRANCH  15  16
ENDBRANCH  11  14
ENDBRANCH   7   8
ENDBRANCH   2   7
TORSDOF 9
ENDMDL
