MODEL 1
REMARK VINA RESULT:      -6.0      0.000      0.000
REMARK  12 active torsions:
REMARK  status: ('A' for Active; 'I' for Inactive)
REMARK    1  A    between atoms: O_2  and  C_16 
REMARK    2  A    between atoms: N_5  and  C_9 
REMARK    3  A    between atoms: N_6  and  C_13 
REMARK       I    between atoms: N_6  and  C_22 
REMARK    4  A    between atoms: C_9  and  C_12 
REMARK    5  A    between atoms: C_13  and  C_16 
REMARK    6  A    between atoms: C_13  and  C_21 
REMARK    7  A    between atoms: C_19  and  C_24 
REMARK    8  A    between atoms: C_21  and  C_33 
REMARK    9  A    between atoms: C_22  and  C_23 
REMARK   10  A    between atoms: C_27  and  C_30 
REMARK   11  A    between atoms: C_33  and  C_34 
REMARK   12  A    between atoms: C_34  and  C_35 
ROOT
HETATM    1  O   UNL     1      16.844   3.678  93.790  1.00  0.00    -0.350 OA
HETATM    2  N   UNL     1      14.203   3.089  92.908  1.00  0.00     0.147 N 
HETATM    3  C   UNL     1      15.217   2.036  93.051  1.00  0.00     0.283 C 
HETATM    4  C   UNL     1      14.849   4.372  92.598  1.00  0.00     0.283 C 
HETATM    5  C   UNL     1      16.228   2.433  94.124  1.00  0.00     0.178 C 
HETATM    6  C   UNL     1      15.868   4.714  93.680  1.00  0.00     0.178 C 
ENDROOT
BRANCH   2   7
HETATM    7  C   UNL     1      13.229   2.734  91.877  1.00  0.00     0.277 C 
BRANCH   7   8
HETATM    8  C   UNL     1      12.087   3.690  91.821  1.00  0.00     0.011 A 
HETATM    9  C   UNL     1      11.438   4.070  92.997  1.00  0.00    -0.002 A 
HETATM   10  C   UNL     1      10.367   4.963  92.945  1.00  0.00     0.008 A 
HETATM   11  C   UNL     1       9.948   5.477  91.719  1.00  0.00     0.042 A 
HETATM   12  C   UNL     1      10.596   5.099  90.544  1.00  0.00     0.008 A 
HETATM   13  C   UNL     1      11.666   4.206  90.595  1.00  0.00    -0.002 A 
BRANCH  11  14
HETATM   14  C   UNL     1       8.852   6.395  91.666  1.00  0.00    -0.059 C 
HETATM   15  C   UNL     1       7.931   7.166  91.623  1.00  0.00    -0.059 C 
BRANCH  15  16
HETATM   16  C   UNL     1       6.835   8.084  91.570  1.00  0.00     0.042 A 
HETATM   17  C   UNL     1       5.753   7.926  92.436  1.00  0.00     0.008 A 
HETATM   18  C   UNL     1       4.686   8.823  92.386  1.00  0.00     0.005 A 
HETATM   19  C   UNL     1       4.725   9.856  91.473  1.00  0.00     0.056 A 
HETATM   20  C   UNL     1       5.783  10.033  90.606  1.00  0.00     0.005 A 
HETATM   21  C   UNL     1       6.851   9.136  90.655  1.00  0.00     0.008 A 
BRANCH  19  22
HETATM   22  C   UNL     1       3.587  10.810  91.419  1.00  0.00     0.254 C 
HETATM   23  O   UNL     1       2.468  10.393  91.130  1.00  0.00    -0.268 OA
HETATM   24  N   UNL     1       3.884  12.129  91.732  1.00  0.00    -0.335 N 
HETATM   25  HN  UNL     1       4.828  12.396  91.986  1.00  0.00     0.164 HD
BRANCH  24  26
HETATM   26  C   UNL     1       2.884  13.166  91.748  1.00  0.00     0.166 C 
BRANCH  26  27
HETATM   27  C   UNL     1       3.186  14.267  92.773  1.00  0.00     0.138 C 
HETATM   28  C   UNL     1       1.989  14.580  93.663  1.00  0.00     0.034 C 
BRANCH  27  29
HETATM   29  O   UNL     1       4.283  13.866  93.594  1.00  0.00    -0.383 OA
HETATM   30  H   UNL     1       4.234  12.904  93.719  1.00  0.00     0.210 HD
ENDBRANCH  27  29
ENDBRANCH  26  27
BRANCH  26  31
HETATM   31  C   UNL     1       2.781  13.736  90.337  1.00  0.00     0.181 C 
HETATM   32  O   UNL     1       1.870  14.479  89.979  1.00  0.00    -0.294 OA
BRANCH  31  33
HETATM   33  C   UNL     1       4.159  14.456  89.876  1.00  0.00     0.138 C 
BRANCH  33  34
HETATM   34  C   UNL     1       4.694  13.487  88.999  1.00  0.00     0.208 C 
HETATM   35  O   UNL     1       3.900  12.722  88.503  1.00  0.00    -0.289 OA
BRANCH  34  36
HETATM   36  C   UNL     1       5.913  13.427  88.380  1.00  0.00     0.194 C 
HETATM   37  O   UNL     1       6.941  12.485  88.497  1.00  0.00    -0.185 OA
ENDBRANCH  34  36
ENDBRANCH  33  34
ENDBRANCH  31  33
ENDBRANCH  26  31
ENDBRANCH  24  26
ENDBRANCH  19  22
ENDBRANCH  15  16
ENDBRANCH  11  14
ENDBRANCH   7   8
ENDBRANCH   2   7
TORSDOF 12
ENDMDL
