MODEL 1
REMARK VINA RESULT:      -6.1      0.000      0.000
REMARK  12 active torsions:
REMARK  status: ('A' for Active; 'I' for Inactive)
REMARK    1  A    between atoms: O_2  and  C_16 
REMARK    2  A    between atoms: N_5  and  C_9 
REMARK    3  A    between atoms: N_6  and  C_13 
REMARK       I    between atoms: N_6  and  C_22 
REMARK    4  A    between atoms: C_9  and  C_12 
REMARK    5  A    between atoms: C_13  and  C_16 
REMARK    6  A    between atoms: C_13  and  C_21 
REMARK    7  A    between atoms: C_19  and  C_24 
REMARK    8  A    between atoms: C_21  and  C_33 
REMARK    9  A    between atoms: C_22  and  C_23 
REMARK   10  A    between atoms: C_27  and  C_30 
REMARK   11  A    between atoms: C_33  and  C_34 
REMARK   12  A    between atoms: C_34  and  C_35 
ROOT
HETATM    1  O   UNL     1      16.567   3.276  93.707  1.00  0.00    -0.350 OA
HETATM    2  N   UNL     1      13.912   2.867  92.767  1.00  0.00     0.147 N 
HETATM    3  C   UNL     1      14.810   1.738  93.047  1.00  0.00     0.283 C 
HETATM    4  C   UNL     1      14.694   4.046  92.371  1.00  0.00     0.283 C 
HETATM    5  C   UNL     1      15.817   2.134  94.124  1.00  0.00     0.178 C 
HETATM    6  C   UNL     1      15.704   4.387  93.462  1.00  0.00     0.178 C 
ENDROOT
BRANCH   2   7
HETATM    7  C   UNL     1      12.944   2.513  91.730  1.00  0.00     0.277 C 
BRANCH   7   8
HETATM    8  C   UNL     1      11.804   3.472  91.666  1.00  0.00     0.011 A 
HETATM    9  C   UNL     1      11.228   3.949  92.844  1.00  0.00    -0.002 A 
HETATM   10  C   UNL     1      10.160   4.844  92.785  1.00  0.00     0.008 A 
HETATM   11  C   UNL     1       9.671   5.264  91.548  1.00  0.00     0.042 A 
HETATM   12  C   UNL     1      10.246   4.789  90.371  1.00  0.00     0.008 A 
HETATM   13  C   UNL     1      11.314   3.893  90.430  1.00  0.00    -0.002 A 
BRANCH  11  14
HETATM   14  C   UNL     1       8.578   6.185  91.488  1.00  0.00    -0.059 C 
HETATM   15  C   UNL     1       7.659   6.959  91.436  1.00  0.00    -0.059 C 
BRANCH  15  16
HETATM   16  C   UNL     1       6.566   7.879  91.375  1.00  0.00     0.042 A 
HETATM   17  C   UNL     1       6.182   8.423  90.149  1.00  0.00     0.008 A 
HETATM   18  C   UNL     1       5.113   9.318  90.090  1.00  0.00     0.005 A 
HETATM   19  C   UNL     1       4.454   9.648  91.255  1.00  0.00     0.056 A 
HETATM   20  C   UNL     1       4.815   9.124  92.479  1.00  0.00     0.005 A 
HETATM   21  C   UNL     1       5.883   8.229  92.540  1.00  0.00     0.008 A 
BRANCH  19  22
HETATM   22  C   UNL     1       3.318  10.603  91.191  1.00  0.00     0.254 C 
HETATM   23  O   UNL     1       2.253  10.237  90.699  1.00  0.00    -0.268 OA
HETATM   24  N   UNL     1       3.550  11.861  91.730  1.00  0.00    -0.335 N 
HETATM   25  HN  UNL     1       4.448  12.085  92.143  1.00  0.00     0.164 HD
BRANCH  24  26
HETATM   26  C   UNL     1       2.540  12.888  91.764  1.00  0.00     0.166 C 
BRANCH  26  27
HETATM   27  C   UNL     1       2.611  13.748  93.033  1.00  0.00     0.138 C 
HETATM   28  C   UNL     1       1.461  13.467  93.994  1.00  0.00     0.034 C 
BRANCH  27  29
HETATM   29  O   UNL     1       3.847  13.506  93.704  1.00  0.00    -0.383 OA
HETATM   30  H   UNL     1       4.572  13.754  93.106  1.00  0.00     0.210 HD
ENDBRANCH  27  29
ENDBRANCH  26  27
BRANCH  26  31
HETATM   31  C   UNL     1       2.697  13.739  90.508  1.00  0.00     0.181 C 
HETATM   32  O   UNL     1       1.800  14.456  90.068  1.00  0.00    -0.294 OA
BRANCH  31  33
HETATM   33  C   UNL     1       4.026  14.664  90.570  1.00  0.00     0.138 C 
BRANCH  33  34
HETATM   34  C   UNL     1       4.600  14.404  89.306  1.00  0.00     0.208 C 
HETATM   35  O   UNL     1       5.341  15.256  88.872  1.00  0.00    -0.289 OA
BRANCH  34  36
HETATM   36  C   UNL     1       4.699  13.237  88.600  1.00  0.00     0.194 C 
HETATM   37  O   UNL     1       5.716  12.275  88.581  1.00  0.00    -0.185 OA
ENDBRANCH  34  36
ENDBRANCH  33  34
ENDBRANCH  31  33
ENDBRANCH  26  31
ENDBRANCH  24  26
ENDBRANCH  19  22
ENDBRANCH  15  16
ENDBRANCH  11  14
ENDBRANCH   7   8
ENDBRANCH   2   7
TORSDOF 12
ENDMDL
MODEL 2
REMARK VINA RESULT:      -5.5      1.325      1.590
REMARK  12 active torsions:
REMARK  status: ('A' for Active; 'I' for Inactive)
REMARK    1  A    between atoms: O_2  and  C_16 
REMARK    2  A    between atoms: N_5  and  C_9 
REMARK    3  A    between atoms: N_6  and  C_13 
REMARK       I    between atoms: N_6  and  C_22 
REMARK    4  A    between atoms: C_9  and  C_12 
REMARK    5  A    between atoms: C_13  and  C_16 
REMARK    6  A    between atoms: C_13  and  C_21 
REMARK    7  A    between atoms: C_19  and  C_24 
REMARK    8  A    between atoms: C_21  and  C_33 
REMARK    9  A    between atoms: C_22  and  C_23 
REMARK   10  A    between atoms: C_27  and  C_30 
REMARK   11  A    between atoms: C_33  and  C_34 
REMARK   12  A    between atoms: C_34  and  C_35 
ROOT
HETATM    1  O   UNL     1      16.422   2.893  93.967  1.00  0.00    -0.350 OA
HETATM    2  N   UNL     1      13.815   2.992  92.830  1.00  0.00     0.147 N 
HETATM    3  C   UNL     1      14.557   1.728  92.941  1.00  0.00     0.283 C 
HETATM    4  C   UNL     1      14.752   4.117  92.703  1.00  0.00     0.283 C 
HETATM    5  C   UNL     1      15.520   1.797  94.123  1.00  0.00     0.178 C 
HETATM    6  C   UNL     1      15.710   4.129  93.890  1.00  0.00     0.178 C 
ENDROOT
BRANCH   2   7
HETATM    7  C   UNL     1      12.893   2.953  91.696  1.00  0.00     0.277 C 
BRANCH   7   8
HETATM    8  C   UNL     1      11.819   3.981  91.802  1.00  0.00     0.011 A 
HETATM    9  C   UNL     1      11.365   4.387  93.058  1.00  0.00    -0.002 A 
HETATM   10  C   UNL     1      10.358   5.347  93.158  1.00  0.00     0.008 A 
HETATM   11  C   UNL     1       9.807   5.902  92.003  1.00  0.00     0.042 A 
HETATM   12  C   UNL     1      10.260   5.497  90.749  1.00  0.00     0.008 A 
HETATM   13  C   UNL     1      11.266   4.537  90.648  1.00  0.00    -0.002 A 
BRANCH  11  14
HETATM   14  C   UNL     1       8.776   6.888  92.107  1.00  0.00    -0.059 C 
HETATM   15  C   UNL     1       7.909   7.717  92.193  1.00  0.00    -0.059 C 
BRANCH  15  16
HETATM   16  C   UNL     1       6.878   8.702  92.297  1.00  0.00     0.042 A 
HETATM   17  C   UNL     1       5.695   8.551  91.572  1.00  0.00     0.008 A 
HETATM   18  C   UNL     1       4.688   9.511  91.676  1.00  0.00     0.005 A 
HETATM   19  C   UNL     1       4.886  10.598  92.501  1.00  0.00     0.056 A 
HETATM   20  C   UNL     1       6.046  10.770  93.226  1.00  0.00     0.005 A 
HETATM   21  C   UNL     1       7.054   9.811  93.124  1.00  0.00     0.008 A 
BRANCH  19  22
HETATM   22  C   UNL     1       3.814  11.622  92.609  1.00  0.00     0.254 C 
HETATM   23  O   UNL     1       2.751  11.322  93.147  1.00  0.00    -0.268 OA
HETATM   24  N   UNL     1       4.118  12.877  92.101  1.00  0.00    -0.335 N 
HETATM   25  HN  UNL     1       5.028  13.058  91.693  1.00  0.00     0.164 HD
BRANCH  24  26
HETATM   26  C   UNL     1       3.193  13.980  92.153  1.00  0.00     0.166 C 
BRANCH  26  27
HETATM   27  C   UNL     1       3.185  14.684  93.516  1.00  0.00     0.138 C 
HETATM   28  C   UNL     1       4.480  15.442  93.789  1.00  0.00     0.034 C 
BRANCH  27  29
HETATM   29  O   UNL     1       2.092  15.600  93.574  1.00  0.00    -0.383 OA
HETATM   30  H   UNL     1       1.946  15.842  94.504  1.00  0.00     0.210 HD
ENDBRANCH  27  29
ENDBRANCH  26  27
BRANCH  26  31
HETATM   31  C   UNL     1       3.556  14.947  91.031  1.00  0.00     0.181 C 
HETATM   32  O   UNL     1       4.714  15.272  90.777  1.00  0.00    -0.294 OA
BRANCH  31  33
HETATM   33  C   UNL     1       2.888  14.510  89.620  1.00  0.00     0.138 C 
BRANCH  33  34
HETATM   34  C   UNL     1       3.849  13.595  89.135  1.00  0.00     0.208 C 
HETATM   35  O   UNL     1       3.505  12.436  89.089  1.00  0.00    -0.289 OA
BRANCH  34  36
HETATM   36  C   UNL     1       5.006  13.809  88.437  1.00  0.00     0.194 C 
HETATM   37  O   UNL     1       6.210  13.097  88.442  1.00  0.00    -0.185 OA
ENDBRANCH  34  36
ENDBRANCH  33  34
ENDBRANCH  31  33
ENDBRANCH  26  31
ENDBRANCH  24  26
ENDBRANCH  19  22
ENDBRANCH  15  16
ENDBRANCH  11  14
ENDBRANCH   7   8
ENDBRANCH   2   7
TORSDOF 12
ENDMDL
MODEL 3
REMARK VINA RESULT:      -4.8      2.603     12.584
REMARK  12 active torsions:
REMARK  status: ('A' for Active; 'I' for Inactive)
REMARK    1  A    between atoms: O_2  and  C_16 
REMARK    2  A    between atoms: N_5  and  C_9 
REMARK    3  A    between atoms: N_6  and  C_13 
REMARK       I    between atoms: N_6  and  C_22 
REMARK    4  A    between atoms: C_9  and  C_12 
REMARK    5  A    between atoms: C_13  and  C_16 
REMARK    6  A    between atoms: C_13  and  C_21 
REMARK    7  A    between atoms: C_19  and  C_24 
REMARK    8  A    between atoms: C_21  and  C_33 
REMARK    9  A    between atoms: C_22  and  C_23 
REMARK   10  A    between atoms: C_27  and  C_30 
REMARK   11  A    between atoms: C_33  and  C_34 
REMARK   12  A    between atoms: C_34  and  C_35 
ROOT
HETATM    1  O   UNL     1       3.245  14.676  94.077  1.00  0.00    -0.350 OA
HETATM    2  N   UNL     1       2.898  14.711  91.252  1.00  0.00     0.147 N 
HETATM    3  C   UNL     1       1.945  14.023  92.134  1.00  0.00     0.283 C 
HETATM    4  C   UNL     1       4.234  14.719  91.862  1.00  0.00     0.283 C 
HETATM    5  C   UNL     1       1.935  14.692  93.506  1.00  0.00     0.178 C 
HETATM    6  C   UNL     1       4.171  15.371  93.240  1.00  0.00     0.178 C 
ENDROOT
BRANCH   2   7
HETATM    7  C   UNL     1       2.932  14.079  89.934  1.00  0.00     0.277 C 
BRANCH   7   8
HETATM    8  C   UNL     1       3.895  12.943  89.873  1.00  0.00     0.011 A 
HETATM    9  C   UNL     1       5.144  13.120  89.275  1.00  0.00    -0.002 A 
HETATM   10  C   UNL     1       6.045  12.057  89.215  1.00  0.00     0.008 A 
HETATM   11  C   UNL     1       5.699  10.820  89.757  1.00  0.00     0.042 A 
HETATM   12  C   UNL     1       4.453  10.642  90.355  1.00  0.00     0.008 A 
HETATM   13  C   UNL     1       3.551  11.705  90.414  1.00  0.00    -0.002 A 
BRANCH  11  14
HETATM   14  C   UNL     1       6.624   9.730  89.698  1.00  0.00    -0.059 C 
HETATM   15  C   UNL     1       7.402   8.815  89.648  1.00  0.00    -0.059 C 
BRANCH  15  16
HETATM   16  C   UNL     1       8.328   7.727  89.588  1.00  0.00     0.042 A 
HETATM   17  C   UNL     1       9.595   7.920  89.036  1.00  0.00     0.008 A 
HETATM   18  C   UNL     1      10.498   6.859  88.981  1.00  0.00     0.005 A 
HETATM   19  C   UNL     1      10.117   5.631  89.479  1.00  0.00     0.056 A 
HETATM   20  C   UNL     1       8.871   5.415  90.030  1.00  0.00     0.005 A 
HETATM   21  C   UNL     1       7.966   6.475  90.085  1.00  0.00     0.008 A 
BRANCH  19  22
HETATM   22  C   UNL     1      11.079   4.500  89.418  1.00  0.00     0.254 C 
HETATM   23  O   UNL     1      11.207   3.878  88.367  1.00  0.00    -0.268 OA
HETATM   24  N   UNL     1      11.794   4.247  90.581  1.00  0.00    -0.335 N 
HETATM   25  HN  UNL     1      11.653   4.821  91.404  1.00  0.00     0.164 HD
BRANCH  24  26
HETATM   26  C   UNL     1      12.781   3.202  90.672  1.00  0.00     0.166 C 
BRANCH  26  27
HETATM   27  C   UNL     1      14.209   3.744  90.812  1.00  0.00     0.138 C 
HETATM   28  C   UNL     1      15.124   3.276  89.686  1.00  0.00     0.034 C 
BRANCH  27  29
HETATM   29  O   UNL     1      14.179   5.171  90.822  1.00  0.00    -0.383 OA
HETATM   30  H   UNL     1      13.501   5.466  90.191  1.00  0.00     0.210 HD
ENDBRANCH  27  29
ENDBRANCH  26  27
BRANCH  26  31
HETATM   31  C   UNL     1      12.408   2.311  91.853  1.00  0.00     0.181 C 
HETATM   32  O   UNL     1      11.917   1.192  91.718  1.00  0.00    -0.294 OA
BRANCH  31  33
HETATM   33  C   UNL     1      13.640   2.142  92.892  1.00  0.00     0.138 C 
BRANCH  33  34
HETATM   34  C   UNL     1      13.459   3.273  93.718  1.00  0.00     0.208 C 
HETATM   35  O   UNL     1      14.439   3.956  93.908  1.00  0.00    -0.289 OA
BRANCH  34  36
HETATM   36  C   UNL     1      12.314   3.906  94.117  1.00  0.00     0.194 C 
HETATM   37  O   UNL     1      11.431   4.719  93.397  1.00  0.00    -0.185 OA
ENDBRANCH  34  36
ENDBRANCH  33  34
ENDBRANCH  31  33
ENDBRANCH  26  31
ENDBRANCH  24  26
ENDBRANCH  19  22
ENDBRANCH  15  16
ENDBRANCH  11  14
ENDBRANCH   7   8
ENDBRANCH   2   7
TORSDOF 12
ENDMDL
MODEL 4
REMARK VINA RESULT:      -3.9      1.684      2.272
REMARK  12 active torsions:
REMARK  status: ('A' for Active; 'I' for Inactive)
REMARK    1  A    between atoms: O_2  and  C_16 
REMARK    2  A    between atoms: N_5  and  C_9 
REMARK    3  A    between atoms: N_6  and  C_13 
REMARK       I    between atoms: N_6  and  C_22 
REMARK    4  A    between atoms: C_9  and  C_12 
REMARK    5  A    between atoms: C_13  and  C_16 
REMARK    6  A    between atoms: C_13  and  C_21 
REMARK    7  A    between atoms: C_19  and  C_24 
REMARK    8  A    between atoms: C_21  and  C_33 
REMARK    9  A    between atoms: C_22  and  C_23 
REMARK   10  A    between atoms: C_27  and  C_30 
REMARK   11  A    between atoms: C_33  and  C_34 
REMARK   12  A    between atoms: C_34  and  C_35 
ROOT
HETATM    1  O   UNL     1      16.422   4.165  93.665  1.00  0.00    -0.350 OA
HETATM    2  N   UNL     1      14.366   2.495  92.624  1.00  0.00     0.147 N 
HETATM    3  C   UNL     1      14.543   3.877  92.156  1.00  0.00     0.283 C 
HETATM    4  C   UNL     1      14.827   2.371  94.013  1.00  0.00     0.283 C 
HETATM    5  C   UNL     1      16.006   4.289  92.304  1.00  0.00     0.178 C 
HETATM    6  C   UNL     1      16.282   2.818  94.118  1.00  0.00     0.178 C 
ENDROOT
BRANCH   2   7
HETATM    7  C   UNL     1      12.969   2.083  92.501  1.00  0.00     0.277 C 
BRANCH   7   8
HETATM    8  C   UNL     1      12.027   3.236  92.583  1.00  0.00     0.011 A 
HETATM    9  C   UNL     1      11.347   3.662  91.441  1.00  0.00    -0.002 A 
HETATM   10  C   UNL     1      10.467   4.741  91.516  1.00  0.00     0.008 A 
HETATM   11  C   UNL     1      10.267   5.393  92.732  1.00  0.00     0.042 A 
HETATM   12  C   UNL     1      10.945   4.969  93.873  1.00  0.00     0.008 A 
HETATM   13  C   UNL     1      11.825   3.889  93.799  1.00  0.00    -0.002 A 
BRANCH  11  14
HETATM   14  C   UNL     1       9.363   6.500  92.809  1.00  0.00    -0.059 C 
HETATM   15  C   UNL     1       8.603   7.429  92.874  1.00  0.00    -0.059 C 
BRANCH  15  16
HETATM   16  C   UNL     1       7.700   8.535  92.952  1.00  0.00     0.042 A 
HETATM   17  C   UNL     1       7.786   9.571  92.021  1.00  0.00     0.008 A 
HETATM   18  C   UNL     1       6.904  10.649  92.096  1.00  0.00     0.005 A 
HETATM   19  C   UNL     1       5.955  10.666  93.097  1.00  0.00     0.056 A 
HETATM   20  C   UNL     1       5.850   9.654  94.028  1.00  0.00     0.005 A 
HETATM   21  C   UNL     1       6.732   8.576  93.955  1.00  0.00     0.008 A 
BRANCH  19  22
HETATM   22  C   UNL     1       5.016  11.815  93.176  1.00  0.00     0.254 C 
HETATM   23  O   UNL     1       5.099  12.592  94.124  1.00  0.00    -0.268 OA
HETATM   24  N   UNL     1       4.112  11.934  92.130  1.00  0.00    -0.335 N 
HETATM   25  HN  UNL     1       4.119  11.268  91.368  1.00  0.00     0.164 HD
BRANCH  24  26
HETATM   26  C   UNL     1       3.154  13.008  92.052  1.00  0.00     0.166 C 
BRANCH  26  27
HETATM   27  C   UNL     1       2.823  13.609  93.424  1.00  0.00     0.138 C 
HETATM   28  C   UNL     1       2.208  15.001  93.319  1.00  0.00     0.034 C 
BRANCH  27  29
HETATM   29  O   UNL     1       1.915  12.752  94.114  1.00  0.00    -0.383 OA
HETATM   30  H   UNL     1       1.777  11.956  93.574  1.00  0.00     0.210 HD
ENDBRANCH  27  29
ENDBRANCH  26  27
BRANCH  26  31
HETATM   31  C   UNL     1       3.715  14.064  91.105  1.00  0.00     0.181 C 
HETATM   32  O   UNL     1       4.323  15.059  91.495  1.00  0.00    -0.294 OA
BRANCH  31  33
HETATM   33  C   UNL     1       4.628  13.404  89.940  1.00  0.00     0.138 C 
BRANCH  33  34
HETATM   34  C   UNL     1       3.663  12.659  89.225  1.00  0.00     0.208 C 
HETATM   35  O   UNL     1       2.512  12.999  89.373  1.00  0.00    -0.289 OA
BRANCH  34  36
HETATM   36  C   UNL     1       3.808  11.799  88.171  1.00  0.00     0.194 C 
HETATM   37  O   UNL     1       2.970  10.775  87.718  1.00  0.00    -0.185 OA
ENDBRANCH  34  36
ENDBRANCH  33  34
ENDBRANCH  31  33
ENDBRANCH  26  31
ENDBRANCH  24  26
ENDBRANCH  19  22
ENDBRANCH  15  16
ENDBRANCH  11  14
ENDBRANCH   7   8
ENDBRANCH   2   7
TORSDOF 12
ENDMDL
MODEL 5
REMARK VINA RESULT:      -3.6      1.493      2.993
REMARK  12 active torsions:
REMARK  status: ('A' for Active; 'I' for Inactive)
REMARK    1  A    between atoms: O_2  and  C_16 
REMARK    2  A    between atoms: N_5  and  C_9 
REMARK    3  A    between atoms: N_6  and  C_13 
REMARK       I    between atoms: N_6  and  C_22 
REMARK    4  A    between atoms: C_9  and  C_12 
REMARK    5  A    between atoms: C_13  and  C_16 
REMARK    6  A    between atoms: C_13  and  C_21 
REMARK    7  A    between atoms: C_19  and  C_24 
REMARK    8  A    between atoms: C_21  and  C_33 
REMARK    9  A    between atoms: C_22  and  C_23 
REMARK   10  A    between atoms: C_27  and  C_30 
REMARK   11  A    between atoms: C_33  and  C_34 
REMARK   12  A    between atoms: C_34  and  C_35 
ROOT
HETATM    1  O   UNL     1      16.464   3.644  93.302  1.00  0.00    -0.350 OA
HETATM    2  N   UNL     1      14.401   1.818  92.589  1.00  0.00     0.147 N 
HETATM    3  C   UNL     1      14.724   2.979  91.747  1.00  0.00     0.283 C 
HETATM    4  C   UNL     1      14.715   2.112  93.994  1.00  0.00     0.283 C 
HETATM    5  C   UNL     1      16.192   3.357  91.930  1.00  0.00     0.178 C 
HETATM    6  C   UNL     1      16.182   2.511  94.124  1.00  0.00     0.178 C 
ENDROOT
BRANCH   2   7
HETATM    7  C   UNL     1      12.995   1.445  92.438  1.00  0.00     0.277 C 
BRANCH   7   8
HETATM    8  C   UNL     1      12.099   2.633  92.348  1.00  0.00     0.011 A 
HETATM    9  C   UNL     1      11.070   2.659  91.406  1.00  0.00    -0.002 A 
HETATM   10  C   UNL     1      10.232   3.771  91.320  1.00  0.00     0.008 A 
HETATM   11  C   UNL     1      10.422   4.854  92.177  1.00  0.00     0.042 A 
HETATM   12  C   UNL     1      11.448   4.829  93.118  1.00  0.00     0.008 A 
HETATM   13  C   UNL     1      12.287   3.718  93.204  1.00  0.00    -0.002 A 
BRANCH  11  14
HETATM   14  C   UNL     1       9.560   5.993  92.090  1.00  0.00    -0.059 C 
HETATM   15  C   UNL     1       8.837   6.951  92.017  1.00  0.00    -0.059 C 
BRANCH  15  16
HETATM   16  C   UNL     1       7.977   8.090  91.931  1.00  0.00     0.042 A 
HETATM   17  C   UNL     1       8.474   9.303  91.454  1.00  0.00     0.008 A 
HETATM   18  C   UNL     1       7.634  10.413  91.367  1.00  0.00     0.005 A 
HETATM   19  C   UNL     1       6.318  10.286  91.757  1.00  0.00     0.056 A 
HETATM   20  C   UNL     1       5.803   9.098  92.232  1.00  0.00     0.005 A 
HETATM   21  C   UNL     1       6.641   7.987  92.320  1.00  0.00     0.008 A 
BRANCH  19  22
HETATM   22  C   UNL     1       5.424  11.469  91.666  1.00  0.00     0.254 C 
HETATM   23  O   UNL     1       4.901  11.906  92.689  1.00  0.00    -0.268 OA
HETATM   24  N   UNL     1       5.266  12.016  90.400  1.00  0.00    -0.335 N 
HETATM   25  HN  UNL     1       5.750  11.616  89.605  1.00  0.00     0.164 HD
BRANCH  24  26
HETATM   26  C   UNL     1       4.452  13.179  90.154  1.00  0.00     0.166 C 
BRANCH  26  27
HETATM   27  C   UNL     1       4.974  14.034  88.992  1.00  0.00     0.138 C 
HETATM   28  C   UNL     1       4.937  15.526  89.302  1.00  0.00     0.034 C 
BRANCH  27  29
HETATM   29  O   UNL     1       6.316  13.657  88.688  1.00  0.00    -0.383 OA
HETATM   30  H   UNL     1       6.358  13.407  87.749  1.00  0.00     0.210 HD
ENDBRANCH  27  29
ENDBRANCH  26  27
BRANCH  26  31
HETATM   31  C   UNL     1       3.026  12.703  89.895  1.00  0.00     0.181 C 
HETATM   32  O   UNL     1       2.610  11.606  90.262  1.00  0.00    -0.294 OA
BRANCH  31  33
HETATM   33  C   UNL     1       1.929  13.791  90.386  1.00  0.00     0.138 C 
BRANCH  33  34
HETATM   34  C   UNL     1       2.072  13.708  91.789  1.00  0.00     0.208 C 
HETATM   35  O   UNL     1       1.626  12.713  92.312  1.00  0.00    -0.289 OA
BRANCH  34  36
HETATM   36  C   UNL     1       2.875  14.414  92.643  1.00  0.00     0.194 C 
HETATM   37  O   UNL     1       3.551  15.625  92.455  1.00  0.00    -0.185 OA
ENDBRANCH  34  36
ENDBRANCH  33  34
ENDBRANCH  31  33
ENDBRANCH  26  31
ENDBRANCH  24  26
ENDBRANCH  19  22
ENDBRANCH  15  16
ENDBRANCH  11  14
ENDBRANCH   7   8
ENDBRANCH   2   7
TORSDOF 12
ENDMDL
MODEL 6
REMARK VINA RESULT:      -3.5      1.900      3.127
REMARK  12 active torsions:
REMARK  status: ('A' for Active; 'I' for Inactive)
REMARK    1  A    between atoms: O_2  and  C_16 
REMARK    2  A    between atoms: N_5  and  C_9 
REMARK    3  A    between atoms: N_6  and  C_13 
REMARK       I    between atoms: N_6  and  C_22 
REMARK    4  A    between atoms: C_9  and  C_12 
REMARK    5  A    between atoms: C_13  and  C_16 
REMARK    6  A    between atoms: C_13  and  C_21 
REMARK    7  A    between atoms: C_19  and  C_24 
REMARK    8  A    between atoms: C_21  and  C_33 
REMARK    9  A    between atoms: C_22  and  C_23 
REMARK   10  A    between atoms: C_27  and  C_30 
REMARK   11  A    between atoms: C_33  and  C_34 
REMARK   12  A    between atoms: C_34  and  C_35 
ROOT
HETATM    1  O   UNL     1      16.757   3.736  93.335  1.00  0.00    -0.350 OA
HETATM    2  N   UNL     1      14.682   1.889  92.718  1.00  0.00     0.147 N 
HETATM    3  C   UNL     1      14.903   3.094  91.907  1.00  0.00     0.283 C 
HETATM    4  C   UNL     1      15.111   2.128  94.103  1.00  0.00     0.283 C 
HETATM    5  C   UNL     1      16.372   3.502  91.979  1.00  0.00     0.178 C 
HETATM    6  C   UNL     1      16.574   2.559  94.124  1.00  0.00     0.178 C 
ENDROOT
BRANCH   2   7
HETATM    7  C   UNL     1      13.277   1.485  92.672  1.00  0.00     0.277 C 
BRANCH   7   8
HETATM    8  C   UNL     1      12.357   2.647  92.521  1.00  0.00     0.011 A 
HETATM    9  C   UNL     1      11.728   2.883  91.297  1.00  0.00    -0.002 A 
HETATM   10  C   UNL     1      10.868   3.972  91.154  1.00  0.00     0.008 A 
HETATM   11  C   UNL     1      10.636   4.822  92.234  1.00  0.00     0.042 A 
HETATM   12  C   UNL     1      11.263   4.588  93.456  1.00  0.00     0.008 A 
HETATM   13  C   UNL     1      12.123   3.500  93.600  1.00  0.00    -0.002 A 
BRANCH  11  14
HETATM   14  C   UNL     1       9.752   5.938  92.087  1.00  0.00    -0.059 C 
HETATM   15  C   UNL     1       9.009   6.875  91.964  1.00  0.00    -0.059 C 
BRANCH  15  16
HETATM   16  C   UNL     1       8.126   7.991  91.818  1.00  0.00     0.042 A 
HETATM   17  C   UNL     1       8.619   9.214  91.362  1.00  0.00     0.008 A 
HETATM   18  C   UNL     1       7.757  10.301  91.217  1.00  0.00     0.005 A 
HETATM   19  C   UNL     1       6.423  10.140  91.529  1.00  0.00     0.056 A 
HETATM   20  C   UNL     1       5.912   8.942  91.981  1.00  0.00     0.005 A 
HETATM   21  C   UNL     1       6.773   7.854  92.127  1.00  0.00     0.008 A 
BRANCH  19  22
HETATM   22  C   UNL     1       5.506  11.299  91.376  1.00  0.00     0.254 C 
HETATM   23  O   UNL     1       5.177  11.939  92.372  1.00  0.00    -0.268 OA
HETATM   24  N   UNL     1       5.103  11.588  90.080  1.00  0.00    -0.335 N 
HETATM   25  HN  UNL     1       5.436  11.030  89.303  1.00  0.00     0.164 HD
BRANCH  24  26
HETATM   26  C   UNL     1       4.234  12.695  89.766  1.00  0.00     0.166 C 
BRANCH  26  27
HETATM   27  C   UNL     1       4.924  13.768  88.914  1.00  0.00     0.138 C 
HETATM   28  C   UNL     1       5.199  15.047  89.697  1.00  0.00     0.034 C 
BRANCH  27  29
HETATM   29  O   UNL     1       6.158  13.257  88.411  1.00  0.00    -0.383 OA
HETATM   30  H   UNL     1       6.769  14.003  88.287  1.00  0.00     0.210 HD
ENDBRANCH  27  29
ENDBRANCH  26  27
BRANCH  26  31
HETATM   31  C   UNL     1       3.002  12.135  89.063  1.00  0.00     0.181 C 
HETATM   32  O   UNL     1       2.906  12.061  87.839  1.00  0.00    -0.294 OA
BRANCH  31  33
HETATM   33  C   UNL     1       2.591  10.676  89.638  1.00  0.00     0.138 C 
BRANCH  33  34
HETATM   34  C   UNL     1       2.715   9.880  88.478  1.00  0.00     0.208 C 
HETATM   35  O   UNL     1       1.686   9.618  87.899  1.00  0.00    -0.289 OA
BRANCH  34  36
HETATM   36  C   UNL     1       3.815   9.581  87.721  1.00  0.00     0.194 C 
HETATM   37  O   UNL     1       5.097   9.176  88.109  1.00  0.00    -0.185 OA
ENDBRANCH  34  36
ENDBRANCH  33  34
ENDBRANCH  31  33
ENDBRANCH  26  31
ENDBRANCH  24  26
ENDBRANCH  19  22
ENDBRANCH  15  16
ENDBRANCH  11  14
ENDBRANCH   7   8
ENDBRANCH   2   7
TORSDOF 12
ENDMDL
