MODEL 1
REMARK VINA RESULT:      -6.6      0.000      0.000
REMARK  14 active torsions:
REMARK  status: ('A' for Active; 'I' for Inactive)
REMARK    1  A    between atoms: O_2  and  C_18 
REMARK    2  A    between atoms: C_5  and  C_8 
REMARK    3  A    between atoms: C_5  and  O_35 
REMARK    4  A    between atoms: C_5  and  C_36 
REMARK    5  A    between atoms: N_6  and  C_11 
REMARK    6  A    between atoms: N_7  and  C_15 
REMARK       I    between atoms: N_7  and  C_24 
REMARK    7  A    between atoms: C_8  and  C_23 
REMARK    8  A    between atoms: C_11  and  C_14 
REMARK    9  A    between atoms: C_15  and  C_18 
REMARK   10  A    between atoms: C_15  and  C_23 
REMARK   11  A    between atoms: C_21  and  C_26 
REMARK   12  A    between atoms: C_24  and  C_25 
REMARK   13  A    between atoms: C_29  and  C_32 
REMARK   14  A    between atoms: C_36  and  O_39 
ROOT
HETATM    1  O   UNL     1      16.449   3.235  93.789  1.00  0.00    -0.350 OA
HETATM    2  N   UNL     1      13.837   2.884  92.713  1.00  0.00     0.147 N 
HETATM    3  C   UNL     1      14.715   1.738  92.987  1.00  0.00     0.283 C 
HETATM    4  C   UNL     1      14.643   4.073  92.402  1.00  0.00     0.283 C 
HETATM    5  C   UNL     1      15.674   2.082  94.124  1.00  0.00     0.178 C 
HETATM    6  C   UNL     1      15.604   4.362  93.551  1.00  0.00     0.178 C 
ENDROOT
BRANCH   2   7
HETATM    7  C   UNL     1      12.916   2.580  91.620  1.00  0.00     0.277 C 
BRANCH   7   8
HETATM    8  C   UNL     1      11.769   3.531  91.562  1.00  0.00     0.011 A 
HETATM    9  C   UNL     1      11.460   4.318  92.672  1.00  0.00    -0.002 A 
HETATM   10  C   UNL     1      10.386   5.207  92.620  1.00  0.00     0.008 A 
HETATM   11  C   UNL     1       9.624   5.309  91.457  1.00  0.00     0.042 A 
HETATM   12  C   UNL     1       9.932   4.525  90.347  1.00  0.00     0.008 A 
HETATM   13  C   UNL     1      11.005   3.635  90.399  1.00  0.00    -0.002 A 
BRANCH  11  14
HETATM   14  C   UNL     1       8.524   6.223  91.402  1.00  0.00    -0.059 C 
HETATM   15  C   UNL     1       7.599   6.990  91.357  1.00  0.00    -0.059 C 
BRANCH  15  16
HETATM   16  C   UNL     1       6.499   7.902  91.304  1.00  0.00     0.042 A 
HETATM   17  C   UNL     1       5.857   8.149  90.090  1.00  0.00     0.008 A 
HETATM   18  C   UNL     1       4.783   9.037  90.039  1.00  0.00     0.005 A 
HETATM   19  C   UNL     1       4.375   9.657  91.201  1.00  0.00     0.056 A 
HETATM   20  C   UNL     1       4.993   9.430  92.413  1.00  0.00     0.005 A 
HETATM   21  C   UNL     1       6.067   8.542  92.465  1.00  0.00     0.008 A 
BRANCH  19  22
HETATM   22  C   UNL     1       3.231  10.604  91.145  1.00  0.00     0.254 C 
HETATM   23  O   UNL     1       2.119  10.184  90.836  1.00  0.00    -0.268 OA
HETATM   24  N   UNL     1       3.516  11.921  91.481  1.00  0.00    -0.335 N 
HETATM   25  HN  UNL     1       4.454  12.190  91.752  1.00  0.00     0.164 HD
BRANCH  24  26
HETATM   26  C   UNL     1       2.509  12.951  91.498  1.00  0.00     0.169 C 
BRANCH  26  27
HETATM   27  C   UNL     1       2.438  13.690  92.841  1.00  0.00     0.138 C 
HETATM   28  C   UNL     1       3.818  14.036  93.390  1.00  0.00     0.034 C 
BRANCH  27  29
HETATM   29  O   UNL     1       1.687  14.893  92.685  1.00  0.00    -0.383 OA
HETATM   30  H   UNL     1       0.985  14.732  92.031  1.00  0.00     0.210 HD
ENDBRANCH  27  29
ENDBRANCH  26  27
BRANCH  26  31
HETATM   31  C   UNL     1       2.806  13.912  90.352  1.00  0.00     0.194 C 
HETATM   32  O   UNL     1       1.929  14.400  89.642  1.00  0.00    -0.289 OA
BRANCH  31  33
HETATM   33  C   UNL     1       4.154  14.127  90.191  1.00  0.00     0.053 C 
BRANCH  33  34
HETATM   34  C   UNL     1       4.604  14.217  88.866  1.00  0.00     0.220 C 
BRANCH  34  35
HETATM   35  O   UNL     1       5.686  14.833  88.873  1.00  0.00    -0.371 OA
HETATM   36  H   UNL     1       5.636  15.200  88.004  1.00  0.00     0.211 HD
ENDBRANCH  34  35
BRANCH  34  37
HETATM   37  C   UNL     1       4.702  12.972  88.223  1.00  0.00     0.185 C 
HETATM   38  O   UNL     1       6.002  13.175  88.376  1.00  0.00    -0.647 OA
BRANCH  37  39
HETATM   39  O   UNL     1       3.954  12.174  87.742  1.00  0.00    -0.774 OA
HETATM   40  H   UNL     1       4.281  11.110  87.959  1.00  0.00     0.167 HD
ENDBRANCH  37  39
ENDBRANCH  34  37
ENDBRANCH  33  34
ENDBRANCH  31  33
ENDBRANCH  26  31
ENDBRANCH  24  26
ENDBRANCH  19  22
ENDBRANCH  15  16
ENDBRANCH  11  14
ENDBRANCH   7   8
ENDBRANCH   2   7
TORSDOF 14
ENDMDL
MODEL 2
REMARK VINA RESULT:      -5.9      1.500      2.160
REMARK  14 active torsions:
REMARK  status: ('A' for Active; 'I' for Inactive)
REMARK    1  A    between atoms: O_2  and  C_18 
REMARK    2  A    between atoms: C_5  and  C_8 
REMARK    3  A    between atoms: C_5  and  O_35 
REMARK    4  A    between atoms: C_5  and  C_36 
REMARK    5  A    between atoms: N_6  and  C_11 
REMARK    6  A    between atoms: N_7  and  C_15 
REMARK       I    between atoms: N_7  and  C_24 
REMARK    7  A    between atoms: C_8  and  C_23 
REMARK    8  A    between atoms: C_11  and  C_14 
REMARK    9  A    between atoms: C_15  and  C_18 
REMARK   10  A    between atoms: C_15  and  C_23 
REMARK   11  A    between atoms: C_21  and  C_26 
REMARK   12  A    between atoms: C_24  and  C_25 
REMARK   13  A    between atoms: C_29  and  C_32 
REMARK   14  A    between atoms: C_36  and  O_39 
ROOT
HETATM    1  O   UNL     1      17.356   4.665  93.644  1.00  0.00    -0.350 OA
HETATM    2  N   UNL     1      15.084   2.964  93.860  1.00  0.00     0.147 N 
HETATM    3  C   UNL     1      16.383   2.455  93.399  1.00  0.00     0.283 C 
HETATM    4  C   UNL     1      14.950   4.387  93.516  1.00  0.00     0.283 C 
HETATM    5  C   UNL     1      17.509   3.290  94.003  1.00  0.00     0.178 C 
HETATM    6  C   UNL     1      16.109   5.176  94.116  1.00  0.00     0.178 C 
ENDROOT
BRANCH   2   7
HETATM    7  C   UNL     1      13.989   2.185  93.285  1.00  0.00     0.277 C 
BRANCH   7   8
HETATM    8  C   UNL     1      12.777   3.013  93.026  1.00  0.00     0.011 A 
HETATM    9  C   UNL     1      12.110   2.910  91.805  1.00  0.00    -0.002 A 
HETATM   10  C   UNL     1      10.977   3.686  91.561  1.00  0.00     0.008 A 
HETATM   11  C   UNL     1      10.511   4.564  92.540  1.00  0.00     0.042 A 
HETATM   12  C   UNL     1      11.176   4.668  93.760  1.00  0.00     0.008 A 
HETATM   13  C   UNL     1      12.309   3.892  94.003  1.00  0.00    -0.002 A 
BRANCH  11  14
HETATM   14  C   UNL     1       9.347   5.358  92.290  1.00  0.00    -0.059 C 
HETATM   15  C   UNL     1       8.370   6.027  92.081  1.00  0.00    -0.059 C 
BRANCH  15  16
HETATM   16  C   UNL     1       7.208   6.821  91.831  1.00  0.00     0.042 A 
HETATM   17  C   UNL     1       6.684   6.902  90.540  1.00  0.00     0.008 A 
HETATM   18  C   UNL     1       5.549   7.675  90.297  1.00  0.00     0.005 A 
HETATM   19  C   UNL     1       4.963   8.349  91.349  1.00  0.00     0.056 A 
HETATM   20  C   UNL     1       5.462   8.285  92.633  1.00  0.00     0.005 A 
HETATM   21  C   UNL     1       6.597   7.512  92.877  1.00  0.00     0.008 A 
BRANCH  19  22
HETATM   22  C   UNL     1       3.755   9.173  91.089  1.00  0.00     0.254 C 
HETATM   23  O   UNL     1       2.775   8.653  90.560  1.00  0.00    -0.268 OA
HETATM   24  N   UNL     1       3.823  10.498  91.499  1.00  0.00    -0.335 N 
HETATM   25  HN  UNL     1       4.657  10.852  91.952  1.00  0.00     0.164 HD
BRANCH  24  26
HETATM   26  C   UNL     1       2.725  11.417  91.338  1.00  0.00     0.169 C 
BRANCH  26  27
HETATM   27  C   UNL     1       2.246  12.008  92.670  1.00  0.00     0.138 C 
HETATM   28  C   UNL     1       2.026  10.941  93.737  1.00  0.00     0.034 C 
BRANCH  27  29
HETATM   29  O   UNL     1       3.206  12.949  93.148  1.00  0.00    -0.383 OA
HETATM   30  H   UNL     1       2.817  13.838  93.090  1.00  0.00     0.210 HD
ENDBRANCH  27  29
ENDBRANCH  26  27
BRANCH  26  31
HETATM   31  C   UNL     1       3.171  12.512  90.375  1.00  0.00     0.194 C 
HETATM   32  O   UNL     1       2.712  13.652  90.399  1.00  0.00    -0.289 OA
BRANCH  31  33
HETATM   33  C   UNL     1       4.101  12.060  89.470  1.00  0.00     0.053 C 
BRANCH  33  34
HETATM   34  C   UNL     1       3.648  11.909  88.152  1.00  0.00     0.220 C 
BRANCH  34  35
HETATM   35  O   UNL     1       4.408  12.562  87.412  1.00  0.00    -0.371 OA
HETATM   36  H   UNL     1       4.215  12.119  86.600  1.00  0.00     0.211 HD
ENDBRANCH  34  35
BRANCH  34  37
HETATM   37  C   UNL     1       3.532  10.568  87.749  1.00  0.00     0.185 C 
HETATM   38  O   UNL     1       2.236  10.819  87.839  1.00  0.00    -0.647 OA
BRANCH  37  39
HETATM   39  O   UNL     1       4.272   9.662  87.504  1.00  0.00    -0.774 OA
HETATM   40  H   UNL     1       4.502   9.599  86.395  1.00  0.00     0.167 HD
ENDBRANCH  37  39
ENDBRANCH  34  37
ENDBRANCH  33  34
ENDBRANCH  31  33
ENDBRANCH  26  31
ENDBRANCH  24  26
ENDBRANCH  19  22
ENDBRANCH  15  16
ENDBRANCH  11  14
ENDBRANCH   7   8
ENDBRANCH   2   7
TORSDOF 14
ENDMDL
MODEL 3
REMARK VINA RESULT:      -5.8      0.906      1.533
REMARK  14 active torsions:
REMARK  status: ('A' for Active; 'I' for Inactive)
REMARK    1  A    between atoms: O_2  and  C_18 
REMARK    2  A    between atoms: C_5  and  C_8 
REMARK    3  A    between atoms: C_5  and  O_35 
REMARK    4  A    between atoms: C_5  and  C_36 
REMARK    5  A    between atoms: N_6  and  C_11 
REMARK    6  A    between atoms: N_7  and  C_15 
REMARK       I    between atoms: N_7  and  C_24 
REMARK    7  A    between atoms: C_8  and  C_23 
REMARK    8  A    between atoms: C_11  and  C_14 
REMARK    9  A    between atoms: C_15  and  C_18 
REMARK   10  A    between atoms: C_15  and  C_23 
REMARK   11  A    between atoms: C_21  and  C_26 
REMARK   12  A    between atoms: C_24  and  C_25 
REMARK   13  A    between atoms: C_29  and  C_32 
REMARK   14  A    between atoms: C_36  and  O_39 
ROOT
HETATM    1  O   UNL     1      15.457   4.881  92.704  1.00  0.00    -0.350 OA
HETATM    2  N   UNL     1      13.705   2.718  92.108  1.00  0.00     0.147 N 
HETATM    3  C   UNL     1      13.742   3.928  91.276  1.00  0.00     0.283 C 
HETATM    4  C   UNL     1      14.078   3.047  93.491  1.00  0.00     0.283 C 
HETATM    5  C   UNL     1      15.127   4.565  91.350  1.00  0.00     0.178 C 
HETATM    6  C   UNL     1      15.454   3.704  93.514  1.00  0.00     0.178 C 
ENDROOT
BRANCH   2   7
HETATM    7  C   UNL     1      12.383   2.096  92.060  1.00  0.00     0.277 C 
BRANCH   7   8
HETATM    8  C   UNL     1      11.284   3.103  92.007  1.00  0.00     0.011 A 
HETATM    9  C   UNL     1      10.446   3.161  90.893  1.00  0.00    -0.002 A 
HETATM   10  C   UNL     1       9.419   4.103  90.841  1.00  0.00     0.008 A 
HETATM   11  C   UNL     1       9.229   4.985  91.905  1.00  0.00     0.042 A 
HETATM   12  C   UNL     1      10.065   4.928  93.018  1.00  0.00     0.008 A 
HETATM   13  C   UNL     1      11.093   3.986  93.070  1.00  0.00    -0.002 A 
BRANCH  11  14
HETATM   14  C   UNL     1       8.174   5.950  91.853  1.00  0.00    -0.059 C 
HETATM   15  C   UNL     1       7.288   6.762  91.808  1.00  0.00    -0.059 C 
BRANCH  15  16
HETATM   16  C   UNL     1       6.234   7.726  91.755  1.00  0.00     0.042 A 
HETATM   17  C   UNL     1       6.196   8.660  90.720  1.00  0.00     0.008 A 
HETATM   18  C   UNL     1       5.166   9.599  90.667  1.00  0.00     0.005 A 
HETATM   19  C   UNL     1       4.197   9.582  91.648  1.00  0.00     0.056 A 
HETATM   20  C   UNL     1       4.212   8.669  92.682  1.00  0.00     0.005 A 
HETATM   21  C   UNL     1       5.242   7.730  92.736  1.00  0.00     0.008 A 
BRANCH  19  22
HETATM   22  C   UNL     1       3.101  10.584  91.592  1.00  0.00     0.254 C 
HETATM   23  O   UNL     1       1.941  10.197  91.467  1.00  0.00    -0.268 OA
HETATM   24  N   UNL     1       3.484  11.912  91.713  1.00  0.00    -0.335 N 
HETATM   25  HN  UNL     1       4.460  12.155  91.839  1.00  0.00     0.164 HD
BRANCH  24  26
HETATM   26  C   UNL     1       2.536  12.997  91.703  1.00  0.00     0.169 C 
BRANCH  26  27
HETATM   27  C   UNL     1       2.648  13.895  92.941  1.00  0.00     0.138 C 
HETATM   28  C   UNL     1       4.094  14.221  93.298  1.00  0.00     0.034 C 
BRANCH  27  29
HETATM   29  O   UNL     1       1.941  15.114  92.712  1.00  0.00    -0.383 OA
HETATM   30  H   UNL     1       2.208  15.754  93.393  1.00  0.00     0.210 HD
ENDBRANCH  27  29
ENDBRANCH  26  27
BRANCH  26  31
HETATM   31  C   UNL     1       2.753  13.793  90.420  1.00  0.00     0.194 C 
HETATM   32  O   UNL     1       1.853  14.411  89.855  1.00  0.00    -0.289 OA
BRANCH  31  33
HETATM   33  C   UNL     1       4.046  13.700  89.964  1.00  0.00     0.053 C 
BRANCH  33  34
HETATM   34  C   UNL     1       4.262  12.788  88.921  1.00  0.00     0.220 C 
BRANCH  34  35
HETATM   35  O   UNL     1       3.150  12.367  88.549  1.00  0.00    -0.371 OA
HETATM   36  H   UNL     1       3.031  11.704  89.211  1.00  0.00     0.211 HD
ENDBRANCH  34  35
BRANCH  34  37
HETATM   37  C   UNL     1       5.014  13.320  87.859  1.00  0.00     0.185 C 
HETATM   38  O   UNL     1       5.988  13.312  88.756  1.00  0.00    -0.647 OA
BRANCH  37  39
HETATM   39  O   UNL     1       4.817  13.649  86.728  1.00  0.00    -0.774 OA
HETATM   40  H   UNL     1       5.765  13.596  86.106  1.00  0.00     0.167 HD
ENDBRANCH  37  39
ENDBRANCH  34  37
ENDBRANCH  33  34
ENDBRANCH  31  33
ENDBRANCH  26  31
ENDBRANCH  24  26
ENDBRANCH  19  22
ENDBRANCH  15  16
ENDBRANCH  11  14
ENDBRANCH   7   8
ENDBRANCH   2   7
TORSDOF 14
ENDMDL
MODEL 4
REMARK VINA RESULT:      -5.4      1.789      2.823
REMARK  14 active torsions:
REMARK  status: ('A' for Active; 'I' for Inactive)
REMARK    1  A    between atoms: O_2  and  C_18 
REMARK    2  A    between atoms: C_5  and  C_8 
REMARK    3  A    between atoms: C_5  and  O_35 
REMARK    4  A    between atoms: C_5  and  C_36 
REMARK    5  A    between atoms: N_6  and  C_11 
REMARK    6  A    between atoms: N_7  and  C_15 
REMARK       I    between atoms: N_7  and  C_24 
REMARK    7  A    between atoms: C_8  and  C_23 
REMARK    8  A    between atoms: C_11  and  C_14 
REMARK    9  A    between atoms: C_15  and  C_18 
REMARK   10  A    between atoms: C_15  and  C_23 
REMARK   11  A    between atoms: C_21  and  C_26 
REMARK   12  A    between atoms: C_24  and  C_25 
REMARK   13  A    between atoms: C_29  and  C_32 
REMARK   14  A    between atoms: C_36  and  O_39 
ROOT
HETATM    1  O   UNL     1      17.135   4.219  93.151  1.00  0.00    -0.350 OA
HETATM    2  N   UNL     1      14.764   2.678  93.481  1.00  0.00     0.147 N 
HETATM    3  C   UNL     1      15.795   2.302  92.504  1.00  0.00     0.283 C 
HETATM    4  C   UNL     1      14.769   4.134  93.683  1.00  0.00     0.283 C 
HETATM    5  C   UNL     1      17.159   2.802  92.972  1.00  0.00     0.178 C 
HETATM    6  C   UNL     1      16.157   4.591  94.123  1.00  0.00     0.178 C 
ENDROOT
BRANCH   2   7
HETATM    7  C   UNL     1      13.446   2.218  93.048  1.00  0.00     0.277 C 
BRANCH   7   8
HETATM    8  C   UNL     1      12.471   3.337  92.909  1.00  0.00     0.011 A 
HETATM    9  C   UNL     1      12.128   3.809  91.642  1.00  0.00    -0.002 A 
HETATM   10  C   UNL     1      11.217   4.857  91.511  1.00  0.00     0.008 A 
HETATM   11  C   UNL     1      10.649   5.432  92.648  1.00  0.00     0.042 A 
HETATM   12  C   UNL     1      10.991   4.961  93.914  1.00  0.00     0.008 A 
HETATM   13  C   UNL     1      11.902   3.913  94.045  1.00  0.00    -0.002 A 
BRANCH  11  14
HETATM   14  C   UNL     1       9.714   6.506  92.513  1.00  0.00    -0.059 C 
HETATM   15  C   UNL     1       8.928   7.409  92.400  1.00  0.00    -0.059 C 
BRANCH  15  16
HETATM   16  C   UNL     1       7.993   8.482  92.265  1.00  0.00     0.042 A 
HETATM   17  C   UNL     1       6.728   8.381  92.847  1.00  0.00     0.008 A 
HETATM   18  C   UNL     1       5.817   9.430  92.717  1.00  0.00     0.005 A 
HETATM   19  C   UNL     1       6.190  10.554  92.010  1.00  0.00     0.056 A 
HETATM   20  C   UNL     1       7.433  10.677  91.426  1.00  0.00     0.005 A 
HETATM   21  C   UNL     1       8.345   9.629  91.554  1.00  0.00     0.008 A 
BRANCH  19  22
HETATM   22  C   UNL     1       5.219  11.669  91.871  1.00  0.00     0.254 C 
HETATM   23  O   UNL     1       4.550  12.007  92.844  1.00  0.00    -0.268 OA
HETATM   24  N   UNL     1       5.160  12.272  90.622  1.00  0.00    -0.335 N 
HETATM   25  HN  UNL     1       5.762  11.955  89.871  1.00  0.00     0.164 HD
BRANCH  24  26
HETATM   26  C   UNL     1       4.286  13.381  90.336  1.00  0.00     0.169 C 
BRANCH  26  27
HETATM   27  C   UNL     1       4.909  14.393  89.366  1.00  0.00     0.138 C 
HETATM   28  C   UNL     1       5.457  15.625  90.078  1.00  0.00     0.034 C 
BRANCH  27  29
HETATM   29  O   UNL     1       5.967  13.769  88.640  1.00  0.00    -0.383 OA
HETATM   30  H   UNL     1       5.848  13.968  87.696  1.00  0.00     0.210 HD
ENDBRANCH  27  29
ENDBRANCH  26  27
BRANCH  26  31
HETATM   31  C   UNL     1       2.981  12.817  89.786  1.00  0.00     0.194 C 
HETATM   32  O   UNL     1       1.969  13.498  89.630  1.00  0.00    -0.289 OA
BRANCH  31  33
HETATM   33  C   UNL     1       3.065  11.469  89.530  1.00  0.00     0.053 C 
BRANCH  33  34
HETATM   34  C   UNL     1       2.977  11.098  88.181  1.00  0.00     0.220 C 
BRANCH  34  35
HETATM   35  O   UNL     1       3.807  11.775  87.545  1.00  0.00    -0.371 OA
HETATM   36  H   UNL     1       3.605  11.454  86.680  1.00  0.00     0.211 HD
ENDBRANCH  34  35
BRANCH  34  37
HETATM   37  C   UNL     1       3.137   9.718  87.968  1.00  0.00     0.185 C 
HETATM   38  O   UNL     1       1.851   9.779  87.661  1.00  0.00    -0.647 OA
BRANCH  37  39
HETATM   39  O   UNL     1       4.014   8.914  88.073  1.00  0.00    -0.774 OA
HETATM   40  H   UNL     1       4.609   8.815  87.112  1.00  0.00     0.167 HD
ENDBRANCH  37  39
ENDBRANCH  34  37
ENDBRANCH  33  34
ENDBRANCH  31  33
ENDBRANCH  26  31
ENDBRANCH  24  26
ENDBRANCH  19  22
ENDBRANCH  15  16
ENDBRANCH  11  14
ENDBRANCH   7   8
ENDBRANCH   2   7
TORSDOF 14
ENDMDL
MODEL 5
REMARK VINA RESULT:      -4.2      1.431      1.957
REMARK  14 active torsions:
REMARK  status: ('A' for Active; 'I' for Inactive)
REMARK    1  A    between atoms: O_2  and  C_18 
REMARK    2  A    between atoms: C_5  and  C_8 
REMARK    3  A    between atoms: C_5  and  O_35 
REMARK    4  A    between atoms: C_5  and  C_36 
REMARK    5  A    between atoms: N_6  and  C_11 
REMARK    6  A    between atoms: N_7  and  C_15 
REMARK       I    between atoms: N_7  and  C_24 
REMARK    7  A    between atoms: C_8  and  C_23 
REMARK    8  A    between atoms: C_11  and  C_14 
REMARK    9  A    between atoms: C_15  and  C_18 
REMARK   10  A    between atoms: C_15  and  C_23 
REMARK   11  A    between atoms: C_21  and  C_26 
REMARK   12  A    between atoms: C_24  and  C_25 
REMARK   13  A    between atoms: C_29  and  C_32 
REMARK   14  A    between atoms: C_36  and  O_39 
ROOT
HETATM    1  O   UNL     1      16.290   4.211  94.124  1.00  0.00    -0.350 OA
HETATM    2  N   UNL     1      14.430   2.828  92.472  1.00  0.00     0.147 N 
HETATM    3  C   UNL     1      14.464   4.296  92.527  1.00  0.00     0.283 C 
HETATM    4  C   UNL     1      14.891   2.265  93.749  1.00  0.00     0.283 C 
HETATM    5  C   UNL     1      15.874   4.768  92.875  1.00  0.00     0.178 C 
HETATM    6  C   UNL     1      16.289   2.784  94.068  1.00  0.00     0.178 C 
ENDROOT
BRANCH   2   7
HETATM    7  C   UNL     1      13.085   2.354  92.150  1.00  0.00     0.277 C 
BRANCH   7   8
HETATM    8  C   UNL     1      12.065   3.437  92.237  1.00  0.00     0.011 A 
HETATM    9  C   UNL     1      11.447   3.906  91.077  1.00  0.00    -0.002 A 
HETATM   10  C   UNL     1      10.493   4.921  91.156  1.00  0.00     0.008 A 
HETATM   11  C   UNL     1      10.157   5.465  92.396  1.00  0.00     0.042 A 
HETATM   12  C   UNL     1      10.773   4.997  93.555  1.00  0.00     0.008 A 
HETATM   13  C   UNL     1      11.727   3.982  93.475  1.00  0.00    -0.002 A 
BRANCH  11  14
HETATM   14  C   UNL     1       9.178   6.504  92.478  1.00  0.00    -0.059 C 
HETATM   15  C   UNL     1       8.355   7.378  92.546  1.00  0.00    -0.059 C 
BRANCH  15  16
HETATM   16  C   UNL     1       7.377   8.418  92.628  1.00  0.00     0.042 A 
HETATM   17  C   UNL     1       6.326   8.459  91.710  1.00  0.00     0.008 A 
HETATM   18  C   UNL     1       5.371   9.471  91.791  1.00  0.00     0.005 A 
HETATM   19  C   UNL     1       5.486  10.419  92.787  1.00  0.00     0.056 A 
HETATM   20  C   UNL     1       6.514  10.400  93.705  1.00  0.00     0.005 A 
HETATM   21  C   UNL     1       7.471   9.388  93.625  1.00  0.00     0.008 A 
BRANCH  19  22
HETATM   22  C   UNL     1       4.468  11.498  92.871  1.00  0.00     0.254 C 
HETATM   23  O   UNL     1       3.548  11.394  93.679  1.00  0.00    -0.268 OA
HETATM   24  N   UNL     1       4.658  12.581  92.023  1.00  0.00    -0.335 N 
HETATM   25  HN  UNL     1       5.456  12.610  91.400  1.00  0.00     0.164 HD
BRANCH  24  26
HETATM   26  C   UNL     1       3.772  13.716  92.005  1.00  0.00     0.169 C 
BRANCH  26  27
HETATM   27  C   UNL     1       4.014  14.678  93.175  1.00  0.00     0.138 C 
HETATM   28  C   UNL     1       2.722  15.079  93.878  1.00  0.00     0.034 C 
BRANCH  27  29
HETATM   29  O   UNL     1       4.886  14.064  94.124  1.00  0.00    -0.383 OA
HETATM   30  H   UNL     1       4.835  13.101  94.007  1.00  0.00     0.210 HD
ENDBRANCH  27  29
ENDBRANCH  26  27
BRANCH  26  31
HETATM   31  C   UNL     1       3.945  14.421  90.664  1.00  0.00     0.194 C 
HETATM   32  O   UNL     1       4.355  15.576  90.562  1.00  0.00    -0.289 OA
BRANCH  31  33
HETATM   33  C   UNL     1       3.557  13.632  89.608  1.00  0.00     0.053 C 
BRANCH  33  34
HETATM   34  C   UNL     1       4.550  13.351  88.659  1.00  0.00     0.220 C 
BRANCH  34  35
HETATM   35  O   UNL     1       5.648  13.678  89.148  1.00  0.00    -0.371 OA
HETATM   36  H   UNL     1       5.702  13.008  89.813  1.00  0.00     0.211 HD
ENDBRANCH  34  35
BRANCH  34  37
HETATM   37  C   UNL     1       4.540  12.018  88.215  1.00  0.00     0.185 C 
HETATM   38  O   UNL     1       5.491  11.875  89.124  1.00  0.00    -0.647 OA
BRANCH  37  39
HETATM   39  O   UNL     1       3.969  11.378  87.383  1.00  0.00    -0.774 OA
HETATM   40  H   UNL     1       4.671  10.663  86.850  1.00  0.00     0.167 HD
ENDBRANCH  37  39
ENDBRANCH  34  37
ENDBRANCH  33  34
ENDBRANCH  31  33
ENDBRANCH  26  31
ENDBRANCH  24  26
ENDBRANCH  19  22
ENDBRANCH  15  16
ENDBRANCH  11  14
ENDBRANCH   7   8
ENDBRANCH   2   7
TORSDOF 14
ENDMDL
MODEL 6
REMARK VINA RESULT:      -3.6      1.719      3.431
REMARK  14 active torsions:
REMARK  status: ('A' for Active; 'I' for Inactive)
REMARK    1  A    between atoms: O_2  and  C_18 
REMARK    2  A    between atoms: C_5  and  C_8 
REMARK    3  A    between atoms: C_5  and  O_35 
REMARK    4  A    between atoms: C_5  and  C_36 
REMARK    5  A    between atoms: N_6  and  C_11 
REMARK    6  A    between atoms: N_7  and  C_15 
REMARK       I    between atoms: N_7  and  C_24 
REMARK    7  A    between atoms: C_8  and  C_23 
REMARK    8  A    between atoms: C_11  and  C_14 
REMARK    9  A    between atoms: C_15  and  C_18 
REMARK   10  A    between atoms: C_15  and  C_23 
REMARK   11  A    between atoms: C_21  and  C_26 
REMARK   12  A    between atoms: C_24  and  C_25 
REMARK   13  A    between atoms: C_29  and  C_32 
REMARK   14  A    between atoms: C_36  and  O_39 
ROOT
HETATM    1  O   UNL     1      16.819   3.615  93.251  1.00  0.00    -0.350 OA
HETATM    2  N   UNL     1      14.275   2.588  94.010  1.00  0.00     0.147 N 
HETATM    3  C   UNL     1      15.179   1.830  93.134  1.00  0.00     0.283 C 
HETATM    4  C   UNL     1      14.503   4.030  93.842  1.00  0.00     0.283 C 
HETATM    5  C   UNL     1      16.627   2.211  93.431  1.00  0.00     0.178 C 
HETATM    6  C   UNL     1      15.966   4.359  94.122  1.00  0.00     0.178 C 
ENDROOT
BRANCH   2   7
HETATM    7  C   UNL     1      12.881   2.247  93.734  1.00  0.00     0.277 C 
BRANCH   7   8
HETATM    8  C   UNL     1      12.102   3.410  93.219  1.00  0.00     0.011 A 
HETATM    9  C   UNL     1      11.898   3.558  91.847  1.00  0.00    -0.002 A 
HETATM   10  C   UNL     1      11.173   4.647  91.364  1.00  0.00     0.008 A 
HETATM   11  C   UNL     1      10.649   5.585  92.253  1.00  0.00     0.042 A 
HETATM   12  C   UNL     1      10.852   5.437  93.624  1.00  0.00     0.008 A 
HETATM   13  C   UNL     1      11.579   4.349  94.107  1.00  0.00    -0.002 A 
BRANCH  11  14
HETATM   14  C   UNL     1       9.903   6.700  91.757  1.00  0.00    -0.059 C 
HETATM   15  C   UNL     1       9.275   7.637  91.341  1.00  0.00    -0.059 C 
BRANCH  15  16
HETATM   16  C   UNL     1       8.528   8.752  90.847  1.00  0.00     0.042 A 
HETATM   17  C   UNL     1       8.931   9.395  89.676  1.00  0.00     0.008 A 
HETATM   18  C   UNL     1       8.201  10.481  89.192  1.00  0.00     0.005 A 
HETATM   19  C   UNL     1       7.086  10.899  89.889  1.00  0.00     0.056 A 
HETATM   20  C   UNL     1       6.668  10.280  91.048  1.00  0.00     0.005 A 
HETATM   21  C   UNL     1       7.397   9.194  91.533  1.00  0.00     0.008 A 
BRANCH  19  22
HETATM   22  C   UNL     1       6.311  12.057  89.374  1.00  0.00     0.254 C 
HETATM   23  O   UNL     1       6.756  12.705  88.430  1.00  0.00    -0.268 OA
HETATM   24  N   UNL     1       5.099  12.305  90.004  1.00  0.00    -0.335 N 
HETATM   25  HN  UNL     1       4.784  11.711  90.762  1.00  0.00     0.164 HD
BRANCH  24  26
HETATM   26  C   UNL     1       4.222  13.376  89.604  1.00  0.00     0.169 C 
BRANCH  26  27
HETATM   27  C   UNL     1       4.046  13.462  88.083  1.00  0.00     0.138 C 
HETATM   28  C   UNL     1       5.084  14.365  87.425  1.00  0.00     0.034 C 
BRANCH  27  29
HETATM   29  O   UNL     1       4.143  12.156  87.516  1.00  0.00    -0.383 OA
HETATM   30  H   UNL     1       4.774  12.190  86.777  1.00  0.00     0.210 HD
ENDBRANCH  27  29
ENDBRANCH  26  27
BRANCH  26  31
HETATM   31  C   UNL     1       2.884  13.169  90.306  1.00  0.00     0.194 C 
HETATM   32  O   UNL     1       2.091  14.085  90.519  1.00  0.00    -0.289 OA
BRANCH  31  33
HETATM   33  C   UNL     1       2.699  11.865  90.697  1.00  0.00     0.053 C 
BRANCH  33  34
HETATM   34  C   UNL     1       2.497  11.663  92.070  1.00  0.00     0.220 C 
BRANCH  34  35
HETATM   35  O   UNL     1       1.273  11.532  92.259  1.00  0.00    -0.371 OA
HETATM   36  H   UNL     1       1.066  12.440  92.421  1.00  0.00     0.211 HD
ENDBRANCH  34  35
BRANCH  34  37
HETATM   37  C   UNL     1       3.235  10.587  92.591  1.00  0.00     0.185 C 
HETATM   38  O   UNL     1       4.038  11.551  93.014  1.00  0.00    -0.647 OA
BRANCH  37  39
HETATM   39  O   UNL     1       3.163   9.394  92.589  1.00  0.00    -0.774 OA
HETATM   40  H   UNL     1       2.141   9.038  92.248  1.00  0.00     0.167 HD
ENDBRANCH  37  39
ENDBRANCH  34  37
ENDBRANCH  33  34
ENDBRANCH  31  33
ENDBRANCH  26  31
ENDBRANCH  24  26
ENDBRANCH  19  22
ENDBRANCH  15  16
ENDBRANCH  11  14
ENDBRANCH   7   8
ENDBRANCH   2   7
TORSDOF 14
ENDMDL
