MODEL 1
REMARK VINA RESULT:      -6.9      0.000      0.000
REMARK  10 active torsions:
REMARK  status: ('A' for Active; 'I' for Inactive)
REMARK    1  A    between atoms: O_2  and  C_16 
REMARK    2  A    between atoms: N_5  and  C_9 
REMARK    3  A    between atoms: N_6  and  C_13 
REMARK       I    between atoms: N_6  and  C_22 
REMARK    4  A    between atoms: C_9  and  C_12 
REMARK    5  A    between atoms: C_13  and  C_16 
REMARK    6  A    between atoms: C_13  and  C_21 
REMARK    7  A    between atoms: C_19  and  C_24 
REMARK    8  A    between atoms: C_22  and  C_23 
REMARK    9  A    between atoms: C_27  and  C_30 
REMARK   10  A    between atoms: N_33  and  S_34 
ROOT
HETATM    1  C   UNL     1       5.455  10.606  89.395  1.00  0.00     0.056 A 
HETATM    2  C   UNL     1       5.083   9.301  89.149  1.00  0.00     0.005 A 
HETATM    3  C   UNL     1       6.684  10.934  89.928  1.00  0.00     0.005 A 
HETATM    4  C   UNL     1       7.230   8.582  89.990  1.00  0.00     0.042 A 
HETATM    5  C   UNL     1       5.980   8.277  89.450  1.00  0.00     0.008 A 
HETATM    6  C   UNL     1       7.582   9.910  90.229  1.00  0.00     0.008 A 
ENDROOT
BRANCH   1   7
HETATM    7  C   UNL     1       4.499  11.698  89.073  1.00  0.00     0.254 C 
HETATM    8  O   UNL     1       4.172  11.882  87.903  1.00  0.00    -0.268 OA
HETATM    9  N   UNL     1       4.021  12.426  90.153  1.00  0.00    -0.337 N 
HETATM   10  HN  UNL     1       4.317  12.201  91.095  1.00  0.00     0.164 HD
BRANCH   9  11
HETATM   11  C   UNL     1       3.071  13.499  90.005  1.00  0.00     0.172 C 
BRANCH  11  12
HETATM   12  C   UNL     1       1.964  13.463  91.066  1.00  0.00     0.136 C 
HETATM   13  C   UNL     1       2.315  12.562  92.245  1.00  0.00     0.034 C 
BRANCH  12  14
HETATM   14  O   UNL     1       1.721  14.784  91.549  1.00  0.00    -0.383 OA
HETATM   15  H   UNL     1       0.855  15.075  91.218  1.00  0.00     0.210 HD
ENDBRANCH  12  14
ENDBRANCH  11  12
BRANCH  11  16
HETATM   16  C   UNL     1       3.842  14.814  90.053  1.00  0.00     0.398 A 
HETATM   17  O   UNL     1       4.867  15.014  89.403  1.00  0.00    -0.136 OA
HETATM   18  N   UNL     1       5.034  15.526  90.825  1.00  0.00     0.142 N 
HETATM   19  HN  UNL     1       5.910  15.792  90.472  1.00  0.00     0.338 HD
BRANCH  18  20
HETATM   20  S   UNL     1       4.546  15.396  92.120  1.00  0.00     0.076 SA
HETATM   21  H   UNL     1       3.429  15.005  92.230  1.00  0.00     0.136 HD
ENDBRANCH  18  20
ENDBRANCH  11  16
ENDBRANCH   9  11
ENDBRANCH   1   7
BRANCH   4  22
HETATM   22  C   UNL     1       8.149   7.532  90.301  1.00  0.00    -0.059 C 
HETATM   23  C   UNL     1       8.922   6.649  90.564  1.00  0.00    -0.059 C 
BRANCH  23  24
HETATM   24  C   UNL     1       9.841   5.598  90.876  1.00  0.00     0.042 A 
HETATM   25  C   UNL     1      10.651   5.062  89.876  1.00  0.00     0.008 A 
HETATM   26  C   UNL     1      11.546   4.036  90.180  1.00  0.00    -0.002 A 
HETATM   27  C   UNL     1      11.630   3.547  91.484  1.00  0.00     0.011 A 
HETATM   28  C   UNL     1      10.819   4.085  92.483  1.00  0.00    -0.002 A 
HETATM   29  C   UNL     1       9.924   5.111  92.179  1.00  0.00     0.008 A 
BRANCH  27  30
HETATM   30  C   UNL     1      12.588   2.452  91.808  1.00  0.00     0.277 C 
BRANCH  30  31
HETATM   31  N   UNL     1      13.585   2.858  92.798  1.00  0.00     0.147 N 
HETATM   32  C   UNL     1      14.502   1.749  93.098  1.00  0.00     0.283 C 
HETATM   33  C   UNL     1      15.538   2.200  94.124  1.00  0.00     0.178 C 
HETATM   34  O   UNL     1      16.264   3.329  93.635  1.00  0.00    -0.350 OA
HETATM   35  C   UNL     1      15.383   4.422  93.370  1.00  0.00     0.178 C 
HETATM   36  C   UNL     1      14.343   4.025  92.327  1.00  0.00     0.283 C 
ENDBRANCH  30  31
ENDBRANCH  27  30
ENDBRANCH  23  24
ENDBRANCH   4  22
TORSDOF 10
ENDMDL
