MODEL 1
REMARK VINA RESULT:      -7.5      0.000      0.000
REMARK  9 active torsions:
REMARK  status: ('A' for Active; 'I' for Inactive)
REMARK    1  A    between atoms: N_3  and  C_6 
REMARK    2  A    between atoms: C_6  and  C_9 
REMARK    3  A    between atoms: C_14  and  C_17 
REMARK       I    between atoms: N_26  and  C_15 
REMARK    4  A    between atoms: C_15  and  C_16 
REMARK    5  A    between atoms: C_20  and  C_23 
REMARK    6  A    between atoms: OG1_24  and  CB_28 
REMARK    7  A    between atoms: N_26  and  CA_27 
REMARK    8  A    between atoms: CA_27  and  CB_28 
REMARK    9  A    between atoms: CA_27  and  C_30 
ROOT
HETATM    1  O   UNK A   0       1.933   8.196  87.825  1.00  0.00    -0.388 OA
HETATM    2  N   UNK A   0       4.710   7.596  87.646  1.00  0.00     0.096 N 
HETATM    3  C   UNK A   0       4.229   8.980  87.761  1.00  0.00     0.299 C 
HETATM    4  C   UNK A   0       3.699   6.766  86.976  1.00  0.00     0.299 C 
HETATM    5  C   UNK A   0       2.895   9.004  88.505  1.00  0.00     0.198 C 
HETATM    6  C   UNK A   0       2.379   6.842  87.736  1.00  0.00     0.198 C 
ENDROOT
BRANCH   2   7
HETATM    7  C   UNK A   0       5.982   7.549  86.928  1.00  0.00     0.311 C 
BRANCH   7   8
HETATM    8  C   UNK A   0       7.075   6.951  87.747  1.00  0.00    -0.030 A 
HETATM    9  C   UNK A   0       8.323   6.710  87.172  1.00  0.00     0.010 A 
HETATM   10  C   UNK A   0       9.346   6.149  87.936  1.00  0.00     0.021 A 
HETATM   11  C   UNK A   0       9.120   5.832  89.276  1.00  0.00     0.018 A 
HETATM   12  C   UNK A   0       7.874   6.073  89.851  1.00  0.00     0.021 A 
HETATM   13  C   UNK A   0       6.851   6.633  89.086  1.00  0.00     0.010 A 
BRANCH  11  14
HETATM   14  C   UNK A   0      10.170   5.258  90.060  1.00  0.00    -0.061 C 
HETATM   15  C   UNK A   0      11.052   4.776  90.720  1.00  0.00    -0.061 C 
BRANCH  15  16
HETATM   16  C   UNK A   0      12.101   4.202  91.504  1.00  0.00     0.018 A 
HETATM   17  C   UNK A   0      13.367   4.019  90.947  1.00  0.00     0.022 A 
HETATM   18  C   UNK A   0      14.390   3.462  91.713  1.00  0.00     0.018 A 
HETATM   19  C   UNK A   0      14.126   3.101  93.018  1.00  0.00     0.032 A 
HETATM   20  C   UNK A   0      12.884   3.271  93.591  1.00  0.00     0.018 A 
HETATM   21  C   UNK A   0      11.859   3.828  92.826  1.00  0.00     0.022 A 
BRANCH  19  22
HETATM   22  C   UNK A   0      15.217   2.505  93.832  1.00  0.00     0.252 C 
HETATM   23  O   UNK A   0      16.385   2.753  93.544  1.00  0.00    -0.268 OA
ENDBRANCH  19  22
ENDBRANCH  15  16
ENDBRANCH  11  14
ENDBRANCH   7   8
ENDBRANCH   2   7
TORSDOF 9
ENDMDL
MODEL 2
REMARK VINA RESULT:      -7.5      0.091      1.012
REMARK  9 active torsions:
REMARK  status: ('A' for Active; 'I' for Inactive)
REMARK    1  A    between atoms: N_3  and  C_6 
REMARK    2  A    between atoms: C_6  and  C_9 
REMARK    3  A    between atoms: C_14  and  C_17 
REMARK       I    between atoms: N_26  and  C_15 
REMARK    4  A    between atoms: C_15  and  C_16 
REMARK    5  A    between atoms: C_20  and  C_23 
REMARK    6  A    between atoms: OG1_24  and  CB_28 
REMARK    7  A    between atoms: N_26  and  CA_27 
REMARK    8  A    between atoms: CA_27  and  CB_28 
REMARK    9  A    between atoms: CA_27  and  C_30 
ROOT
HETATM    1  O   UNK A   0       1.852   8.127  87.848  1.00  0.00    -0.388 OA
HETATM    2  N   UNK A   0       4.640   7.579  87.673  1.00  0.00     0.096 N 
HETATM    3  C   UNK A   0       4.133   8.953  87.793  1.00  0.00     0.299 C 
HETATM    4  C   UNK A   0       3.646   6.734  86.996  1.00  0.00     0.299 C 
HETATM    5  C   UNK A   0       2.798   8.949  88.533  1.00  0.00     0.198 C 
HETATM    6  C   UNK A   0       2.323   6.782  87.754  1.00  0.00     0.198 C 
ENDROOT
BRANCH   2   7
HETATM    7  C   UNK A   0       5.914   7.558  86.957  1.00  0.00     0.311 C 
BRANCH   7   8
HETATM    8  C   UNK A   0       7.010   6.951  87.766  1.00  0.00    -0.030 A 
HETATM    9  C   UNK A   0       6.792   6.635  89.107  1.00  0.00     0.010 A 
HETATM   10  C   UNK A   0       7.817   6.069  89.865  1.00  0.00     0.021 A 
HETATM   11  C   UNK A   0       9.058   5.817  89.280  1.00  0.00     0.018 A 
HETATM   12  C   UNK A   0       9.276   6.131  87.941  1.00  0.00     0.021 A 
HETATM   13  C   UNK A   0       8.251   6.698  87.182  1.00  0.00     0.010 A 
BRANCH  11  14
HETATM   14  C   UNK A   0      10.108   5.234  90.058  1.00  0.00    -0.061 C 
HETATM   15  C   UNK A   0      10.991   4.744  90.710  1.00  0.00    -0.061 C 
BRANCH  15  16
HETATM   16  C   UNK A   0      12.041   4.161  91.486  1.00  0.00     0.018 A 
HETATM   17  C   UNK A   0      13.300   3.964  90.918  1.00  0.00     0.022 A 
HETATM   18  C   UNK A   0      14.325   3.398  91.675  1.00  0.00     0.018 A 
HETATM   19  C   UNK A   0      14.069   3.043  92.983  1.00  0.00     0.032 A 
HETATM   20  C   UNK A   0      12.834   3.227  93.568  1.00  0.00     0.018 A 
HETATM   21  C   UNK A   0      11.808   3.793  92.811  1.00  0.00     0.022 A 
BRANCH  19  22
HETATM   22  C   UNK A   0      15.161   2.438  93.790  1.00  0.00     0.252 C 
HETATM   23  O   UNK A   0      16.301   2.886  93.687  1.00  0.00    -0.268 OA
ENDBRANCH  19  22
ENDBRANCH  15  16
ENDBRANCH  11  14
ENDBRANCH   7   8
ENDBRANCH   2   7
TORSDOF 9
ENDMDL
MODEL 3
REMARK VINA RESULT:      -7.5      0.196      1.026
REMARK  9 active torsions:
REMARK  status: ('A' for Active; 'I' for Inactive)
REMARK    1  A    between atoms: N_3  and  C_6 
REMARK    2  A    between atoms: C_6  and  C_9 
REMARK    3  A    between atoms: C_14  and  C_17 
REMARK       I    between atoms: N_26  and  C_15 
REMARK    4  A    between atoms: C_15  and  C_16 
REMARK    5  A    between atoms: C_20  and  C_23 
REMARK    6  A    between atoms: OG1_24  and  CB_28 
REMARK    7  A    between atoms: N_26  and  CA_27 
REMARK    8  A    between atoms: CA_27  and  CB_28 
REMARK    9  A    between atoms: CA_27  and  C_30 
ROOT
HETATM    1  O   UNK A   0       1.874   8.349  87.878  1.00  0.00    -0.388 OA
HETATM    2  N   UNK A   0       4.632   7.691  87.636  1.00  0.00     0.096 N 
HETATM    3  C   UNK A   0       4.183   9.085  87.749  1.00  0.00     0.299 C 
HETATM    4  C   UNK A   0       3.588   6.875  86.999  1.00  0.00     0.299 C 
HETATM    5  C   UNK A   0       2.870   9.144  88.525  1.00  0.00     0.198 C 
HETATM    6  C   UNK A   0       2.290   6.986  87.792  1.00  0.00     0.198 C 
ENDROOT
BRANCH   2   7
HETATM    7  C   UNK A   0       5.885   7.610  86.886  1.00  0.00     0.311 C 
BRANCH   7   8
HETATM    8  C   UNK A   0       6.986   7.000  87.684  1.00  0.00    -0.030 A 
HETATM    9  C   UNK A   0       8.238   6.797  87.102  1.00  0.00     0.010 A 
HETATM   10  C   UNK A   0       9.269   6.225  87.847  1.00  0.00     0.021 A 
HETATM   11  C   UNK A   0       9.048   5.857  89.174  1.00  0.00     0.018 A 
HETATM   12  C   UNK A   0       7.798   6.059  89.756  1.00  0.00     0.021 A 
HETATM   13  C   UNK A   0       6.767   6.631  89.011  1.00  0.00     0.010 A 
BRANCH  11  14
HETATM   14  C   UNK A   0      10.106   5.272  89.939  1.00  0.00    -0.061 C 
HETATM   15  C   UNK A   0      10.996   4.781  90.581  1.00  0.00    -0.061 C 
BRANCH  15  16
HETATM   16  C   UNK A   0      12.053   4.197  91.346  1.00  0.00     0.018 A 
HETATM   17  C   UNK A   0      11.829   3.822  92.671  1.00  0.00     0.022 A 
HETATM   18  C   UNK A   0      12.860   3.250  93.416  1.00  0.00     0.018 A 
HETATM   19  C   UNK A   0      14.090   3.065  92.820  1.00  0.00     0.032 A 
HETATM   20  C   UNK A   0      14.336   3.427  91.512  1.00  0.00     0.018 A 
HETATM   21  C   UNK A   0      13.306   3.999  90.766  1.00  0.00     0.022 A 
BRANCH  19  22
HETATM   22  C   UNK A   0      15.189   2.457  93.615  1.00  0.00     0.252 C 
HETATM   23  O   UNK A   0      16.164   3.142  93.912  1.00  0.00    -0.268 OA
ENDBRANCH  19  22
ENDBRANCH  15  16
ENDBRANCH  11  14
ENDBRANCH   7   8
ENDBRANCH   2   7
TORSDOF 9
ENDMDL
MODEL 4
REMARK VINA RESULT:      -7.5      0.427      1.483
REMARK  9 active torsions:
REMARK  status: ('A' for Active; 'I' for Inactive)
REMARK    1  A    between atoms: N_3  and  C_6 
REMARK    2  A    between atoms: C_6  and  C_9 
REMARK    3  A    between atoms: C_14  and  C_17 
REMARK       I    between atoms: N_26  and  C_15 
REMARK    4  A    between atoms: C_15  and  C_16 
REMARK    5  A    between atoms: C_20  and  C_23 
REMARK    6  A    between atoms: OG1_24  and  CB_28 
REMARK    7  A    between atoms: N_26  and  CA_27 
REMARK    8  A    between atoms: CA_27  and  CB_28 
REMARK    9  A    between atoms: CA_27  and  C_30 
ROOT
HETATM    1  O   UNK A   0       1.842   8.836  88.292  1.00  0.00    -0.388 OA
HETATM    2  N   UNK A   0       4.477   7.845  87.867  1.00  0.00     0.096 N 
HETATM    3  C   UNK A   0       4.199   9.287  87.928  1.00  0.00     0.299 C 
HETATM    4  C   UNK A   0       3.295   7.125  87.371  1.00  0.00     0.299 C 
HETATM    5  C   UNK A   0       2.974   9.541  88.803  1.00  0.00     0.198 C 
HETATM    6  C   UNK A   0       2.093   7.430  88.259  1.00  0.00     0.198 C 
ENDROOT
BRANCH   2   7
HETATM    7  C   UNK A   0       5.640   7.577  87.024  1.00  0.00     0.311 C 
BRANCH   7   8
HETATM    8  C   UNK A   0       6.771   6.978  87.790  1.00  0.00    -0.030 A 
HETATM    9  C   UNK A   0       6.553   6.475  89.073  1.00  0.00     0.010 A 
HETATM   10  C   UNK A   0       7.610   5.916  89.792  1.00  0.00     0.021 A 
HETATM   11  C   UNK A   0       8.883   5.860  89.226  1.00  0.00     0.018 A 
HETATM   12  C   UNK A   0       9.102   6.362  87.944  1.00  0.00     0.021 A 
HETATM   13  C   UNK A   0       8.045   6.921  87.226  1.00  0.00     0.010 A 
BRANCH  11  14
HETATM   14  C   UNK A   0       9.967   5.285  89.962  1.00  0.00    -0.061 C 
HETATM   15  C   UNK A   0      10.878   4.801  90.580  1.00  0.00    -0.061 C 
BRANCH  15  16
HETATM   16  C   UNK A   0      11.961   4.226  91.315  1.00  0.00     0.018 A 
HETATM   17  C   UNK A   0      11.763   3.799  92.628  1.00  0.00     0.022 A 
HETATM   18  C   UNK A   0      12.819   3.236  93.344  1.00  0.00     0.018 A 
HETATM   19  C   UNK A   0      14.049   3.111  92.731  1.00  0.00     0.032 A 
HETATM   20  C   UNK A   0      14.270   3.526  91.434  1.00  0.00     0.018 A 
HETATM   21  C   UNK A   0      13.214   4.090  90.718  1.00  0.00     0.022 A 
BRANCH  19  22
HETATM   22  C   UNK A   0      15.174   2.513  93.494  1.00  0.00     0.252 C 
HETATM   23  O   UNK A   0      16.128   3.220  93.810  1.00  0.00    -0.268 OA
ENDBRANCH  19  22
ENDBRANCH  15  16
ENDBRANCH  11  14
ENDBRANCH   7   8
ENDBRANCH   2   7
TORSDOF 9
ENDMDL
MODEL 5
REMARK VINA RESULT:      -6.9      1.500      2.304
REMARK  9 active torsions:
REMARK  status: ('A' for Active; 'I' for Inactive)
REMARK    1  A    between atoms: N_3  and  C_6 
REMARK    2  A    between atoms: C_6  and  C_9 
REMARK    3  A    between atoms: C_14  and  C_17 
REMARK       I    between atoms: N_26  and  C_15 
REMARK    4  A    between atoms: C_15  and  C_16 
REMARK    5  A    between atoms: C_20  and  C_23 
REMARK    6  A    between atoms: OG1_24  and  CB_28 
REMARK    7  A    between atoms: N_26  and  CA_27 
REMARK    8  A    between atoms: CA_27  and  CB_28 
REMARK    9  A    between atoms: CA_27  and  C_30 
ROOT
HETATM    1  O   UNK A   0       2.771  11.275  89.681  1.00  0.00    -0.388 OA
HETATM    2  N   UNK A   0       4.584   9.284  88.761  1.00  0.00     0.096 N 
HETATM    3  C   UNK A   0       3.855  10.150  87.824  1.00  0.00     0.299 C 
HETATM    4  C   UNK A   0       3.802   9.102  89.992  1.00  0.00     0.299 C 
HETATM    5  C   UNK A   0       3.538  11.484  88.494  1.00  0.00     0.198 C 
HETATM    6  C   UNK A   0       3.486  10.460  90.610  1.00  0.00     0.198 C 
ENDROOT
BRANCH   2   7
HETATM    7  C   UNK A   0       4.890   7.994  88.144  1.00  0.00     0.311 C 
BRANCH   7   8
HETATM    8  C   UNK A   0       6.103   7.357  88.730  1.00  0.00    -0.030 A 
HETATM    9  C   UNK A   0       5.973   6.232  89.545  1.00  0.00     0.010 A 
HETATM   10  C   UNK A   0       7.108   5.636  90.096  1.00  0.00     0.021 A 
HETATM   11  C   UNK A   0       8.371   6.163  89.830  1.00  0.00     0.018 A 
HETATM   12  C   UNK A   0       8.501   7.286  89.015  1.00  0.00     0.021 A 
HETATM   13  C   UNK A   0       7.367   7.883  88.465  1.00  0.00     0.010 A 
BRANCH  11  14
HETATM   14  C   UNK A   0       9.534   5.550  90.393  1.00  0.00    -0.061 C 
HETATM   15  C   UNK A   0      10.512   5.035  90.867  1.00  0.00    -0.061 C 
BRANCH  15  16
HETATM   16  C   UNK A   0      11.674   4.421  91.429  1.00  0.00     0.018 A 
HETATM   17  C   UNK A   0      11.643   3.939  92.738  1.00  0.00     0.022 A 
HETATM   18  C   UNK A   0      12.777   3.339  93.286  1.00  0.00     0.018 A 
HETATM   19  C   UNK A   0      13.914   3.233  92.513  1.00  0.00     0.032 A 
HETATM   20  C   UNK A   0      13.970   3.702  91.217  1.00  0.00     0.018 A 
HETATM   21  C   UNK A   0      12.837   4.303  90.669  1.00  0.00     0.022 A 
BRANCH  19  22
HETATM   22  C   UNK A   0      15.122   2.595  93.098  1.00  0.00     0.252 C 
HETATM   23  O   UNK A   0      15.689   3.137  94.042  1.00  0.00    -0.268 OA
ENDBRANCH  19  22
ENDBRANCH  15  16
ENDBRANCH  11  14
ENDBRANCH   7   8
ENDBRANCH   2   7
TORSDOF 9
ENDMDL
MODEL 6
REMARK VINA RESULT:      -6.7      1.086      1.912
REMARK  9 active torsions:
REMARK  status: ('A' for Active; 'I' for Inactive)
REMARK    1  A    between atoms: N_3  and  C_6 
REMARK    2  A    between atoms: C_6  and  C_9 
REMARK    3  A    between atoms: C_14  and  C_17 
REMARK       I    between atoms: N_26  and  C_15 
REMARK    4  A    between atoms: C_15  and  C_16 
REMARK    5  A    between atoms: C_20  and  C_23 
REMARK    6  A    between atoms: OG1_24  and  CB_28 
REMARK    7  A    between atoms: N_26  and  CA_27 
REMARK    8  A    between atoms: CA_27  and  CB_28 
REMARK    9  A    between atoms: CA_27  and  C_30 
ROOT
HETATM    1  O   UNK A   0       1.264   7.085  88.259  1.00  0.00    -0.388 OA
HETATM    2  N   UNK A   0       4.019   7.549  88.802  1.00  0.00     0.096 N 
HETATM    3  C   UNK A   0       2.967   8.032  89.707  1.00  0.00     0.299 C 
HETATM    4  C   UNK A   0       3.508   7.479  87.426  1.00  0.00     0.299 C 
HETATM    5  C   UNK A   0       1.742   7.126  89.605  1.00  0.00     0.198 C 
HETATM    6  C   UNK A   0       2.271   6.587  87.378  1.00  0.00     0.198 C 
ENDROOT
BRANCH   2   7
HETATM    7  C   UNK A   0       5.199   8.409  88.875  1.00  0.00     0.311 C 
BRANCH   7   8
HETATM    8  C   UNK A   0       6.394   7.691  89.405  1.00  0.00    -0.030 A 
HETATM    9  C   UNK A   0       6.852   7.959  90.695  1.00  0.00     0.010 A 
HETATM   10  C   UNK A   0       7.970   7.289  91.191  1.00  0.00     0.021 A 
HETATM   11  C   UNK A   0       8.629   6.351  90.397  1.00  0.00     0.018 A 
HETATM   12  C   UNK A   0       8.172   6.083  89.108  1.00  0.00     0.021 A 
HETATM   13  C   UNK A   0       7.054   6.753  88.612  1.00  0.00     0.010 A 
BRANCH  11  14
HETATM   14  C   UNK A   0       9.775   5.663  90.906  1.00  0.00    -0.061 C 
HETATM   15  C   UNK A   0      10.739   5.085  91.334  1.00  0.00    -0.061 C 
BRANCH  15  16
HETATM   16  C   UNK A   0      11.885   4.398  91.844  1.00  0.00     0.018 A 
HETATM   17  C   UNK A   0      11.876   3.902  93.148  1.00  0.00     0.022 A 
HETATM   18  C   UNK A   0      12.993   3.230  93.644  1.00  0.00     0.018 A 
HETATM   19  C   UNK A   0      14.092   3.068  92.826  1.00  0.00     0.032 A 
HETATM   20  C   UNK A   0      14.124   3.549  91.534  1.00  0.00     0.018 A 
HETATM   21  C   UNK A   0      13.008   4.222  91.036  1.00  0.00     0.022 A 
BRANCH  19  22
HETATM   22  C   UNK A   0      15.282   2.353  93.355  1.00  0.00     0.252 C 
HETATM   23  O   UNK A   0      16.214   3.004  93.822  1.00  0.00    -0.268 OA
ENDBRANCH  19  22
ENDBRANCH  15  16
ENDBRANCH  11  14
ENDBRANCH   7   8
ENDBRANCH   2   7
TORSDOF 9
ENDMDL
MODEL 7
REMARK VINA RESULT:      -6.7      3.514     10.402
REMARK  9 active torsions:
REMARK  status: ('A' for Active; 'I' for Inactive)
REMARK    1  A    between atoms: N_3  and  C_6 
REMARK    2  A    between atoms: C_6  and  C_9 
REMARK    3  A    between atoms: C_14  and  C_17 
REMARK       I    between atoms: N_26  and  C_15 
REMARK    4  A    between atoms: C_15  and  C_16 
REMARK    5  A    between atoms: C_20  and  C_23 
REMARK    6  A    between atoms: OG1_24  and  CB_28 
REMARK    7  A    between atoms: N_26  and  CA_27 
REMARK    8  A    between atoms: CA_27  and  CB_28 
REMARK    9  A    between atoms: CA_27  and  C_30 
ROOT
HETATM    1  O   UNK A   0      16.228   3.138  93.632  1.00  0.00    -0.388 OA
HETATM    2  N   UNK A   0      13.513   2.889  92.815  1.00  0.00     0.096 N 
HETATM    3  C   UNK A   0      14.339   1.709  93.105  1.00  0.00     0.299 C 
HETATM    4  C   UNK A   0      14.360   3.992  92.341  1.00  0.00     0.299 C 
HETATM    5  C   UNK A   0      15.417   2.070  94.124  1.00  0.00     0.198 C 
HETATM    6  C   UNK A   0      15.437   4.299  93.376  1.00  0.00     0.198 C 
ENDROOT
BRANCH   2   7
HETATM    7  C   UNK A   0      12.479   2.569  91.832  1.00  0.00     0.311 C 
BRANCH   7   8
HETATM    8  C   UNK A   0      11.631   3.747  91.495  1.00  0.00    -0.030 A 
HETATM    9  C   UNK A   0      10.944   4.423  92.504  1.00  0.00     0.010 A 
HETATM   10  C   UNK A   0      10.148   5.524  92.190  1.00  0.00     0.021 A 
HETATM   11  C   UNK A   0      10.043   5.951  90.866  1.00  0.00     0.018 A 
HETATM   12  C   UNK A   0      10.729   5.278  89.858  1.00  0.00     0.021 A 
HETATM   13  C   UNK A   0      11.524   4.176  90.172  1.00  0.00     0.010 A 
BRANCH  11  14
HETATM   14  C   UNK A   0       9.228   7.083  90.544  1.00  0.00    -0.061 C 
HETATM   15  C   UNK A   0       8.544   8.034  90.274  1.00  0.00    -0.061 C 
BRANCH  15  16
HETATM   16  C   UNK A   0       7.731   9.165  89.952  1.00  0.00     0.018 A 
HETATM   17  C   UNK A   0       6.350   9.106  90.141  1.00  0.00     0.022 A 
HETATM   18  C   UNK A   0       5.557  10.211  89.830  1.00  0.00     0.018 A 
HETATM   19  C   UNK A   0       6.162  11.348  89.339  1.00  0.00     0.032 A 
HETATM   20  C   UNK A   0       7.525  11.431  89.143  1.00  0.00     0.018 A 
HETATM   21  C   UNK A   0       8.319  10.327  89.454  1.00  0.00     0.022 A 
BRANCH  19  22
HETATM   22  C   UNK A   0       5.317  12.524  89.005  1.00  0.00     0.252 C 
HETATM   23  O   UNK A   0       4.663  12.517  87.965  1.00  0.00    -0.268 OA
ENDBRANCH  19  22
ENDBRANCH  15  16
ENDBRANCH  11  14
ENDBRANCH   7   8
ENDBRANCH   2   7
TORSDOF 9
ENDMDL
MODEL 8
REMARK VINA RESULT:      -6.6      3.907     10.414
REMARK  9 active torsions:
REMARK  status: ('A' for Active; 'I' for Inactive)
REMARK    1  A    between atoms: N_3  and  C_6 
REMARK    2  A    between atoms: C_6  and  C_9 
REMARK    3  A    between atoms: C_14  and  C_17 
REMARK       I    between atoms: N_26  and  C_15 
REMARK    4  A    between atoms: C_15  and  C_16 
REMARK    5  A    between atoms: C_20  and  C_23 
REMARK    6  A    between atoms: OG1_24  and  CB_28 
REMARK    7  A    between atoms: N_26  and  CA_27 
REMARK    8  A    between atoms: CA_27  and  CB_28 
REMARK    9  A    between atoms: CA_27  and  C_30 
ROOT
HETATM    1  O   UNK A   0      14.592   3.320  92.159  1.00  0.00    -0.388 OA
HETATM    2  N   UNK A   0      11.876   4.164  92.279  1.00  0.00     0.096 N 
HETATM    3  C   UNK A   0      12.474   3.346  93.344  1.00  0.00     0.299 C 
HETATM    4  C   UNK A   0      12.538   3.883  90.998  1.00  0.00     0.299 C 
HETATM    5  C   UNK A   0      13.976   3.609  93.416  1.00  0.00     0.198 C 
HETATM    6  C   UNK A   0      14.037   4.132  91.124  1.00  0.00     0.198 C 
ENDROOT
BRANCH   2   7
HETATM    7  C   UNK A   0      10.437   3.920  92.186  1.00  0.00     0.311 C 
BRANCH   7   8
HETATM    8  C   UNK A   0       9.668   5.164  91.900  1.00  0.00    -0.030 A 
HETATM    9  C   UNK A   0       8.649   5.149  90.946  1.00  0.00     0.010 A 
HETATM   10  C   UNK A   0       7.930   6.313  90.676  1.00  0.00     0.021 A 
HETATM   11  C   UNK A   0       8.228   7.490  91.362  1.00  0.00     0.018 A 
HETATM   12  C   UNK A   0       9.244   7.506  92.315  1.00  0.00     0.021 A 
HETATM   13  C   UNK A   0       9.964   6.343  92.585  1.00  0.00     0.010 A 
BRANCH  11  14
HETATM   14  C   UNK A   0       7.488   8.684  91.087  1.00  0.00    -0.061 C 
HETATM   15  C   UNK A   0       6.868   9.687  90.855  1.00  0.00    -0.061 C 
BRANCH  15  16
HETATM   16  C   UNK A   0       6.129  10.880  90.579  1.00  0.00     0.018 A 
HETATM   17  C   UNK A   0       6.288  11.530  89.355  1.00  0.00     0.022 A 
HETATM   18  C   UNK A   0       5.566  12.692  89.085  1.00  0.00     0.018 A 
HETATM   19  C   UNK A   0       4.701  13.177  90.043  1.00  0.00     0.032 A 
HETATM   20  C   UNK A   0       4.526  12.553  91.261  1.00  0.00     0.018 A 
HETATM   21  C   UNK A   0       5.248  11.391  91.532  1.00  0.00     0.022 A 
BRANCH  19  22
HETATM   22  C   UNK A   0       3.933  14.416  89.756  1.00  0.00     0.252 C 
HETATM   23  O   UNK A   0       4.524  15.492  89.712  1.00  0.00    -0.268 OA
ENDBRANCH  19  22
ENDBRANCH  15  16
ENDBRANCH  11  14
ENDBRANCH   7   8
ENDBRANCH   2   7
TORSDOF 9
ENDMDL
MODEL 9
REMARK VINA RESULT:      -6.6      3.912     10.472
REMARK  9 active torsions:
REMARK  status: ('A' for Active; 'I' for Inactive)
REMARK    1  A    between atoms: N_3  and  C_6 
REMARK    2  A    between atoms: C_6  and  C_9 
REMARK    3  A    between atoms: C_14  and  C_17 
REMARK       I    between atoms: N_26  and  C_15 
REMARK    4  A    between atoms: C_15  and  C_16 
REMARK    5  A    between atoms: C_20  and  C_23 
REMARK    6  A    between atoms: OG1_24  and  CB_28 
REMARK    7  A    between atoms: N_26  and  CA_27 
REMARK    8  A    between atoms: CA_27  and  CB_28 
REMARK    9  A    between atoms: CA_27  and  C_30 
ROOT
HETATM    1  O   UNK A   0      14.584   3.298  92.164  1.00  0.00    -0.388 OA
HETATM    2  N   UNK A   0      11.871   4.151  92.282  1.00  0.00     0.096 N 
HETATM    3  C   UNK A   0      12.473   3.355  93.360  1.00  0.00     0.299 C 
HETATM    4  C   UNK A   0      12.525   3.842  91.003  1.00  0.00     0.299 C 
HETATM    5  C   UNK A   0      13.976   3.615  93.418  1.00  0.00     0.198 C 
HETATM    6  C   UNK A   0      14.026   4.090  91.115  1.00  0.00     0.198 C 
ENDROOT
BRANCH   2   7
HETATM    7  C   UNK A   0      10.432   3.909  92.201  1.00  0.00     0.311 C 
BRANCH   7   8
HETATM    8  C   UNK A   0       9.662   5.153  91.915  1.00  0.00    -0.030 A 
HETATM    9  C   UNK A   0       9.825   6.276  92.728  1.00  0.00     0.010 A 
HETATM   10  C   UNK A   0       9.103   7.440  92.462  1.00  0.00     0.021 A 
HETATM   11  C   UNK A   0       8.221   7.481  91.383  1.00  0.00     0.018 A 
HETATM   12  C   UNK A   0       8.058   6.361  90.571  1.00  0.00     0.021 A 
HETATM   13  C   UNK A   0       8.778   5.197  90.836  1.00  0.00     0.010 A 
BRANCH  11  14
HETATM   14  C   UNK A   0       7.483   8.676  91.110  1.00  0.00    -0.061 C 
HETATM   15  C   UNK A   0       6.862   9.680  90.879  1.00  0.00    -0.061 C 
BRANCH  15  16
HETATM   16  C   UNK A   0       6.124  10.873  90.606  1.00  0.00     0.018 A 
HETATM   17  C   UNK A   0       5.295  11.419  91.587  1.00  0.00     0.022 A 
HETATM   18  C   UNK A   0       4.577  12.585  91.321  1.00  0.00     0.018 A 
HETATM   19  C   UNK A   0       4.704  13.178  90.082  1.00  0.00     0.032 A 
HETATM   20  C   UNK A   0       5.515  12.657  89.096  1.00  0.00     0.018 A 
HETATM   21  C   UNK A   0       6.234  11.492  89.361  1.00  0.00     0.022 A 
BRANCH  19  22
HETATM   22  C   UNK A   0       3.937  14.419  89.799  1.00  0.00     0.252 C 
HETATM   23  O   UNK A   0       4.546  15.458  89.556  1.00  0.00    -0.268 OA
ENDBRANCH  19  22
ENDBRANCH  15  16
ENDBRANCH  11  14
ENDBRANCH   7   8
ENDBRANCH   2   7
TORSDOF 9
ENDMDL
