MODEL 1
REMARK VINA RESULT:      -6.9      0.000      0.000
REMARK  10 active torsions:
REMARK  status: ('A' for Active; 'I' for Inactive)
REMARK    1  A    between atoms: O_2  and  C_18 
REMARK    2  A    between atoms: O_5  and  N_8 
REMARK    3  A    between atoms: N_6  and  C_11 
REMARK    4  A    between atoms: N_7  and  C_15 
REMARK       I    between atoms: N_7  and  C_24 
REMARK       I    between atoms: N_8  and  C_23 
REMARK    5  A    between atoms: C_11  and  C_14 
REMARK    6  A    between atoms: C_15  and  C_18 
REMARK    7  A    between atoms: C_15  and  C_23 
REMARK    8  A    between atoms: C_21  and  C_26 
REMARK    9  A    between atoms: C_24  and  C_25 
REMARK   10  A    between atoms: C_29  and  C_32 
ROOT
HETATM    1  O   UNK     0      16.612   4.352  94.076  0.00  0.00    -0.388 OA
HETATM    2  N   UNK     0      14.786   2.639  92.722  0.00  0.00     0.096 N 
HETATM    3  C   UNK     0      14.649   4.101  92.671  0.00  0.00     0.299 C 
HETATM    4  C   UNK     0      15.427   2.237  93.981  0.00  0.00     0.299 C 
HETATM    5  C   UNK     0      16.018   4.755  92.840  0.00  0.00     0.198 C 
HETATM    6  C   UNK     0      16.777   2.935  94.121  0.00  0.00     0.198 C 
ENDROOT
BRANCH   2   7
HETATM    7  C   UNK     0      13.484   1.991  92.572  0.00  0.00     0.311 C 
BRANCH   7   8
HETATM    8  C   UNK     0      12.396   2.966  92.275  0.00  0.00    -0.030 A 
HETATM    9  C   UNK     0      11.857   3.038  90.990  0.00  0.00     0.010 A 
HETATM   10  C   UNK     0      10.841   3.951  90.710  0.00  0.00     0.021 A 
HETATM   11  C   UNK     0      10.362   4.790  91.715  0.00  0.00     0.018 A 
HETATM   12  C   UNK     0      10.899   4.718  92.999  0.00  0.00     0.021 A 
HETATM   13  C   UNK     0      11.916   3.806  93.280  0.00  0.00     0.010 A 
BRANCH  11  14
HETATM   14  C   UNK     0       9.318   5.725  91.429  0.00  0.00    -0.061 C 
HETATM   15  C   UNK     0       8.440   6.511  91.188  0.00  0.00    -0.061 C 
BRANCH  15  16
HETATM   16  C   UNK     0       7.396   7.443  90.902  0.00  0.00     0.018 A 
HETATM   17  C   UNK     0       6.626   7.967  91.942  0.00  0.00     0.022 A 
HETATM   18  C   UNK     0       5.608   8.879  91.663  0.00  0.00     0.018 A 
HETATM   19  C   UNK     0       5.383   9.248  90.353  0.00  0.00     0.032 A 
HETATM   20  C   UNK     0       6.130   8.745  89.308  0.00  0.00     0.018 A 
HETATM   21  C   UNK     0       7.147   7.832  89.586  0.00  0.00     0.022 A 
BRANCH  19  22
HETATM   22  C   UNK     0       4.298  10.219  90.057  0.00  0.00     0.252 C 
HETATM   23  O   UNK     0       3.311   9.842  89.429  0.00  0.00    -0.268 OA
HETATM   24  N   UNK     0       4.480  11.504  90.549  0.00  0.00    -0.341 N 
HETATM   25  H   UNK     0       5.310  11.736  91.081  0.00  0.00     0.163 HD
BRANCH  24  26
HETATM   26  C   UNK     0       3.506  12.550  90.365  0.00  0.00     0.207 C 
BRANCH  26  27
HETATM   27  C   UNK     0       3.279  13.378  91.636  0.00  0.00     0.146 C 
HETATM   28  C   UNK     0       3.231  12.518  92.893  0.00  0.00     0.042 C 
BRANCH  27  29
HETATM   29  O   UNK     0       4.324  14.340  91.772  0.00  0.00    -0.393 OA
HETATM   30  H   UNK     0       4.357  14.626  92.700  0.00  0.00     0.210 HD
ENDBRANCH  27  29
ENDBRANCH  26  27
BRANCH  26  31
HETATM   31  C   UNK     0       3.976  13.426  89.208  0.00  0.00     0.266 C 
HETATM   32  O   UNK     0       3.996  14.654  89.264  0.00  0.00    -0.269 OA
HETATM   33  N   UNK     0       4.329  12.685  88.106  0.00  0.00    -0.236 N 
HETATM   34  H   UNK     0       4.240  11.682  87.996  0.00  0.00     0.197 HD
BRANCH  33  35
HETATM   35  O   UNK     0       4.737  13.419  86.984  0.00  0.00    -0.287 OA
HETATM   36  H   UNK     0       5.620  13.706  87.274  0.00  0.00     0.244 HD
ENDBRANCH  33  35
ENDBRANCH  26  31
ENDBRANCH  24  26
ENDBRANCH  19  22
ENDBRANCH  15  16
ENDBRANCH  11  14
ENDBRANCH   7   8
ENDBRANCH   2   7
TORSDOF 10
ENDMDL
MODEL 2
REMARK VINA RESULT:      -6.2      1.552      2.582
REMARK  10 active torsions:
REMARK  status: ('A' for Active; 'I' for Inactive)
REMARK    1  A    between atoms: O_2  and  C_18 
REMARK    2  A    between atoms: O_5  and  N_8 
REMARK    3  A    between atoms: N_6  and  C_11 
REMARK    4  A    between atoms: N_7  and  C_15 
REMARK       I    between atoms: N_7  and  C_24 
REMARK       I    between atoms: N_8  and  C_23 
REMARK    5  A    between atoms: C_11  and  C_14 
REMARK    6  A    between atoms: C_15  and  C_18 
REMARK    7  A    between atoms: C_15  and  C_23 
REMARK    8  A    between atoms: C_21  and  C_26 
REMARK    9  A    between atoms: C_24  and  C_25 
REMARK   10  A    between atoms: C_29  and  C_32 
ROOT
HETATM    1  O   UNK     0      15.614   4.431  93.563  0.00  0.00    -0.388 OA
HETATM    2  N   UNK     0      13.810   2.641  92.281  0.00  0.00     0.096 N 
HETATM    3  C   UNK     0      14.076   3.982  91.741  0.00  0.00     0.299 C 
HETATM    4  C   UNK     0      13.984   2.643  93.740  0.00  0.00     0.299 C 
HETATM    5  C   UNK     0      15.479   4.432  92.141  0.00  0.00     0.198 C 
HETATM    6  C   UNK     0      15.388   3.125  94.093  0.00  0.00     0.198 C 
ENDROOT
BRANCH   2   7
HETATM    7  C   UNK     0      12.466   2.194  91.919  0.00  0.00     0.311 C 
BRANCH   7   8
HETATM    8  C   UNK     0      11.498   3.324  91.822  0.00  0.00    -0.030 A 
HETATM    9  C   UNK     0      10.841   3.576  90.617  0.00  0.00     0.010 A 
HETATM   10  C   UNK     0       9.937   4.634  90.525  0.00  0.00     0.021 A 
HETATM   11  C   UNK     0       9.690   5.438  91.637  0.00  0.00     0.018 A 
HETATM   12  C   UNK     0      10.346   5.187  92.841  0.00  0.00     0.021 A 
HETATM   13  C   UNK     0      11.250   4.130  92.933  0.00  0.00     0.010 A 
BRANCH  11  14
HETATM   14  C   UNK     0       8.761   6.522  91.543  0.00  0.00    -0.061 C 
HETATM   15  C   UNK     0       7.980   7.433  91.463  0.00  0.00    -0.061 C 
BRANCH  15  16
HETATM   16  C   UNK     0       7.053   8.516  91.370  0.00  0.00     0.018 A 
HETATM   17  C   UNK     0       6.262   8.660  90.229  0.00  0.00     0.022 A 
HETATM   18  C   UNK     0       5.355   9.716  90.139  0.00  0.00     0.018 A 
HETATM   19  C   UNK     0       5.257  10.603  91.190  0.00  0.00     0.032 A 
HETATM   20  C   UNK     0       6.027  10.483  92.328  0.00  0.00     0.018 A 
HETATM   21  C   UNK     0       6.935   9.428  92.419  0.00  0.00     0.022 A 
BRANCH  19  22
HETATM   22  C   UNK     0       4.292  11.728  91.093  0.00  0.00     0.252 C 
HETATM   23  O   UNK     0       3.136  11.499  90.744  0.00  0.00    -0.268 OA
HETATM   24  N   UNK     0       4.781  12.981  91.437  0.00  0.00    -0.341 N 
HETATM   25  H   UNK     0       5.742  13.090  91.741  0.00  0.00     0.163 HD
BRANCH  24  26
HETATM   26  C   UNK     0       3.962  14.166  91.417  0.00  0.00     0.207 C 
BRANCH  26  27
HETATM   27  C   UNK     0       3.746  14.714  90.000  0.00  0.00     0.146 C 
HETATM   28  C   UNK     0       5.056  14.935  89.253  0.00  0.00     0.042 C 
BRANCH  27  29
HETATM   29  O   UNK     0       2.935  13.805  89.256  0.00  0.00    -0.393 OA
HETATM   30  H   UNK     0       3.351  12.927  89.290  0.00  0.00     0.210 HD
ENDBRANCH  27  29
ENDBRANCH  26  27
BRANCH  26  31
HETATM   31  C   UNK     0       2.636  13.827  92.089  0.00  0.00     0.266 C 
HETATM   32  O   UNK     0       1.544  14.092  91.588  0.00  0.00    -0.269 OA
HETATM   33  N   UNK     0       2.812  13.235  93.316  0.00  0.00    -0.236 N 
HETATM   34  H   UNK     0       3.691  13.084  93.796  0.00  0.00     0.197 HD
BRANCH  33  35
HETATM   35  O   UNK     0       1.638  12.926  94.018  0.00  0.00    -0.287 OA
HETATM   36  H   UNK     0       2.014  12.638  94.868  0.00  0.00     0.244 HD
ENDBRANCH  33  35
ENDBRANCH  26  31
ENDBRANCH  24  26
ENDBRANCH  19  22
ENDBRANCH  15  16
ENDBRANCH  11  14
ENDBRANCH   7   8
ENDBRANCH   2   7
TORSDOF 10
ENDMDL
MODEL 3
REMARK VINA RESULT:      -5.6      2.833     12.287
REMARK  10 active torsions:
REMARK  status: ('A' for Active; 'I' for Inactive)
REMARK    1  A    between atoms: O_2  and  C_18 
REMARK    2  A    between atoms: O_5  and  N_8 
REMARK    3  A    between atoms: N_6  and  C_11 
REMARK    4  A    between atoms: N_7  and  C_15 
REMARK       I    between atoms: N_7  and  C_24 
REMARK       I    between atoms: N_8  and  C_23 
REMARK    5  A    between atoms: C_11  and  C_14 
REMARK    6  A    between atoms: C_15  and  C_18 
REMARK    7  A    between atoms: C_15  and  C_23 
REMARK    8  A    between atoms: C_21  and  C_26 
REMARK    9  A    between atoms: C_24  and  C_25 
REMARK   10  A    between atoms: C_29  and  C_32 
ROOT
HETATM    1  O   UNK     0       2.733  14.742  94.024  0.00  0.00    -0.388 OA
HETATM    2  N   UNK     0       2.584  14.708  91.181  0.00  0.00     0.096 N 
HETATM    3  C   UNK     0       1.531  14.107  92.013  0.00  0.00     0.299 C 
HETATM    4  C   UNK     0       3.873  14.653  91.883  0.00  0.00     0.299 C 
HETATM    5  C   UNK     0       1.469  14.819  93.362  0.00  0.00     0.198 C 
HETATM    6  C   UNK     0       3.756  15.351  93.235  0.00  0.00     0.198 C 
ENDROOT
BRANCH   2   7
HETATM    7  C   UNK     0       2.668  14.034  89.887  0.00  0.00     0.311 C 
BRANCH   7   8
HETATM    8  C   UNK     0       3.677  12.937  89.882  0.00  0.00    -0.030 A 
HETATM    9  C   UNK     0       4.949  13.162  89.353  0.00  0.00     0.010 A 
HETATM   10  C   UNK     0       5.893  12.136  89.346  0.00  0.00     0.021 A 
HETATM   11  C   UNK     0       5.566  10.886  89.871  0.00  0.00     0.018 A 
HETATM   12  C   UNK     0       4.297  10.660  90.401  0.00  0.00     0.021 A 
HETATM   13  C   UNK     0       3.352  11.686  90.407  0.00  0.00     0.010 A 
BRANCH  11  14
HETATM   14  C   UNK     0       6.536   9.833  89.866  0.00  0.00    -0.061 C 
HETATM   15  C   UNK     0       7.350   8.949  89.862  0.00  0.00    -0.061 C 
BRANCH  15  16
HETATM   16  C   UNK     0       8.317   7.897  89.857  0.00  0.00     0.018 A 
HETATM   17  C   UNK     0       8.614   7.218  91.040  0.00  0.00     0.022 A 
HETATM   18  C   UNK     0       9.556   6.190  91.035  0.00  0.00     0.018 A 
HETATM   19  C   UNK     0      10.181   5.863  89.850  0.00  0.00     0.032 A 
HETATM   20  C   UNK     0       9.906   6.519  88.668  0.00  0.00     0.018 A 
HETATM   21  C   UNK     0       8.964   7.548  88.672  0.00  0.00     0.022 A 
BRANCH  19  22
HETATM   22  C   UNK     0      11.186   4.769  89.846  0.00  0.00     0.252 C 
HETATM   23  O   UNK     0      11.386   4.141  88.809  0.00  0.00    -0.268 OA
HETATM   24  N   UNK     0      11.856   4.555  91.043  0.00  0.00    -0.341 N 
HETATM   25  H   UNK     0      11.656   5.130  91.853  0.00  0.00     0.163 HD
BRANCH  24  26
HETATM   26  C   UNK     0      12.876   3.548  91.192  0.00  0.00     0.207 C 
BRANCH  26  27
HETATM   27  C   UNK     0      14.099   4.051  91.968  0.00  0.00     0.146 C 
HETATM   28  C   UNK     0      15.002   2.915  92.436  0.00  0.00     0.042 C 
BRANCH  27  29
HETATM   29  O   UNK     0      14.857   4.936  91.144  0.00  0.00    -0.393 OA
HETATM   30  H   UNK     0      14.909   5.799  91.589  0.00  0.00     0.210 HD
ENDBRANCH  27  29
ENDBRANCH  26  27
BRANCH  26  31
HETATM   31  C   UNK     0      12.242   2.341  91.877  0.00  0.00     0.266 C 
HETATM   32  O   UNK     0      12.801   1.249  91.961  0.00  0.00    -0.269 OA
HETATM   33  N   UNK     0      10.979   2.613  92.342  0.00  0.00    -0.236 N 
HETATM   34  H   UNK     0      10.455   3.470  92.211  0.00  0.00     0.197 HD
BRANCH  33  35
HETATM   35  O   UNK     0      10.310   1.542  92.953  0.00  0.00    -0.287 OA
HETATM   36  H   UNK     0       9.524   2.000  93.295  0.00  0.00     0.244 HD
ENDBRANCH  33  35
ENDBRANCH  26  31
ENDBRANCH  24  26
ENDBRANCH  19  22
ENDBRANCH  15  16
ENDBRANCH  11  14
ENDBRANCH   7   8
ENDBRANCH   2   7
TORSDOF 10
ENDMDL
MODEL 4
REMARK VINA RESULT:      -5.4      2.048     12.527
REMARK  10 active torsions:
REMARK  status: ('A' for Active; 'I' for Inactive)
REMARK    1  A    between atoms: O_2  and  C_18 
REMARK    2  A    between atoms: O_5  and  N_8 
REMARK    3  A    between atoms: N_6  and  C_11 
REMARK    4  A    between atoms: N_7  and  C_15 
REMARK       I    between atoms: N_7  and  C_24 
REMARK       I    between atoms: N_8  and  C_23 
REMARK    5  A    between atoms: C_11  and  C_14 
REMARK    6  A    between atoms: C_15  and  C_18 
REMARK    7  A    between atoms: C_15  and  C_23 
REMARK    8  A    between atoms: C_21  and  C_26 
REMARK    9  A    between atoms: C_24  and  C_25 
REMARK   10  A    between atoms: C_29  and  C_32 
ROOT
HETATM    1  O   UNK     0       3.310  14.478  92.071  0.00  0.00    -0.388 OA
HETATM    2  N   UNK     0       4.017  14.022  89.352  0.00  0.00     0.096 N 
HETATM    3  C   UNK     0       3.046  13.166  90.047  0.00  0.00     0.299 C 
HETATM    4  C   UNK     0       4.980  14.575  90.314  0.00  0.00     0.299 C 
HETATM    5  C   UNK     0       2.350  13.962  91.148  0.00  0.00     0.198 C 
HETATM    6  C   UNK     0       4.239  15.337  91.409  0.00  0.00     0.198 C 
ENDROOT
BRANCH   2   7
HETATM    7  C   UNK     0       4.704  13.277  88.299  0.00  0.00     0.311 C 
BRANCH   7   8
HETATM    8  C   UNK     0       5.540  12.168  88.841  0.00  0.00    -0.030 A 
HETATM    9  C   UNK     0       6.929  12.295  88.876  0.00  0.00     0.010 A 
HETATM   10  C   UNK     0       7.712  11.257  89.381  0.00  0.00     0.021 A 
HETATM   11  C   UNK     0       7.105  10.093  89.853  0.00  0.00     0.018 A 
HETATM   12  C   UNK     0       5.718   9.965  89.819  0.00  0.00     0.021 A 
HETATM   13  C   UNK     0       4.935  11.003  89.313  0.00  0.00     0.010 A 
BRANCH  11  14
HETATM   14  C   UNK     0       7.908   9.030  90.373  0.00  0.00    -0.061 C 
HETATM   15  C   UNK     0       8.583   8.135  90.810  0.00  0.00    -0.061 C 
BRANCH  15  16
HETATM   16  C   UNK     0       9.385   7.074  91.331  0.00  0.00     0.018 A 
HETATM   17  C   UNK     0       9.930   6.124  90.466  0.00  0.00     0.022 A 
HETATM   18  C   UNK     0      10.715   5.089  90.973  0.00  0.00     0.018 A 
HETATM   19  C   UNK     0      10.938   5.026  92.333  0.00  0.00     0.032 A 
HETATM   20  C   UNK     0      10.411   5.951  93.209  0.00  0.00     0.018 A 
HETATM   21  C   UNK     0       9.625   6.986  92.702  0.00  0.00     0.022 A 
BRANCH  19  22
HETATM   22  C   UNK     0      11.773   3.922  92.873  0.00  0.00     0.252 C 
HETATM   23  O   UNK     0      11.250   2.835  93.109  0.00  0.00    -0.268 OA
HETATM   24  N   UNK     0      13.119   4.208  93.050  0.00  0.00    -0.341 N 
HETATM   25  H   UNK     0      13.485   5.122  92.810  0.00  0.00     0.163 HD
BRANCH  24  26
HETATM   26  C   UNK     0      14.061   3.235  93.542  0.00  0.00     0.207 C 
BRANCH  26  27
HETATM   27  C   UNK     0      14.154   1.993  92.646  0.00  0.00     0.146 C 
HETATM   28  C   UNK     0      15.085   2.199  91.457  0.00  0.00     0.042 C 
BRANCH  27  29
HETATM   29  O   UNK     0      14.621   0.884  93.414  0.00  0.00    -0.393 OA
HETATM   30  H   UNK     0      15.148   1.227  94.156  0.00  0.00     0.210 HD
ENDBRANCH  27  29
ENDBRANCH  26  27
BRANCH  26  31
HETATM   31  C   UNK     0      15.415   3.923  93.677  0.00  0.00     0.266 C 
HETATM   32  O   UNK     0      15.579   5.124  93.469  0.00  0.00    -0.269 OA
HETATM   33  N   UNK     0      16.414   3.043  94.016  0.00  0.00    -0.236 N 
HETATM   34  H   UNK     0      16.331   2.037  94.107  0.00  0.00     0.197 HD
BRANCH  33  35
HETATM   35  O   UNK     0      17.700   3.591  94.123  0.00  0.00    -0.287 OA
HETATM   36  H   UNK     0      17.644   3.995  95.005  0.00  0.00     0.244 HD
ENDBRANCH  33  35
ENDBRANCH  26  31
ENDBRANCH  24  26
ENDBRANCH  19  22
ENDBRANCH  15  16
ENDBRANCH  11  14
ENDBRANCH   7   8
ENDBRANCH   2   7
TORSDOF 10
ENDMDL
MODEL 5
REMARK VINA RESULT:      -5.4      1.744      2.172
REMARK  10 active torsions:
REMARK  status: ('A' for Active; 'I' for Inactive)
REMARK    1  A    between atoms: O_2  and  C_18 
REMARK    2  A    between atoms: O_5  and  N_8 
REMARK    3  A    between atoms: N_6  and  C_11 
REMARK    4  A    between atoms: N_7  and  C_15 
REMARK       I    between atoms: N_7  and  C_24 
REMARK       I    between atoms: N_8  and  C_23 
REMARK    5  A    between atoms: C_11  and  C_14 
REMARK    6  A    between atoms: C_15  and  C_18 
REMARK    7  A    between atoms: C_15  and  C_23 
REMARK    8  A    between atoms: C_21  and  C_26 
REMARK    9  A    between atoms: C_24  and  C_25 
REMARK   10  A    between atoms: C_29  and  C_32 
ROOT
HETATM    1  O   UNK     0      17.252   2.568  93.074  0.00  0.00    -0.388 OA
HETATM    2  N   UNK     0      14.432   2.863  92.822  0.00  0.00     0.096 N 
HETATM    3  C   UNK     0      15.064   2.610  94.124  0.00  0.00     0.299 C 
HETATM    4  C   UNK     0      15.242   2.276  91.746  0.00  0.00     0.299 C 
HETATM    5  C   UNK     0      16.487   3.163  94.124  0.00  0.00     0.198 C 
HETATM    6  C   UNK     0      16.660   2.836  91.802  0.00  0.00     0.198 C 
ENDROOT
BRANCH   2   7
HETATM    7  C   UNK     0      13.070   2.331  92.796  0.00  0.00     0.311 C 
BRANCH   7   8
HETATM    8  C   UNK     0      12.040   3.409  92.805  0.00  0.00    -0.030 A 
HETATM    9  C   UNK     0      11.173   3.553  91.721  0.00  0.00     0.010 A 
HETATM   10  C   UNK     0      10.210   4.562  91.727  0.00  0.00     0.021 A 
HETATM   11  C   UNK     0      10.113   5.424  92.819  0.00  0.00     0.018 A 
HETATM   12  C   UNK     0      10.977   5.281  93.902  0.00  0.00     0.021 A 
HETATM   13  C   UNK     0      11.941   4.273  93.896  0.00  0.00     0.010 A 
BRANCH  11  14
HETATM   14  C   UNK     0       9.123   6.457  92.826  0.00  0.00    -0.061 C 
HETATM   15  C   UNK     0       8.292   7.326  92.832  0.00  0.00    -0.061 C 
BRANCH  15  16
HETATM   16  C   UNK     0       7.305   8.359  92.839  0.00  0.00     0.018 A 
HETATM   17  C   UNK     0       7.671   9.671  93.140  0.00  0.00     0.022 A 
HETATM   18  C   UNK     0       6.708  10.680  93.145  0.00  0.00     0.018 A 
HETATM   19  C   UNK     0       5.401  10.355  92.848  0.00  0.00     0.032 A 
HETATM   20  C   UNK     0       5.013   9.067  92.548  0.00  0.00     0.018 A 
HETATM   21  C   UNK     0       5.975   8.057  92.544  0.00  0.00     0.022 A 
BRANCH  19  22
HETATM   22  C   UNK     0       4.375  11.430  92.855  0.00  0.00     0.252 C 
HETATM   23  O   UNK     0       3.526  11.443  93.743  0.00  0.00    -0.268 OA
HETATM   24  N   UNK     0       4.477  12.374  91.843  0.00  0.00    -0.341 N 
HETATM   25  H   UNK     0       5.220  12.313  91.158  0.00  0.00     0.163 HD
BRANCH  24  26
HETATM   26  C   UNK     0       3.572  13.490  91.729  0.00  0.00     0.207 C 
BRANCH  26  27
HETATM   27  C   UNK     0       4.149  14.784  92.316  0.00  0.00     0.146 C 
HETATM   28  C   UNK     0       4.956  15.579  91.296  0.00  0.00     0.042 C 
BRANCH  27  29
HETATM   29  O   UNK     0       3.086  15.602  92.805  0.00  0.00    -0.393 OA
HETATM   30  H   UNK     0       2.324  15.499  92.210  0.00  0.00     0.210 HD
ENDBRANCH  27  29
ENDBRANCH  26  27
BRANCH  26  31
HETATM   31  C   UNK     0       3.222  13.658  90.254  0.00  0.00     0.266 C 
HETATM   32  O   UNK     0       2.264  14.323  89.865  0.00  0.00    -0.269 OA
HETATM   33  N   UNK     0       4.072  12.954  89.436  0.00  0.00    -0.236 N 
HETATM   34  H   UNK     0       4.814  12.327  89.726  0.00  0.00     0.197 HD
BRANCH  33  35
HETATM   35  O   UNK     0       3.795  13.025  88.063  0.00  0.00    -0.287 OA
HETATM   36  H   UNK     0       4.541  12.512  87.708  0.00  0.00     0.244 HD
ENDBRANCH  33  35
ENDBRANCH  26  31
ENDBRANCH  24  26
ENDBRANCH  19  22
ENDBRANCH  15  16
ENDBRANCH  11  14
ENDBRANCH   7   8
ENDBRANCH   2   7
TORSDOF 10
ENDMDL
MODEL 6
REMARK VINA RESULT:      -4.7      1.622      2.335
REMARK  10 active torsions:
REMARK  status: ('A' for Active; 'I' for Inactive)
REMARK    1  A    between atoms: O_2  and  C_18 
REMARK    2  A    between atoms: O_5  and  N_8 
REMARK    3  A    between atoms: N_6  and  C_11 
REMARK    4  A    between atoms: N_7  and  C_15 
REMARK       I    between atoms: N_7  and  C_24 
REMARK       I    between atoms: N_8  and  C_23 
REMARK    5  A    between atoms: C_11  and  C_14 
REMARK    6  A    between atoms: C_15  and  C_18 
REMARK    7  A    between atoms: C_15  and  C_23 
REMARK    8  A    between atoms: C_21  and  C_26 
REMARK    9  A    between atoms: C_24  and  C_25 
REMARK   10  A    between atoms: C_29  and  C_32 
ROOT
HETATM    1  O   UNK     0      16.979   2.499  92.537  0.00  0.00    -0.388 OA
HETATM    2  N   UNK     0      14.221   2.965  93.061  0.00  0.00     0.096 N 
HETATM    3  C   UNK     0      15.088   2.305  94.046  0.00  0.00     0.299 C 
HETATM    4  C   UNK     0      14.711   2.701  91.702  0.00  0.00     0.299 C 
HETATM    5  C   UNK     0      16.529   2.776  93.865  0.00  0.00     0.198 C 
HETATM    6  C   UNK     0      16.160   3.163  91.575  0.00  0.00     0.198 C 
ENDROOT
BRANCH   2   7
HETATM    7  C   UNK     0      12.836   2.520  93.210  0.00  0.00     0.311 C 
BRANCH   7   8
HETATM    8  C   UNK     0      11.856   3.598  92.895  0.00  0.00    -0.030 A 
HETATM    9  C   UNK     0      11.309   3.690  91.614  0.00  0.00     0.010 A 
HETATM   10  C   UNK     0      10.394   4.699  91.317  0.00  0.00     0.021 A 
HETATM   11  C   UNK     0      10.024   5.615  92.302  0.00  0.00     0.018 A 
HETATM   12  C   UNK     0      10.569   5.524  93.581  0.00  0.00     0.021 A 
HETATM   13  C   UNK     0      11.485   4.515  93.878  0.00  0.00     0.010 A 
BRANCH  11  14
HETATM   14  C   UNK     0       9.083   6.649  91.998  0.00  0.00    -0.061 C 
HETATM   15  C   UNK     0       8.293   7.518  91.742  0.00  0.00    -0.061 C 
BRANCH  15  16
HETATM   16  C   UNK     0       7.354   8.552  91.439  0.00  0.00     0.018 A 
HETATM   17  C   UNK     0       6.496   9.027  92.432  0.00  0.00     0.022 A 
HETATM   18  C   UNK     0       5.581  10.037  92.137  0.00  0.00     0.018 A 
HETATM   19  C   UNK     0       5.544  10.551  90.858  0.00  0.00     0.032 A 
HETATM   20  C   UNK     0       6.380  10.098  89.859  0.00  0.00     0.018 A 
HETATM   21  C   UNK     0       7.295   9.087  90.153  0.00  0.00     0.022 A 
BRANCH  19  22
HETATM   22  C   UNK     0       4.567  11.626  90.544  0.00  0.00     0.252 C 
HETATM   23  O   UNK     0       4.348  11.913  89.369  0.00  0.00    -0.268 OA
HETATM   24  N   UNK     0       3.946  12.220  91.633  0.00  0.00    -0.341 N 
HETATM   25  H   UNK     0       4.159  11.913  92.575  0.00  0.00     0.163 HD
BRANCH  24  26
HETATM   26  C   UNK     0       2.959  13.260  91.491  0.00  0.00     0.207 C 
BRANCH  26  27
HETATM   27  C   UNK     0       1.658  12.949  92.242  0.00  0.00     0.146 C 
HETATM   28  C   UNK     0       1.832  11.847  93.281  0.00  0.00     0.042 C 
BRANCH  27  29
HETATM   29  O   UNK     0       1.189  14.130  92.893  0.00  0.00    -0.393 OA
HETATM   30  H   UNK     0       1.738  14.281  93.681  0.00  0.00     0.210 HD
ENDBRANCH  27  29
ENDBRANCH  26  27
BRANCH  26  31
HETATM   31  C   UNK     0       3.582  14.564  91.977  0.00  0.00     0.266 C 
HETATM   32  O   UNK     0       3.701  15.557  91.262  0.00  0.00    -0.269 OA
HETATM   33  N   UNK     0       4.019  14.477  93.277  0.00  0.00    -0.236 N 
HETATM   34  H   UNK     0       4.018  13.651  93.864  0.00  0.00     0.197 HD
BRANCH  33  35
HETATM   35  O   UNK     0       4.641  15.625  93.789  0.00  0.00    -0.287 OA
HETATM   36  H   UNK     0       5.441  15.232  94.177  0.00  0.00     0.244 HD
ENDBRANCH  33  35
ENDBRANCH  26  31
ENDBRANCH  24  26
ENDBRANCH  19  22
ENDBRANCH  15  16
ENDBRANCH  11  14
ENDBRANCH   7   8
ENDBRANCH   2   7
TORSDOF 10
ENDMDL
MODEL 7
REMARK VINA RESULT:      -4.4      2.362     12.550
REMARK  10 active torsions:
REMARK  status: ('A' for Active; 'I' for Inactive)
REMARK    1  A    between atoms: O_2  and  C_18 
REMARK    2  A    between atoms: O_5  and  N_8 
REMARK    3  A    between atoms: N_6  and  C_11 
REMARK    4  A    between atoms: N_7  and  C_15 
REMARK       I    between atoms: N_7  and  C_24 
REMARK       I    between atoms: N_8  and  C_23 
REMARK    5  A    between atoms: C_11  and  C_14 
REMARK    6  A    between atoms: C_15  and  C_18 
REMARK    7  A    between atoms: C_15  and  C_23 
REMARK    8  A    between atoms: C_21  and  C_26 
REMARK    9  A    between atoms: C_24  and  C_25 
REMARK   10  A    between atoms: C_29  and  C_32 
ROOT
HETATM    1  O   UNK     0       4.271  14.745  90.304  0.00  0.00    -0.388 OA
HETATM    2  N   UNK     0       3.140  13.706  92.701  0.00  0.00     0.096 N 
HETATM    3  C   UNK     0       4.236  14.685  92.730  0.00  0.00     0.299 C 
HETATM    4  C   UNK     0       3.218  12.899  91.476  0.00  0.00     0.299 C 
HETATM    5  C   UNK     0       4.185  15.556  91.477  0.00  0.00     0.198 C 
HETATM    6  C   UNK     0       3.192  13.811  90.252  0.00  0.00     0.198 C 
ENDROOT
BRANCH   2   7
HETATM    7  C   UNK     0       3.176  12.853  93.887  0.00  0.00     0.311 C 
BRANCH   7   8
HETATM    8  C   UNK     0       4.190  11.766  93.775  0.00  0.00    -0.030 A 
HETATM    9  C   UNK     0       5.535  12.040  94.022  0.00  0.00     0.010 A 
HETATM   10  C   UNK     0       6.485  11.024  93.915  0.00  0.00     0.021 A 
HETATM   11  C   UNK     0       6.088   9.735  93.563  0.00  0.00     0.018 A 
HETATM   12  C   UNK     0       4.745   9.460  93.317  0.00  0.00     0.021 A 
HETATM   13  C   UNK     0       3.795  10.475  93.423  0.00  0.00     0.010 A 
BRANCH  11  14
HETATM   14  C   UNK     0       7.063   8.692  93.456  0.00  0.00    -0.061 C 
HETATM   15  C   UNK     0       7.881   7.816  93.365  0.00  0.00    -0.061 C 
BRANCH  15  16
HETATM   16  C   UNK     0       8.853   6.774  93.258  0.00  0.00     0.018 A 
HETATM   17  C   UNK     0      10.035   6.845  93.997  0.00  0.00     0.022 A 
HETATM   18  C   UNK     0      10.983   5.827  93.894  0.00  0.00     0.018 A 
HETATM   19  C   UNK     0      10.729   4.762  93.056  0.00  0.00     0.032 A 
HETATM   20  C   UNK     0       9.570   4.668  92.314  0.00  0.00     0.018 A 
HETATM   21  C   UNK     0       8.621   5.687  92.416  0.00  0.00     0.022 A 
BRANCH  19  22
HETATM   22  C   UNK     0      11.740   3.679  92.945  0.00  0.00     0.252 C 
HETATM   23  O   UNK     0      11.560   2.771  92.137  0.00  0.00    -0.268 OA
HETATM   24  N   UNK     0      12.850   3.796  93.770  0.00  0.00    -0.341 N 
HETATM   25  H   UNK     0      12.942   4.588  94.395  0.00  0.00     0.163 HD
BRANCH  24  26
HETATM   26  C   UNK     0      13.927   2.840  93.762  0.00  0.00     0.207 C 
BRANCH  26  27
HETATM   27  C   UNK     0      13.916   1.944  92.517  0.00  0.00     0.146 C 
HETATM   28  C   UNK     0      14.870   2.437  91.434  0.00  0.00     0.042 C 
BRANCH  27  29
HETATM   29  O   UNK     0      14.279   0.613  92.883  0.00  0.00    -0.393 OA
HETATM   30  H   UNK     0      14.748   0.208  92.134  0.00  0.00     0.210 HD
ENDBRANCH  27  29
ENDBRANCH  26  27
BRANCH  26  31
HETATM   31  C   UNK     0      15.237   3.613  93.877  0.00  0.00     0.266 C 
HETATM   32  O   UNK     0      15.300   4.838  93.800  0.00  0.00    -0.269 OA
HETATM   33  N   UNK     0      16.319   2.780  94.034  0.00  0.00    -0.236 N 
HETATM   34  H   UNK     0      16.313   1.767  94.011  0.00  0.00     0.197 HD
BRANCH  33  35
HETATM   35  O   UNK     0      17.568   3.412  94.109  0.00  0.00    -0.287 OA
HETATM   36  H   UNK     0      17.748   3.557  93.165  0.00  0.00     0.244 HD
ENDBRANCH  33  35
ENDBRANCH  26  31
ENDBRANCH  24  26
ENDBRANCH  19  22
ENDBRANCH  15  16
ENDBRANCH  11  14
ENDBRANCH   7   8
ENDBRANCH   2   7
TORSDOF 10
ENDMDL
