MODEL 1
REMARK VINA RESULT:      -6.4      0.000      0.000
REMARK  12 active torsions:
REMARK  status: ('A' for Active; 'I' for Inactive)
REMARK    1  A    between atoms: O_2  and  C_16 
REMARK    2  A    between atoms: N_5  and  C_9 
REMARK    3  A    between atoms: N_6  and  C_13 
REMARK       I    between atoms: N_6  and  C_22 
REMARK    4  A    between atoms: C_9  and  C_12 
REMARK    5  A    between atoms: C_13  and  C_16 
REMARK    6  A    between atoms: C_13  and  C_21 
REMARK    7  A    between atoms: C_19  and  C_24 
REMARK    8  A    between atoms: C_21  and  C_33 
REMARK    9  A    between atoms: C_22  and  C_23 
REMARK   10  A    between atoms: C_27  and  C_30 
REMARK   11  A    between atoms: C_33  and  C_34 
REMARK   12  A    between atoms: C_34  and  C_35 
ROOT
HETATM    1  O   UNL     1      16.468   4.476  93.916  1.00  0.00    -0.350 OA
HETATM    2  N   UNL     1      14.664   2.708  92.603  1.00  0.00     0.147 N 
HETATM    3  C   UNL     1      14.610   4.161  92.387  1.00  0.00     0.283 C 
HETATM    4  C   UNL     1      15.184   2.418  93.946  1.00  0.00     0.283 C 
HETATM    5  C   UNL     1      15.995   4.767  92.600  1.00  0.00     0.178 C 
HETATM    6  C   UNL     1      16.553   3.065  94.123  1.00  0.00     0.178 C 
ENDROOT
BRANCH   2   7
HETATM    7  C   UNL     1      13.345   2.107  92.414  1.00  0.00     0.277 C 
BRANCH   7   8
HETATM    8  C   UNL     1      12.252   3.121  92.429  1.00  0.00     0.011 A 
HETATM    9  C   UNL     1      11.959   3.812  93.605  1.00  0.00    -0.002 A 
HETATM   10  C   UNL     1      10.935   4.759  93.621  1.00  0.00     0.008 A 
HETATM   11  C   UNL     1      10.206   5.016  92.460  1.00  0.00     0.042 A 
HETATM   12  C   UNL     1      10.498   4.326  91.285  1.00  0.00     0.008 A 
HETATM   13  C   UNL     1      11.521   3.379  91.269  1.00  0.00    -0.002 A 
BRANCH  11  14
HETATM   14  C   UNL     1       9.157   5.989  92.476  1.00  0.00    -0.059 C 
HETATM   15  C   UNL     1       8.276   6.806  92.490  1.00  0.00    -0.059 C 
BRANCH  15  16
HETATM   16  C   UNL     1       7.228   7.779  92.506  1.00  0.00     0.042 A 
HETATM   17  C   UNL     1       7.540   9.138  92.559  1.00  0.00     0.008 A 
HETATM   18  C   UNL     1       6.518  10.086  92.572  1.00  0.00     0.005 A 
HETATM   19  C   UNL     1       5.208   9.656  92.532  1.00  0.00     0.056 A 
HETATM   20  C   UNL     1       4.874   8.319  92.480  1.00  0.00     0.005 A 
HETATM   21  C   UNL     1       5.895   7.369  92.467  1.00  0.00     0.008 A 
BRANCH  19  22
HETATM   22  C   UNL     1       4.119  10.667  92.548  1.00  0.00     0.254 C 
HETATM   23  O   UNL     1       3.061  10.400  93.111  1.00  0.00    -0.268 OA
HETATM   24  N   UNL     1       4.403  11.876  91.928  1.00  0.00    -0.335 N 
HETATM   25  HN  UNL     1       5.310  12.035  91.505  1.00  0.00     0.164 HD
BRANCH  24  26
HETATM   26  C   UNL     1       3.460  12.964  91.882  1.00  0.00     0.166 C 
BRANCH  26  27
HETATM   27  C   UNL     1       3.950  14.208  92.635  1.00  0.00     0.138 C 
HETATM   28  C   UNL     1       2.802  15.088  93.117  1.00  0.00     0.034 C 
BRANCH  27  29
HETATM   29  O   UNL     1       4.730  13.807  93.761  1.00  0.00    -0.383 OA
HETATM   30  H   UNL     1       5.669  13.867  93.517  1.00  0.00     0.210 HD
ENDBRANCH  27  29
ENDBRANCH  26  27
BRANCH  26  31
HETATM   31  C   UNL     1       3.182  13.278  90.415  1.00  0.00     0.181 C 
HETATM   32  O   UNL     1       2.321  14.077  90.052  1.00  0.00    -0.294 OA
BRANCH  31  33
HETATM   33  C   UNL     1       4.536  13.680  89.619  1.00  0.00     0.138 C 
BRANCH  33  34
HETATM   34  C   UNL     1       4.401  12.910  88.443  1.00  0.00     0.208 C 
HETATM   35  O   UNL     1       4.963  13.335  87.460  1.00  0.00    -0.289 OA
BRANCH  34  36
HETATM   36  C   UNL     1       3.986  11.617  88.272  1.00  0.00     0.194 C 
HETATM   37  O   UNL     1       2.705  11.100  88.048  1.00  0.00    -0.185 OA
ENDBRANCH  34  36
ENDBRANCH  33  34
ENDBRANCH  31  33
ENDBRANCH  26  31
ENDBRANCH  24  26
ENDBRANCH  19  22
ENDBRANCH  15  16
ENDBRANCH  11  14
ENDBRANCH   7   8
ENDBRANCH   2   7
TORSDOF 12
ENDMDL
