MODEL 1
REMARK VINA RESULT:      -6.5      0.000      0.000
REMARK  14 active torsions:
REMARK  status: ('A' for Active; 'I' for Inactive)
REMARK    1  A    between atoms: O_2  and  C_18 
REMARK    2  A    between atoms: C_5  and  C_8 
REMARK    3  A    between atoms: C_5  and  O_35 
REMARK    4  A    between atoms: C_5  and  C_36 
REMARK    5  A    between atoms: N_6  and  C_11 
REMARK    6  A    between atoms: N_7  and  C_15 
REMARK       I    between atoms: N_7  and  C_24 
REMARK    7  A    between atoms: C_8  and  C_23 
REMARK    8  A    between atoms: C_11  and  C_14 
REMARK    9  A    between atoms: C_15  and  C_18 
REMARK   10  A    between atoms: C_15  and  C_23 
REMARK   11  A    between atoms: C_21  and  C_26 
REMARK   12  A    between atoms: C_24  and  C_25 
REMARK   13  A    between atoms: C_29  and  C_32 
REMARK   14  A    between atoms: C_36  and  O_39 
ROOT
HETATM    1  O   UNL     1      15.749   4.565  93.764  1.00  0.00    -0.350 OA
HETATM    2  N   UNL     1      14.202   2.679  92.297  1.00  0.00     0.147 N 
HETATM    3  C   UNL     1      14.219   4.104  91.937  1.00  0.00     0.283 C 
HETATM    4  C   UNL     1      14.443   2.521  93.738  1.00  0.00     0.283 C 
HETATM    5  C   UNL     1      15.548   4.727  92.359  1.00  0.00     0.178 C 
HETATM    6  C   UNL     1      15.764   3.181  94.117  1.00  0.00     0.178 C 
ENDROOT
BRANCH   2   7
HETATM    7  C   UNL     1      12.933   2.064  91.912  1.00  0.00     0.277 C 
BRANCH   7   8
HETATM    8  C   UNL     1      11.820   3.054  91.839  1.00  0.00     0.011 A 
HETATM    9  C   UNL     1      11.418   3.734  92.989  1.00  0.00    -0.002 A 
HETATM   10  C   UNL     1      10.375   4.659  92.923  1.00  0.00     0.008 A 
HETATM   11  C   UNL     1       9.738   4.904  91.707  1.00  0.00     0.042 A 
HETATM   12  C   UNL     1      10.140   4.225  90.558  1.00  0.00     0.008 A 
HETATM   13  C   UNL     1      11.181   3.300  90.624  1.00  0.00    -0.002 A 
BRANCH  11  14
HETATM   14  C   UNL     1       8.670   5.854  91.639  1.00  0.00    -0.059 C 
HETATM   15  C   UNL     1       7.773   6.652  91.582  1.00  0.00    -0.059 C 
BRANCH  15  16
HETATM   16  C   UNL     1       6.705   7.601  91.514  1.00  0.00     0.042 A 
HETATM   17  C   UNL     1       6.947   8.943  91.807  1.00  0.00     0.008 A 
HETATM   18  C   UNL     1       5.906   9.869  91.739  1.00  0.00     0.005 A 
HETATM   19  C   UNL     1       4.649   9.433  91.378  1.00  0.00     0.056 A 
HETATM   20  C   UNL     1       4.384   8.111  91.084  1.00  0.00     0.005 A 
HETATM   21  C   UNL     1       5.424   7.185  91.153  1.00  0.00     0.008 A 
BRANCH  19  22
HETATM   22  C   UNL     1       3.540  10.419  91.307  1.00  0.00     0.254 C 
HETATM   23  O   UNL     1       2.406  10.029  91.037  1.00  0.00    -0.268 OA
HETATM   24  N   UNL     1       3.879  11.736  91.584  1.00  0.00    -0.335 N 
HETATM   25  HN  UNL     1       4.832  11.980  91.825  1.00  0.00     0.164 HD
BRANCH  24  26
HETATM   26  C   UNL     1       2.911  12.804  91.580  1.00  0.00     0.169 C 
BRANCH  26  27
HETATM   27  C   UNL     1       2.931  13.629  92.872  1.00  0.00     0.138 C 
HETATM   28  C   UNL     1       4.291  13.600  93.562  1.00  0.00     0.034 C 
BRANCH  27  29
HETATM   29  O   UNL     1       2.588  14.983  92.580  1.00  0.00    -0.383 OA
HETATM   30  H   UNL     1       3.282  15.357  92.011  1.00  0.00     0.210 HD
ENDBRANCH  27  29
ENDBRANCH  26  27
BRANCH  26  31
HETATM   31  C   UNL     1       3.187  13.677  90.360  1.00  0.00     0.194 C 
HETATM   32  O   UNL     1       2.335  14.404  89.851  1.00  0.00    -0.289 OA
BRANCH  31  33
HETATM   33  C   UNL     1       4.468  13.522  89.889  1.00  0.00     0.053 C 
BRANCH  33  34
HETATM   34  C   UNL     1       4.588  13.288  88.512  1.00  0.00     0.220 C 
BRANCH  34  35
HETATM   35  O   UNL     1       5.771  13.509  88.190  1.00  0.00    -0.371 OA
HETATM   36  H   UNL     1       5.608  14.156  87.521  1.00  0.00     0.211 HD
ENDBRANCH  34  35
BRANCH  34  37
HETATM   37  C   UNL     1       4.158  12.008  88.122  1.00  0.00     0.185 C 
HETATM   38  O   UNL     1       5.361  11.651  88.546  1.00  0.00    -0.647 OA
BRANCH  37  39
HETATM   39  O   UNL     1       3.190  11.529  87.612  1.00  0.00    -0.774 OA
HETATM   40  H   UNL     1       2.498  11.066  88.383  1.00  0.00     0.167 HD
ENDBRANCH  37  39
ENDBRANCH  34  37
ENDBRANCH  33  34
ENDBRANCH  31  33
ENDBRANCH  26  31
ENDBRANCH  24  26
ENDBRANCH  19  22
ENDBRANCH  15  16
ENDBRANCH  11  14
ENDBRANCH   7   8
ENDBRANCH   2   7
TORSDOF 14
ENDMDL
MODEL 2
REMARK VINA RESULT:      -5.0      1.680      3.129
REMARK  14 active torsions:
REMARK  status: ('A' for Active; 'I' for Inactive)
REMARK    1  A    between atoms: O_2  and  C_18 
REMARK    2  A    between atoms: C_5  and  C_8 
REMARK    3  A    between atoms: C_5  and  O_35 
REMARK    4  A    between atoms: C_5  and  C_36 
REMARK    5  A    between atoms: N_6  and  C_11 
REMARK    6  A    between atoms: N_7  and  C_15 
REMARK       I    between atoms: N_7  and  C_24 
REMARK    7  A    between atoms: C_8  and  C_23 
REMARK    8  A    between atoms: C_11  and  C_14 
REMARK    9  A    between atoms: C_15  and  C_18 
REMARK   10  A    between atoms: C_15  and  C_23 
REMARK   11  A    between atoms: C_21  and  C_26 
REMARK   12  A    between atoms: C_24  and  C_25 
REMARK   13  A    between atoms: C_29  and  C_32 
REMARK   14  A    between atoms: C_36  and  O_39 
ROOT
HETATM    1  O   UNL     1      16.853   3.314  93.866  1.00  0.00    -0.350 OA
HETATM    2  N   UNL     1      14.169   3.210  92.925  1.00  0.00     0.147 N 
HETATM    3  C   UNL     1      14.533   3.980  94.122  1.00  0.00     0.283 C 
HETATM    4  C   UNL     1      15.086   2.074  92.759  1.00  0.00     0.283 C 
HETATM    5  C   UNL     1      15.986   4.439  94.019  1.00  0.00     0.178 C 
HETATM    6  C   UNL     1      16.525   2.577  92.688  1.00  0.00     0.178 C 
ENDROOT
BRANCH   2   7
HETATM    7  C   UNL     1      12.783   2.751  93.007  1.00  0.00     0.277 C 
BRANCH   7   8
HETATM    8  C   UNL     1      11.805   3.848  92.755  1.00  0.00     0.011 A 
HETATM    9  C   UNL     1      11.367   4.105  91.456  1.00  0.00    -0.002 A 
HETATM   10  C   UNL     1      10.454   5.132  91.218  1.00  0.00     0.008 A 
HETATM   11  C   UNL     1       9.978   5.900  92.281  1.00  0.00     0.042 A 
HETATM   12  C   UNL     1      10.415   5.644  93.579  1.00  0.00     0.008 A 
HETATM   13  C   UNL     1      11.329   4.617  93.817  1.00  0.00    -0.002 A 
BRANCH  11  14
HETATM   14  C   UNL     1       9.040   6.953  92.037  1.00  0.00    -0.059 C 
HETATM   15  C   UNL     1       8.251   7.837  91.834  1.00  0.00    -0.059 C 
BRANCH  15  16
HETATM   16  C   UNL     1       7.314   8.889  91.591  1.00  0.00     0.042 A 
HETATM   17  C   UNL     1       6.705   9.004  90.342  1.00  0.00     0.008 A 
HETATM   18  C   UNL     1       5.788  10.029  90.106  1.00  0.00     0.005 A 
HETATM   19  C   UNL     1       5.501  10.914  91.124  1.00  0.00     0.056 A 
HETATM   20  C   UNL     1       6.091  10.822  92.368  1.00  0.00     0.005 A 
HETATM   21  C   UNL     1       7.008   9.797  92.604  1.00  0.00     0.008 A 
BRANCH  19  22
HETATM   22  C   UNL     1       4.527  12.007  90.872  1.00  0.00     0.254 C 
HETATM   23  O   UNL     1       3.700  11.878  89.972  1.00  0.00    -0.268 OA
HETATM   24  N   UNL     1       4.615  13.107  91.714  1.00  0.00    -0.335 N 
HETATM   25  HN  UNL     1       5.308  13.133  92.453  1.00  0.00     0.164 HD
BRANCH  24  26
HETATM   26  C   UNL     1       3.725  14.235  91.612  1.00  0.00     0.169 C 
BRANCH  26  27
HETATM   27  C   UNL     1       3.692  14.839  90.202  1.00  0.00     0.138 C 
HETATM   28  C   UNL     1       5.087  15.045  89.622  1.00  0.00     0.034 C 
BRANCH  27  29
HETATM   29  O   UNL     1       2.950  13.983  89.334  1.00  0.00    -0.383 OA
HETATM   30  H   UNL     1       2.786  13.145  89.799  1.00  0.00     0.210 HD
ENDBRANCH  27  29
ENDBRANCH  26  27
BRANCH  26  31
HETATM   31  C   UNL     1       2.339  13.777  92.052  1.00  0.00     0.194 C 
HETATM   32  O   UNL     1       1.303  14.177  91.525  1.00  0.00    -0.289 OA
BRANCH  31  33
HETATM   33  C   UNL     1       2.393  12.908  93.115  1.00  0.00     0.053 C 
BRANCH  33  34
HETATM   34  C   UNL     1       1.607  11.753  92.999  1.00  0.00     0.220 C 
BRANCH  34  35
HETATM   35  O   UNL     1       1.600  11.416  91.800  1.00  0.00    -0.371 OA
HETATM   36  H   UNL     1       0.692  11.162  91.738  1.00  0.00     0.211 HD
ENDBRANCH  34  35
BRANCH  34  37
HETATM   37  C   UNL     1       2.018  10.708  93.844  1.00  0.00     0.185 C 
HETATM   38  O   UNL     1       3.024  11.529  94.104  1.00  0.00    -0.647 OA
BRANCH  37  39
HETATM   39  O   UNL     1       1.641   9.610  94.124  1.00  0.00    -0.774 OA
HETATM   40  H   UNL     1       1.110   9.115  93.252  1.00  0.00     0.167 HD
ENDBRANCH  37  39
ENDBRANCH  34  37
ENDBRANCH  33  34
ENDBRANCH  31  33
ENDBRANCH  26  31
ENDBRANCH  24  26
ENDBRANCH  19  22
ENDBRANCH  15  16
ENDBRANCH  11  14
ENDBRANCH   7   8
ENDBRANCH   2   7
TORSDOF 14
ENDMDL
MODEL 3
REMARK VINA RESULT:      -4.9      2.736     12.685
REMARK  14 active torsions:
REMARK  status: ('A' for Active; 'I' for Inactive)
REMARK    1  A    between atoms: O_2  and  C_18 
REMARK    2  A    between atoms: C_5  and  C_8 
REMARK    3  A    between atoms: C_5  and  O_35 
REMARK    4  A    between atoms: C_5  and  C_36 
REMARK    5  A    between atoms: N_6  and  C_11 
REMARK    6  A    between atoms: N_7  and  C_15 
REMARK       I    between atoms: N_7  and  C_24 
REMARK    7  A    between atoms: C_8  and  C_23 
REMARK    8  A    between atoms: C_11  and  C_14 
REMARK    9  A    between atoms: C_15  and  C_18 
REMARK   10  A    between atoms: C_15  and  C_23 
REMARK   11  A    between atoms: C_21  and  C_26 
REMARK   12  A    between atoms: C_24  and  C_25 
REMARK   13  A    between atoms: C_29  and  C_32 
REMARK   14  A    between atoms: C_36  and  O_39 
ROOT
HETATM    1  O   UNL     1       2.677  14.588  93.968  1.00  0.00    -0.350 OA
HETATM    2  N   UNL     1       2.281  14.422  91.154  1.00  0.00     0.147 N 
HETATM    3  C   UNL     1       1.472  13.631  92.092  1.00  0.00     0.283 C 
HETATM    4  C   UNL     1       3.608  14.682  91.730  1.00  0.00     0.283 C 
HETATM    5  C   UNL     1       1.373  14.358  93.431  1.00  0.00     0.178 C 
HETATM    6  C   UNL     1       3.460  15.383  93.077  1.00  0.00     0.178 C 
ENDROOT
BRANCH   2   7
HETATM    7  C   UNL     1       2.397  13.739  89.867  1.00  0.00     0.277 C 
BRANCH   7   8
HETATM    8  C   UNL     1       3.369  12.609  89.910  1.00  0.00     0.011 A 
HETATM    9  C   UNL     1       4.734  12.859  89.770  1.00  0.00    -0.002 A 
HETATM   10  C   UNL     1       5.644  11.802  89.807  1.00  0.00     0.008 A 
HETATM   11  C   UNL     1       5.187  10.496  89.987  1.00  0.00     0.042 A 
HETATM   12  C   UNL     1       3.824  10.246  90.127  1.00  0.00     0.008 A 
HETATM   13  C   UNL     1       2.914  11.302  90.089  1.00  0.00    -0.002 A 
BRANCH  11  14
HETATM   14  C   UNL     1       6.120   9.413  90.027  1.00  0.00    -0.059 C 
HETATM   15  C   UNL     1       6.904   8.502  90.061  1.00  0.00    -0.059 C 
BRANCH  15  16
HETATM   16  C   UNL     1       7.838   7.419  90.101  1.00  0.00     0.042 A 
HETATM   17  C   UNL     1       8.645   7.155  88.994  1.00  0.00     0.008 A 
HETATM   18  C   UNL     1       9.557   6.100  89.035  1.00  0.00     0.005 A 
HETATM   19  C   UNL     1       9.642   5.336  90.179  1.00  0.00     0.056 A 
HETATM   20  C   UNL     1       8.855   5.577  91.286  1.00  0.00     0.005 A 
HETATM   21  C   UNL     1       7.942   6.631  91.247  1.00  0.00     0.008 A 
BRANCH  19  22
HETATM   22  C   UNL     1      10.613   4.211  90.221  1.00  0.00     0.254 C 
HETATM   23  O   UNL     1      10.379   3.192  89.576  1.00  0.00    -0.268 OA
HETATM   24  N   UNL     1      11.750   4.418  90.989  1.00  0.00    -0.335 N 
HETATM   25  HN  UNL     1      11.888   5.297  91.475  1.00  0.00     0.164 HD
BRANCH  24  26
HETATM   26  C   UNL     1      12.795   3.433  91.109  1.00  0.00     0.169 C 
BRANCH  26  27
HETATM   27  C   UNL     1      14.194   4.021  90.889  1.00  0.00     0.138 C 
HETATM   28  C   UNL     1      15.039   3.177  89.941  1.00  0.00     0.034 C 
BRANCH  27  29
HETATM   29  O   UNL     1      14.079   5.340  90.357  1.00  0.00    -0.383 OA
HETATM   30  H   UNL     1      14.727   5.437  89.639  1.00  0.00     0.210 HD
ENDBRANCH  27  29
ENDBRANCH  26  27
BRANCH  26  31
HETATM   31  C   UNL     1      12.674   2.792  92.488  1.00  0.00     0.194 C 
HETATM   32  O   UNL     1      12.009   1.779  92.700  1.00  0.00    -0.289 OA
BRANCH  31  33
HETATM   33  C   UNL     1      13.354   3.498  93.450  1.00  0.00     0.053 C 
BRANCH  33  34
HETATM   34  C   UNL     1      14.438   2.834  94.042  1.00  0.00     0.220 C 
BRANCH  34  35
HETATM   35  O   UNL     1      14.442   1.662  93.620  1.00  0.00    -0.371 OA
HETATM   36  H   UNL     1      14.947   1.271  94.317  1.00  0.00     0.211 HD
ENDBRANCH  34  35
BRANCH  34  37
HETATM   37  C   UNL     1      15.670   3.479  93.836  1.00  0.00     0.185 C 
HETATM   38  O   UNL     1      15.984   2.341  93.235  1.00  0.00    -0.647 OA
BRANCH  37  39
HETATM   39  O   UNL     1      16.167   4.526  94.124  1.00  0.00    -0.774 OA
HETATM   40  H   UNL     1      16.677   4.482  95.136  1.00  0.00     0.167 HD
ENDBRANCH  37  39
ENDBRANCH  34  37
ENDBRANCH  33  34
ENDBRANCH  31  33
ENDBRANCH  26  31
ENDBRANCH  24  26
ENDBRANCH  19  22
ENDBRANCH  15  16
ENDBRANCH  11  14
ENDBRANCH   7   8
ENDBRANCH   2   7
TORSDOF 14
ENDMDL
MODEL 4
REMARK VINA RESULT:      -4.2      2.935     12.104
REMARK  14 active torsions:
REMARK  status: ('A' for Active; 'I' for Inactive)
REMARK    1  A    between atoms: O_2  and  C_18 
REMARK    2  A    between atoms: C_5  and  C_8 
REMARK    3  A    between atoms: C_5  and  O_35 
REMARK    4  A    between atoms: C_5  and  C_36 
REMARK    5  A    between atoms: N_6  and  C_11 
REMARK    6  A    between atoms: N_7  and  C_15 
REMARK       I    between atoms: N_7  and  C_24 
REMARK    7  A    between atoms: C_8  and  C_23 
REMARK    8  A    between atoms: C_11  and  C_14 
REMARK    9  A    between atoms: C_15  and  C_18 
REMARK   10  A    between atoms: C_15  and  C_23 
REMARK   11  A    between atoms: C_21  and  C_26 
REMARK   12  A    between atoms: C_24  and  C_25 
REMARK   13  A    between atoms: C_29  and  C_32 
REMARK   14  A    between atoms: C_36  and  O_39 
ROOT
HETATM    1  O   UNL     1       3.043  14.846  94.083  1.00  0.00    -0.350 OA
HETATM    2  N   UNL     1       2.624  14.804  91.268  1.00  0.00     0.147 N 
HETATM    3  C   UNL     1       1.699  14.133  92.192  1.00  0.00     0.283 C 
HETATM    4  C   UNL     1       3.976  14.835  91.844  1.00  0.00     0.283 C 
HETATM    5  C   UNL     1       1.719  14.839  93.546  1.00  0.00     0.178 C 
HETATM    6  C   UNL     1       3.943  15.523  93.205  1.00  0.00     0.178 C 
ENDROOT
BRANCH   2   7
HETATM    7  C   UNL     1       2.629  14.138  89.967  1.00  0.00     0.277 C 
BRANCH   7   8
HETATM    8  C   UNL     1       3.621  13.027  89.901  1.00  0.00     0.011 A 
HETATM    9  C   UNL     1       4.863  13.237  89.300  1.00  0.00    -0.002 A 
HETATM   10  C   UNL     1       5.791  12.198  89.236  1.00  0.00     0.008 A 
HETATM   11  C   UNL     1       5.478  10.951  89.774  1.00  0.00     0.042 A 
HETATM   12  C   UNL     1       4.238  10.740  90.374  1.00  0.00     0.008 A 
HETATM   13  C   UNL     1       3.309  11.778  90.438  1.00  0.00    -0.002 A 
BRANCH  11  14
HETATM   14  C   UNL     1       6.431   9.886  89.709  1.00  0.00    -0.059 C 
HETATM   15  C   UNL     1       7.233   8.991  89.655  1.00  0.00    -0.059 C 
BRANCH  15  16
HETATM   16  C   UNL     1       8.186   7.927  89.592  1.00  0.00     0.042 A 
HETATM   17  C   UNL     1       9.438   8.147  89.016  1.00  0.00     0.008 A 
HETATM   18  C   UNL     1      10.368   7.110  88.957  1.00  0.00     0.005 A 
HETATM   19  C   UNL     1      10.027   5.878  89.474  1.00  0.00     0.056 A 
HETATM   20  C   UNL     1       8.797   5.635  90.047  1.00  0.00     0.005 A 
HETATM   21  C   UNL     1       7.865   6.672  90.107  1.00  0.00     0.008 A 
BRANCH  19  22
HETATM   22  C   UNL     1      11.018   4.773  89.408  1.00  0.00     0.254 C 
HETATM   23  O   UNL     1      11.157   4.153  88.357  1.00  0.00    -0.268 OA
HETATM   24  N   UNL     1      11.746   4.539  90.567  1.00  0.00    -0.335 N 
HETATM   25  HN  UNL     1      11.595   5.109  91.391  1.00  0.00     0.164 HD
BRANCH  24  26
HETATM   26  C   UNL     1      12.760   3.519  90.654  1.00  0.00     0.169 C 
BRANCH  26  27
HETATM   27  C   UNL     1      14.177   4.098  90.756  1.00  0.00     0.138 C 
HETATM   28  C   UNL     1      14.658   4.212  92.198  1.00  0.00     0.034 C 
BRANCH  27  29
HETATM   29  O   UNL     1      15.084   3.271  90.029  1.00  0.00    -0.383 OA
HETATM   30  H   UNL     1      15.170   3.630  89.129  1.00  0.00     0.210 HD
ENDBRANCH  27  29
ENDBRANCH  26  27
BRANCH  26  31
HETATM   31  C   UNL     1      12.433   2.638  91.855  1.00  0.00     0.194 C 
HETATM   32  O   UNL     1      12.570   1.416  91.846  1.00  0.00    -0.289 OA
BRANCH  31  33
HETATM   33  C   UNL     1      11.940   3.364  92.912  1.00  0.00     0.053 C 
BRANCH  33  34
HETATM   34  C   UNL     1      10.804   4.139  92.643  1.00  0.00     0.220 C 
BRANCH  34  35
HETATM   35  O   UNL     1       9.840   3.364  92.499  1.00  0.00    -0.371 OA
HETATM   36  H   UNL     1       9.237   3.791  93.088  1.00  0.00     0.211 HD
ENDBRANCH  34  35
BRANCH  34  37
HETATM   37  C   UNL     1      10.556   5.126  93.613  1.00  0.00     0.185 C 
HETATM   38  O   UNL     1      11.706   4.698  94.111  1.00  0.00    -0.647 OA
BRANCH  37  39
HETATM   39  O   UNL     1       9.690   5.911  93.859  1.00  0.00    -0.774 OA
HETATM   40  H   UNL     1       9.493   6.605  92.983  1.00  0.00     0.167 HD
ENDBRANCH  37  39
ENDBRANCH  34  37
ENDBRANCH  33  34
ENDBRANCH  31  33
ENDBRANCH  26  31
ENDBRANCH  24  26
ENDBRANCH  19  22
ENDBRANCH  15  16
ENDBRANCH  11  14
ENDBRANCH   7   8
ENDBRANCH   2   7
TORSDOF 14
ENDMDL
