MODEL 1
REMARK VINA RESULT:      -6.6      0.000      0.000
REMARK  14 active torsions:
REMARK  status: ('A' for Active; 'I' for Inactive)
REMARK    1  A    between atoms: O_2  and  C_18 
REMARK    2  A    between atoms: C_5  and  C_8 
REMARK    3  A    between atoms: C_5  and  O_35 
REMARK    4  A    between atoms: C_5  and  C_36 
REMARK    5  A    between atoms: N_6  and  C_11 
REMARK    6  A    between atoms: N_7  and  C_15 
REMARK       I    between atoms: N_7  and  C_24 
REMARK    7  A    between atoms: C_8  and  C_23 
REMARK    8  A    between atoms: C_11  and  C_14 
REMARK    9  A    between atoms: C_15  and  C_18 
REMARK   10  A    between atoms: C_15  and  C_23 
REMARK   11  A    between atoms: C_21  and  C_26 
REMARK   12  A    between atoms: C_24  and  C_25 
REMARK   13  A    between atoms: C_29  and  C_32 
REMARK   14  A    between atoms: C_36  and  O_39 
ROOT
HETATM    1  O   UNL     1      16.473   3.271  93.623  1.00  0.00    -0.350 OA
HETATM    2  N   UNL     1      13.768   2.844  92.849  1.00  0.00     0.147 N 
HETATM    3  C   UNL     1      14.675   1.720  93.121  1.00  0.00     0.283 C 
HETATM    4  C   UNL     1      14.532   4.002  92.366  1.00  0.00     0.283 C 
HETATM    5  C   UNL     1      15.743   2.150  94.124  1.00  0.00     0.178 C 
HETATM    6  C   UNL     1      15.603   4.378  93.385  1.00  0.00     0.178 C 
ENDROOT
BRANCH   2   7
HETATM    7  C   UNL     1      12.742   2.458  91.881  1.00  0.00     0.277 C 
BRANCH   7   8
HETATM    8  C   UNL     1      11.605   3.421  91.844  1.00  0.00     0.011 A 
HETATM    9  C   UNL     1      11.386   4.282  92.921  1.00  0.00    -0.002 A 
HETATM   10  C   UNL     1      10.321   5.183  92.888  1.00  0.00     0.008 A 
HETATM   11  C   UNL     1       9.478   5.223  91.778  1.00  0.00     0.042 A 
HETATM   12  C   UNL     1       9.695   4.364  90.703  1.00  0.00     0.008 A 
HETATM   13  C   UNL     1      10.760   3.463  90.736  1.00  0.00    -0.002 A 
BRANCH  11  14
HETATM   14  C   UNL     1       8.387   6.148  91.744  1.00  0.00    -0.059 C 
HETATM   15  C   UNL     1       7.470   6.925  91.716  1.00  0.00    -0.059 C 
BRANCH  15  16
HETATM   16  C   UNL     1       6.379   7.849  91.683  1.00  0.00     0.042 A 
HETATM   17  C   UNL     1       5.452   7.795  90.642  1.00  0.00     0.008 A 
HETATM   18  C   UNL     1       4.387   8.696  90.611  1.00  0.00     0.005 A 
HETATM   19  C   UNL     1       4.273   9.628  91.621  1.00  0.00     0.056 A 
HETATM   20  C   UNL     1       5.176   9.702  92.660  1.00  0.00     0.005 A 
HETATM   21  C   UNL     1       6.242   8.802  92.692  1.00  0.00     0.008 A 
BRANCH  19  22
HETATM   22  C   UNL     1       3.139  10.588  91.587  1.00  0.00     0.254 C 
HETATM   23  O   UNL     1       1.995  10.161  91.450  1.00  0.00    -0.268 OA
HETATM   24  N   UNL     1       3.471  11.927  91.740  1.00  0.00    -0.335 N 
HETATM   25  HN  UNL     1       4.437  12.204  91.874  1.00  0.00     0.164 HD
BRANCH  24  26
HETATM   26  C   UNL     1       2.482  12.975  91.753  1.00  0.00     0.169 C 
BRANCH  26  27
HETATM   27  C   UNL     1       2.440  13.734  93.085  1.00  0.00     0.138 C 
HETATM   28  C   UNL     1       3.826  13.932  93.689  1.00  0.00     0.034 C 
BRANCH  27  29
HETATM   29  O   UNL     1       1.833  15.011  92.888  1.00  0.00    -0.383 OA
HETATM   30  H   UNL     1       1.238  15.185  93.636  1.00  0.00     0.210 HD
ENDBRANCH  27  29
ENDBRANCH  26  27
BRANCH  26  31
HETATM   31  C   UNL     1       2.783  13.913  90.589  1.00  0.00     0.194 C 
HETATM   32  O   UNL     1       1.904  14.480  89.942  1.00  0.00    -0.289 OA
BRANCH  31  33
HETATM   33  C   UNL     1       4.130  14.012  90.336  1.00  0.00     0.053 C 
BRANCH  33  34
HETATM   34  C   UNL     1       4.495  14.050  88.983  1.00  0.00     0.220 C 
BRANCH  34  35
HETATM   35  O   UNL     1       5.479  14.806  88.876  1.00  0.00    -0.371 OA
HETATM   36  H   UNL     1       6.096  14.174  88.539  1.00  0.00     0.211 HD
ENDBRANCH  34  35
BRANCH  34  37
HETATM   37  C   UNL     1       4.736  12.779  88.432  1.00  0.00     0.185 C 
HETATM   38  O   UNL     1       5.459  12.617  89.529  1.00  0.00    -0.647 OA
BRANCH  37  39
HETATM   39  O   UNL     1       4.448  12.191  87.433  1.00  0.00    -0.774 OA
HETATM   40  H   UNL     1       5.218  11.397  87.179  1.00  0.00     0.167 HD
ENDBRANCH  37  39
ENDBRANCH  34  37
ENDBRANCH  33  34
ENDBRANCH  31  33
ENDBRANCH  26  31
ENDBRANCH  24  26
ENDBRANCH  19  22
ENDBRANCH  15  16
ENDBRANCH  11  14
ENDBRANCH   7   8
ENDBRANCH   2   7
TORSDOF 14
ENDMDL
MODEL 2
REMARK VINA RESULT:      -6.1      1.207      1.788
REMARK  14 active torsions:
REMARK  status: ('A' for Active; 'I' for Inactive)
REMARK    1  A    between atoms: O_2  and  C_18 
REMARK    2  A    between atoms: C_5  and  C_8 
REMARK    3  A    between atoms: C_5  and  O_35 
REMARK    4  A    between atoms: C_5  and  C_36 
REMARK    5  A    between atoms: N_6  and  C_11 
REMARK    6  A    between atoms: N_7  and  C_15 
REMARK       I    between atoms: N_7  and  C_24 
REMARK    7  A    between atoms: C_8  and  C_23 
REMARK    8  A    between atoms: C_11  and  C_14 
REMARK    9  A    between atoms: C_15  and  C_18 
REMARK   10  A    between atoms: C_15  and  C_23 
REMARK   11  A    between atoms: C_21  and  C_26 
REMARK   12  A    between atoms: C_24  and  C_25 
REMARK   13  A    between atoms: C_29  and  C_32 
REMARK   14  A    between atoms: C_36  and  O_39 
ROOT
HETATM    1  O   UNL     1      16.472   4.399  94.078  1.00  0.00    -0.350 OA
HETATM    2  N   UNL     1      14.781   2.781  92.458  1.00  0.00     0.147 N 
HETATM    3  C   UNL     1      14.711   4.248  92.415  1.00  0.00     0.283 C 
HETATM    4  C   UNL     1      15.228   2.338  93.786  1.00  0.00     0.283 C 
HETATM    5  C   UNL     1      16.070   4.841  92.780  1.00  0.00     0.178 C 
HETATM    6  C   UNL     1      16.572   2.976  94.120  1.00  0.00     0.178 C 
ENDROOT
BRANCH   2   7
HETATM    7  C   UNL     1      13.487   2.191  92.122  1.00  0.00     0.277 C 
BRANCH   7   8
HETATM    8  C   UNL     1      12.381   3.190  92.155  1.00  0.00     0.011 A 
HETATM    9  C   UNL     1      11.965   3.728  93.374  1.00  0.00    -0.002 A 
HETATM   10  C   UNL     1      10.929   4.661  93.407  1.00  0.00     0.008 A 
HETATM   11  C   UNL     1      10.311   5.058  92.221  1.00  0.00     0.042 A 
HETATM   12  C   UNL     1      10.726   4.522  91.004  1.00  0.00     0.008 A 
HETATM   13  C   UNL     1      11.762   3.588  90.970  1.00  0.00    -0.002 A 
BRANCH  11  14
HETATM   14  C   UNL     1       9.250   6.017  92.255  1.00  0.00    -0.059 C 
HETATM   15  C   UNL     1       8.359   6.824  92.283  1.00  0.00    -0.059 C 
BRANCH  15  16
HETATM   16  C   UNL     1       7.299   7.782  92.315  1.00  0.00     0.042 A 
HETATM   17  C   UNL     1       7.079   8.539  93.466  1.00  0.00     0.008 A 
HETATM   18  C   UNL     1       6.047   9.476  93.497  1.00  0.00     0.005 A 
HETATM   19  C   UNL     1       5.257   9.635  92.377  1.00  0.00     0.056 A 
HETATM   20  C   UNL     1       5.453   8.899  91.228  1.00  0.00     0.005 A 
HETATM   21  C   UNL     1       6.486   7.962  91.196  1.00  0.00     0.008 A 
BRANCH  19  22
HETATM   22  C   UNL     1       4.156  10.632  92.411  1.00  0.00     0.254 C 
HETATM   23  O   UNL     1       3.157  10.399  93.087  1.00  0.00    -0.268 OA
HETATM   24  N   UNL     1       4.361  11.790  91.675  1.00  0.00    -0.335 N 
HETATM   25  HN  UNL     1       5.224  11.925  91.160  1.00  0.00     0.164 HD
BRANCH  24  26
HETATM   26  C   UNL     1       3.397  12.860  91.627  1.00  0.00     0.169 C 
BRANCH  26  27
HETATM   27  C   UNL     1       3.601  13.893  92.743  1.00  0.00     0.138 C 
HETATM   28  C   UNL     1       4.503  13.377  93.859  1.00  0.00     0.034 C 
BRANCH  27  29
HETATM   29  O   UNL     1       4.174  15.080  92.196  1.00  0.00    -0.383 OA
HETATM   30  H   UNL     1       4.490  14.881  91.299  1.00  0.00     0.210 HD
ENDBRANCH  27  29
ENDBRANCH  26  27
BRANCH  26  31
HETATM   31  C   UNL     1       3.488  13.508  90.249  1.00  0.00     0.194 C 
HETATM   32  O   UNL     1       2.845  14.509  89.936  1.00  0.00    -0.289 OA
BRANCH  31  33
HETATM   33  C   UNL     1       4.329  12.822  89.408  1.00  0.00     0.053 C 
BRANCH  33  34
HETATM   34  C   UNL     1       3.815  12.528  88.137  1.00  0.00     0.220 C 
BRANCH  34  35
HETATM   35  O   UNL     1       4.727  12.705  87.308  1.00  0.00    -0.371 OA
HETATM   36  H   UNL     1       4.270  13.298  86.731  1.00  0.00     0.211 HD
ENDBRANCH  34  35
BRANCH  34  37
HETATM   37  C   UNL     1       3.251  11.244  88.044  1.00  0.00     0.185 C 
HETATM   38  O   UNL     1       4.456  10.861  88.437  1.00  0.00    -0.647 OA
BRANCH  37  39
HETATM   39  O   UNL     1       2.204  10.771  87.717  1.00  0.00    -0.774 OA
HETATM   40  H   UNL     1       1.906  11.098  86.672  1.00  0.00     0.167 HD
ENDBRANCH  37  39
ENDBRANCH  34  37
ENDBRANCH  33  34
ENDBRANCH  31  33
ENDBRANCH  26  31
ENDBRANCH  24  26
ENDBRANCH  19  22
ENDBRANCH  15  16
ENDBRANCH  11  14
ENDBRANCH   7   8
ENDBRANCH   2   7
TORSDOF 14
ENDMDL
MODEL 3
REMARK VINA RESULT:      -5.1      2.604     12.984
REMARK  14 active torsions:
REMARK  status: ('A' for Active; 'I' for Inactive)
REMARK    1  A    between atoms: O_2  and  C_18 
REMARK    2  A    between atoms: C_5  and  C_8 
REMARK    3  A    between atoms: C_5  and  O_35 
REMARK    4  A    between atoms: C_5  and  C_36 
REMARK    5  A    between atoms: N_6  and  C_11 
REMARK    6  A    between atoms: N_7  and  C_15 
REMARK       I    between atoms: N_7  and  C_24 
REMARK    7  A    between atoms: C_8  and  C_23 
REMARK    8  A    between atoms: C_11  and  C_14 
REMARK    9  A    between atoms: C_15  and  C_18 
REMARK   10  A    between atoms: C_15  and  C_23 
REMARK   11  A    between atoms: C_21  and  C_26 
REMARK   12  A    between atoms: C_24  and  C_25 
REMARK   13  A    between atoms: C_29  and  C_32 
REMARK   14  A    between atoms: C_36  and  O_39 
ROOT
HETATM    1  O   UNL     1       2.822  14.696  94.028  1.00  0.00    -0.350 OA
HETATM    2  N   UNL     1       2.679  14.568  91.188  1.00  0.00     0.147 N 
HETATM    3  C   UNL     1       1.654  13.945  92.037  1.00  0.00     0.283 C 
HETATM    4  C   UNL     1       3.968  14.595  91.892  1.00  0.00     0.283 C 
HETATM    5  C   UNL     1       1.557  14.694  93.364  1.00  0.00     0.178 C 
HETATM    6  C   UNL     1       3.817  15.327  93.221  1.00  0.00     0.178 C 
ENDROOT
BRANCH   2   7
HETATM    7  C   UNL     1       2.796  13.859  89.915  1.00  0.00     0.277 C 
BRANCH   7   8
HETATM    8  C   UNL     1       3.763  12.726  89.983  1.00  0.00     0.011 A 
HETATM    9  C   UNL     1       3.509  11.644  90.826  1.00  0.00    -0.002 A 
HETATM   10  C   UNL     1       4.414  10.584  90.892  1.00  0.00     0.008 A 
HETATM   11  C   UNL     1       5.570  10.607  90.113  1.00  0.00     0.042 A 
HETATM   12  C   UNL     1       5.824  11.686  89.270  1.00  0.00     0.008 A 
HETATM   13  C   UNL     1       4.921  12.747  89.205  1.00  0.00    -0.002 A 
BRANCH  11  14
HETATM   14  C   UNL     1       6.497   9.519  90.179  1.00  0.00    -0.059 C 
HETATM   15  C   UNL     1       7.275   8.604  90.235  1.00  0.00    -0.059 C 
BRANCH  15  16
HETATM   16  C   UNL     1       8.201   7.516  90.301  1.00  0.00     0.042 A 
HETATM   17  C   UNL     1       7.884   6.375  91.038  1.00  0.00     0.008 A 
HETATM   18  C   UNL     1       8.786   5.313  91.100  1.00  0.00     0.005 A 
HETATM   19  C   UNL     1       9.983   5.415  90.422  1.00  0.00     0.056 A 
HETATM   20  C   UNL     1      10.320   6.532  89.687  1.00  0.00     0.005 A 
HETATM   21  C   UNL     1       9.419   7.595  89.625  1.00  0.00     0.008 A 
BRANCH  19  22
HETATM   22  C   UNL     1      10.945   4.284  90.490  1.00  0.00     0.254 C 
HETATM   23  O   UNL     1      10.817   3.341  89.713  1.00  0.00    -0.268 OA
HETATM   24  N   UNL     1      11.954   4.400  91.436  1.00  0.00    -0.335 N 
HETATM   25  HN  UNL     1      12.012   5.221  92.026  1.00  0.00     0.164 HD
BRANCH  24  26
HETATM   26  C   UNL     1      12.976   3.398  91.606  1.00  0.00     0.169 C 
BRANCH  26  27
HETATM   27  C   UNL     1      14.328   3.823  91.019  1.00  0.00     0.138 C 
HETATM   28  C   UNL     1      14.716   3.002  89.794  1.00  0.00     0.034 C 
BRANCH  27  29
HETATM   29  O   UNL     1      14.277   5.202  90.655  1.00  0.00    -0.383 OA
HETATM   30  H   UNL     1      14.655   5.724  91.383  1.00  0.00     0.210 HD
ENDBRANCH  27  29
ENDBRANCH  26  27
BRANCH  26  31
HETATM   31  C   UNL     1      13.089   3.097  93.097  1.00  0.00     0.194 C 
HETATM   32  O   UNL     1      12.267   2.416  93.707  1.00  0.00    -0.289 OA
BRANCH  31  33
HETATM   33  C   UNL     1      14.182   3.704  93.667  1.00  0.00     0.053 C 
BRANCH  33  34
HETATM   34  C   UNL     1      15.192   2.842  94.118  1.00  0.00     0.220 C 
BRANCH  34  35
HETATM   35  O   UNL     1      14.856   1.678  93.828  1.00  0.00    -0.371 OA
HETATM   36  H   UNL     1      14.766   1.343  94.708  1.00  0.00     0.211 HD
ENDBRANCH  34  35
BRANCH  34  37
HETATM   37  C   UNL     1      16.467   3.167  93.625  1.00  0.00     0.185 C 
HETATM   38  O   UNL     1      16.155   4.375  94.069  1.00  0.00    -0.647 OA
BRANCH  37  39
HETATM   39  O   UNL     1      17.350   2.607  93.047  1.00  0.00    -0.774 OA
HETATM   40  H   UNL     1      18.237   3.293  92.873  1.00  0.00     0.167 HD
ENDBRANCH  37  39
ENDBRANCH  34  37
ENDBRANCH  33  34
ENDBRANCH  31  33
ENDBRANCH  26  31
ENDBRANCH  24  26
ENDBRANCH  19  22
ENDBRANCH  15  16
ENDBRANCH  11  14
ENDBRANCH   7   8
ENDBRANCH   2   7
TORSDOF 14
ENDMDL
MODEL 4
REMARK VINA RESULT:      -4.7      2.959     12.374
REMARK  14 active torsions:
REMARK  status: ('A' for Active; 'I' for Inactive)
REMARK    1  A    between atoms: O_2  and  C_18 
REMARK    2  A    between atoms: C_5  and  C_8 
REMARK    3  A    between atoms: C_5  and  O_35 
REMARK    4  A    between atoms: C_5  and  C_36 
REMARK    5  A    between atoms: N_6  and  C_11 
REMARK    6  A    between atoms: N_7  and  C_15 
REMARK       I    between atoms: N_7  and  C_24 
REMARK    7  A    between atoms: C_8  and  C_23 
REMARK    8  A    between atoms: C_11  and  C_14 
REMARK    9  A    between atoms: C_15  and  C_18 
REMARK   10  A    between atoms: C_15  and  C_23 
REMARK   11  A    between atoms: C_21  and  C_26 
REMARK   12  A    between atoms: C_24  and  C_25 
REMARK   13  A    between atoms: C_29  and  C_32 
REMARK   14  A    between atoms: C_36  and  O_39 
ROOT
HETATM    1  O   UNL     1       2.874  14.708  94.123  1.00  0.00    -0.350 OA
HETATM    2  N   UNL     1       2.546  14.816  91.298  1.00  0.00     0.147 N 
HETATM    3  C   UNL     1       1.618  14.060  92.150  1.00  0.00     0.283 C 
HETATM    4  C   UNL     1       3.877  14.862  91.920  1.00  0.00     0.283 C 
HETATM    5  C   UNL     1       1.568  14.685  93.542  1.00  0.00     0.178 C 
HETATM    6  C   UNL     1       3.775  15.467  93.316  1.00  0.00     0.178 C 
ENDROOT
BRANCH   2   7
HETATM    7  C   UNL     1       2.617  14.228  89.961  1.00  0.00     0.277 C 
BRANCH   7   8
HETATM    8  C   UNL     1       3.602  13.111  89.884  1.00  0.00     0.011 A 
HETATM    9  C   UNL     1       3.283  11.863  90.420  1.00  0.00    -0.002 A 
HETATM   10  C   UNL     1       4.205  10.818  90.350  1.00  0.00     0.008 A 
HETATM   11  C   UNL     1       5.443  11.022  89.742  1.00  0.00     0.042 A 
HETATM   12  C   UNL     1       5.762  12.268  89.206  1.00  0.00     0.008 A 
HETATM   13  C   UNL     1       4.841  13.313  89.276  1.00  0.00    -0.002 A 
BRANCH  11  14
HETATM   14  C   UNL     1       6.387   9.949  89.668  1.00  0.00    -0.059 C 
HETATM   15  C   UNL     1       7.180   9.048  89.606  1.00  0.00    -0.059 C 
BRANCH  15  16
HETATM   16  C   UNL     1       8.123   7.976  89.531  1.00  0.00     0.042 A 
HETATM   17  C   UNL     1       7.699   6.660  89.724  1.00  0.00     0.008 A 
HETATM   18  C   UNL     1       8.619   5.615  89.649  1.00  0.00     0.005 A 
HETATM   19  C   UNL     1       9.940   5.907  89.382  1.00  0.00     0.056 A 
HETATM   20  C   UNL     1      10.384   7.198  89.188  1.00  0.00     0.005 A 
HETATM   21  C   UNL     1       9.465   8.245  89.263  1.00  0.00     0.008 A 
BRANCH  19  22
HETATM   22  C   UNL     1      10.920   4.792  89.303  1.00  0.00     0.254 C 
HETATM   23  O   UNL     1      10.988   4.125  88.274  1.00  0.00    -0.268 OA
HETATM   24  N   UNL     1      11.719   4.606  90.422  1.00  0.00    -0.335 N 
HETATM   25  HN  UNL     1      11.624   5.213  91.228  1.00  0.00     0.164 HD
BRANCH  24  26
HETATM   26  C   UNL     1      12.732   3.583  90.490  1.00  0.00     0.169 C 
BRANCH  26  27
HETATM   27  C   UNL     1      14.147   4.158  90.642  1.00  0.00     0.138 C 
HETATM   28  C   UNL     1      14.515   4.427  92.097  1.00  0.00     0.034 C 
BRANCH  27  29
HETATM   29  O   UNL     1      15.094   3.247  90.085  1.00  0.00    -0.383 OA
HETATM   30  H   UNL     1      14.934   2.368  90.468  1.00  0.00     0.210 HD
ENDBRANCH  27  29
ENDBRANCH  26  27
BRANCH  26  31
HETATM   31  C   UNL     1      12.383   2.657  91.651  1.00  0.00     0.194 C 
HETATM   32  O   UNL     1      13.166   1.823  92.101  1.00  0.00    -0.289 OA
BRANCH  31  33
HETATM   33  C   UNL     1      11.095   2.843  92.093  1.00  0.00     0.053 C 
BRANCH  33  34
HETATM   34  C   UNL     1      10.950   3.660  93.223  1.00  0.00     0.220 C 
BRANCH  34  35
HETATM   35  O   UNL     1      12.038   3.668  93.829  1.00  0.00    -0.371 OA
HETATM   36  H   UNL     1      12.238   4.587  93.730  1.00  0.00     0.211 HD
ENDBRANCH  34  35
BRANCH  34  37
HETATM   37  C   UNL     1      10.497   4.956  92.922  1.00  0.00     0.185 C 
HETATM   38  O   UNL     1       9.384   4.318  92.593  1.00  0.00    -0.647 OA
BRANCH  37  39
HETATM   39  O   UNL     1      10.947   6.063  92.928  1.00  0.00    -0.774 OA
HETATM   40  H   UNL     1      11.892   6.133  92.304  1.00  0.00     0.167 HD
ENDBRANCH  37  39
ENDBRANCH  34  37
ENDBRANCH  33  34
ENDBRANCH  31  33
ENDBRANCH  26  31
ENDBRANCH  24  26
ENDBRANCH  19  22
ENDBRANCH  15  16
ENDBRANCH  11  14
ENDBRANCH   7   8
ENDBRANCH   2   7
TORSDOF 14
ENDMDL
