MODEL 1
REMARK VINA RESULT:      -6.3      0.000      0.000
REMARK  12 active torsions:
REMARK  status: ('A' for Active; 'I' for Inactive)
REMARK    1  A    between atoms: O_2  and  C_16 
REMARK    2  A    between atoms: N_5  and  C_9 
REMARK    3  A    between atoms: N_6  and  C_13 
REMARK       I    between atoms: N_6  and  C_22 
REMARK    4  A    between atoms: C_9  and  C_12 
REMARK    5  A    between atoms: C_13  and  C_16 
REMARK    6  A    between atoms: C_13  and  C_21 
REMARK    7  A    between atoms: C_19  and  C_24 
REMARK    8  A    between atoms: C_21  and  C_33 
REMARK    9  A    between atoms: C_22  and  C_23 
REMARK   10  A    between atoms: C_27  and  C_30 
REMARK   11  A    between atoms: C_33  and  C_34 
REMARK   12  A    between atoms: C_34  and  C_35 
ROOT
HETATM    1  O   UNL     1      16.802   3.700  93.723  1.00  0.00    -0.350 OA
HETATM    2  N   UNL     1      14.174   2.954  92.925  1.00  0.00     0.147 N 
HETATM    3  C   UNL     1      15.238   1.955  93.090  1.00  0.00     0.283 C 
HETATM    4  C   UNL     1      14.754   4.250  92.546  1.00  0.00     0.283 C 
HETATM    5  C   UNL     1      16.250   2.444  94.123  1.00  0.00     0.178 C 
HETATM    6  C   UNL     1      15.777   4.685  93.590  1.00  0.00     0.178 C 
ENDROOT
BRANCH   2   7
HETATM    7  C   UNL     1      13.197   2.511  91.932  1.00  0.00     0.277 C 
BRANCH   7   8
HETATM    8  C   UNL     1      12.034   3.437  91.826  1.00  0.00     0.011 A 
HETATM    9  C   UNL     1      11.427   3.928  92.984  1.00  0.00    -0.002 A 
HETATM   10  C   UNL     1      10.337   4.793  92.886  1.00  0.00     0.008 A 
HETATM   11  C   UNL     1       9.855   5.167  91.633  1.00  0.00     0.042 A 
HETATM   12  C   UNL     1      10.460   4.678  90.477  1.00  0.00     0.008 A 
HETATM   13  C   UNL     1      11.550   3.813  90.573  1.00  0.00    -0.002 A 
BRANCH  11  14
HETATM   14  C   UNL     1       8.738   6.056  91.533  1.00  0.00    -0.059 C 
HETATM   15  C   UNL     1       7.800   6.803  91.449  1.00  0.00    -0.059 C 
BRANCH  15  16
HETATM   16  C   UNL     1       6.683   7.690  91.349  1.00  0.00     0.042 A 
HETATM   17  C   UNL     1       5.666   7.428  90.431  1.00  0.00     0.008 A 
HETATM   18  C   UNL     1       4.575   8.293  90.336  1.00  0.00     0.005 A 
HETATM   19  C   UNL     1       4.527   9.398  91.159  1.00  0.00     0.056 A 
HETATM   20  C   UNL     1       5.520   9.679  92.074  1.00  0.00     0.005 A 
HETATM   21  C   UNL     1       6.611   8.815  92.170  1.00  0.00     0.008 A 
BRANCH  19  22
HETATM   22  C   UNL     1       3.366  10.320  91.055  1.00  0.00     0.254 C 
HETATM   23  O   UNL     1       2.313   9.907  90.575  1.00  0.00    -0.268 OA
HETATM   24  N   UNL     1       3.563  11.603  91.546  1.00  0.00    -0.335 N 
HETATM   25  HN  UNL     1       4.453  11.866  91.952  1.00  0.00     0.164 HD
BRANCH  24  26
HETATM   26  C   UNL     1       2.526  12.604  91.538  1.00  0.00     0.166 C 
BRANCH  26  27
HETATM   27  C   UNL     1       2.335  13.272  92.906  1.00  0.00     0.138 C 
HETATM   28  C   UNL     1       3.658  13.526  93.621  1.00  0.00     0.034 C 
BRANCH  27  29
HETATM   29  O   UNL     1       1.652  14.513  92.740  1.00  0.00    -0.383 OA
HETATM   30  H   UNL     1       2.260  15.142  92.317  1.00  0.00     0.210 HD
ENDBRANCH  27  29
ENDBRANCH  26  27
BRANCH  26  31
HETATM   31  C   UNL     1       2.876  13.629  90.465  1.00  0.00     0.181 C 
HETATM   32  O   UNL     1       2.149  14.580  90.184  1.00  0.00    -0.294 OA
BRANCH  31  33
HETATM   33  C   UNL     1       4.361  14.243  90.680  1.00  0.00     0.138 C 
BRANCH  33  34
HETATM   34  C   UNL     1       4.857  14.228  89.357  1.00  0.00     0.208 C 
HETATM   35  O   UNL     1       5.018  15.308  88.837  1.00  0.00    -0.289 OA
BRANCH  34  36
HETATM   36  C   UNL     1       5.461  13.227  88.648  1.00  0.00     0.194 C 
HETATM   37  O   UNL     1       5.001  11.947  88.318  1.00  0.00    -0.185 OA
ENDBRANCH  34  36
ENDBRANCH  33  34
ENDBRANCH  31  33
ENDBRANCH  26  31
ENDBRANCH  24  26
ENDBRANCH  19  22
ENDBRANCH  15  16
ENDBRANCH  11  14
ENDBRANCH   7   8
ENDBRANCH   2   7
TORSDOF 12
ENDMDL
MODEL 2
REMARK VINA RESULT:      -5.5      1.440      2.232
REMARK  12 active torsions:
REMARK  status: ('A' for Active; 'I' for Inactive)
REMARK    1  A    between atoms: O_2  and  C_16 
REMARK    2  A    between atoms: N_5  and  C_9 
REMARK    3  A    between atoms: N_6  and  C_13 
REMARK       I    between atoms: N_6  and  C_22 
REMARK    4  A    between atoms: C_9  and  C_12 
REMARK    5  A    between atoms: C_13  and  C_16 
REMARK    6  A    between atoms: C_13  and  C_21 
REMARK    7  A    between atoms: C_19  and  C_24 
REMARK    8  A    between atoms: C_21  and  C_33 
REMARK    9  A    between atoms: C_22  and  C_23 
REMARK   10  A    between atoms: C_27  and  C_30 
REMARK   11  A    between atoms: C_33  and  C_34 
REMARK   12  A    between atoms: C_34  and  C_35 
ROOT
HETATM    1  O   UNL     1      16.242   4.133  94.110  1.00  0.00    -0.350 OA
HETATM    2  N   UNL     1      14.409   2.717  92.455  1.00  0.00     0.147 N 
HETATM    3  C   UNL     1      14.467   4.186  92.456  1.00  0.00     0.283 C 
HETATM    4  C   UNL     1      14.821   2.197  93.766  1.00  0.00     0.283 C 
HETATM    5  C   UNL     1      15.873   4.647  92.829  1.00  0.00     0.178 C 
HETATM    6  C   UNL     1      16.218   2.705  94.108  1.00  0.00     0.178 C 
ENDROOT
BRANCH   2   7
HETATM    7  C   UNL     1      13.066   2.252  92.110  1.00  0.00     0.277 C 
BRANCH   7   8
HETATM    8  C   UNL     1      12.057   3.349  92.154  1.00  0.00     0.011 A 
HETATM    9  C   UNL     1      11.391   3.730  90.989  1.00  0.00    -0.002 A 
HETATM   10  C   UNL     1      10.448   4.757  91.029  1.00  0.00     0.008 A 
HETATM   11  C   UNL     1      10.170   5.400  92.235  1.00  0.00     0.042 A 
HETATM   12  C   UNL     1      10.834   5.020  93.399  1.00  0.00     0.008 A 
HETATM   13  C   UNL     1      11.778   3.994  93.359  1.00  0.00    -0.002 A 
BRANCH  11  14
HETATM   14  C   UNL     1       9.201   6.452  92.276  1.00  0.00    -0.059 C 
HETATM   15  C   UNL     1       8.387   7.336  92.311  1.00  0.00    -0.059 C 
BRANCH  15  16
HETATM   16  C   UNL     1       7.419   8.388  92.351  1.00  0.00     0.042 A 
HETATM   17  C   UNL     1       7.560   9.429  93.270  1.00  0.00     0.008 A 
HETATM   18  C   UNL     1       6.617  10.456  93.307  1.00  0.00     0.005 A 
HETATM   19  C   UNL     1       5.556  10.420  92.427  1.00  0.00     0.056 A 
HETATM   20  C   UNL     1       5.395   9.402  91.510  1.00  0.00     0.005 A 
HETATM   21  C   UNL     1       6.337   8.374  91.472  1.00  0.00     0.008 A 
BRANCH  19  22
HETATM   22  C   UNL     1       4.551  11.513  92.469  1.00  0.00     0.254 C 
HETATM   23  O   UNL     1       3.521  11.357  93.120  1.00  0.00    -0.268 OA
HETATM   24  N   UNL     1       4.878  12.666  91.768  1.00  0.00    -0.335 N 
HETATM   25  HN  UNL     1       5.759  12.733  91.273  1.00  0.00     0.164 HD
BRANCH  24  26
HETATM   26  C   UNL     1       4.018  13.822  91.733  1.00  0.00     0.166 C 
BRANCH  26  27
HETATM   27  C   UNL     1       4.123  14.679  93.001  1.00  0.00     0.138 C 
HETATM   28  C   UNL     1       2.835  15.436  93.303  1.00  0.00     0.034 C 
BRANCH  27  29
HETATM   29  O   UNL     1       4.443  13.846  94.115  1.00  0.00    -0.383 OA
HETATM   30  H   UNL     1       4.130  14.285  94.924  1.00  0.00     0.210 HD
ENDBRANCH  27  29
ENDBRANCH  26  27
BRANCH  26  31
HETATM   31  C   UNL     1       4.372  14.628  90.488  1.00  0.00     0.181 C 
HETATM   32  O   UNL     1       5.115  15.608  90.513  1.00  0.00    -0.294 OA
BRANCH  31  33
HETATM   33  C   UNL     1       4.914  13.680  89.290  1.00  0.00     0.138 C 
BRANCH  33  34
HETATM   34  C   UNL     1       3.803  12.831  89.089  1.00  0.00     0.208 C 
HETATM   35  O   UNL     1       2.757  13.200  89.572  1.00  0.00    -0.289 OA
BRANCH  34  36
HETATM   36  C   UNL     1       3.620  11.803  88.206  1.00  0.00     0.194 C 
HETATM   37  O   UNL     1       2.467  11.075  87.891  1.00  0.00    -0.185 OA
ENDBRANCH  34  36
ENDBRANCH  33  34
ENDBRANCH  31  33
ENDBRANCH  26  31
ENDBRANCH  24  26
ENDBRANCH  19  22
ENDBRANCH  15  16
ENDBRANCH  11  14
ENDBRANCH   7   8
ENDBRANCH   2   7
TORSDOF 12
ENDMDL
MODEL 3
REMARK VINA RESULT:      -4.9      1.657      2.437
REMARK  12 active torsions:
REMARK  status: ('A' for Active; 'I' for Inactive)
REMARK    1  A    between atoms: O_2  and  C_16 
REMARK    2  A    between atoms: N_5  and  C_9 
REMARK    3  A    between atoms: N_6  and  C_13 
REMARK       I    between atoms: N_6  and  C_22 
REMARK    4  A    between atoms: C_9  and  C_12 
REMARK    5  A    between atoms: C_13  and  C_16 
REMARK    6  A    between atoms: C_13  and  C_21 
REMARK    7  A    between atoms: C_19  and  C_24 
REMARK    8  A    between atoms: C_21  and  C_33 
REMARK    9  A    between atoms: C_22  and  C_23 
REMARK   10  A    between atoms: C_27  and  C_30 
REMARK   11  A    between atoms: C_33  and  C_34 
REMARK   12  A    between atoms: C_34  and  C_35 
ROOT
HETATM    1  O   UNL     1      17.175   4.589  93.464  1.00  0.00    -0.350 OA
HETATM    2  N   UNL     1      14.960   2.835  93.813  1.00  0.00     0.147 N 
HETATM    3  C   UNL     1      16.198   2.388  93.160  1.00  0.00     0.283 C 
HETATM    4  C   UNL     1      14.773   4.278  93.603  1.00  0.00     0.283 C 
HETATM    5  C   UNL     1      17.382   3.193  93.690  1.00  0.00     0.178 C 
HETATM    6  C   UNL     1      15.989   5.038  94.121  1.00  0.00     0.178 C 
ENDROOT
BRANCH   2   7
HETATM    7  C   UNL     1      13.810   2.084  93.312  1.00  0.00     0.277 C 
BRANCH   7   8
HETATM    8  C   UNL     1      12.627   2.956  93.061  1.00  0.00     0.011 A 
HETATM    9  C   UNL     1      12.229   3.883  94.025  1.00  0.00    -0.002 A 
HETATM   10  C   UNL     1      11.121   4.698  93.792  1.00  0.00     0.008 A 
HETATM   11  C   UNL     1      10.414   4.586  92.595  1.00  0.00     0.042 A 
HETATM   12  C   UNL     1      10.811   3.661  91.632  1.00  0.00     0.008 A 
HETATM   13  C   UNL     1      11.918   2.845  91.865  1.00  0.00    -0.002 A 
BRANCH  11  14
HETATM   14  C   UNL     1       9.278   5.423  92.356  1.00  0.00    -0.059 C 
HETATM   15  C   UNL     1       8.325   6.127  92.154  1.00  0.00    -0.059 C 
BRANCH  15  16
HETATM   16  C   UNL     1       7.190   6.963  91.914  1.00  0.00     0.042 A 
HETATM   17  C   UNL     1       6.411   6.769  90.773  1.00  0.00     0.008 A 
HETATM   18  C   UNL     1       5.302   7.583  90.541  1.00  0.00     0.005 A 
HETATM   19  C   UNL     1       4.997   8.571  91.454  1.00  0.00     0.056 A 
HETATM   20  C   UNL     1       5.752   8.783  92.588  1.00  0.00     0.005 A 
HETATM   21  C   UNL     1       6.861   7.969  92.822  1.00  0.00     0.008 A 
BRANCH  19  22
HETATM   22  C   UNL     1       3.817   9.439  91.205  1.00  0.00     0.254 C 
HETATM   23  O   UNL     1       2.708   9.065  91.578  1.00  0.00    -0.268 OA
HETATM   24  N   UNL     1       4.074  10.648  90.573  1.00  0.00    -0.335 N 
HETATM   25  HN  UNL     1       5.021  10.901  90.316  1.00  0.00     0.164 HD
BRANCH  24  26
HETATM   26  C   UNL     1       3.039  11.608  90.285  1.00  0.00     0.166 C 
BRANCH  26  27
HETATM   27  C   UNL     1       3.039  12.792  91.260  1.00  0.00     0.138 C 
HETATM   28  C   UNL     1       4.378  12.965  91.968  1.00  0.00     0.034 C 
BRANCH  27  29
HETATM   29  O   UNL     1       2.729  13.992  90.553  1.00  0.00    -0.383 OA
HETATM   30  H   UNL     1       2.320  14.616  91.176  1.00  0.00     0.210 HD
ENDBRANCH  27  29
ENDBRANCH  26  27
BRANCH  26  31
HETATM   31  C   UNL     1       3.225  12.075  88.845  1.00  0.00     0.181 C 
HETATM   32  O   UNL     1       3.920  13.042  88.539  1.00  0.00    -0.294 OA
BRANCH  31  33
HETATM   33  C   UNL     1       3.685  10.862  87.873  1.00  0.00     0.138 C 
BRANCH  33  34
HETATM   34  C   UNL     1       2.528  10.052  87.879  1.00  0.00     0.208 C 
HETATM   35  O   UNL     1       1.536  10.538  87.387  1.00  0.00    -0.289 OA
BRANCH  34  36
HETATM   36  C   UNL     1       2.388   8.707  88.084  1.00  0.00     0.194 C 
HETATM   37  O   UNL     1       1.348   7.842  87.727  1.00  0.00    -0.185 OA
ENDBRANCH  34  36
ENDBRANCH  33  34
ENDBRANCH  31  33
ENDBRANCH  26  31
ENDBRANCH  24  26
ENDBRANCH  19  22
ENDBRANCH  15  16
ENDBRANCH  11  14
ENDBRANCH   7   8
ENDBRANCH   2   7
TORSDOF 12
ENDMDL
MODEL 4
REMARK VINA RESULT:      -4.4      2.947     12.400
REMARK  12 active torsions:
REMARK  status: ('A' for Active; 'I' for Inactive)
REMARK    1  A    between atoms: O_2  and  C_16 
REMARK    2  A    between atoms: N_5  and  C_9 
REMARK    3  A    between atoms: N_6  and  C_13 
REMARK       I    between atoms: N_6  and  C_22 
REMARK    4  A    between atoms: C_9  and  C_12 
REMARK    5  A    between atoms: C_13  and  C_16 
REMARK    6  A    between atoms: C_13  and  C_21 
REMARK    7  A    between atoms: C_19  and  C_24 
REMARK    8  A    between atoms: C_21  and  C_33 
REMARK    9  A    between atoms: C_22  and  C_23 
REMARK   10  A    between atoms: C_27  and  C_30 
REMARK   11  A    between atoms: C_33  and  C_34 
REMARK   12  A    between atoms: C_34  and  C_35 
ROOT
HETATM    1  O   UNL     1       2.458  14.236  93.998  1.00  0.00    -0.350 OA
HETATM    2  N   UNL     1       2.477  14.645  91.182  1.00  0.00     0.147 N 
HETATM    3  C   UNL     1       1.650  13.600  91.800  1.00  0.00     0.283 C 
HETATM    4  C   UNL     1       3.670  14.895  92.003  1.00  0.00     0.283 C 
HETATM    5  C   UNL     1       1.279  14.009  93.224  1.00  0.00     0.178 C 
HETATM    6  C   UNL     1       3.253  15.273  93.420  1.00  0.00     0.178 C 
ENDROOT
BRANCH   2   7
HETATM    7  C   UNL     1       2.853  14.270  89.820  1.00  0.00     0.277 C 
BRANCH   7   8
HETATM    8  C   UNL     1       3.830  13.144  89.790  1.00  0.00     0.011 A 
HETATM    9  C   UNL     1       5.039  13.290  89.110  1.00  0.00    -0.002 A 
HETATM   10  C   UNL     1       5.954  12.237  89.080  1.00  0.00     0.008 A 
HETATM   11  C   UNL     1       5.658  11.040  89.732  1.00  0.00     0.042 A 
HETATM   12  C   UNL     1       4.451  10.893  90.411  1.00  0.00     0.008 A 
HETATM   13  C   UNL     1       3.536  11.946  90.441  1.00  0.00    -0.002 A 
BRANCH  11  14
HETATM   14  C   UNL     1       6.597   9.960  89.702  1.00  0.00    -0.059 C 
HETATM   15  C   UNL     1       7.386   9.054  89.679  1.00  0.00    -0.059 C 
BRANCH  15  16
HETATM   16  C   UNL     1       8.324   7.975  89.650  1.00  0.00     0.042 A 
HETATM   17  C   UNL     1       8.663   7.378  88.435  1.00  0.00     0.008 A 
HETATM   18  C   UNL     1       9.580   6.328  88.408  1.00  0.00     0.005 A 
HETATM   19  C   UNL     1      10.138   5.898  89.594  1.00  0.00     0.056 A 
HETATM   20  C   UNL     1       9.819   6.471  90.807  1.00  0.00     0.005 A 
HETATM   21  C   UNL     1       8.902   7.521  90.836  1.00  0.00     0.008 A 
BRANCH  19  22
HETATM   22  C   UNL     1      11.113   4.777  89.564  1.00  0.00     0.254 C 
HETATM   23  O   UNL     1      11.200   4.085  88.553  1.00  0.00    -0.268 OA
HETATM   24  N   UNL     1      11.886   4.614  90.705  1.00  0.00    -0.335 N 
HETATM   25  HN  UNL     1      11.776   5.241  91.494  1.00  0.00     0.164 HD
BRANCH  24  26
HETATM   26  C   UNL     1      12.892   3.588  90.820  1.00  0.00     0.166 C 
BRANCH  26  27
HETATM   27  C   UNL     1      14.271   4.148  91.192  1.00  0.00     0.138 C 
HETATM   28  C   UNL     1      15.328   3.058  91.320  1.00  0.00     0.034 C 
BRANCH  27  29
HETATM   29  O   UNL     1      14.689   5.085  90.199  1.00  0.00    -0.383 OA
HETATM   30  H   UNL     1      15.021   4.588  89.432  1.00  0.00     0.210 HD
ENDBRANCH  27  29
ENDBRANCH  26  27
BRANCH  26  31
HETATM   31  C   UNL     1      12.408   2.575  91.853  1.00  0.00     0.181 C 
HETATM   32  O   UNL     1      12.888   1.449  91.961  1.00  0.00    -0.294 OA
BRANCH  31  33
HETATM   33  C   UNL     1      12.385   3.203  93.347  1.00  0.00     0.138 C 
BRANCH  33  34
HETATM   34  C   UNL     1      11.177   3.934  93.318  1.00  0.00     0.208 C 
HETATM   35  O   UNL     1      10.276   3.448  92.673  1.00  0.00    -0.289 OA
BRANCH  34  36
HETATM   36  C   UNL     1      10.737   4.953  94.118  1.00  0.00     0.194 C 
HETATM   37  O   UNL     1       9.607   5.771  94.001  1.00  0.00    -0.185 OA
ENDBRANCH  34  36
ENDBRANCH  33  34
ENDBRANCH  31  33
ENDBRANCH  26  31
ENDBRANCH  24  26
ENDBRANCH  19  22
ENDBRANCH  15  16
ENDBRANCH  11  14
ENDBRANCH   7   8
ENDBRANCH   2   7
TORSDOF 12
ENDMDL
MODEL 5
REMARK VINA RESULT:      -3.4      1.379      1.804
REMARK  12 active torsions:
REMARK  status: ('A' for Active; 'I' for Inactive)
REMARK    1  A    between atoms: O_2  and  C_16 
REMARK    2  A    between atoms: N_5  and  C_9 
REMARK    3  A    between atoms: N_6  and  C_13 
REMARK       I    between atoms: N_6  and  C_22 
REMARK    4  A    between atoms: C_9  and  C_12 
REMARK    5  A    between atoms: C_13  and  C_16 
REMARK    6  A    between atoms: C_13  and  C_21 
REMARK    7  A    between atoms: C_19  and  C_24 
REMARK    8  A    between atoms: C_21  and  C_33 
REMARK    9  A    between atoms: C_22  and  C_23 
REMARK   10  A    between atoms: C_27  and  C_30 
REMARK   11  A    between atoms: C_33  and  C_34 
REMARK   12  A    between atoms: C_34  and  C_35 
ROOT
HETATM    1  O   UNL     1      17.121   2.588  92.065  1.00  0.00    -0.350 OA
HETATM    2  N   UNL     1      14.390   2.859  92.820  1.00  0.00     0.147 N 
HETATM    3  C   UNL     1      15.457   2.749  93.825  1.00  0.00     0.283 C 
HETATM    4  C   UNL     1      14.782   2.156  91.591  1.00  0.00     0.283 C 
HETATM    5  C   UNL     1      16.762   3.296  93.254  1.00  0.00     0.178 C 
HETATM    6  C   UNL     1      16.102   2.716  91.073  1.00  0.00     0.178 C 
ENDROOT
BRANCH   2   7
HETATM    7  C   UNL     1      13.131   2.330  93.343  1.00  0.00     0.277 C 
BRANCH   7   8
HETATM    8  C   UNL     1      12.010   3.305  93.218  1.00  0.00     0.011 A 
HETATM    9  C   UNL     1      11.064   3.152  92.204  1.00  0.00    -0.002 A 
HETATM   10  C   UNL     1      10.016   4.065  92.086  1.00  0.00     0.008 A 
HETATM   11  C   UNL     1       9.914   5.129  92.982  1.00  0.00     0.042 A 
HETATM   12  C   UNL     1      10.858   5.282  93.995  1.00  0.00     0.008 A 
HETATM   13  C   UNL     1      11.907   4.369  94.114  1.00  0.00    -0.002 A 
BRANCH  11  14
HETATM   14  C   UNL     1       8.838   6.064  92.861  1.00  0.00    -0.059 C 
HETATM   15  C   UNL     1       7.933   6.849  92.761  1.00  0.00    -0.059 C 
BRANCH  15  16
HETATM   16  C   UNL     1       6.858   7.784  92.641  1.00  0.00     0.042 A 
HETATM   17  C   UNL     1       7.130   9.129  92.387  1.00  0.00     0.008 A 
HETATM   18  C   UNL     1       6.081  10.040  92.267  1.00  0.00     0.005 A 
HETATM   19  C   UNL     1       4.785   9.588  92.403  1.00  0.00     0.056 A 
HETATM   20  C   UNL     1       4.491   8.264  92.655  1.00  0.00     0.005 A 
HETATM   21  C   UNL     1       5.539   7.351  92.775  1.00  0.00     0.008 A 
BRANCH  19  22
HETATM   22  C   UNL     1       3.668  10.559  92.278  1.00  0.00     0.254 C 
HETATM   23  O   UNL     1       2.523  10.193  92.530  1.00  0.00    -0.268 OA
HETATM   24  N   UNL     1       4.022  11.847  91.898  1.00  0.00    -0.335 N 
HETATM   25  HN  UNL     1       4.993  12.083  91.731  1.00  0.00     0.164 HD
BRANCH  24  26
HETATM   26  C   UNL     1       3.056  12.907  91.757  1.00  0.00     0.166 C 
BRANCH  26  27
HETATM   27  C   UNL     1       3.215  14.000  92.821  1.00  0.00     0.138 C 
HETATM   28  C   UNL     1       1.964  14.166  93.677  1.00  0.00     0.034 C 
BRANCH  27  29
HETATM   29  O   UNL     1       4.318  13.684  93.669  1.00  0.00    -0.383 OA
HETATM   30  H   UNL     1       4.989  13.223  93.137  1.00  0.00     0.210 HD
ENDBRANCH  27  29
ENDBRANCH  26  27
BRANCH  26  31
HETATM   31  C   UNL     1       3.195  13.478  90.350  1.00  0.00     0.181 C 
HETATM   32  O   UNL     1       2.358  14.224  89.844  1.00  0.00    -0.294 OA
BRANCH  31  33
HETATM   33  C   UNL     1       4.631  14.198  90.131  1.00  0.00     0.138 C 
BRANCH  33  34
HETATM   34  C   UNL     1       5.007  13.680  88.872  1.00  0.00     0.208 C 
HETATM   35  O   UNL     1       5.882  14.279  88.290  1.00  0.00    -0.289 OA
BRANCH  34  36
HETATM   36  C   UNL     1       4.766  12.458  88.307  1.00  0.00     0.194 C 
HETATM   37  O   UNL     1       5.246  11.190  88.654  1.00  0.00    -0.185 OA
ENDBRANCH  34  36
ENDBRANCH  33  34
ENDBRANCH  31  33
ENDBRANCH  26  31
ENDBRANCH  24  26
ENDBRANCH  19  22
ENDBRANCH  15  16
ENDBRANCH  11  14
ENDBRANCH   7   8
ENDBRANCH   2   7
TORSDOF 12
ENDMDL
