MODEL 1
REMARK VINA RESULT:      -7.4      0.000      0.000
REMARK  9 active torsions:
REMARK  status: ('A' for Active; 'I' for Inactive)
REMARK    1  A    between atoms: O_2  and  C_17 
REMARK    2  A    between atoms: N_5  and  C_10 
REMARK    3  A    between atoms: N_6  and  C_14 
REMARK       I    between atoms: N_6  and  C_23 
REMARK       I    between atoms: N_7  and  C_22 
REMARK    4  A    between atoms: C_10  and  C_13 
REMARK    5  A    between atoms: C_14  and  C_17 
REMARK    6  A    between atoms: C_14  and  C_22 
REMARK    7  A    between atoms: C_20  and  C_25 
REMARK    8  A    between atoms: C_23  and  C_24 
REMARK    9  A    between atoms: C_28  and  C_31 
ROOT
HETATM    1  O   UNL     1      16.432   4.094  94.115  1.00  0.00    -0.388 OA
HETATM    2  N   UNL     1      14.528   2.562  92.656  1.00  0.00     0.096 N 
HETATM    3  C   UNL     1      14.503   4.031  92.644  1.00  0.00     0.299 C 
HETATM    4  C   UNL     1      15.096   2.079  93.922  1.00  0.00     0.299 C 
HETATM    5  C   UNL     1      15.911   4.574  92.874  1.00  0.00     0.198 C 
HETATM    6  C   UNL     1      16.489   2.667  94.123  1.00  0.00     0.198 C 
ENDROOT
BRANCH   2   7
HETATM    7  C   UNL     1      13.187   2.020  92.447  1.00  0.00     0.311 C 
BRANCH   7   8
HETATM    8  C   UNL     1      12.208   3.067  92.037  1.00  0.00    -0.030 A 
HETATM    9  C   UNL     1      12.001   3.334  90.683  1.00  0.00     0.010 A 
HETATM   10  C   UNL     1      11.087   4.316  90.298  1.00  0.00     0.021 A 
HETATM   11  C   UNL     1      10.381   5.027  91.267  1.00  0.00     0.018 A 
HETATM   12  C   UNL     1      10.587   4.761  92.619  1.00  0.00     0.021 A 
HETATM   13  C   UNL     1      11.501   3.781  93.004  1.00  0.00     0.010 A 
BRANCH  11  14
HETATM   14  C   UNL     1       9.442   6.032  90.871  1.00  0.00    -0.061 C 
HETATM   15  C   UNL     1       8.653   6.877  90.540  1.00  0.00    -0.061 C 
BRANCH  15  16
HETATM   16  C   UNL     1       7.716   7.882  90.145  1.00  0.00     0.018 A 
HETATM   17  C   UNL     1       8.108   9.220  90.098  1.00  0.00     0.022 A 
HETATM   18  C   UNL     1       7.194  10.200  89.710  1.00  0.00     0.018 A 
HETATM   19  C   UNL     1       5.911   9.820  89.378  1.00  0.00     0.032 A 
HETATM   20  C   UNL     1       5.498   8.505  89.418  1.00  0.00     0.018 A 
HETATM   21  C   UNL     1       6.411   7.524  89.805  1.00  0.00     0.022 A 
BRANCH  19  22
HETATM   22  C   UNL     1       4.937  10.865  88.967  1.00  0.00     0.252 C 
HETATM   23  O   UNL     1       4.179  10.641  88.026  1.00  0.00    -0.268 OA
HETATM   24  N   UNL     1       4.946  12.033  89.716  1.00  0.00    -0.342 N 
HETATM   25  H   UNL     1       5.584  12.137  90.497  1.00  0.00     0.163 HD
BRANCH  24  26
HETATM   26  C   UNL     1       4.046  13.128  89.457  1.00  0.00     0.199 C 
BRANCH  26  27
HETATM   27  C   UNL     1       3.597  13.844  90.737  1.00  0.00     0.145 C 
HETATM   28  C   UNL     1       3.390  12.882  91.902  1.00  0.00     0.042 C 
BRANCH  27  29
HETATM   29  O   UNL     1       4.573  14.816  91.108  1.00  0.00    -0.393 OA
HETATM   30  H   UNL     1       4.167  15.429  91.744  1.00  0.00     0.210 HD
ENDBRANCH  27  29
ENDBRANCH  26  27
BRANCH  26  31
HETATM   31  C   UNL     1       4.745  14.089  88.500  1.00  0.00     0.220 C 
HETATM   32  O   UNL     1       5.101  15.219  88.828  1.00  0.00    -0.278 OA
HETATM   33  N   UNL     1       4.887  13.557  87.242  1.00  0.00    -0.271 NA
HETATM   34  H   UNL     1       4.527  12.668  86.915  1.00  0.00     0.127 HD
HETATM   35  H   UNL     1       4.206  13.906  86.065  1.00  0.00     0.127 HD
ENDBRANCH  26  31
ENDBRANCH  24  26
ENDBRANCH  19  22
ENDBRANCH  15  16
ENDBRANCH  11  14
ENDBRANCH   7   8
ENDBRANCH   2   7
TORSDOF 9
ENDMDL
MODEL 2
REMARK VINA RESULT:      -7.1      2.258      3.287
REMARK  9 active torsions:
REMARK  status: ('A' for Active; 'I' for Inactive)
REMARK    1  A    between atoms: O_2  and  C_17 
REMARK    2  A    between atoms: N_5  and  C_10 
REMARK    3  A    between atoms: N_6  and  C_14 
REMARK       I    between atoms: N_6  and  C_23 
REMARK       I    between atoms: N_7  and  C_22 
REMARK    4  A    between atoms: C_10  and  C_13 
REMARK    5  A    between atoms: C_14  and  C_17 
REMARK    6  A    between atoms: C_14  and  C_22 
REMARK    7  A    between atoms: C_20  and  C_25 
REMARK    8  A    between atoms: C_23  and  C_24 
REMARK    9  A    between atoms: C_28  and  C_31 
ROOT
HETATM    1  O   UNL     1      16.620   2.882  93.750  1.00  0.00    -0.388 OA
HETATM    2  N   UNL     1      13.851   2.880  93.091  1.00  0.00     0.096 N 
HETATM    3  C   UNL     1      14.630   1.635  93.137  1.00  0.00     0.299 C 
HETATM    4  C   UNL     1      14.724   4.007  92.738  1.00  0.00     0.299 C 
HETATM    5  C   UNL     1      15.785   1.784  94.124  1.00  0.00     0.198 C 
HETATM    6  C   UNL     1      15.877   4.101  93.733  1.00  0.00     0.198 C 
ENDROOT
BRANCH   2   7
HETATM    7  C   UNL     1      12.744   2.763  92.143  1.00  0.00     0.311 C 
BRANCH   7   8
HETATM    8  C   UNL     1      11.792   3.906  92.238  1.00  0.00    -0.030 A 
HETATM    9  C   UNL     1      11.440   4.418  93.488  1.00  0.00     0.010 A 
HETATM   10  C   UNL     1      10.548   5.486  93.578  1.00  0.00     0.021 A 
HETATM   11  C   UNL     1      10.009   6.042  92.418  1.00  0.00     0.018 A 
HETATM   12  C   UNL     1      10.360   5.532  91.170  1.00  0.00     0.021 A 
HETATM   13  C   UNL     1      11.252   4.464  91.079  1.00  0.00     0.010 A 
BRANCH  11  14
HETATM   14  C   UNL     1       9.095   7.140  92.511  1.00  0.00    -0.061 C 
HETATM   15  C   UNL     1       8.328   8.062  92.588  1.00  0.00    -0.061 C 
BRANCH  15  16
HETATM   16  C   UNL     1       7.415   9.158  92.680  1.00  0.00     0.018 A 
HETATM   17  C   UNL     1       6.890   9.726  91.518  1.00  0.00     0.022 A 
HETATM   18  C   UNL     1       5.997  10.794  91.608  1.00  0.00     0.018 A 
HETATM   19  C   UNL     1       5.649  11.269  92.855  1.00  0.00     0.032 A 
HETATM   20  C   UNL     1       6.154  10.725  94.017  1.00  0.00     0.018 A 
HETATM   21  C   UNL     1       7.047   9.657  93.929  1.00  0.00     0.022 A 
BRANCH  19  22
HETATM   22  C   UNL     1       4.699  12.408  92.950  1.00  0.00     0.252 C 
HETATM   23  O   UNL     1       4.315  12.778  94.057  1.00  0.00    -0.268 OA
HETATM   24  N   UNL     1       4.331  12.995  91.747  1.00  0.00    -0.342 N 
HETATM   25  H   UNL     1       4.709  12.651  90.872  1.00  0.00     0.163 HD
BRANCH  24  26
HETATM   26  C   UNL     1       3.438  14.123  91.676  1.00  0.00     0.199 C 
BRANCH  26  27
HETATM   27  C   UNL     1       3.345  14.718  90.265  1.00  0.00     0.145 C 
HETATM   28  C   UNL     1       4.671  15.299  89.788  1.00  0.00     0.042 C 
BRANCH  27  29
HETATM   29  O   UNL     1       2.925  13.708  89.348  1.00  0.00    -0.393 OA
HETATM   30  H   UNL     1       3.703  13.184  89.094  1.00  0.00     0.210 HD
ENDBRANCH  27  29
ENDBRANCH  26  27
BRANCH  26  31
HETATM   31  C   UNL     1       2.071  13.667  92.177  1.00  0.00     0.220 C 
HETATM   32  O   UNL     1       1.467  12.710  91.697  1.00  0.00    -0.278 OA
HETATM   33  N   UNL     1       1.594  14.469  93.185  1.00  0.00    -0.271 NA
HETATM   34  H   UNL     1       2.024  15.315  93.542  1.00  0.00     0.127 HD
HETATM   35  H   UNL     1       0.545  15.400  93.135  1.00  0.00     0.127 HD
ENDBRANCH  26  31
ENDBRANCH  24  26
ENDBRANCH  19  22
ENDBRANCH  15  16
ENDBRANCH  11  14
ENDBRANCH   7   8
ENDBRANCH   2   7
TORSDOF 9
ENDMDL
MODEL 3
REMARK VINA RESULT:      -7.0      1.615      2.204
REMARK  9 active torsions:
REMARK  status: ('A' for Active; 'I' for Inactive)
REMARK    1  A    between atoms: O_2  and  C_17 
REMARK    2  A    between atoms: N_5  and  C_10 
REMARK    3  A    between atoms: N_6  and  C_14 
REMARK       I    between atoms: N_6  and  C_23 
REMARK       I    between atoms: N_7  and  C_22 
REMARK    4  A    between atoms: C_10  and  C_13 
REMARK    5  A    between atoms: C_14  and  C_17 
REMARK    6  A    between atoms: C_14  and  C_22 
REMARK    7  A    between atoms: C_20  and  C_25 
REMARK    8  A    between atoms: C_23  and  C_24 
REMARK    9  A    between atoms: C_28  and  C_31 
ROOT
HETATM    1  O   UNL     1      16.269   3.165  93.705  1.00  0.00    -0.388 OA
HETATM    2  N   UNL     1      13.625   2.939  92.676  1.00  0.00     0.096 N 
HETATM    3  C   UNL     1      14.419   1.751  93.020  1.00  0.00     0.299 C 
HETATM    4  C   UNL     1      14.512   4.041  92.279  1.00  0.00     0.299 C 
HETATM    5  C   UNL     1      15.415   2.098  94.124  1.00  0.00     0.198 C 
HETATM    6  C   UNL     1      15.506   4.333  93.398  1.00  0.00     0.198 C 
ENDROOT
BRANCH   2   7
HETATM    7  C   UNL     1      12.670   2.632  91.612  1.00  0.00     0.311 C 
BRANCH   7   8
HETATM    8  C   UNL     1      11.633   3.692  91.456  1.00  0.00    -0.030 A 
HETATM    9  C   UNL     1      11.530   4.394  90.255  1.00  0.00     0.010 A 
HETATM   10  C   UNL     1      10.563   5.388  90.109  1.00  0.00     0.021 A 
HETATM   11  C   UNL     1       9.697   5.677  91.163  1.00  0.00     0.018 A 
HETATM   12  C   UNL     1       9.798   4.976  92.363  1.00  0.00     0.021 A 
HETATM   13  C   UNL     1      10.767   3.983  92.510  1.00  0.00     0.010 A 
BRANCH  11  14
HETATM   14  C   UNL     1       8.703   6.695  91.012  1.00  0.00    -0.061 C 
HETATM   15  C   UNL     1       7.867   7.550  90.886  1.00  0.00    -0.061 C 
BRANCH  15  16
HETATM   16  C   UNL     1       6.874   8.568  90.735  1.00  0.00     0.018 A 
HETATM   17  C   UNL     1       5.715   8.307  90.004  1.00  0.00     0.022 A 
HETATM   18  C   UNL     1       4.745   9.299  89.860  1.00  0.00     0.018 A 
HETATM   19  C   UNL     1       4.956  10.528  90.449  1.00  0.00     0.032 A 
HETATM   20  C   UNL     1       6.093  10.810  91.176  1.00  0.00     0.018 A 
HETATM   21  C   UNL     1       7.063   9.819  91.321  1.00  0.00     0.022 A 
BRANCH  19  22
HETATM   22  C   UNL     1       3.923  11.585  90.293  1.00  0.00     0.252 C 
HETATM   23  O   UNL     1       3.051  11.450  89.438  1.00  0.00    -0.268 OA
HETATM   24  N   UNL     1       4.016  12.659  91.168  1.00  0.00    -0.342 N 
HETATM   25  H   UNL     1       4.749  12.690  91.866  1.00  0.00     0.163 HD
BRANCH  24  26
HETATM   26  C   UNL     1       3.075  13.751  91.157  1.00  0.00     0.199 C 
BRANCH  26  27
HETATM   27  C   UNL     1       1.839  13.477  92.024  1.00  0.00     0.145 C 
HETATM   28  C   UNL     1       2.135  12.529  93.180  1.00  0.00     0.042 C 
BRANCH  27  29
HETATM   29  O   UNL     1       1.343  14.708  92.549  1.00  0.00    -0.393 OA
HETATM   30  H   UNL     1       0.658  15.043  91.946  1.00  0.00     0.210 HD
ENDBRANCH  27  29
ENDBRANCH  26  27
BRANCH  26  31
HETATM   31  C   UNL     1       3.811  15.004  91.620  1.00  0.00     0.220 C 
HETATM   32  O   UNL     1       3.503  15.624  92.637  1.00  0.00    -0.278 OA
HETATM   33  N   UNL     1       4.815  15.366  90.755  1.00  0.00    -0.271 NA
HETATM   34  H   UNL     1       5.036  14.932  89.867  1.00  0.00     0.127 HD
HETATM   35  H   UNL     1       4.852  16.457  89.872  1.00  0.00     0.127 HD
ENDBRANCH  26  31
ENDBRANCH  24  26
ENDBRANCH  19  22
ENDBRANCH  15  16
ENDBRANCH  11  14
ENDBRANCH   7   8
ENDBRANCH   2   7
TORSDOF 9
ENDMDL
MODEL 4
REMARK VINA RESULT:      -6.6      2.003      2.614
REMARK  9 active torsions:
REMARK  status: ('A' for Active; 'I' for Inactive)
REMARK    1  A    between atoms: O_2  and  C_17 
REMARK    2  A    between atoms: N_5  and  C_10 
REMARK    3  A    between atoms: N_6  and  C_14 
REMARK       I    between atoms: N_6  and  C_23 
REMARK       I    between atoms: N_7  and  C_22 
REMARK    4  A    between atoms: C_10  and  C_13 
REMARK    5  A    between atoms: C_14  and  C_17 
REMARK    6  A    between atoms: C_14  and  C_22 
REMARK    7  A    between atoms: C_20  and  C_25 
REMARK    8  A    between atoms: C_23  and  C_24 
REMARK    9  A    between atoms: C_28  and  C_31 
ROOT
HETATM    1  O   UNL     1      16.443   2.908  93.708  1.00  0.00    -0.388 OA
HETATM    2  N   UNL     1      13.729   2.932  92.851  1.00  0.00     0.096 N 
HETATM    3  C   UNL     1      14.453   1.673  93.074  1.00  0.00     0.299 C 
HETATM    4  C   UNL     1      14.669   3.990  92.456  1.00  0.00     0.299 C 
HETATM    5  C   UNL     1      15.541   1.881  94.124  1.00  0.00     0.198 C 
HETATM    6  C   UNL     1      15.752   4.143  93.519  1.00  0.00     0.198 C 
ENDROOT
BRANCH   2   7
HETATM    7  C   UNL     1      12.687   2.759  91.840  1.00  0.00     0.311 C 
BRANCH   7   8
HETATM    8  C   UNL     1      11.642   3.819  91.914  1.00  0.00    -0.030 A 
HETATM    9  C   UNL     1      10.994   4.241  90.752  1.00  0.00     0.010 A 
HETATM   10  C   UNL     1      10.017   5.234  90.820  1.00  0.00     0.021 A 
HETATM   11  C   UNL     1       9.687   5.803  92.050  1.00  0.00     0.018 A 
HETATM   12  C   UNL     1      10.333   5.382  93.211  1.00  0.00     0.021 A 
HETATM   13  C   UNL     1      11.310   4.389  93.143  1.00  0.00     0.010 A 
BRANCH  11  14
HETATM   14  C   UNL     1       8.683   6.820  92.120  1.00  0.00    -0.061 C 
HETATM   15  C   UNL     1       7.840   7.675  92.179  1.00  0.00    -0.061 C 
BRANCH  15  16
HETATM   16  C   UNL     1       6.838   8.693  92.249  1.00  0.00     0.018 A 
HETATM   17  C   UNL     1       5.497   8.363  92.052  1.00  0.00     0.022 A 
HETATM   18  C   UNL     1       4.519   9.355  92.123  1.00  0.00     0.018 A 
HETATM   19  C   UNL     1       4.903  10.653  92.389  1.00  0.00     0.032 A 
HETATM   20  C   UNL     1       6.222  11.004  92.587  1.00  0.00     0.018 A 
HETATM   21  C   UNL     1       7.201  10.012  92.517  1.00  0.00     0.022 A 
BRANCH  19  22
HETATM   22  C   UNL     1       3.861  11.709  92.463  1.00  0.00     0.252 C 
HETATM   23  O   UNL     1       2.883  11.538  93.186  1.00  0.00    -0.268 OA
HETATM   24  N   UNL     1       4.096  12.848  91.705  1.00  0.00    -0.342 N 
HETATM   25  H   UNL     1       4.940  12.930  91.150  1.00  0.00     0.163 HD
BRANCH  24  26
HETATM   26  C   UNL     1       3.191  13.970  91.690  1.00  0.00     0.199 C 
BRANCH  26  27
HETATM   27  C   UNL     1       3.845  15.266  92.183  1.00  0.00     0.145 C 
HETATM   28  C   UNL     1       4.388  15.143  93.603  1.00  0.00     0.042 C 
BRANCH  27  29
HETATM   29  O   UNL     1       4.914  15.625  91.308  1.00  0.00    -0.393 OA
HETATM   30  H   UNL     1       4.586  15.587  90.394  1.00  0.00     0.210 HD
ENDBRANCH  27  29
ENDBRANCH  26  27
BRANCH  26  31
HETATM   31  C   UNL     1       2.662  14.122  90.268  1.00  0.00     0.220 C 
HETATM   32  O   UNL     1       1.522  14.509  90.015  1.00  0.00    -0.278 OA
HETATM   33  N   UNL     1       3.588  13.743  89.326  1.00  0.00    -0.271 NA
HETATM   34  H   UNL     1       4.500  13.337  89.500  1.00  0.00     0.127 HD
HETATM   35  H   UNL     1       3.585  12.600  88.512  1.00  0.00     0.127 HD
ENDBRANCH  26  31
ENDBRANCH  24  26
ENDBRANCH  19  22
ENDBRANCH  15  16
ENDBRANCH  11  14
ENDBRANCH   7   8
ENDBRANCH   2   7
TORSDOF 9
ENDMDL
MODEL 5
REMARK VINA RESULT:      -5.8      2.292     12.140
REMARK  9 active torsions:
REMARK  status: ('A' for Active; 'I' for Inactive)
REMARK    1  A    between atoms: O_2  and  C_17 
REMARK    2  A    between atoms: N_5  and  C_10 
REMARK    3  A    between atoms: N_6  and  C_14 
REMARK       I    between atoms: N_6  and  C_23 
REMARK       I    between atoms: N_7  and  C_22 
REMARK    4  A    between atoms: C_10  and  C_13 
REMARK    5  A    between atoms: C_14  and  C_17 
REMARK    6  A    between atoms: C_14  and  C_22 
REMARK    7  A    between atoms: C_20  and  C_25 
REMARK    8  A    between atoms: C_23  and  C_24 
REMARK    9  A    between atoms: C_28  and  C_31 
ROOT
HETATM    1  O   UNL     1       3.395  14.677  93.535  1.00  0.00    -0.388 OA
HETATM    2  N   UNL     1       2.898  14.198  90.773  1.00  0.00     0.096 N 
HETATM    3  C   UNL     1       2.328  13.335  91.817  1.00  0.00     0.299 C 
HETATM    4  C   UNL     1       4.166  14.778  91.237  1.00  0.00     0.299 C 
HETATM    5  C   UNL     1       2.145  14.133  93.105  1.00  0.00     0.198 C 
HETATM    6  C   UNL     1       3.941  15.541  92.539  1.00  0.00     0.198 C 
ENDROOT
BRANCH   2   7
HETATM    7  C   UNL     1       3.092  13.451  89.532  1.00  0.00     0.311 C 
BRANCH   7   8
HETATM    8  C   UNL     1       4.040  12.312  89.697  1.00  0.00    -0.030 A 
HETATM    9  C   UNL     1       3.551  11.011  89.817  1.00  0.00     0.010 A 
HETATM   10  C   UNL     1       4.437   9.945  89.973  1.00  0.00     0.021 A 
HETATM   11  C   UNL     1       5.811  10.181  90.007  1.00  0.00     0.018 A 
HETATM   12  C   UNL     1       6.300  11.480  89.887  1.00  0.00     0.021 A 
HETATM   13  C   UNL     1       5.414  12.546  89.731  1.00  0.00     0.010 A 
BRANCH  11  14
HETATM   14  C   UNL     1       6.720   9.087  90.165  1.00  0.00    -0.061 C 
HETATM   15  C   UNL     1       7.484   8.168  90.299  1.00  0.00    -0.061 C 
BRANCH  15  16
HETATM   16  C   UNL     1       8.391   7.075  90.457  1.00  0.00     0.018 A 
HETATM   17  C   UNL     1       8.813   6.352  89.341  1.00  0.00     0.022 A 
HETATM   18  C   UNL     1       9.700   5.287  89.496  1.00  0.00     0.018 A 
HETATM   19  C   UNL     1      10.147   4.970  90.762  1.00  0.00     0.032 A 
HETATM   20  C   UNL     1       9.745   5.670  91.881  1.00  0.00     0.018 A 
HETATM   21  C   UNL     1       8.857   6.734  91.727  1.00  0.00     0.022 A 
BRANCH  19  22
HETATM   22  C   UNL     1      11.091   3.835  90.927  1.00  0.00     0.252 C 
HETATM   23  O   UNL     1      10.873   2.782  90.332  1.00  0.00    -0.268 OA
HETATM   24  N   UNL     1      12.188   4.070  91.744  1.00  0.00    -0.342 N 
HETATM   25  H   UNL     1      12.316   4.974  92.183  1.00  0.00     0.163 HD
BRANCH  24  26
HETATM   26  C   UNL     1      13.204   3.077  91.982  1.00  0.00     0.199 C 
BRANCH  26  27
HETATM   27  C   UNL     1      14.614   3.575  91.640  1.00  0.00     0.145 C 
HETATM   28  C   UNL     1      14.660   4.330  90.316  1.00  0.00     0.042 C 
BRANCH  27  29
HETATM   29  O   UNL     1      15.083   4.433  92.679  1.00  0.00    -0.393 OA
HETATM   30  H   UNL     1      14.381   4.516  93.346  1.00  0.00     0.210 HD
ENDBRANCH  27  29
ENDBRANCH  26  27
BRANCH  26  31
HETATM   31  C   UNL     1      13.107   2.652  93.444  1.00  0.00     0.220 C 
HETATM   32  O   UNL     1      12.096   2.820  94.124  1.00  0.00    -0.278 OA
HETATM   33  N   UNL     1      14.280   2.107  93.906  1.00  0.00    -0.271 NA
HETATM   34  H   UNL     1      15.156   2.036  93.401  1.00  0.00     0.127 HD
HETATM   35  H   UNL     1      15.206   2.662  94.803  1.00  0.00     0.127 HD
ENDBRANCH  26  31
ENDBRANCH  24  26
ENDBRANCH  19  22
ENDBRANCH  15  16
ENDBRANCH  11  14
ENDBRANCH   7   8
ENDBRANCH   2   7
TORSDOF 9
ENDMDL
MODEL 6
REMARK VINA RESULT:      -5.8      1.995     12.306
REMARK  9 active torsions:
REMARK  status: ('A' for Active; 'I' for Inactive)
REMARK    1  A    between atoms: O_2  and  C_17 
REMARK    2  A    between atoms: N_5  and  C_10 
REMARK    3  A    between atoms: N_6  and  C_14 
REMARK       I    between atoms: N_6  and  C_23 
REMARK       I    between atoms: N_7  and  C_22 
REMARK    4  A    between atoms: C_10  and  C_13 
REMARK    5  A    between atoms: C_14  and  C_17 
REMARK    6  A    between atoms: C_14  and  C_22 
REMARK    7  A    between atoms: C_20  and  C_25 
REMARK    8  A    between atoms: C_23  and  C_24 
REMARK    9  A    between atoms: C_28  and  C_31 
ROOT
HETATM    1  O   UNL     1       5.625  14.721  88.811  1.00  0.00    -0.388 OA
HETATM    2  N   UNL     1       3.603  13.140  90.040  1.00  0.00     0.096 N 
HETATM    3  C   UNL     1       4.233  14.265  90.745  1.00  0.00     0.299 C 
HETATM    4  C   UNL     1       4.543  12.566  89.068  1.00  0.00     0.299 C 
HETATM    5  C   UNL     1       4.708  15.307  89.736  1.00  0.00     0.198 C 
HETATM    6  C   UNL     1       5.011  13.646  88.099  1.00  0.00     0.198 C 
ENDROOT
BRANCH   2   7
HETATM    7  C   UNL     1       3.150  12.124  90.989  1.00  0.00     0.311 C 
BRANCH   7   8
HETATM    8  C   UNL     1       4.196  11.100  91.266  1.00  0.00    -0.030 A 
HETATM    9  C   UNL     1       5.174  11.346  92.231  1.00  0.00     0.010 A 
HETATM   10  C   UNL     1       6.154  10.389  92.491  1.00  0.00     0.021 A 
HETATM   11  C   UNL     1       6.156   9.185  91.787  1.00  0.00     0.018 A 
HETATM   12  C   UNL     1       5.181   8.938  90.823  1.00  0.00     0.021 A 
HETATM   13  C   UNL     1       4.200   9.895  90.563  1.00  0.00     0.010 A 
BRANCH  11  14
HETATM   14  C   UNL     1       7.161   8.203  92.054  1.00  0.00    -0.061 C 
HETATM   15  C   UNL     1       8.006   7.377  92.280  1.00  0.00    -0.061 C 
BRANCH  15  16
HETATM   16  C   UNL     1       9.009   6.395  92.547  1.00  0.00     0.018 A 
HETATM   17  C   UNL     1       9.413   5.519  91.539  1.00  0.00     0.022 A 
HETATM   18  C   UNL     1      10.394   4.563  91.799  1.00  0.00     0.018 A 
HETATM   19  C   UNL     1      10.949   4.503  93.060  1.00  0.00     0.032 A 
HETATM   20  C   UNL     1      10.567   5.357  94.074  1.00  0.00     0.018 A 
HETATM   21  C   UNL     1       9.586   6.314  93.815  1.00  0.00     0.022 A 
BRANCH  19  22
HETATM   22  C   UNL     1      11.993   3.483  93.338  1.00  0.00     0.252 C 
HETATM   23  O   UNL     1      11.715   2.292  93.218  1.00  0.00    -0.268 OA
HETATM   24  N   UNL     1      13.241   3.972  93.697  1.00  0.00    -0.342 N 
HETATM   25  H   UNL     1      13.405   4.970  93.751  1.00  0.00     0.163 HD
BRANCH  24  26
HETATM   26  C   UNL     1      14.362   3.109  93.973  1.00  0.00     0.199 C 
BRANCH  26  27
HETATM   27  C   UNL     1      14.443   1.915  93.014  1.00  0.00     0.145 C 
HETATM   28  C   UNL     1      15.167   2.256  91.717  1.00  0.00     0.042 C 
BRANCH  27  29
HETATM   29  O   UNL     1      15.121   0.834  93.654  1.00  0.00    -0.393 OA
HETATM   30  H   UNL     1      15.114   0.071  93.052  1.00  0.00     0.210 HD
ENDBRANCH  27  29
ENDBRANCH  26  27
BRANCH  26  31
HETATM   31  C   UNL     1      15.629   3.957  93.911  1.00  0.00     0.220 C 
HETATM   32  O   UNL     1      15.617   5.161  93.663  1.00  0.00    -0.278 OA
HETATM   33  N   UNL     1      16.763   3.211  94.124  1.00  0.00    -0.271 NA
HETATM   34  H   UNL     1      16.815   2.206  94.242  1.00  0.00     0.127 HD
HETATM   35  H   UNL     1      17.746   2.836  93.195  1.00  0.00     0.127 HD
ENDBRANCH  26  31
ENDBRANCH  24  26
ENDBRANCH  19  22
ENDBRANCH  15  16
ENDBRANCH  11  14
ENDBRANCH   7   8
ENDBRANCH   2   7
TORSDOF 9
ENDMDL
MODEL 7
REMARK VINA RESULT:      -5.6      1.981     12.219
REMARK  9 active torsions:
REMARK  status: ('A' for Active; 'I' for Inactive)
REMARK    1  A    between atoms: O_2  and  C_17 
REMARK    2  A    between atoms: N_5  and  C_10 
REMARK    3  A    between atoms: N_6  and  C_14 
REMARK       I    between atoms: N_6  and  C_23 
REMARK       I    between atoms: N_7  and  C_22 
REMARK    4  A    between atoms: C_10  and  C_13 
REMARK    5  A    between atoms: C_14  and  C_17 
REMARK    6  A    between atoms: C_14  and  C_22 
REMARK    7  A    between atoms: C_20  and  C_25 
REMARK    8  A    between atoms: C_23  and  C_24 
REMARK    9  A    between atoms: C_28  and  C_31 
ROOT
HETATM    1  O   UNL     1       5.461  14.811  89.131  1.00  0.00    -0.388 OA
HETATM    2  N   UNL     1       3.471  13.230  90.413  1.00  0.00     0.096 N 
HETATM    3  C   UNL     1       4.229  14.254  91.146  1.00  0.00     0.299 C 
HETATM    4  C   UNL     1       4.282  12.698  89.309  1.00  0.00     0.299 C 
HETATM    5  C   UNL     1       4.669  15.357  90.187  1.00  0.00     0.198 C 
HETATM    6  C   UNL     1       4.721  13.836  88.394  1.00  0.00     0.198 C 
ENDROOT
BRANCH   2   7
HETATM    7  C   UNL     1       3.048  12.157  91.311  1.00  0.00     0.311 C 
BRANCH   7   8
HETATM    8  C   UNL     1       4.125  11.153  91.543  1.00  0.00    -0.030 A 
HETATM    9  C   UNL     1       4.063   9.908  90.917  1.00  0.00     0.010 A 
HETATM   10  C   UNL     1       5.068   8.966  91.135  1.00  0.00     0.021 A 
HETATM   11  C   UNL     1       6.137   9.272  91.977  1.00  0.00     0.018 A 
HETATM   12  C   UNL     1       6.201  10.515  92.603  1.00  0.00     0.021 A 
HETATM   13  C   UNL     1       5.195  11.456  92.386  1.00  0.00     0.010 A 
BRANCH  11  14
HETATM   14  C   UNL     1       7.170   8.307  92.199  1.00  0.00    -0.061 C 
HETATM   15  C   UNL     1       8.038   7.496  92.384  1.00  0.00    -0.061 C 
BRANCH  15  16
HETATM   16  C   UNL     1       9.071   6.532  92.606  1.00  0.00     0.018 A 
HETATM   17  C   UNL     1       9.400   6.151  93.907  1.00  0.00     0.022 A 
HETATM   18  C   UNL     1      10.406   5.209  94.123  1.00  0.00     0.018 A 
HETATM   19  C   UNL     1      11.059   4.669  93.034  1.00  0.00     0.032 A 
HETATM   20  C   UNL     1      10.752   5.030  91.739  1.00  0.00     0.018 A 
HETATM   21  C   UNL     1       9.746   5.972  91.522  1.00  0.00     0.022 A 
BRANCH  19  22
HETATM   22  C   UNL     1      12.131   3.667  93.264  1.00  0.00     0.252 C 
HETATM   23  O   UNL     1      11.836   2.477  93.330  1.00  0.00    -0.268 OA
HETATM   24  N   UNL     1      13.421   4.170  93.366  1.00  0.00    -0.342 N 
HETATM   25  H   UNL     1      13.593   5.164  93.276  1.00  0.00     0.163 HD
BRANCH  24  26
HETATM   26  C   UNL     1      14.570   3.323  93.565  1.00  0.00     0.199 C 
BRANCH  26  27
HETATM   27  C   UNL     1      14.904   2.476  92.331  1.00  0.00     0.145 C 
HETATM   28  C   UNL     1      14.354   3.078  91.043  1.00  0.00     0.042 C 
BRANCH  27  29
HETATM   29  O   UNL     1      16.320   2.342  92.212  1.00  0.00    -0.393 OA
HETATM   30  H   UNL     1      16.735   2.860  92.922  1.00  0.00     0.210 HD
ENDBRANCH  27  29
ENDBRANCH  26  27
BRANCH  26  31
HETATM   31  C   UNL     1      15.743   4.214  93.959  1.00  0.00     0.220 C 
HETATM   32  O   UNL     1      15.647   5.435  94.078  1.00  0.00    -0.278 OA
HETATM   33  N   UNL     1      16.905   3.500  94.124  1.00  0.00    -0.271 NA
HETATM   34  H   UNL     1      17.040   2.512  93.948  1.00  0.00     0.127 HD
HETATM   35  H   UNL     1      18.039   3.479  93.297  1.00  0.00     0.127 HD
ENDBRANCH  26  31
ENDBRANCH  24  26
ENDBRANCH  19  22
ENDBRANCH  15  16
ENDBRANCH  11  14
ENDBRANCH   7   8
ENDBRANCH   2   7
TORSDOF 9
ENDMDL
MODEL 8
REMARK VINA RESULT:      -5.5      2.053     12.308
REMARK  9 active torsions:
REMARK  status: ('A' for Active; 'I' for Inactive)
REMARK    1  A    between atoms: O_2  and  C_17 
REMARK    2  A    between atoms: N_5  and  C_10 
REMARK    3  A    between atoms: N_6  and  C_14 
REMARK       I    between atoms: N_6  and  C_23 
REMARK       I    between atoms: N_7  and  C_22 
REMARK    4  A    between atoms: C_10  and  C_13 
REMARK    5  A    between atoms: C_14  and  C_17 
REMARK    6  A    between atoms: C_14  and  C_22 
REMARK    7  A    between atoms: C_20  and  C_25 
REMARK    8  A    between atoms: C_23  and  C_24 
REMARK    9  A    between atoms: C_28  and  C_31 
ROOT
HETATM    1  O   UNL     1       3.531  14.927  92.776  1.00  0.00    -0.388 OA
HETATM    2  N   UNL     1       3.077  13.562  90.320  1.00  0.00     0.096 N 
HETATM    3  C   UNL     1       2.260  13.292  91.510  1.00  0.00     0.299 C 
HETATM    4  C   UNL     1       4.422  13.997  90.721  1.00  0.00     0.299 C 
HETATM    5  C   UNL     1       2.210  14.534  92.397  1.00  0.00     0.198 C 
HETATM    6  C   UNL     1       4.323  15.221  91.625  1.00  0.00     0.198 C 
ENDROOT
BRANCH   2   7
HETATM    7  C   UNL     1       3.147  12.382  89.461  1.00  0.00     0.311 C 
BRANCH   7   8
HETATM    8  C   UNL     1       4.218  11.434  89.884  1.00  0.00    -0.030 A 
HETATM    9  C   UNL     1       3.943  10.453  90.837  1.00  0.00     0.010 A 
HETATM   10  C   UNL     1       4.944   9.567  91.235  1.00  0.00     0.021 A 
HETATM   11  C   UNL     1       6.219   9.662  90.678  1.00  0.00     0.018 A 
HETATM   12  C   UNL     1       6.495  10.641  89.726  1.00  0.00     0.021 A 
HETATM   13  C   UNL     1       5.494  11.528  89.328  1.00  0.00     0.010 A 
BRANCH  11  14
HETATM   14  C   UNL     1       7.245   8.752  91.085  1.00  0.00    -0.061 C 
HETATM   15  C   UNL     1       8.108   7.988  91.427  1.00  0.00    -0.061 C 
BRANCH  15  16
HETATM   16  C   UNL     1       9.134   7.079  91.834  1.00  0.00     0.018 A 
HETATM   17  C   UNL     1       9.567   7.067  93.161  1.00  0.00     0.022 A 
HETATM   18  C   UNL     1      10.566   6.178  93.558  1.00  0.00     0.018 A 
HETATM   19  C   UNL     1      11.108   5.323  92.623  1.00  0.00     0.032 A 
HETATM   20  C   UNL     1      10.698   5.316  91.306  1.00  0.00     0.018 A 
HETATM   21  C   UNL     1       9.699   6.204  90.907  1.00  0.00     0.022 A 
BRANCH  19  22
HETATM   22  C   UNL     1      12.174   4.378  93.047  1.00  0.00     0.252 C 
HETATM   23  O   UNL     1      12.020   3.723  94.075  1.00  0.00    -0.268 OA
HETATM   24  N   UNL     1      13.277   4.290  92.209  1.00  0.00    -0.342 N 
HETATM   25  H   UNL     1      13.323   4.844  91.362  1.00  0.00     0.163 HD
BRANCH  24  26
HETATM   26  C   UNL     1      14.381   3.402  92.472  1.00  0.00     0.199 C 
BRANCH  26  27
HETATM   27  C   UNL     1      15.220   3.838  93.679  1.00  0.00     0.145 C 
HETATM   28  C   UNL     1      16.398   2.906  93.939  1.00  0.00     0.042 C 
BRANCH  27  29
HETATM   29  O   UNL     1      15.714   5.160  93.465  1.00  0.00    -0.393 OA
HETATM   30  H   UNL     1      16.593   5.095  93.056  1.00  0.00     0.210 HD
ENDBRANCH  27  29
ENDBRANCH  26  27
BRANCH  26  31
HETATM   31  C   UNL     1      13.814   2.000  92.667  1.00  0.00     0.220 C 
HETATM   32  O   UNL     1      14.338   1.161  93.399  1.00  0.00    -0.278 OA
HETATM   33  N   UNL     1      12.689   1.784  91.909  1.00  0.00    -0.271 NA
HETATM   34  H   UNL     1      12.284   2.419  91.231  1.00  0.00     0.127 HD
HETATM   35  H   UNL     1      12.549   0.979  90.767  1.00  0.00     0.127 HD
ENDBRANCH  26  31
ENDBRANCH  24  26
ENDBRANCH  19  22
ENDBRANCH  15  16
ENDBRANCH  11  14
ENDBRANCH   7   8
ENDBRANCH   2   7
TORSDOF 9
ENDMDL
MODEL 9
REMARK VINA RESULT:      -5.5      1.744     12.360
REMARK  9 active torsions:
REMARK  status: ('A' for Active; 'I' for Inactive)
REMARK    1  A    between atoms: O_2  and  C_17 
REMARK    2  A    between atoms: N_5  and  C_10 
REMARK    3  A    between atoms: N_6  and  C_14 
REMARK       I    between atoms: N_6  and  C_23 
REMARK       I    between atoms: N_7  and  C_22 
REMARK    4  A    between atoms: C_10  and  C_13 
REMARK    5  A    between atoms: C_14  and  C_17 
REMARK    6  A    between atoms: C_14  and  C_22 
REMARK    7  A    between atoms: C_20  and  C_25 
REMARK    8  A    between atoms: C_23  and  C_24 
REMARK    9  A    between atoms: C_28  and  C_31 
ROOT
HETATM    1  O   UNL     1       3.286  13.972  92.140  1.00  0.00    -0.388 OA
HETATM    2  N   UNL     1       3.662  13.090  89.459  1.00  0.00     0.096 N 
HETATM    3  C   UNL     1       3.198  12.175  90.511  1.00  0.00     0.299 C 
HETATM    4  C   UNL     1       4.498  14.148  90.046  1.00  0.00     0.299 C 
HETATM    5  C   UNL     1       2.446  12.958  91.584  1.00  0.00     0.198 C 
HETATM    6  C   UNL     1       3.717  14.884  91.129  1.00  0.00     0.198 C 
ENDROOT
BRANCH   2   7
HETATM    7  C   UNL     1       4.395  12.362  88.425  1.00  0.00     0.311 C 
BRANCH   7   8
HETATM    8  C   UNL     1       5.315  11.337  88.996  1.00  0.00    -0.030 A 
HETATM    9  C   UNL     1       4.845  10.049  89.258  1.00  0.00     0.010 A 
HETATM   10  C   UNL     1       5.704   9.089  89.794  1.00  0.00     0.021 A 
HETATM   11  C   UNL     1       7.032   9.417  90.066  1.00  0.00     0.018 A 
HETATM   12  C   UNL     1       7.502  10.703  89.805  1.00  0.00     0.021 A 
HETATM   13  C   UNL     1       6.643  11.663  89.269  1.00  0.00     0.010 A 
BRANCH  11  14
HETATM   14  C   UNL     1       7.913   8.432  90.614  1.00  0.00    -0.061 C 
HETATM   15  C   UNL     1       8.653   7.605  91.075  1.00  0.00    -0.061 C 
BRANCH  15  16
HETATM   16  C   UNL     1       9.533   6.620  91.623  1.00  0.00     0.018 A 
HETATM   17  C   UNL     1      10.141   5.685  90.785  1.00  0.00     0.022 A 
HETATM   18  C   UNL     1      11.002   4.727  91.320  1.00  0.00     0.018 A 
HETATM   19  C   UNL     1      11.236   4.725  92.679  1.00  0.00     0.032 A 
HETATM   20  C   UNL     1      10.647   5.638  93.528  1.00  0.00     0.018 A 
HETATM   21  C   UNL     1       9.786   6.597  92.995  1.00  0.00     0.022 A 
BRANCH  19  22
HETATM   22  C   UNL     1      12.151   3.702  93.248  1.00  0.00     0.252 C 
HETATM   23  O   UNL     1      11.697   2.609  93.579  1.00  0.00    -0.268 OA
HETATM   24  N   UNL     1      13.487   4.066  93.341  1.00  0.00    -0.342 N 
HETATM   25  H   UNL     1      13.793   4.978  93.024  1.00  0.00     0.163 HD
BRANCH  24  26
HETATM   26  C   UNL     1      14.500   3.176  93.848  1.00  0.00     0.199 C 
BRANCH  26  27
HETATM   27  C   UNL     1      14.648   1.903  93.005  1.00  0.00     0.145 C 
HETATM   28  C   UNL     1      15.606   2.088  91.833  1.00  0.00     0.042 C 
BRANCH  27  29
HETATM   29  O   UNL     1      15.124   0.838  93.828  1.00  0.00    -0.393 OA
HETATM   30  H   UNL     1      15.699   0.270  93.289  1.00  0.00     0.210 HD
ENDBRANCH  27  29
ENDBRANCH  26  27
BRANCH  26  31
HETATM   31  C   UNL     1      15.811   3.952  93.916  1.00  0.00     0.220 C 
HETATM   32  O   UNL     1      15.876   5.171  93.765  1.00  0.00    -0.278 OA
HETATM   33  N   UNL     1      16.891   3.129  94.123  1.00  0.00    -0.271 NA
HETATM   34  H   UNL     1      16.884   2.117  94.163  1.00  0.00     0.127 HD
HETATM   35  H   UNL     1      17.901   2.772  93.216  1.00  0.00     0.127 HD
ENDBRANCH  26  31
ENDBRANCH  24  26
ENDBRANCH  19  22
ENDBRANCH  15  16
ENDBRANCH  11  14
ENDBRANCH   7   8
ENDBRANCH   2   7
TORSDOF 9
ENDMDL
