MODEL 1
REMARK VINA RESULT:      -7.0      0.000      0.000
REMARK  10 active torsions:
REMARK  status: ('A' for Active; 'I' for Inactive)
REMARK    1  A    between atoms: O_2  and  C_18 
REMARK    2  A    between atoms: O_5  and  N_8 
REMARK    3  A    between atoms: N_6  and  C_11 
REMARK    4  A    between atoms: N_7  and  C_15 
REMARK       I    between atoms: N_7  and  C_24 
REMARK       I    between atoms: N_8  and  C_23 
REMARK    5  A    between atoms: C_11  and  C_14 
REMARK    6  A    between atoms: C_15  and  C_18 
REMARK    7  A    between atoms: C_15  and  C_23 
REMARK    8  A    between atoms: C_21  and  C_26 
REMARK    9  A    between atoms: C_24  and  C_25 
REMARK   10  A    between atoms: C_29  and  C_32 
ROOT
HETATM    1  O   UNK     0      16.606   4.306  94.122  0.00  0.00    -0.388 OA
HETATM    2  N   UNK     0      14.845   2.583  92.696  0.00  0.00     0.096 N 
HETATM    3  C   UNK     0      14.663   4.042  92.692  0.00  0.00     0.299 C 
HETATM    4  C   UNK     0      15.488   2.160  93.947  0.00  0.00     0.299 C 
HETATM    5  C   UNK     0      16.010   4.731  92.894  0.00  0.00     0.198 C 
HETATM    6  C   UNK     0      16.815   2.894  94.122  0.00  0.00     0.198 C 
ENDROOT
BRANCH   2   7
HETATM    7  C   UNK     0      13.565   1.902  92.514  0.00  0.00     0.311 C 
BRANCH   7   8
HETATM    8  C   UNK     0      12.454   2.850  92.216  0.00  0.00    -0.030 A 
HETATM    9  C   UNK     0      11.840   3.552  93.255  0.00  0.00     0.010 A 
HETATM   10  C   UNK     0      10.799   4.438  92.978  0.00  0.00     0.021 A 
HETATM   11  C   UNK     0      10.374   4.623  91.663  0.00  0.00     0.018 A 
HETATM   12  C   UNK     0      10.986   3.922  90.625  0.00  0.00     0.021 A 
HETATM   13  C   UNK     0      12.026   3.036  90.902  0.00  0.00     0.010 A 
BRANCH  11  14
HETATM   14  C   UNK     0       9.307   5.533  91.378  0.00  0.00    -0.061 C 
HETATM   15  C   UNK     0       8.411   6.298  91.140  0.00  0.00    -0.061 C 
BRANCH  15  16
HETATM   16  C   UNK     0       7.346   7.206  90.854  0.00  0.00     0.018 A 
HETATM   17  C   UNK     0       6.368   6.863  89.919  0.00  0.00     0.022 A 
HETATM   18  C   UNK     0       5.327   7.749  89.642  0.00  0.00     0.018 A 
HETATM   19  C   UNK     0       5.285   8.957  90.306  0.00  0.00     0.032 A 
HETATM   20  C   UNK     0       6.238   9.320  91.234  0.00  0.00     0.018 A 
HETATM   21  C   UNK     0       7.280   8.435  91.511  0.00  0.00     0.022 A 
BRANCH  19  22
HETATM   22  C   UNK     0       4.177   9.901  90.009  0.00  0.00     0.252 C 
HETATM   23  O   UNK     0       3.084   9.455  89.668  0.00  0.00    -0.268 OA
HETATM   24  N   UNK     0       4.468  11.249  90.167  0.00  0.00    -0.341 N 
HETATM   25  H   UNK     0       5.387  11.543  90.476  0.00  0.00     0.163 HD
BRANCH  24  26
HETATM   26  C   UNK     0       3.492  12.285  89.941  0.00  0.00     0.207 C 
BRANCH  26  27
HETATM   27  C   UNK     0       3.074  12.999  91.233  0.00  0.00     0.146 C 
HETATM   28  C   UNK     0       2.396  12.061  92.226  0.00  0.00     0.042 C 
BRANCH  27  29
HETATM   29  O   UNK     0       4.223  13.577  91.852  0.00  0.00    -0.393 OA
HETATM   30  H   UNK     0       4.774  13.978  91.158  0.00  0.00     0.210 HD
ENDBRANCH  27  29
ENDBRANCH  26  27
BRANCH  26  31
HETATM   31  C   UNK     0       4.078  13.265  88.931  0.00  0.00     0.266 C 
HETATM   32  O   UNK     0       4.250  14.457  89.176  0.00  0.00    -0.269 OA
HETATM   33  N   UNK     0       4.348  12.667  87.724  0.00  0.00    -0.236 N 
HETATM   34  H   UNK     0       4.136  11.711  87.459  0.00  0.00     0.197 HD
BRANCH  33  35
HETATM   35  O   UNK     0       4.855  13.509  86.725  0.00  0.00    -0.287 OA
HETATM   36  H   UNK     0       4.957  12.874  85.996  0.00  0.00     0.244 HD
ENDBRANCH  33  35
ENDBRANCH  26  31
ENDBRANCH  24  26
ENDBRANCH  19  22
ENDBRANCH  15  16
ENDBRANCH  11  14
ENDBRANCH   7   8
ENDBRANCH   2   7
TORSDOF 10
ENDMDL
