MODEL 1
REMARK VINA RESULT:      -7.5      0.000      0.000
REMARK  9 active torsions:
REMARK  status: ('A' for Active; 'I' for Inactive)
REMARK    1  A    between atoms: N_3  and  C_6 
REMARK    2  A    between atoms: C_6  and  C_9 
REMARK    3  A    between atoms: C_14  and  C_17 
REMARK       I    between atoms: N_26  and  C_15 
REMARK    4  A    between atoms: C_15  and  C_16 
REMARK    5  A    between atoms: C_20  and  C_23 
REMARK    6  A    between atoms: OG1_24  and  CB_28 
REMARK    7  A    between atoms: N_26  and  CA_27 
REMARK    8  A    between atoms: CA_27  and  CB_28 
REMARK    9  A    between atoms: CA_27  and  C_30 
ROOT
HETATM    1  O   UNK A   0       1.822   7.962  87.785  1.00  0.00    -0.388 OA
HETATM    2  N   UNK A   0       4.636   7.551  87.670  1.00  0.00     0.096 N 
HETATM    3  C   UNK A   0       4.060   8.900  87.747  1.00  0.00     0.299 C 
HETATM    4  C   UNK A   0       3.698   6.640  86.999  1.00  0.00     0.299 C 
HETATM    5  C   UNK A   0       2.713   8.847  88.465  1.00  0.00     0.198 C 
HETATM    6  C   UNK A   0       2.361   6.640  87.733  1.00  0.00     0.198 C 
ENDROOT
BRANCH   2   7
HETATM    7  C   UNK A   0       5.922   7.576  86.976  1.00  0.00     0.311 C 
BRANCH   7   8
HETATM    8  C   UNK A   0       7.017   6.969  87.787  1.00  0.00    -0.030 A 
HETATM    9  C   UNK A   0       6.780   6.600  89.111  1.00  0.00     0.010 A 
HETATM   10  C   UNK A   0       7.804   6.034  89.871  1.00  0.00     0.021 A 
HETATM   11  C   UNK A   0       9.063   5.836  89.305  1.00  0.00     0.018 A 
HETATM   12  C   UNK A   0       9.300   6.204  87.982  1.00  0.00     0.021 A 
HETATM   13  C   UNK A   0       8.277   6.771  87.222  1.00  0.00     0.010 A 
BRANCH  11  14
HETATM   14  C   UNK A   0      10.112   5.254  90.084  1.00  0.00    -0.061 C 
HETATM   15  C   UNK A   0      10.994   4.764  90.739  1.00  0.00    -0.061 C 
BRANCH  15  16
HETATM   16  C   UNK A   0      12.042   4.181  91.517  1.00  0.00     0.018 A 
HETATM   17  C   UNK A   0      13.299   3.974  90.947  1.00  0.00     0.022 A 
HETATM   18  C   UNK A   0      14.322   3.408  91.707  1.00  0.00     0.018 A 
HETATM   19  C   UNK A   0      14.067   3.063  93.018  1.00  0.00     0.032 A 
HETATM   20  C   UNK A   0      12.834   3.257  93.603  1.00  0.00     0.018 A 
HETATM   21  C   UNK A   0      11.809   3.823  92.844  1.00  0.00     0.022 A 
BRANCH  19  22
HETATM   22  C   UNK A   0      15.157   2.458  93.826  1.00  0.00     0.252 C 
HETATM   23  O   UNK A   0      16.307   2.869  93.686  1.00  0.00    -0.268 OA
ENDBRANCH  19  22
ENDBRANCH  15  16
ENDBRANCH  11  14
ENDBRANCH   7   8
ENDBRANCH   2   7
TORSDOF 9
ENDMDL
MODEL 2
REMARK VINA RESULT:      -7.5      0.152      1.433
REMARK  9 active torsions:
REMARK  status: ('A' for Active; 'I' for Inactive)
REMARK    1  A    between atoms: N_3  and  C_6 
REMARK    2  A    between atoms: C_6  and  C_9 
REMARK    3  A    between atoms: C_14  and  C_17 
REMARK       I    between atoms: N_26  and  C_15 
REMARK    4  A    between atoms: C_15  and  C_16 
REMARK    5  A    between atoms: C_20  and  C_23 
REMARK    6  A    between atoms: OG1_24  and  CB_28 
REMARK    7  A    between atoms: N_26  and  CA_27 
REMARK    8  A    between atoms: CA_27  and  CB_28 
REMARK    9  A    between atoms: CA_27  and  C_30 
ROOT
HETATM    1  O   UNK A   0       1.729   8.023  87.883  1.00  0.00    -0.388 OA
HETATM    2  N   UNK A   0       4.530   7.548  87.706  1.00  0.00     0.096 N 
HETATM    3  C   UNK A   0       3.986   8.910  87.810  1.00  0.00     0.299 C 
HETATM    4  C   UNK A   0       3.557   6.668  87.044  1.00  0.00     0.299 C 
HETATM    5  C   UNK A   0       2.654   8.879  88.555  1.00  0.00     0.198 C 
HETATM    6  C   UNK A   0       2.236   6.690  87.805  1.00  0.00     0.198 C 
ENDROOT
BRANCH   2   7
HETATM    7  C   UNK A   0       5.802   7.552  86.987  1.00  0.00     0.311 C 
BRANCH   7   8
HETATM    8  C   UNK A   0       6.909   6.955  87.787  1.00  0.00    -0.030 A 
HETATM    9  C   UNK A   0       8.158   6.746  87.201  1.00  0.00     0.010 A 
HETATM   10  C   UNK A   0       9.194   6.185  87.948  1.00  0.00     0.021 A 
HETATM   11  C   UNK A   0       8.980   5.835  89.281  1.00  0.00     0.018 A 
HETATM   12  C   UNK A   0       7.733   6.043  89.867  1.00  0.00     0.021 A 
HETATM   13  C   UNK A   0       6.697   6.603  89.120  1.00  0.00     0.010 A 
BRANCH  11  14
HETATM   14  C   UNK A   0      10.043   5.261  90.048  1.00  0.00    -0.061 C 
HETATM   15  C   UNK A   0      10.937   4.780  90.692  1.00  0.00    -0.061 C 
BRANCH  15  16
HETATM   16  C   UNK A   0      11.999   4.207  91.459  1.00  0.00     0.018 A 
HETATM   17  C   UNK A   0      11.778   3.839  92.787  1.00  0.00     0.022 A 
HETATM   18  C   UNK A   0      12.814   3.277  93.534  1.00  0.00     0.018 A 
HETATM   19  C   UNK A   0      14.044   3.096  92.938  1.00  0.00     0.032 A 
HETATM   20  C   UNK A   0      14.287   3.452  91.628  1.00  0.00     0.018 A 
HETATM   21  C   UNK A   0      13.252   4.014  90.880  1.00  0.00     0.022 A 
BRANCH  19  22
HETATM   22  C   UNK A   0      15.147   2.500  93.735  1.00  0.00     0.252 C 
HETATM   23  O   UNK A   0      16.101   3.203  94.060  1.00  0.00    -0.268 OA
ENDBRANCH  19  22
ENDBRANCH  15  16
ENDBRANCH  11  14
ENDBRANCH   7   8
ENDBRANCH   2   7
TORSDOF 9
ENDMDL
MODEL 3
REMARK VINA RESULT:      -7.5      0.392      1.081
REMARK  9 active torsions:
REMARK  status: ('A' for Active; 'I' for Inactive)
REMARK    1  A    between atoms: N_3  and  C_6 
REMARK    2  A    between atoms: C_6  and  C_9 
REMARK    3  A    between atoms: C_14  and  C_17 
REMARK       I    between atoms: N_26  and  C_15 
REMARK    4  A    between atoms: C_15  and  C_16 
REMARK    5  A    between atoms: C_20  and  C_23 
REMARK    6  A    between atoms: OG1_24  and  CB_28 
REMARK    7  A    between atoms: N_26  and  CA_27 
REMARK    8  A    between atoms: CA_27  and  CB_28 
REMARK    9  A    between atoms: CA_27  and  C_30 
ROOT
HETATM    1  O   UNK A   0       1.833   8.729  88.236  1.00  0.00    -0.388 OA
HETATM    2  N   UNK A   0       4.503   7.821  87.850  1.00  0.00     0.096 N 
HETATM    3  C   UNK A   0       4.179   9.253  87.907  1.00  0.00     0.299 C 
HETATM    4  C   UNK A   0       3.352   7.065  87.336  1.00  0.00     0.299 C 
HETATM    5  C   UNK A   0       2.935   9.468  88.765  1.00  0.00     0.198 C 
HETATM    6  C   UNK A   0       2.127   7.332  88.206  1.00  0.00     0.198 C 
ENDROOT
BRANCH   2   7
HETATM    7  C   UNK A   0       5.687   7.590  87.024  1.00  0.00     0.311 C 
BRANCH   7   8
HETATM    8  C   UNK A   0       6.808   6.983  87.796  1.00  0.00    -0.030 A 
HETATM    9  C   UNK A   0       6.626   6.642  89.137  1.00  0.00     0.010 A 
HETATM   10  C   UNK A   0       7.676   6.077  89.861  1.00  0.00     0.021 A 
HETATM   11  C   UNK A   0       8.906   5.851  89.244  1.00  0.00     0.018 A 
HETATM   12  C   UNK A   0       9.089   6.192  87.905  1.00  0.00     0.021 A 
HETATM   13  C   UNK A   0       8.040   6.758  87.181  1.00  0.00     0.010 A 
BRANCH  11  14
HETATM   14  C   UNK A   0       9.982   5.269  89.986  1.00  0.00    -0.061 C 
HETATM   15  C   UNK A   0      10.885   4.780  90.610  1.00  0.00    -0.061 C 
BRANCH  15  16
HETATM   16  C   UNK A   0      11.961   4.198  91.351  1.00  0.00     0.018 A 
HETATM   17  C   UNK A   0      11.756   3.785  92.668  1.00  0.00     0.022 A 
HETATM   18  C   UNK A   0      12.804   3.215  93.390  1.00  0.00     0.018 A 
HETATM   19  C   UNK A   0      14.032   3.069  92.780  1.00  0.00     0.032 A 
HETATM   20  C   UNK A   0      14.260   3.469  91.480  1.00  0.00     0.018 A 
HETATM   21  C   UNK A   0      13.212   4.040  90.757  1.00  0.00     0.022 A 
BRANCH  19  22
HETATM   22  C   UNK A   0      15.149   2.463  93.550  1.00  0.00     0.252 C 
HETATM   23  O   UNK A   0      16.191   3.098  93.695  1.00  0.00    -0.268 OA
ENDBRANCH  19  22
ENDBRANCH  15  16
ENDBRANCH  11  14
ENDBRANCH   7   8
ENDBRANCH   2   7
TORSDOF 9
ENDMDL
MODEL 4
REMARK VINA RESULT:      -6.9      1.545      2.118
REMARK  9 active torsions:
REMARK  status: ('A' for Active; 'I' for Inactive)
REMARK    1  A    between atoms: N_3  and  C_6 
REMARK    2  A    between atoms: C_6  and  C_9 
REMARK    3  A    between atoms: C_14  and  C_17 
REMARK       I    between atoms: N_26  and  C_15 
REMARK    4  A    between atoms: C_15  and  C_16 
REMARK    5  A    between atoms: C_20  and  C_23 
REMARK    6  A    between atoms: OG1_24  and  CB_28 
REMARK    7  A    between atoms: N_26  and  CA_27 
REMARK    8  A    between atoms: CA_27  and  CB_28 
REMARK    9  A    between atoms: CA_27  and  C_30 
ROOT
HETATM    1  O   UNK A   0       2.875  11.302  89.660  1.00  0.00    -0.388 OA
HETATM    2  N   UNK A   0       4.637   9.221  88.843  1.00  0.00     0.096 N 
HETATM    3  C   UNK A   0       3.936  10.063  87.864  1.00  0.00     0.299 C 
HETATM    4  C   UNK A   0       3.845   9.118  90.076  1.00  0.00     0.299 C 
HETATM    5  C   UNK A   0       3.653  11.435  88.470  1.00  0.00     0.198 C 
HETATM    6  C   UNK A   0       3.563  10.511  90.630  1.00  0.00     0.198 C 
ENDROOT
BRANCH   2   7
HETATM    7  C   UNK A   0       4.909   7.897  88.287  1.00  0.00     0.311 C 
BRANCH   7   8
HETATM    8  C   UNK A   0       6.133   7.276  88.871  1.00  0.00    -0.030 A 
HETATM    9  C   UNK A   0       7.375   7.886  88.694  1.00  0.00     0.010 A 
HETATM   10  C   UNK A   0       8.521   7.305  89.238  1.00  0.00     0.021 A 
HETATM   11  C   UNK A   0       8.423   6.116  89.960  1.00  0.00     0.018 A 
HETATM   12  C   UNK A   0       7.182   5.507  90.138  1.00  0.00     0.021 A 
HETATM   13  C   UNK A   0       6.037   6.087  89.593  1.00  0.00     0.010 A 
BRANCH  11  14
HETATM   14  C   UNK A   0       9.598   5.522  90.520  1.00  0.00    -0.061 C 
HETATM   15  C   UNK A   0      10.584   5.021  90.990  1.00  0.00    -0.061 C 
BRANCH  15  16
HETATM   16  C   UNK A   0      11.758   4.426  91.549  1.00  0.00     0.018 A 
HETATM   17  C   UNK A   0      12.905   4.282  90.768  1.00  0.00     0.022 A 
HETATM   18  C   UNK A   0      14.051   3.705  91.314  1.00  0.00     0.018 A 
HETATM   19  C   UNK A   0      14.025   3.285  92.628  1.00  0.00     0.032 A 
HETATM   20  C   UNK A   0      12.904   3.416  93.420  1.00  0.00     0.018 A 
HETATM   21  C   UNK A   0      11.757   3.993  92.875  1.00  0.00     0.022 A 
BRANCH  19  22
HETATM   22  C   UNK A   0      15.246   2.667  93.208  1.00  0.00     0.252 C 
HETATM   23  O   UNK A   0      16.147   3.393  93.619  1.00  0.00    -0.268 OA
ENDBRANCH  19  22
ENDBRANCH  15  16
ENDBRANCH  11  14
ENDBRANCH   7   8
ENDBRANCH   2   7
TORSDOF 9
ENDMDL
MODEL 5
REMARK VINA RESULT:      -6.6      4.008     10.471
REMARK  9 active torsions:
REMARK  status: ('A' for Active; 'I' for Inactive)
REMARK    1  A    between atoms: N_3  and  C_6 
REMARK    2  A    between atoms: C_6  and  C_9 
REMARK    3  A    between atoms: C_14  and  C_17 
REMARK       I    between atoms: N_26  and  C_15 
REMARK    4  A    between atoms: C_15  and  C_16 
REMARK    5  A    between atoms: C_20  and  C_23 
REMARK    6  A    between atoms: OG1_24  and  CB_28 
REMARK    7  A    between atoms: N_26  and  CA_27 
REMARK    8  A    between atoms: CA_27  and  CB_28 
REMARK    9  A    between atoms: CA_27  and  C_30 
ROOT
HETATM    1  O   UNK A   0      14.555   3.342  92.094  1.00  0.00    -0.388 OA
HETATM    2  N   UNK A   0      11.845   4.181  92.322  1.00  0.00     0.096 N 
HETATM    3  C   UNK A   0      12.467   3.312  93.330  1.00  0.00     0.299 C 
HETATM    4  C   UNK A   0      12.475   3.964  91.012  1.00  0.00     0.299 C 
HETATM    5  C   UNK A   0      13.971   3.569  93.378  1.00  0.00     0.198 C 
HETATM    6  C   UNK A   0      13.977   4.206  91.114  1.00  0.00     0.198 C 
ENDROOT
BRANCH   2   7
HETATM    7  C   UNK A   0      10.404   3.944  92.252  1.00  0.00     0.311 C 
BRANCH   7   8
HETATM    8  C   UNK A   0       9.637   5.187  91.955  1.00  0.00    -0.030 A 
HETATM    9  C   UNK A   0       8.727   5.208  90.898  1.00  0.00     0.010 A 
HETATM   10  C   UNK A   0       8.010   6.371  90.617  1.00  0.00     0.021 A 
HETATM   11  C   UNK A   0       8.203   7.512  91.395  1.00  0.00     0.018 A 
HETATM   12  C   UNK A   0       9.112   7.492  92.451  1.00  0.00     0.021 A 
HETATM   13  C   UNK A   0       9.829   6.329  92.731  1.00  0.00     0.010 A 
BRANCH  11  14
HETATM   14  C   UNK A   0       7.466   8.705  91.109  1.00  0.00    -0.061 C 
HETATM   15  C   UNK A   0       6.847   9.706  90.868  1.00  0.00    -0.061 C 
BRANCH  15  16
HETATM   16  C   UNK A   0       6.110  10.898  90.583  1.00  0.00     0.018 A 
HETATM   17  C   UNK A   0       5.241  11.426  91.539  1.00  0.00     0.022 A 
HETATM   18  C   UNK A   0       4.525  12.590  91.261  1.00  0.00     0.018 A 
HETATM   19  C   UNK A   0       4.694  13.200  90.036  1.00  0.00     0.032 A 
HETATM   20  C   UNK A   0       5.546  12.699  89.075  1.00  0.00     0.018 A 
HETATM   21  C   UNK A   0       6.263  11.534  89.351  1.00  0.00     0.022 A 
BRANCH  19  22
HETATM   22  C   UNK A   0       3.929  14.440  89.740  1.00  0.00     0.252 C 
HETATM   23  O   UNK A   0       4.481  15.530  89.869  1.00  0.00    -0.268 OA
ENDBRANCH  19  22
ENDBRANCH  15  16
ENDBRANCH  11  14
ENDBRANCH   7   8
ENDBRANCH   2   7
TORSDOF 9
ENDMDL
MODEL 6
REMARK VINA RESULT:      -6.6      1.678      2.476
REMARK  9 active torsions:
REMARK  status: ('A' for Active; 'I' for Inactive)
REMARK    1  A    between atoms: N_3  and  C_6 
REMARK    2  A    between atoms: C_6  and  C_9 
REMARK    3  A    between atoms: C_14  and  C_17 
REMARK       I    between atoms: N_26  and  C_15 
REMARK    4  A    between atoms: C_15  and  C_16 
REMARK    5  A    between atoms: C_20  and  C_23 
REMARK    6  A    between atoms: OG1_24  and  CB_28 
REMARK    7  A    between atoms: N_26  and  CA_27 
REMARK    8  A    between atoms: CA_27  and  CB_28 
REMARK    9  A    between atoms: CA_27  and  C_30 
ROOT
HETATM    1  O   UNK A   0       3.072  11.676  89.271  1.00  0.00    -0.388 OA
HETATM    2  N   UNK A   0       4.358   9.137  89.300  1.00  0.00     0.096 N 
HETATM    3  C   UNK A   0       3.776   9.689  88.069  1.00  0.00     0.299 C 
HETATM    4  C   UNK A   0       3.630   9.644  90.472  1.00  0.00     0.299 C 
HETATM    5  C   UNK A   0       3.794  11.214  88.127  1.00  0.00     0.198 C 
HETATM    6  C   UNK A   0       3.650  11.169  90.474  1.00  0.00     0.198 C 
ENDROOT
BRANCH   2   7
HETATM    7  C   UNK A   0       4.342   7.675  89.271  1.00  0.00     0.311 C 
BRANCH   7   8
HETATM    8  C   UNK A   0       5.640   7.084  89.704  1.00  0.00    -0.030 A 
HETATM    9  C   UNK A   0       5.875   6.833  91.056  1.00  0.00     0.010 A 
HETATM   10  C   UNK A   0       7.090   6.282  91.463  1.00  0.00     0.021 A 
HETATM   11  C   UNK A   0       8.068   5.980  90.516  1.00  0.00     0.018 A 
HETATM   12  C   UNK A   0       7.835   6.230  89.166  1.00  0.00     0.021 A 
HETATM   13  C   UNK A   0       6.621   6.782  88.759  1.00  0.00     0.010 A 
BRANCH  11  14
HETATM   14  C   UNK A   0       9.314   5.413  90.933  1.00  0.00    -0.061 C 
HETATM   15  C   UNK A   0      10.360   4.936  91.284  1.00  0.00    -0.061 C 
BRANCH  15  16
HETATM   16  C   UNK A   0      11.605   4.368  91.701  1.00  0.00     0.018 A 
HETATM   17  C   UNK A   0      11.735   3.843  92.987  1.00  0.00     0.022 A 
HETATM   18  C   UNK A   0      12.948   3.287  93.392  1.00  0.00     0.018 A 
HETATM   19  C   UNK A   0      14.002   3.267  92.503  1.00  0.00     0.032 A 
HETATM   20  C   UNK A   0      13.899   3.779  91.227  1.00  0.00     0.018 A 
HETATM   21  C   UNK A   0      12.686   4.336  90.821  1.00  0.00     0.022 A 
BRANCH  19  22
HETATM   22  C   UNK A   0      15.295   2.676  92.936  1.00  0.00     0.252 C 
HETATM   23  O   UNK A   0      15.836   3.098  93.955  1.00  0.00    -0.268 OA
ENDBRANCH  19  22
ENDBRANCH  15  16
ENDBRANCH  11  14
ENDBRANCH   7   8
ENDBRANCH   2   7
TORSDOF 9
ENDMDL
MODEL 7
REMARK VINA RESULT:      -6.1      3.041      3.932
REMARK  9 active torsions:
REMARK  status: ('A' for Active; 'I' for Inactive)
REMARK    1  A    between atoms: N_3  and  C_6 
REMARK    2  A    between atoms: C_6  and  C_9 
REMARK    3  A    between atoms: C_14  and  C_17 
REMARK       I    between atoms: N_26  and  C_15 
REMARK    4  A    between atoms: C_15  and  C_16 
REMARK    5  A    between atoms: C_20  and  C_23 
REMARK    6  A    between atoms: OG1_24  and  CB_28 
REMARK    7  A    between atoms: N_26  and  CA_27 
REMARK    8  A    between atoms: CA_27  and  CB_28 
REMARK    9  A    between atoms: CA_27  and  C_30 
ROOT
HETATM    1  O   UNK A   0       3.809  14.479  89.831  1.00  0.00    -0.388 OA
HETATM    2  N   UNK A   0       4.693  11.819  89.331  1.00  0.00     0.096 N 
HETATM    3  C   UNK A   0       4.669  12.833  88.267  1.00  0.00     0.299 C 
HETATM    4  C   UNK A   0       3.652  12.109  90.327  1.00  0.00     0.299 C 
HETATM    5  C   UNK A   0       4.840  14.223  88.875  1.00  0.00     0.198 C 
HETATM    6  C   UNK A   0       3.846  13.516  90.884  1.00  0.00     0.198 C 
ENDROOT
BRANCH   2   7
HETATM    7  C   UNK A   0       4.520  10.480  88.773  1.00  0.00     0.311 C 
BRANCH   7   8
HETATM    8  C   UNK A   0       5.587   9.537  89.216  1.00  0.00    -0.030 A 
HETATM    9  C   UNK A   0       5.384   8.160  89.120  1.00  0.00     0.010 A 
HETATM   10  C   UNK A   0       6.380   7.278  89.537  1.00  0.00     0.021 A 
HETATM   11  C   UNK A   0       7.580   7.773  90.047  1.00  0.00     0.018 A 
HETATM   12  C   UNK A   0       7.784   9.148  90.143  1.00  0.00     0.021 A 
HETATM   13  C   UNK A   0       6.787  10.031  89.727  1.00  0.00     0.010 A 
BRANCH  11  14
HETATM   14  C   UNK A   0       8.603   6.868  90.472  1.00  0.00    -0.061 C 
HETATM   15  C   UNK A   0       9.463   6.107  90.830  1.00  0.00    -0.061 C 
BRANCH  15  16
HETATM   16  C   UNK A   0      10.484   5.202  91.255  1.00  0.00     0.018 A 
HETATM   17  C   UNK A   0      10.672   4.952  92.615  1.00  0.00     0.022 A 
HETATM   18  C   UNK A   0      11.667   4.067  93.029  1.00  0.00     0.018 A 
HETATM   19  C   UNK A   0      12.451   3.451  92.076  1.00  0.00     0.032 A 
HETATM   20  C   UNK A   0      12.285   3.682  90.726  1.00  0.00     0.018 A 
HETATM   21  C   UNK A   0      11.291   4.567  90.310  1.00  0.00     0.022 A 
BRANCH  19  22
HETATM   22  C   UNK A   0      13.512   2.510  92.518  1.00  0.00     0.252 C 
HETATM   23  O   UNK A   0      14.471   2.942  93.152  1.00  0.00    -0.268 OA
ENDBRANCH  19  22
ENDBRANCH  15  16
ENDBRANCH  11  14
ENDBRANCH   7   8
ENDBRANCH   2   7
TORSDOF 9
ENDMDL
MODEL 8
REMARK VINA RESULT:      -6.1      1.292      1.715
REMARK  9 active torsions:
REMARK  status: ('A' for Active; 'I' for Inactive)
REMARK    1  A    between atoms: N_3  and  C_6 
REMARK    2  A    between atoms: C_6  and  C_9 
REMARK    3  A    between atoms: C_14  and  C_17 
REMARK       I    between atoms: N_26  and  C_15 
REMARK    4  A    between atoms: C_15  and  C_16 
REMARK    5  A    between atoms: C_20  and  C_23 
REMARK    6  A    between atoms: OG1_24  and  CB_28 
REMARK    7  A    between atoms: N_26  and  CA_27 
REMARK    8  A    between atoms: CA_27  and  CB_28 
REMARK    9  A    between atoms: CA_27  and  C_30 
ROOT
HETATM    1  O   UNK A   0       2.288   9.570  88.654  1.00  0.00    -0.388 OA
HETATM    2  N   UNK A   0       5.079   9.010  88.659  1.00  0.00     0.096 N 
HETATM    3  C   UNK A   0       4.557  10.317  89.081  1.00  0.00     0.299 C 
HETATM    4  C   UNK A   0       4.174   8.401  87.674  1.00  0.00     0.299 C 
HETATM    5  C   UNK A   0       3.144  10.155  89.636  1.00  0.00     0.198 C 
HETATM    6  C   UNK A   0       2.771   8.285  88.261  1.00  0.00     0.198 C 
ENDROOT
BRANCH   2   7
HETATM    7  C   UNK A   0       6.428   9.143  88.114  1.00  0.00     0.311 C 
BRANCH   7   8
HETATM    8  C   UNK A   0       7.416   8.281  88.825  1.00  0.00    -0.030 A 
HETATM    9  C   UNK A   0       6.974   7.325  89.740  1.00  0.00     0.010 A 
HETATM   10  C   UNK A   0       7.896   6.519  90.407  1.00  0.00     0.021 A 
HETATM   11  C   UNK A   0       9.260   6.670  90.158  1.00  0.00     0.018 A 
HETATM   12  C   UNK A   0       9.703   7.624  89.244  1.00  0.00     0.021 A 
HETATM   13  C   UNK A   0       8.780   8.430  88.577  1.00  0.00     0.010 A 
BRANCH  11  14
HETATM   14  C   UNK A   0      10.207   5.842  90.841  1.00  0.00    -0.061 C 
HETATM   15  C   UNK A   0      11.001   5.146  91.415  1.00  0.00    -0.061 C 
BRANCH  15  16
HETATM   16  C   UNK A   0      11.947   4.319  92.097  1.00  0.00     0.018 A 
HETATM   17  C   UNK A   0      11.790   4.060  93.459  1.00  0.00     0.022 A 
HETATM   18  C   UNK A   0      12.711   3.250  94.124  1.00  0.00     0.018 A 
HETATM   19  C   UNK A   0      13.766   2.717  93.413  1.00  0.00     0.032 A 
HETATM   20  C   UNK A   0      13.943   2.959  92.066  1.00  0.00     0.018 A 
HETATM   21  C   UNK A   0      13.022   3.768  91.401  1.00  0.00     0.022 A 
BRANCH  19  22
HETATM   22  C   UNK A   0      14.748   1.856  94.122  1.00  0.00     0.252 C 
HETATM   23  O   UNK A   0      15.942   2.143  94.073  1.00  0.00    -0.268 OA
ENDBRANCH  19  22
ENDBRANCH  15  16
ENDBRANCH  11  14
ENDBRANCH   7   8
ENDBRANCH   2   7
TORSDOF 9
ENDMDL
MODEL 9
REMARK VINA RESULT:      -6.1      2.774     10.393
REMARK  9 active torsions:
REMARK  status: ('A' for Active; 'I' for Inactive)
REMARK    1  A    between atoms: N_3  and  C_6 
REMARK    2  A    between atoms: C_6  and  C_9 
REMARK    3  A    between atoms: C_14  and  C_17 
REMARK       I    between atoms: N_26  and  C_15 
REMARK    4  A    between atoms: C_15  and  C_16 
REMARK    5  A    between atoms: C_20  and  C_23 
REMARK    6  A    between atoms: OG1_24  and  CB_28 
REMARK    7  A    between atoms: N_26  and  CA_27 
REMARK    8  A    between atoms: CA_27  and  CB_28 
REMARK    9  A    between atoms: CA_27  and  C_30 
ROOT
HETATM    1  O   UNK A   0      15.297   2.764  92.093  1.00  0.00    -0.388 OA
HETATM    2  N   UNK A   0      12.720   3.597  92.968  1.00  0.00     0.096 N 
HETATM    3  C   UNK A   0      13.483   4.372  91.980  1.00  0.00     0.299 C 
HETATM    4  C   UNK A   0      13.638   2.875  93.860  1.00  0.00     0.299 C 
HETATM    5  C   UNK A   0      14.412   3.444  91.201  1.00  0.00     0.198 C 
HETATM    6  C   UNK A   0      14.563   1.983  93.038  1.00  0.00     0.198 C 
ENDROOT
BRANCH   2   7
HETATM    7  C   UNK A   0      11.830   4.469  93.734  1.00  0.00     0.311 C 
BRANCH   7   8
HETATM    8  C   UNK A   0      10.617   4.861  92.962  1.00  0.00    -0.030 A 
HETATM    9  C   UNK A   0       9.978   6.072  93.235  1.00  0.00     0.010 A 
HETATM   10  C   UNK A   0       8.842   6.439  92.515  1.00  0.00     0.021 A 
HETATM   11  C   UNK A   0       8.346   5.597  91.520  1.00  0.00     0.018 A 
HETATM   12  C   UNK A   0       8.983   4.389  91.246  1.00  0.00     0.021 A 
HETATM   13  C   UNK A   0      10.119   4.020  91.966  1.00  0.00     0.010 A 
BRANCH  11  14
HETATM   14  C   UNK A   0       7.181   5.975  90.780  1.00  0.00    -0.061 C 
HETATM   15  C   UNK A   0       6.203   6.292  90.157  1.00  0.00    -0.061 C 
BRANCH  15  16
HETATM   16  C   UNK A   0       5.038   6.669  89.418  1.00  0.00     0.018 A 
HETATM   17  C   UNK A   0       5.006   6.497  88.034  1.00  0.00     0.022 A 
HETATM   18  C   UNK A   0       3.869   6.863  87.314  1.00  0.00     0.018 A 
HETATM   19  C   UNK A   0       2.791   7.391  87.992  1.00  0.00     0.032 A 
HETATM   20  C   UNK A   0       2.799   7.571  89.359  1.00  0.00     0.018 A 
HETATM   21  C   UNK A   0       3.935   7.206  90.081  1.00  0.00     0.022 A 
BRANCH  19  22
HETATM   22  C   UNK A   0       1.581   7.782  87.224  1.00  0.00     0.252 C 
HETATM   23  O   UNK A   0       1.189   7.058  86.312  1.00  0.00    -0.268 OA
ENDBRANCH  19  22
ENDBRANCH  15  16
ENDBRANCH  11  14
ENDBRANCH   7   8
ENDBRANCH   2   7
TORSDOF 9
ENDMDL
