MODEL 1
REMARK VINA RESULT:      -7.3      0.000      0.000
REMARK  9 active torsions:
REMARK  status: ('A' for Active; 'I' for Inactive)
REMARK    1  A    between atoms: O_2  and  C_17 
REMARK    2  A    between atoms: N_5  and  C_10 
REMARK    3  A    between atoms: N_6  and  C_14 
REMARK       I    between atoms: N_6  and  C_23 
REMARK       I    between atoms: N_7  and  C_22 
REMARK    4  A    between atoms: C_10  and  C_13 
REMARK    5  A    between atoms: C_14  and  C_17 
REMARK    6  A    between atoms: C_14  and  C_22 
REMARK    7  A    between atoms: C_20  and  C_25 
REMARK    8  A    between atoms: C_23  and  C_24 
REMARK    9  A    between atoms: C_28  and  C_31 
ROOT
HETATM    1  O   UNL     1      16.411   4.277  94.124  1.00  0.00    -0.388 OA
HETATM    2  N   UNL     1      14.619   2.708  92.566  1.00  0.00     0.096 N 
HETATM    3  C   UNL     1      14.555   4.176  92.563  1.00  0.00     0.299 C 
HETATM    4  C   UNL     1      15.140   2.229  93.853  1.00  0.00     0.299 C 
HETATM    5  C   UNL     1      15.936   4.754  92.864  1.00  0.00     0.198 C 
HETATM    6  C   UNL     1      16.505   2.852  94.124  1.00  0.00     0.198 C 
ENDROOT
BRANCH   2   7
HETATM    7  C   UNL     1      13.304   2.132  92.290  1.00  0.00     0.311 C 
BRANCH   7   8
HETATM    8  C   UNL     1      12.306   3.164  91.887  1.00  0.00    -0.030 A 
HETATM    9  C   UNL     1      12.205   3.551  90.550  1.00  0.00     0.010 A 
HETATM   10  C   UNL     1      11.273   4.517  90.173  1.00  0.00     0.021 A 
HETATM   11  C   UNL     1      10.441   5.094  91.131  1.00  0.00     0.018 A 
HETATM   12  C   UNL     1      10.540   4.708  92.466  1.00  0.00     0.021 A 
HETATM   13  C   UNL     1      11.473   3.743  92.845  1.00  0.00     0.010 A 
BRANCH  11  14
HETATM   14  C   UNL     1       9.483   6.084  90.743  1.00  0.00    -0.061 C 
HETATM   15  C   UNL     1       8.679   6.916  90.418  1.00  0.00    -0.061 C 
BRANCH  15  16
HETATM   16  C   UNL     1       7.722   7.906  90.030  1.00  0.00     0.018 A 
HETATM   17  C   UNL     1       6.886   7.676  88.938  1.00  0.00     0.022 A 
HETATM   18  C   UNL     1       5.951   8.640  88.562  1.00  0.00     0.018 A 
HETATM   19  C   UNL     1       5.873   9.811  89.286  1.00  0.00     0.032 A 
HETATM   20  C   UNL     1       6.689  10.063  90.370  1.00  0.00     0.018 A 
HETATM   21  C   UNL     1       7.624   9.099  90.746  1.00  0.00     0.022 A 
BRANCH  19  22
HETATM   22  C   UNL     1       4.878  10.839  88.884  1.00  0.00     0.252 C 
HETATM   23  O   UNL     1       4.076  10.580  87.991  1.00  0.00    -0.268 OA
HETATM   24  N   UNL     1       4.922  12.036  89.587  1.00  0.00    -0.342 N 
HETATM   25  H   UNL     1       5.598  12.169  90.330  1.00  0.00     0.163 HD
BRANCH  24  26
HETATM   26  C   UNL     1       4.008  13.120  89.330  1.00  0.00     0.199 C 
BRANCH  26  27
HETATM   27  C   UNL     1       3.489  13.775  90.616  1.00  0.00     0.145 C 
HETATM   28  C   UNL     1       2.818  12.776  91.552  1.00  0.00     0.042 C 
BRANCH  27  29
HETATM   29  O   UNL     1       4.573  14.399  91.305  1.00  0.00    -0.393 OA
HETATM   30  H   UNL     1       4.209  15.088  91.886  1.00  0.00     0.210 HD
ENDBRANCH  27  29
ENDBRANCH  26  27
BRANCH  26  31
HETATM   31  C   UNL     1       4.724  14.132  88.442  1.00  0.00     0.220 C 
HETATM   32  O   UNL     1       4.878  15.310  88.758  1.00  0.00    -0.278 OA
HETATM   33  N   UNL     1       5.130  13.581  87.251  1.00  0.00    -0.271 NA
HETATM   34  H   UNL     1       4.942  12.641  86.921  1.00  0.00     0.127 HD
HETATM   35  H   UNL     1       4.606  13.797  85.966  1.00  0.00     0.127 HD
ENDBRANCH  26  31
ENDBRANCH  24  26
ENDBRANCH  19  22
ENDBRANCH  15  16
ENDBRANCH  11  14
ENDBRANCH   7   8
ENDBRANCH   2   7
TORSDOF 9
ENDMDL
