MODEL 1
REMARK VINA RESULT:      -6.4      0.000      0.000
REMARK  14 active torsions:
REMARK  status: ('A' for Active; 'I' for Inactive)
REMARK    1  A    between atoms: O_2  and  C_18 
REMARK    2  A    between atoms: C_5  and  C_8 
REMARK    3  A    between atoms: C_5  and  O_35 
REMARK    4  A    between atoms: C_5  and  C_36 
REMARK    5  A    between atoms: N_6  and  C_11 
REMARK    6  A    between atoms: N_7  and  C_15 
REMARK       I    between atoms: N_7  and  C_24 
REMARK    7  A    between atoms: C_8  and  C_23 
REMARK    8  A    between atoms: C_11  and  C_14 
REMARK    9  A    between atoms: C_15  and  C_18 
REMARK   10  A    between atoms: C_15  and  C_23 
REMARK   11  A    between atoms: C_21  and  C_26 
REMARK   12  A    between atoms: C_24  and  C_25 
REMARK   13  A    between atoms: C_29  and  C_32 
REMARK   14  A    between atoms: C_36  and  O_39 
ROOT
HETATM    1  O   UNL     1      16.954   3.623  93.750  1.00  0.00    -0.350 OA
HETATM    2  N   UNL     1      14.297   3.116  92.863  1.00  0.00     0.147 N 
HETATM    3  C   UNL     1      15.264   2.026  93.056  1.00  0.00     0.283 C 
HETATM    4  C   UNL     1      15.001   4.357  92.511  1.00  0.00     0.283 C 
HETATM    5  C   UNL     1      16.281   2.420  94.124  1.00  0.00     0.178 C 
HETATM    6  C   UNL     1      16.024   4.695  93.590  1.00  0.00     0.178 C 
ENDROOT
BRANCH   2   7
HETATM    7  C   UNL     1      13.319   2.764  91.835  1.00  0.00     0.277 C 
BRANCH   7   8
HETATM    8  C   UNL     1      12.147   3.685  91.828  1.00  0.00     0.011 A 
HETATM    9  C   UNL     1      11.427   3.906  93.003  1.00  0.00    -0.002 A 
HETATM   10  C   UNL     1      10.329   4.766  92.997  1.00  0.00     0.008 A 
HETATM   11  C   UNL     1       9.952   5.406  91.817  1.00  0.00     0.042 A 
HETATM   12  C   UNL     1      10.671   5.187  90.643  1.00  0.00     0.008 A 
HETATM   13  C   UNL     1      11.768   4.326  90.649  1.00  0.00    -0.002 A 
BRANCH  11  14
HETATM   14  C   UNL     1       8.827   6.290  91.812  1.00  0.00    -0.059 C 
HETATM   15  C   UNL     1       7.882   7.033  91.806  1.00  0.00    -0.059 C 
BRANCH  15  16
HETATM   16  C   UNL     1       6.757   7.916  91.800  1.00  0.00     0.042 A 
HETATM   17  C   UNL     1       6.627   8.884  92.796  1.00  0.00     0.008 A 
HETATM   18  C   UNL     1       5.531   9.747  92.788  1.00  0.00     0.005 A 
HETATM   19  C   UNL     1       4.592   9.623  91.785  1.00  0.00     0.056 A 
HETATM   20  C   UNL     1       4.698   8.674  90.790  1.00  0.00     0.005 A 
HETATM   21  C   UNL     1       5.793   7.810  90.797  1.00  0.00     0.008 A 
BRANCH  19  22
HETATM   22  C   UNL     1       3.424  10.541  91.778  1.00  0.00     0.254 C 
HETATM   23  O   UNL     1       2.290  10.069  91.759  1.00  0.00    -0.268 OA
HETATM   24  N   UNL     1       3.716  11.898  91.820  1.00  0.00    -0.335 N 
HETATM   25  HN  UNL     1       4.678  12.214  91.860  1.00  0.00     0.164 HD
BRANCH  24  26
HETATM   26  C   UNL     1       2.693  12.911  91.843  1.00  0.00     0.169 C 
BRANCH  26  27
HETATM   27  C   UNL     1       2.675  13.708  93.154  1.00  0.00     0.138 C 
HETATM   28  C   UNL     1       3.971  13.560  93.944  1.00  0.00     0.034 C 
BRANCH  27  29
HETATM   29  O   UNL     1       2.461  15.090  92.870  1.00  0.00    -0.383 OA
HETATM   30  H   UNL     1       1.513  15.223  92.704  1.00  0.00     0.210 HD
ENDBRANCH  27  29
ENDBRANCH  26  27
BRANCH  26  31
HETATM   31  C   UNL     1       2.914  13.825  90.642  1.00  0.00     0.194 C 
HETATM   32  O   UNL     1       2.006  14.456  90.104  1.00  0.00    -0.289 OA
BRANCH  31  33
HETATM   33  C   UNL     1       4.223  13.823  90.223  1.00  0.00     0.053 C 
BRANCH  33  34
HETATM   34  C   UNL     1       4.427  14.088  88.862  1.00  0.00     0.220 C 
BRANCH  34  35
HETATM   35  O   UNL     1       5.318  14.955  88.773  1.00  0.00    -0.371 OA
HETATM   36  H   UNL     1       6.030  14.451  89.135  1.00  0.00     0.211 HD
ENDBRANCH  34  35
BRANCH  34  37
HETATM   37  C   UNL     1       4.722  12.941  88.105  1.00  0.00     0.185 C 
HETATM   38  O   UNL     1       5.970  13.251  88.418  1.00  0.00    -0.647 OA
BRANCH  37  39
HETATM   39  O   UNL     1       4.114  12.136  87.466  1.00  0.00    -0.774 OA
HETATM   40  H   UNL     1       3.032  12.066  87.802  1.00  0.00     0.167 HD
ENDBRANCH  37  39
ENDBRANCH  34  37
ENDBRANCH  33  34
ENDBRANCH  31  33
ENDBRANCH  26  31
ENDBRANCH  24  26
ENDBRANCH  19  22
ENDBRANCH  15  16
ENDBRANCH  11  14
ENDBRANCH   7   8
ENDBRANCH   2   7
TORSDOF 14
ENDMDL
MODEL 2
REMARK VINA RESULT:      -5.8      1.204      2.028
REMARK  14 active torsions:
REMARK  status: ('A' for Active; 'I' for Inactive)
REMARK    1  A    between atoms: O_2  and  C_18 
REMARK    2  A    between atoms: C_5  and  C_8 
REMARK    3  A    between atoms: C_5  and  O_35 
REMARK    4  A    between atoms: C_5  and  C_36 
REMARK    5  A    between atoms: N_6  and  C_11 
REMARK    6  A    between atoms: N_7  and  C_15 
REMARK       I    between atoms: N_7  and  C_24 
REMARK    7  A    between atoms: C_8  and  C_23 
REMARK    8  A    between atoms: C_11  and  C_14 
REMARK    9  A    between atoms: C_15  and  C_18 
REMARK   10  A    between atoms: C_15  and  C_23 
REMARK   11  A    between atoms: C_21  and  C_26 
REMARK   12  A    between atoms: C_24  and  C_25 
REMARK   13  A    between atoms: C_29  and  C_32 
REMARK   14  A    between atoms: C_36  and  O_39 
ROOT
HETATM    1  O   UNL     1      16.359   4.247  94.119  1.00  0.00    -0.350 OA
HETATM    2  N   UNL     1      14.503   2.727  92.588  1.00  0.00     0.147 N 
HETATM    3  C   UNL     1      14.483   4.196  92.580  1.00  0.00     0.283 C 
HETATM    4  C   UNL     1      15.025   2.237  93.872  1.00  0.00     0.283 C 
HETATM    5  C   UNL     1      15.884   4.733  92.863  1.00  0.00     0.178 C 
HETATM    6  C   UNL     1      16.411   2.820  94.124  1.00  0.00     0.178 C 
ENDROOT
BRANCH   2   7
HETATM    7  C   UNL     1      13.169   2.189  92.330  1.00  0.00     0.277 C 
BRANCH   7   8
HETATM    8  C   UNL     1      12.116   3.245  92.359  1.00  0.00     0.011 A 
HETATM    9  C   UNL     1      11.312   3.457  91.238  1.00  0.00    -0.002 A 
HETATM   10  C   UNL     1      10.329   4.446  91.263  1.00  0.00     0.008 A 
HETATM   11  C   UNL     1      10.149   5.220  92.409  1.00  0.00     0.042 A 
HETATM   12  C   UNL     1      10.951   5.009  93.529  1.00  0.00     0.008 A 
HETATM   13  C   UNL     1      11.935   4.021  93.504  1.00  0.00    -0.002 A 
BRANCH  11  14
HETATM   14  C   UNL     1       9.138   6.233  92.436  1.00  0.00    -0.059 C 
HETATM   15  C   UNL     1       8.289   7.084  92.458  1.00  0.00    -0.059 C 
BRANCH  15  16
HETATM   16  C   UNL     1       7.280   8.096  92.485  1.00  0.00     0.042 A 
HETATM   17  C   UNL     1       6.017   7.835  91.954  1.00  0.00     0.008 A 
HETATM   18  C   UNL     1       5.032   8.822  91.983  1.00  0.00     0.005 A 
HETATM   19  C   UNL     1       5.331  10.047  92.542  1.00  0.00     0.056 A 
HETATM   20  C   UNL     1       6.572  10.330  93.074  1.00  0.00     0.005 A 
HETATM   21  C   UNL     1       7.558   9.343  93.045  1.00  0.00     0.008 A 
BRANCH  19  22
HETATM   22  C   UNL     1       4.282  11.098  92.571  1.00  0.00     0.254 C 
HETATM   23  O   UNL     1       3.371  11.015  93.392  1.00  0.00    -0.268 OA
HETATM   24  N   UNL     1       4.433  12.133  91.658  1.00  0.00    -0.335 N 
HETATM   25  HN  UNL     1       5.225  12.148  91.027  1.00  0.00     0.164 HD
BRANCH  24  26
HETATM   26  C   UNL     1       3.512  13.238  91.579  1.00  0.00     0.169 C 
BRANCH  26  27
HETATM   27  C   UNL     1       3.997  14.471  92.353  1.00  0.00     0.138 C 
HETATM   28  C   UNL     1       4.788  15.436  91.477  1.00  0.00     0.034 C 
BRANCH  27  29
HETATM   29  O   UNL     1       2.875  15.160  92.905  1.00  0.00    -0.383 OA
HETATM   30  H   UNL     1       2.649  14.743  93.753  1.00  0.00     0.210 HD
ENDBRANCH  27  29
ENDBRANCH  26  27
BRANCH  26  31
HETATM   31  C   UNL     1       3.294  13.559  90.104  1.00  0.00     0.194 C 
HETATM   32  O   UNL     1       2.363  14.253  89.700  1.00  0.00    -0.289 OA
BRANCH  31  33
HETATM   33  C   UNL     1       4.229  12.955  89.298  1.00  0.00     0.053 C 
BRANCH  33  34
HETATM   34  C   UNL     1       3.852  11.723  88.744  1.00  0.00     0.220 C 
BRANCH  34  35
HETATM   35  O   UNL     1       3.296  11.951  87.653  1.00  0.00    -0.371 OA
HETATM   36  H   UNL     1       2.802  11.149  87.585  1.00  0.00     0.211 HD
ENDBRANCH  34  35
BRANCH  34  37
HETATM   37  C   UNL     1       4.917  10.815  88.622  1.00  0.00     0.185 C 
HETATM   38  O   UNL     1       4.121  10.248  87.729  1.00  0.00    -0.647 OA
BRANCH  37  39
HETATM   39  O   UNL     1       5.983  10.645  89.132  1.00  0.00    -0.774 OA
HETATM   40  H   UNL     1       6.357   9.585  88.976  1.00  0.00     0.167 HD
ENDBRANCH  37  39
ENDBRANCH  34  37
ENDBRANCH  33  34
ENDBRANCH  31  33
ENDBRANCH  26  31
ENDBRANCH  24  26
ENDBRANCH  19  22
ENDBRANCH  15  16
ENDBRANCH  11  14
ENDBRANCH   7   8
ENDBRANCH   2   7
TORSDOF 14
ENDMDL
MODEL 3
REMARK VINA RESULT:      -4.1      2.785     12.743
REMARK  14 active torsions:
REMARK  status: ('A' for Active; 'I' for Inactive)
REMARK    1  A    between atoms: O_2  and  C_18 
REMARK    2  A    between atoms: C_5  and  C_8 
REMARK    3  A    between atoms: C_5  and  O_35 
REMARK    4  A    between atoms: C_5  and  C_36 
REMARK    5  A    between atoms: N_6  and  C_11 
REMARK    6  A    between atoms: N_7  and  C_15 
REMARK       I    between atoms: N_7  and  C_24 
REMARK    7  A    between atoms: C_8  and  C_23 
REMARK    8  A    between atoms: C_11  and  C_14 
REMARK    9  A    between atoms: C_15  and  C_18 
REMARK   10  A    between atoms: C_15  and  C_23 
REMARK   11  A    between atoms: C_21  and  C_26 
REMARK   12  A    between atoms: C_24  and  C_25 
REMARK   13  A    between atoms: C_29  and  C_32 
REMARK   14  A    between atoms: C_36  and  O_39 
ROOT
HETATM    1  O   UNL     1       2.850  14.582  93.819  1.00  0.00    -0.350 OA
HETATM    2  N   UNL     1       2.927  14.720  90.977  1.00  0.00     0.147 N 
HETATM    3  C   UNL     1       1.823  14.056  91.684  1.00  0.00     0.283 C 
HETATM    4  C   UNL     1       4.157  14.640  91.777  1.00  0.00     0.283 C 
HETATM    5  C   UNL     1       1.641  14.683  93.064  1.00  0.00     0.178 C 
HETATM    6  C   UNL     1       3.921  15.252  93.154  1.00  0.00     0.178 C 
ENDROOT
BRANCH   2   7
HETATM    7  C   UNL     1       3.126  14.128  89.656  1.00  0.00     0.277 C 
BRANCH   7   8
HETATM    8  C   UNL     1       4.022  12.937  89.696  1.00  0.00     0.011 A 
HETATM    9  C   UNL     1       5.365  13.064  89.337  1.00  0.00    -0.002 A 
HETATM   10  C   UNL     1       6.204  11.950  89.372  1.00  0.00     0.008 A 
HETATM   11  C   UNL     1       5.701  10.712  89.769  1.00  0.00     0.042 A 
HETATM   12  C   UNL     1       4.361  10.584  90.128  1.00  0.00     0.008 A 
HETATM   13  C   UNL     1       3.521  11.697  90.092  1.00  0.00    -0.002 A 
BRANCH  11  14
HETATM   14  C   UNL     1       6.562   9.570  89.807  1.00  0.00    -0.059 C 
HETATM   15  C   UNL     1       7.286   8.610  89.839  1.00  0.00    -0.059 C 
BRANCH  15  16
HETATM   16  C   UNL     1       8.147   7.470  89.876  1.00  0.00     0.042 A 
HETATM   17  C   UNL     1       8.904   7.205  91.018  1.00  0.00     0.008 A 
HETATM   18  C   UNL     1       9.742   6.091  91.055  1.00  0.00     0.005 A 
HETATM   19  C   UNL     1       9.804   5.266  89.952  1.00  0.00     0.056 A 
HETATM   20  C   UNL     1       9.066   5.506  88.811  1.00  0.00     0.005 A 
HETATM   21  C   UNL     1       8.228   6.620  88.773  1.00  0.00     0.008 A 
BRANCH  19  22
HETATM   22  C   UNL     1      10.698   4.080  89.991  1.00  0.00     0.254 C 
HETATM   23  O   UNL     1      10.335   3.037  89.453  1.00  0.00    -0.268 OA
HETATM   24  N   UNL     1      11.917   4.259  90.630  1.00  0.00    -0.335 N 
HETATM   25  HN  UNL     1      12.159   5.158  91.030  1.00  0.00     0.164 HD
BRANCH  24  26
HETATM   26  C   UNL     1      12.901   3.212  90.730  1.00  0.00     0.169 C 
BRANCH  26  27
HETATM   27  C   UNL     1      14.337   3.750  90.786  1.00  0.00     0.138 C 
HETATM   28  C   UNL     1      15.278   3.001  89.849  1.00  0.00     0.034 C 
BRANCH  27  29
HETATM   29  O   UNL     1      14.342   5.134  90.439  1.00  0.00    -0.383 OA
HETATM   30  H   UNL     1      14.365   5.206  89.470  1.00  0.00     0.210 HD
ENDBRANCH  27  29
ENDBRANCH  26  27
BRANCH  26  31
HETATM   31  C   UNL     1      12.572   2.379  91.965  1.00  0.00     0.194 C 
HETATM   32  O   UNL     1      11.421   2.124  92.313  1.00  0.00    -0.289 OA
BRANCH  31  33
HETATM   33  C   UNL     1      13.701   1.993  92.646  1.00  0.00     0.053 C 
BRANCH  33  34
HETATM   34  C   UNL     1      13.918   2.627  93.877  1.00  0.00     0.220 C 
BRANCH  34  35
HETATM   35  O   UNL     1      15.148   2.683  94.065  1.00  0.00    -0.371 OA
HETATM   36  H   UNL     1      15.160   3.426  94.649  1.00  0.00     0.211 HD
ENDBRANCH  34  35
BRANCH  34  37
HETATM   37  C   UNL     1      13.305   3.888  93.973  1.00  0.00     0.185 C 
HETATM   38  O   UNL     1      14.555   4.309  94.088  1.00  0.00    -0.647 OA
BRANCH  37  39
HETATM   39  O   UNL     1      12.192   4.320  93.989  1.00  0.00    -0.774 OA
HETATM   40  H   UNL     1      11.911   4.790  92.995  1.00  0.00     0.167 HD
ENDBRANCH  37  39
ENDBRANCH  34  37
ENDBRANCH  33  34
ENDBRANCH  31  33
ENDBRANCH  26  31
ENDBRANCH  24  26
ENDBRANCH  19  22
ENDBRANCH  15  16
ENDBRANCH  11  14
ENDBRANCH   7   8
ENDBRANCH   2   7
TORSDOF 14
ENDMDL
