MODEL 1
REMARK VINA RESULT:      -7.3      0.000      0.000
REMARK  9 active torsions:
REMARK  status: ('A' for Active; 'I' for Inactive)
REMARK    1  A    between atoms: O_2  and  C_17 
REMARK    2  A    between atoms: N_5  and  C_10 
REMARK    3  A    between atoms: N_6  and  C_14 
REMARK       I    between atoms: N_6  and  C_23 
REMARK       I    between atoms: N_7  and  C_22 
REMARK    4  A    between atoms: C_10  and  C_13 
REMARK    5  A    between atoms: C_14  and  C_17 
REMARK    6  A    between atoms: C_14  and  C_22 
REMARK    7  A    between atoms: C_20  and  C_25 
REMARK    8  A    between atoms: C_23  and  C_24 
REMARK    9  A    between atoms: C_28  and  C_31 
ROOT
HETATM    1  O   UNL     1      15.862   3.860  94.072  1.00  0.00    -0.388 OA
HETATM    2  N   UNL     1      14.040   2.498  92.362  1.00  0.00     0.096 N 
HETATM    3  C   UNL     1      14.178   3.960  92.327  1.00  0.00     0.299 C 
HETATM    4  C   UNL     1      14.357   1.994  93.706  1.00  0.00     0.299 C 
HETATM    5  C   UNL     1      15.588   4.356  92.760  1.00  0.00     0.198 C 
HETATM    6  C   UNL     1      15.760   2.436  94.107  1.00  0.00     0.198 C 
ENDROOT
BRANCH   2   7
HETATM    7  C   UNL     1      12.693   2.096  91.961  1.00  0.00     0.311 C 
BRANCH   7   8
HETATM    8  C   UNL     1      11.820   3.264  91.650  1.00  0.00    -0.030 A 
HETATM    9  C   UNL     1      11.523   3.578  90.323  1.00  0.00     0.010 A 
HETATM   10  C   UNL     1      10.709   4.672  90.031  1.00  0.00     0.021 A 
HETATM   11  C   UNL     1      10.191   5.450  91.066  1.00  0.00     0.018 A 
HETATM   12  C   UNL     1      10.486   5.137  92.391  1.00  0.00     0.021 A 
HETATM   13  C   UNL     1      11.301   4.044  92.683  1.00  0.00     0.010 A 
BRANCH  11  14
HETATM   14  C   UNL     1       9.354   6.571  90.766  1.00  0.00    -0.061 C 
HETATM   15  C   UNL     1       8.650   7.513  90.513  1.00  0.00    -0.061 C 
BRANCH  15  16
HETATM   16  C   UNL     1       7.813   8.633  90.213  1.00  0.00     0.018 A 
HETATM   17  C   UNL     1       6.432   8.533  90.377  1.00  0.00     0.022 A 
HETATM   18  C   UNL     1       5.616   9.626  90.087  1.00  0.00     0.018 A 
HETATM   19  C   UNL     1       6.199  10.794  89.641  1.00  0.00     0.032 A 
HETATM   20  C   UNL     1       7.562  10.917  89.470  1.00  0.00     0.018 A 
HETATM   21  C   UNL     1       8.379   9.825  89.760  1.00  0.00     0.022 A 
BRANCH  19  22
HETATM   22  C   UNL     1       5.329  11.957  89.330  1.00  0.00     0.252 C 
HETATM   23  O   UNL     1       5.143  12.271  88.157  1.00  0.00    -0.268 OA
HETATM   24  N   UNL     1       4.761  12.600  90.421  1.00  0.00    -0.342 N 
HETATM   25  H   UNL     1       4.940  12.269  91.362  1.00  0.00     0.163 HD
BRANCH  24  26
HETATM   26  C   UNL     1       3.875  13.729  90.281  1.00  0.00     0.199 C 
BRANCH  26  27
HETATM   27  C   UNL     1       2.492  13.477  90.893  1.00  0.00     0.145 C 
HETATM   28  C   UNL     1       2.482  12.286  91.845  1.00  0.00     0.042 C 
BRANCH  27  29
HETATM   29  O   UNL     1       2.064  14.640  91.601  1.00  0.00    -0.393 OA
HETATM   30  H   UNL     1       2.193  15.412  91.025  1.00  0.00     0.210 HD
ENDBRANCH  27  29
ENDBRANCH  26  27
BRANCH  26  31
HETATM   31  C   UNL     1       4.554  14.935  90.923  1.00  0.00     0.220 C 
HETATM   32  O   UNL     1       4.379  15.256  92.097  1.00  0.00    -0.278 OA
HETATM   33  N   UNL     1       5.338  15.625  90.030  1.00  0.00    -0.271 NA
HETATM   34  H   UNL     1       5.433  15.441  89.038  1.00  0.00     0.127 HD
HETATM   35  H   UNL     1       5.100  16.882  89.453  1.00  0.00     0.127 HD
ENDBRANCH  26  31
ENDBRANCH  24  26
ENDBRANCH  19  22
ENDBRANCH  15  16
ENDBRANCH  11  14
ENDBRANCH   7   8
ENDBRANCH   2   7
TORSDOF 9
ENDMDL
MODEL 2
REMARK VINA RESULT:      -7.0      1.865      2.611
REMARK  9 active torsions:
REMARK  status: ('A' for Active; 'I' for Inactive)
REMARK    1  A    between atoms: O_2  and  C_17 
REMARK    2  A    between atoms: N_5  and  C_10 
REMARK    3  A    between atoms: N_6  and  C_14 
REMARK       I    between atoms: N_6  and  C_23 
REMARK       I    between atoms: N_7  and  C_22 
REMARK    4  A    between atoms: C_10  and  C_13 
REMARK    5  A    between atoms: C_14  and  C_17 
REMARK    6  A    between atoms: C_14  and  C_22 
REMARK    7  A    between atoms: C_20  and  C_25 
REMARK    8  A    between atoms: C_23  and  C_24 
REMARK    9  A    between atoms: C_28  and  C_31 
ROOT
HETATM    1  O   UNL     1      16.255   4.048  94.124  1.00  0.00    -0.388 OA
HETATM    2  N   UNL     1      14.370   2.737  92.441  1.00  0.00     0.096 N 
HETATM    3  C   UNL     1      14.513   4.200  92.441  1.00  0.00     0.299 C 
HETATM    4  C   UNL     1      14.731   2.196  93.759  1.00  0.00     0.299 C 
HETATM    5  C   UNL     1      15.937   4.580  92.837  1.00  0.00     0.198 C 
HETATM    6  C   UNL     1      16.149   2.624  94.124  1.00  0.00     0.198 C 
ENDROOT
BRANCH   2   7
HETATM    7  C   UNL     1      13.009   2.349  92.076  1.00  0.00     0.311 C 
BRANCH   7   8
HETATM    8  C   UNL     1      12.055   3.492  92.146  1.00  0.00    -0.030 A 
HETATM    9  C   UNL     1      11.691   4.021  93.385  1.00  0.00     0.010 A 
HETATM   10  C   UNL     1      10.797   5.089  93.453  1.00  0.00     0.021 A 
HETATM   11  C   UNL     1      10.268   5.629  92.281  1.00  0.00     0.018 A 
HETATM   12  C   UNL     1      10.630   5.102  91.043  1.00  0.00     0.021 A 
HETATM   13  C   UNL     1      11.524   4.033  90.975  1.00  0.00     0.010 A 
BRANCH  11  14
HETATM   14  C   UNL     1       9.352   6.725  92.350  1.00  0.00    -0.061 C 
HETATM   15  C   UNL     1       8.581   7.647  92.409  1.00  0.00    -0.061 C 
BRANCH  15  16
HETATM   16  C   UNL     1       7.666   8.743  92.479  1.00  0.00     0.018 A 
HETATM   17  C   UNL     1       6.837   9.028  91.393  1.00  0.00     0.022 A 
HETATM   18  C   UNL     1       5.942  10.096  91.463  1.00  0.00     0.018 A 
HETATM   19  C   UNL     1       5.896  10.853  92.615  1.00  0.00     0.032 A 
HETATM   20  C   UNL     1       6.705  10.591  93.701  1.00  0.00     0.018 A 
HETATM   21  C   UNL     1       7.600   9.524  93.632  1.00  0.00     0.022 A 
BRANCH  19  22
HETATM   22  C   UNL     1       4.944  11.992  92.688  1.00  0.00     0.252 C 
HETATM   23  O   UNL     1       4.533  12.361  93.785  1.00  0.00    -0.268 OA
HETATM   24  N   UNL     1       4.604  12.579  91.477  1.00  0.00    -0.342 N 
HETATM   25  H   UNL     1       5.003  12.235  90.611  1.00  0.00     0.163 HD
BRANCH  24  26
HETATM   26  C   UNL     1       3.712  13.706  91.385  1.00  0.00     0.199 C 
BRANCH  26  27
HETATM   27  C   UNL     1       3.608  14.266  89.961  1.00  0.00     0.145 C 
HETATM   28  C   UNL     1       4.941  14.797  89.443  1.00  0.00     0.042 C 
BRANCH  27  29
HETATM   29  O   UNL     1       3.142  13.245  89.079  1.00  0.00    -0.393 OA
HETATM   30  H   UNL     1       3.670  12.444  89.235  1.00  0.00     0.210 HD
ENDBRANCH  27  29
ENDBRANCH  26  27
BRANCH  26  31
HETATM   31  C   UNL     1       2.349  13.266  91.909  1.00  0.00     0.220 C 
HETATM   32  O   UNL     1       1.739  12.299  91.457  1.00  0.00    -0.278 OA
HETATM   33  N   UNL     1       1.882  14.094  92.901  1.00  0.00    -0.271 NA
HETATM   34  H   UNL     1       2.316  14.947  93.234  1.00  0.00     0.127 HD
HETATM   35  H   UNL     1       0.835  15.026  92.838  1.00  0.00     0.127 HD
ENDBRANCH  26  31
ENDBRANCH  24  26
ENDBRANCH  19  22
ENDBRANCH  15  16
ENDBRANCH  11  14
ENDBRANCH   7   8
ENDBRANCH   2   7
TORSDOF 9
ENDMDL
MODEL 3
REMARK VINA RESULT:      -5.7      1.642     12.253
REMARK  9 active torsions:
REMARK  status: ('A' for Active; 'I' for Inactive)
REMARK    1  A    between atoms: O_2  and  C_17 
REMARK    2  A    between atoms: N_5  and  C_10 
REMARK    3  A    between atoms: N_6  and  C_14 
REMARK       I    between atoms: N_6  and  C_23 
REMARK       I    between atoms: N_7  and  C_22 
REMARK    4  A    between atoms: C_10  and  C_13 
REMARK    5  A    between atoms: C_14  and  C_17 
REMARK    6  A    between atoms: C_14  and  C_22 
REMARK    7  A    between atoms: C_20  and  C_25 
REMARK    8  A    between atoms: C_23  and  C_24 
REMARK    9  A    between atoms: C_28  and  C_31 
ROOT
HETATM    1  O   UNL     1       4.722  15.172  91.433  1.00  0.00    -0.388 OA
HETATM    2  N   UNL     1       3.859  13.442  89.344  1.00  0.00     0.096 N 
HETATM    3  C   UNL     1       3.490  13.197  90.746  1.00  0.00     0.299 C 
HETATM    4  C   UNL     1       5.148  14.143  89.278  1.00  0.00     0.299 C 
HETATM    5  C   UNL     1       3.454  14.519  91.509  1.00  0.00     0.198 C 
HETATM    6  C   UNL     1       5.073  15.441  90.075  1.00  0.00     0.198 C 
ENDROOT
BRANCH   2   7
HETATM    7  C   UNL     1       3.910  12.187  88.596  1.00  0.00     0.311 C 
BRANCH   7   8
HETATM    8  C   UNL     1       4.879  11.217  89.181  1.00  0.00    -0.030 A 
HETATM    9  C   UNL     1       6.211  11.589  89.369  1.00  0.00     0.010 A 
HETATM   10  C   UNL     1       7.118  10.681  89.913  1.00  0.00     0.021 A 
HETATM   11  C   UNL     1       6.693   9.402  90.272  1.00  0.00     0.018 A 
HETATM   12  C   UNL     1       5.364   9.029  90.085  1.00  0.00     0.021 A 
HETATM   13  C   UNL     1       4.456   9.937  89.540  1.00  0.00     0.010 A 
BRANCH  11  14
HETATM   14  C   UNL     1       7.624   8.472  90.833  1.00  0.00    -0.061 C 
HETATM   15  C   UNL     1       8.407   7.690  91.305  1.00  0.00    -0.061 C 
BRANCH  15  16
HETATM   16  C   UNL     1       9.337   6.761  91.866  1.00  0.00     0.018 A 
HETATM   17  C   UNL     1      10.003   5.856  91.038  1.00  0.00     0.022 A 
HETATM   18  C   UNL     1      10.913   4.952  91.586  1.00  0.00     0.018 A 
HETATM   19  C   UNL     1      11.136   4.972  92.947  1.00  0.00     0.032 A 
HETATM   20  C   UNL     1      10.490   5.855  93.786  1.00  0.00     0.018 A 
HETATM   21  C   UNL     1       9.580   6.760  93.240  1.00  0.00     0.022 A 
BRANCH  19  22
HETATM   22  C   UNL     1      12.103   4.006  93.530  1.00  0.00     0.252 C 
HETATM   23  O   UNL     1      11.680   3.017  94.124  1.00  0.00    -0.268 OA
HETATM   24  N   UNL     1      13.446   4.295  93.330  1.00  0.00    -0.342 N 
HETATM   25  H   UNL     1      13.721   5.118  92.807  1.00  0.00     0.163 HD
BRANCH  24  26
HETATM   26  C   UNL     1      14.503   3.443  93.813  1.00  0.00     0.199 C 
BRANCH  26  27
HETATM   27  C   UNL     1      14.617   2.133  93.023  1.00  0.00     0.145 C 
HETATM   28  C   UNL     1      14.819   0.922  93.927  1.00  0.00     0.042 C 
BRANCH  27  29
HETATM   29  O   UNL     1      13.435   1.939  92.246  1.00  0.00    -0.393 OA
HETATM   30  H   UNL     1      12.675   1.903  92.851  1.00  0.00     0.210 HD
ENDBRANCH  27  29
ENDBRANCH  26  27
BRANCH  26  31
HETATM   31  C   UNL     1      15.803   4.238  93.759  1.00  0.00     0.220 C 
HETATM   32  O   UNL     1      15.839   5.466  93.792  1.00  0.00    -0.278 OA
HETATM   33  N   UNL     1      16.904   3.425  93.632  1.00  0.00    -0.271 NA
HETATM   34  H   UNL     1      16.904   2.419  93.512  1.00  0.00     0.127 HD
HETATM   35  H   UNL     1      17.727   3.241  92.510  1.00  0.00     0.127 HD
ENDBRANCH  26  31
ENDBRANCH  24  26
ENDBRANCH  19  22
ENDBRANCH  15  16
ENDBRANCH  11  14
ENDBRANCH   7   8
ENDBRANCH   2   7
TORSDOF 9
ENDMDL
MODEL 4
REMARK VINA RESULT:      -5.6      1.999     12.338
REMARK  9 active torsions:
REMARK  status: ('A' for Active; 'I' for Inactive)
REMARK    1  A    between atoms: O_2  and  C_17 
REMARK    2  A    between atoms: N_5  and  C_10 
REMARK    3  A    between atoms: N_6  and  C_14 
REMARK       I    between atoms: N_6  and  C_23 
REMARK       I    between atoms: N_7  and  C_22 
REMARK    4  A    between atoms: C_10  and  C_13 
REMARK    5  A    between atoms: C_14  and  C_17 
REMARK    6  A    between atoms: C_14  and  C_22 
REMARK    7  A    between atoms: C_20  and  C_25 
REMARK    8  A    between atoms: C_23  and  C_24 
REMARK    9  A    between atoms: C_28  and  C_31 
ROOT
HETATM    1  O   UNL     1       5.477  14.765  89.106  1.00  0.00    -0.388 OA
HETATM    2  N   UNL     1       3.499  13.074  90.260  1.00  0.00     0.096 N 
HETATM    3  C   UNL     1       4.080  14.198  91.008  1.00  0.00     0.299 C 
HETATM    4  C   UNL     1       4.470  12.565  89.282  1.00  0.00     0.299 C 
HETATM    5  C   UNL     1       4.528  15.288  90.038  1.00  0.00     0.198 C 
HETATM    6  C   UNL     1       4.910  13.692  88.353  1.00  0.00     0.198 C 
ENDROOT
BRANCH   2   7
HETATM    7  C   UNL     1       3.073  12.013  91.170  1.00  0.00     0.311 C 
BRANCH   7   8
HETATM    8  C   UNL     1       4.148  11.009  91.416  1.00  0.00    -0.030 A 
HETATM    9  C   UNL     1       4.128   9.788  90.741  1.00  0.00     0.010 A 
HETATM   10  C   UNL     1       5.132   8.848  90.972  1.00  0.00     0.021 A 
HETATM   11  C   UNL     1       6.155   9.130  91.876  1.00  0.00     0.018 A 
HETATM   12  C   UNL     1       6.176  10.349  92.550  1.00  0.00     0.021 A 
HETATM   13  C   UNL     1       5.172  11.289  92.321  1.00  0.00     0.010 A 
BRANCH  11  14
HETATM   14  C   UNL     1       7.186   8.166  92.111  1.00  0.00    -0.061 C 
HETATM   15  C   UNL     1       8.052   7.356  92.309  1.00  0.00    -0.061 C 
BRANCH  15  16
HETATM   16  C   UNL     1       9.082   6.392  92.544  1.00  0.00     0.018 A 
HETATM   17  C   UNL     1       9.452   5.508  91.530  1.00  0.00     0.022 A 
HETATM   18  C   UNL     1      10.459   4.569  91.759  1.00  0.00     0.018 A 
HETATM   19  C   UNL     1      11.072   4.536  92.994  1.00  0.00     0.032 A 
HETATM   20  C   UNL     1      10.723   5.399  94.012  1.00  0.00     0.018 A 
HETATM   21  C   UNL     1       9.717   6.338  93.785  1.00  0.00     0.022 A 
BRANCH  19  22
HETATM   22  C   UNL     1      12.142   3.535  93.238  1.00  0.00     0.252 C 
HETATM   23  O   UNL     1      11.932   2.355  92.969  1.00  0.00    -0.268 OA
HETATM   24  N   UNL     1      13.336   4.032  93.741  1.00  0.00    -0.342 N 
HETATM   25  H   UNL     1      13.446   5.024  93.915  1.00  0.00     0.163 HD
BRANCH  24  26
HETATM   26  C   UNL     1      14.476   3.191  94.006  1.00  0.00     0.199 C 
BRANCH  26  27
HETATM   27  C   UNL     1      14.537   1.966  93.085  1.00  0.00     0.145 C 
HETATM   28  C   UNL     1      15.484   2.168  91.907  1.00  0.00     0.042 C 
BRANCH  27  29
HETATM   29  O   UNL     1      14.964   0.827  93.832  1.00  0.00    -0.393 OA
HETATM   30  H   UNL     1      14.337   0.690  94.562  1.00  0.00     0.210 HD
ENDBRANCH  27  29
ENDBRANCH  26  27
BRANCH  26  31
HETATM   31  C   UNL     1      15.730   4.049  93.872  1.00  0.00     0.220 C 
HETATM   32  O   UNL     1      15.694   5.252  93.619  1.00  0.00    -0.278 OA
HETATM   33  N   UNL     1      16.880   3.315  94.027  1.00  0.00    -0.271 NA
HETATM   34  H   UNL     1      16.948   2.311  94.147  1.00  0.00     0.127 HD
HETATM   35  H   UNL     1      17.816   2.943  93.049  1.00  0.00     0.127 HD
ENDBRANCH  26  31
ENDBRANCH  24  26
ENDBRANCH  19  22
ENDBRANCH  15  16
ENDBRANCH  11  14
ENDBRANCH   7   8
ENDBRANCH   2   7
TORSDOF 9
ENDMDL
MODEL 5
REMARK VINA RESULT:      -5.1      2.356     12.454
REMARK  9 active torsions:
REMARK  status: ('A' for Active; 'I' for Inactive)
REMARK    1  A    between atoms: O_2  and  C_17 
REMARK    2  A    between atoms: N_5  and  C_10 
REMARK    3  A    between atoms: N_6  and  C_14 
REMARK       I    between atoms: N_6  and  C_23 
REMARK       I    between atoms: N_7  and  C_22 
REMARK    4  A    between atoms: C_10  and  C_13 
REMARK    5  A    between atoms: C_14  and  C_17 
REMARK    6  A    between atoms: C_14  and  C_22 
REMARK    7  A    between atoms: C_20  and  C_25 
REMARK    8  A    between atoms: C_23  and  C_24 
REMARK    9  A    between atoms: C_28  and  C_31 
ROOT
HETATM    1  O   UNL     1       2.787  14.349  91.698  1.00  0.00    -0.388 OA
HETATM    2  N   UNL     1       1.829  11.683  91.970  1.00  0.00     0.096 N 
HETATM    3  C   UNL     1       1.404  12.749  92.888  1.00  0.00     0.299 C 
HETATM    4  C   UNL     1       3.177  11.967  91.458  1.00  0.00     0.299 C 
HETATM    5  C   UNL     1       1.464  14.098  92.176  1.00  0.00     0.198 C 
HETATM    6  C   UNL     1       3.196  13.334  90.782  1.00  0.00     0.198 C 
ENDROOT
BRANCH   2   7
HETATM    7  C   UNL     1       1.789  10.381  92.634  1.00  0.00     0.311 C 
BRANCH   7   8
HETATM    8  C   UNL     1       3.079   9.644  92.517  1.00  0.00    -0.030 A 
HETATM    9  C   UNL     1       4.062   9.801  93.495  1.00  0.00     0.010 A 
HETATM   10  C   UNL     1       5.271   9.113  93.386  1.00  0.00     0.021 A 
HETATM   11  C   UNL     1       5.495   8.267  92.300  1.00  0.00     0.018 A 
HETATM   12  C   UNL     1       4.514   8.110  91.323  1.00  0.00     0.021 A 
HETATM   13  C   UNL     1       3.305   8.798  91.432  1.00  0.00     0.010 A 
BRANCH  11  14
HETATM   14  C   UNL     1       6.734   7.560  92.189  1.00  0.00    -0.061 C 
HETATM   15  C   UNL     1       7.775   6.966  92.096  1.00  0.00    -0.061 C 
BRANCH  15  16
HETATM   16  C   UNL     1       9.013   6.259  91.986  1.00  0.00     0.018 A 
HETATM   17  C   UNL     1       9.501   5.902  90.729  1.00  0.00     0.022 A 
HETATM   18  C   UNL     1      10.710   5.215  90.622  1.00  0.00     0.018 A 
HETATM   19  C   UNL     1      11.403   4.901  91.772  1.00  0.00     0.032 A 
HETATM   20  C   UNL     1      10.941   5.242  93.026  1.00  0.00     0.018 A 
HETATM   21  C   UNL     1       9.732   5.929  93.135  1.00  0.00     0.022 A 
BRANCH  19  22
HETATM   22  C   UNL     1      12.690   4.167  91.657  1.00  0.00     0.252 C 
HETATM   23  O   UNL     1      13.059   3.773  90.553  1.00  0.00    -0.268 OA
HETATM   24  N   UNL     1      13.403   4.001  92.836  1.00  0.00    -0.342 N 
HETATM   25  H   UNL     1      13.046   4.375  93.708  1.00  0.00     0.163 HD
BRANCH  24  26
HETATM   26  C   UNL     1      14.678   3.332  92.884  1.00  0.00     0.199 C 
BRANCH  26  27
HETATM   27  C   UNL     1      15.650   3.979  93.879  1.00  0.00     0.145 C 
HETATM   28  C   UNL     1      16.963   3.212  93.995  1.00  0.00     0.042 C 
BRANCH  27  29
HETATM   29  O   UNL     1      15.930   5.318  93.471  1.00  0.00    -0.393 OA
HETATM   30  H   UNL     1      16.044   5.862  94.268  1.00  0.00     0.210 HD
ENDBRANCH  27  29
ENDBRANCH  26  27
BRANCH  26  31
HETATM   31  C   UNL     1      14.424   1.869  93.229  1.00  0.00     0.220 C 
HETATM   32  O   UNL     1      15.029   1.276  94.121  1.00  0.00    -0.278 OA
HETATM   33  N   UNL     1      13.483   1.297  92.407  1.00  0.00    -0.271 NA
HETATM   34  H   UNL     1      13.033   1.729  91.608  1.00  0.00     0.127 HD
HETATM   35  H   UNL     1      13.675   0.351  91.388  1.00  0.00     0.127 HD
ENDBRANCH  26  31
ENDBRANCH  24  26
ENDBRANCH  19  22
ENDBRANCH  15  16
ENDBRANCH  11  14
ENDBRANCH   7   8
ENDBRANCH   2   7
TORSDOF 9
ENDMDL
