MODEL 1
REMARK VINA RESULT:      -7.5      0.000      0.000
REMARK  9 active torsions:
REMARK  status: ('A' for Active; 'I' for Inactive)
REMARK    1  A    between atoms: N_3  and  C_6 
REMARK    2  A    between atoms: C_6  and  C_9 
REMARK    3  A    between atoms: C_14  and  C_17 
REMARK       I    between atoms: N_26  and  C_15 
REMARK    4  A    between atoms: C_15  and  C_16 
REMARK    5  A    between atoms: C_20  and  C_23 
REMARK    6  A    between atoms: OG1_24  and  CB_28 
REMARK    7  A    between atoms: N_26  and  CA_27 
REMARK    8  A    between atoms: CA_27  and  CB_28 
REMARK    9  A    between atoms: CA_27  and  C_30 
ROOT
HETATM    1  O   UNK A   0       2.040   8.099  87.818  1.00  0.00    -0.388 OA
HETATM    2  N   UNK A   0       4.826   7.540  87.660  1.00  0.00     0.096 N 
HETATM    3  C   UNK A   0       4.324   8.917  87.759  1.00  0.00     0.299 C 
HETATM    4  C   UNK A   0       3.831   6.688  86.992  1.00  0.00     0.299 C 
HETATM    5  C   UNK A   0       2.986   8.928  88.495  1.00  0.00     0.198 C 
HETATM    6  C   UNK A   0       2.506   6.752  87.745  1.00  0.00     0.198 C 
ENDROOT
BRANCH   2   7
HETATM    7  C   UNK A   0       6.102   7.504  86.948  1.00  0.00     0.311 C 
BRANCH   7   8
HETATM    8  C   UNK A   0       7.194   6.909  87.770  1.00  0.00    -0.030 A 
HETATM    9  C   UNK A   0       6.983   6.647  89.125  1.00  0.00     0.010 A 
HETATM   10  C   UNK A   0       8.005   6.093  89.895  1.00  0.00     0.021 A 
HETATM   11  C   UNK A   0       9.236   5.798  89.311  1.00  0.00     0.018 A 
HETATM   12  C   UNK A   0       9.448   6.059  87.959  1.00  0.00     0.021 A 
HETATM   13  C   UNK A   0       8.427   6.615  87.188  1.00  0.00     0.010 A 
BRANCH  11  14
HETATM   14  C   UNK A   0      10.284   5.228  90.101  1.00  0.00    -0.061 C 
HETATM   15  C   UNK A   0      11.164   4.748  90.765  1.00  0.00    -0.061 C 
BRANCH  15  16
HETATM   16  C   UNK A   0      12.211   4.178  91.554  1.00  0.00     0.018 A 
HETATM   17  C   UNK A   0      11.957   3.785  92.868  1.00  0.00     0.022 A 
HETATM   18  C   UNK A   0      12.979   3.226  93.637  1.00  0.00     0.018 A 
HETATM   19  C   UNK A   0      14.229   3.073  93.075  1.00  0.00     0.032 A 
HETATM   20  C   UNK A   0      14.505   3.454  91.779  1.00  0.00     0.018 A 
HETATM   21  C   UNK A   0      13.485   4.013  91.009  1.00  0.00     0.022 A 
BRANCH  19  22
HETATM   22  C   UNK A   0      15.317   2.480  93.895  1.00  0.00     0.252 C 
HETATM   23  O   UNK A   0      16.485   2.754  93.631  1.00  0.00    -0.268 OA
ENDBRANCH  19  22
ENDBRANCH  15  16
ENDBRANCH  11  14
ENDBRANCH   7   8
ENDBRANCH   2   7
TORSDOF 9
ENDMDL
