MODEL 1
REMARK VINA RESULT:      -6.8      0.000      0.000
REMARK  11 active torsions:
REMARK  status: ('A' for Active; 'I' for Inactive)
REMARK    1  A    between atoms: O_2  and  C_18 
REMARK    2  A    between atoms: O_5  and  P_8 
REMARK    3  A    between atoms: N_6  and  C_11 
REMARK    4  A    between atoms: N_7  and  C_15 
REMARK       I    between atoms: N_7  and  C_24 
REMARK    5  A    between atoms: P_8  and  C_23 
REMARK    6  A    between atoms: C_11  and  C_14 
REMARK    7  A    between atoms: C_15  and  C_18 
REMARK    8  A    between atoms: C_15  and  C_23 
REMARK    9  A    between atoms: C_21  and  C_26 
REMARK   10  A    between atoms: C_24  and  C_25 
REMARK   11  A    between atoms: C_29  and  C_32 
ROOT
HETATM    1  O   UNL     1      16.514   4.253  94.111  1.00  0.00     0.000 OA
HETATM    2  N   UNL     1      14.610   2.764  92.609  1.00  0.00     0.000 N 
HETATM    3  C   UNL     1      14.603   4.234  92.615  1.00  0.00     0.000 C 
HETATM    4  C   UNL     1      15.155   2.258  93.876  1.00  0.00     0.000 C 
HETATM    5  C   UNL     1      16.015   4.756  92.870  1.00  0.00     0.000 C 
HETATM    6  C   UNL     1      16.553   2.826  94.102  1.00  0.00     0.000 C 
ENDROOT
BRANCH   2   7
HETATM    7  C   UNL     1      13.264   2.242  92.376  1.00  0.00     0.000 C 
BRANCH   7   8
HETATM    8  C   UNL     1      12.289   3.316  92.033  1.00  0.00     0.000 A 
HETATM    9  C   UNL     1      11.543   3.927  93.042  1.00  0.00     0.000 A 
HETATM   10  C   UNL     1      10.629   4.931  92.722  1.00  0.00     0.000 A 
HETATM   11  C   UNL     1      10.463   5.324  91.394  1.00  0.00     0.000 A 
HETATM   12  C   UNL     1      11.208   4.715  90.387  1.00  0.00     0.000 A 
HETATM   13  C   UNL     1      12.122   3.711  90.706  1.00  0.00     0.000 A 
BRANCH  11  14
HETATM   14  C   UNL     1       9.527   6.355  91.066  1.00  0.00     0.000 C 
HETATM   15  C   UNL     1       8.740   7.222  90.792  1.00  0.00     0.000 C 
BRANCH  15  16
HETATM   16  C   UNL     1       7.805   8.253  90.464  1.00  0.00     0.000 A 
HETATM   17  C   UNL     1       7.704   9.384  91.275  1.00  0.00     0.000 A 
HETATM   18  C   UNL     1       6.793  10.391  90.954  1.00  0.00     0.000 A 
HETATM   19  C   UNL     1       6.007  10.245  89.830  1.00  0.00     0.000 A 
HETATM   20  C   UNL     1       6.088   9.137  89.013  1.00  0.00     0.000 A 
HETATM   21  C   UNL     1       6.998   8.129  89.334  1.00  0.00     0.000 A 
BRANCH  19  22
HETATM   22  C   UNL     1       5.036  11.317  89.490  1.00  0.00     0.000 C 
HETATM   23  O   UNL     1       4.538  11.341  88.367  1.00  0.00     0.000 OA
HETATM   24  N   UNL     1       4.743  12.217  90.505  1.00  0.00     0.000 N 
HETATM   25  HN  UNL     1       5.175  12.120  91.416  1.00  0.00     0.000 HD
BRANCH  24  26
HETATM   26  C   UNL     1       3.804  13.297  90.337  1.00  0.00     0.000 C 
BRANCH  26  27
HETATM   27  C   UNL     1       2.469  13.038  91.047  1.00  0.00     0.000 C 
HETATM   28  C   UNL     1       2.588  11.995  92.152  1.00  0.00     0.000 C 
BRANCH  27  29
HETATM   29  O   UNL     1       1.984  14.257  91.610  1.00  0.00     0.000 OA
HETATM   30  H   UNL     1       2.747  14.819  91.825  1.00  0.00     0.000 HD
ENDBRANCH  27  29
ENDBRANCH  26  27
BRANCH  26  31
HETATM   31  C   UNL     1       4.465  14.573  90.847  1.00  0.00     0.000 C 
HETATM   32  O   UNL     1       4.507  14.876  92.038  1.00  0.00     0.000 OA
BRANCH  31  33
HETATM   33  P   UNL     1       4.963  15.345  89.825  1.00  0.00     0.000 P 
HETATM   34  H   UNL     1       4.202  16.494  89.754  1.00  0.00     0.000 HD
BRANCH  33  35
HETATM   35  O   UNL     1       4.961  14.750  88.555  1.00  0.00     0.000 OA
HETATM   36  H   UNL     1       5.799  15.093  88.201  1.00  0.00     0.000 HD
ENDBRANCH  33  35
ENDBRANCH  31  33
ENDBRANCH  26  31
ENDBRANCH  24  26
ENDBRANCH  19  22
ENDBRANCH  15  16
ENDBRANCH  11  14
ENDBRANCH   7   8
ENDBRANCH   2   7
TORSDOF 11
ENDMDL
MODEL 2
REMARK VINA RESULT:      -5.7      1.704      2.210
REMARK  11 active torsions:
REMARK  status: ('A' for Active; 'I' for Inactive)
REMARK    1  A    between atoms: O_2  and  C_18 
REMARK    2  A    between atoms: O_5  and  P_8 
REMARK    3  A    between atoms: N_6  and  C_11 
REMARK    4  A    between atoms: N_7  and  C_15 
REMARK       I    between atoms: N_7  and  C_24 
REMARK    5  A    between atoms: P_8  and  C_23 
REMARK    6  A    between atoms: C_11  and  C_14 
REMARK    7  A    between atoms: C_15  and  C_18 
REMARK    8  A    between atoms: C_15  and  C_23 
REMARK    9  A    between atoms: C_21  and  C_26 
REMARK   10  A    between atoms: C_24  and  C_25 
REMARK   11  A    between atoms: C_29  and  C_32 
ROOT
HETATM    1  O   UNL     1      16.471   3.102  93.493  1.00  0.00     0.000 OA
HETATM    2  N   UNL     1      13.750   2.802  92.714  1.00  0.00     0.000 N 
HETATM    3  C   UNL     1      14.553   1.654  93.158  1.00  0.00     0.000 C 
HETATM    4  C   UNL     1      14.618   3.816  92.099  1.00  0.00     0.000 C 
HETATM    5  C   UNL     1      15.639   2.125  94.121  1.00  0.00     0.000 C 
HETATM    6  C   UNL     1      15.703   4.235  93.086  1.00  0.00     0.000 C 
ENDROOT
BRANCH   2   7
HETATM    7  C   UNL     1      12.708   2.375  91.781  1.00  0.00     0.000 C 
BRANCH   7   8
HETATM    8  C   UNL     1      11.566   3.331  91.729  1.00  0.00     0.000 A 
HETATM    9  C   UNL     1      11.367   4.236  92.773  1.00  0.00     0.000 A 
HETATM   10  C   UNL     1      10.297   5.129  92.727  1.00  0.00     0.000 A 
HETATM   11  C   UNL     1       9.428   5.119  91.636  1.00  0.00     0.000 A 
HETATM   12  C   UNL     1       9.626   4.216  90.593  1.00  0.00     0.000 A 
HETATM   13  C   UNL     1      10.695   3.322  90.639  1.00  0.00     0.000 A 
BRANCH  11  14
HETATM   14  C   UNL     1       8.331   6.037  91.588  1.00  0.00     0.000 C 
HETATM   15  C   UNL     1       7.410   6.808  91.547  1.00  0.00     0.000 C 
BRANCH  15  16
HETATM   16  C   UNL     1       6.314   7.726  91.500  1.00  0.00     0.000 A 
HETATM   17  C   UNL     1       5.039   7.270  91.165  1.00  0.00     0.000 A 
HETATM   18  C   UNL     1       3.969   8.165  91.122  1.00  0.00     0.000 A 
HETATM   19  C   UNL     1       4.199   9.493  91.414  1.00  0.00     0.000 A 
HETATM   20  C   UNL     1       5.450   9.968  91.748  1.00  0.00     0.000 A 
HETATM   21  C   UNL     1       6.520   9.074  91.791  1.00  0.00     0.000 A 
BRANCH  19  22
HETATM   22  C   UNL     1       3.060  10.446  91.366  1.00  0.00     0.000 C 
HETATM   23  O   UNL     1       1.921  10.012  91.207  1.00  0.00     0.000 OA
HETATM   24  N   UNL     1       3.381  11.786  91.533  1.00  0.00     0.000 N 
HETATM   25  HN  UNL     1       4.342  12.068  91.685  1.00  0.00     0.000 HD
BRANCH  24  26
HETATM   26  C   UNL     1       2.385  12.827  91.535  1.00  0.00     0.000 C 
BRANCH  26  27
HETATM   27  C   UNL     1       2.326  13.590  92.865  1.00  0.00     0.000 C 
HETATM   28  C   UNL     1       3.397  13.131  93.849  1.00  0.00     0.000 C 
BRANCH  27  29
HETATM   29  O   UNL     1       2.488  14.987  92.622  1.00  0.00     0.000 OA
HETATM   30  H   UNL     1       3.395  15.236  92.869  1.00  0.00     0.000 HD
ENDBRANCH  27  29
ENDBRANCH  26  27
BRANCH  26  31
HETATM   31  C   UNL     1       2.689  13.765  90.372  1.00  0.00     0.000 C 
HETATM   32  O   UNL     1       1.901  14.624  89.980  1.00  0.00     0.000 OA
BRANCH  31  33
HETATM   33  P   UNL     1       3.913  13.506  89.803  1.00  0.00     0.000 P 
HETATM   34  H   UNL     1       4.554  14.713  89.612  1.00  0.00     0.000 HD
BRANCH  33  35
HETATM   35  O   UNL     1       3.884  12.836  88.572  1.00  0.00     0.000 OA
HETATM   36  H   UNL     1       4.592  13.306  88.100  1.00  0.00     0.000 HD
ENDBRANCH  33  35
ENDBRANCH  31  33
ENDBRANCH  26  31
ENDBRANCH  24  26
ENDBRANCH  19  22
ENDBRANCH  15  16
ENDBRANCH  11  14
ENDBRANCH   7   8
ENDBRANCH   2   7
TORSDOF 11
ENDMDL
MODEL 3
REMARK VINA RESULT:      -5.6      3.681     12.311
REMARK  11 active torsions:
REMARK  status: ('A' for Active; 'I' for Inactive)
REMARK    1  A    between atoms: O_2  and  C_18 
REMARK    2  A    between atoms: O_5  and  P_8 
REMARK    3  A    between atoms: N_6  and  C_11 
REMARK    4  A    between atoms: N_7  and  C_15 
REMARK       I    between atoms: N_7  and  C_24 
REMARK    5  A    between atoms: P_8  and  C_23 
REMARK    6  A    between atoms: C_11  and  C_14 
REMARK    7  A    between atoms: C_15  and  C_18 
REMARK    8  A    between atoms: C_15  and  C_23 
REMARK    9  A    between atoms: C_21  and  C_26 
REMARK   10  A    between atoms: C_24  and  C_25 
REMARK   11  A    between atoms: C_29  and  C_32 
ROOT
HETATM    1  O   UNL     1       2.954  14.898  94.099  1.00  0.00     0.000 OA
HETATM    2  N   UNL     1       2.645  14.750  91.273  1.00  0.00     0.000 N 
HETATM    3  C   UNL     1       1.640  14.188  92.186  1.00  0.00     0.000 C 
HETATM    4  C   UNL     1       3.972  14.719  91.904  1.00  0.00     0.000 C 
HETATM    5  C   UNL     1       1.655  14.954  93.507  1.00  0.00     0.000 C 
HETATM    6  C   UNL     1       3.932  15.471  93.231  1.00  0.00     0.000 C 
ENDROOT
BRANCH   2   7
HETATM    7  C   UNL     1       2.656  14.025  90.004  1.00  0.00     0.000 C 
BRANCH   7   8
HETATM    8  C   UNL     1       3.666  12.929  89.985  1.00  0.00     0.000 A 
HETATM    9  C   UNL     1       3.400  11.724  90.637  1.00  0.00     0.000 A 
HETATM   10  C   UNL     1       4.346  10.700  90.621  1.00  0.00     0.000 A 
HETATM   11  C   UNL     1       5.556  10.879  89.952  1.00  0.00     0.000 A 
HETATM   12  C   UNL     1       5.823  12.082  89.301  1.00  0.00     0.000 A 
HETATM   13  C   UNL     1       4.878  13.107  89.317  1.00  0.00     0.000 A 
BRANCH  11  14
HETATM   14  C   UNL     1       6.526   9.827  89.934  1.00  0.00     0.000 C 
HETATM   15  C   UNL     1       7.340   8.942  89.920  1.00  0.00     0.000 C 
BRANCH  15  16
HETATM   16  C   UNL     1       8.308   7.890  89.903  1.00  0.00     0.000 A 
HETATM   17  C   UNL     1       9.167   7.753  88.812  1.00  0.00     0.000 A 
HETATM   18  C   UNL     1      10.113   6.728  88.797  1.00  0.00     0.000 A 
HETATM   19  C   UNL     1      10.179   5.865  89.871  1.00  0.00     0.000 A 
HETATM   20  C   UNL     1       9.341   5.980  90.960  1.00  0.00     0.000 A 
HETATM   21  C   UNL     1       8.395   7.005  90.977  1.00  0.00     0.000 A 
BRANCH  19  22
HETATM   22  C   UNL     1      11.186   4.772  89.853  1.00  0.00     0.000 C 
HETATM   23  O   UNL     1      11.362   4.136  88.817  1.00  0.00     0.000 OA
HETATM   24  N   UNL     1      11.884   4.569  91.035  1.00  0.00     0.000 N 
HETATM   25  HN  UNL     1      11.702   5.151  91.844  1.00  0.00     0.000 HD
BRANCH  24  26
HETATM   26  C   UNL     1      12.908   3.564  91.168  1.00  0.00     0.000 C 
BRANCH  26  27
HETATM   27  C   UNL     1      14.294   4.162  91.444  1.00  0.00     0.000 C 
HETATM   28  C   UNL     1      15.397   3.109  91.430  1.00  0.00     0.000 C 
BRANCH  27  29
HETATM   29  O   UNL     1      14.589   5.155  90.462  1.00  0.00     0.000 OA
HETATM   30  H   UNL     1      14.009   5.920  90.619  1.00  0.00     0.000 HD
ENDBRANCH  27  29
ENDBRANCH  26  27
BRANCH  26  31
HETATM   31  C   UNL     1      12.484   2.611  92.281  1.00  0.00     0.000 C 
HETATM   32  O   UNL     1      12.054   1.479  92.065  1.00  0.00     0.000 OA
BRANCH  31  33
HETATM   33  P   UNL     1      12.604   3.180  93.525  1.00  0.00     0.000 P 
HETATM   34  H   UNL     1      12.553   2.166  94.461  1.00  0.00     0.000 HD
BRANCH  33  35
HETATM   35  O   UNL     1      11.623   4.124  93.861  1.00  0.00     0.000 OA
HETATM   36  H   UNL     1      10.831   3.688  93.504  1.00  0.00     0.000 HD
ENDBRANCH  33  35
ENDBRANCH  31  33
ENDBRANCH  26  31
ENDBRANCH  24  26
ENDBRANCH  19  22
ENDBRANCH  15  16
ENDBRANCH  11  14
ENDBRANCH   7   8
ENDBRANCH   2   7
TORSDOF 11
ENDMDL
MODEL 4
REMARK VINA RESULT:      -5.1      1.709      2.163
REMARK  11 active torsions:
REMARK  status: ('A' for Active; 'I' for Inactive)
REMARK    1  A    between atoms: O_2  and  C_18 
REMARK    2  A    between atoms: O_5  and  P_8 
REMARK    3  A    between atoms: N_6  and  C_11 
REMARK    4  A    between atoms: N_7  and  C_15 
REMARK       I    between atoms: N_7  and  C_24 
REMARK    5  A    between atoms: P_8  and  C_23 
REMARK    6  A    between atoms: C_11  and  C_14 
REMARK    7  A    between atoms: C_15  and  C_18 
REMARK    8  A    between atoms: C_15  and  C_23 
REMARK    9  A    between atoms: C_21  and  C_26 
REMARK   10  A    between atoms: C_24  and  C_25 
REMARK   11  A    between atoms: C_29  and  C_32 
ROOT
HETATM    1  O   UNL     1      16.719   3.593  93.725  1.00  0.00     0.000 OA
HETATM    2  N   UNL     1      14.002   3.066  93.058  1.00  0.00     0.000 N 
HETATM    3  C   UNL     1      14.372   4.166  93.960  1.00  0.00     0.000 C 
HETATM    4  C   UNL     1      14.995   1.987  93.146  1.00  0.00     0.000 C 
HETATM    5  C   UNL     1      15.776   4.662  93.622  1.00  0.00     0.000 C 
HETATM    6  C   UNL     1      16.383   2.533  92.828  1.00  0.00     0.000 C 
ENDROOT
BRANCH   2   7
HETATM    7  C   UNL     1      12.664   2.568  93.371  1.00  0.00     0.000 C 
BRANCH   7   8
HETATM    8  C   UNL     1      11.611   3.604  93.168  1.00  0.00     0.000 A 
HETATM    9  C   UNL     1      10.791   3.553  92.040  1.00  0.00     0.000 A 
HETATM   10  C   UNL     1       9.807   4.522  91.848  1.00  0.00     0.000 A 
HETATM   11  C   UNL     1       9.641   5.541  92.786  1.00  0.00     0.000 A 
HETATM   12  C   UNL     1      10.459   5.593  93.913  1.00  0.00     0.000 A 
HETATM   13  C   UNL     1      11.444   4.624  94.105  1.00  0.00     0.000 A 
BRANCH  11  14
HETATM   14  C   UNL     1       8.630   6.534  92.590  1.00  0.00     0.000 C 
HETATM   15  C   UNL     1       7.781   7.369  92.425  1.00  0.00     0.000 C 
BRANCH  15  16
HETATM   16  C   UNL     1       6.771   8.361  92.229  1.00  0.00     0.000 A 
HETATM   17  C   UNL     1       6.980   9.667  92.675  1.00  0.00     0.000 A 
HETATM   18  C   UNL     1       5.996  10.635  92.481  1.00  0.00     0.000 A 
HETATM   19  C   UNL     1       4.825  10.278  91.845  1.00  0.00     0.000 A 
HETATM   20  C   UNL     1       4.594   8.995  91.395  1.00  0.00     0.000 A 
HETATM   21  C   UNL     1       5.578   8.025  91.589  1.00  0.00     0.000 A 
BRANCH  19  22
HETATM   22  C   UNL     1       3.776  11.310  91.640  1.00  0.00     0.000 C 
HETATM   23  O   UNL     1       2.678  10.970  91.206  1.00  0.00     0.000 OA
HETATM   24  N   UNL     1       4.123  12.607  91.988  1.00  0.00     0.000 N 
HETATM   25  HN  UNL     1       5.042  12.809  92.364  1.00  0.00     0.000 HD
BRANCH  24  26
HETATM   26  C   UNL     1       3.207  13.713  91.870  1.00  0.00     0.000 C 
BRANCH  26  27
HETATM   27  C   UNL     1       3.507  14.841  92.866  1.00  0.00     0.000 C 
HETATM   28  C   UNL     1       2.261  15.311  93.609  1.00  0.00     0.000 C 
BRANCH  27  29
HETATM   29  O   UNL     1       4.473  14.394  93.817  1.00  0.00     0.000 OA
HETATM   30  H   UNL     1       5.108  13.818  93.359  1.00  0.00     0.000 HD
ENDBRANCH  27  29
ENDBRANCH  26  27
BRANCH  26  31
HETATM   31  C   UNL     1       3.264  14.214  90.431  1.00  0.00     0.000 C 
HETATM   32  O   UNL     1       2.302  14.168  89.667  1.00  0.00     0.000 OA
BRANCH  31  33
HETATM   33  P   UNL     1       4.512  14.678  90.092  1.00  0.00     0.000 P 
HETATM   34  H   UNL     1       4.348  15.812  89.323  1.00  0.00     0.000 HD
BRANCH  33  35
HETATM   35  O   UNL     1       5.320  13.785  89.373  1.00  0.00     0.000 OA
HETATM   36  H   UNL     1       5.834  14.411  88.834  1.00  0.00     0.000 HD
ENDBRANCH  33  35
ENDBRANCH  31  33
ENDBRANCH  26  31
ENDBRANCH  24  26
ENDBRANCH  19  22
ENDBRANCH  15  16
ENDBRANCH  11  14
ENDBRANCH   7   8
ENDBRANCH   2   7
TORSDOF 11
ENDMDL
MODEL 5
REMARK VINA RESULT:      -5.1      1.898      2.995
REMARK  11 active torsions:
REMARK  status: ('A' for Active; 'I' for Inactive)
REMARK    1  A    between atoms: O_2  and  C_18 
REMARK    2  A    between atoms: O_5  and  P_8 
REMARK    3  A    between atoms: N_6  and  C_11 
REMARK    4  A    between atoms: N_7  and  C_15 
REMARK       I    between atoms: N_7  and  C_24 
REMARK    5  A    between atoms: P_8  and  C_23 
REMARK    6  A    between atoms: C_11  and  C_14 
REMARK    7  A    between atoms: C_15  and  C_18 
REMARK    8  A    between atoms: C_15  and  C_23 
REMARK    9  A    between atoms: C_21  and  C_26 
REMARK   10  A    between atoms: C_24  and  C_25 
REMARK   11  A    between atoms: C_29  and  C_32 
ROOT
HETATM    1  O   UNL     1      16.982   2.534  93.105  1.00  0.00     0.000 OA
HETATM    2  N   UNL     1      14.189   2.991  92.805  1.00  0.00     0.000 N 
HETATM    3  C   UNL     1      14.790   2.752  94.124  1.00  0.00     0.000 C 
HETATM    4  C   UNL     1      14.973   2.312  91.763  1.00  0.00     0.000 C 
HETATM    5  C   UNL     1      16.245   3.217  94.120  1.00  0.00     0.000 C 
HETATM    6  C   UNL     1      16.422   2.786  91.816  1.00  0.00     0.000 C 
ENDROOT
BRANCH   2   7
HETATM    7  C   UNL     1      12.797   2.544  92.782  1.00  0.00     0.000 C 
BRANCH   7   8
HETATM    8  C   UNL     1      11.834   3.682  92.793  1.00  0.00     0.000 A 
HETATM    9  C   UNL     1      11.112   3.994  91.641  1.00  0.00     0.000 A 
HETATM   10  C   UNL     1      10.212   5.060  91.650  1.00  0.00     0.000 A 
HETATM   11  C   UNL     1      10.034   5.811  92.811  1.00  0.00     0.000 A 
HETATM   12  C   UNL     1      10.755   5.500  93.962  1.00  0.00     0.000 A 
HETATM   13  C   UNL     1      11.655   4.435  93.953  1.00  0.00     0.000 A 
BRANCH  11  14
HETATM   14  C   UNL     1       9.110   6.903  92.820  1.00  0.00     0.000 C 
HETATM   15  C   UNL     1       8.333   7.821  92.827  1.00  0.00     0.000 C 
BRANCH  15  16
HETATM   16  C   UNL     1       7.409   8.912  92.836  1.00  0.00     0.000 A 
HETATM   17  C   UNL     1       6.648   9.189  91.700  1.00  0.00     0.000 A 
HETATM   18  C   UNL     1       5.745  10.252  91.710  1.00  0.00     0.000 A 
HETATM   19  C   UNL     1       5.622  11.012  92.854  1.00  0.00     0.000 A 
HETATM   20  C   UNL     1       6.362  10.758  93.989  1.00  0.00     0.000 A 
HETATM   21  C   UNL     1       7.266   9.696  93.981  1.00  0.00     0.000 A 
BRANCH  19  22
HETATM   22  C   UNL     1       4.660  12.145  92.863  1.00  0.00     0.000 C 
HETATM   23  O   UNL     1       4.097  12.445  93.913  1.00  0.00     0.000 OA
HETATM   24  N   UNL     1       4.490  12.808  91.656  1.00  0.00     0.000 N 
HETATM   25  HN  UNL     1       5.009  12.519  90.835  1.00  0.00     0.000 HD
BRANCH  24  26
HETATM   26  C   UNL     1       3.611  13.940  91.510  1.00  0.00     0.000 C 
BRANCH  26  27
HETATM   27  C   UNL     1       3.575  14.483  90.075  1.00  0.00     0.000 C 
HETATM   28  C   UNL     1       4.969  14.655  89.481  1.00  0.00     0.000 C 
BRANCH  27  29
HETATM   29  O   UNL     1       2.825  13.594  89.248  1.00  0.00     0.000 OA
HETATM   30  H   UNL     1       2.494  12.868  89.802  1.00  0.00     0.000 HD
ENDBRANCH  27  29
ENDBRANCH  26  27
BRANCH  26  31
HETATM   31  C   UNL     1       2.223  13.516  91.977  1.00  0.00     0.000 C 
HETATM   32  O   UNL     1       1.661  12.500  91.572  1.00  0.00     0.000 OA
BRANCH  31  33
HETATM   33  P   UNL     1       1.676  14.415  92.860  1.00  0.00     0.000 P 
HETATM   34  H   UNL     1       1.000  15.370  92.128  1.00  0.00     0.000 HD
BRANCH  33  35
HETATM   35  O   UNL     1       2.584  15.079  93.697  1.00  0.00     0.000 OA
HETATM   36  H   UNL     1       2.292  15.998  93.576  1.00  0.00     0.000 HD
ENDBRANCH  33  35
ENDBRANCH  31  33
ENDBRANCH  26  31
ENDBRANCH  24  26
ENDBRANCH  19  22
ENDBRANCH  15  16
ENDBRANCH  11  14
ENDBRANCH   7   8
ENDBRANCH   2   7
TORSDOF 11
ENDMDL
MODEL 6
REMARK VINA RESULT:      -4.4      3.783     12.521
REMARK  11 active torsions:
REMARK  status: ('A' for Active; 'I' for Inactive)
REMARK    1  A    between atoms: O_2  and  C_18 
REMARK    2  A    between atoms: O_5  and  P_8 
REMARK    3  A    between atoms: N_6  and  C_11 
REMARK    4  A    between atoms: N_7  and  C_15 
REMARK       I    between atoms: N_7  and  C_24 
REMARK    5  A    between atoms: P_8  and  C_23 
REMARK    6  A    between atoms: C_11  and  C_14 
REMARK    7  A    between atoms: C_15  and  C_18 
REMARK    8  A    between atoms: C_15  and  C_23 
REMARK    9  A    between atoms: C_21  and  C_26 
REMARK   10  A    between atoms: C_24  and  C_25 
REMARK   11  A    between atoms: C_29  and  C_32 
ROOT
HETATM    1  O   UNL     1       3.171  14.398  89.836  1.00  0.00     0.000 OA
HETATM    2  N   UNL     1       2.802  13.973  92.626  1.00  0.00     0.000 N 
HETATM    3  C   UNL     1       4.107  14.365  92.075  1.00  0.00     0.000 C 
HETATM    4  C   UNL     1       2.041  13.213  91.625  1.00  0.00     0.000 C 
HETATM    5  C   UNL     1       3.906  15.166  90.791  1.00  0.00     0.000 C 
HETATM    6  C   UNL     1       1.889  14.039  90.352  1.00  0.00     0.000 C 
ENDROOT
BRANCH   2   7
HETATM    7  C   UNL     1       2.971  13.195  93.852  1.00  0.00     0.000 C 
BRANCH   7   8
HETATM    8  C   UNL     1       3.969  12.099  93.696  1.00  0.00     0.000 A 
HETATM    9  C   UNL     1       5.284  12.290  94.122  1.00  0.00     0.000 A 
HETATM   10  C   UNL     1       6.220  11.266  93.975  1.00  0.00     0.000 A 
HETATM   11  C   UNL     1       5.840  10.052  93.404  1.00  0.00     0.000 A 
HETATM   12  C   UNL     1       4.527   9.860  92.979  1.00  0.00     0.000 A 
HETATM   13  C   UNL     1       3.591  10.884  93.125  1.00  0.00     0.000 A 
BRANCH  11  14
HETATM   14  C   UNL     1       6.799   9.001  93.255  1.00  0.00     0.000 C 
HETATM   15  C   UNL     1       7.606   8.118  93.130  1.00  0.00     0.000 C 
BRANCH  15  16
HETATM   16  C   UNL     1       8.565   7.069  92.981  1.00  0.00     0.000 A 
HETATM   17  C   UNL     1       9.663   7.002  93.840  1.00  0.00     0.000 A 
HETATM   18  C   UNL     1      10.597   5.976  93.696  1.00  0.00     0.000 A 
HETATM   19  C   UNL     1      10.413   5.041  92.699  1.00  0.00     0.000 A 
HETATM   20  C   UNL     1       9.337   5.086  91.838  1.00  0.00     0.000 A 
HETATM   21  C   UNL     1       8.402   6.111  91.980  1.00  0.00     0.000 A 
BRANCH  19  22
HETATM   22  C   UNL     1      11.410   3.950  92.545  1.00  0.00     0.000 C 
HETATM   23  O   UNL     1      11.018   2.801  92.361  1.00  0.00     0.000 OA
HETATM   24  N   UNL     1      12.743   4.332  92.600  1.00  0.00     0.000 N 
HETATM   25  HN  UNL     1      12.993   5.306  92.730  1.00  0.00     0.000 HD
BRANCH  24  26
HETATM   26  C   UNL     1      13.826   3.395  92.443  1.00  0.00     0.000 C 
BRANCH  26  27
HETATM   27  C   UNL     1      14.500   3.490  91.068  1.00  0.00     0.000 C 
HETATM   28  C   UNL     1      13.515   3.290  89.921  1.00  0.00     0.000 C 
BRANCH  27  29
HETATM   29  O   UNL     1      15.122   4.766  90.929  1.00  0.00     0.000 OA
HETATM   30  H   UNL     1      15.492   5.021  91.791  1.00  0.00     0.000 HD
ENDBRANCH  27  29
ENDBRANCH  26  27
BRANCH  26  31
HETATM   31  C   UNL     1      14.825   3.645  93.568  1.00  0.00     0.000 C 
HETATM   32  O   UNL     1      14.976   4.744  94.098  1.00  0.00     0.000 OA
BRANCH  31  33
HETATM   33  P   UNL     1      15.547   2.518  93.881  1.00  0.00     0.000 P 
HETATM   34  H   UNL     1      15.322   2.228  95.212  1.00  0.00     0.000 HD
BRANCH  33  35
HETATM   35  O   UNL     1      16.933   2.609  93.689  1.00  0.00     0.000 OA
HETATM   36  H   UNL     1      17.091   3.521  93.989  1.00  0.00     0.000 HD
ENDBRANCH  33  35
ENDBRANCH  31  33
ENDBRANCH  26  31
ENDBRANCH  24  26
ENDBRANCH  19  22
ENDBRANCH  15  16
ENDBRANCH  11  14
ENDBRANCH   7   8
ENDBRANCH   2   7
TORSDOF 11
ENDMDL
MODEL 7
REMARK VINA RESULT:      -3.9      3.578     12.542
REMARK  11 active torsions:
REMARK  status: ('A' for Active; 'I' for Inactive)
REMARK    1  A    between atoms: O_2  and  C_18 
REMARK    2  A    between atoms: O_5  and  P_8 
REMARK    3  A    between atoms: N_6  and  C_11 
REMARK    4  A    between atoms: N_7  and  C_15 
REMARK       I    between atoms: N_7  and  C_24 
REMARK    5  A    between atoms: P_8  and  C_23 
REMARK    6  A    between atoms: C_11  and  C_14 
REMARK    7  A    between atoms: C_15  and  C_18 
REMARK    8  A    between atoms: C_15  and  C_23 
REMARK    9  A    between atoms: C_21  and  C_26 
REMARK   10  A    between atoms: C_24  and  C_25 
REMARK   11  A    between atoms: C_29  and  C_32 
ROOT
HETATM    1  O   UNL     1       2.493  14.226  93.483  1.00  0.00     0.000 OA
HETATM    2  N   UNL     1       2.850  13.545  90.742  1.00  0.00     0.000 N 
HETATM    3  C   UNL     1       1.721  13.020  91.524  1.00  0.00     0.000 C 
HETATM    4  C   UNL     1       3.995  13.806  91.625  1.00  0.00     0.000 C 
HETATM    5  C   UNL     1       1.363  14.000  92.638  1.00  0.00     0.000 C 
HETATM    6  C   UNL     1       3.584  14.766  92.737  1.00  0.00     0.000 C 
ENDROOT
BRANCH   2   7
HETATM    7  C   UNL     1       3.217  12.617  89.675  1.00  0.00     0.000 C 
BRANCH   7   8
HETATM    8  C   UNL     1       4.227  11.614  90.117  1.00  0.00     0.000 A 
HETATM    9  C   UNL     1       5.498  11.604  89.540  1.00  0.00     0.000 A 
HETATM   10  C   UNL     1       6.443  10.664  89.952  1.00  0.00     0.000 A 
HETATM   11  C   UNL     1       6.118   9.737  90.941  1.00  0.00     0.000 A 
HETATM   12  C   UNL     1       4.850   9.746  91.518  1.00  0.00     0.000 A 
HETATM   13  C   UNL     1       3.904  10.685  91.106  1.00  0.00     0.000 A 
BRANCH  11  14
HETATM   14  C   UNL     1       7.089   8.775  91.365  1.00  0.00     0.000 C 
HETATM   15  C   UNL     1       7.905   7.967  91.720  1.00  0.00     0.000 C 
BRANCH  15  16
HETATM   16  C   UNL     1       8.876   7.006  92.144  1.00  0.00     0.000 A 
HETATM   17  C   UNL     1       9.363   7.038  93.450  1.00  0.00     0.000 A 
HETATM   18  C   UNL     1      10.308   6.099  93.864  1.00  0.00     0.000 A 
HETATM   19  C   UNL     1      10.743   5.150  92.963  1.00  0.00     0.000 A 
HETATM   20  C   UNL     1      10.276   5.097  91.667  1.00  0.00     0.000 A 
HETATM   21  C   UNL     1       9.332   6.035  91.252  1.00  0.00     0.000 A 
BRANCH  19  22
HETATM   22  C   UNL     1      11.751   4.151  93.404  1.00  0.00     0.000 C 
HETATM   23  O   UNL     1      11.387   3.186  94.073  1.00  0.00     0.000 OA
HETATM   24  N   UNL     1      13.056   4.381  92.992  1.00  0.00     0.000 N 
HETATM   25  HN  UNL     1      13.278   5.187  92.419  1.00  0.00     0.000 HD
BRANCH  24  26
HETATM   26  C   UNL     1      14.141   3.491  93.318  1.00  0.00     0.000 C 
BRANCH  26  27
HETATM   27  C   UNL     1      14.140   2.217  92.465  1.00  0.00     0.000 C 
HETATM   28  C   UNL     1      12.825   2.013  91.721  1.00  0.00     0.000 C 
BRANCH  27  29
HETATM   29  O   UNL     1      15.205   2.276  91.516  1.00  0.00     0.000 OA
HETATM   30  H   UNL     1      14.995   2.968  90.866  1.00  0.00     0.000 HD
ENDBRANCH  27  29
ENDBRANCH  26  27
BRANCH  26  31
HETATM   31  C   UNL     1      15.444   4.266  93.156  1.00  0.00     0.000 C 
HETATM   32  O   UNL     1      15.642   5.058  92.236  1.00  0.00     0.000 OA
BRANCH  31  33
HETATM   33  P   UNL     1      16.364   3.944  94.124  1.00  0.00     0.000 P 
HETATM   34  H   UNL     1      16.989   5.110  94.518  1.00  0.00     0.000 HD
BRANCH  33  35
HETATM   35  O   UNL     1      17.358   3.031  93.742  1.00  0.00     0.000 OA
HETATM   36  H   UNL     1      17.464   2.533  94.570  1.00  0.00     0.000 HD
ENDBRANCH  33  35
ENDBRANCH  31  33
ENDBRANCH  26  31
ENDBRANCH  24  26
ENDBRANCH  19  22
ENDBRANCH  15  16
ENDBRANCH  11  14
ENDBRANCH   7   8
ENDBRANCH   2   7
TORSDOF 11
ENDMDL
