MODEL 1
REMARK VINA RESULT:      -7.6      0.000      0.000
REMARK  9 active torsions:
REMARK  status: ('A' for Active; 'I' for Inactive)
REMARK    1  A    between atoms: N_3  and  C_6 
REMARK    2  A    between atoms: C_6  and  C_9 
REMARK    3  A    between atoms: C_14  and  C_17 
REMARK       I    between atoms: N_26  and  C_15 
REMARK    4  A    between atoms: C_15  and  C_16 
REMARK    5  A    between atoms: C_20  and  C_23 
REMARK    6  A    between atoms: OG1_24  and  CB_28 
REMARK    7  A    between atoms: N_26  and  CA_27 
REMARK    8  A    between atoms: CA_27  and  CB_28 
REMARK    9  A    between atoms: CA_27  and  C_30 
ROOT
HETATM    1  O   UNK A   0       1.874   8.218  87.920  1.00  0.00    -0.388 OA
HETATM    2  N   UNK A   0       4.644   7.597  87.704  1.00  0.00     0.096 N 
HETATM    3  C   UNK A   0       4.172   8.987  87.777  1.00  0.00     0.299 C 
HETATM    4  C   UNK A   0       3.615   6.747  87.088  1.00  0.00     0.299 C 
HETATM    5  C   UNK A   0       2.855   9.046  88.547  1.00  0.00     0.198 C 
HETATM    6  C   UNK A   0       2.312   6.859  87.873  1.00  0.00     0.198 C 
ENDROOT
BRANCH   2   7
HETATM    7  C   UNK A   0       5.900   7.515  86.960  1.00  0.00     0.311 C 
BRANCH   7   8
HETATM    8  C   UNK A   0       6.999   6.913  87.767  1.00  0.00    -0.030 A 
HETATM    9  C   UNK A   0       8.233   6.647  87.173  1.00  0.00     0.010 A 
HETATM   10  C   UNK A   0       9.262   6.082  87.926  1.00  0.00     0.021 A 
HETATM   11  C   UNK A   0       9.058   5.786  89.273  1.00  0.00     0.018 A 
HETATM   12  C   UNK A   0       7.826   6.052  89.868  1.00  0.00     0.021 A 
HETATM   13  C   UNK A   0       6.796   6.616  89.115  1.00  0.00     0.010 A 
BRANCH  11  14
HETATM   14  C   UNK A   0      10.114   5.209  90.046  1.00  0.00    -0.061 C 
HETATM   15  C   UNK A   0      11.001   4.723  90.696  1.00  0.00    -0.061 C 
BRANCH  15  16
HETATM   16  C   UNK A   0      12.057   4.145  91.468  1.00  0.00     0.018 A 
HETATM   17  C   UNK A   0      13.319   3.968  90.900  1.00  0.00     0.022 A 
HETATM   18  C   UNK A   0      14.349   3.407  91.654  1.00  0.00     0.018 A 
HETATM   19  C   UNK A   0      14.095   3.037  92.958  1.00  0.00     0.032 A 
HETATM   20  C   UNK A   0      12.857   3.201  93.543  1.00  0.00     0.018 A 
HETATM   21  C   UNK A   0      11.826   3.762  92.789  1.00  0.00     0.022 A 
BRANCH  19  22
HETATM   22  C   UNK A   0      15.193   2.437  93.761  1.00  0.00     0.252 C 
HETATM   23  O   UNK A   0      16.347   2.816  93.576  1.00  0.00    -0.268 OA
ENDBRANCH  19  22
ENDBRANCH  15  16
ENDBRANCH  11  14
ENDBRANCH   7   8
ENDBRANCH   2   7
TORSDOF 9
ENDMDL
