MODEL 1
REMARK VINA RESULT:      -6.8      0.000      0.000
REMARK  10 active torsions:
REMARK  status: ('A' for Active; 'I' for Inactive)
REMARK    1  A    between atoms: O_2  and  C_18 
REMARK    2  A    between atoms: O_5  and  N_8 
REMARK    3  A    between atoms: N_6  and  C_11 
REMARK    4  A    between atoms: N_7  and  C_15 
REMARK       I    between atoms: N_7  and  C_24 
REMARK       I    between atoms: N_8  and  C_23 
REMARK    5  A    between atoms: C_11  and  C_14 
REMARK    6  A    between atoms: C_15  and  C_18 
REMARK    7  A    between atoms: C_15  and  C_23 
REMARK    8  A    between atoms: C_21  and  C_26 
REMARK    9  A    between atoms: C_24  and  C_25 
REMARK   10  A    between atoms: C_29  and  C_32 
ROOT
HETATM    1  O   UNK     0      17.047   4.237  93.919  0.00  0.00    -0.388 OA
HETATM    2  N   UNK     0      14.719   2.733  93.273  0.00  0.00     0.096 N 
HETATM    3  C   UNK     0      16.067   2.175  93.096  0.00  0.00     0.299 C 
HETATM    4  C   UNK     0      14.755   4.193  93.125  0.00  0.00     0.299 C 
HETATM    5  C   UNK     0      17.027   2.819  94.093  0.00  0.00     0.198 C 
HETATM    6  C   UNK     0      15.746   4.790  94.120  0.00  0.00     0.198 C 
ENDROOT
BRANCH   2   7
HETATM    7  C   UNK     0      13.783   2.137  92.320  0.00  0.00     0.311 C 
BRANCH   7   8
HETATM    8  C   UNK     0      12.655   3.052  91.985  0.00  0.00    -0.030 A 
HETATM    9  C   UNK     0      11.594   3.205  92.879  0.00  0.00     0.010 A 
HETATM   10  C   UNK     0      10.536   4.058  92.566  0.00  0.00     0.021 A 
HETATM   11  C   UNK     0      10.541   4.760  91.361  0.00  0.00     0.018 A 
HETATM   12  C   UNK     0      11.599   4.608  90.468  0.00  0.00     0.021 A 
HETATM   13  C   UNK     0      12.657   3.754  90.780  0.00  0.00     0.010 A 
BRANCH  11  14
HETATM   14  C   UNK     0       9.457   5.637  91.041  0.00  0.00    -0.061 C 
HETATM   15  C   UNK     0       8.546   6.374  90.773  0.00  0.00    -0.061 C 
BRANCH  15  16
HETATM   16  C   UNK     0       7.462   7.249  90.453  0.00  0.00     0.018 A 
HETATM   17  C   UNK     0       6.468   7.501  91.400  0.00  0.00     0.022 A 
HETATM   18  C   UNK     0       5.411   8.357  91.089  0.00  0.00     0.018 A 
HETATM   19  C   UNK     0       5.372   8.942  89.841  0.00  0.00     0.032 A 
HETATM   20  C   UNK     0       6.341   8.709  88.888  0.00  0.00     0.018 A 
HETATM   21  C   UNK     0       7.398   7.853  89.198  0.00  0.00     0.022 A 
BRANCH  19  22
HETATM   22  C   UNK     0       4.245   9.852  89.510  0.00  0.00     0.252 C 
HETATM   23  O   UNK     0       3.314   9.430  88.828  0.00  0.00    -0.268 OA
HETATM   24  N   UNK     0       4.325  11.135  90.033  0.00  0.00    -0.341 N 
HETATM   25  H   UNK     0       5.113  11.405  90.610  0.00  0.00     0.163 HD
BRANCH  24  26
HETATM   26  C   UNK     0       3.300  12.125  89.822  0.00  0.00     0.207 C 
BRANCH  26  27
HETATM   27  C   UNK     0       2.780  12.730  91.132  0.00  0.00     0.146 C 
HETATM   28  C   UNK     0       2.218  11.677  92.080  0.00  0.00     0.042 C 
BRANCH  27  29
HETATM   29  O   UNK     0       3.838  13.428  91.788  0.00  0.00    -0.393 OA
HETATM   30  H   UNK     0       4.460  12.771  92.146  0.00  0.00     0.210 HD
ENDBRANCH  27  29
ENDBRANCH  26  27
BRANCH  26  31
HETATM   31  C   UNK     0       3.872  13.199  88.903  0.00  0.00     0.266 C 
HETATM   32  O   UNK     0       3.878  14.394  89.192  0.00  0.00    -0.269 OA
HETATM   33  N   UNK     0       4.334  12.677  87.719  0.00  0.00    -0.236 N 
HETATM   34  H   UNK     0       4.263  11.714  87.412  0.00  0.00     0.197 HD
BRANCH  33  35
HETATM   35  O   UNK     0       4.842  13.606  86.800  0.00  0.00    -0.287 OA
HETATM   36  H   UNK     0       5.739  13.730  87.155  0.00  0.00     0.244 HD
ENDBRANCH  33  35
ENDBRANCH  26  31
ENDBRANCH  24  26
ENDBRANCH  19  22
ENDBRANCH  15  16
ENDBRANCH  11  14
ENDBRANCH   7   8
ENDBRANCH   2   7
TORSDOF 10
ENDMDL
