MODEL 1
REMARK VINA RESULT:      -6.7      0.000      0.000
REMARK  10 active torsions:
REMARK  status: ('A' for Active; 'I' for Inactive)
REMARK    1  A    between atoms: O_2  and  C_16 
REMARK    2  A    between atoms: N_5  and  C_9 
REMARK    3  A    between atoms: N_6  and  C_13 
REMARK       I    between atoms: N_6  and  C_22 
REMARK    4  A    between atoms: C_9  and  C_12 
REMARK    5  A    between atoms: C_13  and  C_16 
REMARK    6  A    between atoms: C_13  and  C_21 
REMARK    7  A    between atoms: C_19  and  C_24 
REMARK    8  A    between atoms: C_22  and  C_23 
REMARK    9  A    between atoms: C_27  and  C_30 
REMARK   10  A    between atoms: N_33  and  S_34 
ROOT
HETATM    1  C   UNL     1       5.672  10.921  89.584  1.00  0.00     0.056 A 
HETATM    2  C   UNL     1       7.034  11.138  89.548  1.00  0.00     0.005 A 
HETATM    3  C   UNL     1       5.131   9.694  89.907  1.00  0.00     0.005 A 
HETATM    4  C   UNL     1       7.371   8.831  90.176  1.00  0.00     0.042 A 
HETATM    5  C   UNL     1       7.894  10.082  89.847  1.00  0.00     0.008 A 
HETATM    6  C   UNL     1       5.990   8.637  90.207  1.00  0.00     0.008 A 
ENDROOT
BRANCH   1   7
HETATM    7  C   UNL     1       4.757  12.047  89.267  1.00  0.00     0.254 C 
HETATM    8  O   UNL     1       4.597  12.379  88.095  1.00  0.00    -0.268 OA
HETATM    9  N   UNL     1       4.118  12.635  90.350  1.00  0.00    -0.337 N 
HETATM   10  HN  UNL     1       4.280  12.291  91.289  1.00  0.00     0.164 HD
BRANCH   9  11
HETATM   11  C   UNL     1       3.183  13.721  90.203  1.00  0.00     0.172 C 
BRANCH  11  12
HETATM   12  C   UNL     1       1.921  13.537  91.055  1.00  0.00     0.136 C 
HETATM   13  C   UNL     1       2.084  12.453  92.114  1.00  0.00     0.034 C 
BRANCH  12  14
HETATM   14  O   UNL     1       1.597  14.769  91.700  1.00  0.00    -0.383 OA
HETATM   15  H   UNL     1       2.107  14.824  92.526  1.00  0.00     0.210 HD
ENDBRANCH  12  14
ENDBRANCH  11  12
BRANCH  11  16
HETATM   16  C   UNL     1       3.910  15.013  90.561  1.00  0.00     0.398 A 
HETATM   17  O   UNL     1       5.031  15.290  90.137  1.00  0.00    -0.136 OA
HETATM   18  N   UNL     1       4.933  15.609  91.620  1.00  0.00     0.142 N 
HETATM   19  HN  UNL     1       5.853  15.914  91.469  1.00  0.00     0.338 HD
BRANCH  18  20
HETATM   20  S   UNL     1       4.223  15.313  92.779  1.00  0.00     0.076 SA
HETATM   21  H   UNL     1       4.604  14.381  93.411  1.00  0.00     0.136 HD
ENDBRANCH  18  20
ENDBRANCH  11  16
ENDBRANCH   9  11
ENDBRANCH   1   7
BRANCH   4  22
HETATM   22  C   UNL     1       8.253   7.747  90.480  1.00  0.00    -0.059 C 
HETATM   23  C   UNL     1       8.994   6.836  90.737  1.00  0.00    -0.059 C 
BRANCH  23  24
HETATM   24  C   UNL     1       9.875   5.751  91.042  1.00  0.00     0.042 A 
HETATM   25  C   UNL     1      10.723   5.245  90.057  1.00  0.00     0.008 A 
HETATM   26  C   UNL     1      11.581   4.186  90.354  1.00  0.00    -0.002 A 
HETATM   27  C   UNL     1      11.592   3.635  91.636  1.00  0.00     0.011 A 
HETATM   28  C   UNL     1      10.743   4.142  92.619  1.00  0.00    -0.002 A 
HETATM   29  C   UNL     1       9.885   5.201  92.322  1.00  0.00     0.008 A 
BRANCH  27  30
HETATM   30  C   UNL     1      12.511   2.504  91.952  1.00  0.00     0.277 C 
BRANCH  30  31
HETATM   31  N   UNL     1      13.547   2.881  92.912  1.00  0.00     0.147 N 
HETATM   32  C   UNL     1      14.485   1.771  93.127  1.00  0.00     0.283 C 
HETATM   33  C   UNL     1      15.563   2.190  94.124  1.00  0.00     0.178 C 
HETATM   34  O   UNL     1      16.257   3.345  93.649  1.00  0.00    -0.350 OA
HETATM   35  C   UNL     1      15.356   4.439  93.467  1.00  0.00     0.178 C 
HETATM   36  C   UNL     1      14.274   4.073  92.456  1.00  0.00     0.283 C 
ENDBRANCH  30  31
ENDBRANCH  27  30
ENDBRANCH  23  24
ENDBRANCH   4  22
TORSDOF 10
ENDMDL
