MODEL 1
REMARK VINA RESULT:      -6.0      0.000      0.000
REMARK  12 active torsions:
REMARK  status: ('A' for Active; 'I' for Inactive)
REMARK    1  A    between atoms: O_2  and  C_16 
REMARK    2  A    between atoms: N_5  and  C_9 
REMARK    3  A    between atoms: N_6  and  C_13 
REMARK       I    between atoms: N_6  and  C_22 
REMARK    4  A    between atoms: C_9  and  C_12 
REMARK    5  A    between atoms: C_13  and  C_16 
REMARK    6  A    between atoms: C_13  and  C_21 
REMARK    7  A    between atoms: C_19  and  C_24 
REMARK    8  A    between atoms: C_21  and  C_33 
REMARK    9  A    between atoms: C_22  and  C_23 
REMARK   10  A    between atoms: C_27  and  C_30 
REMARK   11  A    between atoms: C_33  and  C_34 
REMARK   12  A    between atoms: C_34  and  C_35 
ROOT
HETATM    1  O   UNL     1      17.052   4.151  93.876  1.00  0.00    -0.350 OA
HETATM    2  N   UNL     1      14.564   3.143  92.931  1.00  0.00     0.147 N 
HETATM    3  C   UNL     1      15.756   2.288  93.017  1.00  0.00     0.283 C 
HETATM    4  C   UNL     1      14.961   4.540  92.709  1.00  0.00     0.283 C 
HETATM    5  C   UNL     1      16.676   2.795  94.124  1.00  0.00     0.178 C 
HETATM    6  C   UNL     1      15.900   4.994  93.822  1.00  0.00     0.178 C 
ENDROOT
BRANCH   2   7
HETATM    7  C   UNL     1      13.671   2.682  91.868  1.00  0.00     0.277 C 
BRANCH   7   8
HETATM    8  C   UNL     1      12.472   3.554  91.716  1.00  0.00     0.011 A 
HETATM    9  C   UNL     1      11.627   3.773  92.804  1.00  0.00    -0.002 A 
HETATM   10  C   UNL     1      10.503   4.586  92.662  1.00  0.00     0.008 A 
HETATM   11  C   UNL     1      10.226   5.182  91.432  1.00  0.00     0.042 A 
HETATM   12  C   UNL     1      11.070   4.964  90.344  1.00  0.00     0.008 A 
HETATM   13  C   UNL     1      12.193   4.150  90.486  1.00  0.00    -0.002 A 
BRANCH  11  14
HETATM   14  C   UNL     1       9.075   6.019  91.286  1.00  0.00    -0.059 C 
HETATM   15  C   UNL     1       8.107   6.722  91.163  1.00  0.00    -0.059 C 
BRANCH  15  16
HETATM   16  C   UNL     1       6.956   7.557  91.018  1.00  0.00     0.042 A 
HETATM   17  C   UNL     1       6.168   7.463  89.870  1.00  0.00     0.008 A 
HETATM   18  C   UNL     1       5.043   8.276  89.729  1.00  0.00     0.005 A 
HETATM   19  C   UNL     1       4.732   9.163  90.739  1.00  0.00     0.056 A 
HETATM   20  C   UNL     1       5.494   9.275  91.882  1.00  0.00     0.005 A 
HETATM   21  C   UNL     1       6.619   8.462  92.024  1.00  0.00     0.008 A 
BRANCH  19  22
HETATM   22  C   UNL     1       3.534  10.030  90.587  1.00  0.00     0.254 C 
HETATM   23  O   UNL     1       2.613   9.660  89.864  1.00  0.00    -0.268 OA
HETATM   24  N   UNL     1       3.543  11.211  91.316  1.00  0.00    -0.335 N 
HETATM   25  HN  UNL     1       4.329  11.439  91.914  1.00  0.00     0.164 HD
BRANCH  24  26
HETATM   26  C   UNL     1       2.446  12.145  91.294  1.00  0.00     0.166 C 
BRANCH  26  27
HETATM   27  C   UNL     1       1.892  12.444  92.693  1.00  0.00     0.138 C 
HETATM   28  C   UNL     1       1.231  11.227  93.331  1.00  0.00     0.034 C 
BRANCH  27  29
HETATM   29  O   UNL     1       2.950  12.894  93.539  1.00  0.00    -0.383 OA
HETATM   30  H   UNL     1       2.585  13.541  94.165  1.00  0.00     0.210 HD
ENDBRANCH  27  29
ENDBRANCH  26  27
BRANCH  26  31
HETATM   31  C   UNL     1       2.930  13.417  90.606  1.00  0.00     0.181 C 
HETATM   32  O   UNL     1       2.421  14.519  90.800  1.00  0.00    -0.294 OA
BRANCH  31  33
HETATM   33  C   UNL     1       4.530  13.622  90.776  1.00  0.00     0.138 C 
BRANCH  33  34
HETATM   34  C   UNL     1       4.872  14.156  89.514  1.00  0.00     0.208 C 
HETATM   35  O   UNL     1       5.204  15.319  89.500  1.00  0.00    -0.289 OA
BRANCH  34  36
HETATM   36  C   UNL     1       5.175  13.528  88.337  1.00  0.00     0.194 C 
HETATM   37  O   UNL     1       4.561  12.437  87.710  1.00  0.00    -0.185 OA
ENDBRANCH  34  36
ENDBRANCH  33  34
ENDBRANCH  31  33
ENDBRANCH  26  31
ENDBRANCH  24  26
ENDBRANCH  19  22
ENDBRANCH  15  16
ENDBRANCH  11  14
ENDBRANCH   7   8
ENDBRANCH   2   7
TORSDOF 12
ENDMDL
