MODEL 1
REMARK VINA RESULT:      -6.5      0.000      0.000
REMARK  11 active torsions:
REMARK  status: ('A' for Active; 'I' for Inactive)
REMARK    1  A    between atoms: O_2  and  C_18 
REMARK    2  A    between atoms: O_5  and  P_8 
REMARK    3  A    between atoms: N_6  and  C_11 
REMARK    4  A    between atoms: N_7  and  C_15 
REMARK       I    between atoms: N_7  and  C_24 
REMARK    5  A    between atoms: P_8  and  C_23 
REMARK    6  A    between atoms: C_11  and  C_14 
REMARK    7  A    between atoms: C_15  and  C_18 
REMARK    8  A    between atoms: C_15  and  C_23 
REMARK    9  A    between atoms: C_21  and  C_26 
REMARK   10  A    between atoms: C_24  and  C_25 
REMARK   11  A    between atoms: C_29  and  C_32 
ROOT
HETATM    1  O   UNL     1      17.046   3.807  93.526  1.00  0.00     0.000 OA
HETATM    2  N   UNL     1      14.368   2.865  93.320  1.00  0.00     0.000 N 
HETATM    3  C   UNL     1      15.508   1.938  93.351  1.00  0.00     0.000 C 
HETATM    4  C   UNL     1      14.778   4.148  92.733  1.00  0.00     0.000 C 
HETATM    5  C   UNL     1      16.664   2.567  94.124  1.00  0.00     0.000 C 
HETATM    6  C   UNL     1      15.951   4.725  93.519  1.00  0.00     0.000 C 
ENDROOT
BRANCH   2   7
HETATM    7  C   UNL     1      13.251   2.286  92.574  1.00  0.00     0.000 C 
BRANCH   7   8
HETATM    8  C   UNL     1      12.173   3.280  92.304  1.00  0.00     0.000 A 
HETATM    9  C   UNL     1      11.663   3.420  91.013  1.00  0.00     0.000 A 
HETATM   10  C   UNL     1      10.656   4.351  90.758  1.00  0.00     0.000 A 
HETATM   11  C   UNL     1      10.159   5.140  91.795  1.00  0.00     0.000 A 
HETATM   12  C   UNL     1      10.668   5.001  93.085  1.00  0.00     0.000 A 
HETATM   13  C   UNL     1      11.675   4.070  93.340  1.00  0.00     0.000 A 
BRANCH  11  14
HETATM   14  C   UNL     1       9.125   6.093  91.534  1.00  0.00     0.000 C 
HETATM   15  C   UNL     1       8.255   6.894  91.314  1.00  0.00     0.000 C 
BRANCH  15  16
HETATM   16  C   UNL     1       7.221   7.846  91.053  1.00  0.00     0.000 A 
HETATM   17  C   UNL     1       6.309   7.619  90.022  1.00  0.00     0.000 A 
HETATM   18  C   UNL     1       5.299   8.547  89.769  1.00  0.00     0.000 A 
HETATM   19  C   UNL     1       5.222   9.679  90.552  1.00  0.00     0.000 A 
HETATM   20  C   UNL     1       6.112   9.927  91.577  1.00  0.00     0.000 A 
HETATM   21  C   UNL     1       7.123   9.000  91.830  1.00  0.00     0.000 A 
BRANCH  19  22
HETATM   22  C   UNL     1       4.147  10.668  90.281  1.00  0.00     0.000 C 
HETATM   23  O   UNL     1       3.005  10.269  90.068  1.00  0.00     0.000 OA
HETATM   24  N   UNL     1       4.526  12.003  90.316  1.00  0.00     0.000 N 
HETATM   25  HN  UNL     1       5.484  12.259  90.524  1.00  0.00     0.000 HD
BRANCH  24  26
HETATM   26  C   UNL     1       3.593  13.079  90.098  1.00  0.00     0.000 C 
BRANCH  26  27
HETATM   27  C   UNL     1       2.943  13.574  91.396  1.00  0.00     0.000 C 
HETATM   28  C   UNL     1       3.918  14.342  92.281  1.00  0.00     0.000 C 
BRANCH  27  29
HETATM   29  O   UNL     1       1.836  14.419  91.084  1.00  0.00     0.000 OA
HETATM   30  H   UNL     1       2.157  15.335  91.032  1.00  0.00     0.000 HD
ENDBRANCH  27  29
ENDBRANCH  26  27
BRANCH  26  31
HETATM   31  C   UNL     1       4.338  14.205  89.387  1.00  0.00     0.000 C 
HETATM   32  O   UNL     1       4.182  15.392  89.666  1.00  0.00     0.000 OA
BRANCH  31  33
HETATM   33  P   UNL     1       5.159  13.735  88.391  1.00  0.00     0.000 P 
HETATM   34  H   UNL     1       5.778  14.821  87.805  1.00  0.00     0.000 HD
BRANCH  33  35
HETATM   35  O   UNL     1       4.529  13.001  87.376  1.00  0.00     0.000 OA
HETATM   36  H   UNL     1       5.054  12.183  87.400  1.00  0.00     0.000 HD
ENDBRANCH  33  35
ENDBRANCH  31  33
ENDBRANCH  26  31
ENDBRANCH  24  26
ENDBRANCH  19  22
ENDBRANCH  15  16
ENDBRANCH  11  14
ENDBRANCH   7   8
ENDBRANCH   2   7
TORSDOF 11
ENDMDL
MODEL 2
REMARK VINA RESULT:      -6.5      1.795      2.775
REMARK  11 active torsions:
REMARK  status: ('A' for Active; 'I' for Inactive)
REMARK    1  A    between atoms: O_2  and  C_18 
REMARK    2  A    between atoms: O_5  and  P_8 
REMARK    3  A    between atoms: N_6  and  C_11 
REMARK    4  A    between atoms: N_7  and  C_15 
REMARK       I    between atoms: N_7  and  C_24 
REMARK    5  A    between atoms: P_8  and  C_23 
REMARK    6  A    between atoms: C_11  and  C_14 
REMARK    7  A    between atoms: C_15  and  C_18 
REMARK    8  A    between atoms: C_15  and  C_23 
REMARK    9  A    between atoms: C_21  and  C_26 
REMARK   10  A    between atoms: C_24  and  C_25 
REMARK   11  A    between atoms: C_29  and  C_32 
ROOT
HETATM    1  O   UNL     1      16.088   3.942  93.987  1.00  0.00     0.000 OA
HETATM    2  N   UNL     1      14.142   2.580  92.419  1.00  0.00     0.000 N 
HETATM    3  C   UNL     1      14.363   4.026  92.282  1.00  0.00     0.000 C 
HETATM    4  C   UNL     1      14.468   2.148  93.785  1.00  0.00     0.000 C 
HETATM    5  C   UNL     1      15.804   4.366  92.652  1.00  0.00     0.000 C 
HETATM    6  C   UNL     1      15.905   2.532  94.121  1.00  0.00     0.000 C 
ENDROOT
BRANCH   2   7
HETATM    7  C   UNL     1      12.763   2.232  92.079  1.00  0.00     0.000 C 
BRANCH   7   8
HETATM    8  C   UNL     1      11.846   3.405  92.159  1.00  0.00     0.000 A 
HETATM    9  C   UNL     1      11.561   3.984  93.396  1.00  0.00     0.000 A 
HETATM   10  C   UNL     1      10.702   5.079  93.473  1.00  0.00     0.000 A 
HETATM   11  C   UNL     1      10.129   5.597  92.311  1.00  0.00     0.000 A 
HETATM   12  C   UNL     1      10.412   5.020  91.075  1.00  0.00     0.000 A 
HETATM   13  C   UNL     1      11.271   3.924  90.999  1.00  0.00     0.000 A 
BRANCH  11  14
HETATM   14  C   UNL     1       9.249   6.722  92.389  1.00  0.00     0.000 C 
HETATM   15  C   UNL     1       8.509   7.668  92.455  1.00  0.00     0.000 C 
BRANCH  15  16
HETATM   16  C   UNL     1       7.630   8.793  92.533  1.00  0.00     0.000 A 
HETATM   17  C   UNL     1       7.050   9.305  91.373  1.00  0.00     0.000 A 
HETATM   18  C   UNL     1       6.191  10.401  91.450  1.00  0.00     0.000 A 
HETATM   19  C   UNL     1       5.930  10.959  92.684  1.00  0.00     0.000 A 
HETATM   20  C   UNL     1       6.492  10.472  93.845  1.00  0.00     0.000 A 
HETATM   21  C   UNL     1       7.351   9.376  93.770  1.00  0.00     0.000 A 
BRANCH  19  22
HETATM   22  C   UNL     1       5.016  12.128  92.764  1.00  0.00     0.000 C 
HETATM   23  O   UNL     1       4.891  12.718  93.835  1.00  0.00     0.000 OA
HETATM   24  N   UNL     1       4.378  12.484  91.584  1.00  0.00     0.000 N 
HETATM   25  HN  UNL     1       4.550  11.964  90.732  1.00  0.00     0.000 HD
BRANCH  24  26
HETATM   26  C   UNL     1       3.481  13.608  91.496  1.00  0.00     0.000 C 
BRANCH  26  27
HETATM   27  C   UNL     1       3.450  14.234  90.096  1.00  0.00     0.000 C 
HETATM   28  C   UNL     1       4.845  14.557  89.570  1.00  0.00     0.000 C 
BRANCH  27  29
HETATM   29  O   UNL     1       2.808  13.340  89.187  1.00  0.00     0.000 OA
HETATM   30  H   UNL     1       2.614  12.513  89.660  1.00  0.00     0.000 HD
ENDBRANCH  27  29
ENDBRANCH  26  27
BRANCH  26  31
HETATM   31  C   UNL     1       2.096  13.133  91.922  1.00  0.00     0.000 C 
HETATM   32  O   UNL     1       1.653  12.021  91.638  1.00  0.00     0.000 OA
BRANCH  31  33
HETATM   33  P   UNL     1       1.406  14.098  92.614  1.00  0.00     0.000 P 
HETATM   34  H   UNL     1       0.324  14.478  91.845  1.00  0.00     0.000 HD
BRANCH  33  35
HETATM   35  O   UNL     1       2.131  15.254  92.936  1.00  0.00     0.000 OA
HETATM   36  H   UNL     1       2.961  15.077  92.460  1.00  0.00     0.000 HD
ENDBRANCH  33  35
ENDBRANCH  31  33
ENDBRANCH  26  31
ENDBRANCH  24  26
ENDBRANCH  19  22
ENDBRANCH  15  16
ENDBRANCH  11  14
ENDBRANCH   7   8
ENDBRANCH   2   7
TORSDOF 11
ENDMDL
MODEL 3
REMARK VINA RESULT:      -6.0      1.270      1.807
REMARK  11 active torsions:
REMARK  status: ('A' for Active; 'I' for Inactive)
REMARK    1  A    between atoms: O_2  and  C_18 
REMARK    2  A    between atoms: O_5  and  P_8 
REMARK    3  A    between atoms: N_6  and  C_11 
REMARK    4  A    between atoms: N_7  and  C_15 
REMARK       I    between atoms: N_7  and  C_24 
REMARK    5  A    between atoms: P_8  and  C_23 
REMARK    6  A    between atoms: C_11  and  C_14 
REMARK    7  A    between atoms: C_15  and  C_18 
REMARK    8  A    between atoms: C_15  and  C_23 
REMARK    9  A    between atoms: C_21  and  C_26 
REMARK   10  A    between atoms: C_24  and  C_25 
REMARK   11  A    between atoms: C_29  and  C_32 
ROOT
HETATM    1  O   UNL     1      16.378   3.202  93.623  1.00  0.00     0.000 OA
HETATM    2  N   UNL     1      13.683   2.877  92.765  1.00  0.00     0.000 N 
HETATM    3  C   UNL     1      14.529   1.721  93.095  1.00  0.00     0.000 C 
HETATM    4  C   UNL     1      14.515   3.988  92.282  1.00  0.00     0.000 C 
HETATM    5  C   UNL     1      15.581   2.128  94.124  1.00  0.00     0.000 C 
HETATM    6  C   UNL     1      15.567   4.340  93.329  1.00  0.00     0.000 C 
ENDROOT
BRANCH   2   7
HETATM    7  C   UNL     1      12.674   2.513  91.772  1.00  0.00     0.000 C 
BRANCH   7   8
HETATM    8  C   UNL     1      11.540   3.480  91.733  1.00  0.00     0.000 A 
HETATM    9  C   UNL     1      11.212   4.215  92.873  1.00  0.00     0.000 A 
HETATM   10  C   UNL     1      10.151   5.119  92.839  1.00  0.00     0.000 A 
HETATM   11  C   UNL     1       9.419   5.289  91.664  1.00  0.00     0.000 A 
HETATM   12  C   UNL     1       9.746   4.556  90.525  1.00  0.00     0.000 A 
HETATM   13  C   UNL     1      10.807   3.652  90.559  1.00  0.00     0.000 A 
BRANCH  11  14
HETATM   14  C   UNL     1       8.331   6.218  91.629  1.00  0.00     0.000 C 
HETATM   15  C   UNL     1       7.417   6.998  91.599  1.00  0.00     0.000 C 
BRANCH  15  16
HETATM   16  C   UNL     1       6.330   7.927  91.564  1.00  0.00     0.000 A 
HETATM   17  C   UNL     1       6.569   9.285  91.774  1.00  0.00     0.000 A 
HETATM   18  C   UNL     1       5.509  10.191  91.737  1.00  0.00     0.000 A 
HETATM   19  C   UNL     1       4.236   9.720  91.491  1.00  0.00     0.000 A 
HETATM   20  C   UNL     1       3.975   8.382  91.282  1.00  0.00     0.000 A 
HETATM   21  C   UNL     1       5.034   7.474  91.318  1.00  0.00     0.000 A 
BRANCH  19  22
HETATM   22  C   UNL     1       3.107  10.685  91.454  1.00  0.00     0.000 C 
HETATM   23  O   UNL     1       1.992  10.291  91.123  1.00  0.00     0.000 OA
HETATM   24  N   UNL     1       3.408  11.987  91.830  1.00  0.00     0.000 N 
HETATM   25  HN  UNL     1       4.348  12.234  92.116  1.00  0.00     0.000 HD
BRANCH  24  26
HETATM   26  C   UNL     1       2.416  13.031  91.869  1.00  0.00     0.000 C 
BRANCH  26  27
HETATM   27  C   UNL     1       2.562  13.943  93.094  1.00  0.00     0.000 C 
HETATM   28  C   UNL     1       3.990  13.982  93.626  1.00  0.00     0.000 C 
BRANCH  27  29
HETATM   29  O   UNL     1       2.157  15.268  92.754  1.00  0.00     0.000 OA
HETATM   30  H   UNL     1       2.667  15.553  91.977  1.00  0.00     0.000 HD
ENDBRANCH  27  29
ENDBRANCH  26  27
BRANCH  26  31
HETATM   31  C   UNL     1       2.525  13.825  90.571  1.00  0.00     0.000 C 
HETATM   32  O   UNL     1       1.598  14.491  90.114  1.00  0.00     0.000 OA
BRANCH  31  33
HETATM   33  P   UNL     1       3.752  13.674  89.971  1.00  0.00     0.000 P 
HETATM   34  H   UNL     1       4.292  14.931  89.790  1.00  0.00     0.000 HD
BRANCH  33  35
HETATM   35  O   UNL     1       3.747  13.025  88.728  1.00  0.00     0.000 OA
HETATM   36  H   UNL     1       2.798  12.833  88.636  1.00  0.00     0.000 HD
ENDBRANCH  33  35
ENDBRANCH  31  33
ENDBRANCH  26  31
ENDBRANCH  24  26
ENDBRANCH  19  22
ENDBRANCH  15  16
ENDBRANCH  11  14
ENDBRANCH   7   8
ENDBRANCH   2   7
TORSDOF 11
ENDMDL
MODEL 4
REMARK VINA RESULT:      -5.4      3.546     12.437
REMARK  11 active torsions:
REMARK  status: ('A' for Active; 'I' for Inactive)
REMARK    1  A    between atoms: O_2  and  C_18 
REMARK    2  A    between atoms: O_5  and  P_8 
REMARK    3  A    between atoms: N_6  and  C_11 
REMARK    4  A    between atoms: N_7  and  C_15 
REMARK       I    between atoms: N_7  and  C_24 
REMARK    5  A    between atoms: P_8  and  C_23 
REMARK    6  A    between atoms: C_11  and  C_14 
REMARK    7  A    between atoms: C_15  and  C_18 
REMARK    8  A    between atoms: C_15  and  C_23 
REMARK    9  A    between atoms: C_21  and  C_26 
REMARK   10  A    between atoms: C_24  and  C_25 
REMARK   11  A    between atoms: C_29  and  C_32 
ROOT
HETATM    1  O   UNL     1       2.858  14.760  94.124  1.00  0.00     0.000 OA
HETATM    2  N   UNL     1       2.608  14.825  91.289  1.00  0.00     0.000 N 
HETATM    3  C   UNL     1       1.622  14.134  92.131  1.00  0.00     0.000 C 
HETATM    4  C   UNL     1       3.923  14.819  91.945  1.00  0.00     0.000 C 
HETATM    5  C   UNL     1       1.569  14.790  93.509  1.00  0.00     0.000 C 
HETATM    6  C   UNL     1       3.816  15.457  93.326  1.00  0.00     0.000 C 
ENDROOT
BRANCH   2   7
HETATM    7  C   UNL     1       2.684  14.206  89.967  1.00  0.00     0.000 C 
BRANCH   7   8
HETATM    8  C   UNL     1       3.681  13.099  89.914  1.00  0.00     0.000 A 
HETATM    9  C   UNL     1       3.429  11.902  90.585  1.00  0.00     0.000 A 
HETATM   10  C   UNL     1       4.362  10.866  90.538  1.00  0.00     0.000 A 
HETATM   11  C   UNL     1       5.546  11.027  89.819  1.00  0.00     0.000 A 
HETATM   12  C   UNL     1       5.799  12.222  89.149  1.00  0.00     0.000 A 
HETATM   13  C   UNL     1       4.867  13.259  89.196  1.00  0.00     0.000 A 
BRANCH  11  14
HETATM   14  C   UNL     1       6.502   9.964  89.770  1.00  0.00     0.000 C 
HETATM   15  C   UNL     1       7.305   9.071  89.729  1.00  0.00     0.000 C 
BRANCH  15  16
HETATM   16  C   UNL     1       8.260   8.008  89.680  1.00  0.00     0.000 A 
HETATM   17  C   UNL     1       8.343   7.097  90.734  1.00  0.00     0.000 A 
HETATM   18  C   UNL     1       9.273   6.058  90.684  1.00  0.00     0.000 A 
HETATM   19  C   UNL     1      10.098   5.954  89.584  1.00  0.00     0.000 A 
HETATM   20  C   UNL     1      10.036   6.842  88.531  1.00  0.00     0.000 A 
HETATM   21  C   UNL     1       9.107   7.881  88.579  1.00  0.00     0.000 A 
BRANCH  19  22
HETATM   22  C   UNL     1      11.090   4.849  89.533  1.00  0.00     0.000 C 
HETATM   23  O   UNL     1      11.286   4.267  88.469  1.00  0.00     0.000 OA
HETATM   24  N   UNL     1      11.751   4.570  90.722  1.00  0.00     0.000 N 
HETATM   25  HN  UNL     1      11.555   5.109  91.556  1.00  0.00     0.000 HD
BRANCH  24  26
HETATM   26  C   UNL     1      12.757   3.544  90.827  1.00  0.00     0.000 C 
BRANCH  26  27
HETATM   27  C   UNL     1      14.172   4.115  90.985  1.00  0.00     0.000 C 
HETATM   28  C   UNL     1      14.590   4.243  92.446  1.00  0.00     0.000 C 
BRANCH  27  29
HETATM   29  O   UNL     1      15.105   3.272  90.308  1.00  0.00     0.000 OA
HETATM   30  H   UNL     1      15.190   2.445  90.812  1.00  0.00     0.000 HD
ENDBRANCH  27  29
ENDBRANCH  26  27
BRANCH  26  31
HETATM   31  C   UNL     1      12.387   2.647  92.003  1.00  0.00     0.000 C 
HETATM   32  O   UNL     1      13.013   1.629  92.293  1.00  0.00     0.000 OA
BRANCH  31  33
HETATM   33  P   UNL     1      11.264   3.089  92.660  1.00  0.00     0.000 P 
HETATM   34  H   UNL     1      10.363   3.528  91.710  1.00  0.00     0.000 HD
BRANCH  33  35
HETATM   35  O   UNL     1      11.464   4.132  93.576  1.00  0.00     0.000 OA
HETATM   36  H   UNL     1      12.329   3.879  93.942  1.00  0.00     0.000 HD
ENDBRANCH  33  35
ENDBRANCH  31  33
ENDBRANCH  26  31
ENDBRANCH  24  26
ENDBRANCH  19  22
ENDBRANCH  15  16
ENDBRANCH  11  14
ENDBRANCH   7   8
ENDBRANCH   2   7
TORSDOF 11
ENDMDL
MODEL 5
REMARK VINA RESULT:      -4.7      3.686     12.587
REMARK  11 active torsions:
REMARK  status: ('A' for Active; 'I' for Inactive)
REMARK    1  A    between atoms: O_2  and  C_18 
REMARK    2  A    between atoms: O_5  and  P_8 
REMARK    3  A    between atoms: N_6  and  C_11 
REMARK    4  A    between atoms: N_7  and  C_15 
REMARK       I    between atoms: N_7  and  C_24 
REMARK    5  A    between atoms: P_8  and  C_23 
REMARK    6  A    between atoms: C_11  and  C_14 
REMARK    7  A    between atoms: C_15  and  C_18 
REMARK    8  A    between atoms: C_15  and  C_23 
REMARK    9  A    between atoms: C_21  and  C_26 
REMARK   10  A    between atoms: C_24  and  C_25 
REMARK   11  A    between atoms: C_29  and  C_32 
ROOT
HETATM    1  O   UNL     1       3.989  14.880  90.927  1.00  0.00     0.000 OA
HETATM    2  N   UNL     1       2.608  13.495  92.994  1.00  0.00     0.000 N 
HETATM    3  C   UNL     1       3.718  14.410  93.292  1.00  0.00     0.000 C 
HETATM    4  C   UNL     1       2.785  12.906  91.660  1.00  0.00     0.000 C 
HETATM    5  C   UNL     1       3.809  15.483  92.209  1.00  0.00     0.000 C 
HETATM    6  C   UNL     1       2.898  14.013  90.616  1.00  0.00     0.000 C 
ENDROOT
BRANCH   2   7
HETATM    7  C   UNL     1       2.509  12.452  94.014  1.00  0.00     0.000 C 
BRANCH   7   8
HETATM    8  C   UNL     1       3.563  11.409  93.863  1.00  0.00     0.000 A 
HETATM    9  C   UNL     1       3.201  10.070  93.709  1.00  0.00     0.000 A 
HETATM   10  C   UNL     1       4.187   9.093  93.570  1.00  0.00     0.000 A 
HETATM   11  C   UNL     1       5.534   9.456  93.585  1.00  0.00     0.000 A 
HETATM   12  C   UNL     1       5.896  10.792  93.739  1.00  0.00     0.000 A 
HETATM   13  C   UNL     1       4.910  11.770  93.878  1.00  0.00     0.000 A 
BRANCH  11  14
HETATM   14  C   UNL     1       6.545   8.454  93.440  1.00  0.00     0.000 C 
HETATM   15  C   UNL     1       7.394   7.611  93.319  1.00  0.00     0.000 C 
BRANCH  15  16
HETATM   16  C   UNL     1       8.404   6.610  93.174  1.00  0.00     0.000 A 
HETATM   17  C   UNL     1       9.493   6.589  94.045  1.00  0.00     0.000 A 
HETATM   18  C   UNL     1      10.478   5.611  93.905  1.00  0.00     0.000 A 
HETATM   19  C   UNL     1      10.351   4.676  92.899  1.00  0.00     0.000 A 
HETATM   20  C   UNL     1       9.284   4.676  92.025  1.00  0.00     0.000 A 
HETATM   21  C   UNL     1       8.299   5.654  92.163  1.00  0.00     0.000 A 
BRANCH  19  22
HETATM   22  C   UNL     1      11.401   3.635  92.749  1.00  0.00     0.000 C 
HETATM   23  O   UNL     1      11.066   2.466  92.579  1.00  0.00     0.000 OA
HETATM   24  N   UNL     1      12.713   4.085  92.791  1.00  0.00     0.000 N 
HETATM   25  HN  UNL     1      12.914   5.071  92.911  1.00  0.00     0.000 HD
BRANCH  24  26
HETATM   26  C   UNL     1      13.841   3.202  92.637  1.00  0.00     0.000 C 
BRANCH  26  27
HETATM   27  C   UNL     1      14.353   3.141  91.193  1.00  0.00     0.000 C 
HETATM   28  C   UNL     1      14.185   4.465  90.457  1.00  0.00     0.000 C 
BRANCH  27  29
HETATM   29  O   UNL     1      15.735   2.782  91.191  1.00  0.00     0.000 OA
HETATM   30  H   UNL     1      16.073   2.876  90.285  1.00  0.00     0.000 HD
ENDBRANCH  27  29
ENDBRANCH  26  27
BRANCH  26  31
HETATM   31  C   UNL     1      14.933   3.669  93.593  1.00  0.00     0.000 C 
HETATM   32  O   UNL     1      15.159   4.856  93.823  1.00  0.00     0.000 OA
BRANCH  31  33
HETATM   33  P   UNL     1      15.643   2.620  94.124  1.00  0.00     0.000 P 
HETATM   34  H   UNL     1      15.340   2.540  95.468  1.00  0.00     0.000 HD
BRANCH  33  35
HETATM   35  O   UNL     1      17.037   2.702  94.002  1.00  0.00     0.000 OA
HETATM   36  H   UNL     1      17.306   1.946  94.552  1.00  0.00     0.000 HD
ENDBRANCH  33  35
ENDBRANCH  31  33
ENDBRANCH  26  31
ENDBRANCH  24  26
ENDBRANCH  19  22
ENDBRANCH  15  16
ENDBRANCH  11  14
ENDBRANCH   7   8
ENDBRANCH   2   7
TORSDOF 11
ENDMDL
MODEL 6
REMARK VINA RESULT:      -4.4      3.443     12.625
REMARK  11 active torsions:
REMARK  status: ('A' for Active; 'I' for Inactive)
REMARK    1  A    between atoms: O_2  and  C_18 
REMARK    2  A    between atoms: O_5  and  P_8 
REMARK    3  A    between atoms: N_6  and  C_11 
REMARK    4  A    between atoms: N_7  and  C_15 
REMARK       I    between atoms: N_7  and  C_24 
REMARK    5  A    between atoms: P_8  and  C_23 
REMARK    6  A    between atoms: C_11  and  C_14 
REMARK    7  A    between atoms: C_15  and  C_18 
REMARK    8  A    between atoms: C_15  and  C_23 
REMARK    9  A    between atoms: C_21  and  C_26 
REMARK   10  A    between atoms: C_24  and  C_25 
REMARK   11  A    between atoms: C_29  and  C_32 
ROOT
HETATM    1  O   UNL     1       2.541  13.584  92.188  1.00  0.00     0.000 OA
HETATM    2  N   UNL     1       3.114  12.550  89.598  1.00  0.00     0.000 N 
HETATM    3  C   UNL     1       3.165  11.698  90.794  1.00  0.00     0.000 C 
HETATM    4  C   UNL     1       3.426  13.941  89.958  1.00  0.00     0.000 C 
HETATM    5  C   UNL     1       2.207  12.236  91.854  1.00  0.00     0.000 C 
HETATM    6  C   UNL     1       2.463  14.425  91.037  1.00  0.00     0.000 C 
ENDROOT
BRANCH   2   7
HETATM    7  C   UNL     1       4.032  12.059  88.573  1.00  0.00     0.000 C 
BRANCH   7   8
HETATM    8  C   UNL     1       5.007  11.068  89.111  1.00  0.00     0.000 A 
HETATM    9  C   UNL     1       6.197  11.506  89.693  1.00  0.00     0.000 A 
HETATM   10  C   UNL     1       7.110  10.578  90.195  1.00  0.00     0.000 A 
HETATM   11  C   UNL     1       6.832   9.214  90.116  1.00  0.00     0.000 A 
HETATM   12  C   UNL     1       5.644   8.776  89.535  1.00  0.00     0.000 A 
HETATM   13  C   UNL     1       4.730   9.703  89.032  1.00  0.00     0.000 A 
BRANCH  11  14
HETATM   14  C   UNL     1       7.768   8.263  90.633  1.00  0.00     0.000 C 
HETATM   15  C   UNL     1       8.555   7.464  91.066  1.00  0.00     0.000 C 
BRANCH  15  16
HETATM   16  C   UNL     1       9.491   6.515  91.583  1.00  0.00     0.000 A 
HETATM   17  C   UNL     1      10.126   5.623  90.718  1.00  0.00     0.000 A 
HETATM   18  C   UNL     1      11.041   4.699  91.222  1.00  0.00     0.000 A 
HETATM   19  C   UNL     1      11.301   4.687  92.577  1.00  0.00     0.000 A 
HETATM   20  C   UNL     1      10.685   5.558  93.451  1.00  0.00     0.000 A 
HETATM   21  C   UNL     1       9.770   6.483  92.949  1.00  0.00     0.000 A 
BRANCH  19  22
HETATM   22  C   UNL     1      12.274   3.701  93.113  1.00  0.00     0.000 C 
HETATM   23  O   UNL     1      11.869   2.608  93.500  1.00  0.00     0.000 OA
HETATM   24  N   UNL     1      13.604   4.097  93.111  1.00  0.00     0.000 N 
HETATM   25  HN  UNL     1      13.868   5.007  92.752  1.00  0.00     0.000 HD
BRANCH  24  26
HETATM   26  C   UNL     1      14.668   3.243  93.576  1.00  0.00     0.000 C 
BRANCH  26  27
HETATM   27  C   UNL     1      14.971   2.092  92.609  1.00  0.00     0.000 C 
HETATM   28  C   UNL     1      14.015   0.916  92.783  1.00  0.00     0.000 C 
BRANCH  27  29
HETATM   29  O   UNL     1      14.886   2.562  91.264  1.00  0.00     0.000 OA
HETATM   30  H   UNL     1      14.204   3.254  91.226  1.00  0.00     0.000 HD
ENDBRANCH  27  29
ENDBRANCH  26  27
BRANCH  26  31
HETATM   31  C   UNL     1      15.899   4.115  93.803  1.00  0.00     0.000 C 
HETATM   32  O   UNL     1      15.886   5.338  93.676  1.00  0.00     0.000 OA
BRANCH  31  33
HETATM   33  P   UNL     1      17.010   3.372  94.121  1.00  0.00     0.000 P 
HETATM   34  H   UNL     1      17.686   4.031  95.128  1.00  0.00     0.000 HD
BRANCH  33  35
HETATM   35  O   UNL     1      17.913   3.145  93.073  1.00  0.00     0.000 OA
HETATM   36  H   UNL     1      17.591   2.288  92.747  1.00  0.00     0.000 HD
ENDBRANCH  33  35
ENDBRANCH  31  33
ENDBRANCH  26  31
ENDBRANCH  24  26
ENDBRANCH  19  22
ENDBRANCH  15  16
ENDBRANCH  11  14
ENDBRANCH   7   8
ENDBRANCH   2   7
TORSDOF 11
ENDMDL
MODEL 7
REMARK VINA RESULT:      -4.3      3.141     12.825
REMARK  11 active torsions:
REMARK  status: ('A' for Active; 'I' for Inactive)
REMARK    1  A    between atoms: O_2  and  C_18 
REMARK    2  A    between atoms: O_5  and  P_8 
REMARK    3  A    between atoms: N_6  and  C_11 
REMARK    4  A    between atoms: N_7  and  C_15 
REMARK       I    between atoms: N_7  and  C_24 
REMARK    5  A    between atoms: P_8  and  C_23 
REMARK    6  A    between atoms: C_11  and  C_14 
REMARK    7  A    between atoms: C_15  and  C_18 
REMARK    8  A    between atoms: C_15  and  C_23 
REMARK    9  A    between atoms: C_21  and  C_26 
REMARK   10  A    between atoms: C_24  and  C_25 
REMARK   11  A    between atoms: C_29  and  C_32 
ROOT
HETATM    1  O   UNL     1       1.732  13.755  91.761  1.00  0.00     0.000 OA
HETATM    2  N   UNL     1       3.662  12.382  90.182  1.00  0.00     0.000 N 
HETATM    3  C   UNL     1       3.086  13.663  89.749  1.00  0.00     0.000 C 
HETATM    4  C   UNL     1       2.700  11.656  91.023  1.00  0.00     0.000 C 
HETATM    5  C   UNL     1       2.673  14.482  90.969  1.00  0.00     0.000 C 
HETATM    6  C   UNL     1       2.295  12.522  92.212  1.00  0.00     0.000 C 
ENDROOT
BRANCH   2   7
HETATM    7  C   UNL     1       4.055  11.575  89.028  1.00  0.00     0.000 C 
BRANCH   7   8
HETATM    8  C   UNL     1       5.085  10.554  89.374  1.00  0.00     0.000 A 
HETATM    9  C   UNL     1       6.278  10.947  89.983  1.00  0.00     0.000 A 
HETATM   10  C   UNL     1       7.243   9.993  90.305  1.00  0.00     0.000 A 
HETATM   11  C   UNL     1       7.015   8.647  90.019  1.00  0.00     0.000 A 
HETATM   12  C   UNL     1       5.824   8.254  89.411  1.00  0.00     0.000 A 
HETATM   13  C   UNL     1       4.859   9.208  89.088  1.00  0.00     0.000 A 
BRANCH  11  14
HETATM   14  C   UNL     1       8.004   7.669  90.352  1.00  0.00     0.000 C 
HETATM   15  C   UNL     1       8.836   6.847  90.630  1.00  0.00     0.000 C 
BRANCH  15  16
HETATM   16  C   UNL     1       9.826   5.869  90.963  1.00  0.00     0.000 A 
HETATM   17  C   UNL     1      10.075   5.557  92.299  1.00  0.00     0.000 A 
HETATM   18  C   UNL     1      11.039   4.602  92.623  1.00  0.00     0.000 A 
HETATM   19  C   UNL     1      11.730   3.980  91.604  1.00  0.00     0.000 A 
HETATM   20  C   UNL     1      11.502   4.271  90.276  1.00  0.00     0.000 A 
HETATM   21  C   UNL     1      10.539   5.227  89.951  1.00  0.00     0.000 A 
BRANCH  19  22
HETATM   22  C   UNL     1      12.757   2.964  91.950  1.00  0.00     0.000 C 
HETATM   23  O   UNL     1      12.498   1.773  91.796  1.00  0.00     0.000 OA
HETATM   24  N   UNL     1      13.970   3.458  92.409  1.00  0.00     0.000 N 
HETATM   25  HN  UNL     1      14.121   4.457  92.487  1.00  0.00     0.000 HD
BRANCH  24  26
HETATM   26  C   UNL     1      15.073   2.600  92.762  1.00  0.00     0.000 C 
BRANCH  26  27
HETATM   27  C   UNL     1      15.806   2.042  91.535  1.00  0.00     0.000 C 
HETATM   28  C   UNL     1      15.649   2.930  90.306  1.00  0.00     0.000 C 
BRANCH  27  29
HETATM   29  O   UNL     1      17.195   1.903  91.832  1.00  0.00     0.000 OA
HETATM   30  H   UNL     1      17.698   2.442  91.197  1.00  0.00     0.000 HD
ENDBRANCH  27  29
ENDBRANCH  26  27
BRANCH  26  31
HETATM   31  C   UNL     1      16.017   3.399  93.656  1.00  0.00     0.000 C 
HETATM   32  O   UNL     1      17.052   2.929  94.124  1.00  0.00     0.000 OA
BRANCH  31  33
HETATM   33  P   UNL     1      15.552   4.669  93.898  1.00  0.00     0.000 P 
HETATM   34  H   UNL     1      14.557   4.937  92.980  1.00  0.00     0.000 HD
BRANCH  33  35
HETATM   35  O   UNL     1      16.505   5.694  93.811  1.00  0.00     0.000 OA
HETATM   36  H   UNL     1      16.218   6.261  94.547  1.00  0.00     0.000 HD
ENDBRANCH  33  35
ENDBRANCH  31  33
ENDBRANCH  26  31
ENDBRANCH  24  26
ENDBRANCH  19  22
ENDBRANCH  15  16
ENDBRANCH  11  14
ENDBRANCH   7   8
ENDBRANCH   2   7
TORSDOF 11
ENDMDL
MODEL 8
REMARK VINA RESULT:      -4.2      1.710      2.498
REMARK  11 active torsions:
REMARK  status: ('A' for Active; 'I' for Inactive)
REMARK    1  A    between atoms: O_2  and  C_18 
REMARK    2  A    between atoms: O_5  and  P_8 
REMARK    3  A    between atoms: N_6  and  C_11 
REMARK    4  A    between atoms: N_7  and  C_15 
REMARK       I    between atoms: N_7  and  C_24 
REMARK    5  A    between atoms: P_8  and  C_23 
REMARK    6  A    between atoms: C_11  and  C_14 
REMARK    7  A    between atoms: C_15  and  C_18 
REMARK    8  A    between atoms: C_15  and  C_23 
REMARK    9  A    between atoms: C_21  and  C_26 
REMARK   10  A    between atoms: C_24  and  C_25 
REMARK   11  A    between atoms: C_29  and  C_32 
ROOT
HETATM    1  O   UNL     1      16.502   3.681  93.248  1.00  0.00     0.000 OA
HETATM    2  N   UNL     1      14.305   1.973  92.652  1.00  0.00     0.000 N 
HETATM    3  C   UNL     1      14.689   3.070  91.754  1.00  0.00     0.000 C 
HETATM    4  C   UNL     1      14.667   2.305  94.037  1.00  0.00     0.000 C 
HETATM    5  C   UNL     1      16.183   3.353  91.894  1.00  0.00     0.000 C 
HETATM    6  C   UNL     1      16.159   2.606  94.124  1.00  0.00     0.000 C 
ENDROOT
BRANCH   2   7
HETATM    7  C   UNL     1      12.874   1.691  92.542  1.00  0.00     0.000 C 
BRANCH   7   8
HETATM    8  C   UNL     1      12.079   2.909  92.215  1.00  0.00     0.000 A 
HETATM    9  C   UNL     1      11.675   3.771  93.235  1.00  0.00     0.000 A 
HETATM   10  C   UNL     1      10.929   4.910  92.931  1.00  0.00     0.000 A 
HETATM   11  C   UNL     1      10.590   5.187  91.607  1.00  0.00     0.000 A 
HETATM   12  C   UNL     1      10.994   4.327  90.588  1.00  0.00     0.000 A 
HETATM   13  C   UNL     1      11.739   3.188  90.892  1.00  0.00     0.000 A 
BRANCH  11  14
HETATM   14  C   UNL     1       9.827   6.356  91.295  1.00  0.00     0.000 C 
HETATM   15  C   UNL     1       9.186   7.339  91.032  1.00  0.00     0.000 C 
BRANCH  15  16
HETATM   16  C   UNL     1       8.423   8.507  90.719  1.00  0.00     0.000 A 
HETATM   17  C   UNL     1       8.336   8.949  89.399  1.00  0.00     0.000 A 
HETATM   18  C   UNL     1       7.589  10.087  89.094  1.00  0.00     0.000 A 
HETATM   19  C   UNL     1       6.946  10.756  90.115  1.00  0.00     0.000 A 
HETATM   20  C   UNL     1       7.017  10.339  91.428  1.00  0.00     0.000 A 
HETATM   21  C   UNL     1       7.764   9.202  91.734  1.00  0.00     0.000 A 
BRANCH  19  22
HETATM   22  C   UNL     1       6.152  11.969  89.790  1.00  0.00     0.000 C 
HETATM   23  O   UNL     1       6.438  12.623  88.789  1.00  0.00     0.000 OA
HETATM   24  N   UNL     1       5.106  12.261  90.654  1.00  0.00     0.000 N 
HETATM   25  HN  UNL     1       4.914  11.661  91.447  1.00  0.00     0.000 HD
BRANCH  24  26
HETATM   26  C   UNL     1       4.231  13.389  90.460  1.00  0.00     0.000 C 
BRANCH  26  27
HETATM   27  C   UNL     1       3.251  13.187  89.298  1.00  0.00     0.000 C 
HETATM   28  C   UNL     1       2.606  11.805  89.312  1.00  0.00     0.000 C 
BRANCH  27  29
HETATM   29  O   UNL     1       2.225  14.177  89.360  1.00  0.00     0.000 OA
HETATM   30  H   UNL     1       1.903  14.341  88.457  1.00  0.00     0.000 HD
ENDBRANCH  27  29
ENDBRANCH  26  27
BRANCH  26  31
HETATM   31  C   UNL     1       3.493  13.638  91.771  1.00  0.00     0.000 C 
HETATM   32  O   UNL     1       2.618  14.492  91.895  1.00  0.00     0.000 OA
BRANCH  31  33
HETATM   33  P   UNL     1       3.949  12.830  92.784  1.00  0.00     0.000 P 
HETATM   34  H   UNL     1       2.860  12.178  93.328  1.00  0.00     0.000 HD
BRANCH  33  35
HETATM   35  O   UNL     1       4.624  13.481  93.826  1.00  0.00     0.000 OA
HETATM   36  H   UNL     1       4.906  12.715  94.356  1.00  0.00     0.000 HD
ENDBRANCH  33  35
ENDBRANCH  31  33
ENDBRANCH  26  31
ENDBRANCH  24  26
ENDBRANCH  19  22
ENDBRANCH  15  16
ENDBRANCH  11  14
ENDBRANCH   7   8
ENDBRANCH   2   7
TORSDOF 11
ENDMDL
