MODEL 1
REMARK VINA RESULT:      -7.6      0.000      0.000
REMARK  9 active torsions:
REMARK  status: ('A' for Active; 'I' for Inactive)
REMARK    1  A    between atoms: N_3  and  C_6 
REMARK    2  A    between atoms: C_6  and  C_9 
REMARK    3  A    between atoms: C_14  and  C_17 
REMARK       I    between atoms: N_26  and  C_15 
REMARK    4  A    between atoms: C_15  and  C_16 
REMARK    5  A    between atoms: C_20  and  C_23 
REMARK    6  A    between atoms: OG1_24  and  CB_28 
REMARK    7  A    between atoms: N_26  and  CA_27 
REMARK    8  A    between atoms: CA_27  and  CB_28 
REMARK    9  A    between atoms: CA_27  and  C_30 
ROOT
HETATM    1  O   UNK A   0       2.029   8.177  87.895  1.00  0.00    -0.388 OA
HETATM    2  N   UNK A   0       4.801   7.561  87.710  1.00  0.00     0.096 N 
HETATM    3  C   UNK A   0       4.329   8.947  87.829  1.00  0.00     0.299 C 
HETATM    4  C   UNK A   0       3.785   6.738  87.040  1.00  0.00     0.299 C 
HETATM    5  C   UNK A   0       2.998   8.978  88.575  1.00  0.00     0.198 C 
HETATM    6  C   UNK A   0       2.467   6.821  87.803  1.00  0.00     0.198 C 
ENDROOT
BRANCH   2   7
HETATM    7  C   UNK A   0       6.072   7.506  86.989  1.00  0.00     0.311 C 
BRANCH   7   8
HETATM    8  C   UNK A   0       7.164   6.905  87.807  1.00  0.00    -0.030 A 
HETATM    9  C   UNK A   0       6.946   6.615  89.154  1.00  0.00     0.010 A 
HETATM   10  C   UNK A   0       7.968   6.054  89.921  1.00  0.00     0.021 A 
HETATM   11  C   UNK A   0       9.205   5.781  89.338  1.00  0.00     0.018 A 
HETATM   12  C   UNK A   0       9.423   6.069  87.993  1.00  0.00     0.021 A 
HETATM   13  C   UNK A   0       8.402   6.631  87.226  1.00  0.00     0.010 A 
BRANCH  11  14
HETATM   14  C   UNK A   0      10.252   5.204  90.124  1.00  0.00    -0.061 C 
HETATM   15  C   UNK A   0      11.132   4.718  90.784  1.00  0.00    -0.061 C 
BRANCH  15  16
HETATM   16  C   UNK A   0      12.179   4.140  91.568  1.00  0.00     0.018 A 
HETATM   17  C   UNK A   0      13.430   3.908  90.997  1.00  0.00     0.022 A 
HETATM   18  C   UNK A   0      14.452   3.347  91.763  1.00  0.00     0.018 A 
HETATM   19  C   UNK A   0      14.200   3.032  93.082  1.00  0.00     0.032 A 
HETATM   20  C   UNK A   0      12.972   3.252  93.670  1.00  0.00     0.018 A 
HETATM   21  C   UNK A   0      11.949   3.812  92.905  1.00  0.00     0.022 A 
BRANCH  19  22
HETATM   22  C   UNK A   0      15.288   2.433  93.897  1.00  0.00     0.252 C 
HETATM   23  O   UNK A   0      16.419   2.908  93.830  1.00  0.00    -0.268 OA
ENDBRANCH  19  22
ENDBRANCH  15  16
ENDBRANCH  11  14
ENDBRANCH   7   8
ENDBRANCH   2   7
TORSDOF 9
ENDMDL
