MODEL 1
REMARK VINA RESULT:      -7.6      0.000      0.000
REMARK  9 active torsions:
REMARK  status: ('A' for Active; 'I' for Inactive)
REMARK    1  A    between atoms: N_3  and  C_6 
REMARK    2  A    between atoms: C_6  and  C_9 
REMARK    3  A    between atoms: C_14  and  C_17 
REMARK       I    between atoms: N_26  and  C_15 
REMARK    4  A    between atoms: C_15  and  C_16 
REMARK    5  A    between atoms: C_20  and  C_23 
REMARK    6  A    between atoms: OG1_24  and  CB_28 
REMARK    7  A    between atoms: N_26  and  CA_27 
REMARK    8  A    between atoms: CA_27  and  CB_28 
REMARK    9  A    between atoms: CA_27  and  C_30 
ROOT
HETATM    1  O   UNK A   0       1.923   8.207  87.828  1.00  0.00    -0.388 OA
HETATM    2  N   UNK A   0       4.700   7.610  87.653  1.00  0.00     0.096 N 
HETATM    3  C   UNK A   0       4.217   8.994  87.747  1.00  0.00     0.299 C 
HETATM    4  C   UNK A   0       3.690   6.768  86.997  1.00  0.00     0.299 C 
HETATM    5  C   UNK A   0       2.885   9.027  88.493  1.00  0.00     0.198 C 
HETATM    6  C   UNK A   0       2.371   6.853  87.759  1.00  0.00     0.198 C 
ENDROOT
BRANCH   2   7
HETATM    7  C   UNK A   0       5.971   7.553  86.932  1.00  0.00     0.311 C 
BRANCH   7   8
HETATM    8  C   UNK A   0       7.060   6.944  87.748  1.00  0.00    -0.030 A 
HETATM    9  C   UNK A   0       8.308   6.701  87.173  1.00  0.00     0.010 A 
HETATM   10  C   UNK A   0       9.327   6.130  87.934  1.00  0.00     0.021 A 
HETATM   11  C   UNK A   0       9.098   5.803  89.271  1.00  0.00     0.018 A 
HETATM   12  C   UNK A   0       7.852   6.046  89.846  1.00  0.00     0.021 A 
HETATM   13  C   UNK A   0       6.833   6.617  89.084  1.00  0.00     0.010 A 
BRANCH  11  14
HETATM   14  C   UNK A   0      10.144   5.219  90.052  1.00  0.00    -0.061 C 
HETATM   15  C   UNK A   0      11.024   4.729  90.710  1.00  0.00    -0.061 C 
BRANCH  15  16
HETATM   16  C   UNK A   0      12.068   4.145  91.492  1.00  0.00     0.018 A 
HETATM   17  C   UNK A   0      13.327   3.936  90.927  1.00  0.00     0.022 A 
HETATM   18  C   UNK A   0      14.347   3.369  91.691  1.00  0.00     0.018 A 
HETATM   19  C   UNK A   0      14.086   3.024  93.001  1.00  0.00     0.032 A 
HETATM   20  C   UNK A   0      12.851   3.220  93.582  1.00  0.00     0.018 A 
HETATM   21  C   UNK A   0      11.830   3.787  92.819  1.00  0.00     0.022 A 
BRANCH  19  22
HETATM   22  C   UNK A   0      15.173   2.418  93.814  1.00  0.00     0.252 C 
HETATM   23  O   UNK A   0      16.320   2.842  93.692  1.00  0.00    -0.268 OA
ENDBRANCH  19  22
ENDBRANCH  15  16
ENDBRANCH  11  14
ENDBRANCH   7   8
ENDBRANCH   2   7
TORSDOF 9
ENDMDL
MODEL 2
REMARK VINA RESULT:      -7.5      0.094      1.427
REMARK  9 active torsions:
REMARK  status: ('A' for Active; 'I' for Inactive)
REMARK    1  A    between atoms: N_3  and  C_6 
REMARK    2  A    between atoms: C_6  and  C_9 
REMARK    3  A    between atoms: C_14  and  C_17 
REMARK       I    between atoms: N_26  and  C_15 
REMARK    4  A    between atoms: C_15  and  C_16 
REMARK    5  A    between atoms: C_20  and  C_23 
REMARK    6  A    between atoms: OG1_24  and  CB_28 
REMARK    7  A    between atoms: N_26  and  CA_27 
REMARK    8  A    between atoms: CA_27  and  CB_28 
REMARK    9  A    between atoms: CA_27  and  C_30 
ROOT
HETATM    1  O   UNK A   0       1.845   8.094  87.876  1.00  0.00    -0.388 OA
HETATM    2  N   UNK A   0       4.627   7.523  87.680  1.00  0.00     0.096 N 
HETATM    3  C   UNK A   0       4.135   8.899  87.838  1.00  0.00     0.299 C 
HETATM    4  C   UNK A   0       3.624   6.706  86.984  1.00  0.00     0.299 C 
HETATM    5  C   UNK A   0       2.801   8.889  88.581  1.00  0.00     0.198 C 
HETATM    6  C   UNK A   0       2.303   6.748  87.746  1.00  0.00     0.198 C 
ENDROOT
BRANCH   2   7
HETATM    7  C   UNK A   0       5.900   7.508  86.961  1.00  0.00     0.311 C 
BRANCH   7   8
HETATM    8  C   UNK A   0       7.001   6.908  87.768  1.00  0.00    -0.030 A 
HETATM    9  C   UNK A   0       6.756   6.488  89.076  1.00  0.00     0.010 A 
HETATM   10  C   UNK A   0       7.786   5.928  89.832  1.00  0.00     0.021 A 
HETATM   11  C   UNK A   0       9.059   5.788  89.279  1.00  0.00     0.018 A 
HETATM   12  C   UNK A   0       9.304   6.207  87.973  1.00  0.00     0.021 A 
HETATM   13  C   UNK A   0       8.274   6.767  87.217  1.00  0.00     0.010 A 
BRANCH  11  14
HETATM   14  C   UNK A   0      10.114   5.212  90.055  1.00  0.00    -0.061 C 
HETATM   15  C   UNK A   0      11.001   4.728  90.706  1.00  0.00    -0.061 C 
BRANCH  15  16
HETATM   16  C   UNK A   0      12.056   4.151  91.480  1.00  0.00     0.018 A 
HETATM   17  C   UNK A   0      11.823   3.773  92.803  1.00  0.00     0.022 A 
HETATM   18  C   UNK A   0      12.851   3.208  93.557  1.00  0.00     0.018 A 
HETATM   19  C   UNK A   0      14.088   3.034  92.973  1.00  0.00     0.032 A 
HETATM   20  C   UNK A   0      14.344   3.401  91.668  1.00  0.00     0.018 A 
HETATM   21  C   UNK A   0      13.317   3.966  90.913  1.00  0.00     0.022 A 
BRANCH  19  22
HETATM   22  C   UNK A   0      15.184   2.434  93.777  1.00  0.00     0.252 C 
HETATM   23  O   UNK A   0      16.336   2.828  93.610  1.00  0.00    -0.268 OA
ENDBRANCH  19  22
ENDBRANCH  15  16
ENDBRANCH  11  14
ENDBRANCH   7   8
ENDBRANCH   2   7
TORSDOF 9
ENDMDL
MODEL 3
REMARK VINA RESULT:      -7.5      0.101      1.013
REMARK  9 active torsions:
REMARK  status: ('A' for Active; 'I' for Inactive)
REMARK    1  A    between atoms: N_3  and  C_6 
REMARK    2  A    between atoms: C_6  and  C_9 
REMARK    3  A    between atoms: C_14  and  C_17 
REMARK       I    between atoms: N_26  and  C_15 
REMARK    4  A    between atoms: C_15  and  C_16 
REMARK    5  A    between atoms: C_20  and  C_23 
REMARK    6  A    between atoms: OG1_24  and  CB_28 
REMARK    7  A    between atoms: N_26  and  CA_27 
REMARK    8  A    between atoms: CA_27  and  CB_28 
REMARK    9  A    between atoms: CA_27  and  C_30 
ROOT
HETATM    1  O   UNK A   0       1.813   8.065  87.850  1.00  0.00    -0.388 OA
HETATM    2  N   UNK A   0       4.611   7.564  87.696  1.00  0.00     0.096 N 
HETATM    3  C   UNK A   0       4.079   8.932  87.785  1.00  0.00     0.299 C 
HETATM    4  C   UNK A   0       3.635   6.687  87.035  1.00  0.00     0.299 C 
HETATM    5  C   UNK A   0       2.742   8.919  88.521  1.00  0.00     0.198 C 
HETATM    6  C   UNK A   0       2.309   6.728  87.788  1.00  0.00     0.198 C 
ENDROOT
BRANCH   2   7
HETATM    7  C   UNK A   0       5.888   7.551  86.984  1.00  0.00     0.311 C 
BRANCH   7   8
HETATM    8  C   UNK A   0       6.984   6.951  87.797  1.00  0.00    -0.030 A 
HETATM    9  C   UNK A   0       8.227   6.701  87.213  1.00  0.00     0.010 A 
HETATM   10  C   UNK A   0       9.253   6.138  87.972  1.00  0.00     0.021 A 
HETATM   11  C   UNK A   0       9.036   5.827  89.314  1.00  0.00     0.018 A 
HETATM   12  C   UNK A   0       7.796   6.077  89.898  1.00  0.00     0.021 A 
HETATM   13  C   UNK A   0       6.769   6.639  89.139  1.00  0.00     0.010 A 
BRANCH  11  14
HETATM   14  C   UNK A   0      10.090   5.252  90.093  1.00  0.00    -0.061 C 
HETATM   15  C   UNK A   0      10.975   4.768  90.747  1.00  0.00    -0.061 C 
BRANCH  15  16
HETATM   16  C   UNK A   0      12.028   4.194  91.525  1.00  0.00     0.018 A 
HETATM   17  C   UNK A   0      11.800   3.847  92.857  1.00  0.00     0.022 A 
HETATM   18  C   UNK A   0      12.827   3.284  93.615  1.00  0.00     0.018 A 
HETATM   19  C   UNK A   0      14.056   3.081  93.025  1.00  0.00     0.032 A 
HETATM   20  C   UNK A   0      14.307   3.415  91.711  1.00  0.00     0.018 A 
HETATM   21  C   UNK A   0      13.281   3.978  90.952  1.00  0.00     0.022 A 
BRANCH  19  22
HETATM   22  C   UNK A   0      15.150   2.483  93.834  1.00  0.00     0.252 C 
HETATM   23  O   UNK A   0      16.307   2.853  93.646  1.00  0.00    -0.268 OA
ENDBRANCH  19  22
ENDBRANCH  15  16
ENDBRANCH  11  14
ENDBRANCH   7   8
ENDBRANCH   2   7
TORSDOF 9
ENDMDL
MODEL 4
REMARK VINA RESULT:      -7.5      0.157      1.020
REMARK  9 active torsions:
REMARK  status: ('A' for Active; 'I' for Inactive)
REMARK    1  A    between atoms: N_3  and  C_6 
REMARK    2  A    between atoms: C_6  and  C_9 
REMARK    3  A    between atoms: C_14  and  C_17 
REMARK       I    between atoms: N_26  and  C_15 
REMARK    4  A    between atoms: C_15  and  C_16 
REMARK    5  A    between atoms: C_20  and  C_23 
REMARK    6  A    between atoms: OG1_24  and  CB_28 
REMARK    7  A    between atoms: N_26  and  CA_27 
REMARK    8  A    between atoms: CA_27  and  CB_28 
REMARK    9  A    between atoms: CA_27  and  C_30 
ROOT
HETATM    1  O   UNK A   0       1.746   8.020  87.835  1.00  0.00    -0.388 OA
HETATM    2  N   UNK A   0       4.552   7.577  87.667  1.00  0.00     0.096 N 
HETATM    3  C   UNK A   0       3.994   8.932  87.772  1.00  0.00     0.299 C 
HETATM    4  C   UNK A   0       3.592   6.687  86.999  1.00  0.00     0.299 C 
HETATM    5  C   UNK A   0       2.660   8.885  88.512  1.00  0.00     0.198 C 
HETATM    6  C   UNK A   0       2.268   6.693  87.756  1.00  0.00     0.198 C 
ENDROOT
BRANCH   2   7
HETATM    7  C   UNK A   0       5.827   7.596  86.952  1.00  0.00     0.311 C 
BRANCH   7   8
HETATM    8  C   UNK A   0       6.933   6.988  87.745  1.00  0.00    -0.030 A 
HETATM    9  C   UNK A   0       6.730   6.660  89.086  1.00  0.00     0.010 A 
HETATM   10  C   UNK A   0       7.764   6.093  89.830  1.00  0.00     0.021 A 
HETATM   11  C   UNK A   0       9.000   5.852  89.232  1.00  0.00     0.018 A 
HETATM   12  C   UNK A   0       9.204   6.178  87.892  1.00  0.00     0.021 A 
HETATM   13  C   UNK A   0       8.171   6.746  87.148  1.00  0.00     0.010 A 
BRANCH  11  14
HETATM   14  C   UNK A   0      10.061   5.268  89.994  1.00  0.00    -0.061 C 
HETATM   15  C   UNK A   0      10.952   4.776  90.635  1.00  0.00    -0.061 C 
BRANCH  15  16
HETATM   16  C   UNK A   0      12.011   4.192  91.397  1.00  0.00     0.018 A 
HETATM   17  C   UNK A   0      13.264   3.999  90.814  1.00  0.00     0.022 A 
HETATM   18  C   UNK A   0      14.298   3.432  91.558  1.00  0.00     0.018 A 
HETATM   19  C   UNK A   0      14.057   3.070  92.867  1.00  0.00     0.032 A 
HETATM   20  C   UNK A   0      12.828   3.250  93.466  1.00  0.00     0.018 A 
HETATM   21  C   UNK A   0      11.793   3.818  92.723  1.00  0.00     0.022 A 
BRANCH  19  22
HETATM   22  C   UNK A   0      15.158   2.464  93.659  1.00  0.00     0.252 C 
HETATM   23  O   UNK A   0      16.283   2.954  93.595  1.00  0.00    -0.268 OA
ENDBRANCH  19  22
ENDBRANCH  15  16
ENDBRANCH  11  14
ENDBRANCH   7   8
ENDBRANCH   2   7
TORSDOF 9
ENDMDL
MODEL 5
REMARK VINA RESULT:      -7.0      1.510      2.136
REMARK  9 active torsions:
REMARK  status: ('A' for Active; 'I' for Inactive)
REMARK    1  A    between atoms: N_3  and  C_6 
REMARK    2  A    between atoms: C_6  and  C_9 
REMARK    3  A    between atoms: C_14  and  C_17 
REMARK       I    between atoms: N_26  and  C_15 
REMARK    4  A    between atoms: C_15  and  C_16 
REMARK    5  A    between atoms: C_20  and  C_23 
REMARK    6  A    between atoms: OG1_24  and  CB_28 
REMARK    7  A    between atoms: N_26  and  CA_27 
REMARK    8  A    between atoms: CA_27  and  CB_28 
REMARK    9  A    between atoms: CA_27  and  C_30 
ROOT
HETATM    1  O   UNK A   0       2.907  11.239  89.687  1.00  0.00    -0.388 OA
HETATM    2  N   UNK A   0       4.695   9.271  88.669  1.00  0.00     0.096 N 
HETATM    3  C   UNK A   0       3.826  10.053  87.779  1.00  0.00     0.299 C 
HETATM    4  C   UNK A   0       4.066   9.129  89.989  1.00  0.00     0.299 C 
HETATM    5  C   UNK A   0       3.526  11.410  88.410  1.00  0.00     0.198 C 
HETATM    6  C   UNK A   0       3.759  10.506  90.568  1.00  0.00     0.198 C 
ENDROOT
BRANCH   2   7
HETATM    7  C   UNK A   0       4.988   7.962  88.089  1.00  0.00     0.311 C 
BRANCH   7   8
HETATM    8  C   UNK A   0       6.194   7.329  88.695  1.00  0.00    -0.030 A 
HETATM    9  C   UNK A   0       7.451   7.903  88.507  1.00  0.00     0.010 A 
HETATM   10  C   UNK A   0       8.580   7.311  89.071  1.00  0.00     0.021 A 
HETATM   11  C   UNK A   0       8.451   6.145  89.825  1.00  0.00     0.018 A 
HETATM   12  C   UNK A   0       7.196   5.570  90.014  1.00  0.00     0.021 A 
HETATM   13  C   UNK A   0       6.067   6.162  89.449  1.00  0.00     0.010 A 
BRANCH  11  14
HETATM   14  C   UNK A   0       9.609   5.538  90.406  1.00  0.00    -0.061 C 
HETATM   15  C   UNK A   0      10.583   5.028  90.894  1.00  0.00    -0.061 C 
BRANCH  15  16
HETATM   16  C   UNK A   0      11.741   4.423  91.475  1.00  0.00     0.018 A 
HETATM   17  C   UNK A   0      11.709   3.990  92.801  1.00  0.00     0.022 A 
HETATM   18  C   UNK A   0      12.838   3.397  93.366  1.00  0.00     0.018 A 
HETATM   19  C   UNK A   0      13.971   3.249  92.594  1.00  0.00     0.032 A 
HETATM   20  C   UNK A   0      14.028   3.669  91.281  1.00  0.00     0.018 A 
HETATM   21  C   UNK A   0      12.900   4.262  90.715  1.00  0.00     0.022 A 
BRANCH  19  22
HETATM   22  C   UNK A   0      15.174   2.619  93.197  1.00  0.00     0.252 C 
HETATM   23  O   UNK A   0      15.034   1.824  94.124  1.00  0.00    -0.268 OA
ENDBRANCH  19  22
ENDBRANCH  15  16
ENDBRANCH  11  14
ENDBRANCH   7   8
ENDBRANCH   2   7
TORSDOF 9
ENDMDL
MODEL 6
REMARK VINA RESULT:      -6.6      1.442      1.784
REMARK  9 active torsions:
REMARK  status: ('A' for Active; 'I' for Inactive)
REMARK    1  A    between atoms: N_3  and  C_6 
REMARK    2  A    between atoms: C_6  and  C_9 
REMARK    3  A    between atoms: C_14  and  C_17 
REMARK       I    between atoms: N_26  and  C_15 
REMARK    4  A    between atoms: C_15  and  C_16 
REMARK    5  A    between atoms: C_20  and  C_23 
REMARK    6  A    between atoms: OG1_24  and  CB_28 
REMARK    7  A    between atoms: N_26  and  CA_27 
REMARK    8  A    between atoms: CA_27  and  CB_28 
REMARK    9  A    between atoms: CA_27  and  C_30 
ROOT
HETATM    1  O   UNK A   0       4.535  11.587  89.085  1.00  0.00    -0.388 OA
HETATM    2  N   UNK A   0       4.943   8.795  88.709  1.00  0.00     0.096 N 
HETATM    3  C   UNK A   0       6.032   9.678  89.151  1.00  0.00     0.299 C 
HETATM    4  C   UNK A   0       3.985   9.549  87.889  1.00  0.00     0.299 C 
HETATM    5  C   UNK A   0       5.455  10.870  89.911  1.00  0.00     0.198 C 
HETATM    6  C   UNK A   0       3.457  10.744  88.677  1.00  0.00     0.198 C 
ENDROOT
BRANCH   2   7
HETATM    7  C   UNK A   0       5.473   7.651  87.969  1.00  0.00     0.311 C 
BRANCH   7   8
HETATM    8  C   UNK A   0       6.641   7.024  88.652  1.00  0.00    -0.030 A 
HETATM    9  C   UNK A   0       7.917   7.142  88.100  1.00  0.00     0.010 A 
HETATM   10  C   UNK A   0       9.009   6.555  88.736  1.00  0.00     0.021 A 
HETATM   11  C   UNK A   0       8.826   5.852  89.927  1.00  0.00     0.018 A 
HETATM   12  C   UNK A   0       7.553   5.734  90.480  1.00  0.00     0.021 A 
HETATM   13  C   UNK A   0       6.460   6.321  89.843  1.00  0.00     0.010 A 
BRANCH  11  14
HETATM   14  C   UNK A   0       9.948   5.251  90.581  1.00  0.00    -0.061 C 
HETATM   15  C   UNK A   0      10.890   4.747  91.132  1.00  0.00    -0.061 C 
BRANCH  15  16
HETATM   16  C   UNK A   0      12.011   4.146  91.787  1.00  0.00     0.018 A 
HETATM   17  C   UNK A   0      13.217   3.994  91.103  1.00  0.00     0.022 A 
HETATM   18  C   UNK A   0      14.311   3.411  91.743  1.00  0.00     0.018 A 
HETATM   19  C   UNK A   0      14.174   2.994  93.050  1.00  0.00     0.032 A 
HETATM   20  C   UNK A   0      12.992   3.133  93.747  1.00  0.00     0.018 A 
HETATM   21  C   UNK A   0      11.898   3.716  93.108  1.00  0.00     0.022 A 
BRANCH  19  22
HETATM   22  C   UNK A   0      15.339   2.371  93.731  1.00  0.00     0.252 C 
HETATM   23  O   UNK A   0      16.423   2.948  93.714  1.00  0.00    -0.268 OA
ENDBRANCH  19  22
ENDBRANCH  15  16
ENDBRANCH  11  14
ENDBRANCH   7   8
ENDBRANCH   2   7
TORSDOF 9
ENDMDL
MODEL 7
REMARK VINA RESULT:      -6.6      3.926     10.437
REMARK  9 active torsions:
REMARK  status: ('A' for Active; 'I' for Inactive)
REMARK    1  A    between atoms: N_3  and  C_6 
REMARK    2  A    between atoms: C_6  and  C_9 
REMARK    3  A    between atoms: C_14  and  C_17 
REMARK       I    between atoms: N_26  and  C_15 
REMARK    4  A    between atoms: C_15  and  C_16 
REMARK    5  A    between atoms: C_20  and  C_23 
REMARK    6  A    between atoms: OG1_24  and  CB_28 
REMARK    7  A    between atoms: N_26  and  CA_27 
REMARK    8  A    between atoms: CA_27  and  CB_28 
REMARK    9  A    between atoms: CA_27  and  C_30 
ROOT
HETATM    1  O   UNK A   0      14.592   3.333  92.097  1.00  0.00    -0.388 OA
HETATM    2  N   UNK A   0      11.882   4.184  92.287  1.00  0.00     0.096 N 
HETATM    3  C   UNK A   0      12.503   3.357  93.332  1.00  0.00     0.299 C 
HETATM    4  C   UNK A   0      12.512   3.911  90.988  1.00  0.00     0.299 C 
HETATM    5  C   UNK A   0      14.007   3.615  93.369  1.00  0.00     0.198 C 
HETATM    6  C   UNK A   0      14.015   4.155  91.081  1.00  0.00     0.198 C 
ENDROOT
BRANCH   2   7
HETATM    7  C   UNK A   0      10.441   3.945  92.226  1.00  0.00     0.311 C 
BRANCH   7   8
HETATM    8  C   UNK A   0       9.671   5.187  91.932  1.00  0.00    -0.030 A 
HETATM    9  C   UNK A   0       9.882   6.335  92.697  1.00  0.00     0.010 A 
HETATM   10  C   UNK A   0       9.161   7.497  92.424  1.00  0.00     0.021 A 
HETATM   11  C   UNK A   0       8.231   7.511  91.385  1.00  0.00     0.018 A 
HETATM   12  C   UNK A   0       8.020   6.366  90.620  1.00  0.00     0.021 A 
HETATM   13  C   UNK A   0       8.740   5.203  90.893  1.00  0.00     0.010 A 
BRANCH  11  14
HETATM   14  C   UNK A   0       7.492   8.704  91.103  1.00  0.00    -0.061 C 
HETATM   15  C   UNK A   0       6.871   9.706  90.866  1.00  0.00    -0.061 C 
BRANCH  15  16
HETATM   16  C   UNK A   0       6.133  10.897  90.586  1.00  0.00     0.018 A 
HETATM   17  C   UNK A   0       6.282  11.535  89.354  1.00  0.00     0.022 A 
HETATM   18  C   UNK A   0       5.559  12.696  89.079  1.00  0.00     0.018 A 
HETATM   19  C   UNK A   0       4.704  13.192  90.041  1.00  0.00     0.032 A 
HETATM   20  C   UNK A   0       4.540  12.581  91.266  1.00  0.00     0.018 A 
HETATM   21  C   UNK A   0       5.262  11.420  91.542  1.00  0.00     0.022 A 
BRANCH  19  22
HETATM   22  C   UNK A   0       3.936  14.430  89.748  1.00  0.00     0.252 C 
HETATM   23  O   UNK A   0       4.508  15.517  89.800  1.00  0.00    -0.268 OA
ENDBRANCH  19  22
ENDBRANCH  15  16
ENDBRANCH  11  14
ENDBRANCH   7   8
ENDBRANCH   2   7
TORSDOF 9
ENDMDL
MODEL 8
REMARK VINA RESULT:      -6.6      1.539      1.859
REMARK  9 active torsions:
REMARK  status: ('A' for Active; 'I' for Inactive)
REMARK    1  A    between atoms: N_3  and  C_6 
REMARK    2  A    between atoms: C_6  and  C_9 
REMARK    3  A    between atoms: C_14  and  C_17 
REMARK       I    between atoms: N_26  and  C_15 
REMARK    4  A    between atoms: C_15  and  C_16 
REMARK    5  A    between atoms: C_20  and  C_23 
REMARK    6  A    between atoms: OG1_24  and  CB_28 
REMARK    7  A    between atoms: N_26  and  CA_27 
REMARK    8  A    between atoms: CA_27  and  CB_28 
REMARK    9  A    between atoms: CA_27  and  C_30 
ROOT
HETATM    1  O   UNK A   0       2.040   7.050  87.399  1.00  0.00    -0.388 OA
HETATM    2  N   UNK A   0       4.231   7.488  89.162  1.00  0.00     0.096 N 
HETATM    3  C   UNK A   0       2.849   7.783  89.566  1.00  0.00     0.299 C 
HETATM    4  C   UNK A   0       4.373   7.639  87.707  1.00  0.00     0.299 C 
HETATM    5  C   UNK A   0       1.884   6.875  88.808  1.00  0.00     0.198 C 
HETATM    6  C   UNK A   0       3.372   6.736  86.993  1.00  0.00     0.198 C 
ENDROOT
BRANCH   2   7
HETATM    7  C   UNK A   0       5.172   8.355  89.869  1.00  0.00     0.311 C 
BRANCH   7   8
HETATM    8  C   UNK A   0       6.402   7.628  90.297  1.00  0.00    -0.030 A 
HETATM    9  C   UNK A   0       7.480   8.336  90.830  1.00  0.00     0.010 A 
HETATM   10  C   UNK A   0       8.631   7.657  91.228  1.00  0.00     0.021 A 
HETATM   11  C   UNK A   0       8.703   6.271  91.095  1.00  0.00     0.018 A 
HETATM   12  C   UNK A   0       7.628   5.563  90.563  1.00  0.00     0.021 A 
HETATM   13  C   UNK A   0       6.476   6.241  90.164  1.00  0.00     0.010 A 
BRANCH  11  14
HETATM   14  C   UNK A   0       9.884   5.575  91.506  1.00  0.00    -0.061 C 
HETATM   15  C   UNK A   0      10.876   4.989  91.851  1.00  0.00    -0.061 C 
BRANCH  15  16
HETATM   16  C   UNK A   0      12.055   4.293  92.260  1.00  0.00     0.018 A 
HETATM   17  C   UNK A   0      13.141   4.190  91.389  1.00  0.00     0.022 A 
HETATM   18  C   UNK A   0      14.293   3.513  91.790  1.00  0.00     0.018 A 
HETATM   19  C   UNK A   0      14.334   2.956  93.051  1.00  0.00     0.032 A 
HETATM   20  C   UNK A   0      13.275   3.044  93.930  1.00  0.00     0.018 A 
HETATM   21  C   UNK A   0      12.122   3.720  93.530  1.00  0.00     0.022 A 
BRANCH  19  22
HETATM   22  C   UNK A   0      15.560   2.233  93.477  1.00  0.00     0.252 C 
HETATM   23  O   UNK A   0      16.613   2.856  93.593  1.00  0.00    -0.268 OA
ENDBRANCH  19  22
ENDBRANCH  15  16
ENDBRANCH  11  14
ENDBRANCH   7   8
ENDBRANCH   2   7
TORSDOF 9
ENDMDL
MODEL 9
REMARK VINA RESULT:      -6.5      3.229     10.370
REMARK  9 active torsions:
REMARK  status: ('A' for Active; 'I' for Inactive)
REMARK    1  A    between atoms: N_3  and  C_6 
REMARK    2  A    between atoms: C_6  and  C_9 
REMARK    3  A    between atoms: C_14  and  C_17 
REMARK       I    between atoms: N_26  and  C_15 
REMARK    4  A    between atoms: C_15  and  C_16 
REMARK    5  A    between atoms: C_20  and  C_23 
REMARK    6  A    between atoms: OG1_24  and  CB_28 
REMARK    7  A    between atoms: N_26  and  CA_27 
REMARK    8  A    between atoms: CA_27  and  CB_28 
REMARK    9  A    between atoms: CA_27  and  C_30 
ROOT
HETATM    1  O   UNK A   0      16.175   3.197  93.662  1.00  0.00    -0.388 OA
HETATM    2  N   UNK A   0      13.544   2.927  92.609  1.00  0.00     0.096 N 
HETATM    3  C   UNK A   0      14.328   1.756  93.026  1.00  0.00     0.299 C 
HETATM    4  C   UNK A   0      14.443   4.003  92.168  1.00  0.00     0.299 C 
HETATM    5  C   UNK A   0      15.311   2.156  94.124  1.00  0.00     0.198 C 
HETATM    6  C   UNK A   0      15.422   4.350  93.284  1.00  0.00     0.198 C 
ENDROOT
BRANCH   2   7
HETATM    7  C   UNK A   0      12.603   2.569  91.550  1.00  0.00     0.311 C 
BRANCH   7   8
HETATM    8  C   UNK A   0      11.646   3.670  91.244  1.00  0.00    -0.030 A 
HETATM    9  C   UNK A   0      10.964   4.308  92.281  1.00  0.00     0.010 A 
HETATM   10  C   UNK A   0      10.067   5.338  91.996  1.00  0.00     0.021 A 
HETATM   11  C   UNK A   0       9.854   5.729  90.675  1.00  0.00     0.018 A 
HETATM   12  C   UNK A   0      10.534   5.093  89.639  1.00  0.00     0.021 A 
HETATM   13  C   UNK A   0      11.431   4.063  89.923  1.00  0.00     0.010 A 
BRANCH  11  14
HETATM   14  C   UNK A   0       8.935   6.786  90.383  1.00  0.00    -0.061 C 
HETATM   15  C   UNK A   0       8.164   7.675  90.137  1.00  0.00    -0.061 C 
BRANCH  15  16
HETATM   16  C   UNK A   0       7.246   8.732  89.844  1.00  0.00     0.018 A 
HETATM   17  C   UNK A   0       7.688  10.055  89.830  1.00  0.00     0.022 A 
HETATM   18  C   UNK A   0       6.793  11.085  89.542  1.00  0.00     0.018 A 
HETATM   19  C   UNK A   0       5.477  10.769  89.273  1.00  0.00     0.032 A 
HETATM   20  C   UNK A   0       5.016   9.470  89.281  1.00  0.00     0.018 A 
HETATM   21  C   UNK A   0       5.910   8.439  89.569  1.00  0.00     0.022 A 
BRANCH  19  22
HETATM   22  C   UNK A   0       4.524  11.867  88.968  1.00  0.00     0.252 C 
HETATM   23  O   UNK A   0       4.568  12.411  87.868  1.00  0.00    -0.268 OA
ENDBRANCH  19  22
ENDBRANCH  15  16
ENDBRANCH  11  14
ENDBRANCH   7   8
ENDBRANCH   2   7
TORSDOF 9
ENDMDL
