MODEL 1
REMARK VINA RESULT:      -7.0      0.000      0.000
REMARK  10 active torsions:
REMARK  status: ('A' for Active; 'I' for Inactive)
REMARK    1  A    between atoms: O_2  and  C_16 
REMARK    2  A    between atoms: N_5  and  C_9 
REMARK    3  A    between atoms: N_6  and  C_13 
REMARK       I    between atoms: N_6  and  C_22 
REMARK    4  A    between atoms: C_9  and  C_12 
REMARK    5  A    between atoms: C_13  and  C_16 
REMARK    6  A    between atoms: C_13  and  C_21 
REMARK    7  A    between atoms: C_19  and  C_24 
REMARK    8  A    between atoms: C_22  and  C_23 
REMARK    9  A    between atoms: C_27  and  C_30 
REMARK   10  A    between atoms: N_33  and  S_34 
ROOT
HETATM    1  C   UNL     1       5.847  11.191  89.678  1.00  0.00     0.056 A 
HETATM    2  C   UNL     1       5.343  10.094  90.345  1.00  0.00     0.005 A 
HETATM    3  C   UNL     1       7.161  11.259  89.262  1.00  0.00     0.005 A 
HETATM    4  C   UNL     1       7.522   9.063  90.200  1.00  0.00     0.042 A 
HETATM    5  C   UNL     1       6.189   9.018  90.610  1.00  0.00     0.008 A 
HETATM    6  C   UNL     1       8.008  10.184  89.526  1.00  0.00     0.008 A 
ENDROOT
BRANCH   1   7
HETATM    7  C   UNL     1       4.945  12.336  89.394  1.00  0.00     0.254 C 
HETATM    8  O   UNL     1       4.809  12.720  88.235  1.00  0.00    -0.268 OA
HETATM    9  N   UNL     1       4.290  12.881  90.491  1.00  0.00    -0.337 N 
HETATM   10  HN  UNL     1       4.432  12.494  91.417  1.00  0.00     0.164 HD
BRANCH   9  11
HETATM   11  C   UNL     1       3.364  13.979  90.375  1.00  0.00     0.172 C 
BRANCH  11  12
HETATM   12  C   UNL     1       1.999  13.673  91.003  1.00  0.00     0.136 C 
HETATM   13  C   UNL     1       2.027  12.429  91.885  1.00  0.00     0.034 C 
BRANCH  12  14
HETATM   14  O   UNL     1       1.574  14.787  91.787  1.00  0.00    -0.383 OA
HETATM   15  H   UNL     1       1.872  14.648  92.702  1.00  0.00     0.210 HD
ENDBRANCH  12  14
ENDBRANCH  11  12
BRANCH  11  16
HETATM   16  C   UNL     1       4.010  15.202  91.018  1.00  0.00     0.398 A 
HETATM   17  O   UNL     1       5.148  15.579  90.748  1.00  0.00    -0.136 OA
HETATM   18  N   UNL     1       4.921  15.620  92.250  1.00  0.00     0.142 N 
HETATM   19  HN  UNL     1       5.838  15.970  92.234  1.00  0.00     0.338 HD
BRANCH  18  20
HETATM   20  S   UNL     1       4.136  15.100  93.273  1.00  0.00     0.076 SA
HETATM   21  H   UNL     1       4.006  15.778  94.240  1.00  0.00     0.136 HD
ENDBRANCH  18  20
ENDBRANCH  11  16
ENDBRANCH   9  11
ENDBRANCH   1   7
BRANCH   4  22
HETATM   22  C   UNL     1       8.391   7.961  90.474  1.00  0.00    -0.059 C 
HETATM   23  C   UNL     1       9.122   7.035  90.704  1.00  0.00    -0.059 C 
BRANCH  23  24
HETATM   24  C   UNL     1       9.992   5.932  90.979  1.00  0.00     0.042 A 
HETATM   25  C   UNL     1      10.725   5.350  89.946  1.00  0.00     0.008 A 
HETATM   26  C   UNL     1      11.571   4.274  90.214  1.00  0.00    -0.002 A 
HETATM   27  C   UNL     1      11.685   3.782  91.515  1.00  0.00     0.011 A 
HETATM   28  C   UNL     1      10.950   4.366  92.547  1.00  0.00    -0.002 A 
HETATM   29  C   UNL     1      10.104   5.442  92.279  1.00  0.00     0.008 A 
BRANCH  27  30
HETATM   30  C   UNL     1      12.591   2.633  91.800  1.00  0.00     0.277 C 
BRANCH  30  31
HETATM   31  N   UNL     1      13.611   2.962  92.794  1.00  0.00     0.147 N 
HETATM   32  C   UNL     1      14.443   1.788  93.093  1.00  0.00     0.283 C 
HETATM   33  C   UNL     1      15.507   2.158  94.124  1.00  0.00     0.178 C 
HETATM   34  O   UNL     1      16.315   3.233  93.641  1.00  0.00    -0.350 OA
HETATM   35  C   UNL     1      15.518   4.388  93.377  1.00  0.00     0.178 C 
HETATM   36  C   UNL     1      14.455   4.072  92.330  1.00  0.00     0.283 C 
ENDBRANCH  30  31
ENDBRANCH  27  30
ENDBRANCH  23  24
ENDBRANCH   4  22
TORSDOF 10
ENDMDL
