MODEL 1
REMARK VINA RESULT:      -6.7      0.000      0.000
REMARK  9 active torsions:
REMARK  status: ('A' for Active; 'I' for Inactive)
REMARK    1  A    between atoms: O_2  and  C_17 
REMARK    2  A    between atoms: N_5  and  C_10 
REMARK    3  A    between atoms: N_6  and  C_14 
REMARK       I    between atoms: N_6  and  C_23 
REMARK       I    between atoms: N_7  and  C_22 
REMARK    4  A    between atoms: C_10  and  C_13 
REMARK    5  A    between atoms: C_14  and  C_17 
REMARK    6  A    between atoms: C_14  and  C_22 
REMARK    7  A    between atoms: C_20  and  C_25 
REMARK    8  A    between atoms: C_23  and  C_24 
REMARK    9  A    between atoms: C_28  and  C_31 
ROOT
HETATM    1  O   UNL     1      16.427   3.414  93.824  1.00  0.00    -0.388 OA
HETATM    2  N   UNL     1      13.816   2.729  92.920  1.00  0.00     0.096 N 
HETATM    3  C   UNL     1      14.878   1.720  93.038  1.00  0.00     0.299 C 
HETATM    4  C   UNL     1      14.404   4.048  92.645  1.00  0.00     0.299 C 
HETATM    5  C   UNL     1      15.867   2.135  94.124  1.00  0.00     0.198 C 
HETATM    6  C   UNL     1      15.404   4.408  93.738  1.00  0.00     0.198 C 
ENDROOT
BRANCH   2   7
HETATM    7  C   UNL     1      12.862   2.358  91.877  1.00  0.00     0.311 C 
BRANCH   7   8
HETATM    8  C   UNL     1      11.884   3.445  91.589  1.00  0.00    -0.030 A 
HETATM    9  C   UNL     1      11.798   3.982  90.303  1.00  0.00     0.010 A 
HETATM   10  C   UNL     1      10.885   5.001  90.033  1.00  0.00     0.021 A 
HETATM   11  C   UNL     1      10.056   5.480  91.047  1.00  0.00     0.018 A 
HETATM   12  C   UNL     1      10.141   4.945  92.330  1.00  0.00     0.021 A 
HETATM   13  C   UNL     1      11.054   3.926  92.602  1.00  0.00     0.010 A 
BRANCH  11  14
HETATM   14  C   UNL     1       9.118   6.524  90.769  1.00  0.00    -0.061 C 
HETATM   15  C   UNL     1       8.330   7.401  90.534  1.00  0.00    -0.061 C 
BRANCH  15  16
HETATM   16  C   UNL     1       7.392   8.444  90.255  1.00  0.00     0.018 A 
HETATM   17  C   UNL     1       7.424   9.626  90.996  1.00  0.00     0.022 A 
HETATM   18  C   UNL     1       6.511  10.644  90.722  1.00  0.00     0.018 A 
HETATM   19  C   UNL     1       5.589  10.459  89.714  1.00  0.00     0.032 A 
HETATM   20  C   UNL     1       5.537   9.300  88.968  1.00  0.00     0.018 A 
HETATM   21  C   UNL     1       6.449   8.281  89.241  1.00  0.00     0.022 A 
BRANCH  19  22
HETATM   22  C   UNL     1       4.615  11.543  89.423  1.00  0.00     0.252 C 
HETATM   23  O   UNL     1       3.806  11.394  88.511  1.00  0.00    -0.268 OA
HETATM   24  N   UNL     1       4.685  12.659  90.245  1.00  0.00    -0.342 N 
HETATM   25  H   UNL     1       5.365  12.702  90.996  1.00  0.00     0.163 HD
BRANCH  24  26
HETATM   26  C   UNL     1       3.794  13.783  90.105  1.00  0.00     0.199 C 
BRANCH  26  27
HETATM   27  C   UNL     1       2.469  13.586  90.854  1.00  0.00     0.145 C 
HETATM   28  C   UNL     1       2.651  12.856  92.180  1.00  0.00     0.042 C 
BRANCH  27  29
HETATM   29  O   UNL     1       1.869  14.857  91.103  1.00  0.00    -0.393 OA
HETATM   30  H   UNL     1       1.195  14.745  91.794  1.00  0.00     0.210 HD
ENDBRANCH  27  29
ENDBRANCH  26  27
BRANCH  26  31
HETATM   31  C   UNL     1       4.529  15.025  90.597  1.00  0.00     0.220 C 
HETATM   32  O   UNL     1       4.423  15.457  91.743  1.00  0.00    -0.278 OA
HETATM   33  N   UNL     1       5.279  15.610  89.605  1.00  0.00    -0.271 NA
HETATM   34  H   UNL     1       5.318  15.334  88.631  1.00  0.00     0.127 HD
HETATM   35  H   UNL     1       5.037  16.815  88.926  1.00  0.00     0.127 HD
ENDBRANCH  26  31
ENDBRANCH  24  26
ENDBRANCH  19  22
ENDBRANCH  15  16
ENDBRANCH  11  14
ENDBRANCH   7   8
ENDBRANCH   2   7
TORSDOF 9
ENDMDL
MODEL 2
REMARK VINA RESULT:      -5.8      1.392      2.100
REMARK  9 active torsions:
REMARK  status: ('A' for Active; 'I' for Inactive)
REMARK    1  A    between atoms: O_2  and  C_17 
REMARK    2  A    between atoms: N_5  and  C_10 
REMARK    3  A    between atoms: N_6  and  C_14 
REMARK       I    between atoms: N_6  and  C_23 
REMARK       I    between atoms: N_7  and  C_22 
REMARK    4  A    between atoms: C_10  and  C_13 
REMARK    5  A    between atoms: C_14  and  C_17 
REMARK    6  A    between atoms: C_14  and  C_22 
REMARK    7  A    between atoms: C_20  and  C_25 
REMARK    8  A    between atoms: C_23  and  C_24 
REMARK    9  A    between atoms: C_28  and  C_31 
ROOT
HETATM    1  O   UNL     1      15.798   4.339  93.793  1.00  0.00    -0.388 OA
HETATM    2  N   UNL     1      14.032   2.650  92.334  1.00  0.00     0.096 N 
HETATM    3  C   UNL     1      14.188   4.071  91.996  1.00  0.00     0.299 C 
HETATM    4  C   UNL     1      14.288   2.441  93.766  1.00  0.00     0.299 C 
HETATM    5  C   UNL     1      15.583   4.547  92.396  1.00  0.00     0.198 C 
HETATM    6  C   UNL     1      15.678   2.955  94.124  1.00  0.00     0.198 C 
ENDROOT
BRANCH   2   7
HETATM    7  C   UNL     1      12.698   2.175  91.969  1.00  0.00     0.311 C 
BRANCH   7   8
HETATM    8  C   UNL     1      11.711   3.286  91.855  1.00  0.00    -0.030 A 
HETATM    9  C   UNL     1      11.228   3.662  90.601  1.00  0.00     0.010 A 
HETATM   10  C   UNL     1      10.306   4.703  90.493  1.00  0.00     0.021 A 
HETATM   11  C   UNL     1       9.867   5.366  91.639  1.00  0.00     0.018 A 
HETATM   12  C   UNL     1      10.348   4.991  92.891  1.00  0.00     0.021 A 
HETATM   13  C   UNL     1      11.271   3.950  93.000  1.00  0.00     0.010 A 
BRANCH  11  14
HETATM   14  C   UNL     1       8.919   6.432  91.528  1.00  0.00    -0.061 C 
HETATM   15  C   UNL     1       8.123   7.328  91.433  1.00  0.00    -0.061 C 
BRANCH  15  16
HETATM   16  C   UNL     1       7.176   8.393  91.322  1.00  0.00     0.018 A 
HETATM   17  C   UNL     1       5.827   8.156  91.588  1.00  0.00     0.022 A 
HETATM   18  C   UNL     1       4.903   9.196  91.482  1.00  0.00     0.018 A 
HETATM   19  C   UNL     1       5.348  10.448  91.115  1.00  0.00     0.032 A 
HETATM   20  C   UNL     1       6.676  10.708  90.847  1.00  0.00     0.018 A 
HETATM   21  C   UNL     1       7.601   9.669  90.952  1.00  0.00     0.022 A 
BRANCH  19  22
HETATM   22  C   UNL     1       4.364  11.555  91.000  1.00  0.00     0.252 C 
HETATM   23  O   UNL     1       3.252  11.323  90.533  1.00  0.00    -0.268 OA
HETATM   24  N   UNL     1       4.784  12.793  91.467  1.00  0.00    -0.342 N 
HETATM   25  H   UNL     1       5.709  12.905  91.864  1.00  0.00     0.163 HD
BRANCH  24  26
HETATM   26  C   UNL     1       3.936  13.958  91.446  1.00  0.00     0.199 C 
BRANCH  26  27
HETATM   27  C   UNL     1       3.735  14.522  90.034  1.00  0.00     0.145 C 
HETATM   28  C   UNL     1       5.048  14.673  89.274  1.00  0.00     0.042 C 
BRANCH  27  29
HETATM   29  O   UNL     1       2.868  13.661  89.296  1.00  0.00    -0.393 OA
HETATM   30  H   UNL     1       2.034  14.133  89.135  1.00  0.00     0.210 HD
ENDBRANCH  27  29
ENDBRANCH  26  27
BRANCH  26  31
HETATM   31  C   UNL     1       2.605  13.576  92.086  1.00  0.00     0.220 C 
HETATM   32  O   UNL     1       1.517  13.902  91.613  1.00  0.00    -0.278 OA
HETATM   33  N   UNL     1       2.773  12.871  93.253  1.00  0.00    -0.271 NA
HETATM   34  H   UNL     1       3.650  12.664  93.715  1.00  0.00     0.127 HD
HETATM   35  H   UNL     1       2.542  13.299  94.570  1.00  0.00     0.127 HD
ENDBRANCH  26  31
ENDBRANCH  24  26
ENDBRANCH  19  22
ENDBRANCH  15  16
ENDBRANCH  11  14
ENDBRANCH   7   8
ENDBRANCH   2   7
TORSDOF 9
ENDMDL
MODEL 3
REMARK VINA RESULT:      -5.1      1.975     12.409
REMARK  9 active torsions:
REMARK  status: ('A' for Active; 'I' for Inactive)
REMARK    1  A    between atoms: O_2  and  C_17 
REMARK    2  A    between atoms: N_5  and  C_10 
REMARK    3  A    between atoms: N_6  and  C_14 
REMARK       I    between atoms: N_6  and  C_23 
REMARK       I    between atoms: N_7  and  C_22 
REMARK    4  A    between atoms: C_10  and  C_13 
REMARK    5  A    between atoms: C_14  and  C_17 
REMARK    6  A    between atoms: C_14  and  C_22 
REMARK    7  A    between atoms: C_20  and  C_25 
REMARK    8  A    between atoms: C_23  and  C_24 
REMARK    9  A    between atoms: C_28  and  C_31 
ROOT
HETATM    1  O   UNL     1       5.495  14.597  88.452  1.00  0.00    -0.388 OA
HETATM    2  N   UNL     1       3.655  13.401  90.265  1.00  0.00     0.096 N 
HETATM    3  C   UNL     1       4.602  14.436  90.703  1.00  0.00     0.299 C 
HETATM    4  C   UNL     1       4.217  12.651  89.133  1.00  0.00     0.299 C 
HETATM    5  C   UNL     1       4.944  15.353  89.531  1.00  0.00     0.198 C 
HETATM    6  C   UNL     1       4.568  13.609  88.000  1.00  0.00     0.198 C 
ENDROOT
BRANCH   2   7
HETATM    7  C   UNL     1       3.322  12.504  91.370  1.00  0.00     0.311 C 
BRANCH   7   8
HETATM    8  C   UNL     1       4.370  11.468  91.596  1.00  0.00    -0.030 A 
HETATM    9  C   UNL     1       4.594  10.482  90.633  1.00  0.00     0.010 A 
HETATM   10  C   UNL     1       5.573   9.511  90.845  1.00  0.00     0.021 A 
HETATM   11  C   UNL     1       6.328   9.527  92.017  1.00  0.00     0.018 A 
HETATM   12  C   UNL     1       6.105  10.511  92.978  1.00  0.00     0.021 A 
HETATM   13  C   UNL     1       5.126  11.482  92.768  1.00  0.00     0.010 A 
BRANCH  11  14
HETATM   14  C   UNL     1       7.333   8.532  92.232  1.00  0.00    -0.061 C 
HETATM   15  C   UNL     1       8.178   7.696  92.413  1.00  0.00    -0.061 C 
BRANCH  15  16
HETATM   16  C   UNL     1       9.182   6.701  92.628  1.00  0.00     0.018 A 
HETATM   17  C   UNL     1       9.670   6.470  93.915  1.00  0.00     0.022 A 
HETATM   18  C   UNL     1      10.648   5.498  94.124  1.00  0.00     0.018 A 
HETATM   19  C   UNL     1      11.115   4.778  93.044  1.00  0.00     0.032 A 
HETATM   20  C   UNL     1      10.649   4.988  91.763  1.00  0.00     0.018 A 
HETATM   21  C   UNL     1       9.671   5.960  91.552  1.00  0.00     0.022 A 
BRANCH  19  22
HETATM   22  C   UNL     1      12.158   3.744  93.267  1.00  0.00     0.252 C 
HETATM   23  O   UNL     1      11.817   2.578  93.451  1.00  0.00    -0.268 OA
HETATM   24  N   UNL     1      13.473   4.187  93.225  1.00  0.00    -0.342 N 
HETATM   25  H   UNL     1      13.679   5.163  93.043  1.00  0.00     0.163 HD
BRANCH  24  26
HETATM   26  C   UNL     1      14.596   3.302  93.399  1.00  0.00     0.199 C 
BRANCH  26  27
HETATM   27  C   UNL     1      14.908   2.484  92.139  1.00  0.00     0.145 C 
HETATM   28  C   UNL     1      14.754   3.301  90.861  1.00  0.00     0.042 C 
BRANCH  27  29
HETATM   29  O   UNL     1      16.243   1.985  92.213  1.00  0.00    -0.393 OA
HETATM   30  H   UNL     1      16.628   2.012  91.320  1.00  0.00     0.210 HD
ENDBRANCH  27  29
ENDBRANCH  26  27
BRANCH  26  31
HETATM   31  C   UNL     1      15.793   4.146  93.823  1.00  0.00     0.220 C 
HETATM   32  O   UNL     1      15.770   5.375  93.852  1.00  0.00    -0.278 OA
HETATM   33  N   UNL     1      16.891   3.375  94.124  1.00  0.00    -0.271 NA
HETATM   34  H   UNL     1      16.972   2.370  94.025  1.00  0.00     0.127 HD
HETATM   35  H   UNL     1      18.078   3.226  93.390  1.00  0.00     0.127 HD
ENDBRANCH  26  31
ENDBRANCH  24  26
ENDBRANCH  19  22
ENDBRANCH  15  16
ENDBRANCH  11  14
ENDBRANCH   7   8
ENDBRANCH   2   7
TORSDOF 9
ENDMDL
MODEL 4
REMARK VINA RESULT:      -5.1      1.898     12.727
REMARK  9 active torsions:
REMARK  status: ('A' for Active; 'I' for Inactive)
REMARK    1  A    between atoms: O_2  and  C_17 
REMARK    2  A    between atoms: N_5  and  C_10 
REMARK    3  A    between atoms: N_6  and  C_14 
REMARK       I    between atoms: N_6  and  C_23 
REMARK       I    between atoms: N_7  and  C_22 
REMARK    4  A    between atoms: C_10  and  C_13 
REMARK    5  A    between atoms: C_14  and  C_17 
REMARK    6  A    between atoms: C_14  and  C_22 
REMARK    7  A    between atoms: C_20  and  C_25 
REMARK    8  A    between atoms: C_23  and  C_24 
REMARK    9  A    between atoms: C_28  and  C_31 
ROOT
HETATM    1  O   UNL     1       2.248  15.520  92.753  1.00  0.00    -0.388 OA
HETATM    2  N   UNL     1       3.514  13.389  91.354  1.00  0.00     0.096 N 
HETATM    3  C   UNL     1       4.290  14.491  91.941  1.00  0.00     0.299 C 
HETATM    4  C   UNL     1       2.171  13.859  90.987  1.00  0.00     0.299 C 
HETATM    5  C   UNL     1       3.545  15.065  93.143  1.00  0.00     0.198 C 
HETATM    6  C   UNL     1       1.476  14.448  92.210  1.00  0.00     0.198 C 
ENDROOT
BRANCH   2   7
HETATM    7  C   UNL     1       4.205  12.831  90.194  1.00  0.00     0.311 C 
BRANCH   7   8
HETATM    8  C   UNL     1       5.173  11.761  90.569  1.00  0.00    -0.030 A 
HETATM    9  C   UNL     1       6.118  11.320  89.642  1.00  0.00     0.010 A 
HETATM   10  C   UNL     1       7.023  10.318  89.992  1.00  0.00     0.021 A 
HETATM   11  C   UNL     1       6.983   9.759  91.269  1.00  0.00     0.018 A 
HETATM   12  C   UNL     1       6.040  10.198  92.195  1.00  0.00     0.021 A 
HETATM   13  C   UNL     1       5.135  11.200  91.846  1.00  0.00     0.010 A 
BRANCH  11  14
HETATM   14  C   UNL     1       7.913   8.732  91.628  1.00  0.00    -0.061 C 
HETATM   15  C   UNL     1       8.695   7.870  91.930  1.00  0.00    -0.061 C 
BRANCH  15  16
HETATM   16  C   UNL     1       9.624   6.844  92.289  1.00  0.00     0.018 A 
HETATM   17  C   UNL     1      10.244   6.087  91.295  1.00  0.00     0.022 A 
HETATM   18  C   UNL     1      11.152   5.088  91.647  1.00  0.00     0.018 A 
HETATM   19  C   UNL     1      11.421   4.870  92.982  1.00  0.00     0.032 A 
HETATM   20  C   UNL     1      10.821   5.605  93.983  1.00  0.00     0.018 A 
HETATM   21  C   UNL     1       9.912   6.604  93.633  1.00  0.00     0.022 A 
BRANCH  19  22
HETATM   22  C   UNL     1      12.387   3.805  93.355  1.00  0.00     0.252 C 
HETATM   23  O   UNL     1      11.966   2.688  93.646  1.00  0.00    -0.268 OA
HETATM   24  N   UNL     1      13.728   4.162  93.320  1.00  0.00    -0.342 N 
HETATM   25  H   UNL     1      14.003   5.097  93.045  1.00  0.00     0.163 HD
BRANCH  24  26
HETATM   26  C   UNL     1      14.786   3.234  93.632  1.00  0.00     0.199 C 
BRANCH  26  27
HETATM   27  C   UNL     1      15.054   2.237  92.498  1.00  0.00     0.145 C 
HETATM   28  C   UNL     1      14.759   2.824  91.122  1.00  0.00     0.042 C 
BRANCH  27  29
HETATM   29  O   UNL     1      16.419   1.821  92.541  1.00  0.00    -0.393 OA
HETATM   30  H   UNL     1      16.830   2.033  91.686  1.00  0.00     0.210 HD
ENDBRANCH  27  29
ENDBRANCH  26  27
BRANCH  26  31
HETATM   31  C   UNL     1      16.034   4.045  93.965  1.00  0.00     0.220 C 
HETATM   32  O   UNL     1      17.141   3.534  94.124  1.00  0.00    -0.278 OA
HETATM   33  N   UNL     1      15.762   5.384  94.100  1.00  0.00    -0.271 NA
HETATM   34  H   UNL     1      14.850   5.825  94.065  1.00  0.00     0.127 HD
HETATM   35  H   UNL     1      15.738   6.154  95.274  1.00  0.00     0.127 HD
ENDBRANCH  26  31
ENDBRANCH  24  26
ENDBRANCH  19  22
ENDBRANCH  15  16
ENDBRANCH  11  14
ENDBRANCH   7   8
ENDBRANCH   2   7
TORSDOF 9
ENDMDL
MODEL 5
REMARK VINA RESULT:      -4.9      1.856     12.270
REMARK  9 active torsions:
REMARK  status: ('A' for Active; 'I' for Inactive)
REMARK    1  A    between atoms: O_2  and  C_17 
REMARK    2  A    between atoms: N_5  and  C_10 
REMARK    3  A    between atoms: N_6  and  C_14 
REMARK       I    between atoms: N_6  and  C_23 
REMARK       I    between atoms: N_7  and  C_22 
REMARK    4  A    between atoms: C_10  and  C_13 
REMARK    5  A    between atoms: C_14  and  C_17 
REMARK    6  A    between atoms: C_14  and  C_22 
REMARK    7  A    between atoms: C_20  and  C_25 
REMARK    8  A    between atoms: C_23  and  C_24 
REMARK    9  A    between atoms: C_28  and  C_31 
ROOT
HETATM    1  O   UNL     1       3.210  14.686  92.961  1.00  0.00    -0.388 OA
HETATM    2  N   UNL     1       2.993  14.184  90.168  1.00  0.00     0.096 N 
HETATM    3  C   UNL     1       2.026  13.629  91.125  1.00  0.00     0.299 C 
HETATM    4  C   UNL     1       4.299  14.362  90.818  1.00  0.00     0.299 C 
HETATM    5  C   UNL     1       1.929  14.539  92.347  1.00  0.00     0.198 C 
HETATM    6  C   UNL     1       4.148  15.253  92.046  1.00  0.00     0.198 C 
ENDROOT
BRANCH   2   7
HETATM    7  C   UNL     1       3.111  13.322  88.993  1.00  0.00     0.311 C 
BRANCH   7   8
HETATM    8  C   UNL     1       4.070  12.200  89.205  1.00  0.00    -0.030 A 
HETATM    9  C   UNL     1       3.632  10.880  89.095  1.00  0.00     0.010 A 
HETATM   10  C   UNL     1       4.528   9.830  89.296  1.00  0.00     0.021 A 
HETATM   11  C   UNL     1       5.861  10.101  89.603  1.00  0.00     0.018 A 
HETATM   12  C   UNL     1       6.299  11.419  89.712  1.00  0.00     0.021 A 
HETATM   13  C   UNL     1       5.404  12.469  89.512  1.00  0.00     0.010 A 
BRANCH  11  14
HETATM   14  C   UNL     1       6.781   9.023  89.806  1.00  0.00    -0.061 C 
HETATM   15  C   UNL     1       7.553   8.118  89.976  1.00  0.00    -0.061 C 
BRANCH  15  16
HETATM   16  C   UNL     1       8.472   7.041  90.178  1.00  0.00     0.018 A 
HETATM   17  C   UNL     1       8.613   6.475  91.445  1.00  0.00     0.022 A 
HETATM   18  C   UNL     1       9.508   5.423  91.642  1.00  0.00     0.018 A 
HETATM   19  C   UNL     1      10.240   4.961  90.568  1.00  0.00     0.032 A 
HETATM   20  C   UNL     1      10.119   5.504  89.306  1.00  0.00     0.018 A 
HETATM   21  C   UNL     1       9.225   6.556  89.109  1.00  0.00     0.022 A 
BRANCH  19  22
HETATM   22  C   UNL     1      11.194   3.842  90.778  1.00  0.00     0.252 C 
HETATM   23  O   UNL     1      11.074   2.818  90.110  1.00  0.00    -0.268 OA
HETATM   24  N   UNL     1      12.188   4.059  91.723  1.00  0.00    -0.342 N 
HETATM   25  H   UNL     1      12.239   4.941  92.219  1.00  0.00     0.163 HD
BRANCH  24  26
HETATM   26  C   UNL     1      13.201   3.080  92.022  1.00  0.00     0.199 C 
BRANCH  26  27
HETATM   27  C   UNL     1      14.602   3.521  91.581  1.00  0.00     0.145 C 
HETATM   28  C   UNL     1      14.565   4.505  90.417  1.00  0.00     0.042 C 
BRANCH  27  29
HETATM   29  O   UNL     1      15.279   4.131  92.681  1.00  0.00    -0.393 OA
HETATM   30  H   UNL     1      16.093   3.629  92.853  1.00  0.00     0.210 HD
ENDBRANCH  27  29
ENDBRANCH  26  27
BRANCH  26  31
HETATM   31  C   UNL     1      13.153   2.803  93.521  1.00  0.00     0.220 C 
HETATM   32  O   UNL     1      13.983   2.104  94.100  1.00  0.00    -0.278 OA
HETATM   33  N   UNL     1      12.065   3.388  94.123  1.00  0.00    -0.271 NA
HETATM   34  H   UNL     1      11.317   3.893  93.663  1.00  0.00     0.127 HD
HETATM   35  H   UNL     1      10.911   2.769  94.629  1.00  0.00     0.127 HD
ENDBRANCH  26  31
ENDBRANCH  24  26
ENDBRANCH  19  22
ENDBRANCH  15  16
ENDBRANCH  11  14
ENDBRANCH   7   8
ENDBRANCH   2   7
TORSDOF 9
ENDMDL
MODEL 6
REMARK VINA RESULT:      -4.5      2.229     12.711
REMARK  9 active torsions:
REMARK  status: ('A' for Active; 'I' for Inactive)
REMARK    1  A    between atoms: O_2  and  C_17 
REMARK    2  A    between atoms: N_5  and  C_10 
REMARK    3  A    between atoms: N_6  and  C_14 
REMARK       I    between atoms: N_6  and  C_23 
REMARK       I    between atoms: N_7  and  C_22 
REMARK    4  A    between atoms: C_10  and  C_13 
REMARK    5  A    between atoms: C_14  and  C_17 
REMARK    6  A    between atoms: C_14  and  C_22 
REMARK    7  A    between atoms: C_20  and  C_25 
REMARK    8  A    between atoms: C_23  and  C_24 
REMARK    9  A    between atoms: C_28  and  C_31 
ROOT
HETATM    1  O   UNL     1       1.593  14.709  92.533  1.00  0.00    -0.388 OA
HETATM    2  N   UNL     1       2.410  12.000  92.230  1.00  0.00     0.096 N 
HETATM    3  C   UNL     1       2.506  12.960  91.121  1.00  0.00     0.299 C 
HETATM    4  C   UNL     1       1.307  12.375  93.126  1.00  0.00     0.299 C 
HETATM    5  C   UNL     1       2.683  14.372  91.674  1.00  0.00     0.198 C 
HETATM    6  C   UNL     1       1.512  13.799  93.631  1.00  0.00     0.198 C 
ENDROOT
BRANCH   2   7
HETATM    7  C   UNL     1       2.229  10.641  91.723  1.00  0.00     0.311 C 
BRANCH   7   8
HETATM    8  C   UNL     1       3.505   9.870  91.698  1.00  0.00    -0.030 A 
HETATM    9  C   UNL     1       4.586  10.286  92.477  1.00  0.00     0.010 A 
HETATM   10  C   UNL     1       5.781   9.566  92.452  1.00  0.00     0.021 A 
HETATM   11  C   UNL     1       5.893   8.431  91.650  1.00  0.00     0.018 A 
HETATM   12  C   UNL     1       4.815   8.014  90.873  1.00  0.00     0.021 A 
HETATM   13  C   UNL     1       3.620   8.734  90.896  1.00  0.00     0.010 A 
BRANCH  11  14
HETATM   14  C   UNL     1       7.118   7.692  91.627  1.00  0.00    -0.061 C 
HETATM   15  C   UNL     1       8.148   7.071  91.607  1.00  0.00    -0.061 C 
BRANCH  15  16
HETATM   16  C   UNL     1       9.373   6.334  91.584  1.00  0.00     0.018 A 
HETATM   17  C   UNL     1       9.833   5.786  90.386  1.00  0.00     0.022 A 
HETATM   18  C   UNL     1      11.029   5.069  90.364  1.00  0.00     0.018 A 
HETATM   19  C   UNL     1      11.737   4.916  91.537  1.00  0.00     0.032 A 
HETATM   20  C   UNL     1      11.303   5.447  92.734  1.00  0.00     0.018 A 
HETATM   21  C   UNL     1      10.107   6.165  92.758  1.00  0.00     0.022 A 
BRANCH  19  22
HETATM   22  C   UNL     1      13.011   4.150  91.513  1.00  0.00     0.252 C 
HETATM   23  O   UNL     1      13.489   3.816  90.432  1.00  0.00    -0.268 OA
HETATM   24  N   UNL     1      13.586   3.888  92.748  1.00  0.00    -0.342 N 
HETATM   25  H   UNL     1      13.146   4.217  93.600  1.00  0.00     0.163 HD
BRANCH  24  26
HETATM   26  C   UNL     1      14.832   3.177  92.889  1.00  0.00     0.199 C 
BRANCH  26  27
HETATM   27  C   UNL     1      15.795   3.856  93.871  1.00  0.00     0.145 C 
HETATM   28  C   UNL     1      17.193   3.250  93.830  1.00  0.00     0.042 C 
BRANCH  27  29
HETATM   29  O   UNL     1      15.884   5.248  93.567  1.00  0.00    -0.393 OA
HETATM   30  H   UNL     1      16.790   5.544  93.757  1.00  0.00     0.210 HD
ENDBRANCH  27  29
ENDBRANCH  26  27
BRANCH  26  31
HETATM   31  C   UNL     1      14.509   1.752  93.324  1.00  0.00     0.220 C 
HETATM   32  O   UNL     1      15.200   1.123  94.124  1.00  0.00    -0.278 OA
HETATM   33  N   UNL     1      13.393   1.256  92.694  1.00  0.00    -0.271 NA
HETATM   34  H   UNL     1      12.855   1.712  91.966  1.00  0.00     0.127 HD
HETATM   35  H   UNL     1      13.322   0.275  91.692  1.00  0.00     0.127 HD
ENDBRANCH  26  31
ENDBRANCH  24  26
ENDBRANCH  19  22
ENDBRANCH  15  16
ENDBRANCH  11  14
ENDBRANCH   7   8
ENDBRANCH   2   7
TORSDOF 9
ENDMDL
MODEL 7
REMARK VINA RESULT:      -4.4      2.412     12.376
REMARK  9 active torsions:
REMARK  status: ('A' for Active; 'I' for Inactive)
REMARK    1  A    between atoms: O_2  and  C_17 
REMARK    2  A    between atoms: N_5  and  C_10 
REMARK    3  A    between atoms: N_6  and  C_14 
REMARK       I    between atoms: N_6  and  C_23 
REMARK       I    between atoms: N_7  and  C_22 
REMARK    4  A    between atoms: C_10  and  C_13 
REMARK    5  A    between atoms: C_14  and  C_17 
REMARK    6  A    between atoms: C_14  and  C_22 
REMARK    7  A    between atoms: C_20  and  C_25 
REMARK    8  A    between atoms: C_23  and  C_24 
REMARK    9  A    between atoms: C_28  and  C_31 
ROOT
HETATM    1  O   UNL     1       3.763  15.499  93.119  1.00  0.00    -0.388 OA
HETATM    2  N   UNL     1       1.917  13.485  92.319  1.00  0.00     0.096 N 
HETATM    3  C   UNL     1       1.913  14.032  93.683  1.00  0.00     0.299 C 
HETATM    4  C   UNL     1       3.271  13.557  91.751  1.00  0.00     0.299 C 
HETATM    5  C   UNL     1       2.444  15.464  93.667  1.00  0.00     0.198 C 
HETATM    6  C   UNL     1       3.770  14.998  91.782  1.00  0.00     0.198 C 
ENDROOT
BRANCH   2   7
HETATM    7  C   UNL     1       1.422  12.110  92.311  1.00  0.00     0.311 C 
BRANCH   7   8
HETATM    8  C   UNL     1       2.518  11.113  92.145  1.00  0.00    -0.030 A 
HETATM    9  C   UNL     1       3.042  10.462  93.262  1.00  0.00     0.010 A 
HETATM   10  C   UNL     1       4.069   9.530  93.108  1.00  0.00     0.021 A 
HETATM   11  C   UNL     1       4.569   9.249  91.837  1.00  0.00     0.018 A 
HETATM   12  C   UNL     1       4.045   9.898  90.721  1.00  0.00     0.021 A 
HETATM   13  C   UNL     1       3.019  10.830  90.874  1.00  0.00     0.010 A 
BRANCH  11  14
HETATM   14  C   UNL     1       5.620   8.292  91.679  1.00  0.00    -0.061 C 
HETATM   15  C   UNL     1       6.503   7.487  91.547  1.00  0.00    -0.061 C 
BRANCH  15  16
HETATM   16  C   UNL     1       7.554   6.530  91.388  1.00  0.00     0.018 A 
HETATM   17  C   UNL     1       7.499   5.602  90.348  1.00  0.00     0.022 A 
HETATM   18  C   UNL     1       8.526   4.670  90.192  1.00  0.00     0.018 A 
HETATM   19  C   UNL     1       9.582   4.688  91.078  1.00  0.00     0.032 A 
HETATM   20  C   UNL     1       9.659   5.594  92.114  1.00  0.00     0.018 A 
HETATM   21  C   UNL     1       8.633   6.526  92.271  1.00  0.00     0.022 A 
BRANCH  19  22
HETATM   22  C   UNL     1      10.674   3.694  90.912  1.00  0.00     0.252 C 
HETATM   23  O   UNL     1      10.672   2.959  89.927  1.00  0.00    -0.268 OA
HETATM   24  N   UNL     1      11.650   3.692  91.900  1.00  0.00    -0.342 N 
HETATM   25  H   UNL     1      11.599   4.346  92.672  1.00  0.00     0.163 HD
BRANCH  24  26
HETATM   26  C   UNL     1      12.784   2.804  91.867  1.00  0.00     0.199 C 
BRANCH  26  27
HETATM   27  C   UNL     1      13.882   3.279  90.907  1.00  0.00     0.145 C 
HETATM   28  C   UNL     1      13.841   4.785  90.672  1.00  0.00     0.042 C 
BRANCH  27  29
HETATM   29  O   UNL     1      15.162   2.927  91.434  1.00  0.00    -0.393 OA
HETATM   30  H   UNL     1      15.460   3.646  92.016  1.00  0.00     0.210 HD
ENDBRANCH  27  29
ENDBRANCH  26  27
BRANCH  26  31
HETATM   31  C   UNL     1      13.312   2.671  93.292  1.00  0.00     0.220 C 
HETATM   32  O   UNL     1      14.071   1.770  93.643  1.00  0.00    -0.278 OA
HETATM   33  N   UNL     1      12.811   3.643  94.124  1.00  0.00    -0.271 NA
HETATM   34  H   UNL     1      12.118   4.344  93.890  1.00  0.00     0.127 HD
HETATM   35  H   UNL     1      11.866   3.507  95.153  1.00  0.00     0.127 HD
ENDBRANCH  26  31
ENDBRANCH  24  26
ENDBRANCH  19  22
ENDBRANCH  15  16
ENDBRANCH  11  14
ENDBRANCH   7   8
ENDBRANCH   2   7
TORSDOF 9
ENDMDL
MODEL 8
REMARK VINA RESULT:      -4.2      1.928     12.474
REMARK  9 active torsions:
REMARK  status: ('A' for Active; 'I' for Inactive)
REMARK    1  A    between atoms: O_2  and  C_17 
REMARK    2  A    between atoms: N_5  and  C_10 
REMARK    3  A    between atoms: N_6  and  C_14 
REMARK       I    between atoms: N_6  and  C_23 
REMARK       I    between atoms: N_7  and  C_22 
REMARK    4  A    between atoms: C_10  and  C_13 
REMARK    5  A    between atoms: C_14  and  C_17 
REMARK    6  A    between atoms: C_14  and  C_22 
REMARK    7  A    between atoms: C_20  and  C_25 
REMARK    8  A    between atoms: C_23  and  C_24 
REMARK    9  A    between atoms: C_28  and  C_31 
ROOT
HETATM    1  O   UNL     1       5.130  15.185  89.685  1.00  0.00    -0.388 OA
HETATM    2  N   UNL     1       3.158  13.476  90.822  1.00  0.00     0.096 N 
HETATM    3  C   UNL     1       4.043  14.294  91.664  1.00  0.00     0.299 C 
HETATM    4  C   UNL     1       3.833  13.139  89.561  1.00  0.00     0.299 C 
HETATM    5  C   UNL     1       4.470  15.545  90.901  1.00  0.00     0.198 C 
HETATM    6  C   UNL     1       4.266  14.416  88.848  1.00  0.00     0.198 C 
ENDROOT
BRANCH   2   7
HETATM    7  C   UNL     1       2.744  12.266  91.530  1.00  0.00     0.311 C 
BRANCH   7   8
HETATM    8  C   UNL     1       3.872  11.312  91.731  1.00  0.00    -0.030 A 
HETATM    9  C   UNL     1       4.104  10.301  90.796  1.00  0.00     0.010 A 
HETATM   10  C   UNL     1       5.157   9.407  90.984  1.00  0.00     0.021 A 
HETATM   11  C   UNL     1       5.979   9.524  92.105  1.00  0.00     0.018 A 
HETATM   12  C   UNL     1       5.749  10.532  93.038  1.00  0.00     0.021 A 
HETATM   13  C   UNL     1       4.695  11.427  92.851  1.00  0.00     0.010 A 
BRANCH  11  14
HETATM   14  C   UNL     1       7.061   8.607  92.296  1.00  0.00    -0.061 C 
HETATM   15  C   UNL     1       7.970   7.837  92.457  1.00  0.00    -0.061 C 
BRANCH  15  16
HETATM   16  C   UNL     1       9.050   6.920  92.648  1.00  0.00     0.018 A 
HETATM   17  C   UNL     1       9.217   6.287  93.880  1.00  0.00     0.022 A 
HETATM   18  C   UNL     1      10.270   5.390  94.064  1.00  0.00     0.018 A 
HETATM   19  C   UNL     1      11.131   5.147  93.015  1.00  0.00     0.032 A 
HETATM   20  C   UNL     1      10.987   5.761  91.788  1.00  0.00     0.018 A 
HETATM   21  C   UNL     1       9.935   6.658  91.602  1.00  0.00     0.022 A 
BRANCH  19  22
HETATM   22  C   UNL     1      12.253   4.194  93.213  1.00  0.00     0.252 C 
HETATM   23  O   UNL     1      12.187   3.370  94.122  1.00  0.00    -0.268 OA
HETATM   24  N   UNL     1      13.305   4.298  92.314  1.00  0.00    -0.342 N 
HETATM   25  H   UNL     1      13.279   4.988  91.572  1.00  0.00     0.163 HD
BRANCH  24  26
HETATM   26  C   UNL     1      14.454   3.430  92.360  1.00  0.00     0.199 C 
BRANCH  26  27
HETATM   27  C   UNL     1      15.445   3.815  93.466  1.00  0.00     0.145 C 
HETATM   28  C   UNL     1      16.666   2.902  93.499  1.00  0.00     0.042 C 
BRANCH  27  29
HETATM   29  O   UNL     1      15.877   5.161  93.272  1.00  0.00    -0.393 OA
HETATM   30  H   UNL     1      15.215   5.754  93.665  1.00  0.00     0.210 HD
ENDBRANCH  27  29
ENDBRANCH  26  27
BRANCH  26  31
HETATM   31  C   UNL     1      13.951   2.001  92.539  1.00  0.00     0.220 C 
HETATM   32  O   UNL     1      14.556   1.155  93.195  1.00  0.00    -0.278 OA
HETATM   33  N   UNL     1      12.781   1.774  91.857  1.00  0.00    -0.271 NA
HETATM   34  H   UNL     1      12.304   2.419  91.237  1.00  0.00     0.127 HD
HETATM   35  H   UNL     1      12.583   1.008  90.696  1.00  0.00     0.127 HD
ENDBRANCH  26  31
ENDBRANCH  24  26
ENDBRANCH  19  22
ENDBRANCH  15  16
ENDBRANCH  11  14
ENDBRANCH   7   8
ENDBRANCH   2   7
TORSDOF 9
ENDMDL
MODEL 9
REMARK VINA RESULT:      -4.0      1.906      2.125
REMARK  9 active torsions:
REMARK  status: ('A' for Active; 'I' for Inactive)
REMARK    1  A    between atoms: O_2  and  C_17 
REMARK    2  A    between atoms: N_5  and  C_10 
REMARK    3  A    between atoms: N_6  and  C_14 
REMARK       I    between atoms: N_6  and  C_23 
REMARK       I    between atoms: N_7  and  C_22 
REMARK    4  A    between atoms: C_10  and  C_13 
REMARK    5  A    between atoms: C_14  and  C_17 
REMARK    6  A    between atoms: C_14  and  C_22 
REMARK    7  A    between atoms: C_20  and  C_25 
REMARK    8  A    between atoms: C_23  and  C_24 
REMARK    9  A    between atoms: C_28  and  C_31 
ROOT
HETATM    1  O   UNL     1      16.031   2.716  91.453  1.00  0.00    -0.388 OA
HETATM    2  N   UNL     1      13.748   2.973  93.133  1.00  0.00     0.096 N 
HETATM    3  C   UNL     1      14.741   1.910  93.344  1.00  0.00     0.299 C 
HETATM    4  C   UNL     1      13.703   3.344  91.712  1.00  0.00     0.299 C 
HETATM    5  C   UNL     1      16.106   2.371  92.837  1.00  0.00     0.198 C 
HETATM    6  C   UNL     1      15.091   3.770  91.243  1.00  0.00     0.198 C 
ENDROOT
BRANCH   2   7
HETATM    7  C   UNL     1      12.430   2.549  93.601  1.00  0.00     0.311 C 
BRANCH   7   8
HETATM    8  C   UNL     1      11.379   3.576  93.346  1.00  0.00    -0.030 A 
HETATM    9  C   UNL     1      10.447   3.380  92.326  1.00  0.00     0.010 A 
HETATM   10  C   UNL     1       9.465   4.340  92.084  1.00  0.00     0.021 A 
HETATM   11  C   UNL     1       9.415   5.496  92.864  1.00  0.00     0.018 A 
HETATM   12  C   UNL     1      10.345   5.693  93.882  1.00  0.00     0.021 A 
HETATM   13  C   UNL     1      11.327   4.732  94.124  1.00  0.00     0.010 A 
BRANCH  11  14
HETATM   14  C   UNL     1       8.406   6.480  92.617  1.00  0.00    -0.061 C 
HETATM   15  C   UNL     1       7.559   7.308  92.410  1.00  0.00    -0.061 C 
BRANCH  15  16
HETATM   16  C   UNL     1       6.551   8.291  92.162  1.00  0.00     0.018 A 
HETATM   17  C   UNL     1       6.917   9.612  91.899  1.00  0.00     0.022 A 
HETATM   18  C   UNL     1       5.934  10.570  91.655  1.00  0.00     0.018 A 
HETATM   19  C   UNL     1       4.609  10.188  91.679  1.00  0.00     0.032 A 
HETATM   20  C   UNL     1       4.222   8.890  91.938  1.00  0.00     0.018 A 
HETATM   21  C   UNL     1       5.204   7.930  92.182  1.00  0.00     0.022 A 
BRANCH  19  22
HETATM   22  C   UNL     1       3.562  11.210  91.421  1.00  0.00     0.252 C 
HETATM   23  O   UNL     1       2.485  10.859  90.945  1.00  0.00    -0.268 OA
HETATM   24  N   UNL     1       3.885  12.514  91.771  1.00  0.00    -0.342 N 
HETATM   25  H   UNL     1       4.786  12.725  92.184  1.00  0.00     0.163 HD
BRANCH  24  26
HETATM   26  C   UNL     1       2.968  13.612  91.605  1.00  0.00     0.199 C 
BRANCH  26  27
HETATM   27  C   UNL     1       3.022  14.612  92.767  1.00  0.00     0.145 C 
HETATM   28  C   UNL     1       3.381  13.949  94.092  1.00  0.00     0.042 C 
BRANCH  27  29
HETATM   29  O   UNL     1       3.986  15.625  92.480  1.00  0.00    -0.393 OA
HETATM   30  H   UNL     1       4.324  15.972  93.323  1.00  0.00     0.210 HD
ENDBRANCH  27  29
ENDBRANCH  26  27
BRANCH  26  31
HETATM   31  C   UNL     1       3.286  14.288  90.276  1.00  0.00     0.220 C 
HETATM   32  O   UNL     1       4.377  14.798  90.028  1.00  0.00    -0.278 OA
HETATM   33  N   UNL     1       2.209  14.290  89.423  1.00  0.00    -0.271 NA
HETATM   34  H   UNL     1       1.272  13.960  89.628  1.00  0.00     0.127 HD
HETATM   35  H   UNL     1       1.402  15.374  89.040  1.00  0.00     0.127 HD
ENDBRANCH  26  31
ENDBRANCH  24  26
ENDBRANCH  19  22
ENDBRANCH  15  16
ENDBRANCH  11  14
ENDBRANCH   7   8
ENDBRANCH   2   7
TORSDOF 9
ENDMDL
