MODEL 1
REMARK VINA RESULT:      -7.2      0.000      0.000
REMARK  9 active torsions:
REMARK  status: ('A' for Active; 'I' for Inactive)
REMARK    1  A    between atoms: O_2  and  C_17 
REMARK    2  A    between atoms: N_5  and  C_10 
REMARK    3  A    between atoms: N_6  and  C_14 
REMARK       I    between atoms: N_6  and  C_23 
REMARK       I    between atoms: N_7  and  C_22 
REMARK    4  A    between atoms: C_10  and  C_13 
REMARK    5  A    between atoms: C_14  and  C_17 
REMARK    6  A    between atoms: C_14  and  C_22 
REMARK    7  A    between atoms: C_20  and  C_25 
REMARK    8  A    between atoms: C_23  and  C_24 
REMARK    9  A    between atoms: C_28  and  C_31 
ROOT
HETATM    1  O   UNL     1      16.212   4.020  94.119  1.00  0.00    -0.388 OA
HETATM    2  N   UNL     1      14.332   2.658  92.472  1.00  0.00     0.096 N 
HETATM    3  C   UNL     1      14.423   4.125  92.482  1.00  0.00     0.299 C 
HETATM    4  C   UNL     1      14.745   2.119  93.776  1.00  0.00     0.299 C 
HETATM    5  C   UNL     1      15.843   4.552  92.845  1.00  0.00     0.198 C 
HETATM    6  C   UNL     1      16.156   2.593  94.109  1.00  0.00     0.198 C 
ENDROOT
BRANCH   2   7
HETATM    7  C   UNL     1      12.976   2.226  92.137  1.00  0.00     0.311 C 
BRANCH   7   8
HETATM    8  C   UNL     1      12.072   3.373  91.837  1.00  0.00    -0.030 A 
HETATM    9  C   UNL     1      11.338   3.968  92.863  1.00  0.00     0.010 A 
HETATM   10  C   UNL     1      10.490   5.040  92.582  1.00  0.00     0.021 A 
HETATM   11  C   UNL     1      10.380   5.517  91.277  1.00  0.00     0.018 A 
HETATM   12  C   UNL     1      11.113   4.924  90.251  1.00  0.00     0.021 A 
HETATM   13  C   UNL     1      11.960   3.851  90.531  1.00  0.00     0.010 A 
BRANCH  11  14
HETATM   14  C   UNL     1       9.512   6.618  90.989  1.00  0.00    -0.061 C 
HETATM   15  C   UNL     1       8.783   7.543  90.748  1.00  0.00    -0.061 C 
BRANCH  15  16
HETATM   16  C   UNL     1       7.915   8.643  90.462  1.00  0.00     0.018 A 
HETATM   17  C   UNL     1       8.370   9.702  89.675  1.00  0.00     0.022 A 
HETATM   18  C   UNL     1       7.523  10.773  89.394  1.00  0.00     0.018 A 
HETATM   19  C   UNL     1       6.241  10.762  89.905  1.00  0.00     0.032 A 
HETATM   20  C   UNL     1       5.769   9.728  90.685  1.00  0.00     0.018 A 
HETATM   21  C   UNL     1       6.615   8.656  90.967  1.00  0.00     0.022 A 
BRANCH  19  22
HETATM   22  C   UNL     1       5.340  11.905  89.606  1.00  0.00     0.252 C 
HETATM   23  O   UNL     1       5.078  12.173  88.436  1.00  0.00    -0.268 OA
HETATM   24  N   UNL     1       4.833  12.583  90.706  1.00  0.00    -0.342 N 
HETATM   25  H   UNL     1       5.074  12.289  91.646  1.00  0.00     0.163 HD
BRANCH  24  26
HETATM   26  C   UNL     1       3.928  13.697  90.582  1.00  0.00     0.199 C 
BRANCH  26  27
HETATM   27  C   UNL     1       3.040  13.882  91.819  1.00  0.00     0.145 C 
HETATM   28  C   UNL     1       1.898  12.873  91.874  1.00  0.00     0.042 C 
BRANCH  27  29
HETATM   29  O   UNL     1       3.832  13.750  92.999  1.00  0.00    -0.393 OA
HETATM   30  H   UNL     1       4.073  12.814  93.102  1.00  0.00     0.210 HD
ENDBRANCH  27  29
ENDBRANCH  26  27
BRANCH  26  31
HETATM   31  C   UNL     1       4.759  14.944  90.304  1.00  0.00     0.220 C 
HETATM   32  O   UNL     1       5.264  15.625  91.196  1.00  0.00    -0.278 OA
HETATM   33  N   UNL     1       4.839  15.228  88.962  1.00  0.00    -0.271 NA
HETATM   34  H   UNL     1       4.363  14.743  88.211  1.00  0.00     0.127 HD
HETATM   35  H   UNL     1       4.222  16.271  88.254  1.00  0.00     0.127 HD
ENDBRANCH  26  31
ENDBRANCH  24  26
ENDBRANCH  19  22
ENDBRANCH  15  16
ENDBRANCH  11  14
ENDBRANCH   7   8
ENDBRANCH   2   7
TORSDOF 9
ENDMDL
