MODEL 1
REMARK VINA RESULT:      -5.5      0.000      0.000
REMARK  10 active torsions:
REMARK  status: ('A' for Active; 'I' for Inactive)
REMARK    1  A    between atoms: O_2  and  C_18 
REMARK    2  A    between atoms: O_5  and  N_8 
REMARK    3  A    between atoms: N_6  and  C_11 
REMARK    4  A    between atoms: N_7  and  C_15 
REMARK       I    between atoms: N_7  and  C_24 
REMARK       I    between atoms: N_8  and  C_23 
REMARK    5  A    between atoms: C_11  and  C_14 
REMARK    6  A    between atoms: C_15  and  C_18 
REMARK    7  A    between atoms: C_15  and  C_23 
REMARK    8  A    between atoms: C_21  and  C_26 
REMARK    9  A    between atoms: C_24  and  C_25 
REMARK   10  A    between atoms: C_29  and  C_32 
ROOT
HETATM    1  O   UNK     0      16.174   2.562  93.943  0.00  0.00    -0.388 OA
HETATM    2  N   UNK     0      13.797   3.000  92.439  0.00  0.00     0.096 N 
HETATM    3  C   UNK     0      14.216   1.649  92.837  0.00  0.00     0.299 C 
HETATM    4  C   UNK     0      14.973   3.867  92.288  0.00  0.00     0.299 C 
HETATM    5  C   UNK     0      15.035   1.719  94.124  0.00  0.00     0.198 C 
HETATM    6  C   UNK     0      15.774   3.885  93.587  0.00  0.00     0.198 C 
ENDROOT
BRANCH   2   7
HETATM    7  C   UNK     0      13.020   2.958  91.202  0.00  0.00     0.311 C 
BRANCH   7   8
HETATM    8  C   UNK     0      11.865   3.900  91.225  0.00  0.00    -0.030 A 
HETATM    9  C   UNK     0      11.196   4.153  92.423  0.00  0.00     0.010 A 
HETATM   10  C   UNK     0      10.113   5.032  92.446  0.00  0.00     0.021 A 
HETATM   11  C   UNK     0       9.701   5.659  91.270  0.00  0.00     0.018 A 
HETATM   12  C   UNK     0      10.368   5.407  90.073  0.00  0.00     0.021 A 
HETATM   13  C   UNK     0      11.450   4.527  90.050  0.00  0.00     0.010 A 
BRANCH  11  14
HETATM   14  C   UNK     0       8.592   6.562  91.293  0.00  0.00    -0.061 C 
HETATM   15  C   UNK     0       7.660   7.321  91.313  0.00  0.00    -0.061 C 
BRANCH  15  16
HETATM   16  C   UNK     0       6.553   8.224  91.337  0.00  0.00     0.018 A 
HETATM   17  C   UNK     0       5.252   7.734  91.214  0.00  0.00     0.022 A 
HETATM   18  C   UNK     0       4.170   8.615  91.240  0.00  0.00     0.018 A 
HETATM   19  C   UNK     0       4.413   9.964  91.389  0.00  0.00     0.032 A 
HETATM   20  C   UNK     0       5.689  10.474  91.512  0.00  0.00     0.018 A 
HETATM   21  C   UNK     0       6.770   9.594  91.486  0.00  0.00     0.022 A 
BRANCH  19  22
HETATM   22  C   UNK     0       3.261  10.902  91.415  0.00  0.00     0.252 C 
HETATM   23  O   UNK     0       2.144  10.489  91.110  0.00  0.00    -0.268 OA
HETATM   24  N   UNK     0       3.542  12.200  91.816  0.00  0.00    -0.341 N 
HETATM   25  H   UNK     0       4.485  12.463  92.077  0.00  0.00     0.163 HD
BRANCH  24  26
HETATM   26  C   UNK     0       2.528  13.219  91.915  0.00  0.00     0.207 C 
BRANCH  26  27
HETATM   27  C   UNK     0       2.560  13.959  93.258  0.00  0.00     0.146 C 
HETATM   28  C   UNK     0       3.794  13.617  94.085  0.00  0.00     0.042 C 
BRANCH  27  29
HETATM   29  O   UNK     0       2.532  15.368  93.027  0.00  0.00    -0.393 OA
HETATM   30  H   UNK     0       2.584  15.818  93.887  0.00  0.00     0.210 HD
ENDBRANCH  27  29
ENDBRANCH  26  27
BRANCH  26  31
HETATM   31  C   UNK     0       2.717  14.181  90.747  0.00  0.00     0.266 C 
HETATM   32  O   UNK     0       1.791  14.552  90.028  0.00  0.00    -0.269 OA
HETATM   33  N   UNK     0       4.032  14.541  90.579  0.00  0.00    -0.236 N 
HETATM   34  H   UNK     0       4.829  14.185  91.094  0.00  0.00     0.197 HD
BRANCH  33  35
HETATM   35  O   UNK     0       4.298  15.395  89.500  0.00  0.00    -0.287 OA
HETATM   36  H   UNK     0       4.902  16.028  89.923  0.00  0.00     0.244 HD
ENDBRANCH  33  35
ENDBRANCH  26  31
ENDBRANCH  24  26
ENDBRANCH  19  22
ENDBRANCH  15  16
ENDBRANCH  11  14
ENDBRANCH   7   8
ENDBRANCH   2   7
TORSDOF 10
ENDMDL
MODEL 2
REMARK VINA RESULT:      -4.5      1.948     12.744
REMARK  10 active torsions:
REMARK  status: ('A' for Active; 'I' for Inactive)
REMARK    1  A    between atoms: O_2  and  C_18 
REMARK    2  A    between atoms: O_5  and  N_8 
REMARK    3  A    between atoms: N_6  and  C_11 
REMARK    4  A    between atoms: N_7  and  C_15 
REMARK       I    between atoms: N_7  and  C_24 
REMARK       I    between atoms: N_8  and  C_23 
REMARK    5  A    between atoms: C_11  and  C_14 
REMARK    6  A    between atoms: C_15  and  C_18 
REMARK    7  A    between atoms: C_15  and  C_23 
REMARK    8  A    between atoms: C_21  and  C_26 
REMARK    9  A    between atoms: C_24  and  C_25 
REMARK   10  A    between atoms: C_29  and  C_32 
ROOT
HETATM    1  O   UNK     0       3.499  14.145  92.316  0.00  0.00    -0.388 OA
HETATM    2  N   UNK     0       3.703  13.334  89.596  0.00  0.00     0.096 N 
HETATM    3  C   UNK     0       2.972  12.529  90.584  0.00  0.00     0.299 C 
HETATM    4  C   UNK     0       4.777  14.087  90.255  0.00  0.00     0.299 C 
HETATM    5  C   UNK     0       2.430  13.433  91.689  0.00  0.00     0.198 C 
HETATM    6  C   UNK     0       4.195  14.954  91.368  0.00  0.00     0.198 C 
ENDROOT
BRANCH   2   7
HETATM    7  C   UNK     0       4.239  12.486  88.533  0.00  0.00     0.311 C 
BRANCH   7   8
HETATM    8  C   UNK     0       5.151  11.429  89.055  0.00  0.00    -0.030 A 
HETATM    9  C   UNK     0       6.504  11.711  89.252  0.00  0.00     0.010 A 
HETATM   10  C   UNK     0       7.358  10.722  89.739  0.00  0.00     0.021 A 
HETATM   11  C   UNK     0       6.860   9.453  90.031  0.00  0.00     0.018 A 
HETATM   12  C   UNK     0       5.509   9.170  89.835  0.00  0.00     0.021 A 
HETATM   13  C   UNK     0       4.654  10.159  89.348  0.00  0.00     0.010 A 
BRANCH  11  14
HETATM   14  C   UNK     0       7.736   8.439  90.532  0.00  0.00    -0.061 C 
HETATM   15  C   UNK     0       8.473   7.587  90.954  0.00  0.00    -0.061 C 
BRANCH  15  16
HETATM   16  C   UNK     0       9.348   6.575  91.454  0.00  0.00     0.018 A 
HETATM   17  C   UNK     0       9.648   6.523  92.816  0.00  0.00     0.022 A 
HETATM   18  C   UNK     0      10.501   5.533  93.304  0.00  0.00     0.018 A 
HETATM   19  C   UNK     0      11.035   4.618  92.421  0.00  0.00     0.032 A 
HETATM   20  C   UNK     0      10.756   4.648  91.071  0.00  0.00     0.018 A 
HETATM   21  C   UNK     0       9.903   5.638  90.582  0.00  0.00     0.022 A 
BRANCH  19  22
HETATM   22  C   UNK     0      11.945   3.566  92.942  0.00  0.00     0.252 C 
HETATM   23  O   UNK     0      11.537   2.410  93.031  0.00  0.00    -0.268 OA
HETATM   24  N   UNK     0      13.228   3.980  93.273  0.00  0.00    -0.341 N 
HETATM   25  H   UNK     0      13.502   4.948  93.149  0.00  0.00     0.163 HD
BRANCH  24  26
HETATM   26  C   UNK     0      14.233   3.073  93.767  0.00  0.00     0.207 C 
BRANCH  26  27
HETATM   27  C   UNK     0      14.349   1.798  92.922  0.00  0.00     0.146 C 
HETATM   28  C   UNK     0      15.159   2.014  91.649  0.00  0.00     0.042 C 
BRANCH  27  29
HETATM   29  O   UNK     0      14.966   0.769  93.695  0.00  0.00    -0.393 OA
HETATM   30  H   UNK     0      15.359   0.123  93.084  0.00  0.00     0.210 HD
ENDBRANCH  27  29
ENDBRANCH  26  27
BRANCH  26  31
HETATM   31  C   UNK     0      15.557   3.828  93.818  0.00  0.00     0.266 C 
HETATM   32  O   UNK     0      15.649   5.034  93.596  0.00  0.00    -0.269 OA
HETATM   33  N   UNK     0      16.617   2.999  94.097  0.00  0.00    -0.236 N 
HETATM   34  H   UNK     0      16.589   1.991  94.196  0.00  0.00     0.197 HD
BRANCH  33  35
HETATM   35  O   UNK     0      17.878   3.610  94.124  0.00  0.00    -0.287 OA
HETATM   36  H   UNK     0      18.350   3.066  93.470  0.00  0.00     0.244 HD
ENDBRANCH  33  35
ENDBRANCH  26  31
ENDBRANCH  24  26
ENDBRANCH  19  22
ENDBRANCH  15  16
ENDBRANCH  11  14
ENDBRANCH   7   8
ENDBRANCH   2   7
TORSDOF 10
ENDMDL
MODEL 3
REMARK VINA RESULT:      -4.4      2.560     12.533
REMARK  10 active torsions:
REMARK  status: ('A' for Active; 'I' for Inactive)
REMARK    1  A    between atoms: O_2  and  C_18 
REMARK    2  A    between atoms: O_5  and  N_8 
REMARK    3  A    between atoms: N_6  and  C_11 
REMARK    4  A    between atoms: N_7  and  C_15 
REMARK       I    between atoms: N_7  and  C_24 
REMARK       I    between atoms: N_8  and  C_23 
REMARK    5  A    between atoms: C_11  and  C_14 
REMARK    6  A    between atoms: C_15  and  C_18 
REMARK    7  A    between atoms: C_15  and  C_23 
REMARK    8  A    between atoms: C_21  and  C_26 
REMARK    9  A    between atoms: C_24  and  C_25 
REMARK   10  A    between atoms: C_29  and  C_32 
ROOT
HETATM    1  O   UNK     0       3.194  14.971  94.121  0.00  0.00    -0.388 OA
HETATM    2  N   UNK     0       2.804  14.867  91.303  0.00  0.00     0.096 N 
HETATM    3  C   UNK     0       1.860  14.232  92.233  0.00  0.00     0.299 C 
HETATM    4  C   UNK     0       4.149  14.893  91.892  0.00  0.00     0.299 C 
HETATM    5  C   UNK     0       1.876  14.969  93.569  0.00  0.00     0.198 C 
HETATM    6  C   UNK     0       4.112  15.614  93.236  0.00  0.00     0.198 C 
ENDROOT
BRANCH   2   7
HETATM    7  C   UNK     0       2.813  14.170  90.018  0.00  0.00     0.311 C 
BRANCH   7   8
HETATM    8  C   UNK     0       3.808  13.060  89.981  0.00  0.00    -0.030 A 
HETATM    9  C   UNK     0       3.558  11.877  90.676  0.00  0.00     0.010 A 
HETATM   10  C   UNK     0       4.489  10.839  90.644  0.00  0.00     0.021 A 
HETATM   11  C   UNK     0       5.669  10.984  89.914  0.00  0.00     0.018 A 
HETATM   12  C   UNK     0       5.919  12.166  89.219  0.00  0.00     0.021 A 
HETATM   13  C   UNK     0       4.989  13.204  89.252  0.00  0.00     0.010 A 
BRANCH  11  14
HETATM   14  C   UNK     0       6.623   9.919  89.879  0.00  0.00    -0.061 C 
HETATM   15  C   UNK     0       7.425   9.024  89.850  0.00  0.00    -0.061 C 
BRANCH  15  16
HETATM   16  C   UNK     0       8.378   7.959  89.814  0.00  0.00     0.018 A 
HETATM   17  C   UNK     0       9.152   7.756  88.671  0.00  0.00     0.022 A 
HETATM   18  C   UNK     0      10.084   6.719  88.636  0.00  0.00     0.018 A 
HETATM   19  C   UNK     0      10.221   5.908  89.743  0.00  0.00     0.032 A 
HETATM   20  C   UNK     0       9.468   6.088  90.885  0.00  0.00     0.018 A 
HETATM   21  C   UNK     0       8.536   7.125  90.920  0.00  0.00     0.022 A 
BRANCH  19  22
HETATM   22  C   UNK     0      11.212   4.802  89.705  0.00  0.00     0.252 C 
HETATM   23  O   UNK     0      11.447   4.244  88.636  0.00  0.00    -0.268 OA
HETATM   24  N   UNK     0      11.829   4.496  90.910  0.00  0.00    -0.341 N 
HETATM   25  H   UNK     0      11.603   5.017  91.749  0.00  0.00     0.163 HD
BRANCH  24  26
HETATM   26  C   UNK     0      12.829   3.465  91.030  0.00  0.00     0.207 C 
BRANCH  26  27
HETATM   27  C   UNK     0      14.153   3.987  91.602  0.00  0.00     0.146 C 
HETATM   28  C   UNK     0      15.274   2.957  91.513  0.00  0.00     0.042 C 
BRANCH  27  29
HETATM   29  O   UNK     0      14.547   5.164  90.897  0.00  0.00    -0.393 OA
HETATM   30  H   UNK     0      15.423   5.005  90.505  0.00  0.00     0.210 HD
ENDBRANCH  27  29
ENDBRANCH  26  27
BRANCH  26  31
HETATM   31  C   UNK     0      12.250   2.353  91.897  0.00  0.00     0.266 C 
HETATM   32  O   UNK     0      12.906   1.380  92.266  0.00  0.00    -0.269 OA
HETATM   33  N   UNK     0      10.919   2.550  92.175  0.00  0.00    -0.236 N 
HETATM   34  H   UNK     0      10.327   3.290  91.815  0.00  0.00     0.197 HD
BRANCH  33  35
HETATM   35  O   UNK     0      10.300   1.550  92.938  0.00  0.00    -0.287 OA
HETATM   36  H   UNK     0       9.846   2.094  93.604  0.00  0.00     0.244 HD
ENDBRANCH  33  35
ENDBRANCH  26  31
ENDBRANCH  24  26
ENDBRANCH  19  22
ENDBRANCH  15  16
ENDBRANCH  11  14
ENDBRANCH   7   8
ENDBRANCH   2   7
TORSDOF 10
ENDMDL
MODEL 4
REMARK VINA RESULT:      -4.2      2.105     12.636
REMARK  10 active torsions:
REMARK  status: ('A' for Active; 'I' for Inactive)
REMARK    1  A    between atoms: O_2  and  C_18 
REMARK    2  A    between atoms: O_5  and  N_8 
REMARK    3  A    between atoms: N_6  and  C_11 
REMARK    4  A    between atoms: N_7  and  C_15 
REMARK       I    between atoms: N_7  and  C_24 
REMARK       I    between atoms: N_8  and  C_23 
REMARK    5  A    between atoms: C_11  and  C_14 
REMARK    6  A    between atoms: C_15  and  C_18 
REMARK    7  A    between atoms: C_15  and  C_23 
REMARK    8  A    between atoms: C_21  and  C_26 
REMARK    9  A    between atoms: C_24  and  C_25 
REMARK   10  A    between atoms: C_29  and  C_32 
ROOT
HETATM    1  O   UNK     0       3.017  14.107  91.886  0.00  0.00    -0.388 OA
HETATM    2  N   UNK     0       4.091  13.919  89.257  0.00  0.00     0.096 N 
HETATM    3  C   UNK     0       3.020  13.023  89.714  0.00  0.00     0.299 C 
HETATM    4  C   UNK     0       4.918  14.339  90.396  0.00  0.00     0.299 C 
HETATM    5  C   UNK     0       2.188  13.718  90.789  0.00  0.00     0.198 C 
HETATM    6  C   UNK     0       4.042  15.003  91.455  0.00  0.00     0.198 C 
ENDROOT
BRANCH   2   7
HETATM    7  C   UNK     0       4.908  13.269  88.234  0.00  0.00     0.311 C 
BRANCH   7   8
HETATM    8  C   UNK     0       5.715  12.142  88.783  0.00  0.00    -0.030 A 
HETATM    9  C   UNK     0       5.075  11.041  89.352  0.00  0.00     0.010 A 
HETATM   10  C   UNK     0       5.829   9.986  89.868  0.00  0.00     0.021 A 
HETATM   11  C   UNK     0       7.221  10.033  89.812  0.00  0.00     0.018 A 
HETATM   12  C   UNK     0       7.861  11.132  89.243  0.00  0.00     0.021 A 
HETATM   13  C   UNK     0       7.108  12.187  88.728  0.00  0.00     0.010 A 
BRANCH  11  14
HETATM   14  C   UNK     0       7.994   8.951  90.340  0.00  0.00    -0.061 C 
HETATM   15  C   UNK     0       8.644   8.041  90.783  0.00  0.00    -0.061 C 
BRANCH  15  16
HETATM   16  C   UNK     0       9.416   6.960  91.308  0.00  0.00     0.018 A 
HETATM   17  C   UNK     0      10.101   6.108  90.441  0.00  0.00     0.022 A 
HETATM   18  C   UNK     0      10.856   5.053  90.954  0.00  0.00     0.018 A 
HETATM   19  C   UNK     0      10.910   4.874  92.320  0.00  0.00     0.032 A 
HETATM   20  C   UNK     0      10.242   5.701  93.198  0.00  0.00     0.018 A 
HETATM   21  C   UNK     0       9.486   6.756  92.686  0.00  0.00     0.022 A 
BRANCH  19  22
HETATM   22  C   UNK     0      11.714   3.749  92.865  0.00  0.00     0.252 C 
HETATM   23  O   UNK     0      11.185   2.649  93.011  0.00  0.00    -0.268 OA
HETATM   24  N   UNK     0      13.041   4.033  93.152  0.00  0.00    -0.341 N 
HETATM   25  H   UNK     0      13.416   4.959  92.983  0.00  0.00     0.163 HD
BRANCH  24  26
HETATM   26  C   UNK     0      13.954   3.041  93.663  0.00  0.00     0.207 C 
BRANCH  26  27
HETATM   27  C   UNK     0      14.079   1.820  92.744  0.00  0.00     0.146 C 
HETATM   28  C   UNK     0      14.805   2.140  91.443  0.00  0.00     0.042 C 
BRANCH  27  29
HETATM   29  O   UNK     0      14.783   0.781  93.424  0.00  0.00    -0.393 OA
HETATM   30  H   UNK     0      14.620   0.876  94.378  0.00  0.00     0.210 HD
ENDBRANCH  27  29
ENDBRANCH  26  27
BRANCH  26  31
HETATM   31  C   UNK     0      15.305   3.717  93.875  0.00  0.00     0.266 C 
HETATM   32  O   UNK     0      16.334   3.092  94.124  0.00  0.00    -0.269 OA
HETATM   33  N   UNK     0      15.219   5.085  93.793  0.00  0.00    -0.236 N 
HETATM   34  H   UNK     0      14.376   5.635  93.679  0.00  0.00     0.197 HD
BRANCH  33  35
HETATM   35  O   UNK     0      16.414   5.785  94.014  0.00  0.00    -0.287 OA
HETATM   36  H   UNK     0      17.023   5.045  94.177  0.00  0.00     0.244 HD
ENDBRANCH  33  35
ENDBRANCH  26  31
ENDBRANCH  24  26
ENDBRANCH  19  22
ENDBRANCH  15  16
ENDBRANCH  11  14
ENDBRANCH   7   8
ENDBRANCH   2   7
TORSDOF 10
ENDMDL
MODEL 5
REMARK VINA RESULT:      -3.5      1.627      2.115
REMARK  10 active torsions:
REMARK  status: ('A' for Active; 'I' for Inactive)
REMARK    1  A    between atoms: O_2  and  C_18 
REMARK    2  A    between atoms: O_5  and  N_8 
REMARK    3  A    between atoms: N_6  and  C_11 
REMARK    4  A    between atoms: N_7  and  C_15 
REMARK       I    between atoms: N_7  and  C_24 
REMARK       I    between atoms: N_8  and  C_23 
REMARK    5  A    between atoms: C_11  and  C_14 
REMARK    6  A    between atoms: C_15  and  C_18 
REMARK    7  A    between atoms: C_15  and  C_23 
REMARK    8  A    between atoms: C_21  and  C_26 
REMARK    9  A    between atoms: C_24  and  C_25 
REMARK   10  A    between atoms: C_29  and  C_32 
ROOT
HETATM    1  O   UNK     0      16.162   3.120  91.560  0.00  0.00    -0.388 OA
HETATM    2  N   UNK     0      13.877   2.185  92.977  0.00  0.00     0.096 N 
HETATM    3  C   UNK     0      13.756   3.153  91.879  0.00  0.00     0.299 C 
HETATM    4  C   UNK     0      15.183   2.330  93.635  0.00  0.00     0.299 C 
HETATM    5  C   UNK     0      14.907   2.965  90.894  0.00  0.00     0.198 C 
HETATM    6  C   UNK     0      16.301   2.162  92.610  0.00  0.00     0.198 C 
ENDROOT
BRANCH   2   7
HETATM    7  C   UNK     0      12.790   2.354  93.939  0.00  0.00     0.311 C 
BRANCH   7   8
HETATM    8  C   UNK     0      11.770   3.338  93.476  0.00  0.00    -0.030 A 
HETATM    9  C   UNK     0      11.644   4.567  94.123  0.00  0.00     0.010 A 
HETATM   10  C   UNK     0      10.688   5.488  93.692  0.00  0.00     0.021 A 
HETATM   11  C   UNK     0       9.862   5.179  92.612  0.00  0.00     0.018 A 
HETATM   12  C   UNK     0       9.987   3.951  91.965  0.00  0.00     0.021 A 
HETATM   13  C   UNK     0      10.941   3.030  92.396  0.00  0.00     0.010 A 
BRANCH  11  14
HETATM   14  C   UNK     0       8.883   6.124  92.169  0.00  0.00    -0.061 C 
HETATM   15  C   UNK     0       8.061   6.918  91.796  0.00  0.00    -0.061 C 
BRANCH  15  16
HETATM   16  C   UNK     0       7.083   7.860  91.353  0.00  0.00     0.018 A 
HETATM   17  C   UNK     0       5.849   7.940  92.000  0.00  0.00     0.022 A 
HETATM   18  C   UNK     0       4.894   8.861  91.569  0.00  0.00     0.018 A 
HETATM   19  C   UNK     0       5.195   9.683  90.502  0.00  0.00     0.032 A 
HETATM   20  C   UNK     0       6.406   9.624  89.846  0.00  0.00     0.018 A 
HETATM   21  C   UNK     0       7.361   8.702  90.276  0.00  0.00     0.022 A 
BRANCH  19  22
HETATM   22  C   UNK     0       4.177  10.663  90.042  0.00  0.00     0.252 C 
HETATM   23  O   UNK     0       3.166  10.256  89.476  0.00  0.00    -0.268 OA
HETATM   24  N   UNK     0       4.448  11.996  90.319  0.00  0.00    -0.341 N 
HETATM   25  H   UNK     0       5.294  12.255  90.813  0.00  0.00     0.163 HD
BRANCH  24  26
HETATM   26  C   UNK     0       3.547  13.061  89.959  0.00  0.00     0.207 C 
BRANCH  26  27
HETATM   27  C   UNK     0       3.195  13.968  91.145  0.00  0.00     0.146 C 
HETATM   28  C   UNK     0       2.801  13.177  92.387  0.00  0.00     0.042 C 
BRANCH  27  29
HETATM   29  O   UNK     0       4.313  14.798  91.459  0.00  0.00    -0.393 OA
HETATM   30  H   UNK     0       5.114  14.246  91.454  0.00  0.00     0.210 HD
ENDBRANCH  27  29
ENDBRANCH  26  27
BRANCH  26  31
HETATM   31  C   UNK     0       4.193  13.854  88.827  0.00  0.00     0.266 C 
HETATM   32  O   UNK     0       4.454  15.053  88.913  0.00  0.00    -0.269 OA
HETATM   33  N   UNK     0       4.406  13.085  87.709  0.00  0.00    -0.236 N 
HETATM   34  H   UNK     0       4.123  12.121  87.573  0.00  0.00     0.197 HD
BRANCH  33  35
HETATM   35  O   UNK     0       4.963  13.749  86.608  0.00  0.00    -0.287 OA
HETATM   36  H   UNK     0       4.223  14.330  86.362  0.00  0.00     0.244 HD
ENDBRANCH  33  35
ENDBRANCH  26  31
ENDBRANCH  24  26
ENDBRANCH  19  22
ENDBRANCH  15  16
ENDBRANCH  11  14
ENDBRANCH   7   8
ENDBRANCH   2   7
TORSDOF 10
ENDMDL
MODEL 6
REMARK VINA RESULT:      -3.0      1.986     12.719
REMARK  10 active torsions:
REMARK  status: ('A' for Active; 'I' for Inactive)
REMARK    1  A    between atoms: O_2  and  C_18 
REMARK    2  A    between atoms: O_5  and  N_8 
REMARK    3  A    between atoms: N_6  and  C_11 
REMARK    4  A    between atoms: N_7  and  C_15 
REMARK       I    between atoms: N_7  and  C_24 
REMARK       I    between atoms: N_8  and  C_23 
REMARK    5  A    between atoms: C_11  and  C_14 
REMARK    6  A    between atoms: C_15  and  C_18 
REMARK    7  A    between atoms: C_15  and  C_23 
REMARK    8  A    between atoms: C_21  and  C_26 
REMARK    9  A    between atoms: C_24  and  C_25 
REMARK   10  A    between atoms: C_29  and  C_32 
ROOT
HETATM    1  O   UNK     0       4.418  14.686  90.125  0.00  0.00    -0.388 OA
HETATM    2  N   UNK     0       3.426  12.321  88.891  0.00  0.00     0.096 N 
HETATM    3  C   UNK     0       2.672  13.010  89.947  0.00  0.00     0.299 C 
HETATM    4  C   UNK     0       4.866  12.548  89.070  0.00  0.00     0.299 C 
HETATM    5  C   UNK     0       3.013  14.498  89.940  0.00  0.00     0.198 C 
HETATM    6  C   UNK     0       5.157  14.046  89.085  0.00  0.00     0.198 C 
ENDROOT
BRANCH   2   7
HETATM    7  C   UNK     0       3.121  10.892  88.886  0.00  0.00     0.311 C 
BRANCH   7   8
HETATM    8  C   UNK     0       4.256  10.068  89.391  0.00  0.00    -0.030 A 
HETATM    9  C   UNK     0       5.040   9.338  88.497  0.00  0.00     0.010 A 
HETATM   10  C   UNK     0       6.101   8.565  88.969  0.00  0.00     0.021 A 
HETATM   11  C   UNK     0       6.378   8.524  90.335  0.00  0.00     0.018 A 
HETATM   12  C   UNK     0       5.596   9.252  91.229  0.00  0.00     0.021 A 
HETATM   13  C   UNK     0       4.535  10.025  90.757  0.00  0.00     0.010 A 
BRANCH  11  14
HETATM   14  C   UNK     0       7.468   7.733  90.819  0.00  0.00    -0.061 C 
HETATM   15  C   UNK     0       8.383   7.068  91.226  0.00  0.00    -0.061 C 
BRANCH  15  16
HETATM   16  C   UNK     0       9.471   6.279  91.710  0.00  0.00     0.018 A 
HETATM   17  C   UNK     0       9.769   6.264  93.073  0.00  0.00     0.022 A 
HETATM   18  C   UNK     0      10.830   5.492  93.547  0.00  0.00     0.018 A 
HETATM   19  C   UNK     0      11.569   4.752  92.648  0.00  0.00     0.032 A 
HETATM   20  C   UNK     0      11.296   4.750  91.296  0.00  0.00     0.018 A 
HETATM   21  C   UNK     0      10.236   5.522  90.822  0.00  0.00     0.022 A 
BRANCH  19  22
HETATM   22  C   UNK     0      12.701   3.932  93.152  0.00  0.00     0.252 C 
HETATM   23  O   UNK     0      12.525   3.201  94.124  0.00  0.00    -0.268 OA
HETATM   24  N   UNK     0      13.893   4.042  92.450  0.00  0.00    -0.341 N 
HETATM   25  H   UNK     0      13.956   4.649  91.640  0.00  0.00     0.163 HD
BRANCH  24  26
HETATM   26  C   UNK     0      15.072   3.293  92.801  0.00  0.00     0.207 C 
BRANCH  26  27
HETATM   27  C   UNK     0      15.821   3.892  93.998  0.00  0.00     0.146 C 
HETATM   28  C   UNK     0      17.243   3.357  94.124  0.00  0.00     0.042 C 
BRANCH  27  29
HETATM   29  O   UNK     0      15.870   5.313  93.869  0.00  0.00    -0.393 OA
HETATM   30  H   UNK     0      15.499   5.706  94.677  0.00  0.00     0.210 HD
ENDBRANCH  27  29
ENDBRANCH  26  27
BRANCH  26  31
HETATM   31  C   UNK     0      14.645   1.855  93.077  0.00  0.00     0.266 C 
HETATM   32  O   UNK     0      15.075   1.199  94.024  0.00  0.00    -0.269 OA
HETATM   33  N   UNK     0      13.768   1.383  92.131  0.00  0.00    -0.236 N 
HETATM   34  H   UNK     0      13.464   1.864  91.292  0.00  0.00     0.197 HD
BRANCH  33  35
HETATM   35  O   UNK     0      13.356   0.053  92.291  0.00  0.00    -0.287 OA
HETATM   36  H   UNK     0      14.203  -0.409  92.165  0.00  0.00     0.244 HD
ENDBRANCH  33  35
ENDBRANCH  26  31
ENDBRANCH  24  26
ENDBRANCH  19  22
ENDBRANCH  15  16
ENDBRANCH  11  14
ENDBRANCH   7   8
ENDBRANCH   2   7
TORSDOF 10
ENDMDL
MODEL 7
REMARK VINA RESULT:      -2.9      1.592     12.942
REMARK  10 active torsions:
REMARK  status: ('A' for Active; 'I' for Inactive)
REMARK    1  A    between atoms: O_2  and  C_18 
REMARK    2  A    between atoms: O_5  and  N_8 
REMARK    3  A    between atoms: N_6  and  C_11 
REMARK    4  A    between atoms: N_7  and  C_15 
REMARK       I    between atoms: N_7  and  C_24 
REMARK       I    between atoms: N_8  and  C_23 
REMARK    5  A    between atoms: C_11  and  C_14 
REMARK    6  A    between atoms: C_15  and  C_18 
REMARK    7  A    between atoms: C_15  and  C_23 
REMARK    8  A    between atoms: C_21  and  C_26 
REMARK    9  A    between atoms: C_24  and  C_25 
REMARK   10  A    between atoms: C_29  and  C_32 
ROOT
HETATM    1  O   UNK     0       2.438  14.721  91.142  0.00  0.00    -0.388 OA
HETATM    2  N   UNK     0       2.859  11.941  91.584  0.00  0.00     0.096 N 
HETATM    3  C   UNK     0       3.173  12.570  90.294  0.00  0.00     0.299 C 
HETATM    4  C   UNK     0       1.767  12.667  92.246  0.00  0.00     0.299 C 
HETATM    5  C   UNK     0       3.521  14.041  90.506  0.00  0.00     0.198 C 
HETATM    6  C   UNK     0       2.147  14.136  92.412  0.00  0.00     0.198 C 
ENDROOT
BRANCH   2   7
HETATM    7  C   UNK     0       2.512  10.533  91.404  0.00  0.00     0.311 C 
BRANCH   7   8
HETATM    8  C   UNK     0       3.693   9.634  91.546  0.00  0.00    -0.030 A 
HETATM    9  C   UNK     0       3.952   9.012  92.768  0.00  0.00     0.010 A 
HETATM   10  C   UNK     0       5.058   8.173  92.902  0.00  0.00     0.021 A 
HETATM   11  C   UNK     0       5.903   7.954  91.814  0.00  0.00     0.018 A 
HETATM   12  C   UNK     0       5.645   8.574  90.593  0.00  0.00     0.021 A 
HETATM   13  C   UNK     0       4.539   9.415  90.459  0.00  0.00     0.010 A 
BRANCH  11  14
HETATM   14  C   UNK     0       7.036   7.091  91.951  0.00  0.00    -0.061 C 
HETATM   15  C   UNK     0       7.988   6.366  92.067  0.00  0.00    -0.061 C 
BRANCH  15  16
HETATM   16  C   UNK     0       9.120   5.506  92.204  0.00  0.00     0.018 A 
HETATM   17  C   UNK     0       9.915   5.577  93.350  0.00  0.00     0.022 A 
HETATM   18  C   UNK     0      11.019   4.735  93.485  0.00  0.00     0.018 A 
HETATM   19  C   UNK     0      11.304   3.842  92.473  0.00  0.00     0.032 A 
HETATM   20  C   UNK     0      10.536   3.753  91.331  0.00  0.00     0.018 A 
HETATM   21  C   UNK     0       9.432   4.595  91.196  0.00  0.00     0.022 A 
BRANCH  19  22
HETATM   22  C   UNK     0      12.482   2.948  92.617  0.00  0.00     0.252 C 
HETATM   23  O   UNK     0      12.563   1.945  91.910  0.00  0.00    -0.268 OA
HETATM   24  N   UNK     0      13.434   3.340  93.547  0.00  0.00    -0.341 N 
HETATM   25  H   UNK     0      13.311   4.195  94.077  0.00  0.00     0.163 HD
BRANCH  24  26
HETATM   26  C   UNK     0      14.642   2.592  93.783  0.00  0.00     0.207 C 
BRANCH  26  27
HETATM   27  C   UNK     0      14.891   1.515  92.720  0.00  0.00     0.146 C 
HETATM   28  C   UNK     0      16.160   1.772  91.914  0.00  0.00     0.042 C 
BRANCH  27  29
HETATM   29  O   UNK     0      14.993   0.238  93.348  0.00  0.00    -0.393 OA
HETATM   30  H   UNK     0      14.498   0.269  94.185  0.00  0.00     0.210 HD
ENDBRANCH  27  29
ENDBRANCH  26  27
BRANCH  26  31
HETATM   31  C   UNK     0      15.799   3.583  93.849  0.00  0.00     0.266 C 
HETATM   32  O   UNK     0      16.951   3.251  94.124  0.00  0.00    -0.269 OA
HETATM   33  N   UNK     0      15.392   4.873  93.607  0.00  0.00    -0.236 N 
HETATM   34  H   UNK     0      14.441   5.193  93.466  0.00  0.00     0.197 HD
BRANCH  33  35
HETATM   35  O   UNK     0      16.392   5.853  93.686  0.00  0.00    -0.287 OA
HETATM   36  H   UNK     0      17.170   5.330  93.429  0.00  0.00     0.244 HD
ENDBRANCH  33  35
ENDBRANCH  26  31
ENDBRANCH  24  26
ENDBRANCH  19  22
ENDBRANCH  15  16
ENDBRANCH  11  14
ENDBRANCH   7   8
ENDBRANCH   2   7
TORSDOF 10
ENDMDL
