MODEL 1
REMARK VINA RESULT:      -7.1      0.000      0.000
REMARK  10 active torsions:
REMARK  status: ('A' for Active; 'I' for Inactive)
REMARK    1  A    between atoms: O_2  and  C_16 
REMARK    2  A    between atoms: N_5  and  C_9 
REMARK    3  A    between atoms: N_6  and  C_13 
REMARK       I    between atoms: N_6  and  C_22 
REMARK    4  A    between atoms: C_9  and  C_12 
REMARK    5  A    between atoms: C_13  and  C_16 
REMARK    6  A    between atoms: C_13  and  C_21 
REMARK    7  A    between atoms: C_19  and  C_24 
REMARK    8  A    between atoms: C_22  and  C_23 
REMARK    9  A    between atoms: C_27  and  C_30 
REMARK   10  A    between atoms: N_33  and  S_34 
ROOT
HETATM    1  C   UNL     1       5.679  10.933  89.561  1.00  0.00     0.056 A 
HETATM    2  C   UNL     1       5.145   9.727  89.962  1.00  0.00     0.005 A 
HETATM    3  C   UNL     1       7.038  11.129  89.428  1.00  0.00     0.005 A 
HETATM    4  C   UNL     1       7.386   8.840  90.118  1.00  0.00     0.042 A 
HETATM    5  C   UNL     1       6.008   8.668  90.245  1.00  0.00     0.008 A 
HETATM    6  C   UNL     1       7.902  10.070  89.710  1.00  0.00     0.008 A 
ENDROOT
BRANCH   1   7
HETATM    7  C   UNL     1       4.760  12.060  89.258  1.00  0.00     0.254 C 
HETATM    8  O   UNL     1       4.530  12.349  88.086  1.00  0.00    -0.268 OA
HETATM    9  N   UNL     1       4.200  12.700  90.355  1.00  0.00    -0.337 N 
HETATM   10  HN  UNL     1       4.417  12.390  91.295  1.00  0.00     0.164 HD
BRANCH   9  11
HETATM   11  C   UNL     1       3.271  13.794  90.225  1.00  0.00     0.172 C 
BRANCH  11  12
HETATM   12  C   UNL     1       1.973  13.567  91.009  1.00  0.00     0.136 C 
HETATM   13  C   UNL     1       2.082  12.412  91.998  1.00  0.00     0.034 C 
BRANCH  12  14
HETATM   14  O   UNL     1       1.632  14.756  91.722  1.00  0.00    -0.383 OA
HETATM   15  H   UNL     1       1.895  14.641  92.650  1.00  0.00     0.210 HD
ENDBRANCH  12  14
ENDBRANCH  11  12
BRANCH  11  16
HETATM   16  C   UNL     1       3.981  15.064  90.682  1.00  0.00     0.398 A 
HETATM   17  O   UNL     1       5.121  15.359  90.328  1.00  0.00    -0.136 OA
HETATM   18  N   UNL     1       4.951  15.603  91.819  1.00  0.00     0.142 N 
HETATM   19  HN  UNL     1       5.877  15.912  91.728  1.00  0.00     0.338 HD
BRANCH  18  20
HETATM   20  S   UNL     1       4.186  15.250  92.925  1.00  0.00     0.076 SA
HETATM   21  H   UNL     1       4.242  14.115  93.269  1.00  0.00     0.136 HD
ENDBRANCH  18  20
ENDBRANCH  11  16
ENDBRANCH   9  11
ENDBRANCH   1   7
BRANCH   4  22
HETATM   22  C   UNL     1       8.271   7.756  90.411  1.00  0.00    -0.059 C 
HETATM   23  C   UNL     1       9.014   6.843  90.657  1.00  0.00    -0.059 C 
BRANCH  23  24
HETATM   24  C   UNL     1       9.899   5.757  90.949  1.00  0.00     0.042 A 
HETATM   25  C   UNL     1      10.012   5.284  92.256  1.00  0.00     0.008 A 
HETATM   26  C   UNL     1      10.876   4.227  92.541  1.00  0.00    -0.002 A 
HETATM   27  C   UNL     1      11.624   3.642  91.519  1.00  0.00     0.011 A 
HETATM   28  C   UNL     1      11.509   4.117  90.212  1.00  0.00    -0.002 A 
HETATM   29  C   UNL     1      10.646   5.174  89.927  1.00  0.00     0.008 A 
BRANCH  27  30
HETATM   30  C   UNL     1      12.546   2.511  91.825  1.00  0.00     0.277 C 
BRANCH  30  31
HETATM   31  N   UNL     1      13.535   2.858  92.843  1.00  0.00     0.147 N 
HETATM   32  C   UNL     1      14.466   1.743  93.066  1.00  0.00     0.283 C 
HETATM   33  C   UNL     1      15.495   2.132  94.124  1.00  0.00     0.178 C 
HETATM   34  O   UNL     1      16.207   3.303  93.719  1.00  0.00    -0.350 OA
HETATM   35  C   UNL     1      15.312   4.400  93.531  1.00  0.00     0.178 C 
HETATM   36  C   UNL     1      14.278   4.066  92.460  1.00  0.00     0.283 C 
ENDBRANCH  30  31
ENDBRANCH  27  30
ENDBRANCH  23  24
ENDBRANCH   4  22
TORSDOF 10
ENDMDL
