MODEL 1
REMARK VINA RESULT:      -7.6      0.000      0.000
REMARK  9 active torsions:
REMARK  status: ('A' for Active; 'I' for Inactive)
REMARK    1  A    between atoms: N_3  and  C_6 
REMARK    2  A    between atoms: C_6  and  C_9 
REMARK    3  A    between atoms: C_14  and  C_17 
REMARK       I    between atoms: N_26  and  C_15 
REMARK    4  A    between atoms: C_15  and  C_16 
REMARK    5  A    between atoms: C_20  and  C_23 
REMARK    6  A    between atoms: OG1_24  and  CB_28 
REMARK    7  A    between atoms: N_26  and  CA_27 
REMARK    8  A    between atoms: CA_27  and  CB_28 
REMARK    9  A    between atoms: CA_27  and  C_30 
ROOT
HETATM    1  O   UNK A   0       1.914   8.178  87.987  1.00  0.00    -0.388 OA
HETATM    2  N   UNK A   0       4.690   7.583  87.774  1.00  0.00     0.096 N 
HETATM    3  C   UNK A   0       4.204   8.969  87.838  1.00  0.00     0.299 C 
HETATM    4  C   UNK A   0       3.670   6.720  87.163  1.00  0.00     0.299 C 
HETATM    5  C   UNK A   0       2.887   9.019  88.609  1.00  0.00     0.198 C 
HETATM    6  C   UNK A   0       2.366   6.823  87.948  1.00  0.00     0.198 C 
ENDROOT
BRANCH   2   7
HETATM    7  C   UNK A   0       5.946   7.510  87.030  1.00  0.00     0.311 C 
BRANCH   7   8
HETATM    8  C   UNK A   0       7.050   6.916  87.837  1.00  0.00    -0.030 A 
HETATM    9  C   UNK A   0       8.278   6.633  87.237  1.00  0.00     0.010 A 
HETATM   10  C   UNK A   0       9.310   6.075  87.990  1.00  0.00     0.021 A 
HETATM   11  C   UNK A   0       9.115   5.802  89.344  1.00  0.00     0.018 A 
HETATM   12  C   UNK A   0       7.890   6.084  89.944  1.00  0.00     0.021 A 
HETATM   13  C   UNK A   0       6.857   6.641  89.191  1.00  0.00     0.010 A 
BRANCH  11  14
HETATM   14  C   UNK A   0      10.176   5.232  90.117  1.00  0.00    -0.061 C 
HETATM   15  C   UNK A   0      11.066   4.752  90.767  1.00  0.00    -0.061 C 
BRANCH  15  16
HETATM   16  C   UNK A   0      12.126   4.182  91.538  1.00  0.00     0.018 A 
HETATM   17  C   UNK A   0      11.917   3.865  92.881  1.00  0.00     0.022 A 
HETATM   18  C   UNK A   0      12.951   3.306  93.633  1.00  0.00     0.018 A 
HETATM   19  C   UNK A   0      14.168   3.076  93.027  1.00  0.00     0.032 A 
HETATM   20  C   UNK A   0      14.399   3.381  91.702  1.00  0.00     0.018 A 
HETATM   21  C   UNK A   0      13.367   3.940  90.948  1.00  0.00     0.022 A 
BRANCH  19  22
HETATM   22  C   UNK A   0      15.269   2.483  93.829  1.00  0.00     0.252 C 
HETATM   23  O   UNK A   0      16.424   2.847  93.623  1.00  0.00    -0.268 OA
ENDBRANCH  19  22
ENDBRANCH  15  16
ENDBRANCH  11  14
ENDBRANCH   7   8
ENDBRANCH   2   7
TORSDOF 9
ENDMDL
