MODEL 1
REMARK VINA RESULT:      -7.6      0.000      0.000
REMARK  9 active torsions:
REMARK  status: ('A' for Active; 'I' for Inactive)
REMARK    1  A    between atoms: N_3  and  C_6 
REMARK    2  A    between atoms: C_6  and  C_9 
REMARK    3  A    between atoms: C_14  and  C_17 
REMARK       I    between atoms: N_26  and  C_15 
REMARK    4  A    between atoms: C_15  and  C_16 
REMARK    5  A    between atoms: C_20  and  C_23 
REMARK    6  A    between atoms: OG1_24  and  CB_28 
REMARK    7  A    between atoms: N_26  and  CA_27 
REMARK    8  A    between atoms: CA_27  and  CB_28 
REMARK    9  A    between atoms: CA_27  and  C_30 
ROOT
HETATM    1  O   UNK A   0       1.890   8.086  87.898  1.00  0.00    -0.388 OA
HETATM    2  N   UNK A   0       4.676   7.529  87.718  1.00  0.00     0.096 N 
HETATM    3  C   UNK A   0       4.171   8.907  87.785  1.00  0.00     0.299 C 
HETATM    4  C   UNK A   0       3.675   6.657  87.088  1.00  0.00     0.299 C 
HETATM    5  C   UNK A   0       2.844   8.936  88.539  1.00  0.00     0.198 C 
HETATM    6  C   UNK A   0       2.360   6.738  87.856  1.00  0.00     0.198 C 
ENDROOT
BRANCH   2   7
HETATM    7  C   UNK A   0       5.943   7.476  86.990  1.00  0.00     0.311 C 
BRANCH   7   8
HETATM    8  C   UNK A   0       7.042   6.887  87.806  1.00  0.00    -0.030 A 
HETATM    9  C   UNK A   0       8.283   6.631  87.222  1.00  0.00     0.010 A 
HETATM   10  C   UNK A   0       9.312   6.078  87.984  1.00  0.00     0.021 A 
HETATM   11  C   UNK A   0       9.100   5.784  89.330  1.00  0.00     0.018 A 
HETATM   12  C   UNK A   0       7.862   6.040  89.915  1.00  0.00     0.021 A 
HETATM   13  C   UNK A   0       6.833   6.593  89.154  1.00  0.00     0.010 A 
BRANCH  11  14
HETATM   14  C   UNK A   0      10.157   5.219  90.113  1.00  0.00    -0.061 C 
HETATM   15  C   UNK A   0      11.044   4.743  90.770  1.00  0.00    -0.061 C 
BRANCH  15  16
HETATM   16  C   UNK A   0      12.100   4.178  91.551  1.00  0.00     0.018 A 
HETATM   17  C   UNK A   0      13.359   3.982  90.982  1.00  0.00     0.022 A 
HETATM   18  C   UNK A   0      14.390   3.434  91.745  1.00  0.00     0.018 A 
HETATM   19  C   UNK A   0      14.140   3.094  93.058  1.00  0.00     0.032 A 
HETATM   20  C   UNK A   0      12.904   3.277  93.643  1.00  0.00     0.018 A 
HETATM   21  C   UNK A   0      11.872   3.825  92.881  1.00  0.00     0.022 A 
BRANCH  19  22
HETATM   22  C   UNK A   0      15.237   2.508  93.869  1.00  0.00     0.252 C 
HETATM   23  O   UNK A   0      16.403   2.734  93.554  1.00  0.00    -0.268 OA
ENDBRANCH  19  22
ENDBRANCH  15  16
ENDBRANCH  11  14
ENDBRANCH   7   8
ENDBRANCH   2   7
TORSDOF 9
ENDMDL
