MODEL 1
REMARK VINA RESULT:      -7.5      0.000      0.000
REMARK  9 active torsions:
REMARK  status: ('A' for Active; 'I' for Inactive)
REMARK    1  A    between atoms: N_3  and  C_6 
REMARK    2  A    between atoms: C_6  and  C_9 
REMARK    3  A    between atoms: C_14  and  C_17 
REMARK       I    between atoms: N_26  and  C_15 
REMARK    4  A    between atoms: C_15  and  C_16 
REMARK    5  A    between atoms: C_20  and  C_23 
REMARK    6  A    between atoms: OG1_24  and  CB_28 
REMARK    7  A    between atoms: N_26  and  CA_27 
REMARK    8  A    between atoms: CA_27  and  CB_28 
REMARK    9  A    between atoms: CA_27  and  C_30 
ROOT
HETATM    1  O   UNK A   0       1.886   8.118  87.825  1.00  0.00    -0.388 OA
HETATM    2  N   UNK A   0       4.676   7.577  87.671  1.00  0.00     0.096 N 
HETATM    3  C   UNK A   0       4.165   8.951  87.769  1.00  0.00     0.299 C 
HETATM    4  C   UNK A   0       3.689   6.719  87.003  1.00  0.00     0.299 C 
HETATM    5  C   UNK A   0       2.826   8.953  88.503  1.00  0.00     0.198 C 
HETATM    6  C   UNK A   0       2.362   6.774  87.754  1.00  0.00     0.198 C 
ENDROOT
BRANCH   2   7
HETATM    7  C   UNK A   0       5.954   7.550  86.962  1.00  0.00     0.311 C 
BRANCH   7   8
HETATM    8  C   UNK A   0       7.045   6.947  87.779  1.00  0.00    -0.030 A 
HETATM    9  C   UNK A   0       8.302   6.730  87.213  1.00  0.00     0.010 A 
HETATM   10  C   UNK A   0       9.323   6.164  87.976  1.00  0.00     0.021 A 
HETATM   11  C   UNK A   0       9.087   5.818  89.306  1.00  0.00     0.018 A 
HETATM   12  C   UNK A   0       7.833   6.035  89.873  1.00  0.00     0.021 A 
HETATM   13  C   UNK A   0       6.812   6.600  89.110  1.00  0.00     0.010 A 
BRANCH  11  14
HETATM   14  C   UNK A   0      10.135   5.239  90.090  1.00  0.00    -0.061 C 
HETATM   15  C   UNK A   0      11.015   4.753  90.749  1.00  0.00    -0.061 C 
BRANCH  15  16
HETATM   16  C   UNK A   0      12.062   4.174  91.531  1.00  0.00     0.018 A 
HETATM   17  C   UNK A   0      11.825   3.822  92.861  1.00  0.00     0.022 A 
HETATM   18  C   UNK A   0      12.846   3.255  93.623  1.00  0.00     0.018 A 
HETATM   19  C   UNK A   0      14.079   3.052  93.040  1.00  0.00     0.032 A 
HETATM   20  C   UNK A   0      14.339   3.391  91.729  1.00  0.00     0.018 A 
HETATM   21  C   UNK A   0      13.319   3.958  90.965  1.00  0.00     0.022 A 
BRANCH  19  22
HETATM   22  C   UNK A   0      15.167   2.449  93.854  1.00  0.00     0.252 C 
HETATM   23  O   UNK A   0      16.314   2.873  93.730  1.00  0.00    -0.268 OA
ENDBRANCH  19  22
ENDBRANCH  15  16
ENDBRANCH  11  14
ENDBRANCH   7   8
ENDBRANCH   2   7
TORSDOF 9
ENDMDL
MODEL 2
REMARK VINA RESULT:      -7.5      0.133      1.431
REMARK  9 active torsions:
REMARK  status: ('A' for Active; 'I' for Inactive)
REMARK    1  A    between atoms: N_3  and  C_6 
REMARK    2  A    between atoms: C_6  and  C_9 
REMARK    3  A    between atoms: C_14  and  C_17 
REMARK       I    between atoms: N_26  and  C_15 
REMARK    4  A    between atoms: C_15  and  C_16 
REMARK    5  A    between atoms: C_20  and  C_23 
REMARK    6  A    between atoms: OG1_24  and  CB_28 
REMARK    7  A    between atoms: N_26  and  CA_27 
REMARK    8  A    between atoms: CA_27  and  CB_28 
REMARK    9  A    between atoms: CA_27  and  C_30 
ROOT
HETATM    1  O   UNK A   0       1.880   8.368  87.954  1.00  0.00    -0.388 OA
HETATM    2  N   UNK A   0       4.621   7.638  87.716  1.00  0.00     0.096 N 
HETATM    3  C   UNK A   0       4.207   9.044  87.825  1.00  0.00     0.299 C 
HETATM    4  C   UNK A   0       3.557   6.848  87.081  1.00  0.00     0.299 C 
HETATM    5  C   UNK A   0       2.895   9.138  88.600  1.00  0.00     0.198 C 
HETATM    6  C   UNK A   0       2.261   6.994  87.872  1.00  0.00     0.198 C 
ENDROOT
BRANCH   2   7
HETATM    7  C   UNK A   0       5.871   7.523  86.968  1.00  0.00     0.311 C 
BRANCH   7   8
HETATM    8  C   UNK A   0       6.968   6.928  87.783  1.00  0.00    -0.030 A 
HETATM    9  C   UNK A   0       6.741   6.592  89.118  1.00  0.00     0.010 A 
HETATM   10  C   UNK A   0       7.767   6.037  89.882  1.00  0.00     0.021 A 
HETATM   11  C   UNK A   0       9.020   5.816  89.310  1.00  0.00     0.018 A 
HETATM   12  C   UNK A   0       9.248   6.150  87.976  1.00  0.00     0.021 A 
HETATM   13  C   UNK A   0       8.222   6.706  87.212  1.00  0.00     0.010 A 
BRANCH  11  14
HETATM   14  C   UNK A   0      10.072   5.244  90.093  1.00  0.00    -0.061 C 
HETATM   15  C   UNK A   0      10.956   4.764  90.751  1.00  0.00    -0.061 C 
BRANCH  15  16
HETATM   16  C   UNK A   0      12.007   4.194  91.534  1.00  0.00     0.018 A 
HETATM   17  C   UNK A   0      13.261   3.974  90.963  1.00  0.00     0.022 A 
HETATM   18  C   UNK A   0      14.287   3.420  91.728  1.00  0.00     0.018 A 
HETATM   19  C   UNK A   0      14.038   3.099  93.046  1.00  0.00     0.032 A 
HETATM   20  C   UNK A   0      12.807   3.306  93.634  1.00  0.00     0.018 A 
HETATM   21  C   UNK A   0      11.780   3.860  92.869  1.00  0.00     0.022 A 
BRANCH  19  22
HETATM   22  C   UNK A   0      15.131   2.507  93.860  1.00  0.00     0.252 C 
HETATM   23  O   UNK A   0      16.227   3.060  93.885  1.00  0.00    -0.268 OA
ENDBRANCH  19  22
ENDBRANCH  15  16
ENDBRANCH  11  14
ENDBRANCH   7   8
ENDBRANCH   2   7
TORSDOF 9
ENDMDL
MODEL 3
REMARK VINA RESULT:      -6.9      1.550      2.327
REMARK  9 active torsions:
REMARK  status: ('A' for Active; 'I' for Inactive)
REMARK    1  A    between atoms: N_3  and  C_6 
REMARK    2  A    between atoms: C_6  and  C_9 
REMARK    3  A    between atoms: C_14  and  C_17 
REMARK       I    between atoms: N_26  and  C_15 
REMARK    4  A    between atoms: C_15  and  C_16 
REMARK    5  A    between atoms: C_20  and  C_23 
REMARK    6  A    between atoms: OG1_24  and  CB_28 
REMARK    7  A    between atoms: N_26  and  CA_27 
REMARK    8  A    between atoms: CA_27  and  CB_28 
REMARK    9  A    between atoms: CA_27  and  C_30 
ROOT
HETATM    1  O   UNK A   0       2.757  11.184  89.975  1.00  0.00    -0.388 OA
HETATM    2  N   UNK A   0       4.617   9.316  88.903  1.00  0.00     0.096 N 
HETATM    3  C   UNK A   0       3.800  10.172  88.032  1.00  0.00     0.299 C 
HETATM    4  C   UNK A   0       3.908   9.057  90.164  1.00  0.00     0.299 C 
HETATM    5  C   UNK A   0       3.452  11.468  88.760  1.00  0.00     0.198 C 
HETATM    6  C   UNK A   0       3.557  10.378  90.841  1.00  0.00     0.198 C 
ENDROOT
BRANCH   2   7
HETATM    7  C   UNK A   0       4.954   8.063  88.230  1.00  0.00     0.311 C 
BRANCH   7   8
HETATM    8  C   UNK A   0       6.158   7.408  88.816  1.00  0.00    -0.030 A 
HETATM    9  C   UNK A   0       6.026   6.211  89.521  1.00  0.00     0.010 A 
HETATM   10  C   UNK A   0       7.152   5.599  90.072  1.00  0.00     0.021 A 
HETATM   11  C   UNK A   0       8.409   6.183  89.916  1.00  0.00     0.018 A 
HETATM   12  C   UNK A   0       8.541   7.379  89.212  1.00  0.00     0.021 A 
HETATM   13  C   UNK A   0       7.416   7.991  88.662  1.00  0.00     0.010 A 
BRANCH  11  14
HETATM   14  C   UNK A   0       9.563   5.554  90.480  1.00  0.00    -0.061 C 
HETATM   15  C   UNK A   0      10.534   5.026  90.953  1.00  0.00    -0.061 C 
BRANCH  15  16
HETATM   16  C   UNK A   0      11.688   4.398  91.517  1.00  0.00     0.018 A 
HETATM   17  C   UNK A   0      12.849   4.261  90.755  1.00  0.00     0.022 A 
HETATM   18  C   UNK A   0      13.976   3.651  91.306  1.00  0.00     0.018 A 
HETATM   19  C   UNK A   0      13.917   3.192  92.606  1.00  0.00     0.032 A 
HETATM   20  C   UNK A   0      12.781   3.315  93.379  1.00  0.00     0.018 A 
HETATM   21  C   UNK A   0      11.654   3.925  92.829  1.00  0.00     0.022 A 
BRANCH  19  22
HETATM   22  C   UNK A   0      15.117   2.540  93.192  1.00  0.00     0.252 C 
HETATM   23  O   UNK A   0      16.065   3.236  93.544  1.00  0.00    -0.268 OA
ENDBRANCH  19  22
ENDBRANCH  15  16
ENDBRANCH  11  14
ENDBRANCH   7   8
ENDBRANCH   2   7
TORSDOF 9
ENDMDL
MODEL 4
REMARK VINA RESULT:      -6.9      1.200      2.032
REMARK  9 active torsions:
REMARK  status: ('A' for Active; 'I' for Inactive)
REMARK    1  A    between atoms: N_3  and  C_6 
REMARK    2  A    between atoms: C_6  and  C_9 
REMARK    3  A    between atoms: C_14  and  C_17 
REMARK       I    between atoms: N_26  and  C_15 
REMARK    4  A    between atoms: C_15  and  C_16 
REMARK    5  A    between atoms: C_20  and  C_23 
REMARK    6  A    between atoms: OG1_24  and  CB_28 
REMARK    7  A    between atoms: N_26  and  CA_27 
REMARK    8  A    between atoms: CA_27  and  CB_28 
REMARK    9  A    between atoms: CA_27  and  C_30 
ROOT
HETATM    1  O   UNK A   0       4.003  10.805  88.998  1.00  0.00    -0.388 OA
HETATM    2  N   UNK A   0       5.126   8.226  88.563  1.00  0.00     0.096 N 
HETATM    3  C   UNK A   0       5.970   9.390  88.866  1.00  0.00     0.299 C 
HETATM    4  C   UNK A   0       3.901   8.657  87.875  1.00  0.00     0.299 C 
HETATM    5  C   UNK A   0       5.181  10.399  89.697  1.00  0.00     0.198 C 
HETATM    6  C   UNK A   0       3.162   9.683  88.728  1.00  0.00     0.198 C 
ENDROOT
BRANCH   2   7
HETATM    7  C   UNK A   0       5.859   7.250  87.758  1.00  0.00     0.311 C 
BRANCH   7   8
HETATM    8  C   UNK A   0       7.021   6.670  88.489  1.00  0.00    -0.030 A 
HETATM    9  C   UNK A   0       6.823   6.011  89.703  1.00  0.00     0.010 A 
HETATM   10  C   UNK A   0       7.910   5.469  90.389  1.00  0.00     0.021 A 
HETATM   11  C   UNK A   0       9.195   5.585  89.859  1.00  0.00     0.018 A 
HETATM   12  C   UNK A   0       9.394   6.242  88.647  1.00  0.00     0.021 A 
HETATM   13  C   UNK A   0       8.307   6.784  87.961  1.00  0.00     0.010 A 
BRANCH  11  14
HETATM   14  C   UNK A   0      10.309   5.027  90.561  1.00  0.00    -0.061 C 
HETATM   15  C   UNK A   0      11.247   4.558  91.151  1.00  0.00    -0.061 C 
BRANCH  15  16
HETATM   16  C   UNK A   0      12.361   4.002  91.852  1.00  0.00     0.018 A 
HETATM   17  C   UNK A   0      13.569   3.792  91.186  1.00  0.00     0.022 A 
HETATM   18  C   UNK A   0      14.657   3.252  91.871  1.00  0.00     0.018 A 
HETATM   19  C   UNK A   0      14.514   2.934  93.206  1.00  0.00     0.032 A 
HETATM   20  C   UNK A   0      13.331   3.132  93.886  1.00  0.00     0.018 A 
HETATM   21  C   UNK A   0      12.242   3.672  93.202  1.00  0.00     0.022 A 
BRANCH  19  22
HETATM   22  C   UNK A   0      15.673   2.357  93.935  1.00  0.00     0.252 C 
HETATM   23  O   UNK A   0      16.795   2.814  93.735  1.00  0.00    -0.268 OA
ENDBRANCH  19  22
ENDBRANCH  15  16
ENDBRANCH  11  14
ENDBRANCH   7   8
ENDBRANCH   2   7
TORSDOF 9
ENDMDL
MODEL 5
REMARK VINA RESULT:      -6.6      3.939     10.406
REMARK  9 active torsions:
REMARK  status: ('A' for Active; 'I' for Inactive)
REMARK    1  A    between atoms: N_3  and  C_6 
REMARK    2  A    between atoms: C_6  and  C_9 
REMARK    3  A    between atoms: C_14  and  C_17 
REMARK       I    between atoms: N_26  and  C_15 
REMARK    4  A    between atoms: C_15  and  C_16 
REMARK    5  A    between atoms: C_20  and  C_23 
REMARK    6  A    between atoms: OG1_24  and  CB_28 
REMARK    7  A    between atoms: N_26  and  CA_27 
REMARK    8  A    between atoms: CA_27  and  CB_28 
REMARK    9  A    between atoms: CA_27  and  C_30 
ROOT
HETATM    1  O   UNK A   0      14.595   3.354  92.115  1.00  0.00    -0.388 OA
HETATM    2  N   UNK A   0      11.871   4.163  92.280  1.00  0.00     0.096 N 
HETATM    3  C   UNK A   0      12.475   3.287  93.293  1.00  0.00     0.299 C 
HETATM    4  C   UNK A   0      12.539   3.970  90.985  1.00  0.00     0.299 C 
HETATM    5  C   UNK A   0      13.974   3.558  93.385  1.00  0.00     0.198 C 
HETATM    6  C   UNK A   0      14.035   4.225  91.131  1.00  0.00     0.198 C 
ENDROOT
BRANCH   2   7
HETATM    7  C   UNK A   0      10.435   3.913  92.167  1.00  0.00     0.311 C 
BRANCH   7   8
HETATM    8  C   UNK A   0       9.662   5.156  91.890  1.00  0.00    -0.030 A 
HETATM    9  C   UNK A   0       8.755   5.191  90.830  1.00  0.00     0.010 A 
HETATM   10  C   UNK A   0       8.032   6.355  90.568  1.00  0.00     0.021 A 
HETATM   11  C   UNK A   0       8.215   7.482  91.368  1.00  0.00     0.018 A 
HETATM   12  C   UNK A   0       9.119   7.449  92.427  1.00  0.00     0.021 A 
HETATM   13  C   UNK A   0       9.843   6.285  92.689  1.00  0.00     0.010 A 
BRANCH  11  14
HETATM   14  C   UNK A   0       7.471   8.675  91.101  1.00  0.00    -0.061 C 
HETATM   15  C   UNK A   0       6.847   9.678  90.875  1.00  0.00    -0.061 C 
BRANCH  15  16
HETATM   16  C   UNK A   0       6.104  10.869  90.608  1.00  0.00     0.018 A 
HETATM   17  C   UNK A   0       5.231  11.377  91.571  1.00  0.00     0.022 A 
HETATM   18  C   UNK A   0       4.508  12.541  91.310  1.00  0.00     0.018 A 
HETATM   19  C   UNK A   0       4.674  13.171  90.095  1.00  0.00     0.032 A 
HETATM   20  C   UNK A   0       5.530  12.689  89.127  1.00  0.00     0.018 A 
HETATM   21  C   UNK A   0       6.254  11.525  89.386  1.00  0.00     0.022 A 
BRANCH  19  22
HETATM   22  C   UNK A   0       3.902  14.410  89.817  1.00  0.00     0.252 C 
HETATM   23  O   UNK A   0       4.493  15.486  89.767  1.00  0.00    -0.268 OA
ENDBRANCH  19  22
ENDBRANCH  15  16
ENDBRANCH  11  14
ENDBRANCH   7   8
ENDBRANCH   2   7
TORSDOF 9
ENDMDL
MODEL 6
REMARK VINA RESULT:      -6.6      3.936     10.451
REMARK  9 active torsions:
REMARK  status: ('A' for Active; 'I' for Inactive)
REMARK    1  A    between atoms: N_3  and  C_6 
REMARK    2  A    between atoms: C_6  and  C_9 
REMARK    3  A    between atoms: C_14  and  C_17 
REMARK       I    between atoms: N_26  and  C_15 
REMARK    4  A    between atoms: C_15  and  C_16 
REMARK    5  A    between atoms: C_20  and  C_23 
REMARK    6  A    between atoms: OG1_24  and  CB_28 
REMARK    7  A    between atoms: N_26  and  CA_27 
REMARK    8  A    between atoms: CA_27  and  CB_28 
REMARK    9  A    between atoms: CA_27  and  C_30 
ROOT
HETATM    1  O   UNK A   0      14.505   3.285  92.131  1.00  0.00    -0.388 OA
HETATM    2  N   UNK A   0      11.793   4.143  92.246  1.00  0.00     0.096 N 
HETATM    3  C   UNK A   0      12.368   3.274  93.282  1.00  0.00     0.299 C 
HETATM    4  C   UNK A   0      12.474   3.916  90.964  1.00  0.00     0.299 C 
HETATM    5  C   UNK A   0      13.870   3.522  93.390  1.00  0.00     0.198 C 
HETATM    6  C   UNK A   0      13.973   4.148  91.125  1.00  0.00     0.198 C 
ENDROOT
BRANCH   2   7
HETATM    7  C   UNK A   0      10.355   3.914  92.118  1.00  0.00     0.311 C 
BRANCH   7   8
HETATM    8  C   UNK A   0       9.605   5.168  91.821  1.00  0.00    -0.030 A 
HETATM    9  C   UNK A   0       9.870   6.328  92.550  1.00  0.00     0.010 A 
HETATM   10  C   UNK A   0       9.167   7.500  92.274  1.00  0.00     0.021 A 
HETATM   11  C   UNK A   0       8.201   7.513  91.268  1.00  0.00     0.018 A 
HETATM   12  C   UNK A   0       7.936   6.356  90.540  1.00  0.00     0.021 A 
HETATM   13  C   UNK A   0       8.638   5.182  90.815  1.00  0.00     0.010 A 
BRANCH  11  14
HETATM   14  C   UNK A   0       7.482   8.717  90.984  1.00  0.00    -0.061 C 
HETATM   15  C   UNK A   0       6.878   9.729  90.745  1.00  0.00    -0.061 C 
BRANCH  15  16
HETATM   16  C   UNK A   0       6.160  10.932  90.461  1.00  0.00     0.018 A 
HETATM   17  C   UNK A   0       6.362  11.594  89.249  1.00  0.00     0.022 A 
HETATM   18  C   UNK A   0       5.659  12.766  88.971  1.00  0.00     0.018 A 
HETATM   19  C   UNK A   0       4.771  13.249  89.908  1.00  0.00     0.032 A 
HETATM   20  C   UNK A   0       4.554  12.614  91.113  1.00  0.00     0.018 A 
HETATM   21  C   UNK A   0       5.256  11.442  91.392  1.00  0.00     0.022 A 
BRANCH  19  22
HETATM   22  C   UNK A   0       4.024  14.499  89.611  1.00  0.00     0.252 C 
HETATM   23  O   UNK A   0       4.607  15.578  89.683  1.00  0.00    -0.268 OA
ENDBRANCH  19  22
ENDBRANCH  15  16
ENDBRANCH  11  14
ENDBRANCH   7   8
ENDBRANCH   2   7
TORSDOF 9
ENDMDL
MODEL 7
REMARK VINA RESULT:      -6.6      1.863      2.410
REMARK  9 active torsions:
REMARK  status: ('A' for Active; 'I' for Inactive)
REMARK    1  A    between atoms: N_3  and  C_6 
REMARK    2  A    between atoms: C_6  and  C_9 
REMARK    3  A    between atoms: C_14  and  C_17 
REMARK       I    between atoms: N_26  and  C_15 
REMARK    4  A    between atoms: C_15  and  C_16 
REMARK    5  A    between atoms: C_20  and  C_23 
REMARK    6  A    between atoms: OG1_24  and  CB_28 
REMARK    7  A    between atoms: N_26  and  CA_27 
REMARK    8  A    between atoms: CA_27  and  CB_28 
REMARK    9  A    between atoms: CA_27  and  C_30 
ROOT
HETATM    1  O   UNK A   0       4.358  12.321  89.372  1.00  0.00    -0.388 OA
HETATM    2  N   UNK A   0       4.984   9.608  88.780  1.00  0.00     0.096 N 
HETATM    3  C   UNK A   0       3.745  10.234  88.296  1.00  0.00     0.299 C 
HETATM    4  C   UNK A   0       5.407  10.238  90.038  1.00  0.00     0.299 C 
HETATM    5  C   UNK A   0       3.955  11.737  88.131  1.00  0.00     0.198 C 
HETATM    6  C   UNK A   0       5.578  11.740  89.833  1.00  0.00     0.198 C 
ENDROOT
BRANCH   2   7
HETATM    7  C   UNK A   0       4.802   8.168  88.955  1.00  0.00     0.311 C 
BRANCH   7   8
HETATM    8  C   UNK A   0       6.040   7.495  89.440  1.00  0.00    -0.030 A 
HETATM    9  C   UNK A   0       7.195   7.513  88.658  1.00  0.00     0.010 A 
HETATM   10  C   UNK A   0       8.354   6.881  89.110  1.00  0.00     0.021 A 
HETATM   11  C   UNK A   0       8.357   6.233  90.345  1.00  0.00     0.018 A 
HETATM   12  C   UNK A   0       7.204   6.215  91.127  1.00  0.00     0.021 A 
HETATM   13  C   UNK A   0       6.045   6.846  90.675  1.00  0.00     0.010 A 
BRANCH  11  14
HETATM   14  C   UNK A   0       9.546   5.587  90.809  1.00  0.00    -0.061 C 
HETATM   15  C   UNK A   0      10.545   5.044  91.200  1.00  0.00    -0.061 C 
BRANCH  15  16
HETATM   16  C   UNK A   0      11.733   4.398  91.665  1.00  0.00     0.018 A 
HETATM   17  C   UNK A   0      11.772   3.852  92.949  1.00  0.00     0.022 A 
HETATM   18  C   UNK A   0      12.930   3.220  93.401  1.00  0.00     0.018 A 
HETATM   19  C   UNK A   0      14.021   3.146  92.561  1.00  0.00     0.032 A 
HETATM   20  C   UNK A   0      14.007   3.678  91.288  1.00  0.00     0.018 A 
HETATM   21  C   UNK A   0      12.850   4.311  90.835  1.00  0.00     0.022 A 
BRANCH  19  22
HETATM   22  C   UNK A   0      15.255   2.474  93.044  1.00  0.00     0.252 C 
HETATM   23  O   UNK A   0      16.135   3.146  93.574  1.00  0.00    -0.268 OA
ENDBRANCH  19  22
ENDBRANCH  15  16
ENDBRANCH  11  14
ENDBRANCH   7   8
ENDBRANCH   2   7
TORSDOF 9
ENDMDL
MODEL 8
REMARK VINA RESULT:      -6.4      4.825     10.232
REMARK  9 active torsions:
REMARK  status: ('A' for Active; 'I' for Inactive)
REMARK    1  A    between atoms: N_3  and  C_6 
REMARK    2  A    between atoms: C_6  and  C_9 
REMARK    3  A    between atoms: C_14  and  C_17 
REMARK       I    between atoms: N_26  and  C_15 
REMARK    4  A    between atoms: C_15  and  C_16 
REMARK    5  A    between atoms: C_20  and  C_23 
REMARK    6  A    between atoms: OG1_24  and  CB_28 
REMARK    7  A    between atoms: N_26  and  CA_27 
REMARK    8  A    between atoms: CA_27  and  CB_28 
REMARK    9  A    between atoms: CA_27  and  C_30 
ROOT
HETATM    1  O   UNK A   0      11.237   3.937  88.869  1.00  0.00    -0.388 OA
HETATM    2  N   UNK A   0       9.480   5.868  87.737  1.00  0.00     0.096 N 
HETATM    3  C   UNK A   0      10.214   4.912  86.897  1.00  0.00     0.299 C 
HETATM    4  C   UNK A   0      10.238   6.145  88.965  1.00  0.00     0.299 C 
HETATM    5  C   UNK A   0      10.493   3.636  87.688  1.00  0.00     0.198 C 
HETATM    6  C   UNK A   0      10.516   4.841  89.707  1.00  0.00     0.198 C 
ENDROOT
BRANCH   2   7
HETATM    7  C   UNK A   0       9.211   7.103  87.003  1.00  0.00     0.311 C 
BRANCH   7   8
HETATM    8  C   UNK A   0       8.404   8.072  87.797  1.00  0.00    -0.030 A 
HETATM    9  C   UNK A   0       8.975   9.273  88.219  1.00  0.00     0.010 A 
HETATM   10  C   UNK A   0       8.221  10.180  88.965  1.00  0.00     0.021 A 
HETATM   11  C   UNK A   0       6.896   9.886  89.285  1.00  0.00     0.018 A 
HETATM   12  C   UNK A   0       6.325   8.687  88.864  1.00  0.00     0.021 A 
HETATM   13  C   UNK A   0       7.078   7.780  88.120  1.00  0.00     0.010 A 
BRANCH  11  14
HETATM   14  C   UNK A   0       6.123  10.817  90.048  1.00  0.00    -0.061 C 
HETATM   15  C   UNK A   0       5.473  11.600  90.690  1.00  0.00    -0.061 C 
BRANCH  15  16
HETATM   16  C   UNK A   0       4.701  12.531  91.452  1.00  0.00     0.018 A 
HETATM   17  C   UNK A   0       4.429  12.274  92.796  1.00  0.00     0.022 A 
HETATM   18  C   UNK A   0       3.678  13.184  93.540  1.00  0.00     0.018 A 
HETATM   19  C   UNK A   0       3.217  14.329  92.924  1.00  0.00     0.032 A 
HETATM   20  C   UNK A   0       3.472  14.605  91.597  1.00  0.00     0.018 A 
HETATM   21  C   UNK A   0       4.223  13.696  90.852  1.00  0.00     0.022 A 
BRANCH  19  22
HETATM   22  C   UNK A   0       2.415  15.297  93.717  1.00  0.00     0.252 C 
HETATM   23  O   UNK A   0       1.266  15.553  93.365  1.00  0.00    -0.268 OA
ENDBRANCH  19  22
ENDBRANCH  15  16
ENDBRANCH  11  14
ENDBRANCH   7   8
ENDBRANCH   2   7
TORSDOF 9
ENDMDL
MODEL 9
REMARK VINA RESULT:      -6.3      1.609      2.159
REMARK  9 active torsions:
REMARK  status: ('A' for Active; 'I' for Inactive)
REMARK    1  A    between atoms: N_3  and  C_6 
REMARK    2  A    between atoms: C_6  and  C_9 
REMARK    3  A    between atoms: C_14  and  C_17 
REMARK       I    between atoms: N_26  and  C_15 
REMARK    4  A    between atoms: C_15  and  C_16 
REMARK    5  A    between atoms: C_20  and  C_23 
REMARK    6  A    between atoms: OG1_24  and  CB_28 
REMARK    7  A    between atoms: N_26  and  CA_27 
REMARK    8  A    between atoms: CA_27  and  CB_28 
REMARK    9  A    between atoms: CA_27  and  C_30 
ROOT
HETATM    1  O   UNK A   0       3.952   6.785  86.737  1.00  0.00    -0.388 OA
HETATM    2  N   UNK A   0       4.500   8.591  88.867  1.00  0.00     0.096 N 
HETATM    3  C   UNK A   0       5.571   8.080  88.000  1.00  0.00     0.299 C 
HETATM    4  C   UNK A   0       3.410   7.611  88.952  1.00  0.00     0.299 C 
HETATM    5  C   UNK A   0       5.004   7.746  86.622  1.00  0.00     0.198 C 
HETATM    6  C   UNK A   0       2.894   7.287  87.554  1.00  0.00     0.198 C 
ENDROOT
BRANCH   2   7
HETATM    7  C   UNK A   0       5.019   8.909  90.197  1.00  0.00     0.311 C 
BRANCH   7   8
HETATM    8  C   UNK A   0       6.235   8.116  90.536  1.00  0.00    -0.030 A 
HETATM    9  C   UNK A   0       6.106   6.804  90.993  1.00  0.00     0.010 A 
HETATM   10  C   UNK A   0       7.243   6.062  91.313  1.00  0.00     0.021 A 
HETATM   11  C   UNK A   0       8.508   6.632  91.173  1.00  0.00     0.018 A 
HETATM   12  C   UNK A   0       8.638   7.941  90.716  1.00  0.00     0.021 A 
HETATM   13  C   UNK A   0       7.502   8.684  90.397  1.00  0.00     0.010 A 
BRANCH  11  14
HETATM   14  C   UNK A   0       9.675   5.870  91.499  1.00  0.00    -0.061 C 
HETATM   15  C   UNK A   0      10.655   5.230  91.772  1.00  0.00    -0.061 C 
BRANCH  15  16
HETATM   16  C   UNK A   0      11.821   4.469  92.098  1.00  0.00     0.018 A 
HETATM   17  C   UNK A   0      11.963   3.925  93.375  1.00  0.00     0.022 A 
HETATM   18  C   UNK A   0      13.100   3.180  93.691  1.00  0.00     0.018 A 
HETATM   19  C   UNK A   0      14.067   2.997  92.726  1.00  0.00     0.032 A 
HETATM   20  C   UNK A   0      13.950   3.524  91.457  1.00  0.00     0.018 A 
HETATM   21  C   UNK A   0      12.814   4.269  91.139  1.00  0.00     0.022 A 
BRANCH  19  22
HETATM   22  C   UNK A   0      15.278   2.205  93.064  1.00  0.00     0.252 C 
HETATM   23  O   UNK A   0      16.272   2.785  93.495  1.00  0.00    -0.268 OA
ENDBRANCH  19  22
ENDBRANCH  15  16
ENDBRANCH  11  14
ENDBRANCH   7   8
ENDBRANCH   2   7
TORSDOF 9
ENDMDL
