MODEL 1
REMARK VINA RESULT:      -6.8      0.000      0.000
REMARK  10 active torsions:
REMARK  status: ('A' for Active; 'I' for Inactive)
REMARK    1  A    between atoms: O_2  and  C_16 
REMARK    2  A    between atoms: N_5  and  C_9 
REMARK    3  A    between atoms: N_6  and  C_13 
REMARK       I    between atoms: N_6  and  C_22 
REMARK    4  A    between atoms: C_9  and  C_12 
REMARK    5  A    between atoms: C_13  and  C_16 
REMARK    6  A    between atoms: C_13  and  C_21 
REMARK    7  A    between atoms: C_19  and  C_24 
REMARK    8  A    between atoms: C_22  and  C_23 
REMARK    9  A    between atoms: C_27  and  C_30 
REMARK   10  A    between atoms: N_33  and  S_34 
ROOT
HETATM    1  C   UNL     1       4.994   9.858  90.236  1.00  0.00     0.056 A 
HETATM    2  C   UNL     1       6.161   9.948  89.508  1.00  0.00     0.005 A 
HETATM    3  C   UNL     1       4.788   8.871  91.177  1.00  0.00     0.005 A 
HETATM    4  C   UNL     1       6.984   8.000  90.674  1.00  0.00     0.042 A 
HETATM    5  C   UNL     1       7.168   9.009  89.728  1.00  0.00     0.008 A 
HETATM    6  C   UNL     1       5.794   7.931  91.399  1.00  0.00     0.008 A 
ENDROOT
BRANCH   1   7
HETATM    7  C   UNL     1       3.922  10.860  90.002  1.00  0.00     0.254 C 
HETATM    8  O   UNL     1       3.014  10.596  89.218  1.00  0.00    -0.268 OA
HETATM    9  N   UNL     1       4.023  12.039  90.728  1.00  0.00    -0.337 N 
HETATM   10  HN  UNL     1       4.788  12.177  91.377  1.00  0.00     0.164 HD
BRANCH   9  11
HETATM   11  C   UNL     1       3.049  13.096  90.629  1.00  0.00     0.172 C 
BRANCH  11  12
HETATM   12  C   UNL     1       2.678  13.691  91.994  1.00  0.00     0.136 C 
HETATM   13  C   UNL     1       1.232  13.405  92.381  1.00  0.00     0.034 C 
BRANCH  12  14
HETATM   14  O   UNL     1       3.542  13.158  92.997  1.00  0.00    -0.383 OA
HETATM   15  H   UNL     1       3.870  12.296  92.691  1.00  0.00     0.210 HD
ENDBRANCH  12  14
ENDBRANCH  11  12
BRANCH  11  16
HETATM   16  C   UNL     1       3.612  14.162  89.694  1.00  0.00     0.398 A 
HETATM   17  O   UNL     1       4.258  13.892  88.683  1.00  0.00    -0.136 OA
HETATM   18  N   UNL     1       4.920  15.029  89.445  1.00  0.00     0.142 N 
HETATM   19  HN  UNL     1       5.542  14.982  88.688  1.00  0.00     0.338 HD
BRANCH  18  20
HETATM   20  S   UNL     1       5.013  15.624  90.698  1.00  0.00     0.076 SA
HETATM   21  H   UNL     1       6.022  15.441  91.299  1.00  0.00     0.136 HD
ENDBRANCH  18  20
ENDBRANCH  11  16
ENDBRANCH   9  11
ENDBRANCH   1   7
BRANCH   4  22
HETATM   22  C   UNL     1       8.015   7.035  90.898  1.00  0.00    -0.059 C 
HETATM   23  C   UNL     1       8.881   6.223  91.087  1.00  0.00    -0.059 C 
BRANCH  23  24
HETATM   24  C   UNL     1       9.913   5.257  91.311  1.00  0.00     0.042 A 
HETATM   25  C   UNL     1      10.565   4.672  90.227  1.00  0.00     0.008 A 
HETATM   26  C   UNL     1      11.569   3.728  90.445  1.00  0.00    -0.002 A 
HETATM   27  C   UNL     1      11.921   3.372  91.747  1.00  0.00     0.011 A 
HETATM   28  C   UNL     1      11.267   3.959  92.831  1.00  0.00    -0.002 A 
HETATM   29  C   UNL     1      10.263   4.902  92.612  1.00  0.00     0.008 A 
BRANCH  27  30
HETATM   30  C   UNL     1      12.996   2.366  91.979  1.00  0.00     0.277 C 
BRANCH  30  31
HETATM   31  N   UNL     1      13.991   2.826  92.946  1.00  0.00     0.147 N 
HETATM   32  C   UNL     1      15.051   1.823  93.119  1.00  0.00     0.283 C 
HETATM   33  C   UNL     1      16.083   2.329  94.124  1.00  0.00     0.178 C 
HETATM   34  O   UNL     1      16.638   3.570  93.683  1.00  0.00    -0.350 OA
HETATM   35  C   UNL     1      15.618   4.560  93.541  1.00  0.00     0.178 C 
HETATM   36  C   UNL     1      14.575   4.107  92.524  1.00  0.00     0.283 C 
ENDBRANCH  30  31
ENDBRANCH  27  30
ENDBRANCH  23  24
ENDBRANCH   4  22
TORSDOF 10
ENDMDL
MODEL 2
REMARK VINA RESULT:      -6.7      1.557      2.366
REMARK  10 active torsions:
REMARK  status: ('A' for Active; 'I' for Inactive)
REMARK    1  A    between atoms: O_2  and  C_16 
REMARK    2  A    between atoms: N_5  and  C_9 
REMARK    3  A    between atoms: N_6  and  C_13 
REMARK       I    between atoms: N_6  and  C_22 
REMARK    4  A    between atoms: C_9  and  C_12 
REMARK    5  A    between atoms: C_13  and  C_16 
REMARK    6  A    between atoms: C_13  and  C_21 
REMARK    7  A    between atoms: C_19  and  C_24 
REMARK    8  A    between atoms: C_22  and  C_23 
REMARK    9  A    between atoms: C_27  and  C_30 
REMARK   10  A    between atoms: N_33  and  S_34 
ROOT
HETATM    1  C   UNL     1       5.306  10.557  90.962  1.00  0.00     0.056 A 
HETATM    2  C   UNL     1       6.321  10.707  91.883  1.00  0.00     0.005 A 
HETATM    3  C   UNL     1       5.204   9.443  90.155  1.00  0.00     0.005 A 
HETATM    4  C   UNL     1       7.198   8.564  91.196  1.00  0.00     0.042 A 
HETATM    5  C   UNL     1       7.279   9.700  92.002  1.00  0.00     0.008 A 
HETATM    6  C   UNL     1       6.161   8.435  90.273  1.00  0.00     0.008 A 
ENDROOT
BRANCH   1   7
HETATM    7  C   UNL     1       4.285  11.629  90.838  1.00  0.00     0.254 C 
HETATM    8  O   UNL     1       3.286  11.429  90.151  1.00  0.00    -0.268 OA
HETATM    9  N   UNL     1       4.538  12.795  91.547  1.00  0.00    -0.337 N 
HETATM   10  HN  UNL     1       5.374  12.879  92.115  1.00  0.00     0.164 HD
BRANCH   9  11
HETATM   11  C   UNL     1       3.632  13.915  91.547  1.00  0.00     0.172 C 
BRANCH  11  12
HETATM   12  C   UNL     1       3.654  14.696  90.227  1.00  0.00     0.136 C 
HETATM   13  C   UNL     1       5.067  14.898  89.692  1.00  0.00     0.034 C 
BRANCH  12  14
HETATM   14  O   UNL     1       2.882  14.001  89.248  1.00  0.00    -0.383 OA
HETATM   15  H   UNL     1       3.337  14.076  88.392  1.00  0.00     0.210 HD
ENDBRANCH  12  14
ENDBRANCH  11  12
BRANCH  11  16
HETATM   16  C   UNL     1       2.235  13.384  91.854  1.00  0.00     0.398 A 
HETATM   17  O   UNL     1       1.239  14.104  91.891  1.00  0.00    -0.136 OA
HETATM   18  N   UNL     1       1.239  13.142  93.067  1.00  0.00     0.142 N 
HETATM   19  HN  UNL     1       0.386  13.591  93.250  1.00  0.00     0.338 HD
BRANCH  18  20
HETATM   20  S   UNL     1       2.063  12.342  93.852  1.00  0.00     0.076 SA
HETATM   21  H   UNL     1       2.447  11.331  93.359  1.00  0.00     0.136 HD
ENDBRANCH  18  20
ENDBRANCH  11  16
ENDBRANCH   9  11
ENDBRANCH   1   7
BRANCH   4  22
HETATM   22  C   UNL     1       8.181   7.533  91.316  1.00  0.00    -0.059 C 
HETATM   23  C   UNL     1       9.007   6.665  91.416  1.00  0.00    -0.059 C 
BRANCH  23  24
HETATM   24  C   UNL     1       9.992   5.633  91.534  1.00  0.00     0.042 A 
HETATM   25  C   UNL     1      10.427   5.229  92.796  1.00  0.00     0.008 A 
HETATM   26  C   UNL     1      11.388   4.224  92.912  1.00  0.00    -0.002 A 
HETATM   27  C   UNL     1      11.911   3.624  91.766  1.00  0.00     0.011 A 
HETATM   28  C   UNL     1      11.473   4.030  90.505  1.00  0.00    -0.002 A 
HETATM   29  C   UNL     1      10.513   5.035  90.390  1.00  0.00     0.008 A 
BRANCH  27  30
HETATM   30  C   UNL     1      12.936   2.549  91.891  1.00  0.00     0.277 C 
BRANCH  30  31
HETATM   31  N   UNL     1      13.944   2.856  92.904  1.00  0.00     0.147 N 
HETATM   32  C   UNL     1      14.875   1.730  93.070  1.00  0.00     0.283 C 
HETATM   33  C   UNL     1      15.923   2.078  94.123  1.00  0.00     0.178 C 
HETATM   34  O   UNL     1      16.632   3.261  93.749  1.00  0.00    -0.350 OA
HETATM   35  C   UNL     1      15.738   4.366  93.616  1.00  0.00     0.178 C 
HETATM   36  C   UNL     1      14.685   4.074  92.552  1.00  0.00     0.283 C 
ENDBRANCH  30  31
ENDBRANCH  27  30
ENDBRANCH  23  24
ENDBRANCH   4  22
TORSDOF 10
ENDMDL
MODEL 3
REMARK VINA RESULT:      -6.5      0.802      1.351
REMARK  10 active torsions:
REMARK  status: ('A' for Active; 'I' for Inactive)
REMARK    1  A    between atoms: O_2  and  C_16 
REMARK    2  A    between atoms: N_5  and  C_9 
REMARK    3  A    between atoms: N_6  and  C_13 
REMARK       I    between atoms: N_6  and  C_22 
REMARK    4  A    between atoms: C_9  and  C_12 
REMARK    5  A    between atoms: C_13  and  C_16 
REMARK    6  A    between atoms: C_13  and  C_21 
REMARK    7  A    between atoms: C_19  and  C_24 
REMARK    8  A    between atoms: C_22  and  C_23 
REMARK    9  A    between atoms: C_27  and  C_30 
REMARK   10  A    between atoms: N_33  and  S_34 
ROOT
HETATM    1  C   UNL     1       5.355   9.941  89.840  1.00  0.00     0.056 A 
HETATM    2  C   UNL     1       5.011   8.606  89.825  1.00  0.00     0.005 A 
HETATM    3  C   UNL     1       6.636  10.368  90.121  1.00  0.00     0.005 A 
HETATM    4  C   UNL     1       7.294   8.060  90.391  1.00  0.00     0.042 A 
HETATM    5  C   UNL     1       5.991   7.654  90.104  1.00  0.00     0.008 A 
HETATM    6  C   UNL     1       7.617   9.417  90.400  1.00  0.00     0.008 A 
ENDROOT
BRANCH   1   7
HETATM    7  C   UNL     1       4.310  10.955  89.541  1.00  0.00     0.254 C 
HETATM    8  O   UNL     1       3.742  10.928  88.452  1.00  0.00    -0.268 OA
HETATM    9  N   UNL     1       4.036  11.863  90.555  1.00  0.00    -0.337 N 
HETATM   10  HN  UNL     1       4.528  11.809  91.438  1.00  0.00     0.164 HD
BRANCH   9  11
HETATM   11  C   UNL     1       3.033  12.889  90.426  1.00  0.00     0.172 C 
BRANCH  11  12
HETATM   12  C   UNL     1       2.205  13.074  91.703  1.00  0.00     0.136 C 
HETATM   13  C   UNL     1       1.192  14.208  91.584  1.00  0.00     0.034 C 
BRANCH  12  14
HETATM   14  O   UNL     1       1.511  11.863  92.002  1.00  0.00    -0.383 OA
HETATM   15  H   UNL     1       1.387  11.812  92.964  1.00  0.00     0.210 HD
ENDBRANCH  12  14
ENDBRANCH  11  12
BRANCH  11  16
HETATM   16  C   UNL     1       3.739  14.182  90.031  1.00  0.00     0.398 A 
HETATM   17  O   UNL     1       4.713  14.212  89.281  1.00  0.00    -0.136 OA
HETATM   18  N   UNL     1       4.936  15.127  90.473  1.00  0.00     0.142 N 
HETATM   19  HN  UNL     1       5.776  15.304  89.998  1.00  0.00     0.338 HD
BRANCH  18  20
HETATM   20  S   UNL     1       4.531  15.373  91.781  1.00  0.00     0.076 SA
HETATM   21  H   UNL     1       5.391  15.588  92.572  1.00  0.00     0.136 HD
ENDBRANCH  18  20
ENDBRANCH  11  16
ENDBRANCH   9  11
ENDBRANCH   1   7
BRANCH   4  22
HETATM   22  C   UNL     1       8.299   7.085  90.680  1.00  0.00    -0.059 C 
HETATM   23  C   UNL     1       9.143   6.264  90.923  1.00  0.00    -0.059 C 
BRANCH  23  24
HETATM   24  C   UNL     1      10.148   5.287  91.211  1.00  0.00     0.042 A 
HETATM   25  C   UNL     1      10.373   4.888  92.529  1.00  0.00     0.008 A 
HETATM   26  C   UNL     1      11.354   3.937  92.810  1.00  0.00    -0.002 A 
HETATM   27  C   UNL     1      12.108   3.385  91.774  1.00  0.00     0.011 A 
HETATM   28  C   UNL     1      11.881   3.785  90.457  1.00  0.00    -0.002 A 
HETATM   29  C   UNL     1      10.900   4.736  90.176  1.00  0.00     0.008 A 
BRANCH  27  30
HETATM   30  C   UNL     1      13.154   2.367  92.076  1.00  0.00     0.277 C 
BRANCH  30  31
HETATM   31  N   UNL     1      14.138   2.850  93.044  1.00  0.00     0.147 N 
HETATM   32  C   UNL     1      15.294   1.944  93.106  1.00  0.00     0.283 C 
HETATM   33  C   UNL     1      16.311   2.474  94.114  1.00  0.00     0.178 C 
HETATM   34  O   UNL     1      16.728   3.792  93.753  1.00  0.00    -0.350 OA
HETATM   35  C   UNL     1      15.615   4.685  93.720  1.00  0.00     0.178 C 
HETATM   36  C   UNL     1      14.581   4.209  92.704  1.00  0.00     0.283 C 
ENDBRANCH  30  31
ENDBRANCH  27  30
ENDBRANCH  23  24
ENDBRANCH   4  22
TORSDOF 10
ENDMDL
MODEL 4
REMARK VINA RESULT:      -6.0      2.503      3.337
REMARK  10 active torsions:
REMARK  status: ('A' for Active; 'I' for Inactive)
REMARK    1  A    between atoms: O_2  and  C_16 
REMARK    2  A    between atoms: N_5  and  C_9 
REMARK    3  A    between atoms: N_6  and  C_13 
REMARK       I    between atoms: N_6  and  C_22 
REMARK    4  A    between atoms: C_9  and  C_12 
REMARK    5  A    between atoms: C_13  and  C_16 
REMARK    6  A    between atoms: C_13  and  C_21 
REMARK    7  A    between atoms: C_19  and  C_24 
REMARK    8  A    between atoms: C_22  and  C_23 
REMARK    9  A    between atoms: C_27  and  C_30 
REMARK   10  A    between atoms: N_33  and  S_34 
ROOT
HETATM    1  C   UNL     1       5.972   7.314  88.059  1.00  0.00     0.056 A 
HETATM    2  C   UNL     1       5.880   7.008  89.401  1.00  0.00     0.005 A 
HETATM    3  C   UNL     1       7.066   6.961  87.297  1.00  0.00     0.005 A 
HETATM    4  C   UNL     1       8.048   5.953  89.260  1.00  0.00     0.042 A 
HETATM    5  C   UNL     1       6.930   6.320  90.009  1.00  0.00     0.008 A 
HETATM    6  C   UNL     1       8.117   6.273  87.904  1.00  0.00     0.008 A 
ENDROOT
BRANCH   1   7
HETATM    7  C   UNL     1       4.852   8.045  87.411  1.00  0.00     0.254 C 
HETATM    8  O   UNL     1       4.479   7.701  86.292  1.00  0.00    -0.268 OA
HETATM    9  N   UNL     1       4.286   9.072  88.154  1.00  0.00    -0.337 N 
HETATM   10  HN  UNL     1       4.631   9.283  89.083  1.00  0.00     0.164 HD
BRANCH   9  11
HETATM   11  C   UNL     1       3.178   9.857  87.673  1.00  0.00     0.172 C 
BRANCH  11  12
HETATM   12  C   UNL     1       1.822   9.329  88.157  1.00  0.00     0.136 C 
HETATM   13  C   UNL     1       1.315   8.163  87.316  1.00  0.00     0.034 C 
BRANCH  12  14
HETATM   14  O   UNL     1       1.932   8.906  89.516  1.00  0.00    -0.383 OA
HETATM   15  H   UNL     1       2.832   8.566  89.658  1.00  0.00     0.210 HD
ENDBRANCH  12  14
ENDBRANCH  11  12
BRANCH  11  16
HETATM   16  C   UNL     1       3.402  11.299  88.115  1.00  0.00     0.398 A 
HETATM   17  O   UNL     1       4.389  11.954  87.788  1.00  0.00    -0.136 OA
HETATM   18  N   UNL     1       4.091  12.151  89.265  1.00  0.00     0.142 N 
HETATM   19  HN  UNL     1       4.862  12.753  89.194  1.00  0.00     0.338 HD
BRANCH  18  20
HETATM   20  S   UNL     1       3.447  11.580  90.357  1.00  0.00     0.076 SA
HETATM   21  H   UNL     1       4.143  11.187  91.237  1.00  0.00     0.136 HD
ENDBRANCH  18  20
ENDBRANCH  11  16
ENDBRANCH   9  11
ENDBRANCH   1   7
BRANCH   4  22
HETATM   22  C   UNL     1       9.126   5.250  89.884  1.00  0.00    -0.059 C 
HETATM   23  C   UNL     1      10.031   4.658  90.408  1.00  0.00    -0.059 C 
BRANCH  23  24
HETATM   24  C   UNL     1      11.110   3.955  91.032  1.00  0.00     0.042 A 
HETATM   25  C   UNL     1      12.391   4.018  90.484  1.00  0.00     0.008 A 
HETATM   26  C   UNL     1      13.442   3.331  91.091  1.00  0.00    -0.002 A 
HETATM   27  C   UNL     1      13.212   2.583  92.246  1.00  0.00     0.011 A 
HETATM   28  C   UNL     1      11.930   2.521  92.792  1.00  0.00    -0.002 A 
HETATM   29  C   UNL     1      10.879   3.208  92.185  1.00  0.00     0.008 A 
BRANCH  27  30
HETATM   30  C   UNL     1      14.337   1.850  92.895  1.00  0.00     0.277 C 
BRANCH  30  31
HETATM   31  N   UNL     1      15.223   2.740  93.643  1.00  0.00     0.147 N 
HETATM   32  C   UNL     1      16.631   2.446  93.341  1.00  0.00     0.283 C 
HETATM   33  C   UNL     1      17.536   3.394  94.124  1.00  0.00     0.178 C 
HETATM   34  O   UNL     1      17.230   4.752  93.803  1.00  0.00    -0.350 OA
HETATM   35  C   UNL     1      15.872   5.055  94.122  1.00  0.00     0.178 C 
HETATM   36  C   UNL     1      14.927   4.147  93.340  1.00  0.00     0.283 C 
ENDBRANCH  30  31
ENDBRANCH  27  30
ENDBRANCH  23  24
ENDBRANCH   4  22
TORSDOF 10
ENDMDL
MODEL 5
REMARK VINA RESULT:      -5.4      3.765     12.453
REMARK  10 active torsions:
REMARK  status: ('A' for Active; 'I' for Inactive)
REMARK    1  A    between atoms: O_2  and  C_16 
REMARK    2  A    between atoms: N_5  and  C_9 
REMARK    3  A    between atoms: N_6  and  C_13 
REMARK       I    between atoms: N_6  and  C_22 
REMARK    4  A    between atoms: C_9  and  C_12 
REMARK    5  A    between atoms: C_13  and  C_16 
REMARK    6  A    between atoms: C_13  and  C_21 
REMARK    7  A    between atoms: C_19  and  C_24 
REMARK    8  A    between atoms: C_22  and  C_23 
REMARK    9  A    between atoms: C_27  and  C_30 
REMARK   10  A    between atoms: N_33  and  S_34 
ROOT
HETATM    1  C   UNL     1      10.223   5.621  89.988  1.00  0.00     0.056 A 
HETATM    2  C   UNL     1       9.446   5.817  91.111  1.00  0.00     0.005 A 
HETATM    3  C   UNL     1      10.098   6.405  88.860  1.00  0.00     0.005 A 
HETATM    4  C   UNL     1       8.354   7.649  89.976  1.00  0.00     0.042 A 
HETATM    5  C   UNL     1       8.500   6.843  91.106  1.00  0.00     0.008 A 
HETATM    6  C   UNL     1       9.153   7.430  88.854  1.00  0.00     0.008 A 
ENDROOT
BRANCH   1   7
HETATM    7  C   UNL     1      11.232   4.530  89.995  1.00  0.00     0.254 C 
HETATM    8  O   UNL     1      11.411   3.872  88.973  1.00  0.00    -0.268 OA
HETATM    9  N   UNL     1      11.927   4.352  91.183  1.00  0.00    -0.337 N 
HETATM   10  HN  UNL     1      11.742   4.950  91.980  1.00  0.00     0.164 HD
BRANCH   9  11
HETATM   11  C   UNL     1      12.953   3.352  91.339  1.00  0.00     0.172 C 
BRANCH  11  12
HETATM   12  C   UNL     1      14.360   3.897  91.061  1.00  0.00     0.136 C 
HETATM   13  C   UNL     1      15.173   2.978  90.157  1.00  0.00     0.034 C 
BRANCH  12  14
HETATM   14  O   UNL     1      14.261   5.182  90.448  1.00  0.00    -0.383 OA
HETATM   15  H   UNL     1      13.320   5.388  90.321  1.00  0.00     0.210 HD
ENDBRANCH  12  14
ENDBRANCH  11  12
BRANCH  11  16
HETATM   16  C   UNL     1      12.845   2.791  92.753  1.00  0.00     0.398 A 
HETATM   17  O   UNL     1      12.373   3.429  93.693  1.00  0.00    -0.136 OA
HETATM   18  N   UNL     1      13.645   2.718  94.123  1.00  0.00     0.142 N 
HETATM   19  HN  UNL     1      13.414   3.130  94.983  1.00  0.00     0.338 HD
BRANCH  18  20
HETATM   20  S   UNL     1      14.820   2.149  93.644  1.00  0.00     0.076 SA
HETATM   21  H   UNL     1      15.377   2.735  92.774  1.00  0.00     0.136 HD
ENDBRANCH  18  20
ENDBRANCH  11  16
ENDBRANCH   9  11
ENDBRANCH   1   7
BRANCH   4  22
HETATM   22  C   UNL     1       7.383   8.698  89.970  1.00  0.00    -0.059 C 
HETATM   23  C   UNL     1       6.566   9.580  89.965  1.00  0.00    -0.059 C 
BRANCH  23  24
HETATM   24  C   UNL     1       5.594  10.630  89.959  1.00  0.00     0.042 A 
HETATM   25  C   UNL     1       4.378  10.456  90.618  1.00  0.00     0.008 A 
HETATM   26  C   UNL     1       3.429  11.479  90.611  1.00  0.00    -0.002 A 
HETATM   27  C   UNL     1       3.699  12.675  89.946  1.00  0.00     0.011 A 
HETATM   28  C   UNL     1       4.916  12.847  89.287  1.00  0.00    -0.002 A 
HETATM   29  C   UNL     1       5.864  11.824  89.294  1.00  0.00     0.008 A 
BRANCH  27  30
HETATM   30  C   UNL     1       2.685  13.769  89.941  1.00  0.00     0.277 C 
BRANCH  30  31
HETATM   31  N   UNL     1       2.684  14.533  91.187  1.00  0.00     0.147 N 
HETATM   32  C   UNL     1       1.837  13.880  92.196  1.00  0.00     0.283 C 
HETATM   33  C   UNL     1       1.860  14.689  93.491  1.00  0.00     0.178 C 
HETATM   34  O   UNL     1       3.199  14.820  93.972  1.00  0.00    -0.350 OA
HETATM   35  C   UNL     1       4.021  15.481  93.009  1.00  0.00     0.178 C 
HETATM   36  C   UNL     1       4.050  14.693  91.704  1.00  0.00     0.283 C 
ENDBRANCH  30  31
ENDBRANCH  27  30
ENDBRANCH  23  24
ENDBRANCH   4  22
TORSDOF 10
ENDMDL
MODEL 6
REMARK VINA RESULT:      -5.4      2.672      3.282
REMARK  10 active torsions:
REMARK  status: ('A' for Active; 'I' for Inactive)
REMARK    1  A    between atoms: O_2  and  C_16 
REMARK    2  A    between atoms: N_5  and  C_9 
REMARK    3  A    between atoms: N_6  and  C_13 
REMARK       I    between atoms: N_6  and  C_22 
REMARK    4  A    between atoms: C_9  and  C_12 
REMARK    5  A    between atoms: C_13  and  C_16 
REMARK    6  A    between atoms: C_13  and  C_21 
REMARK    7  A    between atoms: C_19  and  C_24 
REMARK    8  A    between atoms: C_22  and  C_23 
REMARK    9  A    between atoms: C_27  and  C_30 
REMARK   10  A    between atoms: N_33  and  S_34 
ROOT
HETATM    1  C   UNL     1       6.080   8.275  89.063  1.00  0.00     0.056 A 
HETATM    2  C   UNL     1       5.782   7.001  89.501  1.00  0.00     0.005 A 
HETATM    3  C   UNL     1       7.357   8.792  89.119  1.00  0.00     0.005 A 
HETATM    4  C   UNL     1       8.107   6.709  90.086  1.00  0.00     0.042 A 
HETATM    5  C   UNL     1       6.806   6.209  90.018  1.00  0.00     0.008 A 
HETATM    6  C   UNL     1       8.383   8.000  89.637  1.00  0.00     0.008 A 
ENDROOT
BRANCH   1   7
HETATM    7  C   UNL     1       4.989   9.118  88.510  1.00  0.00     0.254 C 
HETATM    8  O   UNL     1       4.688   9.008  87.324  1.00  0.00    -0.268 OA
HETATM    9  N   UNL     1       4.362   9.969  89.410  1.00  0.00    -0.337 N 
HETATM   10  HN  UNL     1       4.648   9.988  90.382  1.00  0.00     0.164 HD
BRANCH   9  11
HETATM   11  C   UNL     1       3.272  10.831  89.031  1.00  0.00     0.172 C 
BRANCH  11  12
HETATM   12  C   UNL     1       3.735  12.241  88.646  1.00  0.00     0.136 C 
HETATM   13  C   UNL     1       4.923  12.713  89.478  1.00  0.00     0.034 C 
BRANCH  12  14
HETATM   14  O   UNL     1       4.099  12.264  87.266  1.00  0.00    -0.383 OA
HETATM   15  H   UNL     1       4.235  11.348  86.971  1.00  0.00     0.210 HD
ENDBRANCH  12  14
ENDBRANCH  11  12
BRANCH  11  16
HETATM   16  C   UNL     1       2.524  10.160  87.883  1.00  0.00     0.398 A 
HETATM   17  O   UNL     1       1.561  10.676  87.319  1.00  0.00    -0.136 OA
HETATM   18  N   UNL     1       1.286   9.207  87.598  1.00  0.00     0.142 N 
HETATM   19  HN  UNL     1       0.448   9.425  87.137  1.00  0.00     0.338 HD
BRANCH  18  20
HETATM   20  S   UNL     1       1.662   8.136  88.401  1.00  0.00     0.076 SA
HETATM   21  H   UNL     1       2.318   7.290  87.885  1.00  0.00     0.136 HD
ENDBRANCH  18  20
ENDBRANCH  11  16
ENDBRANCH   9  11
ENDBRANCH   1   7
BRANCH   4  22
HETATM   22  C   UNL     1       9.156   5.898  90.619  1.00  0.00    -0.059 C 
HETATM   23  C   UNL     1      10.039   5.216  91.068  1.00  0.00    -0.059 C 
BRANCH  23  24
HETATM   24  C   UNL     1      11.090   4.405  91.602  1.00  0.00     0.042 A 
HETATM   25  C   UNL     1      11.928   3.696  90.742  1.00  0.00     0.008 A 
HETATM   26  C   UNL     1      12.950   2.903  91.263  1.00  0.00    -0.002 A 
HETATM   27  C   UNL     1      13.136   2.823  92.643  1.00  0.00     0.011 A 
HETATM   28  C   UNL     1      12.298   3.534  93.502  1.00  0.00    -0.002 A 
HETATM   29  C   UNL     1      11.275   4.325  92.981  1.00  0.00     0.008 A 
BRANCH  27  30
HETATM   30  C   UNL     1      14.231   1.977  93.199  1.00  0.00     0.277 C 
BRANCH  30  31
HETATM   31  N   UNL     1      15.337   2.774  93.727  1.00  0.00     0.147 N 
HETATM   32  C   UNL     1      16.596   2.429  93.052  1.00  0.00     0.283 C 
HETATM   33  C   UNL     1      17.733   3.280  93.611  1.00  0.00     0.178 C 
HETATM   34  O   UNL     1      17.442   4.669  93.444  1.00  0.00    -0.350 OA
HETATM   35  C   UNL     1      16.236   5.020  94.123  1.00  0.00     0.178 C 
HETATM   36  C   UNL     1      15.064   4.210  93.577  1.00  0.00     0.283 C 
ENDBRANCH  30  31
ENDBRANCH  27  30
ENDBRANCH  23  24
ENDBRANCH   4  22
TORSDOF 10
ENDMDL
MODEL 7
REMARK VINA RESULT:      -5.3      3.670     12.478
REMARK  10 active torsions:
REMARK  status: ('A' for Active; 'I' for Inactive)
REMARK    1  A    between atoms: O_2  and  C_16 
REMARK    2  A    between atoms: N_5  and  C_9 
REMARK    3  A    between atoms: N_6  and  C_13 
REMARK       I    between atoms: N_6  and  C_22 
REMARK    4  A    between atoms: C_9  and  C_12 
REMARK    5  A    between atoms: C_13  and  C_16 
REMARK    6  A    between atoms: C_13  and  C_21 
REMARK    7  A    between atoms: C_19  and  C_24 
REMARK    8  A    between atoms: C_22  and  C_23 
REMARK    9  A    between atoms: C_27  and  C_30 
REMARK   10  A    between atoms: N_33  and  S_34 
ROOT
HETATM    1  C   UNL     1      10.528   4.676  92.552  1.00  0.00     0.056 A 
HETATM    2  C   UNL     1      10.436   5.690  93.482  1.00  0.00     0.005 A 
HETATM    3  C   UNL     1       9.678   4.590  91.469  1.00  0.00     0.005 A 
HETATM    4  C   UNL     1       8.575   6.597  92.237  1.00  0.00     0.042 A 
HETATM    5  C   UNL     1       9.448   6.662  93.323  1.00  0.00     0.008 A 
HETATM    6  C   UNL     1       8.690   5.562  91.310  1.00  0.00     0.008 A 
ENDROOT
BRANCH   1   7
HETATM    7  C   UNL     1      11.582   3.642  92.720  1.00  0.00     0.254 C 
HETATM    8  O   UNL     1      11.274   2.454  92.648  1.00  0.00    -0.268 OA
HETATM    9  N   UNL     1      12.870   4.114  92.928  1.00  0.00    -0.337 N 
HETATM   10  HN  UNL     1      13.053   5.111  92.951  1.00  0.00     0.164 HD
BRANCH   9  11
HETATM   11  C   UNL     1      14.002   3.237  93.084  1.00  0.00     0.172 C 
BRANCH  11  12
HETATM   12  C   UNL     1      14.505   2.673  91.749  1.00  0.00     0.136 C 
HETATM   13  C   UNL     1      14.276   3.632  90.587  1.00  0.00     0.034 C 
BRANCH  12  14
HETATM   14  O   UNL     1      15.900   2.388  91.847  1.00  0.00    -0.383 OA
HETATM   15  H   UNL     1      16.004   1.462  92.124  1.00  0.00     0.210 HD
ENDBRANCH  12  14
ENDBRANCH  11  12
BRANCH  11  16
HETATM   16  C   UNL     1      15.098   4.015  93.806  1.00  0.00     0.398 A 
HETATM   17  O   UNL     1      15.555   5.075  93.384  1.00  0.00    -0.136 OA
HETATM   18  N   UNL     1      16.678   4.169  93.862  1.00  0.00     0.142 N 
HETATM   19  HN  UNL     1      17.220   4.944  93.602  1.00  0.00     0.338 HD
BRANCH  18  20
HETATM   20  S   UNL     1      17.004   2.843  94.124  1.00  0.00     0.076 SA
HETATM   21  H   UNL     1      17.996   2.654  94.751  1.00  0.00     0.136 HD
ENDBRANCH  18  20
ENDBRANCH  11  16
ENDBRANCH   9  11
ENDBRANCH   1   7
BRANCH   4  22
HETATM   22  C   UNL     1       7.561   7.592  92.076  1.00  0.00    -0.059 C 
HETATM   23  C   UNL     1       6.709   8.429  91.940  1.00  0.00    -0.059 C 
BRANCH  23  24
HETATM   24  C   UNL     1       5.694   9.425  91.778  1.00  0.00     0.042 A 
HETATM   25  C   UNL     1       4.790   9.332  90.721  1.00  0.00     0.008 A 
HETATM   26  C   UNL     1       3.802  10.303  90.561  1.00  0.00    -0.002 A 
HETATM   27  C   UNL     1       3.718  11.367  91.461  1.00  0.00     0.011 A 
HETATM   28  C   UNL     1       4.623  11.458  92.518  1.00  0.00    -0.002 A 
HETATM   29  C   UNL     1       5.612  10.487  92.677  1.00  0.00     0.008 A 
BRANCH  27  30
HETATM   30  C   UNL     1       2.660  12.404  91.291  1.00  0.00     0.277 C 
BRANCH  30  31
HETATM   31  N   UNL     1       3.185  13.648  90.732  1.00  0.00     0.147 N 
HETATM   32  C   UNL     1       4.044  14.335  91.707  1.00  0.00     0.283 C 
HETATM   33  C   UNL     1       4.589  15.625  91.098  1.00  0.00     0.178 C 
HETATM   34  O   UNL     1       5.319  15.340  89.903  1.00  0.00    -0.350 OA
HETATM   35  C   UNL     1       4.483  14.700  88.938  1.00  0.00     0.178 C 
HETATM   36  C   UNL     1       3.935  13.390  89.495  1.00  0.00     0.283 C 
ENDBRANCH  30  31
ENDBRANCH  27  30
ENDBRANCH  23  24
ENDBRANCH   4  22
TORSDOF 10
ENDMDL
MODEL 8
REMARK VINA RESULT:      -5.3      3.664     12.525
REMARK  10 active torsions:
REMARK  status: ('A' for Active; 'I' for Inactive)
REMARK    1  A    between atoms: O_2  and  C_16 
REMARK    2  A    between atoms: N_5  and  C_9 
REMARK    3  A    between atoms: N_6  and  C_13 
REMARK       I    between atoms: N_6  and  C_22 
REMARK    4  A    between atoms: C_9  and  C_12 
REMARK    5  A    between atoms: C_13  and  C_16 
REMARK    6  A    between atoms: C_13  and  C_21 
REMARK    7  A    between atoms: C_19  and  C_24 
REMARK    8  A    between atoms: C_22  and  C_23 
REMARK    9  A    between atoms: C_27  and  C_30 
REMARK   10  A    between atoms: N_33  and  S_34 
ROOT
HETATM    1  C   UNL     1      10.518   5.098  92.202  1.00  0.00     0.056 A 
HETATM    2  C   UNL     1      10.151   5.998  93.180  1.00  0.00     0.005 A 
HETATM    3  C   UNL     1      10.043   5.181  90.910  1.00  0.00     0.005 A 
HETATM    4  C   UNL     1       8.774   7.133  91.552  1.00  0.00     0.042 A 
HETATM    5  C   UNL     1       9.269   7.028  92.852  1.00  0.00     0.008 A 
HETATM    6  C   UNL     1       9.161   6.210  90.581  1.00  0.00     0.008 A 
ENDROOT
BRANCH   1   7
HETATM    7  C   UNL     1      11.459   4.002  92.552  1.00  0.00     0.254 C 
HETATM    8  O   UNL     1      11.037   2.851  92.626  1.00  0.00    -0.268 OA
HETATM    9  N   UNL     1      12.781   4.376  92.748  1.00  0.00    -0.337 N 
HETATM   10  HN  UNL     1      13.061   5.345  92.645  1.00  0.00     0.164 HD
BRANCH   9  11
HETATM   11  C   UNL     1      13.816   3.426  93.068  1.00  0.00     0.172 C 
BRANCH  11  12
HETATM   12  C   UNL     1      14.297   2.638  91.844  1.00  0.00     0.136 C 
HETATM   13  C   UNL     1      14.215   3.450  90.556  1.00  0.00     0.034 C 
BRANCH  12  14
HETATM   14  O   UNL     1      15.648   2.223  92.044  1.00  0.00    -0.383 OA
HETATM   15  H   UNL     1      16.146   2.973  92.411  1.00  0.00     0.210 HD
ENDBRANCH  12  14
ENDBRANCH  11  12
BRANCH  11  16
HETATM   16  C   UNL     1      14.963   4.190  93.722  1.00  0.00     0.398 A 
HETATM   17  O   UNL     1      15.480   5.184  93.216  1.00  0.00    -0.136 OA
HETATM   18  N   UNL     1      16.550   4.252  93.760  1.00  0.00     0.142 N 
HETATM   19  HN  UNL     1      17.136   4.969  93.437  1.00  0.00     0.338 HD
BRANCH  18  20
HETATM   20  S   UNL     1      16.798   2.933  94.123  1.00  0.00     0.076 SA
HETATM   21  H   UNL     1      16.243   2.094  93.490  1.00  0.00     0.136 HD
ENDBRANCH  18  20
ENDBRANCH  11  16
ENDBRANCH   9  11
ENDBRANCH   1   7
BRANCH   4  22
HETATM   22  C   UNL     1       7.868   8.187  91.216  1.00  0.00    -0.059 C 
HETATM   23  C   UNL     1       7.106   9.073  90.933  1.00  0.00    -0.059 C 
BRANCH  23  24
HETATM   24  C   UNL     1       6.199  10.127  90.596  1.00  0.00     0.042 A 
HETATM   25  C   UNL     1       6.561  11.078  89.643  1.00  0.00     0.008 A 
HETATM   26  C   UNL     1       5.677  12.107  89.316  1.00  0.00    -0.002 A 
HETATM   27  C   UNL     1       4.432  12.182  89.941  1.00  0.00     0.011 A 
HETATM   28  C   UNL     1       4.073  11.230  90.895  1.00  0.00    -0.002 A 
HETATM   29  C   UNL     1       4.957  10.202  91.222  1.00  0.00     0.008 A 
BRANCH  27  30
HETATM   30  C   UNL     1       3.488  13.281  89.589  1.00  0.00     0.277 C 
BRANCH  30  31
HETATM   31  N   UNL     1       3.196  14.151  90.728  1.00  0.00     0.147 N 
HETATM   32  C   UNL     1       2.404  13.436  91.738  1.00  0.00     0.283 C 
HETATM   33  C   UNL     1       2.121  14.359  92.921  1.00  0.00     0.178 C 
HETATM   34  O   UNL     1       3.345  14.830  93.488  1.00  0.00    -0.350 OA
HETATM   35  C   UNL     1       4.107  15.553  92.520  1.00  0.00     0.178 C 
HETATM   36  C   UNL     1       4.437  14.660  91.328  1.00  0.00     0.283 C 
ENDBRANCH  30  31
ENDBRANCH  27  30
ENDBRANCH  23  24
ENDBRANCH   4  22
TORSDOF 10
ENDMDL
MODEL 9
REMARK VINA RESULT:      -4.0      3.771     12.433
REMARK  10 active torsions:
REMARK  status: ('A' for Active; 'I' for Inactive)
REMARK    1  A    between atoms: O_2  and  C_16 
REMARK    2  A    between atoms: N_5  and  C_9 
REMARK    3  A    between atoms: N_6  and  C_13 
REMARK       I    between atoms: N_6  and  C_22 
REMARK    4  A    between atoms: C_9  and  C_12 
REMARK    5  A    between atoms: C_13  and  C_16 
REMARK    6  A    between atoms: C_13  and  C_21 
REMARK    7  A    between atoms: C_19  and  C_24 
REMARK    8  A    between atoms: C_22  and  C_23 
REMARK    9  A    between atoms: C_27  and  C_30 
REMARK   10  A    between atoms: N_33  and  S_34 
ROOT
HETATM    1  C   UNL     1      10.420   4.986  91.963  1.00  0.00     0.056 A 
HETATM    2  C   UNL     1      10.062   5.675  90.823  1.00  0.00     0.005 A 
HETATM    3  C   UNL     1       9.764   5.158  93.163  1.00  0.00     0.005 A 
HETATM    4  C   UNL     1       8.320   6.769  92.088  1.00  0.00     0.042 A 
HETATM    5  C   UNL     1       9.000   6.577  90.885  1.00  0.00     0.008 A 
HETATM    6  C   UNL     1       8.702   6.060  93.227  1.00  0.00     0.008 A 
ENDROOT
BRANCH   1   7
HETATM    7  C   UNL     1      11.550   4.024  91.895  1.00  0.00     0.254 C 
HETATM    8  O   UNL     1      11.342   2.881  91.493  1.00  0.00    -0.268 OA
HETATM    9  N   UNL     1      12.791   4.514  92.279  1.00  0.00    -0.337 N 
HETATM   10  HN  UNL     1      12.892   5.478  92.577  1.00  0.00     0.164 HD
BRANCH   9  11
HETATM   11  C   UNL     1      13.987   3.711  92.246  1.00  0.00     0.172 C 
BRANCH  11  12
HETATM   12  C   UNL     1      14.799   3.910  90.960  1.00  0.00     0.136 C 
HETATM   13  C   UNL     1      14.051   3.440  89.718  1.00  0.00     0.034 C 
BRANCH  12  14
HETATM   14  O   UNL     1      15.125   5.291  90.810  1.00  0.00    -0.383 OA
HETATM   15  H   UNL     1      14.540   5.807  91.390  1.00  0.00     0.210 HD
ENDBRANCH  12  14
ENDBRANCH  11  12
BRANCH  11  16
HETATM   16  C   UNL     1      14.812   4.053  93.482  1.00  0.00     0.398 A 
HETATM   17  O   UNL     1      15.552   5.033  93.543  1.00  0.00    -0.136 OA
HETATM   18  N   UNL     1      16.245   3.811  94.123  1.00  0.00     0.142 N 
HETATM   19  HN  UNL     1      16.956   4.468  94.282  1.00  0.00     0.338 HD
BRANCH  18  20
HETATM   20  S   UNL     1      16.240   2.420  94.118  1.00  0.00     0.076 SA
HETATM   21  H   UNL     1      15.230   1.892  94.455  1.00  0.00     0.136 HD
ENDBRANCH  18  20
ENDBRANCH  11  16
ENDBRANCH   9  11
ENDBRANCH   1   7
BRANCH   4  22
HETATM   22  C   UNL     1       7.234   7.696  92.153  1.00  0.00    -0.059 C 
HETATM   23  C   UNL     1       6.319   8.475  92.208  1.00  0.00    -0.059 C 
BRANCH  23  24
HETATM   24  C   UNL     1       5.231   9.402  92.273  1.00  0.00     0.042 A 
HETATM   25  C   UNL     1       4.653   9.710  93.504  1.00  0.00     0.008 A 
HETATM   26  C   UNL     1       3.591  10.612  93.567  1.00  0.00    -0.002 A 
HETATM   27  C   UNL     1       3.109  11.206  92.400  1.00  0.00     0.011 A 
HETATM   28  C   UNL     1       3.690  10.897  91.170  1.00  0.00    -0.002 A 
HETATM   29  C   UNL     1       4.751   9.994  91.107  1.00  0.00     0.008 A 
BRANCH  27  30
HETATM   30  C   UNL     1       1.975  12.172  92.469  1.00  0.00     0.277 C 
BRANCH  30  31
HETATM   31  N   UNL     1       2.421  13.561  92.385  1.00  0.00     0.147 N 
HETATM   32  C   UNL     1       2.963  14.014  93.674  1.00  0.00     0.283 C 
HETATM   33  C   UNL     1       3.432  15.462  93.558  1.00  0.00     0.178 C 
HETATM   34  O   UNL     1       4.418  15.585  92.532  1.00  0.00    -0.350 OA
HETATM   35  C   UNL     1       3.890  15.176  91.270  1.00  0.00     0.178 C 
HETATM   36  C   UNL     1       3.432  13.723  91.330  1.00  0.00     0.283 C 
ENDBRANCH  30  31
ENDBRANCH  27  30
ENDBRANCH  23  24
ENDBRANCH   4  22
TORSDOF 10
ENDMDL
