MODEL 1
REMARK VINA RESULT:      -7.1      0.000      0.000
REMARK  10 active torsions:
REMARK  status: ('A' for Active; 'I' for Inactive)
REMARK    1  A    between atoms: O_2  and  C_18 
REMARK    2  A    between atoms: O_5  and  N_8 
REMARK    3  A    between atoms: N_6  and  C_11 
REMARK    4  A    between atoms: N_7  and  C_15 
REMARK       I    between atoms: N_7  and  C_24 
REMARK       I    between atoms: N_8  and  C_23 
REMARK    5  A    between atoms: C_11  and  C_14 
REMARK    6  A    between atoms: C_15  and  C_18 
REMARK    7  A    between atoms: C_15  and  C_23 
REMARK    8  A    between atoms: C_21  and  C_26 
REMARK    9  A    between atoms: C_24  and  C_25 
REMARK   10  A    between atoms: C_29  and  C_32 
ROOT
HETATM    1  O   UNK     0      16.676   4.319  94.113  0.00  0.00    -0.388 OA
HETATM    2  N   UNK     0      14.785   2.663  92.776  0.00  0.00     0.096 N 
HETATM    3  C   UNK     0      14.670   4.128  92.760  0.00  0.00     0.299 C 
HETATM    4  C   UNK     0      15.455   2.224  94.007  0.00  0.00     0.299 C 
HETATM    5  C   UNK     0      16.053   4.757  92.903  0.00  0.00     0.198 C 
HETATM    6  C   UNK     0      16.820   2.898  94.123  0.00  0.00     0.198 C 
ENDROOT
BRANCH   2   7
HETATM    7  C   UNK     0      13.469   2.039  92.650  0.00  0.00     0.311 C 
BRANCH   7   8
HETATM    8  C   UNK     0      12.396   3.031  92.356  0.00  0.00    -0.030 A 
HETATM    9  C   UNK     0      11.854   3.110  91.072  0.00  0.00     0.010 A 
HETATM   10  C   UNK     0      10.851   4.039  90.795  0.00  0.00     0.021 A 
HETATM   11  C   UNK     0      10.390   4.887  91.802  0.00  0.00     0.018 A 
HETATM   12  C   UNK     0      10.930   4.808  93.084  0.00  0.00     0.021 A 
HETATM   13  C   UNK     0      11.933   3.879  93.361  0.00  0.00     0.010 A 
BRANCH  11  14
HETATM   14  C   UNK     0       9.360   5.838  91.518  0.00  0.00    -0.061 C 
HETATM   15  C   UNK     0       8.494   6.638  91.279  0.00  0.00    -0.061 C 
BRANCH  15  16
HETATM   16  C   UNK     0       7.466   7.589  90.997  0.00  0.00     0.018 A 
HETATM   17  C   UNK     0       7.801   8.914  90.714  0.00  0.00     0.022 A 
HETATM   18  C   UNK     0       6.798   9.842  90.436  0.00  0.00     0.018 A 
HETATM   19  C   UNK     0       5.483   9.426  90.446  0.00  0.00     0.032 A 
HETATM   20  C   UNK     0       5.125   8.123  90.724  0.00  0.00     0.018 A 
HETATM   21  C   UNK     0       6.128   7.195  91.002  0.00  0.00     0.022 A 
BRANCH  19  22
HETATM   22  C   UNK     0       4.415  10.416  90.152  0.00  0.00     0.252 C 
HETATM   23  O   UNK     0       3.294  10.016  89.846  0.00  0.00    -0.268 OA
HETATM   24  N   UNK     0       4.772  11.751  90.275  0.00  0.00    -0.341 N 
HETATM   25  H   UNK     0       5.712  12.007  90.557  0.00  0.00     0.163 HD
BRANCH  24  26
HETATM   26  C   UNK     0       3.842  12.828  90.047  0.00  0.00     0.207 C 
BRANCH  26  27
HETATM   27  C   UNK     0       3.618  13.692  91.293  0.00  0.00     0.146 C 
HETATM   28  C   UNK     0       2.140  13.943  91.572  0.00  0.00     0.042 C 
BRANCH  27  29
HETATM   29  O   UNK     0       4.202  13.054  92.429  0.00  0.00    -0.393 OA
HETATM   30  H   UNK     0       4.579  12.206  92.141  0.00  0.00     0.210 HD
ENDBRANCH  27  29
ENDBRANCH  26  27
BRANCH  26  31
HETATM   31  C   UNK     0       4.369  13.660  88.882  0.00  0.00     0.266 C 
HETATM   32  O   UNK     0       4.709  14.835  88.999  0.00  0.00    -0.269 OA
HETATM   33  N   UNK     0       4.376  12.955  87.702  0.00  0.00    -0.236 N 
HETATM   34  H   UNK     0       4.021  12.018  87.553  0.00  0.00     0.197 HD
BRANCH  33  35
HETATM   35  O   UNK     0       4.812  13.662  86.572  0.00  0.00    -0.287 OA
HETATM   36  H   UNK     0       4.015  14.183  86.375  0.00  0.00     0.244 HD
ENDBRANCH  33  35
ENDBRANCH  26  31
ENDBRANCH  24  26
ENDBRANCH  19  22
ENDBRANCH  15  16
ENDBRANCH  11  14
ENDBRANCH   7   8
ENDBRANCH   2   7
TORSDOF 10
ENDMDL
