MODEL 1
REMARK VINA RESULT:      -6.2      0.000      0.000
REMARK  10 active torsions:
REMARK  status: ('A' for Active; 'I' for Inactive)
REMARK    1  A    between atoms: O_2  and  C_18 
REMARK    2  A    between atoms: O_5  and  N_8 
REMARK    3  A    between atoms: N_6  and  C_11 
REMARK    4  A    between atoms: N_7  and  C_15 
REMARK       I    between atoms: N_7  and  C_24 
REMARK       I    between atoms: N_8  and  C_23 
REMARK    5  A    between atoms: C_11  and  C_14 
REMARK    6  A    between atoms: C_15  and  C_18 
REMARK    7  A    between atoms: C_15  and  C_23 
REMARK    8  A    between atoms: C_21  and  C_26 
REMARK    9  A    between atoms: C_24  and  C_25 
REMARK   10  A    between atoms: C_29  and  C_32 
ROOT
HETATM    1  O   UNK     0      16.892   3.830  93.845  0.00  0.00    -0.388 OA
HETATM    2  N   UNK     0      14.335   2.980  92.930  0.00  0.00     0.096 N 
HETATM    3  C   UNK     0      15.465   2.046  93.029  0.00  0.00     0.299 C 
HETATM    4  C   UNK     0      14.828   4.340  92.677  0.00  0.00     0.299 C 
HETATM    5  C   UNK     0      16.424   2.509  94.122  0.00  0.00     0.198 C 
HETATM    6  C   UNK     0      15.802   4.751  93.778  0.00  0.00     0.198 C 
ENDROOT
BRANCH   2   7
HETATM    7  C   UNK     0      13.408   2.561  91.880  0.00  0.00     0.311 C 
BRANCH   7   8
HETATM    8  C   UNK     0      12.301   3.539  91.676  0.00  0.00    -0.030 A 
HETATM    9  C   UNK     0      11.533   3.959  92.762  0.00  0.00     0.010 A 
HETATM   10  C   UNK     0      10.497   4.873  92.572  0.00  0.00     0.021 A 
HETATM   11  C   UNK     0      10.231   5.368  91.296  0.00  0.00     0.018 A 
HETATM   12  C   UNK     0      10.998   4.950  90.210  0.00  0.00     0.021 A 
HETATM   13  C   UNK     0      12.034   4.035  90.400  0.00  0.00     0.010 A 
BRANCH  11  14
HETATM   14  C   UNK     0       9.169   6.307  91.101  0.00  0.00    -0.061 C 
HETATM   15  C   UNK     0       8.276   7.095  90.936  0.00  0.00    -0.061 C 
BRANCH  15  16
HETATM   16  C   UNK     0       7.217   8.034  90.742  0.00  0.00     0.018 A 
HETATM   17  C   UNK     0       6.591   8.617  91.844  0.00  0.00     0.022 A 
HETATM   18  C   UNK     0       5.558   9.535  91.654  0.00  0.00     0.018 A 
HETATM   19  C   UNK     0       5.174   9.850  90.368  0.00  0.00     0.032 A 
HETATM   20  C   UNK     0       5.777   9.289  89.262  0.00  0.00     0.018 A 
HETATM   21  C   UNK     0       6.809   8.370  89.451  0.00  0.00     0.022 A 
BRANCH  19  22
HETATM   22  C   UNK     0       4.073  10.827  90.166  0.00  0.00     0.252 C 
HETATM   23  O   UNK     0       3.205  10.588  89.330  0.00  0.00    -0.268 OA
HETATM   24  N   UNK     0       4.100  11.951  90.979  0.00  0.00    -0.341 N 
HETATM   25  H   UNK     0       4.836  12.069  91.666  0.00  0.00     0.163 HD
BRANCH  24  26
HETATM   26  C   UNK     0       3.089  12.976  90.920  0.00  0.00     0.207 C 
BRANCH  26  27
HETATM   27  C   UNK     0       2.299  13.106  92.229  0.00  0.00     0.146 C 
HETATM   28  C   UNK     0       1.499  11.850  92.555  0.00  0.00     0.042 C 
BRANCH  27  29
HETATM   29  O   UNK     0       3.198  13.376  93.304  0.00  0.00    -0.393 OA
HETATM   30  H   UNK     0       2.794  13.052  94.127  0.00  0.00     0.210 HD
ENDBRANCH  27  29
ENDBRANCH  26  27
BRANCH  26  31
HETATM   31  C   UNK     0       3.777  14.288  90.555  0.00  0.00     0.266 C 
HETATM   32  O   UNK     0       3.800  15.263  91.304  0.00  0.00    -0.269 OA
HETATM   33  N   UNK     0       4.320  14.255  89.293  0.00  0.00    -0.236 N 
HETATM   34  H   UNK     0       4.242  13.503  88.618  0.00  0.00     0.197 HD
BRANCH  33  35
HETATM   35  O   UNK     0       4.939  15.438  88.865  0.00  0.00    -0.287 OA
HETATM   36  H   UNK     0       4.645  15.463  87.938  0.00  0.00     0.244 HD
ENDBRANCH  33  35
ENDBRANCH  26  31
ENDBRANCH  24  26
ENDBRANCH  19  22
ENDBRANCH  15  16
ENDBRANCH  11  14
ENDBRANCH   7   8
ENDBRANCH   2   7
TORSDOF 10
ENDMDL
