MODEL 1
REMARK VINA RESULT:      -7.5      0.000      0.000
REMARK  9 active torsions:
REMARK  status: ('A' for Active; 'I' for Inactive)
REMARK    1  A    between atoms: O_2  and  C_17 
REMARK    2  A    between atoms: N_5  and  C_10 
REMARK    3  A    between atoms: N_6  and  C_14 
REMARK       I    between atoms: N_6  and  C_23 
REMARK       I    between atoms: N_7  and  C_22 
REMARK    4  A    between atoms: C_10  and  C_13 
REMARK    5  A    between atoms: C_14  and  C_17 
REMARK    6  A    between atoms: C_14  and  C_22 
REMARK    7  A    between atoms: C_20  and  C_25 
REMARK    8  A    between atoms: C_23  and  C_24 
REMARK    9  A    between atoms: C_28  and  C_31 
ROOT
HETATM    1  O   UNL     1      16.041   3.951  93.974  1.00  0.00    -0.388 OA
HETATM    2  N   UNL     1      14.072   2.558  92.462  1.00  0.00     0.096 N 
HETATM    3  C   UNL     1      14.235   4.015  92.354  1.00  0.00     0.299 C 
HETATM    4  C   UNL     1      14.478   2.104  93.799  1.00  0.00     0.299 C 
HETATM    5  C   UNL     1      15.679   4.398  92.666  1.00  0.00     0.198 C 
HETATM    6  C   UNL     1      15.915   2.532  94.077  1.00  0.00     0.198 C 
ENDROOT
BRANCH   2   7
HETATM    7  C   UNL     1      12.692   2.170  92.178  1.00  0.00     0.311 C 
BRANCH   7   8
HETATM    8  C   UNL     1      11.829   3.339  91.847  1.00  0.00    -0.030 A 
HETATM    9  C   UNL     1      11.624   3.699  90.514  1.00  0.00     0.010 A 
HETATM   10  C   UNL     1      10.818   4.794  90.203  1.00  0.00     0.021 A 
HETATM   11  C   UNL     1      10.217   5.528  91.225  1.00  0.00     0.018 A 
HETATM   12  C   UNL     1      10.421   5.170  92.556  1.00  0.00     0.021 A 
HETATM   13  C   UNL     1      11.227   4.075  92.867  1.00  0.00     0.010 A 
BRANCH  11  14
HETATM   14  C   UNL     1       9.389   6.651  90.906  1.00  0.00    -0.061 C 
HETATM   15  C   UNL     1       8.693   7.593  90.638  1.00  0.00    -0.061 C 
BRANCH  15  16
HETATM   16  C   UNL     1       7.865   8.714  90.319  1.00  0.00     0.018 A 
HETATM   17  C   UNL     1       6.485   8.639  90.514  1.00  0.00     0.022 A 
HETATM   18  C   UNL     1       5.678   9.734  90.205  1.00  0.00     0.018 A 
HETATM   19  C   UNL     1       6.267  10.878  89.710  1.00  0.00     0.032 A 
HETATM   20  C   UNL     1       7.628  10.978  89.508  1.00  0.00     0.018 A 
HETATM   21  C   UNL     1       8.436   9.883  89.816  1.00  0.00     0.022 A 
BRANCH  19  22
HETATM   22  C   UNL     1       5.406  12.044  89.380  1.00  0.00     0.252 C 
HETATM   23  O   UNL     1       5.349  12.437  88.218  1.00  0.00    -0.268 OA
HETATM   24  N   UNL     1       4.697  12.595  90.438  1.00  0.00    -0.342 N 
HETATM   25  H   UNL     1       4.775  12.200  91.368  1.00  0.00     0.163 HD
BRANCH  24  26
HETATM   26  C   UNL     1       3.802  13.712  90.274  1.00  0.00     0.199 C 
BRANCH  26  27
HETATM   27  C   UNL     1       2.580  13.635  91.197  1.00  0.00     0.145 C 
HETATM   28  C   UNL     1       2.383  12.244  91.790  1.00  0.00     0.042 C 
BRANCH  27  29
HETATM   29  O   UNL     1       2.725  14.575  92.261  1.00  0.00    -0.393 OA
HETATM   30  H   UNL     1       1.842  14.771  92.617  1.00  0.00     0.210 HD
ENDBRANCH  27  29
ENDBRANCH  26  27
BRANCH  26  31
HETATM   31  C   UNL     1       4.601  14.988  90.517  1.00  0.00     0.220 C 
HETATM   32  O   UNL     1       4.873  15.404  91.642  1.00  0.00    -0.278 OA
HETATM   33  N   UNL     1       4.936  15.622  89.345  1.00  0.00    -0.271 NA
HETATM   34  H   UNL     1       4.653  15.357  88.409  1.00  0.00     0.127 HD
HETATM   35  H   UNL     1       4.419  16.818  88.822  1.00  0.00     0.127 HD
ENDBRANCH  26  31
ENDBRANCH  24  26
ENDBRANCH  19  22
ENDBRANCH  15  16
ENDBRANCH  11  14
ENDBRANCH   7   8
ENDBRANCH   2   7
TORSDOF 9
ENDMDL
MODEL 2
REMARK VINA RESULT:      -7.0      1.839      2.536
REMARK  9 active torsions:
REMARK  status: ('A' for Active; 'I' for Inactive)
REMARK    1  A    between atoms: O_2  and  C_17 
REMARK    2  A    between atoms: N_5  and  C_10 
REMARK    3  A    between atoms: N_6  and  C_14 
REMARK       I    between atoms: N_6  and  C_23 
REMARK       I    between atoms: N_7  and  C_22 
REMARK    4  A    between atoms: C_10  and  C_13 
REMARK    5  A    between atoms: C_14  and  C_17 
REMARK    6  A    between atoms: C_14  and  C_22 
REMARK    7  A    between atoms: C_20  and  C_25 
REMARK    8  A    between atoms: C_23  and  C_24 
REMARK    9  A    between atoms: C_28  and  C_31 
ROOT
HETATM    1  O   UNL     1      16.117   4.036  94.036  1.00  0.00    -0.388 OA
HETATM    2  N   UNL     1      14.215   2.698  92.395  1.00  0.00     0.096 N 
HETATM    3  C   UNL     1      14.399   4.154  92.325  1.00  0.00     0.299 C 
HETATM    4  C   UNL     1      14.545   2.213  93.742  1.00  0.00     0.299 C 
HETATM    5  C   UNL     1      15.829   4.514  92.720  1.00  0.00     0.198 C 
HETATM    6  C   UNL     1      15.970   2.618  94.104  1.00  0.00     0.198 C 
ENDROOT
BRANCH   2   7
HETATM    7  C   UNL     1      12.847   2.331  92.031  1.00  0.00     0.311 C 
BRANCH   7   8
HETATM    8  C   UNL     1      11.907   3.485  92.119  1.00  0.00    -0.030 A 
HETATM    9  C   UNL     1      11.290   3.970  90.965  1.00  0.00     0.010 A 
HETATM   10  C   UNL     1      10.412   5.051  91.046  1.00  0.00     0.021 A 
HETATM   11  C   UNL     1      10.151   5.645  92.280  1.00  0.00     0.018 A 
HETATM   12  C   UNL     1      10.767   5.162  93.433  1.00  0.00     0.021 A 
HETATM   13  C   UNL     1      11.645   4.081  93.353  1.00  0.00     0.010 A 
BRANCH  11  14
HETATM   14  C   UNL     1       9.249   6.753  92.363  1.00  0.00    -0.061 C 
HETATM   15  C   UNL     1       8.490   7.683  92.432  1.00  0.00    -0.061 C 
BRANCH  15  16
HETATM   16  C   UNL     1       7.588   8.789  92.515  1.00  0.00     0.018 A 
HETATM   17  C   UNL     1       7.519   9.546  93.685  1.00  0.00     0.022 A 
HETATM   18  C   UNL     1       6.641  10.626  93.765  1.00  0.00     0.018 A 
HETATM   19  C   UNL     1       5.853  10.926  92.674  1.00  0.00     0.032 A 
HETATM   20  C   UNL     1       5.902  10.194  91.506  1.00  0.00     0.018 A 
HETATM   21  C   UNL     1       6.780   9.113  91.426  1.00  0.00     0.022 A 
BRANCH  19  22
HETATM   22  C   UNL     1       4.916  12.077  92.760  1.00  0.00     0.252 C 
HETATM   23  O   UNL     1       4.682  12.579  93.856  1.00  0.00    -0.268 OA
HETATM   24  N   UNL     1       4.384  12.519  91.557  1.00  0.00    -0.342 N 
HETATM   25  H   UNL     1       4.642  12.070  90.686  1.00  0.00     0.163 HD
BRANCH  24  26
HETATM   26  C   UNL     1       3.480  13.638  91.473  1.00  0.00     0.199 C 
BRANCH  26  27
HETATM   27  C   UNL     1       3.453  14.276  90.078  1.00  0.00     0.145 C 
HETATM   28  C   UNL     1       4.807  14.845  89.670  1.00  0.00     0.042 C 
BRANCH  27  29
HETATM   29  O   UNL     1       3.050  13.302  89.116  1.00  0.00    -0.393 OA
HETATM   30  H   UNL     1       2.529  12.619  89.572  1.00  0.00     0.210 HD
ENDBRANCH  27  29
ENDBRANCH  26  27
BRANCH  26  31
HETATM   31  C   UNL     1       2.095  13.151  91.887  1.00  0.00     0.220 C 
HETATM   32  O   UNL     1       1.691  12.011  91.662  1.00  0.00    -0.278 OA
HETATM   33  N   UNL     1       1.358  14.138  92.495  1.00  0.00    -0.271 NA
HETATM   34  H   UNL     1       1.625  15.108  92.615  1.00  0.00     0.127 HD
HETATM   35  H   UNL     1       0.250  14.835  91.989  1.00  0.00     0.127 HD
ENDBRANCH  26  31
ENDBRANCH  24  26
ENDBRANCH  19  22
ENDBRANCH  15  16
ENDBRANCH  11  14
ENDBRANCH   7   8
ENDBRANCH   2   7
TORSDOF 9
ENDMDL
MODEL 3
REMARK VINA RESULT:      -6.8      1.933      2.883
REMARK  9 active torsions:
REMARK  status: ('A' for Active; 'I' for Inactive)
REMARK    1  A    between atoms: O_2  and  C_17 
REMARK    2  A    between atoms: N_5  and  C_10 
REMARK    3  A    between atoms: N_6  and  C_14 
REMARK       I    between atoms: N_6  and  C_23 
REMARK       I    between atoms: N_7  and  C_22 
REMARK    4  A    between atoms: C_10  and  C_13 
REMARK    5  A    between atoms: C_14  and  C_17 
REMARK    6  A    between atoms: C_14  and  C_22 
REMARK    7  A    between atoms: C_20  and  C_25 
REMARK    8  A    between atoms: C_23  and  C_24 
REMARK    9  A    between atoms: C_28  and  C_31 
ROOT
HETATM    1  O   UNL     1      16.555   2.600  93.581  1.00  0.00    -0.388 OA
HETATM    2  N   UNL     1      13.787   2.800  92.951  1.00  0.00     0.096 N 
HETATM    3  C   UNL     1      14.430   1.499  93.180  1.00  0.00     0.299 C 
HETATM    4  C   UNL     1      14.767   3.760  92.424  1.00  0.00     0.299 C 
HETATM    5  C   UNL     1      15.618   1.669  94.124  1.00  0.00     0.198 C 
HETATM    6  C   UNL     1      15.946   3.876  93.384  1.00  0.00     0.198 C 
ENDROOT
BRANCH   2   7
HETATM    7  C   UNL     1      12.651   2.663  92.040  1.00  0.00     0.311 C 
BRANCH   7   8
HETATM    8  C   UNL     1      11.702   3.808  92.140  1.00  0.00    -0.030 A 
HETATM    9  C   UNL     1      11.433   4.384  93.382  1.00  0.00     0.010 A 
HETATM   10  C   UNL     1      10.543   5.454  93.477  1.00  0.00     0.021 A 
HETATM   11  C   UNL     1       9.925   5.949  92.329  1.00  0.00     0.018 A 
HETATM   12  C   UNL     1      10.193   5.375  91.088  1.00  0.00     0.021 A 
HETATM   13  C   UNL     1      11.082   4.304  90.993  1.00  0.00     0.010 A 
BRANCH  11  14
HETATM   14  C   UNL     1       9.014   7.048  92.426  1.00  0.00    -0.061 C 
HETATM   15  C   UNL     1       8.249   7.972  92.507  1.00  0.00    -0.061 C 
BRANCH  15  16
HETATM   16  C   UNL     1       7.338   9.070  92.603  1.00  0.00     0.018 A 
HETATM   17  C   UNL     1       7.182   9.741  93.816  1.00  0.00     0.022 A 
HETATM   18  C   UNL     1       6.295  10.814  93.909  1.00  0.00     0.018 A 
HETATM   19  C   UNL     1       5.587  11.193  92.788  1.00  0.00     0.032 A 
HETATM   20  C   UNL     1       5.725  10.546  91.577  1.00  0.00     0.018 A 
HETATM   21  C   UNL     1       6.610   9.472  91.483  1.00  0.00     0.022 A 
BRANCH  19  22
HETATM   22  C   UNL     1       4.642  12.335  92.887  1.00  0.00     0.252 C 
HETATM   23  O   UNL     1       4.156  12.617  93.980  1.00  0.00    -0.268 OA
HETATM   24  N   UNL     1       4.396  13.025  91.709  1.00  0.00    -0.342 N 
HETATM   25  H   UNL     1       4.854  12.749  90.848  1.00  0.00     0.163 HD
BRANCH  24  26
HETATM   26  C   UNL     1       3.523  14.169  91.648  1.00  0.00     0.199 C 
BRANCH  26  27
HETATM   27  C   UNL     1       3.527  14.847  90.272  1.00  0.00     0.145 C 
HETATM   28  C   UNL     1       4.855  15.529  89.962  1.00  0.00     0.042 C 
BRANCH  27  29
HETATM   29  O   UNL     1       3.257  13.877  89.261  1.00  0.00    -0.393 OA
HETATM   30  H   UNL     1       3.482  12.999  89.613  1.00  0.00     0.210 HD
ENDBRANCH  27  29
ENDBRANCH  26  27
BRANCH  26  31
HETATM   31  C   UNL     1       2.121  13.707  92.034  1.00  0.00     0.220 C 
HETATM   32  O   UNL     1       1.559  12.754  91.497  1.00  0.00    -0.278 OA
HETATM   33  N   UNL     1       1.564  14.497  93.010  1.00  0.00    -0.271 NA
HETATM   34  H   UNL     1       1.962  15.339  93.409  1.00  0.00     0.127 HD
HETATM   35  H   UNL     1       0.520  15.427  92.887  1.00  0.00     0.127 HD
ENDBRANCH  26  31
ENDBRANCH  24  26
ENDBRANCH  19  22
ENDBRANCH  15  16
ENDBRANCH  11  14
ENDBRANCH   7   8
ENDBRANCH   2   7
TORSDOF 9
ENDMDL
MODEL 4
REMARK VINA RESULT:      -6.7      1.324      1.652
REMARK  9 active torsions:
REMARK  status: ('A' for Active; 'I' for Inactive)
REMARK    1  A    between atoms: O_2  and  C_17 
REMARK    2  A    between atoms: N_5  and  C_10 
REMARK    3  A    between atoms: N_6  and  C_14 
REMARK       I    between atoms: N_6  and  C_23 
REMARK       I    between atoms: N_7  and  C_22 
REMARK    4  A    between atoms: C_10  and  C_13 
REMARK    5  A    between atoms: C_14  and  C_17 
REMARK    6  A    between atoms: C_14  and  C_22 
REMARK    7  A    between atoms: C_20  and  C_25 
REMARK    8  A    between atoms: C_23  and  C_24 
REMARK    9  A    between atoms: C_28  and  C_31 
ROOT
HETATM    1  O   UNL     1      16.404   3.192  93.820  1.00  0.00    -0.388 OA
HETATM    2  N   UNL     1      13.802   2.936  92.696  1.00  0.00     0.096 N 
HETATM    3  C   UNL     1      14.640   1.760  92.966  1.00  0.00     0.299 C 
HETATM    4  C   UNL     1      14.648   4.105  92.417  1.00  0.00     0.299 C 
HETATM    5  C   UNL     1      15.590   2.057  94.124  1.00  0.00     0.198 C 
HETATM    6  C   UNL     1      15.597   4.347  93.586  1.00  0.00     0.198 C 
ENDROOT
BRANCH   2   7
HETATM    7  C   UNL     1      12.891   2.677  91.582  1.00  0.00     0.311 C 
BRANCH   7   8
HETATM    8  C   UNL     1      11.832   3.719  91.460  1.00  0.00    -0.030 A 
HETATM    9  C   UNL     1      11.508   4.239  90.207  1.00  0.00     0.010 A 
HETATM   10  C   UNL     1      10.519   5.216  90.092  1.00  0.00     0.021 A 
HETATM   11  C   UNL     1       9.853   5.670  91.230  1.00  0.00     0.018 A 
HETATM   12  C   UNL     1      10.176   5.151  92.482  1.00  0.00     0.021 A 
HETATM   13  C   UNL     1      11.165   4.175  92.597  1.00  0.00     0.010 A 
BRANCH  11  14
HETATM   14  C   UNL     1       8.837   6.671  91.111  1.00  0.00    -0.061 C 
HETATM   15  C   UNL     1       7.983   7.512  91.013  1.00  0.00    -0.061 C 
BRANCH  15  16
HETATM   16  C   UNL     1       6.969   8.512  90.894  1.00  0.00     0.018 A 
HETATM   17  C   UNL     1       6.387   8.770  89.653  1.00  0.00     0.022 A 
HETATM   18  C   UNL     1       5.395   9.744  89.538  1.00  0.00     0.018 A 
HETATM   19  C   UNL     1       5.007  10.437  90.666  1.00  0.00     0.032 A 
HETATM   20  C   UNL     1       5.567  10.201  91.904  1.00  0.00     0.018 A 
HETATM   21  C   UNL     1       6.559   9.227  92.020  1.00  0.00     0.022 A 
BRANCH  19  22
HETATM   22  C   UNL     1       3.952  11.476  90.543  1.00  0.00     0.252 C 
HETATM   23  O   UNL     1       2.894  11.193  89.986  1.00  0.00    -0.268 OA
HETATM   24  N   UNL     1       4.246  12.711  91.105  1.00  0.00    -0.342 N 
HETATM   25  H   UNL     1       5.132  12.864  91.572  1.00  0.00     0.163 HD
BRANCH  24  26
HETATM   26  C   UNL     1       3.316  13.811  91.088  1.00  0.00     0.199 C 
BRANCH  26  27
HETATM   27  C   UNL     1       2.489  13.909  92.376  1.00  0.00     0.145 C 
HETATM   28  C   UNL     1       1.444  12.804  92.484  1.00  0.00     0.042 C 
BRANCH  27  29
HETATM   29  O   UNL     1       3.356  13.838  93.507  1.00  0.00    -0.393 OA
HETATM   30  H   UNL     1       4.030  13.159  93.333  1.00  0.00     0.210 HD
ENDBRANCH  27  29
ENDBRANCH  26  27
BRANCH  26  31
HETATM   31  C   UNL     1       4.112  15.089  90.842  1.00  0.00     0.220 C 
HETATM   32  O   UNL     1       4.306  15.552  89.719  1.00  0.00    -0.278 OA
HETATM   33  N   UNL     1       4.607  15.625  92.006  1.00  0.00    -0.271 NA
HETATM   34  H   UNL     1       4.542  15.223  92.935  1.00  0.00     0.127 HD
HETATM   35  H   UNL     1       5.936  15.655  92.456  1.00  0.00     0.127 HD
ENDBRANCH  26  31
ENDBRANCH  24  26
ENDBRANCH  19  22
ENDBRANCH  15  16
ENDBRANCH  11  14
ENDBRANCH   7   8
ENDBRANCH   2   7
TORSDOF 9
ENDMDL
MODEL 5
REMARK VINA RESULT:      -6.1      1.335      1.777
REMARK  9 active torsions:
REMARK  status: ('A' for Active; 'I' for Inactive)
REMARK    1  A    between atoms: O_2  and  C_17 
REMARK    2  A    between atoms: N_5  and  C_10 
REMARK    3  A    between atoms: N_6  and  C_14 
REMARK       I    between atoms: N_6  and  C_23 
REMARK       I    between atoms: N_7  and  C_22 
REMARK    4  A    between atoms: C_10  and  C_13 
REMARK    5  A    between atoms: C_14  and  C_17 
REMARK    6  A    between atoms: C_14  and  C_22 
REMARK    7  A    between atoms: C_20  and  C_25 
REMARK    8  A    between atoms: C_23  and  C_24 
REMARK    9  A    between atoms: C_28  and  C_31 
ROOT
HETATM    1  O   UNL     1      15.837   3.765  93.996  1.00  0.00    -0.388 OA
HETATM    2  N   UNL     1      13.914   2.553  92.282  1.00  0.00     0.096 N 
HETATM    3  C   UNL     1      14.051   4.013  92.371  1.00  0.00     0.299 C 
HETATM    4  C   UNL     1      14.310   1.932  93.554  1.00  0.00     0.299 C 
HETATM    5  C   UNL     1      15.484   4.375  92.753  1.00  0.00     0.198 C 
HETATM    6  C   UNL     1      15.736   2.343  93.908  1.00  0.00     0.198 C 
ENDROOT
BRANCH   2   7
HETATM    7  C   UNL     1      12.545   2.182  91.927  1.00  0.00     0.311 C 
BRANCH   7   8
HETATM    8  C   UNL     1      11.651   3.368  91.799  1.00  0.00    -0.030 A 
HETATM    9  C   UNL     1      11.098   3.951  92.940  1.00  0.00     0.010 A 
HETATM   10  C   UNL     1      10.259   5.059  92.821  1.00  0.00     0.021 A 
HETATM   11  C   UNL     1       9.976   5.585  91.562  1.00  0.00     0.018 A 
HETATM   12  C   UNL     1      10.528   5.005  90.421  1.00  0.00     0.021 A 
HETATM   13  C   UNL     1      11.366   3.896  90.540  1.00  0.00     0.010 A 
BRANCH  11  14
HETATM   14  C   UNL     1       9.118   6.723  91.440  1.00  0.00    -0.061 C 
HETATM   15  C   UNL     1       8.397   7.680  91.338  1.00  0.00    -0.061 C 
BRANCH  15  16
HETATM   16  C   UNL     1       7.539   8.818  91.215  1.00  0.00     0.018 A 
HETATM   17  C   UNL     1       6.705   9.178  92.274  1.00  0.00     0.022 A 
HETATM   18  C   UNL     1       5.870  10.289  92.155  1.00  0.00     0.018 A 
HETATM   19  C   UNL     1       5.890  11.015  90.982  1.00  0.00     0.032 A 
HETATM   20  C   UNL     1       6.705  10.680  89.922  1.00  0.00     0.018 A 
HETATM   21  C   UNL     1       7.540   9.568  90.039  1.00  0.00     0.022 A 
BRANCH  19  22
HETATM   22  C   UNL     1       4.999  12.198  90.856  1.00  0.00     0.252 C 
HETATM   23  O   UNL     1       4.807  12.688  89.746  1.00  0.00    -0.268 OA
HETATM   24  N   UNL     1       4.420  12.652  92.033  1.00  0.00    -0.342 N 
HETATM   25  H   UNL     1       4.605  12.181  92.910  1.00  0.00     0.163 HD
BRANCH  24  26
HETATM   26  C   UNL     1       3.515  13.772  92.070  1.00  0.00     0.199 C 
BRANCH  26  27
HETATM   27  C   UNL     1       2.077  13.387  91.701  1.00  0.00     0.145 C 
HETATM   28  C   UNL     1       1.624  12.101  92.384  1.00  0.00     0.042 C 
BRANCH  27  29
HETATM   29  O   UNL     1       1.190  14.443  92.067  1.00  0.00    -0.393 OA
HETATM   30  H   UNL     1       0.441  14.441  91.448  1.00  0.00     0.210 HD
ENDBRANCH  27  29
ENDBRANCH  26  27
BRANCH  26  31
HETATM   31  C   UNL     1       3.585  14.381  93.466  1.00  0.00     0.220 C 
HETATM   32  O   UNL     1       2.709  15.115  93.922  1.00  0.00    -0.278 OA
HETATM   33  N   UNL     1       4.744  14.045  94.122  1.00  0.00    -0.271 NA
HETATM   34  H   UNL     1       5.524  13.519  93.745  1.00  0.00     0.127 HD
HETATM   35  H   UNL     1       5.847  14.862  94.416  1.00  0.00     0.127 HD
ENDBRANCH  26  31
ENDBRANCH  24  26
ENDBRANCH  19  22
ENDBRANCH  15  16
ENDBRANCH  11  14
ENDBRANCH   7   8
ENDBRANCH   2   7
TORSDOF 9
ENDMDL
MODEL 6
REMARK VINA RESULT:      -5.4      1.657     12.301
REMARK  9 active torsions:
REMARK  status: ('A' for Active; 'I' for Inactive)
REMARK    1  A    between atoms: O_2  and  C_17 
REMARK    2  A    between atoms: N_5  and  C_10 
REMARK    3  A    between atoms: N_6  and  C_14 
REMARK       I    between atoms: N_6  and  C_23 
REMARK       I    between atoms: N_7  and  C_22 
REMARK    4  A    between atoms: C_10  and  C_13 
REMARK    5  A    between atoms: C_14  and  C_17 
REMARK    6  A    between atoms: C_14  and  C_22 
REMARK    7  A    between atoms: C_20  and  C_25 
REMARK    8  A    between atoms: C_23  and  C_24 
REMARK    9  A    between atoms: C_28  and  C_31 
ROOT
HETATM    1  O   UNL     1       3.052  13.668  92.384  1.00  0.00    -0.388 OA
HETATM    2  N   UNL     1       3.331  12.726  89.712  1.00  0.00     0.096 N 
HETATM    3  C   UNL     1       2.734  11.890  90.763  1.00  0.00     0.299 C 
HETATM    4  C   UNL     1       4.297  13.662  90.302  1.00  0.00     0.299 C 
HETATM    5  C   UNL     1       2.087  12.776  91.824  1.00  0.00     0.198 C 
HETATM    6  C   UNL     1       3.614  14.506  91.373  1.00  0.00     0.198 C 
ENDROOT
BRANCH   2   7
HETATM    7  C   UNL     1       3.967  11.898  88.690  1.00  0.00     0.311 C 
BRANCH   7   8
HETATM    8  C   UNL     1       4.962  10.949  89.266  1.00  0.00    -0.030 A 
HETATM    9  C   UNL     1       4.617   9.611  89.459  1.00  0.00     0.010 A 
HETATM   10  C   UNL     1       5.547   8.722  90.000  1.00  0.00     0.021 A 
HETATM   11  C   UNL     1       6.821   9.172  90.345  1.00  0.00     0.018 A 
HETATM   12  C   UNL     1       7.166  10.508  90.151  1.00  0.00     0.021 A 
HETATM   13  C   UNL     1       6.237  11.397  89.611  1.00  0.00     0.010 A 
BRANCH  11  14
HETATM   14  C   UNL     1       7.775   8.261  90.897  1.00  0.00    -0.061 C 
HETATM   15  C   UNL     1       8.577   7.495  91.363  1.00  0.00    -0.061 C 
BRANCH  15  16
HETATM   16  C   UNL     1       9.529   6.583  91.916  1.00  0.00     0.018 A 
HETATM   17  C   UNL     1       9.665   6.472  93.300  1.00  0.00     0.022 A 
HETATM   18  C   UNL     1      10.593   5.581  93.839  1.00  0.00     0.018 A 
HETATM   19  C   UNL     1      11.362   4.821  92.983  1.00  0.00     0.032 A 
HETATM   20  C   UNL     1      11.248   4.913  91.612  1.00  0.00     0.018 A 
HETATM   21  C   UNL     1      10.320   5.804  91.071  1.00  0.00     0.022 A 
BRANCH  19  22
HETATM   22  C   UNL     1      12.352   3.873  93.558  1.00  0.00     0.252 C 
HETATM   23  O   UNL     1      11.953   2.851  94.111  1.00  0.00    -0.268 OA
HETATM   24  N   UNL     1      13.687   4.217  93.398  1.00  0.00    -0.342 N 
HETATM   25  H   UNL     1      13.943   5.066  92.907  1.00  0.00     0.163 HD
BRANCH  24  26
HETATM   26  C   UNL     1      14.764   3.389  93.878  1.00  0.00     0.199 C 
BRANCH  26  27
HETATM   27  C   UNL     1      14.864   2.053  93.131  1.00  0.00     0.145 C 
HETATM   28  C   UNL     1      14.769   0.853  94.067  1.00  0.00     0.042 C 
BRANCH  27  29
HETATM   29  O   UNL     1      13.820   1.969  92.162  1.00  0.00    -0.393 OA
HETATM   30  H   UNL     1      13.037   1.583  92.590  1.00  0.00     0.210 HD
ENDBRANCH  27  29
ENDBRANCH  26  27
BRANCH  26  31
HETATM   31  C   UNL     1      16.057   4.189  93.758  1.00  0.00     0.220 C 
HETATM   32  O   UNL     1      16.091   5.347  93.345  1.00  0.00    -0.278 OA
HETATM   33  N   UNL     1      17.158   3.455  94.124  1.00  0.00    -0.271 NA
HETATM   34  H   UNL     1      17.176   2.475  94.382  1.00  0.00     0.127 HD
HETATM   35  H   UNL     1      18.168   2.930  93.302  1.00  0.00     0.127 HD
ENDBRANCH  26  31
ENDBRANCH  24  26
ENDBRANCH  19  22
ENDBRANCH  15  16
ENDBRANCH  11  14
ENDBRANCH   7   8
ENDBRANCH   2   7
TORSDOF 9
ENDMDL
MODEL 7
REMARK VINA RESULT:      -5.2      2.039      2.715
REMARK  9 active torsions:
REMARK  status: ('A' for Active; 'I' for Inactive)
REMARK    1  A    between atoms: O_2  and  C_17 
REMARK    2  A    between atoms: N_5  and  C_10 
REMARK    3  A    between atoms: N_6  and  C_14 
REMARK       I    between atoms: N_6  and  C_23 
REMARK       I    between atoms: N_7  and  C_22 
REMARK    4  A    between atoms: C_10  and  C_13 
REMARK    5  A    between atoms: C_14  and  C_17 
REMARK    6  A    between atoms: C_14  and  C_22 
REMARK    7  A    between atoms: C_20  and  C_25 
REMARK    8  A    between atoms: C_23  and  C_24 
REMARK    9  A    between atoms: C_28  and  C_31 
ROOT
HETATM    1  O   UNL     1      16.665   2.757  92.825  1.00  0.00    -0.388 OA
HETATM    2  N   UNL     1      13.845   3.026  93.106  1.00  0.00     0.096 N 
HETATM    3  C   UNL     1      14.642   2.253  94.068  1.00  0.00     0.299 C 
HETATM    4  C   UNL     1      14.487   2.999  91.784  1.00  0.00     0.299 C 
HETATM    5  C   UNL     1      16.065   2.804  94.121  1.00  0.00     0.198 C 
HETATM    6  C   UNL     1      15.913   3.531  91.890  1.00  0.00     0.198 C 
ENDROOT
BRANCH   2   7
HETATM    7  C   UNL     1      12.480   2.508  93.031  1.00  0.00     0.311 C 
BRANCH   7   8
HETATM    8  C   UNL     1      11.462   3.596  92.972  1.00  0.00    -0.030 A 
HETATM    9  C   UNL     1      11.416   4.562  93.978  1.00  0.00     0.010 A 
HETATM   10  C   UNL     1      10.463   5.579  93.925  1.00  0.00     0.021 A 
HETATM   11  C   UNL     1       9.559   5.631  92.865  1.00  0.00     0.018 A 
HETATM   12  C   UNL     1       9.604   4.668  91.860  1.00  0.00     0.021 A 
HETATM   13  C   UNL     1      10.556   3.650  91.913  1.00  0.00     0.010 A 
BRANCH  11  14
HETATM   14  C   UNL     1       8.583   6.676  92.810  1.00  0.00    -0.061 C 
HETATM   15  C   UNL     1       7.763   7.554  92.763  1.00  0.00    -0.061 C 
BRANCH  15  16
HETATM   16  C   UNL     1       6.788   8.598  92.707  1.00  0.00     0.018 A 
HETATM   17  C   UNL     1       7.144   9.904  93.047  1.00  0.00     0.022 A 
HETATM   18  C   UNL     1       6.193  10.922  92.989  1.00  0.00     0.018 A 
HETATM   19  C   UNL     1       4.908  10.613  92.593  1.00  0.00     0.032 A 
HETATM   20  C   UNL     1       4.531   9.331  92.253  1.00  0.00     0.018 A 
HETATM   21  C   UNL     1       5.481   8.312  92.310  1.00  0.00     0.022 A 
BRANCH  19  22
HETATM   22  C   UNL     1       3.895  11.698  92.534  1.00  0.00     0.252 C 
HETATM   23  O   UNL     1       2.853  11.582  93.175  1.00  0.00    -0.268 OA
HETATM   24  N   UNL     1       4.227  12.799  91.756  1.00  0.00    -0.342 N 
HETATM   25  H   UNL     1       5.118  12.836  91.275  1.00  0.00     0.163 HD
BRANCH  24  26
HETATM   26  C   UNL     1       3.360  13.941  91.619  1.00  0.00     0.199 C 
BRANCH  26  27
HETATM   27  C   UNL     1       3.678  15.053  92.627  1.00  0.00     0.145 C 
HETATM   28  C   UNL     1       3.695  14.548  94.066  1.00  0.00     0.042 C 
BRANCH  27  29
HETATM   29  O   UNL     1       4.950  15.625  92.322  1.00  0.00    -0.393 OA
HETATM   30  H   UNL     1       4.948  15.891  91.387  1.00  0.00     0.210 HD
ENDBRANCH  27  29
ENDBRANCH  26  27
BRANCH  26  31
HETATM   31  C   UNL     1       3.477  14.445  90.184  1.00  0.00     0.220 C 
HETATM   32  O   UNL     1       4.158  15.420  89.869  1.00  0.00    -0.278 OA
HETATM   33  N   UNL     1       2.711  13.711  89.312  1.00  0.00    -0.271 NA
HETATM   34  H   UNL     1       2.071  12.961  89.549  1.00  0.00     0.127 HD
HETATM   35  H   UNL     1       1.526  14.089  88.661  1.00  0.00     0.127 HD
ENDBRANCH  26  31
ENDBRANCH  24  26
ENDBRANCH  19  22
ENDBRANCH  15  16
ENDBRANCH  11  14
ENDBRANCH   7   8
ENDBRANCH   2   7
TORSDOF 9
ENDMDL
MODEL 8
REMARK VINA RESULT:      -4.7      1.816     12.218
REMARK  9 active torsions:
REMARK  status: ('A' for Active; 'I' for Inactive)
REMARK    1  A    between atoms: O_2  and  C_17 
REMARK    2  A    between atoms: N_5  and  C_10 
REMARK    3  A    between atoms: N_6  and  C_14 
REMARK       I    between atoms: N_6  and  C_23 
REMARK       I    between atoms: N_7  and  C_22 
REMARK    4  A    between atoms: C_10  and  C_13 
REMARK    5  A    between atoms: C_14  and  C_17 
REMARK    6  A    between atoms: C_14  and  C_22 
REMARK    7  A    between atoms: C_20  and  C_25 
REMARK    8  A    between atoms: C_23  and  C_24 
REMARK    9  A    between atoms: C_28  and  C_31 
ROOT
HETATM    1  O   UNL     1       5.681  14.620  88.871  1.00  0.00    -0.388 OA
HETATM    2  N   UNL     1       3.613  12.862  89.727  1.00  0.00     0.096 N 
HETATM    3  C   UNL     1       4.241  13.816  90.651  1.00  0.00     0.299 C 
HETATM    4  C   UNL     1       4.567  12.473  88.679  1.00  0.00     0.299 C 
HETATM    5  C   UNL     1       4.751  15.028  89.875  1.00  0.00     0.198 C 
HETATM    6  C   UNL     1       5.070  13.715  87.950  1.00  0.00     0.198 C 
ENDROOT
BRANCH   2   7
HETATM    7  C   UNL     1       3.127  11.687  90.449  1.00  0.00     0.311 C 
BRANCH   7   8
HETATM    8  C   UNL     1       4.222  10.734  90.786  1.00  0.00    -0.030 A 
HETATM    9  C   UNL     1       5.524  11.204  90.966  1.00  0.00     0.010 A 
HETATM   10  C   UNL     1       6.550  10.313  91.279  1.00  0.00     0.021 A 
HETATM   11  C   UNL     1       6.273   8.953  91.415  1.00  0.00     0.018 A 
HETATM   12  C   UNL     1       4.974   8.482  91.236  1.00  0.00     0.021 A 
HETATM   13  C   UNL     1       3.948   9.373  90.922  1.00  0.00     0.010 A 
BRANCH  11  14
HETATM   14  C   UNL     1       7.326   8.039  91.739  1.00  0.00    -0.061 C 
HETATM   15  C   UNL     1       8.211   7.272  92.011  1.00  0.00    -0.061 C 
BRANCH  15  16
HETATM   16  C   UNL     1       9.262   6.359  92.336  1.00  0.00     0.018 A 
HETATM   17  C   UNL     1       9.786   6.332  93.629  1.00  0.00     0.022 A 
HETATM   18  C   UNL     1      10.810   5.439  93.946  1.00  0.00     0.018 A 
HETATM   19  C   UNL     1      11.286   4.595  92.965  1.00  0.00     0.032 A 
HETATM   20  C   UNL     1      10.785   4.603  91.680  1.00  0.00     0.018 A 
HETATM   21  C   UNL     1       9.761   5.495  91.361  1.00  0.00     0.022 A 
BRANCH  19  22
HETATM   22  C   UNL     1      12.379   3.646  93.302  1.00  0.00     0.252 C 
HETATM   23  O   UNL     1      12.110   2.460  93.479  1.00  0.00    -0.268 OA
HETATM   24  N   UNL     1      13.655   4.187  93.369  1.00  0.00    -0.342 N 
HETATM   25  H   UNL     1      13.805   5.172  93.186  1.00  0.00     0.163 HD
BRANCH  24  26
HETATM   26  C   UNL     1      14.820   3.391  93.662  1.00  0.00     0.199 C 
BRANCH  26  27
HETATM   27  C   UNL     1      15.180   2.425  92.526  1.00  0.00     0.145 C 
HETATM   28  C   UNL     1      14.635   2.881  91.177  1.00  0.00     0.042 C 
BRANCH  27  29
HETATM   29  O   UNL     1      16.599   2.302  92.435  1.00  0.00    -0.393 OA
HETATM   30  H   UNL     1      16.922   2.962  91.798  1.00  0.00     0.210 HD
ENDBRANCH  27  29
ENDBRANCH  26  27
BRANCH  26  31
HETATM   31  C   UNL     1      15.972   4.345  93.964  1.00  0.00     0.220 C 
HETATM   32  O   UNL     1      17.130   3.966  94.124  1.00  0.00    -0.278 OA
HETATM   33  N   UNL     1      15.551   5.648  94.072  1.00  0.00    -0.271 NA
HETATM   34  H   UNL     1      14.595   5.982  94.035  1.00  0.00     0.127 HD
HETATM   35  H   UNL     1      15.449   6.438  95.228  1.00  0.00     0.127 HD
ENDBRANCH  26  31
ENDBRANCH  24  26
ENDBRANCH  19  22
ENDBRANCH  15  16
ENDBRANCH  11  14
ENDBRANCH   7   8
ENDBRANCH   2   7
TORSDOF 9
ENDMDL
MODEL 9
REMARK VINA RESULT:      -4.5      1.954      2.466
REMARK  9 active torsions:
REMARK  status: ('A' for Active; 'I' for Inactive)
REMARK    1  A    between atoms: O_2  and  C_17 
REMARK    2  A    between atoms: N_5  and  C_10 
REMARK    3  A    between atoms: N_6  and  C_14 
REMARK       I    between atoms: N_6  and  C_23 
REMARK       I    between atoms: N_7  and  C_22 
REMARK    4  A    between atoms: C_10  and  C_13 
REMARK    5  A    between atoms: C_14  and  C_17 
REMARK    6  A    between atoms: C_14  and  C_22 
REMARK    7  A    between atoms: C_20  and  C_25 
REMARK    8  A    between atoms: C_23  and  C_24 
REMARK    9  A    between atoms: C_28  and  C_31 
ROOT
HETATM    1  O   UNL     1      16.454   4.303  93.548  1.00  0.00    -0.388 OA
HETATM    2  N   UNL     1      14.378   2.698  92.447  1.00  0.00     0.096 N 
HETATM    3  C   UNL     1      14.448   4.143  92.191  1.00  0.00     0.299 C 
HETATM    4  C   UNL     1      14.981   2.387  93.750  1.00  0.00     0.299 C 
HETATM    5  C   UNL     1      15.899   4.612  92.268  1.00  0.00     0.198 C 
HETATM    6  C   UNL     1      16.418   2.897  93.791  1.00  0.00     0.198 C 
ENDROOT
BRANCH   2   7
HETATM    7  C   UNL     1      12.994   2.229  92.389  1.00  0.00     0.311 C 
BRANCH   7   8
HETATM    8  C   UNL     1      12.012   3.349  92.436  1.00  0.00    -0.030 A 
HETATM    9  C   UNL     1      11.696   3.946  93.657  1.00  0.00     0.010 A 
HETATM   10  C   UNL     1      10.775   4.993  93.703  1.00  0.00     0.021 A 
HETATM   11  C   UNL     1      10.174   5.444  92.528  1.00  0.00     0.018 A 
HETATM   12  C   UNL     1      10.489   4.848  91.309  1.00  0.00     0.021 A 
HETATM   13  C   UNL     1      11.409   3.801  91.262  1.00  0.00     0.010 A 
BRANCH  11  14
HETATM   14  C   UNL     1       9.231   6.519  92.575  1.00  0.00    -0.061 C 
HETATM   15  C   UNL     1       8.439   7.422  92.614  1.00  0.00    -0.061 C 
BRANCH  15  16
HETATM   16  C   UNL     1       7.496   8.497  92.662  1.00  0.00     0.018 A 
HETATM   17  C   UNL     1       7.933   9.794  92.930  1.00  0.00     0.022 A 
HETATM   18  C   UNL     1       7.013  10.843  92.973  1.00  0.00     0.018 A 
HETATM   19  C   UNL     1       5.680  10.570  92.748  1.00  0.00     0.032 A 
HETATM   20  C   UNL     1       5.224   9.296  92.482  1.00  0.00     0.018 A 
HETATM   21  C   UNL     1       6.142   8.247  92.438  1.00  0.00     0.022 A 
BRANCH  19  22
HETATM   22  C   UNL     1       4.701  11.687  92.797  1.00  0.00     0.252 C 
HETATM   23  O   UNL     1       4.737  12.475  93.739  1.00  0.00    -0.268 OA
HETATM   24  N   UNL     1       3.816  11.766  91.731  1.00  0.00    -0.342 N 
HETATM   25  H   UNL     1       3.862  11.093  90.975  1.00  0.00     0.163 HD
BRANCH  24  26
HETATM   26  C   UNL     1       2.824  12.806  91.622  1.00  0.00     0.199 C 
BRANCH  26  27
HETATM   27  C   UNL     1       1.676  12.638  92.625  1.00  0.00     0.145 C 
HETATM   28  C   UNL     1       1.189  11.196  92.720  1.00  0.00     0.042 C 
BRANCH  27  29
HETATM   29  O   UNL     1       2.104  13.068  93.917  1.00  0.00    -0.393 OA
HETATM   30  H   UNL     1       1.774  13.971  94.063  1.00  0.00     0.210 HD
ENDBRANCH  27  29
ENDBRANCH  26  27
BRANCH  26  31
HETATM   31  C   UNL     1       3.531  14.145  91.807  1.00  0.00     0.220 C 
HETATM   32  O   UNL     1       4.532  14.467  91.169  1.00  0.00    -0.278 OA
HETATM   33  N   UNL     1       2.943  14.911  92.784  1.00  0.00    -0.271 NA
HETATM   34  H   UNL     1       2.176  14.641  93.388  1.00  0.00     0.127 HD
HETATM   35  H   UNL     1       3.429  15.213  94.066  1.00  0.00     0.127 HD
ENDBRANCH  26  31
ENDBRANCH  24  26
ENDBRANCH  19  22
ENDBRANCH  15  16
ENDBRANCH  11  14
ENDBRANCH   7   8
ENDBRANCH   2   7
TORSDOF 9
ENDMDL
