MODEL 1
REMARK VINA RESULT:      -6.3      0.000      0.000
REMARK  11 active torsions:
REMARK  status: ('A' for Active; 'I' for Inactive)
REMARK    1  A    between atoms: O_2  and  C_18 
REMARK    2  A    between atoms: O_5  and  P_8 
REMARK    3  A    between atoms: N_6  and  C_11 
REMARK    4  A    between atoms: N_7  and  C_15 
REMARK       I    between atoms: N_7  and  C_24 
REMARK    5  A    between atoms: P_8  and  C_23 
REMARK    6  A    between atoms: C_11  and  C_14 
REMARK    7  A    between atoms: C_15  and  C_18 
REMARK    8  A    between atoms: C_15  and  C_23 
REMARK    9  A    between atoms: C_21  and  C_26 
REMARK   10  A    between atoms: C_24  and  C_25 
REMARK   11  A    between atoms: C_29  and  C_32 
ROOT
HETATM    1  O   UNL     1      16.959   4.069  93.881  1.00  0.00     0.000 OA
HETATM    2  N   UNL     1      14.482   2.803  93.279  1.00  0.00     0.000 N 
HETATM    3  C   UNL     1      15.760   2.091  93.147  1.00  0.00     0.000 C 
HETATM    4  C   UNL     1      14.682   4.242  93.061  1.00  0.00     0.000 C 
HETATM    5  C   UNL     1      16.779   2.673  94.124  1.00  0.00     0.000 C 
HETATM    6  C   UNL     1      15.726   4.773  94.038  1.00  0.00     0.000 C 
ENDROOT
BRANCH   2   7
HETATM    7  C   UNL     1      13.493   2.268  92.345  1.00  0.00     0.000 C 
BRANCH   7   8
HETATM    8  C   UNL     1      12.385   3.230  92.078  1.00  0.00     0.000 A 
HETATM    9  C   UNL     1      11.780   3.906  93.138  1.00  0.00     0.000 A 
HETATM   10  C   UNL     1      10.742   4.804  92.891  1.00  0.00     0.000 A 
HETATM   11  C   UNL     1      10.311   5.027  91.583  1.00  0.00     0.000 A 
HETATM   12  C   UNL     1      10.915   4.352  90.524  1.00  0.00     0.000 A 
HETATM   13  C   UNL     1      11.952   3.454  90.771  1.00  0.00     0.000 A 
BRANCH  11  14
HETATM   14  C   UNL     1       9.248   5.950  91.329  1.00  0.00     0.000 C 
HETATM   15  C   UNL     1       8.354   6.725  91.117  1.00  0.00     0.000 C 
BRANCH  15  16
HETATM   16  C   UNL     1       7.291   7.648  90.864  1.00  0.00     0.000 A 
HETATM   17  C   UNL     1       7.279   8.888  91.503  1.00  0.00     0.000 A 
HETATM   18  C   UNL     1       6.243   9.789  91.254  1.00  0.00     0.000 A 
HETATM   19  C   UNL     1       5.246   9.431  90.372  1.00  0.00     0.000 A 
HETATM   20  C   UNL     1       5.236   8.212  89.727  1.00  0.00     0.000 A 
HETATM   21  C   UNL     1       6.270   7.310  89.976  1.00  0.00     0.000 A 
BRANCH  19  22
HETATM   22  C   UNL     1       4.142  10.391  90.108  1.00  0.00     0.000 C 
HETATM   23  O   UNL     1       3.007   9.961  89.916  1.00  0.00     0.000 OA
HETATM   24  N   UNL     1       4.488  11.735  90.125  1.00  0.00     0.000 N 
HETATM   25  HN  UNL     1       5.443  12.016  90.316  1.00  0.00     0.000 HD
BRANCH  24  26
HETATM   26  C   UNL     1       3.526  12.786  89.912  1.00  0.00     0.000 C 
BRANCH  26  27
HETATM   27  C   UNL     1       2.735  13.133  91.179  1.00  0.00     0.000 C 
HETATM   28  C   UNL     1       3.639  13.492  92.353  1.00  0.00     0.000 C 
BRANCH  27  29
HETATM   29  O   UNL     1       1.864  14.231  90.912  1.00  0.00     0.000 OA
HETATM   30  H   UNL     1       2.125  14.973  91.483  1.00  0.00     0.000 HD
ENDBRANCH  27  29
ENDBRANCH  26  27
BRANCH  26  31
HETATM   31  C   UNL     1       4.276  14.001  89.376  1.00  0.00     0.000 C 
HETATM   32  O   UNL     1       4.168  15.124  89.866  1.00  0.00     0.000 OA
BRANCH  31  33
HETATM   33  P   UNL     1       5.040  13.697  88.276  1.00  0.00     0.000 P 
HETATM   34  H   UNL     1       5.249  14.864  87.570  1.00  0.00     0.000 HD
BRANCH  33  35
HETATM   35  O   UNL     1       4.492  12.753  87.395  1.00  0.00     0.000 OA
HETATM   36  H   UNL     1       4.125  12.115  88.030  1.00  0.00     0.000 HD
ENDBRANCH  33  35
ENDBRANCH  31  33
ENDBRANCH  26  31
ENDBRANCH  24  26
ENDBRANCH  19  22
ENDBRANCH  15  16
ENDBRANCH  11  14
ENDBRANCH   7   8
ENDBRANCH   2   7
TORSDOF 11
ENDMDL
