MODEL 1
REMARK VINA RESULT:      -7.1      0.000      0.000
REMARK  10 active torsions:
REMARK  status: ('A' for Active; 'I' for Inactive)
REMARK    1  A    between atoms: O_2  and  C_18 
REMARK    2  A    between atoms: O_5  and  N_8 
REMARK    3  A    between atoms: N_6  and  C_11 
REMARK    4  A    between atoms: N_7  and  C_15 
REMARK       I    between atoms: N_7  and  C_24 
REMARK       I    between atoms: N_8  and  C_23 
REMARK    5  A    between atoms: C_11  and  C_14 
REMARK    6  A    between atoms: C_15  and  C_18 
REMARK    7  A    between atoms: C_15  and  C_23 
REMARK    8  A    between atoms: C_21  and  C_26 
REMARK    9  A    between atoms: C_24  and  C_25 
REMARK   10  A    between atoms: C_29  and  C_32 
ROOT
HETATM    1  O   UNK     0      16.649   4.318  94.118  0.00  0.00    -0.388 OA
HETATM    2  N   UNK     0      14.784   2.581  92.850  0.00  0.00     0.096 N 
HETATM    3  C   UNK     0      14.602   4.040  92.845  0.00  0.00     0.299 C 
HETATM    4  C   UNK     0      15.522   2.171  94.053  0.00  0.00     0.299 C 
HETATM    5  C   UNK     0      15.961   4.731  92.937  0.00  0.00     0.198 C 
HETATM    6  C   UNK     0      16.858   2.905  94.117  0.00  0.00     0.198 C 
ENDROOT
BRANCH   2   7
HETATM    7  C   UNK     0      13.494   1.898  92.774  0.00  0.00     0.311 C 
BRANCH   7   8
HETATM    8  C   UNK     0      12.374   2.833  92.464  0.00  0.00    -0.030 A 
HETATM    9  C   UNK     0      11.939   3.742  93.429  0.00  0.00     0.010 A 
HETATM   10  C   UNK     0      10.890   4.615  93.141  0.00  0.00     0.021 A 
HETATM   11  C   UNK     0      10.279   4.579  91.888  0.00  0.00     0.018 A 
HETATM   12  C   UNK     0      10.713   3.672  90.924  0.00  0.00     0.021 A 
HETATM   13  C   UNK     0      11.761   2.798  91.212  0.00  0.00     0.010 A 
BRANCH  11  14
HETATM   14  C   UNK     0       9.204   5.477  91.592  0.00  0.00    -0.061 C 
HETATM   15  C   UNK     0       8.301   6.231  91.344  0.00  0.00    -0.061 C 
BRANCH  15  16
HETATM   16  C   UNK     0       7.228   7.127  91.050  0.00  0.00     0.018 A 
HETATM   17  C   UNK     0       6.726   7.964  92.047  0.00  0.00     0.022 A 
HETATM   18  C   UNK     0       5.680   8.840  91.760  0.00  0.00     0.018 A 
HETATM   19  C   UNK     0       5.159   8.862  90.483  0.00  0.00     0.032 A 
HETATM   20  C   UNK     0       5.637   8.045  89.480  0.00  0.00     0.018 A 
HETATM   21  C   UNK     0       6.683   7.168  89.766  0.00  0.00     0.022 A 
BRANCH  19  22
HETATM   22  C   UNK     0       4.043   9.794  90.178  0.00  0.00     0.252 C 
HETATM   23  O   UNK     0       2.932   9.337  89.923  0.00  0.00    -0.268 OA
HETATM   24  N   UNK     0       4.350  11.147  90.230  0.00  0.00    -0.341 N 
HETATM   25  H   UNK     0       5.285  11.452  90.473  0.00  0.00     0.163 HD
BRANCH  24  26
HETATM   26  C   UNK     0       3.370  12.174  89.984  0.00  0.00     0.207 C 
BRANCH  26  27
HETATM   27  C   UNK     0       2.878  12.846  91.271  0.00  0.00     0.146 C 
HETATM   28  C   UNK     0       4.023  13.351  92.142  0.00  0.00     0.042 C 
BRANCH  27  29
HETATM   29  O   UNK     0       2.027  13.944  90.942  0.00  0.00    -0.393 OA
HETATM   30  H   UNK     0       1.427  13.662  90.231  0.00  0.00     0.210 HD
ENDBRANCH  27  29
ENDBRANCH  26  27
BRANCH  26  31
HETATM   31  C   UNK     0       3.991  13.190  89.030  0.00  0.00     0.266 C 
HETATM   32  O   UNK     0       4.127  14.379  89.314  0.00  0.00    -0.269 OA
HETATM   33  N   UNK     0       4.334  12.628  87.824  0.00  0.00    -0.236 N 
HETATM   34  H   UNK     0       4.154  11.677  87.525  0.00  0.00     0.197 HD
BRANCH  33  35
HETATM   35  O   UNK     0       4.877  13.505  86.875  0.00  0.00    -0.287 OA
HETATM   36  H   UNK     0       4.092  14.035  86.658  0.00  0.00     0.244 HD
ENDBRANCH  33  35
ENDBRANCH  26  31
ENDBRANCH  24  26
ENDBRANCH  19  22
ENDBRANCH  15  16
ENDBRANCH  11  14
ENDBRANCH   7   8
ENDBRANCH   2   7
TORSDOF 10
ENDMDL
MODEL 2
REMARK VINA RESULT:      -6.9      1.433      1.942
REMARK  10 active torsions:
REMARK  status: ('A' for Active; 'I' for Inactive)
REMARK    1  A    between atoms: O_2  and  C_18 
REMARK    2  A    between atoms: O_5  and  N_8 
REMARK    3  A    between atoms: N_6  and  C_11 
REMARK    4  A    between atoms: N_7  and  C_15 
REMARK       I    between atoms: N_7  and  C_24 
REMARK       I    between atoms: N_8  and  C_23 
REMARK    5  A    between atoms: C_11  and  C_14 
REMARK    6  A    between atoms: C_15  and  C_18 
REMARK    7  A    between atoms: C_15  and  C_23 
REMARK    8  A    between atoms: C_21  and  C_26 
REMARK    9  A    between atoms: C_24  and  C_25 
REMARK   10  A    between atoms: C_29  and  C_32 
ROOT
HETATM    1  O   UNK     0      16.431   3.031  93.747  0.00  0.00    -0.388 OA
HETATM    2  N   UNK     0      13.804   2.903  92.659  0.00  0.00     0.096 N 
HETATM    3  C   UNK     0      14.557   1.686  92.993  0.00  0.00     0.299 C 
HETATM    4  C   UNK     0      14.730   3.987  92.305  0.00  0.00     0.299 C 
HETATM    5  C   UNK     0      15.540   1.980  94.124  0.00  0.00     0.198 C 
HETATM    6  C   UNK     0      15.709   4.227  93.451  0.00  0.00     0.198 C 
ENDROOT
BRANCH   2   7
HETATM    7  C   UNK     0      12.863   2.647  91.570  0.00  0.00     0.311 C 
BRANCH   7   8
HETATM    8  C   UNK     0      11.733   3.618  91.556  0.00  0.00    -0.030 A 
HETATM    9  C   UNK     0      11.256   4.149  92.755  0.00  0.00     0.010 A 
HETATM   10  C   UNK     0      10.197   5.057  92.743  0.00  0.00     0.021 A 
HETATM   11  C   UNK     0       9.616   5.434  91.532  0.00  0.00     0.018 A 
HETATM   12  C   UNK     0      10.092   4.904  90.334  0.00  0.00     0.021 A 
HETATM   13  C   UNK     0      11.151   3.996  90.346  0.00  0.00     0.010 A 
BRANCH  11  14
HETATM   14  C   UNK     0       8.531   6.366  91.520  0.00  0.00    -0.061 C 
HETATM   15  C   UNK     0       7.619   7.149  91.509  0.00  0.00    -0.061 C 
BRANCH  15  16
HETATM   16  C   UNK     0       6.536   8.081  91.496  0.00  0.00     0.018 A 
HETATM   17  C   UNK     0       6.710   9.360  92.026  0.00  0.00     0.022 A 
HETATM   18  C   UNK     0       5.653  10.270  92.011  0.00  0.00     0.018 A 
HETATM   19  C   UNK     0       4.447   9.883  91.467  0.00  0.00     0.032 A 
HETATM   20  C   UNK     0       4.248   8.625  90.937  0.00  0.00     0.018 A 
HETATM   21  C   UNK     0       5.305   7.714  90.953  0.00  0.00     0.022 A 
BRANCH  19  22
HETATM   22  C   UNK     0       3.321  10.852  91.453  0.00  0.00     0.252 C 
HETATM   23  O   UNK     0       2.200  10.465  91.132  0.00  0.00    -0.268 OA
HETATM   24  N   UNK     0       3.630  12.149  91.839  0.00  0.00    -0.341 N 
HETATM   25  H   UNK     0       4.575  12.390  92.115  0.00  0.00     0.163 HD
BRANCH  24  26
HETATM   26  C   UNK     0       2.643  13.196  91.900  0.00  0.00     0.207 C 
BRANCH  26  27
HETATM   27  C   UNK     0       2.680  13.970  93.224  0.00  0.00     0.146 C 
HETATM   28  C   UNK     0       4.011  13.818  93.952  0.00  0.00     0.042 C 
BRANCH  27  29
HETATM   29  O   UNK     0       2.444  15.355  92.974  0.00  0.00    -0.393 OA
HETATM   30  H   UNK     0       2.137  15.452  92.057  0.00  0.00     0.210 HD
ENDBRANCH  27  29
ENDBRANCH  26  27
BRANCH  26  31
HETATM   31  C   UNK     0       2.872  14.123  90.710  0.00  0.00     0.266 C 
HETATM   32  O   UNK     0       1.965  14.497  89.969  0.00  0.00    -0.269 OA
HETATM   33  N   UNK     0       4.197  14.447  90.552  0.00  0.00    -0.236 N 
HETATM   34  H   UNK     0       4.978  14.086  91.088  0.00  0.00     0.197 HD
BRANCH  33  35
HETATM   35  O   UNK     0       4.498  15.266  89.455  0.00  0.00    -0.287 OA
HETATM   36  H   UNK     0       3.954  16.044  89.664  0.00  0.00     0.244 HD
ENDBRANCH  33  35
ENDBRANCH  26  31
ENDBRANCH  24  26
ENDBRANCH  19  22
ENDBRANCH  15  16
ENDBRANCH  11  14
ENDBRANCH   7   8
ENDBRANCH   2   7
TORSDOF 10
ENDMDL
MODEL 3
REMARK VINA RESULT:      -6.3      1.872      2.763
REMARK  10 active torsions:
REMARK  status: ('A' for Active; 'I' for Inactive)
REMARK    1  A    between atoms: O_2  and  C_18 
REMARK    2  A    between atoms: O_5  and  N_8 
REMARK    3  A    between atoms: N_6  and  C_11 
REMARK    4  A    between atoms: N_7  and  C_15 
REMARK       I    between atoms: N_7  and  C_24 
REMARK       I    between atoms: N_8  and  C_23 
REMARK    5  A    between atoms: C_11  and  C_14 
REMARK    6  A    between atoms: C_15  and  C_18 
REMARK    7  A    between atoms: C_15  and  C_23 
REMARK    8  A    between atoms: C_21  and  C_26 
REMARK    9  A    between atoms: C_24  and  C_25 
REMARK   10  A    between atoms: C_29  and  C_32 
ROOT
HETATM    1  O   UNK     0      17.086   4.475  93.068  0.00  0.00    -0.388 OA
HETATM    2  N   UNK     0      15.117   2.638  93.991  0.00  0.00     0.096 N 
HETATM    3  C   UNK     0      16.099   2.260  92.965  0.00  0.00     0.299 C 
HETATM    4  C   UNK     0      14.851   4.081  93.925  0.00  0.00     0.299 C 
HETATM    5  C   UNK     0      17.376   3.078  93.145  0.00  0.00     0.198 C 
HETATM    6  C   UNK     0      16.156   4.857  94.082  0.00  0.00     0.198 C 
ENDROOT
BRANCH   2   7
HETATM    7  C   UNK     0      13.881   1.874  93.831  0.00  0.00     0.311 C 
BRANCH   7   8
HETATM    8  C   UNK     0      12.837   2.633  93.084  0.00  0.00    -0.030 A 
HETATM    9  C   UNK     0      12.211   3.727  93.682  0.00  0.00     0.010 A 
HETATM   10  C   UNK     0      11.232   4.436  92.985  0.00  0.00     0.021 A 
HETATM   11  C   UNK     0      10.882   4.052  91.691  0.00  0.00     0.018 A 
HETATM   12  C   UNK     0      11.507   2.959  91.094  0.00  0.00     0.021 A 
HETATM   13  C   UNK     0      12.485   2.249  91.790  0.00  0.00     0.010 A 
BRANCH  11  14
HETATM   14  C   UNK     0       9.880   4.781  90.976  0.00  0.00    -0.061 C 
HETATM   15  C   UNK     0       9.038   5.393  90.375  0.00  0.00    -0.061 C 
BRANCH  15  16
HETATM   16  C   UNK     0       8.037   6.122  89.662  0.00  0.00     0.018 A 
HETATM   17  C   UNK     0       6.823   6.424  90.280  0.00  0.00     0.022 A 
HETATM   18  C   UNK     0       5.846   7.138  89.585  0.00  0.00     0.018 A 
HETATM   19  C   UNK     0       6.105   7.533  88.289  0.00  0.00     0.032 A 
HETATM   20  C   UNK     0       7.296   7.247  87.656  0.00  0.00     0.018 A 
HETATM   21  C   UNK     0       8.273   6.533  88.350  0.00  0.00     0.022 A 
BRANCH  19  22
HETATM   22  C   UNK     0       5.063   8.291  87.548  0.00  0.00     0.252 C 
HETATM   23  O   UNK     0       5.032   8.226  86.322  0.00  0.00    -0.268 OA
HETATM   24  N   UNK     0       4.168   9.013  88.326  0.00  0.00    -0.341 N 
HETATM   25  H   UNK     0       4.240   8.999  89.337  0.00  0.00     0.163 HD
BRANCH  24  26
HETATM   26  C   UNK     0       3.088   9.778  87.757  0.00  0.00     0.207 C 
BRANCH  26  27
HETATM   27  C   UNK     0       1.709   9.192  88.083  0.00  0.00     0.146 C 
HETATM   28  C   UNK     0       1.388   7.956  87.251  0.00  0.00     0.042 C 
BRANCH  27  29
HETATM   29  O   UNK     0       1.652   8.846  89.467  0.00  0.00    -0.393 OA
HETATM   30  H   UNK     0       0.816   8.379  89.631  0.00  0.00     0.210 HD
ENDBRANCH  27  29
ENDBRANCH  26  27
BRANCH  26  31
HETATM   31  C   UNK     0       3.216  11.211  88.263  0.00  0.00     0.266 C 
HETATM   32  O   UNK     0       2.474  11.687  89.120  0.00  0.00    -0.269 OA
HETATM   33  N   UNK     0       4.218  11.900  87.623  0.00  0.00    -0.236 N 
HETATM   34  H   UNK     0       4.786  11.568  86.853  0.00  0.00     0.197 HD
BRANCH  33  35
HETATM   35  O   UNK     0       4.376  13.240  88.005  0.00  0.00    -0.287 OA
HETATM   36  H   UNK     0       4.288  13.678  87.141  0.00  0.00     0.244 HD
ENDBRANCH  33  35
ENDBRANCH  26  31
ENDBRANCH  24  26
ENDBRANCH  19  22
ENDBRANCH  15  16
ENDBRANCH  11  14
ENDBRANCH   7   8
ENDBRANCH   2   7
TORSDOF 10
ENDMDL
MODEL 4
REMARK VINA RESULT:      -6.1      1.436      2.270
REMARK  10 active torsions:
REMARK  status: ('A' for Active; 'I' for Inactive)
REMARK    1  A    between atoms: O_2  and  C_18 
REMARK    2  A    between atoms: O_5  and  N_8 
REMARK    3  A    between atoms: N_6  and  C_11 
REMARK    4  A    between atoms: N_7  and  C_15 
REMARK       I    between atoms: N_7  and  C_24 
REMARK       I    between atoms: N_8  and  C_23 
REMARK    5  A    between atoms: C_11  and  C_14 
REMARK    6  A    between atoms: C_15  and  C_18 
REMARK    7  A    between atoms: C_15  and  C_23 
REMARK    8  A    between atoms: C_21  and  C_26 
REMARK    9  A    between atoms: C_24  and  C_25 
REMARK   10  A    between atoms: C_29  and  C_32 
ROOT
HETATM    1  O   UNK     0      16.069   4.241  93.901  0.00  0.00    -0.388 OA
HETATM    2  N   UNK     0      14.249   2.611  92.440  0.00  0.00     0.096 N 
HETATM    3  C   UNK     0      14.326   4.063  92.222  0.00  0.00     0.299 C 
HETATM    4  C   UNK     0      14.630   2.289  93.821  0.00  0.00     0.299 C 
HETATM    5  C   UNK     0      15.731   4.561  92.550  0.00  0.00     0.198 C 
HETATM    6  C   UNK     0      16.027   2.829  94.113  0.00  0.00     0.198 C 
ENDROOT
BRANCH   2   7
HETATM    7  C   UNK     0      12.908   2.113  92.141  0.00  0.00     0.311 C 
BRANCH   7   8
HETATM    8  C   UNK     0      11.924   3.216  91.939  0.00  0.00    -0.030 A 
HETATM    9  C   UNK     0      11.457   3.941  93.036  0.00  0.00     0.010 A 
HETATM   10  C   UNK     0      10.535   4.971  92.849  0.00  0.00     0.021 A 
HETATM   11  C   UNK     0      10.083   5.276  91.566  0.00  0.00     0.018 A 
HETATM   12  C   UNK     0      10.550   4.553  90.470  0.00  0.00     0.021 A 
HETATM   13  C   UNK     0      11.471   3.523  90.657  0.00  0.00     0.010 A 
BRANCH  11  14
HETATM   14  C   UNK     0       9.140   6.334  91.374  0.00  0.00    -0.061 C 
HETATM   15  C   UNK     0       8.346   7.223  91.213  0.00  0.00    -0.061 C 
BRANCH  15  16
HETATM   16  C   UNK     0       7.403   8.279  91.020  0.00  0.00     0.018 A 
HETATM   17  C   UNK     0       6.076   8.110  91.418  0.00  0.00     0.022 A 
HETATM   18  C   UNK     0       5.156   9.141  91.232  0.00  0.00     0.018 A 
HETATM   19  C   UNK     0       5.582  10.318  90.653  0.00  0.00     0.032 A 
HETATM   20  C   UNK     0       6.887  10.511  90.251  0.00  0.00     0.018 A 
HETATM   21  C   UNK     0       7.807   9.480  90.436  0.00  0.00     0.022 A 
BRANCH  19  22
HETATM   22  C   UNK     0       4.600  11.416  90.454  0.00  0.00     0.252 C 
HETATM   23  O   UNK     0       3.583  11.200  89.799  0.00  0.00    -0.268 OA
HETATM   24  N   UNK     0       4.908  12.625  91.061  0.00  0.00    -0.341 N 
HETATM   25  H   UNK     0       5.755  12.723  91.609  0.00  0.00     0.163 HD
BRANCH  24  26
HETATM   26  C   UNK     0       4.045  13.776  90.980  0.00  0.00     0.207 C 
BRANCH  26  27
HETATM   27  C   UNK     0       4.129  14.486  89.623  0.00  0.00     0.146 C 
HETATM   28  C   UNK     0       5.328  15.422  89.526  0.00  0.00     0.042 C 
BRANCH  27  29
HETATM   29  O   UNK     0       4.214  13.515  88.580  0.00  0.00    -0.393 OA
HETATM   30  H   UNK     0       3.920  13.930  87.752  0.00  0.00     0.210 HD
ENDBRANCH  27  29
ENDBRANCH  26  27
BRANCH  26  31
HETATM   31  C   UNK     0       2.623  13.313  91.277  0.00  0.00     0.266 C 
HETATM   32  O   UNK     0       1.671  13.559  90.539  0.00  0.00    -0.269 OA
HETATM   33  N   UNK     0       2.536  12.636  92.470  0.00  0.00    -0.236 N 
HETATM   34  H   UNK     0       3.280  12.495  93.143  0.00  0.00     0.197 HD
BRANCH  33  35
HETATM   35  O   UNK     0       1.252  12.209  92.836  0.00  0.00    -0.287 OA
HETATM   36  H   UNK     0       0.959  12.970  93.365  0.00  0.00     0.244 HD
ENDBRANCH  33  35
ENDBRANCH  26  31
ENDBRANCH  24  26
ENDBRANCH  19  22
ENDBRANCH  15  16
ENDBRANCH  11  14
ENDBRANCH   7   8
ENDBRANCH   2   7
TORSDOF 10
ENDMDL
MODEL 5
REMARK VINA RESULT:      -6.1      1.230      1.800
REMARK  10 active torsions:
REMARK  status: ('A' for Active; 'I' for Inactive)
REMARK    1  A    between atoms: O_2  and  C_18 
REMARK    2  A    between atoms: O_5  and  N_8 
REMARK    3  A    between atoms: N_6  and  C_11 
REMARK    4  A    between atoms: N_7  and  C_15 
REMARK       I    between atoms: N_7  and  C_24 
REMARK       I    between atoms: N_8  and  C_23 
REMARK    5  A    between atoms: C_11  and  C_14 
REMARK    6  A    between atoms: C_15  and  C_18 
REMARK    7  A    between atoms: C_15  and  C_23 
REMARK    8  A    between atoms: C_21  and  C_26 
REMARK    9  A    between atoms: C_24  and  C_25 
REMARK   10  A    between atoms: C_29  and  C_32 
ROOT
HETATM    1  O   UNK     0      16.045   4.173  93.761  0.00  0.00    -0.388 OA
HETATM    2  N   UNK     0      14.208   2.488  92.386  0.00  0.00     0.096 N 
HETATM    3  C   UNK     0      14.256   3.936  92.138  0.00  0.00     0.299 C 
HETATM    4  C   UNK     0      14.635   2.199  93.761  0.00  0.00     0.299 C 
HETATM    5  C   UNK     0      15.662   4.462  92.415  0.00  0.00     0.198 C 
HETATM    6  C   UNK     0      16.031   2.766  94.001  0.00  0.00     0.198 C 
ENDROOT
BRANCH   2   7
HETATM    7  C   UNK     0      12.867   1.964  92.137  0.00  0.00     0.311 C 
BRANCH   7   8
HETATM    8  C   UNK     0      11.855   3.047  91.974  0.00  0.00    -0.030 A 
HETATM    9  C   UNK     0      11.305   3.302  90.717  0.00  0.00     0.010 A 
HETATM   10  C   UNK     0      10.360   4.316  90.563  0.00  0.00     0.021 A 
HETATM   11  C   UNK     0       9.964   5.073  91.665  0.00  0.00     0.018 A 
HETATM   12  C   UNK     0      10.513   4.819  92.921  0.00  0.00     0.021 A 
HETATM   13  C   UNK     0      11.459   3.805  93.075  0.00  0.00     0.010 A 
BRANCH  11  14
HETATM   14  C   UNK     0       8.994   6.112  91.507  0.00  0.00    -0.061 C 
HETATM   15  C   UNK     0       8.177   6.985  91.374  0.00  0.00    -0.061 C 
BRANCH  15  16
HETATM   16  C   UNK     0       7.209   8.023  91.215  0.00  0.00     0.018 A 
HETATM   17  C   UNK     0       6.864   8.464  89.937  0.00  0.00     0.022 A 
HETATM   18  C   UNK     0       5.916   9.476  89.781  0.00  0.00     0.018 A 
HETATM   19  C   UNK     0       5.335  10.023  90.905  0.00  0.00     0.032 A 
HETATM   20  C   UNK     0       5.658   9.606  92.179  0.00  0.00     0.018 A 
HETATM   21  C   UNK     0       6.606   8.594  92.336  0.00  0.00     0.022 A 
BRANCH  19  22
HETATM   22  C   UNK     0       4.327  11.103  90.739  0.00  0.00     0.252 C 
HETATM   23  O   UNK     0       3.394  10.937  89.956  0.00  0.00    -0.268 OA
HETATM   24  N   UNK     0       4.512  12.234  91.521  0.00  0.00    -0.341 N 
HETATM   25  H   UNK     0       5.293  12.290  92.165  0.00  0.00     0.163 HD
BRANCH  24  26
HETATM   26  C   UNK     0       3.608  13.355  91.491  0.00  0.00     0.207 C 
BRANCH  26  27
HETATM   27  C   UNK     0       3.238  13.857  92.892  0.00  0.00     0.146 C 
HETATM   28  C   UNK     0       4.459  14.041  93.787  0.00  0.00     0.042 C 
BRANCH  27  29
HETATM   29  O   UNK     0       2.550  15.103  92.786  0.00  0.00    -0.393 OA
HETATM   30  H   UNK     0       3.121  15.799  93.154  0.00  0.00     0.210 HD
ENDBRANCH  27  29
ENDBRANCH  26  27
BRANCH  26  31
HETATM   31  C   UNK     0       4.258  14.456  90.660  0.00  0.00     0.266 C 
HETATM   32  O   UNK     0       4.329  15.625  91.036  0.00  0.00    -0.269 OA
HETATM   33  N   UNK     0       4.710  13.994  89.448  0.00  0.00    -0.236 N 
HETATM   34  H   UNK     0       4.589  13.062  89.071  0.00  0.00     0.197 HD
BRANCH  33  35
HETATM   35  O   UNK     0       5.289  14.954  88.606  0.00  0.00    -0.287 OA
HETATM   36  H   UNK     0       6.087  14.478  88.321  0.00  0.00     0.244 HD
ENDBRANCH  33  35
ENDBRANCH  26  31
ENDBRANCH  24  26
ENDBRANCH  19  22
ENDBRANCH  15  16
ENDBRANCH  11  14
ENDBRANCH   7   8
ENDBRANCH   2   7
TORSDOF 10
ENDMDL
MODEL 6
REMARK VINA RESULT:      -5.5      2.022     12.460
REMARK  10 active torsions:
REMARK  status: ('A' for Active; 'I' for Inactive)
REMARK    1  A    between atoms: O_2  and  C_18 
REMARK    2  A    between atoms: O_5  and  N_8 
REMARK    3  A    between atoms: N_6  and  C_11 
REMARK    4  A    between atoms: N_7  and  C_15 
REMARK       I    between atoms: N_7  and  C_24 
REMARK       I    between atoms: N_8  and  C_23 
REMARK    5  A    between atoms: C_11  and  C_14 
REMARK    6  A    between atoms: C_15  and  C_18 
REMARK    7  A    between atoms: C_15  and  C_23 
REMARK    8  A    between atoms: C_21  and  C_26 
REMARK    9  A    between atoms: C_24  and  C_25 
REMARK   10  A    between atoms: C_29  and  C_32 
ROOT
HETATM    1  O   UNK     0       3.606  14.274  92.127  0.00  0.00    -0.388 OA
HETATM    2  N   UNK     0       3.792  13.411  89.421  0.00  0.00     0.096 N 
HETATM    3  C   UNK     0       3.088  12.614  90.435  0.00  0.00     0.299 C 
HETATM    4  C   UNK     0       4.861  14.197  90.052  0.00  0.00     0.299 C 
HETATM    5  C   UNK     0       2.543  13.530  91.527  0.00  0.00     0.198 C 
HETATM    6  C   UNK     0       4.276  15.076  91.154  0.00  0.00     0.198 C 
ENDROOT
BRANCH   2   7
HETATM    7  C   UNK     0       4.332  12.552  88.369  0.00  0.00     0.311 C 
BRANCH   7   8
HETATM    8  C   UNK     0       5.224  11.486  88.908  0.00  0.00    -0.030 A 
HETATM    9  C   UNK     0       4.739  10.187  89.068  0.00  0.00     0.010 A 
HETATM   10  C   UNK     0       5.572   9.189  89.574  0.00  0.00     0.021 A 
HETATM   11  C   UNK     0       6.889   9.491  89.919  0.00  0.00     0.018 A 
HETATM   12  C   UNK     0       7.374  10.787  89.760  0.00  0.00     0.021 A 
HETATM   13  C   UNK     0       6.542  11.785  89.254  0.00  0.00     0.010 A 
BRANCH  11  14
HETATM   14  C   UNK     0       7.744   8.467  90.436  0.00  0.00    -0.061 C 
HETATM   15  C   UNK     0       8.463   7.606  90.871  0.00  0.00    -0.061 C 
BRANCH  15  16
HETATM   16  C   UNK     0       9.315   6.583  91.388  0.00  0.00     0.018 A 
HETATM   17  C   UNK     0       9.968   5.712  90.514  0.00  0.00     0.022 A 
HETATM   18  C   UNK     0      10.802   4.714  91.018  0.00  0.00     0.018 A 
HETATM   19  C   UNK     0      10.966   4.609  92.383  0.00  0.00     0.032 A 
HETATM   20  C   UNK     0      10.332   5.456  93.268  0.00  0.00     0.018 A 
HETATM   21  C   UNK     0       9.497   6.454  92.764  0.00  0.00     0.022 A 
BRANCH  19  22
HETATM   22  C   UNK     0      11.853   3.544  92.920  0.00  0.00     0.252 C 
HETATM   23  O   UNK     0      11.400   2.414  93.086  0.00  0.00    -0.268 OA
HETATM   24  N   UNK     0      13.165   3.917  93.174  0.00  0.00    -0.341 N 
HETATM   25  H   UNK     0      13.474   4.864  92.988  0.00  0.00     0.163 HD
BRANCH  24  26
HETATM   26  C   UNK     0      14.151   2.993  93.673  0.00  0.00     0.207 C 
BRANCH  26  27
HETATM   27  C   UNK     0      14.299   1.748  92.789  0.00  0.00     0.146 C 
HETATM   28  C   UNK     0      15.186   1.997  91.574  0.00  0.00     0.042 C 
BRANCH  27  29
HETATM   29  O   UNK     0      14.854   0.681  93.556  0.00  0.00    -0.393 OA
HETATM   30  H   UNK     0      14.123   0.191  93.970  0.00  0.00     0.210 HD
ENDBRANCH  27  29
ENDBRANCH  26  27
BRANCH  26  31
HETATM   31  C   UNK     0      15.473   3.744  93.798  0.00  0.00     0.266 C 
HETATM   32  O   UNK     0      16.525   3.198  94.124  0.00  0.00    -0.269 OA
HETATM   33  N   UNK     0      15.332   5.087  93.544  0.00  0.00    -0.236 N 
HETATM   34  H   UNK     0      14.468   5.583  93.362  0.00  0.00     0.197 HD
BRANCH  33  35
HETATM   35  O   UNK     0      16.496   5.858  93.676  0.00  0.00    -0.287 OA
HETATM   36  H   UNK     0      16.118   6.753  93.639  0.00  0.00     0.244 HD
ENDBRANCH  33  35
ENDBRANCH  26  31
ENDBRANCH  24  26
ENDBRANCH  19  22
ENDBRANCH  15  16
ENDBRANCH  11  14
ENDBRANCH   7   8
ENDBRANCH   2   7
TORSDOF 10
ENDMDL
MODEL 7
REMARK VINA RESULT:      -5.0      2.153     12.564
REMARK  10 active torsions:
REMARK  status: ('A' for Active; 'I' for Inactive)
REMARK    1  A    between atoms: O_2  and  C_18 
REMARK    2  A    between atoms: O_5  and  N_8 
REMARK    3  A    between atoms: N_6  and  C_11 
REMARK    4  A    between atoms: N_7  and  C_15 
REMARK       I    between atoms: N_7  and  C_24 
REMARK       I    between atoms: N_8  and  C_23 
REMARK    5  A    between atoms: C_11  and  C_14 
REMARK    6  A    between atoms: C_15  and  C_18 
REMARK    7  A    between atoms: C_15  and  C_23 
REMARK    8  A    between atoms: C_21  and  C_26 
REMARK    9  A    between atoms: C_24  and  C_25 
REMARK   10  A    between atoms: C_29  and  C_32 
ROOT
HETATM    1  O   UNK     0       4.352  14.473  89.358  0.00  0.00    -0.388 OA
HETATM    2  N   UNK     0       3.261  13.753  91.887  0.00  0.00     0.096 N 
HETATM    3  C   UNK     0       4.358  14.724  91.772  0.00  0.00     0.299 C 
HETATM    4  C   UNK     0       3.317  12.796  90.774  0.00  0.00     0.299 C 
HETATM    5  C   UNK     0       4.286  15.428  90.420  0.00  0.00     0.198 C 
HETATM    6  C   UNK     0       3.271  13.544  89.445  0.00  0.00     0.198 C 
ENDROOT
BRANCH   2   7
HETATM    7  C   UNK     0       3.316  13.059  93.172  0.00  0.00     0.311 C 
BRANCH   7   8
HETATM    8  C   UNK     0       4.296  11.936  93.170  0.00  0.00    -0.030 A 
HETATM    9  C   UNK     0       4.092  10.834  92.338  0.00  0.00     0.010 A 
HETATM   10  C   UNK     0       5.008   9.782  92.337  0.00  0.00     0.021 A 
HETATM   11  C   UNK     0       6.129   9.834  93.165  0.00  0.00     0.018 A 
HETATM   12  C   UNK     0       6.334  10.934  93.995  0.00  0.00     0.021 A 
HETATM   13  C   UNK     0       5.418  11.986  93.997  0.00  0.00     0.010 A 
BRANCH  11  14
HETATM   14  C   UNK     0       7.069   8.756  93.162  0.00  0.00    -0.061 C 
HETATM   15  C   UNK     0       7.859   7.850  93.159  0.00  0.00    -0.061 C 
BRANCH  15  16
HETATM   16  C   UNK     0       8.798   6.773  93.157  0.00  0.00     0.018 A 
HETATM   17  C   UNK     0       9.803   6.722  94.124  0.00  0.00     0.022 A 
HETATM   18  C   UNK     0      10.718   5.670  94.124  0.00  0.00     0.018 A 
HETATM   19  C   UNK     0      10.609   4.692  93.158  0.00  0.00     0.032 A 
HETATM   20  C   UNK     0       9.626   4.718  92.191  0.00  0.00     0.018 A 
HETATM   21  C   UNK     0       8.711   5.771  92.190  0.00  0.00     0.022 A 
BRANCH  19  22
HETATM   22  C   UNK     0      11.586   3.572  93.157  0.00  0.00     0.252 C 
HETATM   23  O   UNK     0      11.238   2.472  92.733  0.00  0.00    -0.268 OA
HETATM   24  N   UNK     0      12.857   3.873  93.626  0.00  0.00    -0.341 N 
HETATM   25  H   UNK     0      13.079   4.811  93.938  0.00  0.00     0.163 HD
BRANCH  24  26
HETATM   26  C   UNK     0      13.920   2.901  93.665  0.00  0.00     0.207 C 
BRANCH  26  27
HETATM   27  C   UNK     0      13.998   2.055  92.388  0.00  0.00     0.146 C 
HETATM   28  C   UNK     0      14.579   2.830  91.210  0.00  0.00     0.042 C 
BRANCH  27  29
HETATM   29  O   UNK     0      14.804   0.902  92.627  0.00  0.00    -0.393 OA
HETATM   30  H   UNK     0      14.355   0.131  92.243  0.00  0.00     0.210 HD
ENDBRANCH  27  29
ENDBRANCH  26  27
BRANCH  26  31
HETATM   31  C   UNK     0      15.225   3.649  93.916  0.00  0.00     0.266 C 
HETATM   32  O   UNK     0      15.278   4.865  94.086  0.00  0.00    -0.269 OA
HETATM   33  N   UNK     0      16.315   2.813  93.889  0.00  0.00    -0.236 N 
HETATM   34  H   UNK     0      16.317   1.825  93.663  0.00  0.00     0.197 HD
BRANCH  33  35
HETATM   35  O   UNK     0      17.561   3.429  94.073  0.00  0.00    -0.287 OA
HETATM   36  H   UNK     0      17.354   4.333  93.781  0.00  0.00     0.244 HD
ENDBRANCH  33  35
ENDBRANCH  26  31
ENDBRANCH  24  26
ENDBRANCH  19  22
ENDBRANCH  15  16
ENDBRANCH  11  14
ENDBRANCH   7   8
ENDBRANCH   2   7
TORSDOF 10
ENDMDL
MODEL 8
REMARK VINA RESULT:      -4.2      2.183     12.361
REMARK  10 active torsions:
REMARK  status: ('A' for Active; 'I' for Inactive)
REMARK    1  A    between atoms: O_2  and  C_18 
REMARK    2  A    between atoms: O_5  and  N_8 
REMARK    3  A    between atoms: N_6  and  C_11 
REMARK    4  A    between atoms: N_7  and  C_15 
REMARK       I    between atoms: N_7  and  C_24 
REMARK       I    between atoms: N_8  and  C_23 
REMARK    5  A    between atoms: C_11  and  C_14 
REMARK    6  A    between atoms: C_15  and  C_18 
REMARK    7  A    between atoms: C_15  and  C_23 
REMARK    8  A    between atoms: C_21  and  C_26 
REMARK    9  A    between atoms: C_24  and  C_25 
REMARK   10  A    between atoms: C_29  and  C_32 
ROOT
HETATM    1  O   UNK     0       5.022  15.429  90.473  0.00  0.00    -0.388 OA
HETATM    2  N   UNK     0       2.974  13.568  91.137  0.00  0.00     0.096 N 
HETATM    3  C   UNK     0       3.743  14.266  92.176  0.00  0.00     0.299 C 
HETATM    4  C   UNK     0       3.789  13.413  89.926  0.00  0.00     0.299 C 
HETATM    5  C   UNK     0       4.226  15.614  91.645  0.00  0.00     0.198 C 
HETATM    6  C   UNK     0       4.272  14.779  89.447  0.00  0.00     0.198 C 
ENDROOT
BRANCH   2   7
HETATM    7  C   UNK     0       2.510  12.269  91.621  0.00  0.00     0.311 C 
BRANCH   7   8
HETATM    8  C   UNK     0       3.628  11.304  91.816  0.00  0.00    -0.030 A 
HETATM    9  C   UNK     0       4.715  11.650  92.620  0.00  0.00     0.010 A 
HETATM   10  C   UNK     0       5.764  10.748  92.802  0.00  0.00     0.021 A 
HETATM   11  C   UNK     0       5.723   9.500  92.182  0.00  0.00     0.018 A 
HETATM   12  C   UNK     0       4.638   9.152  91.380  0.00  0.00     0.021 A 
HETATM   13  C   UNK     0       3.590  10.054  91.197  0.00  0.00     0.010 A 
BRANCH  11  14
HETATM   14  C   UNK     0       6.798   8.574  92.370  0.00  0.00    -0.061 C 
HETATM   15  C   UNK     0       7.700   7.796  92.529  0.00  0.00    -0.061 C 
BRANCH  15  16
HETATM   16  C   UNK     0       8.774   6.872  92.718  0.00  0.00     0.018 A 
HETATM   17  C   UNK     0       9.752   7.127  93.680  0.00  0.00     0.022 A 
HETATM   18  C   UNK     0      10.799   6.225  93.866  0.00  0.00     0.018 A 
HETATM   19  C   UNK     0      10.846   5.088  93.087  0.00  0.00     0.032 A 
HETATM   20  C   UNK     0       9.893   4.813  92.129  0.00  0.00     0.018 A 
HETATM   21  C   UNK     0       8.845   5.715  91.942  0.00  0.00     0.022 A 
BRANCH  19  22
HETATM   22  C   UNK     0      11.963   4.128  93.284  0.00  0.00     0.252 C 
HETATM   23  O   UNK     0      11.848   3.238  94.123  0.00  0.00    -0.268 OA
HETATM   24  N   UNK     0      13.068   4.305  92.463  0.00  0.00    -0.341 N 
HETATM   25  H   UNK     0      13.082   5.048  91.774  0.00  0.00     0.163 HD
BRANCH  24  26
HETATM   26  C   UNK     0      14.220   3.441  92.517  0.00  0.00     0.207 C 
BRANCH  26  27
HETATM   27  C   UNK     0      15.098   3.699  93.748  0.00  0.00     0.146 C 
HETATM   28  C   UNK     0      16.373   2.863  93.741  0.00  0.00     0.042 C 
BRANCH  27  29
HETATM   29  O   UNK     0      15.451   5.081  93.801  0.00  0.00    -0.393 OA
HETATM   30  H   UNK     0      16.352   5.152  94.159  0.00  0.00     0.210 HD
ENDBRANCH  27  29
ENDBRANCH  26  27
BRANCH  26  31
HETATM   31  C   UNK     0      13.723   1.999  92.483  0.00  0.00     0.266 C 
HETATM   32  O   UNK     0      14.288   1.082  93.075  0.00  0.00    -0.269 OA
HETATM   33  N   UNK     0      12.610   1.852  91.691  0.00  0.00    -0.236 N 
HETATM   34  H   UNK     0      12.173   2.567  91.120  0.00  0.00     0.197 HD
BRANCH  33  35
HETATM   35  O   UNK     0      12.111   0.547  91.576  0.00  0.00    -0.287 OA
HETATM   36  H   UNK     0      12.420   0.168  92.416  0.00  0.00     0.244 HD
ENDBRANCH  33  35
ENDBRANCH  26  31
ENDBRANCH  24  26
ENDBRANCH  19  22
ENDBRANCH  15  16
ENDBRANCH  11  14
ENDBRANCH   7   8
ENDBRANCH   2   7
TORSDOF 10
ENDMDL
