MODEL 1
REMARK VINA RESULT:      -7.5      0.000      0.000
REMARK  9 active torsions:
REMARK  status: ('A' for Active; 'I' for Inactive)
REMARK    1  A    between atoms: N_3  and  C_6 
REMARK    2  A    between atoms: C_6  and  C_9 
REMARK    3  A    between atoms: C_14  and  C_17 
REMARK       I    between atoms: N_26  and  C_15 
REMARK    4  A    between atoms: C_15  and  C_16 
REMARK    5  A    between atoms: C_20  and  C_23 
REMARK    6  A    between atoms: OG1_24  and  CB_28 
REMARK    7  A    between atoms: N_26  and  CA_27 
REMARK    8  A    between atoms: CA_27  and  CB_28 
REMARK    9  A    between atoms: CA_27  and  C_30 
ROOT
HETATM    1  O   UNK A   0       1.926   7.989  87.791  1.00  0.00    -0.388 OA
HETATM    2  N   UNK A   0       4.727   7.500  87.664  1.00  0.00     0.096 N 
HETATM    3  C   UNK A   0       4.189   8.865  87.758  1.00  0.00     0.299 C 
HETATM    4  C   UNK A   0       3.762   6.625  86.984  1.00  0.00     0.299 C 
HETATM    5  C   UNK A   0       2.843   8.841  88.479  1.00  0.00     0.198 C 
HETATM    6  C   UNK A   0       2.427   6.654  87.722  1.00  0.00     0.198 C 
ENDROOT
BRANCH   2   7
HETATM    7  C   UNK A   0       6.012   7.498  86.967  1.00  0.00     0.311 C 
BRANCH   7   8
HETATM    8  C   UNK A   0       7.101   6.894  87.786  1.00  0.00    -0.030 A 
HETATM    9  C   UNK A   0       8.338   6.614  87.203  1.00  0.00     0.010 A 
HETATM   10  C   UNK A   0       9.357   6.047  87.967  1.00  0.00     0.021 A 
HETATM   11  C   UNK A   0       9.140   5.762  89.315  1.00  0.00     0.018 A 
HETATM   12  C   UNK A   0       7.905   6.040  89.898  1.00  0.00     0.021 A 
HETATM   13  C   UNK A   0       6.885   6.607  89.134  1.00  0.00     0.010 A 
BRANCH  11  14
HETATM   14  C   UNK A   0      10.186   5.182  90.100  1.00  0.00    -0.061 C 
HETATM   15  C   UNK A   0      11.065   4.694  90.759  1.00  0.00    -0.061 C 
BRANCH  15  16
HETATM   16  C   UNK A   0      12.110   4.113  91.543  1.00  0.00     0.018 A 
HETATM   17  C   UNK A   0      13.367   3.899  90.978  1.00  0.00     0.022 A 
HETATM   18  C   UNK A   0      14.388   3.335  91.744  1.00  0.00     0.018 A 
HETATM   19  C   UNK A   0      14.129   3.000  93.056  1.00  0.00     0.032 A 
HETATM   20  C   UNK A   0      12.895   3.202  93.638  1.00  0.00     0.018 A 
HETATM   21  C   UNK A   0      11.874   3.765  92.873  1.00  0.00     0.022 A 
BRANCH  19  22
HETATM   22  C   UNK A   0      15.216   2.398  93.871  1.00  0.00     0.252 C 
HETATM   23  O   UNK A   0      16.373   2.775  93.700  1.00  0.00    -0.268 OA
ENDBRANCH  19  22
ENDBRANCH  15  16
ENDBRANCH  11  14
ENDBRANCH   7   8
ENDBRANCH   2   7
TORSDOF 9
ENDMDL
