MODEL 1
REMARK VINA RESULT:      -6.9      0.000      0.000
REMARK  11 active torsions:
REMARK  status: ('A' for Active; 'I' for Inactive)
REMARK    1  A    between atoms: O_2  and  C_18 
REMARK    2  A    between atoms: O_5  and  P_8 
REMARK    3  A    between atoms: N_6  and  C_11 
REMARK    4  A    between atoms: N_7  and  C_15 
REMARK       I    between atoms: N_7  and  C_24 
REMARK    5  A    between atoms: P_8  and  C_23 
REMARK    6  A    between atoms: C_11  and  C_14 
REMARK    7  A    between atoms: C_15  and  C_18 
REMARK    8  A    between atoms: C_15  and  C_23 
REMARK    9  A    between atoms: C_21  and  C_26 
REMARK   10  A    between atoms: C_24  and  C_25 
REMARK   11  A    between atoms: C_29  and  C_32 
ROOT
HETATM    1  O   UNL     1      16.375   4.299  94.119  1.00  0.00     0.000 OA
HETATM    2  N   UNL     1      14.581   2.718  92.575  1.00  0.00     0.000 N 
HETATM    3  C   UNL     1      14.512   4.186  92.567  1.00  0.00     0.000 C 
HETATM    4  C   UNL     1      15.109   2.246  93.862  1.00  0.00     0.000 C 
HETATM    5  C   UNL     1      15.892   4.770  92.859  1.00  0.00     0.000 C 
HETATM    6  C   UNL     1      16.474   2.874  94.124  1.00  0.00     0.000 C 
ENDROOT
BRANCH   2   7
HETATM    7  C   UNL     1      13.266   2.137  92.307  1.00  0.00     0.000 C 
BRANCH   7   8
HETATM    8  C   UNL     1      12.220   3.176  92.088  1.00  0.00     0.000 A 
HETATM    9  C   UNL     1      11.694   3.875  93.176  1.00  0.00     0.000 A 
HETATM   10  C   UNL     1      10.713   4.846  92.972  1.00  0.00     0.000 A 
HETATM   11  C   UNL     1      10.261   5.119  91.681  1.00  0.00     0.000 A 
HETATM   12  C   UNL     1      10.786   4.422  90.595  1.00  0.00     0.000 A 
HETATM   13  C   UNL     1      11.766   3.451  90.798  1.00  0.00     0.000 A 
BRANCH  11  14
HETATM   14  C   UNL     1       9.257   6.116  91.473  1.00  0.00     0.000 C 
HETATM   15  C   UNL     1       8.412   6.954  91.297  1.00  0.00     0.000 C 
BRANCH  15  16
HETATM   16  C   UNL     1       7.409   7.951  91.090  1.00  0.00     0.000 A 
HETATM   17  C   UNL     1       7.276   9.005  91.994  1.00  0.00     0.000 A 
HETATM   18  C   UNL     1       6.299   9.978  91.789  1.00  0.00     0.000 A 
HETATM   19  C   UNL     1       5.477   9.877  90.686  1.00  0.00     0.000 A 
HETATM   20  C   UNL     1       5.587   8.845  89.779  1.00  0.00     0.000 A 
HETATM   21  C   UNL     1       6.565   7.870  89.982  1.00  0.00     0.000 A 
BRANCH  19  22
HETATM   22  C   UNL     1       4.434  10.913  90.470  1.00  0.00     0.000 C 
HETATM   23  O   UNL     1       3.254  10.575  90.416  1.00  0.00     0.000 OA
HETATM   24  N   UNL     1       4.889  12.221  90.368  1.00  0.00     0.000 N 
HETATM   25  HN  UNL     1       5.878  12.428  90.447  1.00  0.00     0.000 HD
BRANCH  24  26
HETATM   26  C   UNL     1       3.999  13.339  90.181  1.00  0.00     0.000 C 
BRANCH  26  27
HETATM   27  C   UNL     1       3.579  13.990  91.505  1.00  0.00     0.000 C 
HETATM   28  C   UNL     1       2.132  13.681  91.875  1.00  0.00     0.000 C 
BRANCH  27  29
HETATM   29  O   UNL     1       4.433  13.533  92.554  1.00  0.00     0.000 OA
HETATM   30  H   UNL     1       5.307  13.940  92.434  1.00  0.00     0.000 HD
ENDBRANCH  27  29
ENDBRANCH  26  27
BRANCH  26  31
HETATM   31  C   UNL     1       4.696  14.341  89.267  1.00  0.00     0.000 C 
HETATM   32  O   UNL     1       4.633  15.558  89.436  1.00  0.00     0.000 OA
BRANCH  31  33
HETATM   33  P   UNL     1       5.355  13.727  88.230  1.00  0.00     0.000 P 
HETATM   34  H   UNL     1       5.990  14.706  87.493  1.00  0.00     0.000 HD
BRANCH  33  35
HETATM   35  O   UNL     1       4.555  12.981  87.354  1.00  0.00     0.000 OA
HETATM   36  H   UNL     1       4.405  13.637  86.653  1.00  0.00     0.000 HD
ENDBRANCH  33  35
ENDBRANCH  31  33
ENDBRANCH  26  31
ENDBRANCH  24  26
ENDBRANCH  19  22
ENDBRANCH  15  16
ENDBRANCH  11  14
ENDBRANCH   7   8
ENDBRANCH   2   7
TORSDOF 11
ENDMDL
