MODEL 1
REMARK VINA RESULT:      -7.0      0.000      0.000
REMARK  11 active torsions:
REMARK  status: ('A' for Active; 'I' for Inactive)
REMARK    1  A    between atoms: O_2  and  C_18 
REMARK    2  A    between atoms: O_5  and  P_8 
REMARK    3  A    between atoms: N_6  and  C_11 
REMARK    4  A    between atoms: N_7  and  C_15 
REMARK       I    between atoms: N_7  and  C_24 
REMARK    5  A    between atoms: P_8  and  C_23 
REMARK    6  A    between atoms: C_11  and  C_14 
REMARK    7  A    between atoms: C_15  and  C_18 
REMARK    8  A    between atoms: C_15  and  C_23 
REMARK    9  A    between atoms: C_21  and  C_26 
REMARK   10  A    between atoms: C_24  and  C_25 
REMARK   11  A    between atoms: C_29  and  C_32 
ROOT
HETATM    1  O   UNL     1      16.295   4.264  94.046  1.00  0.00     0.000 OA
HETATM    2  N   UNL     1      14.520   2.620  92.546  1.00  0.00     0.000 N 
HETATM    3  C   UNL     1      14.463   4.086  92.464  1.00  0.00     0.000 C 
HETATM    4  C   UNL     1      15.019   2.209  93.866  1.00  0.00     0.000 C 
HETATM    5  C   UNL     1      15.841   4.674  92.755  1.00  0.00     0.000 C 
HETATM    6  C   UNL     1      16.383   2.841  94.124  1.00  0.00     0.000 C 
ENDROOT
BRANCH   2   7
HETATM    7  C   UNL     1      13.207   2.035  92.281  1.00  0.00     0.000 C 
BRANCH   7   8
HETATM    8  C   UNL     1      12.174   3.069  91.984  1.00  0.00     0.000 A 
HETATM    9  C   UNL     1      11.567   3.767  93.028  1.00  0.00     0.000 A 
HETATM   10  C   UNL     1      10.599   4.733  92.751  1.00  0.00     0.000 A 
HETATM   11  C   UNL     1      10.241   5.001  91.431  1.00  0.00     0.000 A 
HETATM   12  C   UNL     1      10.848   4.305  90.387  1.00  0.00     0.000 A 
HETATM   13  C   UNL     1      11.815   3.339  90.663  1.00  0.00     0.000 A 
BRANCH  11  14
HETATM   14  C   UNL     1       9.250   5.993  91.147  1.00  0.00     0.000 C 
HETATM   15  C   UNL     1       8.418   6.827  90.908  1.00  0.00     0.000 C 
BRANCH  15  16
HETATM   16  C   UNL     1       7.428   7.819  90.623  1.00  0.00     0.000 A 
HETATM   17  C   UNL     1       6.364   7.516  89.773  1.00  0.00     0.000 A 
HETATM   18  C   UNL     1       5.396   8.483  89.497  1.00  0.00     0.000 A 
HETATM   19  C   UNL     1       5.514   9.728  90.078  1.00  0.00     0.000 A 
HETATM   20  C   UNL     1       6.556  10.052  90.921  1.00  0.00     0.000 A 
HETATM   21  C   UNL     1       7.524   9.086  91.197  1.00  0.00     0.000 A 
BRANCH  19  22
HETATM   22  C   UNL     1       4.484  10.758  89.783  1.00  0.00     0.000 C 
HETATM   23  O   UNL     1       3.467  10.432  89.176  1.00  0.00     0.000 OA
HETATM   24  N   UNL     1       4.751  12.037  90.251  1.00  0.00     0.000 N 
HETATM   25  HN  UNL     1       5.603  12.226  90.767  1.00  0.00     0.000 HD
BRANCH  24  26
HETATM   26  C   UNL     1       3.840  13.137  90.065  1.00  0.00     0.000 C 
BRANCH  26  27
HETATM   27  C   UNL     1       3.260  13.657  91.387  1.00  0.00     0.000 C 
HETATM   28  C   UNL     1       2.293  12.669  92.029  1.00  0.00     0.000 C 
BRANCH  27  29
HETATM   29  O   UNL     1       4.323  13.926  92.301  1.00  0.00     0.000 OA
HETATM   30  H   UNL     1       5.082  14.263  91.796  1.00  0.00     0.000 HD
ENDBRANCH  27  29
ENDBRANCH  26  27
BRANCH  26  31
HETATM   31  C   UNL     1       4.583  14.237  89.315  1.00  0.00     0.000 C 
HETATM   32  O   UNL     1       4.530  15.422  89.637  1.00  0.00     0.000 OA
BRANCH  31  33
HETATM   33  P   UNL     1       5.275  13.750  88.232  1.00  0.00     0.000 P 
HETATM   34  H   UNL     1       5.785  14.827  87.536  1.00  0.00     0.000 HD
BRANCH  33  35
HETATM   35  O   UNL     1       4.531  12.972  87.333  1.00  0.00     0.000 OA
HETATM   36  H   UNL     1       4.424  12.158  87.855  1.00  0.00     0.000 HD
ENDBRANCH  33  35
ENDBRANCH  31  33
ENDBRANCH  26  31
ENDBRANCH  24  26
ENDBRANCH  19  22
ENDBRANCH  15  16
ENDBRANCH  11  14
ENDBRANCH   7   8
ENDBRANCH   2   7
TORSDOF 11
ENDMDL
