MODEL 1
REMARK VINA RESULT:      -7.1      0.000      0.000
REMARK  10 active torsions:
REMARK  status: ('A' for Active; 'I' for Inactive)
REMARK    1  A    between atoms: O_2  and  C_18 
REMARK    2  A    between atoms: O_5  and  N_8 
REMARK    3  A    between atoms: N_6  and  C_11 
REMARK    4  A    between atoms: N_7  and  C_15 
REMARK       I    between atoms: N_7  and  C_24 
REMARK       I    between atoms: N_8  and  C_23 
REMARK    5  A    between atoms: C_11  and  C_14 
REMARK    6  A    between atoms: C_15  and  C_18 
REMARK    7  A    between atoms: C_15  and  C_23 
REMARK    8  A    between atoms: C_21  and  C_26 
REMARK    9  A    between atoms: C_24  and  C_25 
REMARK   10  A    between atoms: C_29  and  C_32 
ROOT
HETATM    1  O   UNK     0      16.446   4.265  94.123  0.00  0.00    -0.388 OA
HETATM    2  N   UNK     0      14.685   2.680  92.545  0.00  0.00     0.096 N 
HETATM    3  C   UNK     0      14.609   4.148  92.542  0.00  0.00     0.299 C 
HETATM    4  C   UNK     0      15.195   2.206  93.838  0.00  0.00     0.299 C 
HETATM    5  C   UNK     0      15.981   4.738  92.858  0.00  0.00     0.198 C 
HETATM    6  C   UNK     0      16.553   2.841  94.124  0.00  0.00     0.198 C 
ENDROOT
BRANCH   2   7
HETATM    7  C   UNK     0      13.378   2.094  92.255  0.00  0.00     0.311 C 
BRANCH   7   8
HETATM    8  C   UNK     0      12.344   3.127  91.963  0.00  0.00    -0.030 A 
HETATM    9  C   UNK     0      12.051   3.466  90.642  0.00  0.00     0.010 A 
HETATM   10  C   UNK     0      11.085   4.434  90.368  0.00  0.00     0.021 A 
HETATM   11  C   UNK     0      10.411   5.060  91.415  0.00  0.00     0.018 A 
HETATM   12  C   UNK     0      10.702   4.722  92.735  0.00  0.00     0.021 A 
HETATM   13  C   UNK     0      11.669   3.755  93.010  0.00  0.00     0.010 A 
BRANCH  11  14
HETATM   14  C   UNK     0       9.418   6.052  91.134  0.00  0.00    -0.061 C 
HETATM   15  C   UNK     0       8.585   6.885  90.898  0.00  0.00    -0.061 C 
BRANCH  15  16
HETATM   16  C   UNK     0       7.594   7.876  90.618  0.00  0.00     0.018 A 
HETATM   17  C   UNK     0       6.374   7.852  91.296  0.00  0.00     0.022 A 
HETATM   18  C   UNK     0       5.407   8.820  91.025  0.00  0.00     0.018 A 
HETATM   19  C   UNK     0       5.681   9.790  90.084  0.00  0.00     0.032 A 
HETATM   20  C   UNK     0       6.878   9.836  89.400  0.00  0.00     0.018 A 
HETATM   21  C   UNK     0       7.844   8.867  89.670  0.00  0.00     0.022 A 
BRANCH  19  22
HETATM   22  C   UNK     0       4.650  10.820  89.794  0.00  0.00     0.252 C 
HETATM   23  O   UNK     0       3.657  10.508  89.141  0.00  0.00    -0.268 OA
HETATM   24  N   UNK     0       4.886  12.082  90.320  0.00  0.00    -0.341 N 
HETATM   25  H   UNK     0       5.717  12.260  90.872  0.00  0.00     0.163 HD
BRANCH  24  26
HETATM   26  C   UNK     0       3.969  13.180  90.147  0.00  0.00     0.207 C 
BRANCH  26  27
HETATM   27  C   UNK     0       3.897  14.094  91.376  0.00  0.00     0.146 C 
HETATM   28  C   UNK     0       4.023  13.322  92.685  0.00  0.00     0.042 C 
BRANCH  27  29
HETATM   29  O   UNK     0       4.939  15.067  91.309  0.00  0.00    -0.393 OA
HETATM   30  H   UNK     0       5.174  15.198  90.375  0.00  0.00     0.210 HD
ENDBRANCH  27  29
ENDBRANCH  26  27
BRANCH  26  31
HETATM   31  C   UNK     0       4.398  13.954  88.905  0.00  0.00     0.266 C 
HETATM   32  O   UNK     0       4.527  15.176  88.889  0.00  0.00    -0.269 OA
HETATM   33  N   UNK     0       4.579  13.133  87.818  0.00  0.00    -0.236 N 
HETATM   34  H   UNK     0       4.396  12.137  87.773  0.00  0.00     0.197 HD
BRANCH  33  35
HETATM   35  O   UNK     0       4.939  13.772  86.623  0.00  0.00    -0.287 OA
HETATM   36  H   UNK     0       4.458  13.224  85.980  0.00  0.00     0.244 HD
ENDBRANCH  33  35
ENDBRANCH  26  31
ENDBRANCH  24  26
ENDBRANCH  19  22
ENDBRANCH  15  16
ENDBRANCH  11  14
ENDBRANCH   7   8
ENDBRANCH   2   7
TORSDOF 10
ENDMDL
MODEL 2
REMARK VINA RESULT:      -6.9      1.308      2.042
REMARK  10 active torsions:
REMARK  status: ('A' for Active; 'I' for Inactive)
REMARK    1  A    between atoms: O_2  and  C_18 
REMARK    2  A    between atoms: O_5  and  N_8 
REMARK    3  A    between atoms: N_6  and  C_11 
REMARK    4  A    between atoms: N_7  and  C_15 
REMARK       I    between atoms: N_7  and  C_24 
REMARK       I    between atoms: N_8  and  C_23 
REMARK    5  A    between atoms: C_11  and  C_14 
REMARK    6  A    between atoms: C_15  and  C_18 
REMARK    7  A    between atoms: C_15  and  C_23 
REMARK    8  A    between atoms: C_21  and  C_26 
REMARK    9  A    between atoms: C_24  and  C_25 
REMARK   10  A    between atoms: C_29  and  C_32 
ROOT
HETATM    1  O   UNK     0      16.795   3.789  93.815  0.00  0.00    -0.388 OA
HETATM    2  N   UNK     0      14.186   3.100  92.909  0.00  0.00     0.096 N 
HETATM    3  C   UNK     0      15.246   2.091  93.036  0.00  0.00     0.299 C 
HETATM    4  C   UNK     0      14.774   4.416  92.627  0.00  0.00     0.299 C 
HETATM    5  C   UNK     0      16.233   2.511  94.121  0.00  0.00     0.198 C 
HETATM    6  C   UNK     0      15.773   4.782  93.721  0.00  0.00     0.198 C 
ENDROOT
BRANCH   2   7
HETATM    7  C   UNK     0      13.233   2.722  91.866  0.00  0.00     0.311 C 
BRANCH   7   8
HETATM    8  C   UNK     0      12.119   3.704  91.732  0.00  0.00    -0.030 A 
HETATM    9  C   UNK     0      11.450   4.157  92.870  0.00  0.00     0.010 A 
HETATM   10  C   UNK     0      10.406   5.074  92.745  0.00  0.00     0.021 A 
HETATM   11  C   UNK     0      10.033   5.538  91.484  0.00  0.00     0.018 A 
HETATM   12  C   UNK     0      10.701   5.086  90.348  0.00  0.00     0.021 A 
HETATM   13  C   UNK     0      11.745   4.169  90.472  0.00  0.00     0.010 A 
BRANCH  11  14
HETATM   14  C   UNK     0       8.964   6.480  91.356  0.00  0.00    -0.061 C 
HETATM   15  C   UNK     0       8.065   7.271  91.250  0.00  0.00    -0.061 C 
BRANCH  15  16
HETATM   16  C   UNK     0       6.997   8.211  91.121  0.00  0.00     0.018 A 
HETATM   17  C   UNK     0       7.278   9.560  90.904  0.00  0.00     0.022 A 
HETATM   18  C   UNK     0       6.236  10.478  90.777  0.00  0.00     0.018 A 
HETATM   19  C   UNK     0       4.935  10.027  90.868  0.00  0.00     0.032 A 
HETATM   20  C   UNK     0       4.630   8.699  91.083  0.00  0.00     0.018 A 
HETATM   21  C   UNK     0       5.673   7.781  91.211  0.00  0.00     0.022 A 
BRANCH  19  22
HETATM   22  C   UNK     0       3.825  11.005  90.734  0.00  0.00     0.252 C 
HETATM   23  O   UNK     0       2.947  10.805  89.899  0.00  0.00    -0.268 OA
HETATM   24  N   UNK     0       3.858  12.085  91.605  0.00  0.00    -0.341 N 
HETATM   25  H   UNK     0       4.603  12.172  92.287  0.00  0.00     0.163 HD
BRANCH  24  26
HETATM   26  C   UNK     0       2.840  13.105  91.615  0.00  0.00     0.207 C 
BRANCH  26  27
HETATM   27  C   UNK     0       2.683  13.773  92.987  0.00  0.00     0.146 C 
HETATM   28  C   UNK     0       3.957  13.703  93.821  0.00  0.00     0.042 C 
BRANCH  27  29
HETATM   29  O   UNK     0       2.319  15.142  92.812  0.00  0.00    -0.393 OA
HETATM   30  H   UNK     0       1.971  15.252  91.911  0.00  0.00     0.210 HD
ENDBRANCH  27  29
ENDBRANCH  26  27
BRANCH  26  31
HETATM   31  C   UNK     0       3.193  14.126  90.538  0.00  0.00     0.266 C 
HETATM   32  O   UNK     0       2.411  14.460  89.650  0.00  0.00    -0.269 OA
HETATM   33  N   UNK     0       4.482  14.585  90.661  0.00  0.00    -0.236 N 
HETATM   34  H   UNK     0       5.180  14.266  91.324  0.00  0.00     0.197 HD
BRANCH  33  35
HETATM   35  O   UNK     0       4.899  15.501  89.684  0.00  0.00    -0.287 OA
HETATM   36  H   UNK     0       5.420  14.916  89.108  0.00  0.00     0.244 HD
ENDBRANCH  33  35
ENDBRANCH  26  31
ENDBRANCH  24  26
ENDBRANCH  19  22
ENDBRANCH  15  16
ENDBRANCH  11  14
ENDBRANCH   7   8
ENDBRANCH   2   7
TORSDOF 10
ENDMDL
MODEL 3
REMARK VINA RESULT:      -6.7      1.596      2.086
REMARK  10 active torsions:
REMARK  status: ('A' for Active; 'I' for Inactive)
REMARK    1  A    between atoms: O_2  and  C_18 
REMARK    2  A    between atoms: O_5  and  N_8 
REMARK    3  A    between atoms: N_6  and  C_11 
REMARK    4  A    between atoms: N_7  and  C_15 
REMARK       I    between atoms: N_7  and  C_24 
REMARK       I    between atoms: N_8  and  C_23 
REMARK    5  A    between atoms: C_11  and  C_14 
REMARK    6  A    between atoms: C_15  and  C_18 
REMARK    7  A    between atoms: C_15  and  C_23 
REMARK    8  A    between atoms: C_21  and  C_26 
REMARK    9  A    between atoms: C_24  and  C_25 
REMARK   10  A    between atoms: C_29  and  C_32 
ROOT
HETATM    1  O   UNK     0      16.847   4.285  94.049  0.00  0.00    -0.388 OA
HETATM    2  N   UNK     0      14.741   2.739  92.919  0.00  0.00     0.096 N 
HETATM    3  C   UNK     0      14.743   4.206  92.841  0.00  0.00     0.299 C 
HETATM    4  C   UNK     0      15.457   2.297  94.123  0.00  0.00     0.299 C 
HETATM    5  C   UNK     0      16.180   4.723  92.864  0.00  0.00     0.198 C 
HETATM    6  C   UNK     0      16.876   2.859  94.116  0.00  0.00     0.198 C 
ENDROOT
BRANCH   2   7
HETATM    7  C   UNK     0      13.374   2.222  92.909  0.00  0.00     0.311 C 
BRANCH   7   8
HETATM    8  C   UNK     0      12.356   3.310  92.851  0.00  0.00    -0.030 A 
HETATM    9  C   UNK     0      12.041   4.032  94.003  0.00  0.00     0.010 A 
HETATM   10  C   UNK     0      11.088   5.048  93.950  0.00  0.00     0.021 A 
HETATM   11  C   UNK     0      10.451   5.343  92.745  0.00  0.00     0.018 A 
HETATM   12  C   UNK     0      10.764   4.623  91.594  0.00  0.00     0.021 A 
HETATM   13  C   UNK     0      11.717   3.606  91.647  0.00  0.00     0.010 A 
BRANCH  11  14
HETATM   14  C   UNK     0       9.474   6.387  92.690  0.00  0.00    -0.061 C 
HETATM   15  C   UNK     0       8.654   7.265  92.644  0.00  0.00    -0.061 C 
BRANCH  15  16
HETATM   16  C   UNK     0       7.678   8.308  92.591  0.00  0.00     0.018 A 
HETATM   17  C   UNK     0       7.101   8.660  91.371  0.00  0.00     0.022 A 
HETATM   18  C   UNK     0       6.147   9.676  91.319  0.00  0.00     0.018 A 
HETATM   19  C   UNK     0       5.792  10.318  92.487  0.00  0.00     0.032 A 
HETATM   20  C   UNK     0       6.348   9.989  93.705  0.00  0.00     0.018 A 
HETATM   21  C   UNK     0       7.302   8.973  93.758  0.00  0.00     0.022 A 
BRANCH  19  22
HETATM   22  C   UNK     0       4.777  11.402  92.431  0.00  0.00     0.252 C 
HETATM   23  O   UNK     0       3.949  11.496  93.333  0.00  0.00    -0.268 OA
HETATM   24  N   UNK     0       4.865  12.261  91.344  0.00  0.00    -0.341 N 
HETATM   25  H   UNK     0       5.593  12.137  90.649  0.00  0.00     0.163 HD
BRANCH  24  26
HETATM   26  C   UNK     0       3.969  13.374  91.161  0.00  0.00     0.207 C 
BRANCH  26  27
HETATM   27  C   UNK     0       4.555  14.697  91.671  0.00  0.00     0.146 C 
HETATM   28  C   UNK     0       4.980  15.624  90.537  0.00  0.00     0.042 C 
BRANCH  27  29
HETATM   29  O   UNK     0       3.588  15.367  92.480  0.00  0.00    -0.393 OA
HETATM   30  H   UNK     0       3.440  16.252  92.107  0.00  0.00     0.210 HD
ENDBRANCH  27  29
ENDBRANCH  26  27
BRANCH  26  31
HETATM   31  C   UNK     0       3.624  13.456  89.678  0.00  0.00     0.266 C 
HETATM   32  O   UNK     0       2.554  13.897  89.263  0.00  0.00    -0.269 OA
HETATM   33  N   UNK     0       4.624  12.949  88.884  0.00  0.00    -0.236 N 
HETATM   34  H   UNK     0       5.476  12.498  89.195  0.00  0.00     0.197 HD
BRANCH  33  35
HETATM   35  O   UNK     0       4.369  12.953  87.505  0.00  0.00    -0.287 OA
HETATM   36  H   UNK     0       5.257  13.153  87.164  0.00  0.00     0.244 HD
ENDBRANCH  33  35
ENDBRANCH  26  31
ENDBRANCH  24  26
ENDBRANCH  19  22
ENDBRANCH  15  16
ENDBRANCH  11  14
ENDBRANCH   7   8
ENDBRANCH   2   7
TORSDOF 10
ENDMDL
MODEL 4
REMARK VINA RESULT:      -5.7      2.165      3.208
REMARK  10 active torsions:
REMARK  status: ('A' for Active; 'I' for Inactive)
REMARK    1  A    between atoms: O_2  and  C_18 
REMARK    2  A    between atoms: O_5  and  N_8 
REMARK    3  A    between atoms: N_6  and  C_11 
REMARK    4  A    between atoms: N_7  and  C_15 
REMARK       I    between atoms: N_7  and  C_24 
REMARK       I    between atoms: N_8  and  C_23 
REMARK    5  A    between atoms: C_11  and  C_14 
REMARK    6  A    between atoms: C_15  and  C_18 
REMARK    7  A    between atoms: C_15  and  C_23 
REMARK    8  A    between atoms: C_21  and  C_26 
REMARK    9  A    between atoms: C_24  and  C_25 
REMARK   10  A    between atoms: C_29  and  C_32 
ROOT
HETATM    1  O   UNK     0      16.008   4.187  92.866  0.00  0.00    -0.388 OA
HETATM    2  N   UNK     0      13.714   2.554  92.448  0.00  0.00     0.096 N 
HETATM    3  C   UNK     0      13.855   3.863  91.794  0.00  0.00     0.299 C 
HETATM    4  C   UNK     0      14.437   2.551  93.727  0.00  0.00     0.299 C 
HETATM    5  C   UNK     0      15.335   4.190  91.606  0.00  0.00     0.198 C 
HETATM    6  C   UNK     0      15.902   2.909  93.495  0.00  0.00     0.198 C 
ENDROOT
BRANCH   2   7
HETATM    7  C   UNK     0      12.304   2.225  92.648  0.00  0.00     0.311 C 
BRANCH   7   8
HETATM    8  C   UNK     0      11.435   3.436  92.667  0.00  0.00    -0.030 A 
HETATM    9  C   UNK     0      11.448   4.285  93.774  0.00  0.00     0.010 A 
HETATM   10  C   UNK     0      10.633   5.417  93.794  0.00  0.00     0.021 A 
HETATM   11  C   UNK     0       9.808   5.700  92.706  0.00  0.00     0.018 A 
HETATM   12  C   UNK     0       9.795   4.854  91.600  0.00  0.00     0.021 A 
HETATM   13  C   UNK     0      10.609   3.721  91.580  0.00  0.00     0.010 A 
BRANCH  11  14
HETATM   14  C   UNK     0       8.975   6.863  92.726  0.00  0.00    -0.061 C 
HETATM   15  C   UNK     0       8.274   7.840  92.742  0.00  0.00    -0.061 C 
BRANCH  15  16
HETATM   16  C   UNK     0       7.442   9.001  92.760  0.00  0.00     0.018 A 
HETATM   17  C   UNK     0       7.074   9.614  91.562  0.00  0.00     0.022 A 
HETATM   18  C   UNK     0       6.261  10.747  91.580  0.00  0.00     0.018 A 
HETATM   19  C   UNK     0       5.832  11.242  92.794  0.00  0.00     0.032 A 
HETATM   20  C   UNK     0       6.182  10.655  93.992  0.00  0.00     0.018 A 
HETATM   21  C   UNK     0       6.996   9.522  93.975  0.00  0.00     0.022 A 
BRANCH  19  22
HETATM   22  C   UNK     0       4.967  12.450  92.812  0.00  0.00     0.252 C 
HETATM   23  O   UNK     0       4.583  12.896  93.890  0.00  0.00    -0.268 OA
HETATM   24  N   UNK     0       4.674  13.006  91.575  0.00  0.00    -0.341 N 
HETATM   25  H   UNK     0       5.048  12.597  90.727  0.00  0.00     0.163 HD
BRANCH  24  26
HETATM   26  C   UNK     0       3.869  14.192  91.429  0.00  0.00     0.207 C 
BRANCH  26  27
HETATM   27  C   UNK     0       3.618  14.563  89.962  0.00  0.00     0.146 C 
HETATM   28  C   UNK     0       4.728  15.431  89.381  0.00  0.00     0.042 C 
BRANCH  27  29
HETATM   29  O   UNK     0       3.504  13.373  89.182  0.00  0.00    -0.393 OA
HETATM   30  H   UNK     0       3.164  12.665  89.754  0.00  0.00     0.210 HD
ENDBRANCH  27  29
ENDBRANCH  26  27
BRANCH  26  31
HETATM   31  C   UNK     0       2.558  13.959  92.174  0.00  0.00     0.266 C 
HETATM   32  O   UNK     0       1.744  13.099  91.844  0.00  0.00    -0.269 OA
HETATM   33  N   UNK     0       2.390  14.840  93.215  0.00  0.00    -0.236 N 
HETATM   34  H   UNK     0       2.995  15.615  93.459  0.00  0.00     0.197 HD
BRANCH  33  35
HETATM   35  O   UNK     0       1.189  14.718  93.929  0.00  0.00    -0.287 OA
HETATM   36  H   UNK     0       1.305  13.832  94.315  0.00  0.00     0.244 HD
ENDBRANCH  33  35
ENDBRANCH  26  31
ENDBRANCH  24  26
ENDBRANCH  19  22
ENDBRANCH  15  16
ENDBRANCH  11  14
ENDBRANCH   7   8
ENDBRANCH   2   7
TORSDOF 10
ENDMDL
MODEL 5
REMARK VINA RESULT:      -5.5      1.892     12.369
REMARK  10 active torsions:
REMARK  status: ('A' for Active; 'I' for Inactive)
REMARK    1  A    between atoms: O_2  and  C_18 
REMARK    2  A    between atoms: O_5  and  N_8 
REMARK    3  A    between atoms: N_6  and  C_11 
REMARK    4  A    between atoms: N_7  and  C_15 
REMARK       I    between atoms: N_7  and  C_24 
REMARK       I    between atoms: N_8  and  C_23 
REMARK    5  A    between atoms: C_11  and  C_14 
REMARK    6  A    between atoms: C_15  and  C_18 
REMARK    7  A    between atoms: C_15  and  C_23 
REMARK    8  A    between atoms: C_21  and  C_26 
REMARK    9  A    between atoms: C_24  and  C_25 
REMARK   10  A    between atoms: C_29  and  C_32 
ROOT
HETATM    1  O   UNK     0       5.730  14.731  88.767  0.00  0.00    -0.388 OA
HETATM    2  N   UNK     0       3.789  13.373  90.345  0.00  0.00     0.096 N 
HETATM    3  C   UNK     0       4.613  14.453  90.904  0.00  0.00     0.299 C 
HETATM    4  C   UNK     0       4.516  12.690  89.267  0.00  0.00     0.299 C 
HETATM    5  C   UNK     0       5.018  15.421  89.795  0.00  0.00     0.198 C 
HETATM    6  C   UNK     0       4.923  13.699  88.197  0.00  0.00     0.198 C 
ENDROOT
BRANCH   2   7
HETATM    7  C   UNK     0       3.399  12.426  91.389  0.00  0.00     0.311 C 
BRANCH   7   8
HETATM    8  C   UNK     0       4.415  11.355  91.593  0.00  0.00    -0.030 A 
HETATM    9  C   UNK     0       4.349  10.180  90.843  0.00  0.00     0.010 A 
HETATM   10  C   UNK     0       5.298   9.176  91.035  0.00  0.00     0.021 A 
HETATM   11  C   UNK     0       6.314   9.349  91.975  0.00  0.00     0.018 A 
HETATM   12  C   UNK     0       6.381  10.522  92.724  0.00  0.00     0.021 A 
HETATM   13  C   UNK     0       5.432  11.526  92.533  0.00  0.00     0.010 A 
BRANCH  11  14
HETATM   14  C   UNK     0       7.289   8.320  92.170  0.00  0.00    -0.061 C 
HETATM   15  C   UNK     0       8.109   7.456  92.334  0.00  0.00    -0.061 C 
BRANCH  15  16
HETATM   16  C   UNK     0       9.083   6.429  92.528  0.00  0.00     0.018 A 
HETATM   17  C   UNK     0       9.513   5.663  91.443  0.00  0.00     0.022 A 
HETATM   18  C   UNK     0      10.465   4.662  91.631  0.00  0.00     0.018 A 
HETATM   19  C   UNK     0      10.967   4.448  92.898  0.00  0.00     0.032 A 
HETATM   20  C   UNK     0      10.559   5.191  93.986  0.00  0.00     0.018 A 
HETATM   21  C   UNK     0       9.606   6.192  93.799  0.00  0.00     0.022 A 
BRANCH  19  22
HETATM   22  C   UNK     0      11.980   3.380  93.098  0.00  0.00     0.252 C 
HETATM   23  O   UNK     0      11.710   2.228  92.769  0.00  0.00    -0.268 OA
HETATM   24  N   UNK     0      13.194   3.786  93.635  0.00  0.00    -0.341 N 
HETATM   25  H   UNK     0      13.355   4.761  93.860  0.00  0.00     0.163 HD
BRANCH  24  26
HETATM   26  C   UNK     0      14.284   2.873  93.866  0.00  0.00     0.207 C 
BRANCH  26  27
HETATM   27  C   UNK     0      14.367   1.767  92.806  0.00  0.00     0.146 C 
HETATM   28  C   UNK     0      15.119   2.211  91.556  0.00  0.00     0.042 C 
BRANCH  27  29
HETATM   29  O   UNK     0      15.020   0.625  93.358  0.00  0.00    -0.393 OA
HETATM   30  H   UNK     0      14.339  -0.003  93.652  0.00  0.00     0.210 HD
ENDBRANCH  27  29
ENDBRANCH  26  27
BRANCH  26  31
HETATM   31  C   UNK     0      15.572   3.688  93.918  0.00  0.00     0.266 C 
HETATM   32  O   UNK     0      16.677   3.184  94.113  0.00  0.00    -0.269 OA
HETATM   33  N   UNK     0      15.341   5.034  93.761  0.00  0.00    -0.236 N 
HETATM   34  H   UNK     0      14.440   5.490  93.689  0.00  0.00     0.197 HD
BRANCH  33  35
HETATM   35  O   UNK     0      16.472   5.859  93.835  0.00  0.00    -0.287 OA
HETATM   36  H   UNK     0      16.185   6.487  94.520  0.00  0.00     0.244 HD
ENDBRANCH  33  35
ENDBRANCH  26  31
ENDBRANCH  24  26
ENDBRANCH  19  22
ENDBRANCH  15  16
ENDBRANCH  11  14
ENDBRANCH   7   8
ENDBRANCH   2   7
TORSDOF 10
ENDMDL
MODEL 6
REMARK VINA RESULT:      -5.3      2.167     12.511
REMARK  10 active torsions:
REMARK  status: ('A' for Active; 'I' for Inactive)
REMARK    1  A    between atoms: O_2  and  C_18 
REMARK    2  A    between atoms: O_5  and  N_8 
REMARK    3  A    between atoms: N_6  and  C_11 
REMARK    4  A    between atoms: N_7  and  C_15 
REMARK       I    between atoms: N_7  and  C_24 
REMARK       I    between atoms: N_8  and  C_23 
REMARK    5  A    between atoms: C_11  and  C_14 
REMARK    6  A    between atoms: C_15  and  C_18 
REMARK    7  A    between atoms: C_15  and  C_23 
REMARK    8  A    between atoms: C_21  and  C_26 
REMARK    9  A    between atoms: C_24  and  C_25 
REMARK   10  A    between atoms: C_29  and  C_32 
ROOT
HETATM    1  O   UNK     0       3.150  14.510  92.772  0.00  0.00    -0.388 OA
HETATM    2  N   UNK     0       3.721  14.060  90.020  0.00  0.00     0.096 N 
HETATM    3  C   UNK     0       2.663  13.315  90.716  0.00  0.00     0.299 C 
HETATM    4  C   UNK     0       4.773  14.447  90.969  0.00  0.00     0.299 C 
HETATM    5  C   UNK     0       2.107  14.157  91.862  0.00  0.00     0.198 C 
HETATM    6  C   UNK     0       4.168  15.261  92.109  0.00  0.00     0.198 C 
ENDROOT
BRANCH   2   7
HETATM    7  C   UNK     0       4.277  13.267  88.924  0.00  0.00     0.311 C 
BRANCH   7   8
HETATM    8  C   UNK     0       5.154  12.164  89.409  0.00  0.00    -0.030 A 
HETATM    9  C   UNK     0       6.463  12.057  88.939  0.00  0.00     0.010 A 
HETATM   10  C   UNK     0       7.284  11.023  89.391  0.00  0.00     0.021 A 
HETATM   11  C   UNK     0       6.795  10.099  90.313  0.00  0.00     0.018 A 
HETATM   12  C   UNK     0       5.488  10.205  90.783  0.00  0.00     0.021 A 
HETATM   13  C   UNK     0       4.667  11.238  90.332  0.00  0.00     0.010 A 
BRANCH  11  14
HETATM   14  C   UNK     0       7.638   9.040  90.778  0.00  0.00    -0.061 C 
HETATM   15  C   UNK     0       8.346   8.150  91.168  0.00  0.00    -0.061 C 
BRANCH  15  16
HETATM   16  C   UNK     0       9.187   7.092  91.632  0.00  0.00     0.018 A 
HETATM   17  C   UNK     0       9.864   6.287  90.714  0.00  0.00     0.022 A 
HETATM   18  C   UNK     0      10.686   5.256  91.167  0.00  0.00     0.018 A 
HETATM   19  C   UNK     0      10.814   5.051  92.524  0.00  0.00     0.032 A 
HETATM   20  C   UNK     0      10.156   5.832  93.451  0.00  0.00     0.018 A 
HETATM   21  C   UNK     0       9.332   6.863  93.000  0.00  0.00     0.022 A 
BRANCH  19  22
HETATM   22  C   UNK     0      11.689   3.950  93.006  0.00  0.00     0.252 C 
HETATM   23  O   UNK     0      11.197   2.846  93.225  0.00  0.00    -0.268 OA
HETATM   24  N   UNK     0      13.034   4.261  93.150  0.00  0.00    -0.341 N 
HETATM   25  H   UNK     0      13.372   5.190  92.926  0.00  0.00     0.163 HD
BRANCH  24  26
HETATM   26  C   UNK     0      14.011   3.295  93.583  0.00  0.00     0.207 C 
BRANCH  26  27
HETATM   27  C   UNK     0      14.093   2.076  92.656  0.00  0.00     0.146 C 
HETATM   28  C   UNK     0      14.864   2.369  91.374  0.00  0.00     0.042 C 
BRANCH  27  29
HETATM   29  O   UNK     0      14.726   0.997  93.341  0.00  0.00    -0.393 OA
HETATM   30  H   UNK     0      14.534   0.175  92.860  0.00  0.00     0.210 HD
ENDBRANCH  27  29
ENDBRANCH  26  27
BRANCH  26  31
HETATM   31  C   UNK     0      15.356   4.007  93.684  0.00  0.00     0.266 C 
HETATM   32  O   UNK     0      15.503   5.201  93.432  0.00  0.00    -0.269 OA
HETATM   33  N   UNK     0      16.369   3.152  94.046  0.00  0.00    -0.236 N 
HETATM   34  H   UNK     0      16.301   2.149  94.173  0.00  0.00     0.197 HD
BRANCH  33  35
HETATM   35  O   UNK     0      17.649   3.721  94.124  0.00  0.00    -0.287 OA
HETATM   36  H   UNK     0      18.050   3.358  93.316  0.00  0.00     0.244 HD
ENDBRANCH  33  35
ENDBRANCH  26  31
ENDBRANCH  24  26
ENDBRANCH  19  22
ENDBRANCH  15  16
ENDBRANCH  11  14
ENDBRANCH   7   8
ENDBRANCH   2   7
TORSDOF 10
ENDMDL
MODEL 7
REMARK VINA RESULT:      -5.2      2.838     12.288
REMARK  10 active torsions:
REMARK  status: ('A' for Active; 'I' for Inactive)
REMARK    1  A    between atoms: O_2  and  C_18 
REMARK    2  A    between atoms: O_5  and  N_8 
REMARK    3  A    between atoms: N_6  and  C_11 
REMARK    4  A    between atoms: N_7  and  C_15 
REMARK       I    between atoms: N_7  and  C_24 
REMARK       I    between atoms: N_8  and  C_23 
REMARK    5  A    between atoms: C_11  and  C_14 
REMARK    6  A    between atoms: C_15  and  C_18 
REMARK    7  A    between atoms: C_15  and  C_23 
REMARK    8  A    between atoms: C_21  and  C_26 
REMARK    9  A    between atoms: C_24  and  C_25 
REMARK   10  A    between atoms: C_29  and  C_32 
ROOT
HETATM    1  O   UNK     0       2.171  13.857  94.124  0.00  0.00    -0.388 OA
HETATM    2  N   UNK     0       2.152  14.126  91.290  0.00  0.00     0.096 N 
HETATM    3  C   UNK     0       1.784  12.862  91.944  0.00  0.00     0.299 C 
HETATM    4  C   UNK     0       3.107  14.865  92.126  0.00  0.00     0.299 C 
HETATM    5  C   UNK     0       1.218  13.145  93.333  0.00  0.00     0.198 C 
HETATM    6  C   UNK     0       2.511  15.101  93.511  0.00  0.00     0.198 C 
ENDROOT
BRANCH   2   7
HETATM    7  C   UNK     0       2.708  13.878  89.961  0.00  0.00     0.311 C 
BRANCH   7   8
HETATM    8  C   UNK     0       3.723  12.786  89.964  0.00  0.00    -0.030 A 
HETATM    9  C   UNK     0       4.669  12.718  90.987  0.00  0.00     0.010 A 
HETATM   10  C   UNK     0       5.621  11.698  90.990  0.00  0.00     0.021 A 
HETATM   11  C   UNK     0       5.624  10.746  89.971  0.00  0.00     0.018 A 
HETATM   12  C   UNK     0       4.679  10.813  88.949  0.00  0.00     0.021 A 
HETATM   13  C   UNK     0       3.728  11.834  88.945  0.00  0.00     0.010 A 
BRANCH  11  14
HETATM   14  C   UNK     0       6.598   9.699  89.975  0.00  0.00    -0.061 C 
HETATM   15  C   UNK     0       7.417   8.819  89.978  0.00  0.00    -0.061 C 
BRANCH  15  16
HETATM   16  C   UNK     0       8.390   7.772  89.982  0.00  0.00     0.018 A 
HETATM   17  C   UNK     0       8.486   6.915  91.079  0.00  0.00     0.022 A 
HETATM   18  C   UNK     0       9.434   5.891  91.082  0.00  0.00     0.018 A 
HETATM   19  C   UNK     0      10.263   5.747  89.990  0.00  0.00     0.032 A 
HETATM   20  C   UNK     0      10.188   6.580  88.894  0.00  0.00     0.018 A 
HETATM   21  C   UNK     0       9.241   7.605  88.890  0.00  0.00     0.022 A 
BRANCH  19  22
HETATM   22  C   UNK     0      11.274   4.658  89.995  0.00  0.00     0.252 C 
HETATM   23  O   UNK     0      11.391   3.944  89.002  0.00  0.00    -0.268 OA
HETATM   24  N   UNK     0      12.043   4.547  91.145  0.00  0.00    -0.341 N 
HETATM   25  H   UNK     0      11.907   5.189  91.917  0.00  0.00     0.163 HD
BRANCH  24  26
HETATM   26  C   UNK     0      13.080   3.557  91.292  0.00  0.00     0.207 C 
BRANCH  26  27
HETATM   27  C   UNK     0      14.276   4.068  92.105  0.00  0.00     0.146 C 
HETATM   28  C   UNK     0      13.939   4.265  93.579  0.00  0.00     0.042 C 
BRANCH  27  29
HETATM   29  O   UNK     0      15.357   3.141  91.997  0.00  0.00    -0.393 OA
HETATM   30  H   UNK     0      16.152   3.556  92.371  0.00  0.00     0.210 HD
ENDBRANCH  27  29
ENDBRANCH  26  27
BRANCH  26  31
HETATM   31  C   UNK     0      12.457   2.323  91.937  0.00  0.00     0.266 C 
HETATM   32  O   UNK     0      13.101   1.309  92.201  0.00  0.00    -0.269 OA
HETATM   33  N   UNK     0      11.107   2.470  92.143  0.00  0.00    -0.236 N 
HETATM   34  H   UNK     0      10.531   3.253  91.857  0.00  0.00     0.197 HD
BRANCH  33  35
HETATM   35  O   UNK     0      10.450   1.363  92.699  0.00  0.00    -0.287 OA
HETATM   36  H   UNK     0      10.107   1.757  93.518  0.00  0.00     0.244 HD
ENDBRANCH  33  35
ENDBRANCH  26  31
ENDBRANCH  24  26
ENDBRANCH  19  22
ENDBRANCH  15  16
ENDBRANCH  11  14
ENDBRANCH   7   8
ENDBRANCH   2   7
TORSDOF 10
ENDMDL
MODEL 8
REMARK VINA RESULT:      -5.0      1.878     12.344
REMARK  10 active torsions:
REMARK  status: ('A' for Active; 'I' for Inactive)
REMARK    1  A    between atoms: O_2  and  C_18 
REMARK    2  A    between atoms: O_5  and  N_8 
REMARK    3  A    between atoms: N_6  and  C_11 
REMARK    4  A    between atoms: N_7  and  C_15 
REMARK       I    between atoms: N_7  and  C_24 
REMARK       I    between atoms: N_8  and  C_23 
REMARK    5  A    between atoms: C_11  and  C_14 
REMARK    6  A    between atoms: C_15  and  C_18 
REMARK    7  A    between atoms: C_15  and  C_23 
REMARK    8  A    between atoms: C_21  and  C_26 
REMARK    9  A    between atoms: C_24  and  C_25 
REMARK   10  A    between atoms: C_29  and  C_32 
ROOT
HETATM    1  O   UNK     0       5.309  15.599  90.499  0.00  0.00    -0.388 OA
HETATM    2  N   UNK     0       3.463  13.543  89.816  0.00  0.00     0.096 N 
HETATM    3  C   UNK     0       3.844  13.801  91.212  0.00  0.00     0.299 C 
HETATM    4  C   UNK     0       4.562  13.918  88.917  0.00  0.00     0.299 C 
HETATM    5  C   UNK     0       4.234  15.267  91.379  0.00  0.00     0.198 C 
HETATM    6  C   UNK     0       4.936  15.381  89.138  0.00  0.00     0.198 C 
ENDROOT
BRANCH   2   7
HETATM    7  C   UNK     0       3.095  12.141  89.630  0.00  0.00     0.311 C 
BRANCH   7   8
HETATM    8  C   UNK     0       4.183  11.209  90.044  0.00  0.00    -0.030 A 
HETATM    9  C   UNK     0       3.929  10.221  90.996  0.00  0.00     0.010 A 
HETATM   10  C   UNK     0       4.946   9.350  91.386  0.00  0.00     0.021 A 
HETATM   11  C   UNK     0       6.216   9.466  90.820  0.00  0.00     0.018 A 
HETATM   12  C   UNK     0       6.470  10.451  89.869  0.00  0.00     0.021 A 
HETATM   13  C   UNK     0       5.453  11.323  89.480  0.00  0.00     0.010 A 
BRANCH  11  14
HETATM   14  C   UNK     0       7.259   8.571  91.218  0.00  0.00    -0.061 C 
HETATM   15  C   UNK     0       8.135   7.818  91.552  0.00  0.00    -0.061 C 
BRANCH  15  16
HETATM   16  C   UNK     0       9.176   6.924  91.950  0.00  0.00     0.018 A 
HETATM   17  C   UNK     0       9.734   6.046  91.020  0.00  0.00     0.022 A 
HETATM   18  C   UNK     0      10.751   5.174  91.408  0.00  0.00     0.018 A 
HETATM   19  C   UNK     0      11.189   5.200  92.716  0.00  0.00     0.032 A 
HETATM   20  C   UNK     0      10.654   6.057  93.654  0.00  0.00     0.018 A 
HETATM   21  C   UNK     0       9.636   6.929  93.267  0.00  0.00     0.022 A 
BRANCH  19  22
HETATM   22  C   UNK     0      12.271   4.269  93.129  0.00  0.00     0.252 C 
HETATM   23  O   UNK     0      12.094   3.535  94.097  0.00  0.00    -0.268 OA
HETATM   24  N   UNK     0      13.420   4.289  92.350  0.00  0.00    -0.341 N 
HETATM   25  H   UNK     0      13.486   4.906  91.548  0.00  0.00     0.163 HD
BRANCH  24  26
HETATM   26  C   UNK     0      14.547   3.429  92.608  0.00  0.00     0.207 C 
BRANCH  26  27
HETATM   27  C   UNK     0      15.329   3.836  93.862  0.00  0.00     0.146 C 
HETATM   28  C   UNK     0      16.622   3.045  94.027  0.00  0.00     0.042 C 
BRANCH  27  29
HETATM   29  O   UNK     0      15.642   5.227  93.799  0.00  0.00    -0.393 OA
HETATM   30  H   UNK     0      15.357   5.642  94.631  0.00  0.00     0.210 HD
ENDBRANCH  27  29
ENDBRANCH  26  27
BRANCH  26  31
HETATM   31  C   UNK     0      14.026   2.000  92.719  0.00  0.00     0.266 C 
HETATM   32  O   UNK     0      14.546   1.151  93.441  0.00  0.00    -0.269 OA
HETATM   33  N   UNK     0      12.948   1.774  91.897  0.00  0.00    -0.236 N 
HETATM   34  H   UNK     0      12.551   2.422  91.226  0.00  0.00     0.197 HD
BRANCH  33  35
HETATM   35  O   UNK     0      12.432   0.471  91.911  0.00  0.00    -0.287 OA
HETATM   36  H   UNK     0      11.834   0.529  92.676  0.00  0.00     0.244 HD
ENDBRANCH  33  35
ENDBRANCH  26  31
ENDBRANCH  24  26
ENDBRANCH  19  22
ENDBRANCH  15  16
ENDBRANCH  11  14
ENDBRANCH   7   8
ENDBRANCH   2   7
TORSDOF 10
ENDMDL
MODEL 9
REMARK VINA RESULT:      -5.0      2.151     12.538
REMARK  10 active torsions:
REMARK  status: ('A' for Active; 'I' for Inactive)
REMARK    1  A    between atoms: O_2  and  C_18 
REMARK    2  A    between atoms: O_5  and  N_8 
REMARK    3  A    between atoms: N_6  and  C_11 
REMARK    4  A    between atoms: N_7  and  C_15 
REMARK       I    between atoms: N_7  and  C_24 
REMARK       I    between atoms: N_8  and  C_23 
REMARK    5  A    between atoms: C_11  and  C_14 
REMARK    6  A    between atoms: C_15  and  C_18 
REMARK    7  A    between atoms: C_15  and  C_23 
REMARK    8  A    between atoms: C_21  and  C_26 
REMARK    9  A    between atoms: C_24  and  C_25 
REMARK   10  A    between atoms: C_29  and  C_32 
ROOT
HETATM    1  O   UNK     0       4.262  14.609  89.581  0.00  0.00    -0.388 OA
HETATM    2  N   UNK     0       3.182  13.820  92.094  0.00  0.00     0.096 N 
HETATM    3  C   UNK     0       4.474  14.515  91.997  0.00  0.00     0.299 C 
HETATM    4  C   UNK     0       2.937  13.040  90.874  0.00  0.00     0.299 C 
HETATM    5  C   UNK     0       4.494  15.396  90.750  0.00  0.00     0.198 C 
HETATM    6  C   UNK     0       2.994  13.955  89.654  0.00  0.00     0.198 C 
ENDROOT
BRANCH   2   7
HETATM    7  C   UNK     0       3.144  12.961  93.276  0.00  0.00     0.311 C 
BRANCH   7   8
HETATM    8  C   UNK     0       4.161  11.873  93.221  0.00  0.00    -0.030 A 
HETATM    9  C   UNK     0       3.998  10.811  92.330  0.00  0.00     0.010 A 
HETATM   10  C   UNK     0       4.948   9.792  92.278  0.00  0.00     0.021 A 
HETATM   11  C   UNK     0       6.062   9.835  93.116  0.00  0.00     0.018 A 
HETATM   12  C   UNK     0       6.226  10.894  94.006  0.00  0.00     0.021 A 
HETATM   13  C   UNK     0       5.276  11.914  94.058  0.00  0.00     0.010 A 
BRANCH  11  14
HETATM   14  C   UNK     0       7.037   8.790  93.062  0.00  0.00    -0.061 C 
HETATM   15  C   UNK     0       7.857   7.911  93.016  0.00  0.00    -0.061 C 
BRANCH  15  16
HETATM   16  C   UNK     0       8.832   6.868  92.963  0.00  0.00     0.018 A 
HETATM   17  C   UNK     0       9.526   6.504  94.118  0.00  0.00     0.022 A 
HETATM   18  C   UNK     0      10.476   5.484  94.067  0.00  0.00     0.018 A 
HETATM   19  C   UNK     0      10.711   4.850  92.865  0.00  0.00     0.032 A 
HETATM   20  C   UNK     0      10.038   5.191  91.710  0.00  0.00     0.018 A 
HETATM   21  C   UNK     0       9.089   6.212  91.760  0.00  0.00     0.022 A 
BRANCH  19  22
HETATM   22  C   UNK     0      11.724   3.765  92.811  0.00  0.00     0.252 C 
HETATM   23  O   UNK     0      11.530   2.799  92.078  0.00  0.00    -0.268 OA
HETATM   24  N   UNK     0      12.853   3.948  93.598  0.00  0.00    -0.341 N 
HETATM   25  H   UNK     0      12.956   4.785  94.160  0.00  0.00     0.163 HD
BRANCH  24  26
HETATM   26  C   UNK     0      13.935   2.997  93.635  0.00  0.00     0.207 C 
BRANCH  26  27
HETATM   27  C   UNK     0      13.949   2.066  92.416  0.00  0.00     0.146 C 
HETATM   28  C   UNK     0      14.815   2.602  91.281  0.00  0.00     0.042 C 
BRANCH  27  29
HETATM   29  O   UNK     0      14.435   0.781  92.802  0.00  0.00    -0.393 OA
HETATM   30  H   UNK     0      15.379   0.864  93.017  0.00  0.00     0.210 HD
ENDBRANCH  27  29
ENDBRANCH  26  27
BRANCH  26  31
HETATM   31  C   UNK     0      15.239   3.780  93.750  0.00  0.00     0.266 C 
HETATM   32  O   UNK     0      15.310   4.994  93.568  0.00  0.00    -0.269 OA
HETATM   33  N   UNK     0      16.308   2.967  94.038  0.00  0.00    -0.236 N 
HETATM   34  H   UNK     0      16.301   1.955  94.105  0.00  0.00     0.197 HD
BRANCH  33  35
HETATM   35  O   UNK     0      17.554   3.604  94.123  0.00  0.00    -0.287 OA
HETATM   36  H   UNK     0      18.069   2.920  94.584  0.00  0.00     0.244 HD
ENDBRANCH  33  35
ENDBRANCH  26  31
ENDBRANCH  24  26
ENDBRANCH  19  22
ENDBRANCH  15  16
ENDBRANCH  11  14
ENDBRANCH   7   8
ENDBRANCH   2   7
TORSDOF 10
ENDMDL
