MODEL 1
REMARK VINA RESULT:      -6.7      0.000      0.000
REMARK  9 active torsions:
REMARK  status: ('A' for Active; 'I' for Inactive)
REMARK    1  A    between atoms: O_2  and  C_17 
REMARK    2  A    between atoms: N_5  and  C_10 
REMARK    3  A    between atoms: N_6  and  C_14 
REMARK       I    between atoms: N_6  and  C_23 
REMARK       I    between atoms: N_7  and  C_22 
REMARK    4  A    between atoms: C_10  and  C_13 
REMARK    5  A    between atoms: C_14  and  C_17 
REMARK    6  A    between atoms: C_14  and  C_22 
REMARK    7  A    between atoms: C_20  and  C_25 
REMARK    8  A    between atoms: C_23  and  C_24 
REMARK    9  A    between atoms: C_28  and  C_31 
ROOT
HETATM    1  O   UNL     1      16.098   3.435  94.124  1.00  0.00    -0.388 OA
HETATM    2  N   UNL     1      14.020   2.643  92.347  1.00  0.00     0.096 N 
HETATM    3  C   UNL     1      14.034   3.975  92.967  1.00  0.00     0.299 C 
HETATM    4  C   UNL     1      14.695   1.673  93.221  1.00  0.00     0.299 C 
HETATM    5  C   UNL     1      15.472   4.391  93.267  1.00  0.00     0.198 C 
HETATM    6  C   UNL     1      16.116   2.143  93.515  1.00  0.00     0.198 C 
ENDROOT
BRANCH   2   7
HETATM    7  C   UNL     1      12.651   2.219  92.061  1.00  0.00     0.311 C 
BRANCH   7   8
HETATM    8  C   UNL     1      11.757   3.367  91.737  1.00  0.00    -0.030 A 
HETATM    9  C   UNL     1      10.785   3.773  92.653  1.00  0.00     0.010 A 
HETATM   10  C   UNL     1       9.947   4.846  92.350  1.00  0.00     0.021 A 
HETATM   11  C   UNL     1      10.082   5.513  91.132  1.00  0.00     0.018 A 
HETATM   12  C   UNL     1      11.052   5.108  90.218  1.00  0.00     0.021 A 
HETATM   13  C   UNL     1      11.890   4.035  90.520  1.00  0.00     0.010 A 
BRANCH  11  14
HETATM   14  C   UNL     1       9.223   6.615  90.823  1.00  0.00    -0.061 C 
HETATM   15  C   UNL     1       8.501   7.540  90.563  1.00  0.00    -0.061 C 
BRANCH  15  16
HETATM   16  C   UNL     1       7.642   8.641  90.254  1.00  0.00     0.018 A 
HETATM   17  C   UNL     1       8.175   9.805  89.700  1.00  0.00     0.022 A 
HETATM   18  C   UNL     1       7.337  10.878  89.397  1.00  0.00     0.018 A 
HETATM   19  C   UNL     1       5.987  10.763  89.652  1.00  0.00     0.032 A 
HETATM   20  C   UNL     1       5.436   9.622  90.199  1.00  0.00     0.018 A 
HETATM   21  C   UNL     1       6.273   8.549  90.503  1.00  0.00     0.022 A 
BRANCH  19  22
HETATM   22  C   UNL     1       5.095  11.907  89.331  1.00  0.00     0.252 C 
HETATM   23  O   UNL     1       4.787  12.117  88.160  1.00  0.00    -0.268 OA
HETATM   24  N   UNL     1       4.648  12.653  90.413  1.00  0.00    -0.342 N 
HETATM   25  H   UNL     1       4.924  12.404  91.356  1.00  0.00     0.163 HD
BRANCH  24  26
HETATM   26  C   UNL     1       3.759  13.777  90.266  1.00  0.00     0.199 C 
BRANCH  26  27
HETATM   27  C   UNL     1       2.569  13.723  91.232  1.00  0.00     0.145 C 
HETATM   28  C   UNL     1       2.876  12.922  92.492  1.00  0.00     0.042 C 
BRANCH  27  29
HETATM   29  O   UNL     1       2.197  15.049  91.605  1.00  0.00    -0.393 OA
HETATM   30  H   UNL     1       2.447  15.650  90.883  1.00  0.00     0.210 HD
ENDBRANCH  27  29
ENDBRANCH  26  27
BRANCH  26  31
HETATM   31  C   UNL     1       4.578  15.048  90.465  1.00  0.00     0.220 C 
HETATM   32  O   UNL     1       4.844  15.506  91.575  1.00  0.00    -0.278 OA
HETATM   33  N   UNL     1       4.941  15.625  89.272  1.00  0.00    -0.271 NA
HETATM   34  H   UNL     1       4.664  15.325  88.345  1.00  0.00     0.127 HD
HETATM   35  H   UNL     1       4.452  16.806  88.691  1.00  0.00     0.127 HD
ENDBRANCH  26  31
ENDBRANCH  24  26
ENDBRANCH  19  22
ENDBRANCH  15  16
ENDBRANCH  11  14
ENDBRANCH   7   8
ENDBRANCH   2   7
TORSDOF 9
ENDMDL
