MODEL 1
REMARK VINA RESULT:      -6.4      0.000      0.000
REMARK  12 active torsions:
REMARK  status: ('A' for Active; 'I' for Inactive)
REMARK    1  A    between atoms: O_2  and  C_16 
REMARK    2  A    between atoms: N_5  and  C_9 
REMARK    3  A    between atoms: N_6  and  C_13 
REMARK       I    between atoms: N_6  and  C_22 
REMARK    4  A    between atoms: C_9  and  C_12 
REMARK    5  A    between atoms: C_13  and  C_16 
REMARK    6  A    between atoms: C_13  and  C_21 
REMARK    7  A    between atoms: C_19  and  C_24 
REMARK    8  A    between atoms: C_21  and  C_33 
REMARK    9  A    between atoms: C_22  and  C_23 
REMARK   10  A    between atoms: C_27  and  C_30 
REMARK   11  A    between atoms: C_33  and  C_34 
REMARK   12  A    between atoms: C_34  and  C_35 
ROOT
HETATM    1  O   UNL     1      17.447   4.726  93.736  1.00  0.00    -0.350 OA
HETATM    2  N   UNL     1      15.330   2.824  93.768  1.00  0.00     0.147 N 
HETATM    3  C   UNL     1      16.699   2.443  93.396  1.00  0.00     0.283 C 
HETATM    4  C   UNL     1      15.091   4.235  93.433  1.00  0.00     0.283 C 
HETATM    5  C   UNL     1      17.699   3.365  94.089  1.00  0.00     0.178 C 
HETATM    6  C   UNL     1      16.129   5.114  94.123  1.00  0.00     0.178 C 
ENDROOT
BRANCH   2   7
HETATM    7  C   UNL     1      14.354   1.960  93.107  1.00  0.00     0.277 C 
BRANCH   7   8
HETATM    8  C   UNL     1      13.263   2.735  92.450  1.00  0.00     0.011 A 
HETATM    9  C   UNL     1      12.060   2.954  93.124  1.00  0.00    -0.002 A 
HETATM   10  C   UNL     1      11.038   3.677  92.509  1.00  0.00     0.008 A 
HETATM   11  C   UNL     1      11.219   4.182  91.222  1.00  0.00     0.042 A 
HETATM   12  C   UNL     1      12.419   3.964  90.548  1.00  0.00     0.008 A 
HETATM   13  C   UNL     1      13.442   3.241  91.162  1.00  0.00    -0.002 A 
BRANCH  11  14
HETATM   14  C   UNL     1      10.171   4.925  90.593  1.00  0.00    -0.059 C 
HETATM   15  C   UNL     1       9.291   5.551  90.064  1.00  0.00    -0.059 C 
BRANCH  15  16
HETATM   16  C   UNL     1       8.244   6.294  89.434  1.00  0.00     0.042 A 
HETATM   17  C   UNL     1       6.987   6.370  90.033  1.00  0.00     0.008 A 
HETATM   18  C   UNL     1       5.966   7.097  89.420  1.00  0.00     0.005 A 
HETATM   19  C   UNL     1       6.227   7.732  88.224  1.00  0.00     0.056 A 
HETATM   20  C   UNL     1       7.461   7.672  87.612  1.00  0.00     0.005 A 
HETATM   21  C   UNL     1       8.482   6.944  88.224  1.00  0.00     0.008 A 
BRANCH  19  22
HETATM   22  C   UNL     1       5.139   8.505  87.570  1.00  0.00     0.254 C 
HETATM   23  O   UNL     1       4.982   8.410  86.355  1.00  0.00    -0.268 OA
HETATM   24  N   UNL     1       4.350   9.276  88.413  1.00  0.00    -0.335 N 
HETATM   25  HN  UNL     1       4.523   9.286  89.411  1.00  0.00     0.164 HD
BRANCH  24  26
HETATM   26  C   UNL     1       3.242  10.062  87.933  1.00  0.00     0.166 C 
BRANCH  26  27
HETATM   27  C   UNL     1       1.884   9.397  88.197  1.00  0.00     0.138 C 
HETATM   28  C   UNL     1       1.719   8.085  87.438  1.00  0.00     0.034 C 
BRANCH  27  29
HETATM   29  O   UNL     1       1.740   9.146  89.594  1.00  0.00    -0.383 OA
HETATM   30  H   UNL     1       2.457   9.606  90.063  1.00  0.00     0.210 HD
ENDBRANCH  27  29
ENDBRANCH  26  27
BRANCH  26  31
HETATM   31  C   UNL     1       3.324  11.435  88.592  1.00  0.00     0.181 C 
HETATM   32  O   UNL     1       2.598  11.775  89.524  1.00  0.00    -0.294 OA
BRANCH  31  33
HETATM   33  C   UNL     1       4.839  11.795  89.045  1.00  0.00     0.138 C 
BRANCH  33  34
HETATM   34  C   UNL     1       4.961  13.117  88.563  1.00  0.00     0.208 C 
HETATM   35  O   UNL     1       4.894  13.255  87.363  1.00  0.00    -0.289 OA
BRANCH  34  36
HETATM   36  C   UNL     1       4.857  14.313  89.218  1.00  0.00     0.194 C 
HETATM   37  O   UNL     1       4.720  14.588  90.584  1.00  0.00    -0.185 OA
ENDBRANCH  34  36
ENDBRANCH  33  34
ENDBRANCH  31  33
ENDBRANCH  26  31
ENDBRANCH  24  26
ENDBRANCH  19  22
ENDBRANCH  15  16
ENDBRANCH  11  14
ENDBRANCH   7   8
ENDBRANCH   2   7
TORSDOF 12
ENDMDL
