MODEL 1
REMARK VINA RESULT:      -6.5      0.000      0.000
REMARK  10 active torsions:
REMARK  status: ('A' for Active; 'I' for Inactive)
REMARK    1  A    between atoms: O_2  and  C_16 
REMARK    2  A    between atoms: N_5  and  C_9 
REMARK    3  A    between atoms: N_6  and  C_13 
REMARK       I    between atoms: N_6  and  C_22 
REMARK    4  A    between atoms: C_9  and  C_12 
REMARK    5  A    between atoms: C_13  and  C_16 
REMARK    6  A    between atoms: C_13  and  C_21 
REMARK    7  A    between atoms: C_19  and  C_24 
REMARK    8  A    between atoms: C_22  and  C_23 
REMARK    9  A    between atoms: C_27  and  C_30 
REMARK   10  A    between atoms: N_33  and  S_34 
ROOT
HETATM    1  C   UNL     1       5.698  11.240  90.149  1.00  0.00     0.056 A 
HETATM    2  C   UNL     1       6.908  11.187  89.490  1.00  0.00     0.005 A 
HETATM    3  C   UNL     1       5.296  10.257  91.030  1.00  0.00     0.005 A 
HETATM    4  C   UNL     1       7.371   9.095  90.605  1.00  0.00     0.042 A 
HETATM    5  C   UNL     1       7.755  10.103  89.719  1.00  0.00     0.008 A 
HETATM    6  C   UNL     1       6.142   9.172  91.260  1.00  0.00     0.008 A 
ENDROOT
BRANCH   1   7
HETATM    7  C   UNL     1       4.797  12.396  89.906  1.00  0.00     0.254 C 
HETATM    8  O   UNL     1       4.676  12.832  88.764  1.00  0.00    -0.268 OA
HETATM    9  N   UNL     1       4.128  12.890  91.018  1.00  0.00    -0.337 N 
HETATM   10  HN  UNL     1       4.259  12.462  91.927  1.00  0.00     0.164 HD
BRANCH   9  11
HETATM   11  C   UNL     1       3.202  13.991  90.939  1.00  0.00     0.172 C 
BRANCH  11  12
HETATM   12  C   UNL     1       1.866  13.693  91.631  1.00  0.00     0.136 C 
HETATM   13  C   UNL     1       1.896  12.393  92.426  1.00  0.00     0.034 C 
BRANCH  12  14
HETATM   14  O   UNL     1       1.534  14.767  92.511  1.00  0.00    -0.383 OA
HETATM   15  H   UNL     1       2.226  14.828  93.191  1.00  0.00     0.210 HD
ENDBRANCH  12  14
ENDBRANCH  11  12
BRANCH  11  16
HETATM   16  C   UNL     1       3.881  15.214  91.548  1.00  0.00     0.398 A 
HETATM   17  O   UNL     1       4.979  15.625  91.176  1.00  0.00    -0.136 OA
HETATM   18  N   UNL     1       4.900  15.625  92.695  1.00  0.00     0.142 N 
HETATM   19  HN  UNL     1       5.803  15.997  92.597  1.00  0.00     0.338 HD
BRANCH  18  20
HETATM   20  S   UNL     1       4.231  15.062  93.775  1.00  0.00     0.076 SA
HETATM   21  H   UNL     1       3.995  15.785  94.689  1.00  0.00     0.136 HD
ENDBRANCH  18  20
ENDBRANCH  11  16
ENDBRANCH   9  11
ENDBRANCH   1   7
BRANCH   4  22
HETATM   22  C   UNL     1       8.238   7.982  90.838  1.00  0.00    -0.059 C 
HETATM   23  C   UNL     1       8.967   7.047  91.034  1.00  0.00    -0.059 C 
BRANCH  23  24
HETATM   24  C   UNL     1       9.834   5.933  91.267  1.00  0.00     0.042 A 
HETATM   25  C   UNL     1      10.019   5.455  92.564  1.00  0.00     0.008 A 
HETATM   26  C   UNL     1      10.866   4.371  92.793  1.00  0.00    -0.002 A 
HETATM   27  C   UNL     1      11.527   3.764  91.724  1.00  0.00     0.011 A 
HETATM   28  C   UNL     1      11.341   4.244  90.427  1.00  0.00    -0.002 A 
HETATM   29  C   UNL     1      10.494   5.328  90.199  1.00  0.00     0.008 A 
BRANCH  27  30
HETATM   30  C   UNL     1      12.431   2.604  91.969  1.00  0.00     0.277 C 
BRANCH  30  31
HETATM   31  N   UNL     1      13.501   2.922  92.913  1.00  0.00     0.147 N 
HETATM   32  C   UNL     1      14.423   1.787  93.055  1.00  0.00     0.283 C 
HETATM   33  C   UNL     1      15.537   2.145  94.035  1.00  0.00     0.178 C 
HETATM   34  O   UNL     1      16.240   3.305  93.587  1.00  0.00    -0.350 OA
HETATM   35  C   UNL     1      15.356   4.422  93.476  1.00  0.00     0.178 C 
HETATM   36  C   UNL     1      14.238   4.118  92.483  1.00  0.00     0.283 C 
ENDBRANCH  30  31
ENDBRANCH  27  30
ENDBRANCH  23  24
ENDBRANCH   4  22
TORSDOF 10
ENDMDL
MODEL 2
REMARK VINA RESULT:      -6.5      1.437      2.020
REMARK  10 active torsions:
REMARK  status: ('A' for Active; 'I' for Inactive)
REMARK    1  A    between atoms: O_2  and  C_16 
REMARK    2  A    between atoms: N_5  and  C_9 
REMARK    3  A    between atoms: N_6  and  C_13 
REMARK       I    between atoms: N_6  and  C_22 
REMARK    4  A    between atoms: C_9  and  C_12 
REMARK    5  A    between atoms: C_13  and  C_16 
REMARK    6  A    between atoms: C_13  and  C_21 
REMARK    7  A    between atoms: C_19  and  C_24 
REMARK    8  A    between atoms: C_22  and  C_23 
REMARK    9  A    between atoms: C_27  and  C_30 
REMARK   10  A    between atoms: N_33  and  S_34 
ROOT
HETATM    1  C   UNL     1       5.420  10.448  91.056  1.00  0.00     0.056 A 
HETATM    2  C   UNL     1       6.203  10.448  92.192  1.00  0.00     0.005 A 
HETATM    3  C   UNL     1       5.557   9.497  90.067  1.00  0.00     0.005 A 
HETATM    4  C   UNL     1       7.327   8.479  91.358  1.00  0.00     0.042 A 
HETATM    5  C   UNL     1       7.168   9.453  92.345  1.00  0.00     0.008 A 
HETATM    6  C   UNL     1       6.522   8.501  90.219  1.00  0.00     0.008 A 
ENDROOT
BRANCH   1   7
HETATM    7  C   UNL     1       4.390  11.507  90.895  1.00  0.00     0.254 C 
HETATM    8  O   UNL     1       3.334  11.235  90.329  1.00  0.00    -0.268 OA
HETATM    9  N   UNL     1       4.704  12.747  91.432  1.00  0.00    -0.337 N 
HETATM   10  HN  UNL     1       5.587  12.891  91.908  1.00  0.00     0.164 HD
BRANCH   9  11
HETATM   11  C   UNL     1       3.800  13.868  91.378  1.00  0.00     0.172 C 
BRANCH  11  12
HETATM   12  C   UNL     1       3.711  14.491  89.979  1.00  0.00     0.136 C 
HETATM   13  C   UNL     1       5.028  14.402  89.215  1.00  0.00     0.034 C 
BRANCH  12  14
HETATM   14  O   UNL     1       2.694  13.830  89.226  1.00  0.00    -0.383 OA
HETATM   15  H   UNL     1       2.373  14.443  88.543  1.00  0.00     0.210 HD
ENDBRANCH  12  14
ENDBRANCH  11  12
BRANCH  11  16
HETATM   16  C   UNL     1       2.435  13.389  91.859  1.00  0.00     0.398 A 
HETATM   17  O   UNL     1       1.435  14.105  91.860  1.00  0.00    -0.136 OA
HETATM   18  N   UNL     1       1.530  13.329  93.164  1.00  0.00     0.142 N 
HETATM   19  HN  UNL     1       0.687  13.800  93.338  1.00  0.00     0.338 HD
BRANCH  18  20
HETATM   20  S   UNL     1       2.416  12.655  93.997  1.00  0.00     0.076 SA
HETATM   21  H   UNL     1       2.052  12.459  95.111  1.00  0.00     0.136 HD
ENDBRANCH  18  20
ENDBRANCH  11  16
ENDBRANCH   9  11
ENDBRANCH   1   7
BRANCH   4  22
HETATM   22  C   UNL     1       8.319   7.461  91.514  1.00  0.00    -0.059 C 
HETATM   23  C   UNL     1       9.153   6.605  91.645  1.00  0.00    -0.059 C 
BRANCH  23  24
HETATM   24  C   UNL     1      10.145   5.586  91.801  1.00  0.00     0.042 A 
HETATM   25  C   UNL     1      10.572   5.221  93.077  1.00  0.00     0.008 A 
HETATM   26  C   UNL     1      11.541   4.229  93.230  1.00  0.00    -0.002 A 
HETATM   27  C   UNL     1      12.080   3.601  92.106  1.00  0.00     0.011 A 
HETATM   28  C   UNL     1      11.650   3.967  90.831  1.00  0.00    -0.002 A 
HETATM   29  C   UNL     1      10.682   4.960  90.679  1.00  0.00     0.008 A 
BRANCH  27  30
HETATM   30  C   UNL     1      13.113   2.539  92.271  1.00  0.00     0.277 C 
BRANCH  30  31
HETATM   31  N   UNL     1      14.178   2.937  93.190  1.00  0.00     0.147 N 
HETATM   32  C   UNL     1      15.277   1.961  93.166  1.00  0.00     0.283 C 
HETATM   33  C   UNL     1      16.381   2.402  94.124  1.00  0.00     0.178 C 
HETATM   34  O   UNL     1      16.859   3.701  93.768  1.00  0.00    -0.350 OA
HETATM   35  C   UNL     1      15.803   4.661  93.819  1.00  0.00     0.178 C 
HETATM   36  C   UNL     1      14.686   4.274  92.855  1.00  0.00     0.283 C 
ENDBRANCH  30  31
ENDBRANCH  27  30
ENDBRANCH  23  24
ENDBRANCH   4  22
TORSDOF 10
ENDMDL
MODEL 3
REMARK VINA RESULT:      -6.1      1.377      1.922
REMARK  10 active torsions:
REMARK  status: ('A' for Active; 'I' for Inactive)
REMARK    1  A    between atoms: O_2  and  C_16 
REMARK    2  A    between atoms: N_5  and  C_9 
REMARK    3  A    between atoms: N_6  and  C_13 
REMARK       I    between atoms: N_6  and  C_22 
REMARK    4  A    between atoms: C_9  and  C_12 
REMARK    5  A    between atoms: C_13  and  C_16 
REMARK    6  A    between atoms: C_13  and  C_21 
REMARK    7  A    between atoms: C_19  and  C_24 
REMARK    8  A    between atoms: C_22  and  C_23 
REMARK    9  A    between atoms: C_27  and  C_30 
REMARK   10  A    between atoms: N_33  and  S_34 
ROOT
HETATM    1  C   UNL     1       5.963  10.153  90.346  1.00  0.00     0.056 A 
HETATM    2  C   UNL     1       5.819   9.384  91.482  1.00  0.00     0.005 A 
HETATM    3  C   UNL     1       7.019   9.988  89.475  1.00  0.00     0.005 A 
HETATM    4  C   UNL     1       7.854   8.223  90.896  1.00  0.00     0.042 A 
HETATM    5  C   UNL     1       6.776   8.408  91.761  1.00  0.00     0.008 A 
HETATM    6  C   UNL     1       7.976   9.013  89.753  1.00  0.00     0.008 A 
ENDROOT
BRANCH   1   7
HETATM    7  C   UNL     1       4.942  11.191  90.048  1.00  0.00     0.254 C 
HETATM    8  O   UNL     1       4.566  11.347  88.889  1.00  0.00    -0.268 OA
HETATM    9  N   UNL     1       4.465  11.905  91.138  1.00  0.00    -0.337 N 
HETATM   10  HN  UNL     1       4.805  11.704  92.072  1.00  0.00     0.164 HD
BRANCH   9  11
HETATM   11  C   UNL     1       3.457  12.927  91.015  1.00  0.00     0.172 C 
BRANCH  11  12
HETATM   12  C   UNL     1       2.333  12.780  92.049  1.00  0.00     0.136 C 
HETATM   13  C   UNL     1       1.895  11.331  92.232  1.00  0.00     0.034 C 
BRANCH  12  14
HETATM   14  O   UNL     1       2.770  13.295  93.306  1.00  0.00    -0.383 OA
HETATM   15  H   UNL     1       3.616  13.754  93.170  1.00  0.00     0.210 HD
ENDBRANCH  12  14
ENDBRANCH  11  12
BRANCH  11  16
HETATM   16  C   UNL     1       4.149  14.281  91.138  1.00  0.00     0.398 A 
HETATM   17  O   UNL     1       3.553  15.312  91.443  1.00  0.00    -0.136 OA
HETATM   18  N   UNL     1       4.504  15.574  90.286  1.00  0.00     0.142 N 
HETATM   19  HN  UNL     1       4.159  16.485  90.397  1.00  0.00     0.338 HD
BRANCH  18  20
HETATM   20  S   UNL     1       5.198  14.955  89.253  1.00  0.00     0.076 SA
HETATM   21  H   UNL     1       5.375  15.600  88.271  1.00  0.00     0.136 HD
ENDBRANCH  18  20
ENDBRANCH  11  16
ENDBRANCH   9  11
ENDBRANCH   1   7
BRANCH   4  22
HETATM   22  C   UNL     1       8.836   7.224  91.183  1.00  0.00    -0.059 C 
HETATM   23  C   UNL     1       9.663   6.385  91.425  1.00  0.00    -0.059 C 
BRANCH  23  24
HETATM   24  C   UNL     1      10.646   5.386  91.713  1.00  0.00     0.042 A 
HETATM   25  C   UNL     1      11.427   4.861  90.684  1.00  0.00     0.008 A 
HETATM   26  C   UNL     1      12.384   3.886  90.964  1.00  0.00    -0.002 A 
HETATM   27  C   UNL     1      12.560   3.438  92.274  1.00  0.00     0.011 A 
HETATM   28  C   UNL     1      11.778   3.965  93.302  1.00  0.00    -0.002 A 
HETATM   29  C   UNL     1      10.821   4.939  93.021  1.00  0.00     0.008 A 
BRANCH  27  30
HETATM   30  C   UNL     1      13.585   2.397  92.573  1.00  0.00     0.277 C 
BRANCH  30  31
HETATM   31  N   UNL     1      14.655   2.900  93.433  1.00  0.00     0.147 N 
HETATM   32  C   UNL     1      15.894   2.138  93.222  1.00  0.00     0.283 C 
HETATM   33  C   UNL     1      16.998   2.687  94.122  1.00  0.00     0.178 C 
HETATM   34  O   UNL     1      17.214   4.074  93.854  1.00  0.00    -0.350 OA
HETATM   35  C   UNL     1      16.022   4.826  94.086  1.00  0.00     0.178 C 
HETATM   36  C   UNL     1      14.895   4.329  93.188  1.00  0.00     0.283 C 
ENDBRANCH  30  31
ENDBRANCH  27  30
ENDBRANCH  23  24
ENDBRANCH   4  22
TORSDOF 10
ENDMDL
MODEL 4
REMARK VINA RESULT:      -5.6      3.286      4.175
REMARK  10 active torsions:
REMARK  status: ('A' for Active; 'I' for Inactive)
REMARK    1  A    between atoms: O_2  and  C_16 
REMARK    2  A    between atoms: N_5  and  C_9 
REMARK    3  A    between atoms: N_6  and  C_13 
REMARK       I    between atoms: N_6  and  C_22 
REMARK    4  A    between atoms: C_9  and  C_12 
REMARK    5  A    between atoms: C_13  and  C_16 
REMARK    6  A    between atoms: C_13  and  C_21 
REMARK    7  A    between atoms: C_19  and  C_24 
REMARK    8  A    between atoms: C_22  and  C_23 
REMARK    9  A    between atoms: C_27  and  C_30 
REMARK   10  A    between atoms: N_33  and  S_34 
ROOT
HETATM    1  C   UNL     1       6.346   7.423  88.196  1.00  0.00     0.056 A 
HETATM    2  C   UNL     1       7.666   7.658  87.873  1.00  0.00     0.005 A 
HETATM    3  C   UNL     1       5.978   6.544  89.193  1.00  0.00     0.005 A 
HETATM    4  C   UNL     1       8.317   6.090  89.590  1.00  0.00     0.042 A 
HETATM    5  C   UNL     1       8.664   6.984  88.577  1.00  0.00     0.008 A 
HETATM    6  C   UNL     1       6.975   5.870  89.898  1.00  0.00     0.008 A 
ENDROOT
BRANCH   1   7
HETATM    7  C   UNL     1       5.284   8.143  87.447  1.00  0.00     0.254 C 
HETATM    8  O   UNL     1       5.339   8.186  86.220  1.00  0.00    -0.268 OA
HETATM    9  N   UNL     1       4.273   8.705  88.214  1.00  0.00    -0.337 N 
HETATM   10  HN  UNL     1       4.281   8.608  89.222  1.00  0.00     0.164 HD
BRANCH   9  11
HETATM   11  C   UNL     1       3.161   9.414  87.633  1.00  0.00     0.172 C 
BRANCH  11  12
HETATM   12  C   UNL     1       1.869   8.587  87.625  1.00  0.00     0.136 C 
HETATM   13  C   UNL     1       2.124   7.109  87.350  1.00  0.00     0.034 C 
BRANCH  12  14
HETATM   14  O   UNL     1       1.212   8.718  88.885  1.00  0.00    -0.383 OA
HETATM   15  H   UNL     1       0.418   8.157  88.874  1.00  0.00     0.210 HD
ENDBRANCH  12  14
ENDBRANCH  11  12
BRANCH  11  16
HETATM   16  C   UNL     1       2.982  10.715  88.407  1.00  0.00     0.398 A 
HETATM   17  O   UNL     1       2.150  11.567  88.101  1.00  0.00    -0.136 OA
HETATM   18  N   UNL     1       3.481  12.223  88.432  1.00  0.00     0.142 N 
HETATM   19  HN  UNL     1       2.962  13.036  88.249  1.00  0.00     0.338 HD
BRANCH  18  20
HETATM   20  S   UNL     1       4.848  11.986  88.522  1.00  0.00     0.076 SA
HETATM   21  H   UNL     1       5.563  12.914  88.322  1.00  0.00     0.136 HD
ENDBRANCH  18  20
ENDBRANCH  11  16
ENDBRANCH   9  11
ENDBRANCH   1   7
BRANCH   4  22
HETATM   22  C   UNL     1       9.339   5.396  90.310  1.00  0.00    -0.059 C 
HETATM   23  C   UNL     1      10.198   4.814  90.917  1.00  0.00    -0.059 C 
BRANCH  23  24
HETATM   24  C   UNL     1      11.221   4.120  91.638  1.00  0.00     0.042 A 
HETATM   25  C   UNL     1      11.347   4.302  93.015  1.00  0.00     0.008 A 
HETATM   26  C   UNL     1      12.345   3.628  93.718  1.00  0.00    -0.002 A 
HETATM   27  C   UNL     1      13.214   2.769  93.044  1.00  0.00     0.011 A 
HETATM   28  C   UNL     1      13.085   2.587  91.667  1.00  0.00    -0.002 A 
HETATM   29  C   UNL     1      12.088   3.263  90.964  1.00  0.00     0.008 A 
BRANCH  27  30
HETATM   30  C   UNL     1      14.279   2.046  93.797  1.00  0.00     0.277 C 
BRANCH  30  31
HETATM   31  N   UNL     1      15.413   2.908  94.124  1.00  0.00     0.147 N 
HETATM   32  C   UNL     1      16.624   2.464  93.421  1.00  0.00     0.283 C 
HETATM   33  C   UNL     1      17.791   3.385  93.769  1.00  0.00     0.178 C 
HETATM   34  O   UNL     1      17.479   4.735  93.421  1.00  0.00    -0.350 OA
HETATM   35  C   UNL     1      16.321   5.185  94.124  1.00  0.00     0.178 C 
HETATM   36  C   UNL     1      15.119   4.308  93.786  1.00  0.00     0.283 C 
ENDBRANCH  30  31
ENDBRANCH  27  30
ENDBRANCH  23  24
ENDBRANCH   4  22
TORSDOF 10
ENDMDL
MODEL 5
REMARK VINA RESULT:      -5.5      3.096      4.148
REMARK  10 active torsions:
REMARK  status: ('A' for Active; 'I' for Inactive)
REMARK    1  A    between atoms: O_2  and  C_16 
REMARK    2  A    between atoms: N_5  and  C_9 
REMARK    3  A    between atoms: N_6  and  C_13 
REMARK       I    between atoms: N_6  and  C_22 
REMARK    4  A    between atoms: C_9  and  C_12 
REMARK    5  A    between atoms: C_13  and  C_16 
REMARK    6  A    between atoms: C_13  and  C_21 
REMARK    7  A    between atoms: C_19  and  C_24 
REMARK    8  A    between atoms: C_22  and  C_23 
REMARK    9  A    between atoms: C_27  and  C_30 
REMARK   10  A    between atoms: N_33  and  S_34 
ROOT
HETATM    1  C   UNL     1       6.045   8.224  88.915  1.00  0.00     0.056 A 
HETATM    2  C   UNL     1       5.809   6.896  89.201  1.00  0.00     0.005 A 
HETATM    3  C   UNL     1       7.280   8.809  89.100  1.00  0.00     0.005 A 
HETATM    4  C   UNL     1       8.114   6.685  89.892  1.00  0.00     0.042 A 
HETATM    5  C   UNL     1       6.855   6.117  89.696  1.00  0.00     0.008 A 
HETATM    6  C   UNL     1       8.327   8.031  89.594  1.00  0.00     0.008 A 
ENDROOT
BRANCH   1   7
HETATM    7  C   UNL     1       4.930   9.053  88.387  1.00  0.00     0.254 C 
HETATM    8  O   UNL     1       4.627   8.965  87.200  1.00  0.00    -0.268 OA
HETATM    9  N   UNL     1       4.287   9.866  89.310  1.00  0.00    -0.337 N 
HETATM   10  HN  UNL     1       4.576   9.868  90.281  1.00  0.00     0.164 HD
BRANCH   9  11
HETATM   11  C   UNL     1       3.173  10.709  88.957  1.00  0.00     0.172 C 
BRANCH  11  12
HETATM   12  C   UNL     1       3.601  12.138  88.596  1.00  0.00     0.136 C 
HETATM   13  C   UNL     1       4.498  12.764  89.658  1.00  0.00     0.034 C 
BRANCH  12  14
HETATM   14  O   UNL     1       4.296  12.127  87.350  1.00  0.00    -0.383 OA
HETATM   15  H   UNL     1       3.639  12.136  86.634  1.00  0.00     0.210 HD
ENDBRANCH  12  14
ENDBRANCH  11  12
BRANCH  11  16
HETATM   16  C   UNL     1       2.433  10.044  87.801  1.00  0.00     0.398 A 
HETATM   17  O   UNL     1       1.481  10.568  87.226  1.00  0.00    -0.136 OA
HETATM   18  N   UNL     1       1.189   9.102  87.503  1.00  0.00     0.142 N 
HETATM   19  HN  UNL     1       0.358   9.327  87.033  1.00  0.00     0.338 HD
BRANCH  18  20
HETATM   20  S   UNL     1       1.546   8.029  88.312  1.00  0.00     0.076 SA
HETATM   21  H   UNL     1       1.192   8.077  89.445  1.00  0.00     0.136 HD
ENDBRANCH  18  20
ENDBRANCH  11  16
ENDBRANCH   9  11
ENDBRANCH   1   7
BRANCH   4  22
HETATM   22  C   UNL     1       9.186   5.888  90.401  1.00  0.00    -0.059 C 
HETATM   23  C   UNL     1      10.087   5.217  90.829  1.00  0.00    -0.059 C 
BRANCH  23  24
HETATM   24  C   UNL     1      11.159   4.418  91.339  1.00  0.00     0.042 A 
HETATM   25  C   UNL     1      12.228   4.078  90.510  1.00  0.00     0.008 A 
HETATM   26  C   UNL     1      13.272   3.298  91.006  1.00  0.00    -0.002 A 
HETATM   27  C   UNL     1      13.248   2.859  92.331  1.00  0.00     0.011 A 
HETATM   28  C   UNL     1      12.178   3.201  93.158  1.00  0.00    -0.002 A 
HETATM   29  C   UNL     1      11.133   3.981  92.661  1.00  0.00     0.008 A 
BRANCH  27  30
HETATM   30  C   UNL     1      14.366   2.027  92.860  1.00  0.00     0.277 C 
BRANCH  30  31
HETATM   31  N   UNL     1      15.337   2.815  93.617  1.00  0.00     0.147 N 
HETATM   32  C   UNL     1      16.707   2.376  93.320  1.00  0.00     0.283 C 
HETATM   33  C   UNL     1      17.703   3.220  94.113  1.00  0.00     0.178 C 
HETATM   34  O   UNL     1      17.543   4.604  93.798  1.00  0.00    -0.350 OA
HETATM   35  C   UNL     1      16.222   5.046  94.113  1.00  0.00     0.178 C 
HETATM   36  C   UNL     1      15.191   4.247  93.322  1.00  0.00     0.283 C 
ENDBRANCH  30  31
ENDBRANCH  27  30
ENDBRANCH  23  24
ENDBRANCH   4  22
TORSDOF 10
ENDMDL
MODEL 6
REMARK VINA RESULT:      -5.3      3.613     12.435
REMARK  10 active torsions:
REMARK  status: ('A' for Active; 'I' for Inactive)
REMARK    1  A    between atoms: O_2  and  C_16 
REMARK    2  A    between atoms: N_5  and  C_9 
REMARK    3  A    between atoms: N_6  and  C_13 
REMARK       I    between atoms: N_6  and  C_22 
REMARK    4  A    between atoms: C_9  and  C_12 
REMARK    5  A    between atoms: C_13  and  C_16 
REMARK    6  A    between atoms: C_13  and  C_21 
REMARK    7  A    between atoms: C_19  and  C_24 
REMARK    8  A    between atoms: C_22  and  C_23 
REMARK    9  A    between atoms: C_27  and  C_30 
REMARK   10  A    between atoms: N_33  and  S_34 
ROOT
HETATM    1  C   UNL     1      10.200   5.713  90.016  1.00  0.00     0.056 A 
HETATM    2  C   UNL     1       9.299   5.787  91.058  1.00  0.00     0.005 A 
HETATM    3  C   UNL     1      10.194   6.616  88.973  1.00  0.00     0.005 A 
HETATM    4  C   UNL     1       8.323   7.733  90.013  1.00  0.00     0.042 A 
HETATM    5  C   UNL     1       8.349   6.808  91.057  1.00  0.00     0.008 A 
HETATM    6  C   UNL     1       9.245   7.637  88.971  1.00  0.00     0.008 A 
ENDROOT
BRANCH   1   7
HETATM    7  C   UNL     1      11.213   4.627  90.019  1.00  0.00     0.254 C 
HETATM    8  O   UNL     1      11.430   4.006  88.981  1.00  0.00    -0.268 OA
HETATM    9  N   UNL     1      11.869   4.410  91.222  1.00  0.00    -0.337 N 
HETATM   10  HN  UNL     1      11.656   4.979  92.033  1.00  0.00     0.164 HD
BRANCH   9  11
HETATM   11  C   UNL     1      12.894   3.409  91.378  1.00  0.00     0.172 C 
BRANCH  11  12
HETATM   12  C   UNL     1      14.303   3.957  91.118  1.00  0.00     0.136 C 
HETATM   13  C   UNL     1      15.181   2.972  90.355  1.00  0.00     0.034 C 
BRANCH  12  14
HETATM   14  O   UNL     1      14.213   5.171  90.373  1.00  0.00    -0.383 OA
HETATM   15  H   UNL     1      13.696   4.997  89.568  1.00  0.00     0.210 HD
ENDBRANCH  12  14
ENDBRANCH  11  12
BRANCH  11  16
HETATM   16  C   UNL     1      12.774   2.834  92.785  1.00  0.00     0.398 A 
HETATM   17  O   UNL     1      12.407   3.500  93.752  1.00  0.00    -0.136 OA
HETATM   18  N   UNL     1      13.608   2.645  94.124  1.00  0.00     0.142 N 
HETATM   19  HN  UNL     1      13.453   3.063  94.998  1.00  0.00     0.338 HD
BRANCH  18  20
HETATM   20  S   UNL     1      14.696   1.962  93.593  1.00  0.00     0.076 SA
HETATM   21  H   UNL     1      14.522   0.819  93.316  1.00  0.00     0.136 HD
ENDBRANCH  18  20
ENDBRANCH  11  16
ENDBRANCH   9  11
ENDBRANCH   1   7
BRANCH   4  22
HETATM   22  C   UNL     1       7.347   8.779  90.010  1.00  0.00    -0.059 C 
HETATM   23  C   UNL     1       6.526   9.657  90.008  1.00  0.00    -0.059 C 
BRANCH  23  24
HETATM   24  C   UNL     1       5.549  10.703  90.006  1.00  0.00     0.042 A 
HETATM   25  C   UNL     1       4.350  10.536  90.698  1.00  0.00     0.008 A 
HETATM   26  C   UNL     1       3.397  11.554  90.695  1.00  0.00    -0.002 A 
HETATM   27  C   UNL     1       3.645  12.739  90.001  1.00  0.00     0.011 A 
HETATM   28  C   UNL     1       4.845  12.904  89.310  1.00  0.00    -0.002 A 
HETATM   29  C   UNL     1       5.798  11.885  89.313  1.00  0.00     0.008 A 
BRANCH  27  30
HETATM   30  C   UNL     1       2.626  13.828  90.000  1.00  0.00     0.277 C 
BRANCH  30  31
HETATM   31  N   UNL     1       2.605  14.572  91.258  1.00  0.00     0.147 N 
HETATM   32  C   UNL     1       1.811  13.861  92.270  1.00  0.00     0.283 C 
HETATM   33  C   UNL     1       1.812  14.650  93.576  1.00  0.00     0.178 C 
HETATM   34  O   UNL     1       3.150  14.844  94.038  1.00  0.00    -0.350 OA
HETATM   35  C   UNL     1       3.920  15.562  93.074  1.00  0.00     0.178 C 
HETATM   36  C   UNL     1       3.969  14.796  91.756  1.00  0.00     0.283 C 
ENDBRANCH  30  31
ENDBRANCH  27  30
ENDBRANCH  23  24
ENDBRANCH   4  22
TORSDOF 10
ENDMDL
MODEL 7
REMARK VINA RESULT:      -5.1      3.606     12.423
REMARK  10 active torsions:
REMARK  status: ('A' for Active; 'I' for Inactive)
REMARK    1  A    between atoms: O_2  and  C_16 
REMARK    2  A    between atoms: N_5  and  C_9 
REMARK    3  A    between atoms: N_6  and  C_13 
REMARK       I    between atoms: N_6  and  C_22 
REMARK    4  A    between atoms: C_9  and  C_12 
REMARK    5  A    between atoms: C_13  and  C_16 
REMARK    6  A    between atoms: C_13  and  C_21 
REMARK    7  A    between atoms: C_19  and  C_24 
REMARK    8  A    between atoms: C_22  and  C_23 
REMARK    9  A    between atoms: C_27  and  C_30 
REMARK   10  A    between atoms: N_33  and  S_34 
ROOT
HETATM    1  C   UNL     1      10.145   5.579  90.083  1.00  0.00     0.056 A 
HETATM    2  C   UNL     1      10.019   6.348  88.945  1.00  0.00     0.005 A 
HETATM    3  C   UNL     1       9.380   5.801  91.209  1.00  0.00     0.005 A 
HETATM    4  C   UNL     1       8.302   7.630  90.059  1.00  0.00     0.042 A 
HETATM    5  C   UNL     1       9.087   7.386  88.932  1.00  0.00     0.008 A 
HETATM    6  C   UNL     1       8.448   6.838  91.197  1.00  0.00     0.008 A 
ENDROOT
BRANCH   1   7
HETATM    7  C   UNL     1      11.136   4.472  90.096  1.00  0.00     0.254 C 
HETATM    8  O   UNL     1      11.211   3.723  89.125  1.00  0.00    -0.268 OA
HETATM    9  N   UNL     1      11.937   4.386  91.226  1.00  0.00    -0.337 N 
HETATM   10  HN  UNL     1      11.835   5.057  91.979  1.00  0.00     0.164 HD
BRANCH   9  11
HETATM   11  C   UNL     1      12.960   3.383  91.377  1.00  0.00     0.172 C 
BRANCH  11  12
HETATM   12  C   UNL     1      14.348   3.884  90.959  1.00  0.00     0.136 C 
HETATM   13  C   UNL     1      14.981   3.015  89.877  1.00  0.00     0.034 C 
BRANCH  12  14
HETATM   14  O   UNL     1      14.247   5.223  90.476  1.00  0.00    -0.383 OA
HETATM   15  H   UNL     1      13.695   5.219  89.677  1.00  0.00     0.210 HD
ENDBRANCH  12  14
ENDBRANCH  11  12
BRANCH  11  16
HETATM   16  C   UNL     1      12.952   2.924  92.832  1.00  0.00     0.398 A 
HETATM   17  O   UNL     1      12.622   3.656  93.763  1.00  0.00    -0.136 OA
HETATM   18  N   UNL     1      13.876   2.877  94.123  1.00  0.00     0.142 N 
HETATM   19  HN  UNL     1      13.760   3.361  94.968  1.00  0.00     0.338 HD
BRANCH  18  20
HETATM   20  S   UNL     1      14.953   2.187  93.578  1.00  0.00     0.076 SA
HETATM   21  H   UNL     1      14.868   1.002  93.553  1.00  0.00     0.136 HD
ENDBRANCH  18  20
ENDBRANCH  11  16
ENDBRANCH   9  11
ENDBRANCH   1   7
BRANCH   4  22
HETATM   22  C   UNL     1       7.349   8.696  90.046  1.00  0.00    -0.059 C 
HETATM   23  C   UNL     1       6.548   9.593  90.036  1.00  0.00    -0.059 C 
BRANCH  23  24
HETATM   24  C   UNL     1       5.594  10.660  90.023  1.00  0.00     0.042 A 
HETATM   25  C   UNL     1       5.879  11.839  89.336  1.00  0.00     0.008 A 
HETATM   26  C   UNL     1       4.951  12.880  89.325  1.00  0.00    -0.002 A 
HETATM   27  C   UNL     1       3.738  12.740  90.000  1.00  0.00     0.011 A 
HETATM   28  C   UNL     1       3.455  11.559  90.687  1.00  0.00    -0.002 A 
HETATM   29  C   UNL     1       4.384  10.519  90.698  1.00  0.00     0.008 A 
BRANCH  27  30
HETATM   30  C   UNL     1       2.745  13.852  89.986  1.00  0.00     0.277 C 
BRANCH  30  31
HETATM   31  N   UNL     1       2.683  14.559  91.264  1.00  0.00     0.147 N 
HETATM   32  C   UNL     1       1.712  13.921  92.164  1.00  0.00     0.283 C 
HETATM   33  C   UNL     1       1.672  14.669  93.494  1.00  0.00     0.178 C 
HETATM   34  O   UNL     1       2.969  14.689  94.093  1.00  0.00    -0.350 OA
HETATM   35  C   UNL     1       3.912  15.335  93.237  1.00  0.00     0.178 C 
HETATM   36  C   UNL     1       4.006  14.605  91.901  1.00  0.00     0.283 C 
ENDBRANCH  30  31
ENDBRANCH  27  30
ENDBRANCH  23  24
ENDBRANCH   4  22
TORSDOF 10
ENDMDL
MODEL 8
REMARK VINA RESULT:      -5.1      3.504     12.558
REMARK  10 active torsions:
REMARK  status: ('A' for Active; 'I' for Inactive)
REMARK    1  A    between atoms: O_2  and  C_16 
REMARK    2  A    between atoms: N_5  and  C_9 
REMARK    3  A    between atoms: N_6  and  C_13 
REMARK       I    between atoms: N_6  and  C_22 
REMARK    4  A    between atoms: C_9  and  C_12 
REMARK    5  A    between atoms: C_13  and  C_16 
REMARK    6  A    between atoms: C_13  and  C_21 
REMARK    7  A    between atoms: C_19  and  C_24 
REMARK    8  A    between atoms: C_22  and  C_23 
REMARK    9  A    between atoms: C_27  and  C_30 
REMARK   10  A    between atoms: N_33  and  S_34 
ROOT
HETATM    1  C   UNL     1      10.245   5.126  92.104  1.00  0.00     0.056 A 
HETATM    2  C   UNL     1       9.966   6.066  93.073  1.00  0.00     0.005 A 
HETATM    3  C   UNL     1       9.667   5.166  90.852  1.00  0.00     0.005 A 
HETATM    4  C   UNL     1       8.471   7.155  91.520  1.00  0.00     0.042 A 
HETATM    5  C   UNL     1       9.069   7.093  92.779  1.00  0.00     0.008 A 
HETATM    6  C   UNL     1       8.770   6.192  90.556  1.00  0.00     0.008 A 
ENDROOT
BRANCH   1   7
HETATM    7  C   UNL     1      11.202   4.034  92.417  1.00  0.00     0.254 C 
HETATM    8  O   UNL     1      10.775   2.898  92.611  1.00  0.00    -0.268 OA
HETATM    9  N   UNL     1      12.544   4.390  92.441  1.00  0.00    -0.337 N 
HETATM   10  HN  UNL     1      12.825   5.343  92.246  1.00  0.00     0.164 HD
BRANCH   9  11
HETATM   11  C   UNL     1      13.594   3.439  92.706  1.00  0.00     0.172 C 
BRANCH  11  12
HETATM   12  C   UNL     1      14.157   2.805  91.427  1.00  0.00     0.136 C 
HETATM   13  C   UNL     1      13.845   3.628  90.182  1.00  0.00     0.034 C 
BRANCH  12  14
HETATM   14  O   UNL     1      15.572   2.665  91.548  1.00  0.00    -0.383 OA
HETATM   15  H   UNL     1      15.784   2.500  92.482  1.00  0.00     0.210 HD
ENDBRANCH  12  14
ENDBRANCH  11  12
BRANCH  11  16
HETATM   16  C   UNL     1      14.683   4.156  93.496  1.00  0.00     0.398 A 
HETATM   17  O   UNL     1      15.302   5.124  93.056  1.00  0.00    -0.136 OA
HETATM   18  N   UNL     1      16.255   4.149  93.730  1.00  0.00     0.142 N 
HETATM   19  HN  UNL     1      16.907   4.838  93.481  1.00  0.00     0.338 HD
BRANCH  18  20
HETATM   20  S   UNL     1      16.397   2.823  94.123  1.00  0.00     0.076 SA
HETATM   21  H   UNL     1      16.974   2.105  93.372  1.00  0.00     0.136 HD
ENDBRANCH  18  20
ENDBRANCH  11  16
ENDBRANCH   9  11
ENDBRANCH   1   7
BRANCH   4  22
HETATM   22  C   UNL     1       7.549   8.206  91.220  1.00  0.00    -0.059 C 
HETATM   23  C   UNL     1       6.773   9.089  90.967  1.00  0.00    -0.059 C 
BRANCH  23  24
HETATM   24  C   UNL     1       5.850  10.140  90.667  1.00  0.00     0.042 A 
HETATM   25  C   UNL     1       6.207  11.144  89.768  1.00  0.00     0.008 A 
HETATM   26  C   UNL     1       5.309  12.171  89.477  1.00  0.00    -0.002 A 
HETATM   27  C   UNL     1       4.052  12.190  90.084  1.00  0.00     0.011 A 
HETATM   28  C   UNL     1       3.697  11.185  90.982  1.00  0.00    -0.002 A 
HETATM   29  C   UNL     1       4.596  10.159  91.274  1.00  0.00     0.008 A 
BRANCH  27  30
HETATM   30  C   UNL     1       3.092  13.287  89.770  1.00  0.00     0.277 C 
BRANCH  30  31
HETATM   31  N   UNL     1       3.011  14.280  90.840  1.00  0.00     0.147 N 
HETATM   32  C   UNL     1       2.107  13.825  91.905  1.00  0.00     0.283 C 
HETATM   33  C   UNL     1       2.048  14.872  93.015  1.00  0.00     0.178 C 
HETATM   34  O   UNL     1       3.354  15.115  93.539  1.00  0.00    -0.350 OA
HETATM   35  C   UNL     1       4.232  15.587  92.516  1.00  0.00     0.178 C 
HETATM   36  C   UNL     1       4.343  14.559  91.395  1.00  0.00     0.283 C 
ENDBRANCH  30  31
ENDBRANCH  27  30
ENDBRANCH  23  24
ENDBRANCH   4  22
TORSDOF 10
ENDMDL
MODEL 9
REMARK VINA RESULT:      -5.0      3.596     12.524
REMARK  10 active torsions:
REMARK  status: ('A' for Active; 'I' for Inactive)
REMARK    1  A    between atoms: O_2  and  C_16 
REMARK    2  A    between atoms: N_5  and  C_9 
REMARK    3  A    between atoms: N_6  and  C_13 
REMARK       I    between atoms: N_6  and  C_22 
REMARK    4  A    between atoms: C_9  and  C_12 
REMARK    5  A    between atoms: C_13  and  C_16 
REMARK    6  A    between atoms: C_13  and  C_21 
REMARK    7  A    between atoms: C_19  and  C_24 
REMARK    8  A    between atoms: C_22  and  C_23 
REMARK    9  A    between atoms: C_27  and  C_30 
REMARK   10  A    between atoms: N_33  and  S_34 
ROOT
HETATM    1  C   UNL     1      10.484   4.729  92.456  1.00  0.00     0.056 A 
HETATM    2  C   UNL     1      10.011   5.397  93.566  1.00  0.00     0.005 A 
HETATM    3  C   UNL     1      10.014   4.988  91.186  1.00  0.00     0.005 A 
HETATM    4  C   UNL     1       8.530   6.648  92.124  1.00  0.00     0.042 A 
HETATM    5  C   UNL     1       9.023   6.367  93.400  1.00  0.00     0.008 A 
HETATM    6  C   UNL     1       9.026   5.958  91.018  1.00  0.00     0.008 A 
ENDROOT
BRANCH   1   7
HETATM    7  C   UNL     1      11.538   3.697  92.634  1.00  0.00     0.254 C 
HETATM    8  O   UNL     1      11.225   2.510  92.606  1.00  0.00    -0.268 OA
HETATM    9  N   UNL     1      12.832   4.172  92.799  1.00  0.00    -0.337 N 
HETATM   10  HN  UNL     1      13.018   5.168  92.786  1.00  0.00     0.164 HD
BRANCH   9  11
HETATM   11  C   UNL     1      13.965   3.296  92.959  1.00  0.00     0.172 C 
BRANCH  11  12
HETATM   12  C   UNL     1      14.507   2.777  91.621  1.00  0.00     0.136 C 
HETATM   13  C   UNL     1      14.295   3.767  90.481  1.00  0.00     0.034 C 
BRANCH  12  14
HETATM   14  O   UNL     1      15.902   2.504  91.745  1.00  0.00    -0.383 OA
HETATM   15  H   UNL     1      16.366   2.950  91.016  1.00  0.00     0.210 HD
ENDBRANCH  12  14
ENDBRANCH  11  12
BRANCH  11  16
HETATM   16  C   UNL     1      15.036   4.057  93.733  1.00  0.00     0.398 A 
HETATM   17  O   UNL     1      15.519   5.118  93.342  1.00  0.00    -0.136 OA
HETATM   18  N   UNL     1      16.614   4.197  93.857  1.00  0.00     0.142 N 
HETATM   19  HN  UNL     1      17.173   4.970  93.627  1.00  0.00     0.338 HD
BRANCH  18  20
HETATM   20  S   UNL     1      16.918   2.866  94.117  1.00  0.00     0.076 SA
HETATM   21  H   UNL     1      17.513   2.644  95.122  1.00  0.00     0.136 HD
ENDBRANCH  18  20
ENDBRANCH  11  16
ENDBRANCH   9  11
ENDBRANCH   1   7
BRANCH   4  22
HETATM   22  C   UNL     1       7.515   7.640  91.954  1.00  0.00    -0.059 C 
HETATM   23  C   UNL     1       6.662   8.475  91.810  1.00  0.00    -0.059 C 
BRANCH  23  24
HETATM   24  C   UNL     1       5.647   9.468  91.638  1.00  0.00     0.042 A 
HETATM   25  C   UNL     1       5.775  10.709  92.262  1.00  0.00     0.008 A 
HETATM   26  C   UNL     1       4.785  11.677  92.096  1.00  0.00    -0.002 A 
HETATM   27  C   UNL     1       3.668  11.404  91.305  1.00  0.00     0.011 A 
HETATM   28  C   UNL     1       3.542  10.162  90.682  1.00  0.00    -0.002 A 
HETATM   29  C   UNL     1       4.532   9.195  90.849  1.00  0.00     0.008 A 
BRANCH  27  30
HETATM   30  C   UNL     1       2.611  12.440  91.127  1.00  0.00     0.277 C 
BRANCH  30  31
HETATM   31  N   UNL     1       3.167  13.757  90.820  1.00  0.00     0.147 N 
HETATM   32  C   UNL     1       3.973  14.256  91.944  1.00  0.00     0.283 C 
HETATM   33  C   UNL     1       4.552  15.625  91.596  1.00  0.00     0.178 C 
HETATM   34  O   UNL     1       5.346  15.543  90.411  1.00  0.00    -0.350 OA
HETATM   35  C   UNL     1       4.562  15.087  89.307  1.00  0.00     0.178 C 
HETATM   36  C   UNL     1       3.983  13.707  89.599  1.00  0.00     0.283 C 
ENDBRANCH  30  31
ENDBRANCH  27  30
ENDBRANCH  23  24
ENDBRANCH   4  22
TORSDOF 10
ENDMDL
