MODEL 1
REMARK VINA RESULT:      -6.5      0.000      0.000
REMARK  14 active torsions:
REMARK  status: ('A' for Active; 'I' for Inactive)
REMARK    1  A    between atoms: O_2  and  C_18 
REMARK    2  A    between atoms: C_5  and  C_8 
REMARK    3  A    between atoms: C_5  and  O_35 
REMARK    4  A    between atoms: C_5  and  C_36 
REMARK    5  A    between atoms: N_6  and  C_11 
REMARK    6  A    between atoms: N_7  and  C_15 
REMARK       I    between atoms: N_7  and  C_24 
REMARK    7  A    between atoms: C_8  and  C_23 
REMARK    8  A    between atoms: C_11  and  C_14 
REMARK    9  A    between atoms: C_15  and  C_18 
REMARK   10  A    between atoms: C_15  and  C_23 
REMARK   11  A    between atoms: C_21  and  C_26 
REMARK   12  A    between atoms: C_24  and  C_25 
REMARK   13  A    between atoms: C_29  and  C_32 
REMARK   14  A    between atoms: C_36  and  O_39 
ROOT
HETATM    1  O   UNL     1      16.970   3.761  93.853  1.00  0.00    -0.350 OA
HETATM    2  N   UNL     1      14.343   3.084  92.991  1.00  0.00     0.147 N 
HETATM    3  C   UNL     1      15.415   2.080  93.049  1.00  0.00     0.283 C 
HETATM    4  C   UNL     1      14.914   4.415  92.745  1.00  0.00     0.283 C 
HETATM    5  C   UNL     1      16.427   2.467  94.124  1.00  0.00     0.178 C 
HETATM    6  C   UNL     1      15.938   4.747  93.825  1.00  0.00     0.178 C 
ENDROOT
BRANCH   2   7
HETATM    7  C   UNL     1      13.366   2.738  91.960  1.00  0.00     0.277 C 
BRANCH   7   8
HETATM    8  C   UNL     1      12.264   3.738  91.863  1.00  0.00     0.011 A 
HETATM    9  C   UNL     1      11.817   4.163  90.612  1.00  0.00    -0.002 A 
HETATM   10  C   UNL     1      10.788   5.100  90.520  1.00  0.00     0.008 A 
HETATM   11  C   UNL     1      10.206   5.610  91.680  1.00  0.00     0.042 A 
HETATM   12  C   UNL     1      10.651   5.186  92.931  1.00  0.00     0.008 A 
HETATM   13  C   UNL     1      11.681   4.250  93.022  1.00  0.00    -0.002 A 
BRANCH  11  14
HETATM   14  C   UNL     1       9.149   6.570  91.586  1.00  0.00    -0.059 C 
HETATM   15  C   UNL     1       8.260   7.376  91.508  1.00  0.00    -0.059 C 
BRANCH  15  16
HETATM   16  C   UNL     1       7.204   8.335  91.415  1.00  0.00     0.042 A 
HETATM   17  C   UNL     1       7.157   9.216  90.334  1.00  0.00     0.008 A 
HETATM   18  C   UNL     1       6.125  10.150  90.242  1.00  0.00     0.005 A 
HETATM   19  C   UNL     1       5.164  10.182  91.231  1.00  0.00     0.056 A 
HETATM   20  C   UNL     1       5.189   9.322  92.309  1.00  0.00     0.005 A 
HETATM   21  C   UNL     1       6.220   8.388  92.403  1.00  0.00     0.008 A 
BRANCH  19  22
HETATM   22  C   UNL     1       4.066  11.179  91.134  1.00  0.00     0.254 C 
HETATM   23  O   UNL     1       2.982  10.833  90.671  1.00  0.00    -0.268 OA
HETATM   24  N   UNL     1       4.355  12.450  91.610  1.00  0.00    -0.335 N 
HETATM   25  HN  UNL     1       5.266  12.656  92.003  1.00  0.00     0.164 HD
BRANCH  24  26
HETATM   26  C   UNL     1       3.388  13.518  91.606  1.00  0.00     0.169 C 
BRANCH  26  27
HETATM   27  C   UNL     1       2.977  13.952  93.019  1.00  0.00     0.138 C 
HETATM   28  C   UNL     1       4.173  14.107  93.953  1.00  0.00     0.034 C 
BRANCH  27  29
HETATM   29  O   UNL     1       2.277  15.194  92.953  1.00  0.00    -0.383 OA
HETATM   30  H   UNL     1       2.079  15.382  92.020  1.00  0.00     0.210 HD
ENDBRANCH  27  29
ENDBRANCH  26  27
BRANCH  26  31
HETATM   31  C   UNL     1       3.982  14.682  90.819  1.00  0.00     0.194 C 
HETATM   32  O   UNL     1       4.571  15.620  91.353  1.00  0.00    -0.289 OA
BRANCH  31  33
HETATM   33  C   UNL     1       3.745  14.570  89.471  1.00  0.00     0.053 C 
BRANCH  33  34
HETATM   34  C   UNL     1       4.824  14.119  88.697  1.00  0.00     0.220 C 
BRANCH  34  35
HETATM   35  O   UNL     1       5.835  14.108  89.425  1.00  0.00    -0.371 OA
HETATM   36  H   UNL     1       6.489  14.149  88.743  1.00  0.00     0.211 HD
ENDBRANCH  34  35
BRANCH  34  37
HETATM   37  C   UNL     1       4.593  12.874  88.087  1.00  0.00     0.185 C 
HETATM   38  O   UNL     1       5.916  12.827  88.049  1.00  0.00    -0.647 OA
BRANCH  37  39
HETATM   39  O   UNL     1       3.647  12.231  87.743  1.00  0.00    -0.774 OA
HETATM   40  H   UNL     1       3.950  11.363  87.079  1.00  0.00     0.167 HD
ENDBRANCH  37  39
ENDBRANCH  34  37
ENDBRANCH  33  34
ENDBRANCH  31  33
ENDBRANCH  26  31
ENDBRANCH  24  26
ENDBRANCH  19  22
ENDBRANCH  15  16
ENDBRANCH  11  14
ENDBRANCH   7   8
ENDBRANCH   2   7
TORSDOF 14
ENDMDL
