MODEL 1
REMARK VINA RESULT:      -7.0      0.000      0.000
REMARK  11 active torsions:
REMARK  status: ('A' for Active; 'I' for Inactive)
REMARK    1  A    between atoms: O_2  and  C_18 
REMARK    2  A    between atoms: O_5  and  P_8 
REMARK    3  A    between atoms: N_6  and  C_11 
REMARK    4  A    between atoms: N_7  and  C_15 
REMARK       I    between atoms: N_7  and  C_24 
REMARK    5  A    between atoms: P_8  and  C_23 
REMARK    6  A    between atoms: C_11  and  C_14 
REMARK    7  A    between atoms: C_15  and  C_18 
REMARK    8  A    between atoms: C_15  and  C_23 
REMARK    9  A    between atoms: C_21  and  C_26 
REMARK   10  A    between atoms: C_24  and  C_25 
REMARK   11  A    between atoms: C_29  and  C_32 
ROOT
HETATM    1  O   UNL     1      16.219   4.283  94.057  1.00  0.00     0.000 OA
HETATM    2  N   UNL     1      14.419   2.642  92.585  1.00  0.00     0.000 N 
HETATM    3  C   UNL     1      14.355   4.108  92.514  1.00  0.00     0.000 C 
HETATM    4  C   UNL     1      14.948   2.224  93.891  1.00  0.00     0.000 C 
HETATM    5  C   UNL     1      15.737   4.700  92.779  1.00  0.00     0.000 C 
HETATM    6  C   UNL     1      16.314   2.860  94.124  1.00  0.00     0.000 C 
ENDROOT
BRANCH   2   7
HETATM    7  C   UNL     1      13.103   2.054  92.345  1.00  0.00     0.000 C 
BRANCH   7   8
HETATM    8  C   UNL     1      12.069   3.082  92.032  1.00  0.00     0.000 A 
HETATM    9  C   UNL     1      11.686   3.304  90.709  1.00  0.00     0.000 A 
HETATM   10  C   UNL     1      10.721   4.268  90.415  1.00  0.00     0.000 A 
HETATM   11  C   UNL     1      10.139   5.007  91.445  1.00  0.00     0.000 A 
HETATM   12  C   UNL     1      10.521   4.785  92.766  1.00  0.00     0.000 A 
HETATM   13  C   UNL     1      11.486   3.823  93.061  1.00  0.00     0.000 A 
BRANCH  11  14
HETATM   14  C   UNL     1       9.147   5.993  91.144  1.00  0.00     0.000 C 
HETATM   15  C   UNL     1       8.315   6.823  90.890  1.00  0.00     0.000 C 
BRANCH  15  16
HETATM   16  C   UNL     1       7.324   7.809  90.588  1.00  0.00     0.000 A 
HETATM   17  C   UNL     1       7.286   9.001  91.311  1.00  0.00     0.000 A 
HETATM   18  C   UNL     1       6.321   9.964  91.014  1.00  0.00     0.000 A 
HETATM   19  C   UNL     1       5.418   9.714  90.003  1.00  0.00     0.000 A 
HETATM   20  C   UNL     1       5.435   8.543  89.274  1.00  0.00     0.000 A 
HETATM   21  C   UNL     1       6.399   7.579  89.570  1.00  0.00     0.000 A 
BRANCH  19  22
HETATM   22  C   UNL     1       4.390  10.739  89.689  1.00  0.00     0.000 C 
HETATM   23  O   UNL     1       3.398  10.414  89.040  1.00  0.00     0.000 OA
HETATM   24  N   UNL     1       4.627  12.012  90.188  1.00  0.00     0.000 N 
HETATM   25  HN  UNL     1       5.457  12.200  90.738  1.00  0.00     0.000 HD
BRANCH  24  26
HETATM   26  C   UNL     1       3.712  13.106  89.989  1.00  0.00     0.000 C 
BRANCH  26  27
HETATM   27  C   UNL     1       3.078  13.595  91.297  1.00  0.00     0.000 C 
HETATM   28  C   UNL     1       2.275  12.506  92.000  1.00  0.00     0.000 C 
BRANCH  27  29
HETATM   29  O   UNL     1       4.099  14.060  92.179  1.00  0.00     0.000 OA
HETATM   30  H   UNL     1       4.163  13.440  92.925  1.00  0.00     0.000 HD
ENDBRANCH  27  29
ENDBRANCH  26  27
BRANCH  26  31
HETATM   31  C   UNL     1       4.472  14.228  89.288  1.00  0.00     0.000 C 
HETATM   32  O   UNL     1       4.398  15.405  89.635  1.00  0.00     0.000 OA
BRANCH  31  33
HETATM   33  P   UNL     1       5.203  13.770  88.219  1.00  0.00     0.000 P 
HETATM   34  H   UNL     1       5.654  14.867  87.514  1.00  0.00     0.000 HD
BRANCH  33  35
HETATM   35  O   UNL     1       4.518  12.936  87.324  1.00  0.00     0.000 OA
HETATM   36  H   UNL     1       3.600  13.190  87.517  1.00  0.00     0.000 HD
ENDBRANCH  33  35
ENDBRANCH  31  33
ENDBRANCH  26  31
ENDBRANCH  24  26
ENDBRANCH  19  22
ENDBRANCH  15  16
ENDBRANCH  11  14
ENDBRANCH   7   8
ENDBRANCH   2   7
TORSDOF 11
ENDMDL
MODEL 2
REMARK VINA RESULT:      -6.7      1.760      2.725
REMARK  11 active torsions:
REMARK  status: ('A' for Active; 'I' for Inactive)
REMARK    1  A    between atoms: O_2  and  C_18 
REMARK    2  A    between atoms: O_5  and  P_8 
REMARK    3  A    between atoms: N_6  and  C_11 
REMARK    4  A    between atoms: N_7  and  C_15 
REMARK       I    between atoms: N_7  and  C_24 
REMARK    5  A    between atoms: P_8  and  C_23 
REMARK    6  A    between atoms: C_11  and  C_14 
REMARK    7  A    between atoms: C_15  and  C_18 
REMARK    8  A    between atoms: C_15  and  C_23 
REMARK    9  A    between atoms: C_21  and  C_26 
REMARK   10  A    between atoms: C_24  and  C_25 
REMARK   11  A    between atoms: C_29  and  C_32 
ROOT
HETATM    1  O   UNL     1      16.153   3.970  94.124  1.00  0.00     0.000 OA
HETATM    2  N   UNL     1      14.244   2.690  92.444  1.00  0.00     0.000 N 
HETATM    3  C   UNL     1      14.410   4.150  92.444  1.00  0.00     0.000 C 
HETATM    4  C   UNL     1      14.598   2.143  93.761  1.00  0.00     0.000 C 
HETATM    5  C   UNL     1      15.842   4.507  92.837  1.00  0.00     0.000 C 
HETATM    6  C   UNL     1      16.024   2.547  94.124  1.00  0.00     0.000 C 
ENDROOT
BRANCH   2   7
HETATM    7  C   UNL     1      12.876   2.324  92.080  1.00  0.00     0.000 C 
BRANCH   7   8
HETATM    8  C   UNL     1      11.941   3.483  92.153  1.00  0.00     0.000 A 
HETATM    9  C   UNL     1      11.377   3.998  90.985  1.00  0.00     0.000 A 
HETATM   10  C   UNL     1      10.503   5.083  91.052  1.00  0.00     0.000 A 
HETATM   11  C   UNL     1      10.192   5.651  92.287  1.00  0.00     0.000 A 
HETATM   12  C   UNL     1      10.754   5.137  93.454  1.00  0.00     0.000 A 
HETATM   13  C   UNL     1      11.628   4.053  93.388  1.00  0.00     0.000 A 
BRANCH  11  14
HETATM   14  C   UNL     1       9.294   6.762  92.356  1.00  0.00     0.000 C 
HETATM   15  C   UNL     1       8.539   7.697  92.414  1.00  0.00     0.000 C 
BRANCH  15  16
HETATM   16  C   UNL     1       7.642   8.808  92.483  1.00  0.00     0.000 A 
HETATM   17  C   UNL     1       7.562   9.567  93.651  1.00  0.00     0.000 A 
HETATM   18  C   UNL     1       6.689  10.653  93.716  1.00  0.00     0.000 A 
HETATM   19  C   UNL     1       5.918  10.956  92.613  1.00  0.00     0.000 A 
HETATM   20  C   UNL     1       5.979  10.221  91.448  1.00  0.00     0.000 A 
HETATM   21  C   UNL     1       6.851   9.135  91.381  1.00  0.00     0.000 A 
BRANCH  19  22
HETATM   22  C   UNL     1       4.986  12.111  92.685  1.00  0.00     0.000 C 
HETATM   23  O   UNL     1       4.769  12.640  93.772  1.00  0.00     0.000 OA
HETATM   24  N   UNL     1       4.440  12.527  91.478  1.00  0.00     0.000 N 
HETATM   25  HN  UNL     1       4.686  12.057  90.615  1.00  0.00     0.000 HD
BRANCH  24  26
HETATM   26  C   UNL     1       3.540  13.648  91.380  1.00  0.00     0.000 C 
BRANCH  26  27
HETATM   27  C   UNL     1       3.486  14.243  89.967  1.00  0.00     0.000 C 
HETATM   28  C   UNL     1       4.818  14.845  89.535  1.00  0.00     0.000 C 
BRANCH  27  29
HETATM   29  O   UNL     1       3.111  13.229  89.036  1.00  0.00     0.000 OA
HETATM   30  H   UNL     1       3.220  12.364  89.467  1.00  0.00     0.000 HD
ENDBRANCH  27  29
ENDBRANCH  26  27
BRANCH  26  31
HETATM   31  C   UNL     1       2.163  13.181  91.838  1.00  0.00     0.000 C 
HETATM   32  O   UNL     1       1.692  12.086  91.535  1.00  0.00     0.000 OA
BRANCH  31  33
HETATM   33  P   UNL     1       1.513  14.134  92.584  1.00  0.00     0.000 P 
HETATM   34  H   UNL     1       0.507  14.668  91.805  1.00  0.00     0.000 HD
BRANCH  33  35
HETATM   35  O   UNL     1       2.307  15.193  93.046  1.00  0.00     0.000 OA
HETATM   36  H   UNL     1       1.649  15.909  93.065  1.00  0.00     0.000 HD
ENDBRANCH  33  35
ENDBRANCH  31  33
ENDBRANCH  26  31
ENDBRANCH  24  26
ENDBRANCH  19  22
ENDBRANCH  15  16
ENDBRANCH  11  14
ENDBRANCH   7   8
ENDBRANCH   2   7
TORSDOF 11
ENDMDL
MODEL 3
REMARK VINA RESULT:      -6.6      0.694      1.607
REMARK  11 active torsions:
REMARK  status: ('A' for Active; 'I' for Inactive)
REMARK    1  A    between atoms: O_2  and  C_18 
REMARK    2  A    between atoms: O_5  and  P_8 
REMARK    3  A    between atoms: N_6  and  C_11 
REMARK    4  A    between atoms: N_7  and  C_15 
REMARK       I    between atoms: N_7  and  C_24 
REMARK    5  A    between atoms: P_8  and  C_23 
REMARK    6  A    between atoms: C_11  and  C_14 
REMARK    7  A    between atoms: C_15  and  C_18 
REMARK    8  A    between atoms: C_15  and  C_23 
REMARK    9  A    between atoms: C_21  and  C_26 
REMARK   10  A    between atoms: C_24  and  C_25 
REMARK   11  A    between atoms: C_29  and  C_32 
ROOT
HETATM    1  O   UNL     1      17.091   4.003  93.763  1.00  0.00     0.000 OA
HETATM    2  N   UNL     1      14.542   2.873  93.188  1.00  0.00     0.000 N 
HETATM    3  C   UNL     1      15.765   2.059  93.167  1.00  0.00     0.000 C 
HETATM    4  C   UNL     1      14.859   4.268  92.849  1.00  0.00     0.000 C 
HETATM    5  C   UNL     1      16.797   2.651  94.123  1.00  0.00     0.000 C 
HETATM    6  C   UNL     1      15.912   4.808  93.811  1.00  0.00     0.000 C 
ENDROOT
BRANCH   2   7
HETATM    7  C   UNL     1      13.542   2.330  92.271  1.00  0.00     0.000 C 
BRANCH   7   8
HETATM    8  C   UNL     1      12.445   3.299  91.987  1.00  0.00     0.000 A 
HETATM    9  C   UNL     1      11.713   3.850  93.040  1.00  0.00     0.000 A 
HETATM   10  C   UNL     1      10.685   4.755  92.776  1.00  0.00     0.000 A 
HETATM   11  C   UNL     1      10.391   5.110  91.460  1.00  0.00     0.000 A 
HETATM   12  C   UNL     1      11.122   4.560  90.408  1.00  0.00     0.000 A 
HETATM   13  C   UNL     1      12.149   3.655  90.671  1.00  0.00     0.000 A 
BRANCH  11  14
HETATM   14  C   UNL     1       9.338   6.040  91.189  1.00  0.00     0.000 C 
HETATM   15  C   UNL     1       8.453   6.821  90.962  1.00  0.00     0.000 C 
BRANCH  15  16
HETATM   16  C   UNL     1       7.400   7.750  90.693  1.00  0.00     0.000 A 
HETATM   17  C   UNL     1       6.547   7.541  89.609  1.00  0.00     0.000 A 
HETATM   18  C   UNL     1       5.519   8.447  89.348  1.00  0.00     0.000 A 
HETATM   19  C   UNL     1       5.366   9.539  90.176  1.00  0.00     0.000 A 
HETATM   20  C   UNL     1       6.196   9.768  91.253  1.00  0.00     0.000 A 
HETATM   21  C   UNL     1       7.225   8.863  91.515  1.00  0.00     0.000 A 
BRANCH  19  22
HETATM   22  C   UNL     1       4.271  10.504  89.896  1.00  0.00     0.000 C 
HETATM   23  O   UNL     1       3.158  10.079  89.597  1.00  0.00     0.000 OA
HETATM   24  N   UNL     1       4.598  11.847  90.022  1.00  0.00     0.000 N 
HETATM   25  HN  UNL     1       5.533  12.124  90.298  1.00  0.00     0.000 HD
BRANCH  24  26
HETATM   26  C   UNL     1       3.640  12.902  89.808  1.00  0.00     0.000 C 
BRANCH  26  27
HETATM   27  C   UNL     1       2.742  13.145  91.028  1.00  0.00     0.000 C 
HETATM   28  C   UNL     1       3.540  13.295  92.319  1.00  0.00     0.000 C 
BRANCH  27  29
HETATM   29  O   UNL     1       1.967  14.326  90.822  1.00  0.00     0.000 OA
HETATM   30  H   UNL     1       2.468  14.921  90.239  1.00  0.00     0.000 HD
ENDBRANCH  27  29
ENDBRANCH  26  27
BRANCH  26  31
HETATM   31  C   UNL     1       4.411  14.161  89.427  1.00  0.00     0.000 C 
HETATM   32  O   UNL     1       4.492  15.145  90.161  1.00  0.00     0.000 OA
BRANCH  31  33
HETATM   33  P   UNL     1       4.959  14.074  88.170  1.00  0.00     0.000 P 
HETATM   34  H   UNL     1       4.602  15.211  87.473  1.00  0.00     0.000 HD
BRANCH  33  35
HETATM   35  O   UNL     1       4.568  12.963  87.410  1.00  0.00     0.000 OA
HETATM   36  H   UNL     1       3.662  12.836  87.739  1.00  0.00     0.000 HD
ENDBRANCH  33  35
ENDBRANCH  31  33
ENDBRANCH  26  31
ENDBRANCH  24  26
ENDBRANCH  19  22
ENDBRANCH  15  16
ENDBRANCH  11  14
ENDBRANCH   7   8
ENDBRANCH   2   7
TORSDOF 11
ENDMDL
MODEL 4
REMARK VINA RESULT:      -5.9      1.844      2.234
REMARK  11 active torsions:
REMARK  status: ('A' for Active; 'I' for Inactive)
REMARK    1  A    between atoms: O_2  and  C_18 
REMARK    2  A    between atoms: O_5  and  P_8 
REMARK    3  A    between atoms: N_6  and  C_11 
REMARK    4  A    between atoms: N_7  and  C_15 
REMARK       I    between atoms: N_7  and  C_24 
REMARK    5  A    between atoms: P_8  and  C_23 
REMARK    6  A    between atoms: C_11  and  C_14 
REMARK    7  A    between atoms: C_15  and  C_18 
REMARK    8  A    between atoms: C_15  and  C_23 
REMARK    9  A    between atoms: C_21  and  C_26 
REMARK   10  A    between atoms: C_24  and  C_25 
REMARK   11  A    between atoms: C_29  and  C_32 
ROOT
HETATM    1  O   UNL     1      16.428   2.912  93.924  1.00  0.00     0.000 OA
HETATM    2  N   UNL     1      13.855   3.063  92.718  1.00  0.00     0.000 N 
HETATM    3  C   UNL     1      14.532   1.776  92.922  1.00  0.00     0.000 C 
HETATM    4  C   UNL     1      14.847   4.133  92.549  1.00  0.00     0.000 C 
HETATM    5  C   UNL     1      15.471   1.870  94.123  1.00  0.00     0.000 C 
HETATM    6  C   UNL     1      15.778   4.172  93.756  1.00  0.00     0.000 C 
ENDROOT
BRANCH   2   7
HETATM    7  C   UNL     1      12.957   2.999  91.566  1.00  0.00     0.000 C 
BRANCH   7   8
HETATM    8  C   UNL     1      11.803   3.934  91.692  1.00  0.00     0.000 A 
HETATM    9  C   UNL     1      11.187   4.439  90.546  1.00  0.00     0.000 A 
HETATM   10  C   UNL     1      10.109   5.316  90.663  1.00  0.00     0.000 A 
HETATM   11  C   UNL     1       9.645   5.685  91.926  1.00  0.00     0.000 A 
HETATM   12  C   UNL     1      10.259   5.181  93.070  1.00  0.00     0.000 A 
HETATM   13  C   UNL     1      11.338   4.305  92.954  1.00  0.00     0.000 A 
BRANCH  11  14
HETATM   14  C   UNL     1       8.537   6.582  92.045  1.00  0.00     0.000 C 
HETATM   15  C   UNL     1       7.606   7.336  92.145  1.00  0.00     0.000 C 
BRANCH  15  16
HETATM   16  C   UNL     1       6.499   8.233  92.264  1.00  0.00     0.000 A 
HETATM   17  C   UNL     1       6.686   9.502  92.812  1.00  0.00     0.000 A 
HETATM   18  C   UNL     1       5.605  10.377  92.926  1.00  0.00     0.000 A 
HETATM   19  C   UNL     1       4.364   9.964  92.489  1.00  0.00     0.000 A 
HETATM   20  C   UNL     1       4.154   8.715  91.944  1.00  0.00     0.000 A 
HETATM   21  C   UNL     1       5.233   7.839  91.830  1.00  0.00     0.000 A 
BRANCH  19  22
HETATM   22  C   UNL     1       3.214  10.896  92.612  1.00  0.00     0.000 C 
HETATM   23  O   UNL     1       2.181  10.506  93.151  1.00  0.00     0.000 OA
HETATM   24  N   UNL     1       3.412  12.177  92.114  1.00  0.00     0.000 N 
HETATM   25  HN  UNL     1       4.302  12.435  91.704  1.00  0.00     0.000 HD
BRANCH  24  26
HETATM   26  C   UNL     1       2.401  13.201  92.182  1.00  0.00     0.000 C 
BRANCH  26  27
HETATM   27  C   UNL     1       2.643  14.201  93.319  1.00  0.00     0.000 C 
HETATM   28  C   UNL     1       4.125  14.483  93.543  1.00  0.00     0.000 C 
BRANCH  27  29
HETATM   29  O   UNL     1       1.977  15.428  93.026  1.00  0.00     0.000 OA
HETATM   30  H   UNL     1       1.426  15.295  92.236  1.00  0.00     0.000 HD
ENDBRANCH  27  29
ENDBRANCH  26  27
BRANCH  26  31
HETATM   31  C   UNL     1       2.356  13.901  90.828  1.00  0.00     0.000 C 
HETATM   32  O   UNL     1       1.432  14.636  90.484  1.00  0.00     0.000 OA
BRANCH  31  33
HETATM   33  P   UNL     1       3.438  13.583  90.043  1.00  0.00     0.000 P 
HETATM   34  H   UNL     1       3.958  14.760  89.543  1.00  0.00     0.000 HD
BRANCH  33  35
HETATM   35  O   UNL     1       3.176  12.734  88.958  1.00  0.00     0.000 OA
HETATM   36  H   UNL     1       2.237  12.536  89.114  1.00  0.00     0.000 HD
ENDBRANCH  33  35
ENDBRANCH  31  33
ENDBRANCH  26  31
ENDBRANCH  24  26
ENDBRANCH  19  22
ENDBRANCH  15  16
ENDBRANCH  11  14
ENDBRANCH   7   8
ENDBRANCH   2   7
TORSDOF 11
ENDMDL
MODEL 5
REMARK VINA RESULT:      -5.3      3.504     12.174
REMARK  11 active torsions:
REMARK  status: ('A' for Active; 'I' for Inactive)
REMARK    1  A    between atoms: O_2  and  C_18 
REMARK    2  A    between atoms: O_5  and  P_8 
REMARK    3  A    between atoms: N_6  and  C_11 
REMARK    4  A    between atoms: N_7  and  C_15 
REMARK       I    between atoms: N_7  and  C_24 
REMARK    5  A    between atoms: P_8  and  C_23 
REMARK    6  A    between atoms: C_11  and  C_14 
REMARK    7  A    between atoms: C_15  and  C_18 
REMARK    8  A    between atoms: C_15  and  C_23 
REMARK    9  A    between atoms: C_21  and  C_26 
REMARK   10  A    between atoms: C_24  and  C_25 
REMARK   11  A    between atoms: C_29  and  C_32 
ROOT
HETATM    1  O   UNL     1       3.152  14.599  94.091  1.00  0.00     0.000 OA
HETATM    2  N   UNL     1       2.820  14.558  91.264  1.00  0.00     0.000 N 
HETATM    3  C   UNL     1       1.885  13.859  92.157  1.00  0.00     0.000 C 
HETATM    4  C   UNL     1       4.152  14.622  91.881  1.00  0.00     0.000 C 
HETATM    5  C   UNL     1       1.846  14.559  93.514  1.00  0.00     0.000 C 
HETATM    6  C   UNL     1       4.060  15.303  93.243  1.00  0.00     0.000 C 
ENDROOT
BRANCH   2   7
HETATM    7  C   UNL     1       2.882  13.897  89.961  1.00  0.00     0.000 C 
BRANCH   7   8
HETATM    8  C   UNL     1       3.875  12.786  89.934  1.00  0.00     0.000 A 
HETATM    9  C   UNL     1       5.095  12.958  89.280  1.00  0.00     0.000 A 
HETATM   10  C   UNL     1       6.024  11.917  89.253  1.00  0.00     0.000 A 
HETATM   11  C   UNL     1       5.733  10.707  89.881  1.00  0.00     0.000 A 
HETATM   12  C   UNL     1       4.514  10.534  90.535  1.00  0.00     0.000 A 
HETATM   13  C   UNL     1       3.585  11.574  90.562  1.00  0.00     0.000 A 
BRANCH  11  14
HETATM   14  C   UNL     1       6.687   9.641  89.854  1.00  0.00     0.000 C 
HETATM   15  C   UNL     1       7.488   8.745  89.831  1.00  0.00     0.000 C 
BRANCH  15  16
HETATM   16  C   UNL     1       8.442   7.680  89.804  1.00  0.00     0.000 A 
HETATM   17  C   UNL     1       8.717   6.962  90.968  1.00  0.00     0.000 A 
HETATM   18  C   UNL     1       9.645   5.921  90.940  1.00  0.00     0.000 A 
HETATM   19  C   UNL     1      10.276   5.622  89.751  1.00  0.00     0.000 A 
HETATM   20  C   UNL     1      10.022   6.317  88.588  1.00  0.00     0.000 A 
HETATM   21  C   UNL     1       9.094   7.358  88.614  1.00  0.00     0.000 A 
BRANCH  19  22
HETATM   22  C   UNL     1      11.267   4.515  89.723  1.00  0.00     0.000 C 
HETATM   23  O   UNL     1      11.477   3.925  88.666  1.00  0.00     0.000 OA
HETATM   24  N   UNL     1      11.910   4.244  90.923  1.00  0.00     0.000 N 
HETATM   25  HN  UNL     1      11.703   4.790  91.750  1.00  0.00     0.000 HD
BRANCH  24  26
HETATM   26  C   UNL     1      12.913   3.217  91.050  1.00  0.00     0.000 C 
BRANCH  26  27
HETATM   27  C   UNL     1      14.323   3.719  90.712  1.00  0.00     0.000 C 
HETATM   28  C   UNL     1      14.786   4.831  91.646  1.00  0.00     0.000 C 
BRANCH  27  29
HETATM   29  O   UNL     1      15.247   2.634  90.790  1.00  0.00     0.000 OA
HETATM   30  H   UNL     1      14.752   1.827  91.010  1.00  0.00     0.000 HD
ENDBRANCH  27  29
ENDBRANCH  26  27
BRANCH  26  31
HETATM   31  C   UNL     1      12.845   2.673  92.473  1.00  0.00     0.000 C 
HETATM   32  O   UNL     1      13.660   1.871  92.924  1.00  0.00     0.000 OA
BRANCH  31  33
HETATM   33  P   UNL     1      11.756   3.153  93.161  1.00  0.00     0.000 P 
HETATM   34  H   UNL     1      10.761   3.421  92.243  1.00  0.00     0.000 HD
BRANCH  33  35
HETATM   35  O   UNL     1      11.973   4.318  93.911  1.00  0.00     0.000 OA
HETATM   36  H   UNL     1      12.921   4.459  93.743  1.00  0.00     0.000 HD
ENDBRANCH  33  35
ENDBRANCH  31  33
ENDBRANCH  26  31
ENDBRANCH  24  26
ENDBRANCH  19  22
ENDBRANCH  15  16
ENDBRANCH  11  14
ENDBRANCH   7   8
ENDBRANCH   2   7
TORSDOF 11
ENDMDL
MODEL 6
REMARK VINA RESULT:      -5.3      1.436      1.555
REMARK  11 active torsions:
REMARK  status: ('A' for Active; 'I' for Inactive)
REMARK    1  A    between atoms: O_2  and  C_18 
REMARK    2  A    between atoms: O_5  and  P_8 
REMARK    3  A    between atoms: N_6  and  C_11 
REMARK    4  A    between atoms: N_7  and  C_15 
REMARK       I    between atoms: N_7  and  C_24 
REMARK    5  A    between atoms: P_8  and  C_23 
REMARK    6  A    between atoms: C_11  and  C_14 
REMARK    7  A    between atoms: C_15  and  C_18 
REMARK    8  A    between atoms: C_15  and  C_23 
REMARK    9  A    between atoms: C_21  and  C_26 
REMARK   10  A    between atoms: C_24  and  C_25 
REMARK   11  A    between atoms: C_29  and  C_32 
ROOT
HETATM    1  O   UNL     1      15.624   4.787  93.204  1.00  0.00     0.000 OA
HETATM    2  N   UNL     1      13.994   2.704  92.151  1.00  0.00     0.000 N 
HETATM    3  C   UNL     1      14.002   4.049  91.557  1.00  0.00     0.000 C 
HETATM    4  C   UNL     1      14.307   2.786  93.585  1.00  0.00     0.000 C 
HETATM    5  C   UNL     1      15.353   4.715  91.803  1.00  0.00     0.000 C 
HETATM    6  C   UNL     1      15.649   3.482  93.783  1.00  0.00     0.000 C 
ENDROOT
BRANCH   2   7
HETATM    7  C   UNL     1      12.704   2.051  91.937  1.00  0.00     0.000 C 
BRANCH   7   8
HETATM    8  C   UNL     1      11.581   3.027  91.844  1.00  0.00     0.000 A 
HETATM    9  C   UNL     1      10.923   3.218  90.629  1.00  0.00     0.000 A 
HETATM   10  C   UNL     1       9.874   4.133  90.541  1.00  0.00     0.000 A 
HETATM   11  C   UNL     1       9.482   4.854  91.668  1.00  0.00     0.000 A 
HETATM   12  C   UNL     1      10.139   4.664  92.882  1.00  0.00     0.000 A 
HETATM   13  C   UNL     1      11.189   3.750  92.971  1.00  0.00     0.000 A 
BRANCH  11  14
HETATM   14  C   UNL     1       8.404   5.791  91.578  1.00  0.00     0.000 C 
HETATM   15  C   UNL     1       7.498   6.577  91.502  1.00  0.00     0.000 C 
BRANCH  15  16
HETATM   16  C   UNL     1       6.421   7.513  91.413  1.00  0.00     0.000 A 
HETATM   17  C   UNL     1       5.271   7.327  92.181  1.00  0.00     0.000 A 
HETATM   18  C   UNL     1       4.221   8.241  92.096  1.00  0.00     0.000 A 
HETATM   19  C   UNL     1       4.344   9.320  91.246  1.00  0.00     0.000 A 
HETATM   20  C   UNL     1       5.470   9.526  90.476  1.00  0.00     0.000 A 
HETATM   21  C   UNL     1       6.520   8.612  90.560  1.00  0.00     0.000 A 
BRANCH  19  22
HETATM   22  C   UNL     1       3.225  10.293  91.154  1.00  0.00     0.000 C 
HETATM   23  O   UNL     1       2.076   9.875  91.033  1.00  0.00     0.000 OA
HETATM   24  N   UNL     1       3.576  11.633  91.239  1.00  0.00     0.000 N 
HETATM   25  HN  UNL     1       4.544  11.903  91.364  1.00  0.00     0.000 HD
BRANCH  24  26
HETATM   26  C   UNL     1       2.602  12.694  91.191  1.00  0.00     0.000 C 
BRANCH  26  27
HETATM   27  C   UNL     1       2.554  13.515  92.486  1.00  0.00     0.000 C 
HETATM   28  C   UNL     1       3.932  14.004  92.918  1.00  0.00     0.000 C 
BRANCH  27  29
HETATM   29  O   UNL     1       1.698  14.643  92.304  1.00  0.00     0.000 OA
HETATM   30  H   UNL     1       1.989  15.122  91.510  1.00  0.00     0.000 HD
ENDBRANCH  27  29
ENDBRANCH  26  27
BRANCH  26  31
HETATM   31  C   UNL     1       2.930  13.573  89.988  1.00  0.00     0.000 C 
HETATM   32  O   UNL     1       2.295  14.588  89.708  1.00  0.00     0.000 OA
BRANCH  31  33
HETATM   33  P   UNL     1       3.978  13.076  89.252  1.00  0.00     0.000 P 
HETATM   34  H   UNL     1       4.680  14.147  88.738  1.00  0.00     0.000 HD
BRANCH  33  35
HETATM   35  O   UNL     1       3.630  12.238  88.184  1.00  0.00     0.000 OA
HETATM   36  H   UNL     1       4.302  11.542  88.282  1.00  0.00     0.000 HD
ENDBRANCH  33  35
ENDBRANCH  31  33
ENDBRANCH  26  31
ENDBRANCH  24  26
ENDBRANCH  19  22
ENDBRANCH  15  16
ENDBRANCH  11  14
ENDBRANCH   7   8
ENDBRANCH   2   7
TORSDOF 11
ENDMDL
MODEL 7
REMARK VINA RESULT:      -4.9      1.997      2.811
REMARK  11 active torsions:
REMARK  status: ('A' for Active; 'I' for Inactive)
REMARK    1  A    between atoms: O_2  and  C_18 
REMARK    2  A    between atoms: O_5  and  P_8 
REMARK    3  A    between atoms: N_6  and  C_11 
REMARK    4  A    between atoms: N_7  and  C_15 
REMARK       I    between atoms: N_7  and  C_24 
REMARK    5  A    between atoms: P_8  and  C_23 
REMARK    6  A    between atoms: C_11  and  C_14 
REMARK    7  A    between atoms: C_15  and  C_18 
REMARK    8  A    between atoms: C_15  and  C_23 
REMARK    9  A    between atoms: C_21  and  C_26 
REMARK   10  A    between atoms: C_24  and  C_25 
REMARK   11  A    between atoms: C_29  and  C_32 
ROOT
HETATM    1  O   UNL     1      17.315   4.618  93.229  1.00  0.00     0.000 OA
HETATM    2  N   UNL     1      15.260   2.860  94.116  1.00  0.00     0.000 N 
HETATM    3  C   UNL     1      16.351   2.391  93.250  1.00  0.00     0.000 C 
HETATM    4  C   UNL     1      14.999   4.285  93.870  1.00  0.00     0.000 C 
HETATM    5  C   UNL     1      17.597   3.240  93.484  1.00  0.00     0.000 C 
HETATM    6  C   UNL     1      16.277   5.090  94.088  1.00  0.00     0.000 C 
ENDROOT
BRANCH   2   7
HETATM    7  C   UNL     1      14.051   2.066  93.901  1.00  0.00     0.000 C 
BRANCH   7   8
HETATM    8  C   UNL     1      12.991   2.828  93.181  1.00  0.00     0.000 A 
HETATM    9  C   UNL     1      12.812   2.645  91.809  1.00  0.00     0.000 A 
HETATM   10  C   UNL     1      11.823   3.359  91.134  1.00  0.00     0.000 A 
HETATM   11  C   UNL     1      11.011   4.254  91.832  1.00  0.00     0.000 A 
HETATM   12  C   UNL     1      11.189   4.437  93.201  1.00  0.00     0.000 A 
HETATM   13  C   UNL     1      12.179   3.724  93.877  1.00  0.00     0.000 A 
BRANCH  11  14
HETATM   14  C   UNL     1       9.995   4.985  91.139  1.00  0.00     0.000 C 
HETATM   15  C   UNL     1       9.141   5.599  90.557  1.00  0.00     0.000 C 
BRANCH  15  16
HETATM   16  C   UNL     1       8.124   6.328  89.864  1.00  0.00     0.000 A 
HETATM   17  C   UNL     1       8.432   6.996  88.679  1.00  0.00     0.000 A 
HETATM   18  C   UNL     1       7.440   7.706  88.002  1.00  0.00     0.000 A 
HETATM   19  C   UNL     1       6.164   7.731  88.525  1.00  0.00     0.000 A 
HETATM   20  C   UNL     1       5.835   7.079  89.695  1.00  0.00     0.000 A 
HETATM   21  C   UNL     1       6.826   6.370  90.373  1.00  0.00     0.000 A 
BRANCH  19  22
HETATM   22  C   UNL     1       5.108   8.488  87.805  1.00  0.00     0.000 C 
HETATM   23  O   UNL     1       4.704   8.072  86.722  1.00  0.00     0.000 OA
HETATM   24  N   UNL     1       4.632   9.625  88.444  1.00  0.00     0.000 N 
HETATM   25  HN  UNL     1       4.996   9.894  89.350  1.00  0.00     0.000 HD
BRANCH  24  26
HETATM   26  C   UNL     1       3.592  10.451  87.885  1.00  0.00     0.000 C 
BRANCH  26  27
HETATM   27  C   UNL     1       2.191  10.040  88.354  1.00  0.00     0.000 C 
HETATM   28  C   UNL     1       1.613   8.893  87.532  1.00  0.00     0.000 C 
BRANCH  27  29
HETATM   29  O   UNL     1       2.242   9.647  89.725  1.00  0.00     0.000 OA
HETATM   30  H   UNL     1       1.535   9.000  89.883  1.00  0.00     0.000 HD
ENDBRANCH  27  29
ENDBRANCH  26  27
BRANCH  26  31
HETATM   31  C   UNL     1       3.898  11.899  88.254  1.00  0.00     0.000 C 
HETATM   32  O   UNL     1       4.646  12.615  87.592  1.00  0.00     0.000 OA
BRANCH  31  33
HETATM   33  P   UNL     1       3.274  12.280  89.418  1.00  0.00     0.000 P 
HETATM   34  H   UNL     1       2.846  13.582  89.261  1.00  0.00     0.000 HD
BRANCH  33  35
HETATM   35  O   UNL     1       4.060  12.223  90.578  1.00  0.00     0.000 OA
HETATM   36  H   UNL     1       3.726  13.002  91.053  1.00  0.00     0.000 HD
ENDBRANCH  33  35
ENDBRANCH  31  33
ENDBRANCH  26  31
ENDBRANCH  24  26
ENDBRANCH  19  22
ENDBRANCH  15  16
ENDBRANCH  11  14
ENDBRANCH   7   8
ENDBRANCH   2   7
TORSDOF 11
ENDMDL
MODEL 8
REMARK VINA RESULT:      -4.7      1.553      1.990
REMARK  11 active torsions:
REMARK  status: ('A' for Active; 'I' for Inactive)
REMARK    1  A    between atoms: O_2  and  C_18 
REMARK    2  A    between atoms: O_5  and  P_8 
REMARK    3  A    between atoms: N_6  and  C_11 
REMARK    4  A    between atoms: N_7  and  C_15 
REMARK       I    between atoms: N_7  and  C_24 
REMARK    5  A    between atoms: P_8  and  C_23 
REMARK    6  A    between atoms: C_11  and  C_14 
REMARK    7  A    between atoms: C_15  and  C_18 
REMARK    8  A    between atoms: C_15  and  C_23 
REMARK    9  A    between atoms: C_21  and  C_26 
REMARK   10  A    between atoms: C_24  and  C_25 
REMARK   11  A    between atoms: C_29  and  C_32 
ROOT
HETATM    1  O   UNL     1      16.204   4.343  94.023  1.00  0.00     0.000 OA
HETATM    2  N   UNL     1      14.608   2.538  92.508  1.00  0.00     0.000 N 
HETATM    3  C   UNL     1      14.431   3.993  92.403  1.00  0.00     0.000 C 
HETATM    4  C   UNL     1      15.108   2.187  93.844  1.00  0.00     0.000 C 
HETATM    5  C   UNL     1      15.749   4.698  92.716  1.00  0.00     0.000 C 
HETATM    6  C   UNL     1      16.408   2.934  94.124  1.00  0.00     0.000 C 
ENDROOT
BRANCH   2   7
HETATM    7  C   UNL     1      13.355   1.842  92.222  1.00  0.00     0.000 C 
BRANCH   7   8
HETATM    8  C   UNL     1      12.211   2.782  92.043  1.00  0.00     0.000 A 
HETATM    9  C   UNL     1      11.682   3.001  90.770  1.00  0.00     0.000 A 
HETATM   10  C   UNL     1      10.614   3.881  90.601  1.00  0.00     0.000 A 
HETATM   11  C   UNL     1      10.074   4.541  91.704  1.00  0.00     0.000 A 
HETATM   12  C   UNL     1      10.602   4.323  92.976  1.00  0.00     0.000 A 
HETATM   13  C   UNL     1      11.670   3.443  93.145  1.00  0.00     0.000 A 
BRANCH  11  14
HETATM   14  C   UNL     1       8.977   5.443  91.531  1.00  0.00     0.000 C 
HETATM   15  C   UNL     1       8.055   6.200  91.386  1.00  0.00     0.000 C 
BRANCH  15  16
HETATM   16  C   UNL     1       6.959   7.102  91.213  1.00  0.00     0.000 A 
HETATM   17  C   UNL     1       6.117   7.388  92.288  1.00  0.00     0.000 A 
HETATM   18  C   UNL     1       5.049   8.270  92.121  1.00  0.00     0.000 A 
HETATM   19  C   UNL     1       4.848   8.846  90.883  1.00  0.00     0.000 A 
HETATM   20  C   UNL     1       5.665   8.578  89.805  1.00  0.00     0.000 A 
HETATM   21  C   UNL     1       6.733   7.697  89.972  1.00  0.00     0.000 A 
BRANCH  19  22
HETATM   22  C   UNL     1       3.709   9.783  90.705  1.00  0.00     0.000 C 
HETATM   23  O   UNL     1       3.037   9.722  89.678  1.00  0.00     0.000 OA
HETATM   24  N   UNL     1       3.475  10.662  91.753  1.00  0.00     0.000 N 
HETATM   25  HN  UNL     1       4.057  10.638  92.582  1.00  0.00     0.000 HD
BRANCH  24  26
HETATM   26  C   UNL     1       2.394  11.615  91.740  1.00  0.00     0.000 C 
BRANCH  26  27
HETATM   27  C   UNL     1       1.234  11.209  92.658  1.00  0.00     0.000 C 
HETATM   28  C   UNL     1       1.189   9.707  92.914  1.00  0.00     0.000 C 
BRANCH  27  29
HETATM   29  O   UNL     1       1.354  11.888  93.908  1.00  0.00     0.000 OA
HETATM   30  H   UNL     1       0.858  12.722  93.850  1.00  0.00     0.000 HD
ENDBRANCH  27  29
ENDBRANCH  26  27
BRANCH  26  31
HETATM   31  C   UNL     1       2.965  12.973  92.135  1.00  0.00     0.000 C 
HETATM   32  O   UNL     1       2.265  13.906  92.522  1.00  0.00     0.000 OA
BRANCH  31  33
HETATM   33  P   UNL     1       4.327  13.031  91.969  1.00  0.00     0.000 P 
HETATM   34  H   UNL     1       4.895  13.259  93.206  1.00  0.00     0.000 HD
BRANCH  33  35
HETATM   35  O   UNL     1       4.793  14.022  91.093  1.00  0.00     0.000 OA
HETATM   36  H   UNL     1       4.271  13.813  90.300  1.00  0.00     0.000 HD
ENDBRANCH  33  35
ENDBRANCH  31  33
ENDBRANCH  26  31
ENDBRANCH  24  26
ENDBRANCH  19  22
ENDBRANCH  15  16
ENDBRANCH  11  14
ENDBRANCH   7   8
ENDBRANCH   2   7
TORSDOF 11
ENDMDL
MODEL 9
REMARK VINA RESULT:      -4.6      3.197     12.360
REMARK  11 active torsions:
REMARK  status: ('A' for Active; 'I' for Inactive)
REMARK    1  A    between atoms: O_2  and  C_18 
REMARK    2  A    between atoms: O_5  and  P_8 
REMARK    3  A    between atoms: N_6  and  C_11 
REMARK    4  A    between atoms: N_7  and  C_15 
REMARK       I    between atoms: N_7  and  C_24 
REMARK    5  A    between atoms: P_8  and  C_23 
REMARK    6  A    between atoms: C_11  and  C_14 
REMARK    7  A    between atoms: C_15  and  C_18 
REMARK    8  A    between atoms: C_15  and  C_23 
REMARK    9  A    between atoms: C_21  and  C_26 
REMARK   10  A    between atoms: C_24  and  C_25 
REMARK   11  A    between atoms: C_29  and  C_32 
ROOT
HETATM    1  O   UNL     1       4.778  13.282  88.192  1.00  0.00     0.000 OA
HETATM    2  N   UNL     1       3.559  12.223  90.536  1.00  0.00     0.000 N 
HETATM    3  C   UNL     1       4.300  13.492  90.562  1.00  0.00     0.000 C 
HETATM    4  C   UNL     1       4.098  11.347  89.487  1.00  0.00     0.000 C 
HETATM    5  C   UNL     1       4.239  14.154  89.188  1.00  0.00     0.000 C 
HETATM    6  C   UNL     1       4.043  12.059  88.139  1.00  0.00     0.000 C 
ENDROOT
BRANCH   2   7
HETATM    7  C   UNL     1       3.612  11.565  91.841  1.00  0.00     0.000 C 
BRANCH   7   8
HETATM    8  C   UNL     1       4.694  10.543  91.917  1.00  0.00     0.000 A 
HETATM    9  C   UNL     1       6.026  10.945  92.026  1.00  0.00     0.000 A 
HETATM   10  C   UNL     1       7.040   9.989  92.096  1.00  0.00     0.000 A 
HETATM   11  C   UNL     1       6.720   8.632  92.058  1.00  0.00     0.000 A 
HETATM   12  C   UNL     1       5.391   8.229  91.950  1.00  0.00     0.000 A 
HETATM   13  C   UNL     1       4.377   9.185  91.880  1.00  0.00     0.000 A 
BRANCH  11  14
HETATM   14  C   UNL     1       7.760   7.651  92.132  1.00  0.00     0.000 C 
HETATM   15  C   UNL     1       8.633   6.827  92.194  1.00  0.00     0.000 C 
BRANCH  15  16
HETATM   16  C   UNL     1       9.671   5.847  92.267  1.00  0.00     0.000 A 
HETATM   17  C   UNL     1      10.341   5.630  93.472  1.00  0.00     0.000 A 
HETATM   18  C   UNL     1      11.351   4.672  93.544  1.00  0.00     0.000 A 
HETATM   19  C   UNL     1      11.669   3.951  92.411  1.00  0.00     0.000 A 
HETATM   20  C   UNL     1      11.022   4.147  91.209  1.00  0.00     0.000 A 
HETATM   21  C   UNL     1      10.011   5.105  91.136  1.00  0.00     0.000 A 
BRANCH  19  22
HETATM   22  C   UNL     1      12.747   2.932  92.488  1.00  0.00     0.000 C 
HETATM   23  O   UNL     1      12.482   1.759  92.238  1.00  0.00     0.000 OA
HETATM   24  N   UNL     1      14.009   3.405  92.821  1.00  0.00     0.000 N 
HETATM   25  HN  UNL     1      14.158   4.393  92.990  1.00  0.00     0.000 HD
BRANCH  24  26
HETATM   26  C   UNL     1      15.161   2.544  92.912  1.00  0.00     0.000 C 
BRANCH  26  27
HETATM   27  C   UNL     1      15.728   2.166  91.538  1.00  0.00     0.000 C 
HETATM   28  C   UNL     1      15.291   3.129  90.440  1.00  0.00     0.000 C 
BRANCH  27  29
HETATM   29  O   UNL     1      17.154   2.149  91.599  1.00  0.00     0.000 OA
HETATM   30  H   UNL     1      17.419   2.092  92.532  1.00  0.00     0.000 HD
ENDBRANCH  27  29
ENDBRANCH  26  27
BRANCH  26  31
HETATM   31  C   UNL     1      16.206   3.253  93.767  1.00  0.00     0.000 C 
HETATM   32  O   UNL     1      17.258   2.722  94.116  1.00  0.00     0.000 OA
BRANCH  31  33
HETATM   33  P   UNL     1      15.812   4.521  94.123  1.00  0.00     0.000 P 
HETATM   34  H   UNL     1      14.433   4.537  94.174  1.00  0.00     0.000 HD
BRANCH  33  35
HETATM   35  O   UNL     1      16.222   5.551  93.264  1.00  0.00     0.000 OA
HETATM   36  H   UNL     1      17.131   5.690  93.581  1.00  0.00     0.000 HD
ENDBRANCH  33  35
ENDBRANCH  31  33
ENDBRANCH  26  31
ENDBRANCH  24  26
ENDBRANCH  19  22
ENDBRANCH  15  16
ENDBRANCH  11  14
ENDBRANCH   7   8
ENDBRANCH   2   7
TORSDOF 11
ENDMDL
