MODEL 1
REMARK VINA RESULT:      -7.1      0.000      0.000
REMARK  14 active torsions:
REMARK  status: ('A' for Active; 'I' for Inactive)
REMARK    1  A    between atoms: O_2  and  C_18 
REMARK    2  A    between atoms: C_5  and  C_8 
REMARK    3  A    between atoms: C_5  and  O_35 
REMARK    4  A    between atoms: C_5  and  C_36 
REMARK    5  A    between atoms: N_6  and  C_11 
REMARK    6  A    between atoms: N_7  and  C_15 
REMARK       I    between atoms: N_7  and  C_24 
REMARK    7  A    between atoms: C_8  and  C_23 
REMARK    8  A    between atoms: C_11  and  C_14 
REMARK    9  A    between atoms: C_15  and  C_18 
REMARK   10  A    between atoms: C_15  and  C_23 
REMARK   11  A    between atoms: C_21  and  C_26 
REMARK   12  A    between atoms: C_24  and  C_25 
REMARK   13  A    between atoms: C_29  and  C_32 
REMARK   14  A    between atoms: C_36  and  O_39 
ROOT
HETATM    1  O   UNL     1      16.402   4.206  94.037  1.00  0.00    -0.350 OA
HETATM    2  N   UNL     1      14.493   2.734  92.524  1.00  0.00     0.147 N 
HETATM    3  C   UNL     1      14.581   4.198  92.432  1.00  0.00     0.283 C 
HETATM    4  C   UNL     1      14.933   2.285  93.852  1.00  0.00     0.283 C 
HETATM    5  C   UNL     1      16.007   4.650  92.737  1.00  0.00     0.178 C 
HETATM    6  C   UNL     1      16.349   2.782  94.124  1.00  0.00     0.178 C 
ENDROOT
BRANCH   2   7
HETATM    7  C   UNL     1      13.132   2.278  92.245  1.00  0.00     0.277 C 
BRANCH   7   8
HETATM    8  C   UNL     1      12.136   3.384  92.326  1.00  0.00     0.011 A 
HETATM    9  C   UNL     1      11.429   3.769  91.186  1.00  0.00    -0.002 A 
HETATM   10  C   UNL     1      10.498   4.805  91.260  1.00  0.00     0.008 A 
HETATM   11  C   UNL     1      10.273   5.454  92.473  1.00  0.00     0.042 A 
HETATM   12  C   UNL     1      10.978   5.070  93.612  1.00  0.00     0.008 A 
HETATM   13  C   UNL     1      11.909   4.035  93.539  1.00  0.00    -0.002 A 
BRANCH  11  14
HETATM   14  C   UNL     1       9.316   6.515  92.549  1.00  0.00    -0.059 C 
HETATM   15  C   UNL     1       8.513   7.407  92.613  1.00  0.00    -0.059 C 
BRANCH  15  16
HETATM   16  C   UNL     1       7.557   8.468  92.688  1.00  0.00     0.042 A 
HETATM   17  C   UNL     1       6.298   8.314  92.107  1.00  0.00     0.008 A 
HETATM   18  C   UNL     1       5.365   9.348  92.183  1.00  0.00     0.005 A 
HETATM   19  C   UNL     1       5.711  10.512  92.838  1.00  0.00     0.056 A 
HETATM   20  C   UNL     1       6.949  10.689  93.420  1.00  0.00     0.005 A 
HETATM   21  C   UNL     1       7.883   9.655  93.345  1.00  0.00     0.008 A 
BRANCH  19  22
HETATM   22  C   UNL     1       4.718  11.614  92.917  1.00  0.00     0.254 C 
HETATM   23  O   UNL     1       4.109  11.798  93.968  1.00  0.00    -0.268 OA
HETATM   24  N   UNL     1       4.572  12.384  91.772  1.00  0.00    -0.335 N 
HETATM   25  HN  UNL     1       5.128  12.188  90.948  1.00  0.00     0.164 HD
BRANCH  24  26
HETATM   26  C   UNL     1       3.667  13.502  91.699  1.00  0.00     0.169 C 
BRANCH  26  27
HETATM   27  C   UNL     1       4.283  14.801  92.236  1.00  0.00     0.138 C 
HETATM   28  C   UNL     1       4.965  15.618  91.144  1.00  0.00     0.034 C 
BRANCH  27  29
HETATM   29  O   UNL     1       3.266  15.596  92.844  1.00  0.00    -0.383 OA
HETATM   30  H   UNL     1       3.623  16.489  92.989  1.00  0.00     0.210 HD
ENDBRANCH  27  29
ENDBRANCH  26  27
BRANCH  26  31
HETATM   31  C   UNL     1       3.230  13.655  90.246  1.00  0.00     0.194 C 
HETATM   32  O   UNL     1       2.243  14.307  89.908  1.00  0.00    -0.289 OA
BRANCH  31  33
HETATM   33  C   UNL     1       4.039  12.955  89.385  1.00  0.00     0.053 C 
BRANCH  33  34
HETATM   34  C   UNL     1       3.379  12.149  88.447  1.00  0.00     0.220 C 
BRANCH  34  35
HETATM   35  O   UNL     1       4.074  12.120  87.414  1.00  0.00    -0.371 OA
HETATM   36  H   UNL     1       3.959  11.206  87.201  1.00  0.00     0.211 HD
ENDBRANCH  34  35
BRANCH  34  37
HETATM   37  C   UNL     1       3.080  10.862  88.926  1.00  0.00     0.185 C 
HETATM   38  O   UNL     1       2.475  10.740  87.755  1.00  0.00    -0.647 OA
BRANCH  37  39
HETATM   39  O   UNL     1       3.262  10.239  89.928  1.00  0.00    -0.774 OA
HETATM   40  H   UNL     1       2.305   9.756  90.300  1.00  0.00     0.167 HD
ENDBRANCH  37  39
ENDBRANCH  34  37
ENDBRANCH  33  34
ENDBRANCH  31  33
ENDBRANCH  26  31
ENDBRANCH  24  26
ENDBRANCH  19  22
ENDBRANCH  15  16
ENDBRANCH  11  14
ENDBRANCH   7   8
ENDBRANCH   2   7
TORSDOF 14
ENDMDL
MODEL 2
REMARK VINA RESULT:      -6.0      2.871     12.961
REMARK  14 active torsions:
REMARK  status: ('A' for Active; 'I' for Inactive)
REMARK    1  A    between atoms: O_2  and  C_18 
REMARK    2  A    between atoms: C_5  and  C_8 
REMARK    3  A    between atoms: C_5  and  O_35 
REMARK    4  A    between atoms: C_5  and  C_36 
REMARK    5  A    between atoms: N_6  and  C_11 
REMARK    6  A    between atoms: N_7  and  C_15 
REMARK       I    between atoms: N_7  and  C_24 
REMARK    7  A    between atoms: C_8  and  C_23 
REMARK    8  A    between atoms: C_11  and  C_14 
REMARK    9  A    between atoms: C_15  and  C_18 
REMARK   10  A    between atoms: C_15  and  C_23 
REMARK   11  A    between atoms: C_21  and  C_26 
REMARK   12  A    between atoms: C_24  and  C_25 
REMARK   13  A    between atoms: C_29  and  C_32 
REMARK   14  A    between atoms: C_36  and  O_39 
ROOT
HETATM    1  O   UNL     1       2.979  14.675  93.880  1.00  0.00    -0.350 OA
HETATM    2  N   UNL     1       2.748  14.544  91.046  1.00  0.00     0.147 N 
HETATM    3  C   UNL     1       1.705  14.002  91.927  1.00  0.00     0.283 C 
HETATM    4  C   UNL     1       4.055  14.480  91.715  1.00  0.00     0.283 C 
HETATM    5  C   UNL     1       1.700  14.763  93.251  1.00  0.00     0.178 C 
HETATM    6  C   UNL     1       3.995  15.228  93.042  1.00  0.00     0.178 C 
ENDROOT
BRANCH   2   7
HETATM    7  C   UNL     1       2.778  13.823  89.775  1.00  0.00     0.277 C 
BRANCH   7   8
HETATM    8  C   UNL     1       3.777  12.717  89.773  1.00  0.00     0.011 A 
HETATM    9  C   UNL     1       3.421  11.456  90.254  1.00  0.00    -0.002 A 
HETATM   10  C   UNL     1       4.356  10.421  90.255  1.00  0.00     0.008 A 
HETATM   11  C   UNL     1       5.645  10.646  89.773  1.00  0.00     0.042 A 
HETATM   12  C   UNL     1       6.001  11.904  89.293  1.00  0.00     0.008 A 
HETATM   13  C   UNL     1       5.067  12.940  89.293  1.00  0.00    -0.002 A 
BRANCH  11  14
HETATM   14  C   UNL     1       6.603   9.583  89.772  1.00  0.00    -0.059 C 
HETATM   15  C   UNL     1       7.408   8.690  89.772  1.00  0.00    -0.059 C 
BRANCH  15  16
HETATM   16  C   UNL     1       8.364   7.627  89.772  1.00  0.00     0.042 A 
HETATM   17  C   UNL     1       8.609   6.911  88.600  1.00  0.00     0.008 A 
HETATM   18  C   UNL     1       9.544   5.876  88.599  1.00  0.00     0.005 A 
HETATM   19  C   UNL     1      10.214   5.582  89.769  1.00  0.00     0.056 A 
HETATM   20  C   UNL     1       9.990   6.275  90.940  1.00  0.00     0.005 A 
HETATM   21  C   UNL     1       9.055   7.310  90.942  1.00  0.00     0.008 A 
BRANCH  19  22
HETATM   22  C   UNL     1      11.209   4.478  89.768  1.00  0.00     0.254 C 
HETATM   23  O   UNL     1      11.356   3.805  88.751  1.00  0.00    -0.268 OA
HETATM   24  N   UNL     1      11.929   4.308  90.942  1.00  0.00    -0.335 N 
HETATM   25  HN  UNL     1      11.770   4.919  91.734  1.00  0.00     0.164 HD
BRANCH  24  26
HETATM   26  C   UNL     1      12.945   3.297  91.088  1.00  0.00     0.169 C 
BRANCH  26  27
HETATM   27  C   UNL     1      14.363   3.847  90.886  1.00  0.00     0.138 C 
HETATM   28  C   UNL     1      15.171   3.025  89.888  1.00  0.00     0.034 C 
BRANCH  27  29
HETATM   29  O   UNL     1      14.290   5.196  90.424  1.00  0.00    -0.383 OA
HETATM   30  H   UNL     1      13.689   5.225  89.661  1.00  0.00     0.210 HD
ENDBRANCH  27  29
ENDBRANCH  26  27
BRANCH  26  31
HETATM   31  C   UNL     1      12.785   2.672  92.471  1.00  0.00     0.194 C 
HETATM   32  O   UNL     1      11.993   1.761  92.706  1.00  0.00    -0.289 OA
BRANCH  31  33
HETATM   33  C   UNL     1      13.592   3.271  93.407  1.00  0.00     0.053 C 
BRANCH  33  34
HETATM   34  C   UNL     1      14.582   2.454  93.972  1.00  0.00     0.220 C 
BRANCH  34  35
HETATM   35  O   UNL     1      14.589   1.377  93.345  1.00  0.00    -0.371 OA
HETATM   36  H   UNL     1      15.389   1.510  92.861  1.00  0.00     0.211 HD
ENDBRANCH  34  35
BRANCH  34  37
HETATM   37  C   UNL     1      15.851   3.056  94.010  1.00  0.00     0.185 C 
HETATM   38  O   UNL     1      15.142   4.172  94.090  1.00  0.00    -0.647 OA
BRANCH  37  39
HETATM   39  O   UNL     1      16.990   2.701  93.949  1.00  0.00    -0.774 OA
HETATM   40  H   UNL     1      17.682   3.420  94.488  1.00  0.00     0.167 HD
ENDBRANCH  37  39
ENDBRANCH  34  37
ENDBRANCH  33  34
ENDBRANCH  31  33
ENDBRANCH  26  31
ENDBRANCH  24  26
ENDBRANCH  19  22
ENDBRANCH  15  16
ENDBRANCH  11  14
ENDBRANCH   7   8
ENDBRANCH   2   7
TORSDOF 14
ENDMDL
MODEL 3
REMARK VINA RESULT:      -5.1      1.445      2.123
REMARK  14 active torsions:
REMARK  status: ('A' for Active; 'I' for Inactive)
REMARK    1  A    between atoms: O_2  and  C_18 
REMARK    2  A    between atoms: C_5  and  C_8 
REMARK    3  A    between atoms: C_5  and  O_35 
REMARK    4  A    between atoms: C_5  and  C_36 
REMARK    5  A    between atoms: N_6  and  C_11 
REMARK    6  A    between atoms: N_7  and  C_15 
REMARK       I    between atoms: N_7  and  C_24 
REMARK    7  A    between atoms: C_8  and  C_23 
REMARK    8  A    between atoms: C_11  and  C_14 
REMARK    9  A    between atoms: C_15  and  C_18 
REMARK   10  A    between atoms: C_15  and  C_23 
REMARK   11  A    between atoms: C_21  and  C_26 
REMARK   12  A    between atoms: C_24  and  C_25 
REMARK   13  A    between atoms: C_29  and  C_32 
REMARK   14  A    between atoms: C_36  and  O_39 
ROOT
HETATM    1  O   UNL     1      16.606   2.837  93.886  1.00  0.00    -0.350 OA
HETATM    2  N   UNL     1      14.014   3.070  92.733  1.00  0.00     0.147 N 
HETATM    3  C   UNL     1      14.644   1.760  92.946  1.00  0.00     0.283 C 
HETATM    4  C   UNL     1      15.044   4.096  92.522  1.00  0.00     0.283 C 
HETATM    5  C   UNL     1      15.612   1.838  94.124  1.00  0.00     0.178 C 
HETATM    6  C   UNL     1      16.002   4.119  93.708  1.00  0.00     0.178 C 
ENDROOT
BRANCH   2   7
HETATM    7  C   UNL     1      13.089   3.021  91.601  1.00  0.00     0.277 C 
BRANCH   7   8
HETATM    8  C   UNL     1      11.931   3.944  91.774  1.00  0.00     0.011 A 
HETATM    9  C   UNL     1      11.568   4.374  93.051  1.00  0.00    -0.002 A 
HETATM   10  C   UNL     1      10.483   5.236  93.214  1.00  0.00     0.008 A 
HETATM   11  C   UNL     1       9.765   5.669  92.100  1.00  0.00     0.042 A 
HETATM   12  C   UNL     1      10.127   5.240  90.824  1.00  0.00     0.008 A 
HETATM   13  C   UNL     1      11.211   4.378  90.661  1.00  0.00    -0.002 A 
BRANCH  11  14
HETATM   14  C   UNL     1       8.653   6.555  92.267  1.00  0.00    -0.059 C 
HETATM   15  C   UNL     1       7.720   7.299  92.408  1.00  0.00    -0.059 C 
BRANCH  15  16
HETATM   16  C   UNL     1       6.610   8.184  92.576  1.00  0.00     0.042 A 
HETATM   17  C   UNL     1       5.307   7.701  92.447  1.00  0.00     0.008 A 
HETATM   18  C   UNL     1       4.225   8.564  92.613  1.00  0.00     0.005 A 
HETATM   19  C   UNL     1       4.468   9.890  92.905  1.00  0.00     0.056 A 
HETATM   20  C   UNL     1       5.746  10.392  93.037  1.00  0.00     0.005 A 
HETATM   21  C   UNL     1       6.829   9.530  92.871  1.00  0.00     0.008 A 
BRANCH  19  22
HETATM   22  C   UNL     1       3.314  10.810  93.080  1.00  0.00     0.254 C 
HETATM   23  O   UNL     1       2.447  10.534  93.905  1.00  0.00    -0.268 OA
HETATM   24  N   UNL     1       3.323  11.953  92.292  1.00  0.00    -0.335 N 
HETATM   25  HN  UNL     1       4.087  12.127  91.650  1.00  0.00     0.164 HD
BRANCH  24  26
HETATM   26  C   UNL     1       2.287  12.952  92.364  1.00  0.00     0.169 C 
BRANCH  26  27
HETATM   27  C   UNL     1       2.508  13.954  93.504  1.00  0.00     0.138 C 
HETATM   28  C   UNL     1       3.920  14.528  93.512  1.00  0.00     0.034 C 
BRANCH  27  29
HETATM   29  O   UNL     1       1.573  15.026  93.385  1.00  0.00    -0.383 OA
HETATM   30  H   UNL     1       1.230  15.032  92.475  1.00  0.00     0.210 HD
ENDBRANCH  27  29
ENDBRANCH  26  27
BRANCH  26  31
HETATM   31  C   UNL     1       2.223  13.655  91.012  1.00  0.00     0.194 C 
HETATM   32  O   UNL     1       1.424  14.556  90.763  1.00  0.00    -0.289 OA
BRANCH  31  33
HETATM   33  C   UNL     1       3.126  13.138  90.115  1.00  0.00     0.053 C 
BRANCH  33  34
HETATM   34  C   UNL     1       3.833  14.077  89.351  1.00  0.00     0.220 C 
BRANCH  34  35
HETATM   35  O   UNL     1       4.523  14.760  90.132  1.00  0.00    -0.371 OA
HETATM   36  H   UNL     1       5.322  14.257  90.078  1.00  0.00     0.211 HD
ENDBRANCH  34  35
BRANCH  34  37
HETATM   37  C   UNL     1       4.602  13.500  88.325  1.00  0.00     0.185 C 
HETATM   38  O   UNL     1       5.493  14.404  88.702  1.00  0.00    -0.647 OA
BRANCH  37  39
HETATM   39  O   UNL     1       4.461  12.645  87.504  1.00  0.00    -0.774 OA
HETATM   40  H   UNL     1       3.370  12.508  87.224  1.00  0.00     0.167 HD
ENDBRANCH  37  39
ENDBRANCH  34  37
ENDBRANCH  33  34
ENDBRANCH  31  33
ENDBRANCH  26  31
ENDBRANCH  24  26
ENDBRANCH  19  22
ENDBRANCH  15  16
ENDBRANCH  11  14
ENDBRANCH   7   8
ENDBRANCH   2   7
TORSDOF 14
ENDMDL
