MODEL 1
REMARK VINA RESULT:      -6.1      0.000      0.000
REMARK  12 active torsions:
REMARK  status: ('A' for Active; 'I' for Inactive)
REMARK    1  A    between atoms: O_2  and  C_16 
REMARK    2  A    between atoms: N_5  and  C_9 
REMARK    3  A    between atoms: N_6  and  C_13 
REMARK       I    between atoms: N_6  and  C_22 
REMARK    4  A    between atoms: C_9  and  C_12 
REMARK    5  A    between atoms: C_13  and  C_16 
REMARK    6  A    between atoms: C_13  and  C_21 
REMARK    7  A    between atoms: C_19  and  C_24 
REMARK    8  A    between atoms: C_21  and  C_33 
REMARK    9  A    between atoms: C_22  and  C_23 
REMARK   10  A    between atoms: C_27  and  C_30 
REMARK   11  A    between atoms: C_33  and  C_34 
REMARK   12  A    between atoms: C_34  and  C_35 
ROOT
HETATM    1  O   UNL     1      16.629   3.245  93.862  1.00  0.00    -0.350 OA
HETATM    2  N   UNL     1      14.045   2.989  92.694  1.00  0.00     0.147 N 
HETATM    3  C   UNL     1      14.895   1.816  92.944  1.00  0.00     0.283 C 
HETATM    4  C   UNL     1      14.881   4.175  92.460  1.00  0.00     0.283 C 
HETATM    5  C   UNL     1      15.825   2.093  94.123  1.00  0.00     0.178 C 
HETATM    6  C   UNL     1      15.811   4.396  93.649  1.00  0.00     0.178 C 
ENDROOT
BRANCH   2   7
HETATM    7  C   UNL     1      13.153   2.750  91.562  1.00  0.00     0.277 C 
BRANCH   7   8
HETATM    8  C   UNL     1      11.987   3.680  91.551  1.00  0.00     0.011 A 
HETATM    9  C   UNL     1      11.498   4.169  90.339  1.00  0.00    -0.002 A 
HETATM   10  C   UNL     1      10.409   5.040  90.328  1.00  0.00     0.008 A 
HETATM   11  C   UNL     1       9.809   5.420  91.528  1.00  0.00     0.042 A 
HETATM   12  C   UNL     1      10.296   4.932  92.738  1.00  0.00     0.008 A 
HETATM   13  C   UNL     1      11.386   4.061  92.750  1.00  0.00    -0.002 A 
BRANCH  11  14
HETATM   14  C   UNL     1       8.690   6.312  91.516  1.00  0.00    -0.059 C 
HETATM   15  C   UNL     1       7.750   7.062  91.507  1.00  0.00    -0.059 C 
BRANCH  15  16
HETATM   16  C   UNL     1       6.633   7.954  91.495  1.00  0.00     0.042 A 
HETATM   17  C   UNL     1       6.693   9.154  92.205  1.00  0.00     0.008 A 
HETATM   18  C   UNL     1       5.604  10.026  92.191  1.00  0.00     0.005 A 
HETATM   19  C   UNL     1       4.481   9.679  91.469  1.00  0.00     0.056 A 
HETATM   20  C   UNL     1       4.398   8.499  90.761  1.00  0.00     0.005 A 
HETATM   21  C   UNL     1       5.486   7.626  90.773  1.00  0.00     0.008 A 
BRANCH  19  22
HETATM   22  C   UNL     1       3.321  10.607  91.457  1.00  0.00     0.254 C 
HETATM   23  O   UNL     1       2.217  10.182  91.126  1.00  0.00    -0.268 OA
HETATM   24  N   UNL     1       3.581  11.911  91.854  1.00  0.00    -0.335 N 
HETATM   25  HN  UNL     1       4.514  12.184  92.138  1.00  0.00     0.164 HD
BRANCH  24  26
HETATM   26  C   UNL     1       2.555  12.921  91.919  1.00  0.00     0.166 C 
BRANCH  26  27
HETATM   27  C   UNL     1       2.632  13.765  93.197  1.00  0.00     0.138 C 
HETATM   28  C   UNL     1       4.034  13.790  93.796  1.00  0.00     0.034 C 
BRANCH  27  29
HETATM   29  O   UNL     1       2.226  15.103  92.912  1.00  0.00    -0.383 OA
HETATM   30  H   UNL     1       1.415  15.288  93.414  1.00  0.00     0.210 HD
ENDBRANCH  27  29
ENDBRANCH  26  27
BRANCH  26  31
HETATM   31  C   UNL     1       2.680  13.791  90.672  1.00  0.00     0.181 C 
HETATM   32  O   UNL     1       1.964  14.769  90.464  1.00  0.00    -0.294 OA
BRANCH  31  33
HETATM   33  C   UNL     1       4.205  14.288  90.434  1.00  0.00     0.138 C 
BRANCH  33  34
HETATM   34  C   UNL     1       4.411  13.902  89.091  1.00  0.00     0.208 C 
HETATM   35  O   UNL     1       4.977  14.707  88.387  1.00  0.00    -0.289 OA
BRANCH  34  36
HETATM   36  C   UNL     1       4.345  12.669  88.501  1.00  0.00     0.194 C 
HETATM   37  O   UNL     1       5.313  11.665  88.394  1.00  0.00    -0.185 OA
ENDBRANCH  34  36
ENDBRANCH  33  34
ENDBRANCH  31  33
ENDBRANCH  26  31
ENDBRANCH  24  26
ENDBRANCH  19  22
ENDBRANCH  15  16
ENDBRANCH  11  14
ENDBRANCH   7   8
ENDBRANCH   2   7
TORSDOF 12
ENDMDL
