MODEL 1
REMARK VINA RESULT:      -6.9      0.000      0.000
REMARK  11 active torsions:
REMARK  status: ('A' for Active; 'I' for Inactive)
REMARK    1  A    between atoms: O_2  and  C_18 
REMARK    2  A    between atoms: O_5  and  P_8 
REMARK    3  A    between atoms: N_6  and  C_11 
REMARK    4  A    between atoms: N_7  and  C_15 
REMARK       I    between atoms: N_7  and  C_24 
REMARK    5  A    between atoms: P_8  and  C_23 
REMARK    6  A    between atoms: C_11  and  C_14 
REMARK    7  A    between atoms: C_15  and  C_18 
REMARK    8  A    between atoms: C_15  and  C_23 
REMARK    9  A    between atoms: C_21  and  C_26 
REMARK   10  A    between atoms: C_24  and  C_25 
REMARK   11  A    between atoms: C_29  and  C_32 
ROOT
HETATM    1  O   UNL     1      15.739   3.921  94.124  1.00  0.00     0.000 OA
HETATM    2  N   UNL     1      13.996   2.557  92.334  1.00  0.00     0.000 N 
HETATM    3  C   UNL     1      14.087   4.024  92.350  1.00  0.00     0.000 C 
HETATM    4  C   UNL     1      14.304   2.019  93.666  1.00  0.00     0.000 C 
HETATM    5  C   UNL     1      15.473   4.451  92.824  1.00  0.00     0.000 C 
HETATM    6  C   UNL     1      15.684   2.494  94.110  1.00  0.00     0.000 C 
ENDROOT
BRANCH   2   7
HETATM    7  C   UNL     1      12.671   2.125  91.892  1.00  0.00     0.000 C 
BRANCH   7   8
HETATM    8  C   UNL     1      11.766   3.274  91.603  1.00  0.00     0.000 A 
HETATM    9  C   UNL     1      10.956   3.794  92.614  1.00  0.00     0.000 A 
HETATM   10  C   UNL     1      10.107   4.867  92.344  1.00  0.00     0.000 A 
HETATM   11  C   UNL     1      10.071   5.421  91.065  1.00  0.00     0.000 A 
HETATM   12  C   UNL     1      10.879   4.904  90.056  1.00  0.00     0.000 A 
HETATM   13  C   UNL     1      11.728   3.830  90.324  1.00  0.00     0.000 A 
BRANCH  11  14
HETATM   14  C   UNL     1       9.201   6.524  90.790  1.00  0.00     0.000 C 
HETATM   15  C   UNL     1       8.470   7.450  90.558  1.00  0.00     0.000 C 
BRANCH  15  16
HETATM   16  C   UNL     1       7.601   8.551  90.283  1.00  0.00     0.000 A 
HETATM   17  C   UNL     1       6.254   8.481  90.638  1.00  0.00     0.000 A 
HETATM   18  C   UNL     1       5.407   9.556  90.372  1.00  0.00     0.000 A 
HETATM   19  C   UNL     1       5.925  10.678  89.759  1.00  0.00     0.000 A 
HETATM   20  C   UNL     1       7.253  10.772  89.398  1.00  0.00     0.000 A 
HETATM   21  C   UNL     1       8.101   9.697  89.663  1.00  0.00     0.000 A 
BRANCH  19  22
HETATM   22  C   UNL     1       5.022  11.823  89.474  1.00  0.00     0.000 C 
HETATM   23  O   UNL     1       4.737  12.086  88.309  1.00  0.00     0.000 OA
HETATM   24  N   UNL     1       4.540  12.507  90.582  1.00  0.00     0.000 N 
HETATM   25  HN  UNL     1       4.800  12.216  91.517  1.00  0.00     0.000 HD
BRANCH  24  26
HETATM   26  C   UNL     1       3.636  13.624  90.470  1.00  0.00     0.000 C 
BRANCH  26  27
HETATM   27  C   UNL     1       2.329  13.408  91.242  1.00  0.00     0.000 C 
HETATM   28  C   UNL     1       2.452  12.325  92.309  1.00  0.00     0.000 C 
BRANCH  27  29
HETATM   29  O   UNL     1       1.935  14.630  91.866  1.00  0.00     0.000 OA
HETATM   30  H   UNL     1       1.987  15.340  91.204  1.00  0.00     0.000 HD
ENDBRANCH  27  29
ENDBRANCH  26  27
BRANCH  26  31
HETATM   31  C   UNL     1       4.370  14.868  90.960  1.00  0.00     0.000 C 
HETATM   32  O   UNL     1       4.426  15.189  92.145  1.00  0.00     0.000 OA
BRANCH  31  33
HETATM   33  P   UNL     1       4.916  15.589  89.926  1.00  0.00     0.000 P 
HETATM   34  H   UNL     1       3.968  16.494  89.495  1.00  0.00     0.000 HD
BRANCH  33  35
HETATM   35  O   UNL     1       5.334  14.842  88.815  1.00  0.00     0.000 OA
HETATM   36  H   UNL     1       4.473  14.587  88.443  1.00  0.00     0.000 HD
ENDBRANCH  33  35
ENDBRANCH  31  33
ENDBRANCH  26  31
ENDBRANCH  24  26
ENDBRANCH  19  22
ENDBRANCH  15  16
ENDBRANCH  11  14
ENDBRANCH   7   8
ENDBRANCH   2   7
TORSDOF 11
ENDMDL
MODEL 2
REMARK VINA RESULT:      -6.5      1.869      2.648
REMARK  11 active torsions:
REMARK  status: ('A' for Active; 'I' for Inactive)
REMARK    1  A    between atoms: O_2  and  C_18 
REMARK    2  A    between atoms: O_5  and  P_8 
REMARK    3  A    between atoms: N_6  and  C_11 
REMARK    4  A    between atoms: N_7  and  C_15 
REMARK       I    between atoms: N_7  and  C_24 
REMARK    5  A    between atoms: P_8  and  C_23 
REMARK    6  A    between atoms: C_11  and  C_14 
REMARK    7  A    between atoms: C_15  and  C_18 
REMARK    8  A    between atoms: C_15  and  C_23 
REMARK    9  A    between atoms: C_21  and  C_26 
REMARK   10  A    between atoms: C_24  and  C_25 
REMARK   11  A    between atoms: C_29  and  C_32 
ROOT
HETATM    1  O   UNL     1      16.013   3.954  93.990  1.00  0.00     0.000 OA
HETATM    2  N   UNL     1      14.089   2.601  92.386  1.00  0.00     0.000 N 
HETATM    3  C   UNL     1      14.314   4.047  92.259  1.00  0.00     0.000 C 
HETATM    4  C   UNL     1      14.394   2.163  93.756  1.00  0.00     0.000 C 
HETATM    5  C   UNL     1      15.750   4.384  92.653  1.00  0.00     0.000 C 
HETATM    6  C   UNL     1      15.826   2.544  94.114  1.00  0.00     0.000 C 
ENDROOT
BRANCH   2   7
HETATM    7  C   UNL     1      12.716   2.256  92.024  1.00  0.00     0.000 C 
BRANCH   7   8
HETATM    8  C   UNL     1      11.794   3.425  92.114  1.00  0.00     0.000 A 
HETATM    9  C   UNL     1      11.538   4.017  93.351  1.00  0.00     0.000 A 
HETATM   10  C   UNL     1      10.675   5.109  93.437  1.00  0.00     0.000 A 
HETATM   11  C   UNL     1      10.070   5.610  92.285  1.00  0.00     0.000 A 
HETATM   12  C   UNL     1      10.325   5.020  91.048  1.00  0.00     0.000 A 
HETATM   13  C   UNL     1      11.188   3.928  90.962  1.00  0.00     0.000 A 
BRANCH  11  14
HETATM   14  C   UNL     1       9.186   6.731  92.372  1.00  0.00     0.000 C 
HETATM   15  C   UNL     1       8.444   7.674  92.447  1.00  0.00     0.000 C 
BRANCH  15  16
HETATM   16  C   UNL     1       7.561   8.796  92.534  1.00  0.00     0.000 A 
HETATM   17  C   UNL     1       6.697   9.086  91.478  1.00  0.00     0.000 A 
HETATM   18  C   UNL     1       5.834  10.178  91.565  1.00  0.00     0.000 A 
HETATM   19  C   UNL     1       5.854  10.955  92.705  1.00  0.00     0.000 A 
HETATM   20  C   UNL     1       6.699  10.689  93.762  1.00  0.00     0.000 A 
HETATM   21  C   UNL     1       7.563   9.597  93.676  1.00  0.00     0.000 A 
BRANCH  19  22
HETATM   22  C   UNL     1       4.936  12.120  92.796  1.00  0.00     0.000 C 
HETATM   23  O   UNL     1       4.694  12.608  93.898  1.00  0.00     0.000 OA
HETATM   24  N   UNL     1       4.431  12.591  91.593  1.00  0.00     0.000 N 
HETATM   25  HN  UNL     1       4.695  12.153  90.718  1.00  0.00     0.000 HD
BRANCH  24  26
HETATM   26  C   UNL     1       3.548  13.727  91.514  1.00  0.00     0.000 C 
BRANCH  26  27
HETATM   27  C   UNL     1       3.537  14.376  90.124  1.00  0.00     0.000 C 
HETATM   28  C   UNL     1       4.917  14.864  89.697  1.00  0.00     0.000 C 
BRANCH  27  29
HETATM   29  O   UNL     1       3.061  13.435  89.162  1.00  0.00     0.000 OA
HETATM   30  H   UNL     1       3.056  13.866  88.291  1.00  0.00     0.000 HD
ENDBRANCH  27  29
ENDBRANCH  26  27
BRANCH  26  31
HETATM   31  C   UNL     1       2.153  13.263  91.920  1.00  0.00     0.000 C 
HETATM   32  O   UNL     1       1.644  12.226  91.498  1.00  0.00     0.000 OA
BRANCH  31  33
HETATM   33  P   UNL     1       1.536  14.151  92.768  1.00  0.00     0.000 P 
HETATM   34  H   UNL     1       1.082  15.212  92.011  1.00  0.00     0.000 HD
BRANCH  33  35
HETATM   35  O   UNL     1       2.336  14.667  93.797  1.00  0.00     0.000 OA
HETATM   36  H   UNL     1       1.934  14.229  94.566  1.00  0.00     0.000 HD
ENDBRANCH  33  35
ENDBRANCH  31  33
ENDBRANCH  26  31
ENDBRANCH  24  26
ENDBRANCH  19  22
ENDBRANCH  15  16
ENDBRANCH  11  14
ENDBRANCH   7   8
ENDBRANCH   2   7
TORSDOF 11
ENDMDL
MODEL 3
REMARK VINA RESULT:      -6.0      1.479      2.032
REMARK  11 active torsions:
REMARK  status: ('A' for Active; 'I' for Inactive)
REMARK    1  A    between atoms: O_2  and  C_18 
REMARK    2  A    between atoms: O_5  and  P_8 
REMARK    3  A    between atoms: N_6  and  C_11 
REMARK    4  A    between atoms: N_7  and  C_15 
REMARK       I    between atoms: N_7  and  C_24 
REMARK    5  A    between atoms: P_8  and  C_23 
REMARK    6  A    between atoms: C_11  and  C_14 
REMARK    7  A    between atoms: C_15  and  C_18 
REMARK    8  A    between atoms: C_15  and  C_23 
REMARK    9  A    between atoms: C_21  and  C_26 
REMARK   10  A    between atoms: C_24  and  C_25 
REMARK   11  A    between atoms: C_29  and  C_32 
ROOT
HETATM    1  O   UNL     1      16.535   3.109  93.920  1.00  0.00     0.000 OA
HETATM    2  N   UNL     1      14.040   3.170  92.552  1.00  0.00     0.000 N 
HETATM    3  C   UNL     1      14.708   1.901  92.875  1.00  0.00     0.000 C 
HETATM    4  C   UNL     1      15.038   4.234  92.378  1.00  0.00     0.000 C 
HETATM    5  C   UNL     1      15.571   2.075  94.122  1.00  0.00     0.000 C 
HETATM    6  C   UNL     1      15.893   4.353  93.636  1.00  0.00     0.000 C 
ENDROOT
BRANCH   2   7
HETATM    7  C   UNL     1      13.216   3.030  91.353  1.00  0.00     0.000 C 
BRANCH   7   8
HETATM    8  C   UNL     1      12.031   3.934  91.369  1.00  0.00     0.000 A 
HETATM    9  C   UNL     1      11.488   4.348  92.586  1.00  0.00     0.000 A 
HETATM   10  C   UNL     1      10.378   5.193  92.603  1.00  0.00     0.000 A 
HETATM   11  C   UNL     1       9.813   5.624  91.403  1.00  0.00     0.000 A 
HETATM   12  C   UNL     1      10.355   5.212  90.187  1.00  0.00     0.000 A 
HETATM   13  C   UNL     1      11.464   4.367  90.170  1.00  0.00     0.000 A 
BRANCH  11  14
HETATM   14  C   UNL     1       8.676   6.492  91.421  1.00  0.00     0.000 C 
HETATM   15  C   UNL     1       7.720   7.221  91.435  1.00  0.00     0.000 C 
BRANCH  15  16
HETATM   16  C   UNL     1       6.583   8.088  91.452  1.00  0.00     0.000 A 
HETATM   17  C   UNL     1       5.311   7.574  91.197  1.00  0.00     0.000 A 
HETATM   18  C   UNL     1       4.202   8.419  91.216  1.00  0.00     0.000 A 
HETATM   19  C   UNL     1       4.389   9.758  91.492  1.00  0.00     0.000 A 
HETATM   20  C   UNL     1       5.635  10.290  91.747  1.00  0.00     0.000 A 
HETATM   21  C   UNL     1       6.745   9.446  91.727  1.00  0.00     0.000 A 
BRANCH  19  22
HETATM   22  C   UNL     1       3.207  10.658  91.511  1.00  0.00     0.000 C 
HETATM   23  O   UNL     1       2.080  10.169  91.490  1.00  0.00     0.000 OA
HETATM   24  N   UNL     1       3.479  12.017  91.577  1.00  0.00     0.000 N 
HETATM   25  HN  UNL     1       4.436  12.347  91.617  1.00  0.00     0.000 HD
BRANCH  24  26
HETATM   26  C   UNL     1       2.440  13.015  91.628  1.00  0.00     0.000 C 
BRANCH  26  27
HETATM   27  C   UNL     1       2.464  13.832  92.925  1.00  0.00     0.000 C 
HETATM   28  C   UNL     1       3.782  13.691  93.680  1.00  0.00     0.000 C 
BRANCH  27  29
HETATM   29  O   UNL     1       2.247  15.210  92.625  1.00  0.00     0.000 OA
HETATM   30  H   UNL     1       3.016  15.540  92.131  1.00  0.00     0.000 HD
ENDBRANCH  27  29
ENDBRANCH  26  27
BRANCH  26  31
HETATM   31  C   UNL     1       2.596  13.912  90.404  1.00  0.00     0.000 C 
HETATM   32  O   UNL     1       1.709  14.666  90.009  1.00  0.00     0.000 OA
BRANCH  31  33
HETATM   33  P   UNL     1       3.814  13.745  89.790  1.00  0.00     0.000 P 
HETATM   34  H   UNL     1       4.194  14.964  89.266  1.00  0.00     0.000 HD
BRANCH  33  35
HETATM   35  O   UNL     1       3.850  12.802  88.753  1.00  0.00     0.000 OA
HETATM   36  H   UNL     1       4.800  12.596  88.737  1.00  0.00     0.000 HD
ENDBRANCH  33  35
ENDBRANCH  31  33
ENDBRANCH  26  31
ENDBRANCH  24  26
ENDBRANCH  19  22
ENDBRANCH  15  16
ENDBRANCH  11  14
ENDBRANCH   7   8
ENDBRANCH   2   7
TORSDOF 11
ENDMDL
MODEL 4
REMARK VINA RESULT:      -5.7      1.779      2.306
REMARK  11 active torsions:
REMARK  status: ('A' for Active; 'I' for Inactive)
REMARK    1  A    between atoms: O_2  and  C_18 
REMARK    2  A    between atoms: O_5  and  P_8 
REMARK    3  A    between atoms: N_6  and  C_11 
REMARK    4  A    between atoms: N_7  and  C_15 
REMARK       I    between atoms: N_7  and  C_24 
REMARK    5  A    between atoms: P_8  and  C_23 
REMARK    6  A    between atoms: C_11  and  C_14 
REMARK    7  A    between atoms: C_15  and  C_18 
REMARK    8  A    between atoms: C_15  and  C_23 
REMARK    9  A    between atoms: C_21  and  C_26 
REMARK   10  A    between atoms: C_24  and  C_25 
REMARK   11  A    between atoms: C_29  and  C_32 
ROOT
HETATM    1  O   UNL     1      16.127   4.142  94.124  1.00  0.00     0.000 OA
HETATM    2  N   UNL     1      14.338   2.744  92.407  1.00  0.00     0.000 N 
HETATM    3  C   UNL     1      14.402   4.212  92.418  1.00  0.00     0.000 C 
HETATM    4  C   UNL     1      14.710   2.214  93.726  1.00  0.00     0.000 C 
HETATM    5  C   UNL     1      15.799   4.666  92.835  1.00  0.00     0.000 C 
HETATM    6  C   UNL     1      16.097   2.715  94.114  1.00  0.00     0.000 C 
ENDROOT
BRANCH   2   7
HETATM    7  C   UNL     1      13.005   2.287  92.020  1.00  0.00     0.000 C 
BRANCH   7   8
HETATM    8  C   UNL     1      11.982   3.367  92.121  1.00  0.00     0.000 A 
HETATM    9  C   UNL     1      11.665   3.911  93.366  1.00  0.00     0.000 A 
HETATM   10  C   UNL     1      10.707   4.920  93.462  1.00  0.00     0.000 A 
HETATM   11  C   UNL     1      10.068   5.386  92.313  1.00  0.00     0.000 A 
HETATM   12  C   UNL     1      10.385   4.843  91.069  1.00  0.00     0.000 A 
HETATM   13  C   UNL     1      11.342   3.833  90.973  1.00  0.00     0.000 A 
BRANCH  11  14
HETATM   14  C   UNL     1       9.087   6.422  92.412  1.00  0.00     0.000 C 
HETATM   15  C   UNL     1       8.262   7.293  92.495  1.00  0.00     0.000 C 
BRANCH  15  16
HETATM   16  C   UNL     1       7.282   8.329  92.595  1.00  0.00     0.000 A 
HETATM   17  C   UNL     1       7.541   9.461  93.369  1.00  0.00     0.000 A 
HETATM   18  C   UNL     1       6.585  10.472  93.463  1.00  0.00     0.000 A 
HETATM   19  C   UNL     1       5.394  10.330  92.783  1.00  0.00     0.000 A 
HETATM   20  C   UNL     1       5.114   9.221  92.012  1.00  0.00     0.000 A 
HETATM   21  C   UNL     1       6.069   8.209  91.917  1.00  0.00     0.000 A 
BRANCH  19  22
HETATM   22  C   UNL     1       4.376  11.407  92.885  1.00  0.00     0.000 C 
HETATM   23  O   UNL     1       3.535  11.354  93.779  1.00  0.00     0.000 OA
HETATM   24  N   UNL     1       4.475  12.429  91.951  1.00  0.00     0.000 N 
HETATM   25  HN  UNL     1       5.212  12.419  91.256  1.00  0.00     0.000 HD
BRANCH  24  26
HETATM   26  C   UNL     1       3.577  13.556  91.936  1.00  0.00     0.000 C 
BRANCH  26  27
HETATM   27  C   UNL     1       3.997  14.663  92.910  1.00  0.00     0.000 C 
HETATM   28  C   UNL     1       2.802  15.366  93.545  1.00  0.00     0.000 C 
BRANCH  27  29
HETATM   29  O   UNL     1       4.810  14.106  93.943  1.00  0.00     0.000 OA
HETATM   30  H   UNL     1       4.864  13.146  93.804  1.00  0.00     0.000 HD
ENDBRANCH  27  29
ENDBRANCH  26  27
BRANCH  26  31
HETATM   31  C   UNL     1       3.506  14.075  90.503  1.00  0.00     0.000 C 
HETATM   32  O   UNL     1       2.468  14.082  89.844  1.00  0.00     0.000 OA
BRANCH  31  33
HETATM   33  P   UNL     1       4.731  14.490  90.040  1.00  0.00     0.000 P 
HETATM   34  H   UNL     1       4.548  15.680  89.365  1.00  0.00     0.000 HD
BRANCH  33  35
HETATM   35  O   UNL     1       5.389  13.603  89.176  1.00  0.00     0.000 OA
HETATM   36  H   UNL     1       5.011  13.878  88.324  1.00  0.00     0.000 HD
ENDBRANCH  33  35
ENDBRANCH  31  33
ENDBRANCH  26  31
ENDBRANCH  24  26
ENDBRANCH  19  22
ENDBRANCH  15  16
ENDBRANCH  11  14
ENDBRANCH   7   8
ENDBRANCH   2   7
TORSDOF 11
ENDMDL
MODEL 5
REMARK VINA RESULT:      -5.3      3.535     12.283
REMARK  11 active torsions:
REMARK  status: ('A' for Active; 'I' for Inactive)
REMARK    1  A    between atoms: O_2  and  C_18 
REMARK    2  A    between atoms: O_5  and  P_8 
REMARK    3  A    between atoms: N_6  and  C_11 
REMARK    4  A    between atoms: N_7  and  C_15 
REMARK       I    between atoms: N_7  and  C_24 
REMARK    5  A    between atoms: P_8  and  C_23 
REMARK    6  A    between atoms: C_11  and  C_14 
REMARK    7  A    between atoms: C_15  and  C_18 
REMARK    8  A    between atoms: C_15  and  C_23 
REMARK    9  A    between atoms: C_21  and  C_26 
REMARK   10  A    between atoms: C_24  and  C_25 
REMARK   11  A    between atoms: C_29  and  C_32 
ROOT
HETATM    1  O   UNL     1       2.529  14.715  94.050  1.00  0.00     0.000 OA
HETATM    2  N   UNL     1       2.281  14.708  91.214  1.00  0.00     0.000 N 
HETATM    3  C   UNL     1       1.370  13.932  92.067  1.00  0.00     0.000 C 
HETATM    4  C   UNL     1       3.588  14.848  91.872  1.00  0.00     0.000 C 
HETATM    5  C   UNL     1       1.245  14.601  93.433  1.00  0.00     0.000 C 
HETATM    6  C   UNL     1       3.412  15.494  93.242  1.00  0.00     0.000 C 
ENDROOT
BRANCH   2   7
HETATM    7  C   UNL     1       2.424  14.079  89.902  1.00  0.00     0.000 C 
BRANCH   7   8
HETATM    8  C   UNL     1       3.437  12.985  89.904  1.00  0.00     0.000 A 
HETATM    9  C   UNL     1       4.764  13.264  89.575  1.00  0.00     0.000 A 
HETATM   10  C   UNL     1       5.712  12.241  89.574  1.00  0.00     0.000 A 
HETATM   11  C   UNL     1       5.333  10.940  89.905  1.00  0.00     0.000 A 
HETATM   12  C   UNL     1       4.008  10.661  90.234  1.00  0.00     0.000 A 
HETATM   13  C   UNL     1       3.060  11.683  90.234  1.00  0.00     0.000 A 
BRANCH  11  14
HETATM   14  C   UNL     1       6.306   9.892  89.906  1.00  0.00     0.000 C 
HETATM   15  C   UNL     1       7.124   9.010  89.907  1.00  0.00     0.000 C 
BRANCH  15  16
HETATM   16  C   UNL     1       8.096   7.962  89.907  1.00  0.00     0.000 A 
HETATM   17  C   UNL     1       8.494   7.380  88.703  1.00  0.00     0.000 A 
HETATM   18  C   UNL     1       9.445   6.360  88.703  1.00  0.00     0.000 A 
HETATM   19  C   UNL     1       9.977   5.945  89.906  1.00  0.00     0.000 A 
HETATM   20  C   UNL     1       9.600   6.503  91.109  1.00  0.00     0.000 A 
HETATM   21  C   UNL     1       8.649   7.524  91.110  1.00  0.00     0.000 A 
BRANCH  19  22
HETATM   22  C   UNL     1      10.989   4.857  89.906  1.00  0.00     0.000 C 
HETATM   23  O   UNL     1      11.202   4.236  88.867  1.00  0.00     0.000 OA
HETATM   24  N   UNL     1      11.647   4.638  91.109  1.00  0.00     0.000 N 
HETATM   25  HN  UNL     1      11.435   5.207  91.920  1.00  0.00     0.000 HD
BRANCH  24  26
HETATM   26  C   UNL     1      12.670   3.636  91.261  1.00  0.00     0.000 C 
BRANCH  26  27
HETATM   27  C   UNL     1      14.083   4.232  91.310  1.00  0.00     0.000 C 
HETATM   28  C   UNL     1      15.167   3.186  91.078  1.00  0.00     0.000 C 
BRANCH  27  29
HETATM   29  O   UNL     1      14.204   5.253  90.320  1.00  0.00     0.000 OA
HETATM   30  H   UNL     1      15.149   5.448  90.198  1.00  0.00     0.000 HD
ENDBRANCH  27  29
ENDBRANCH  26  27
BRANCH  26  31
HETATM   31  C   UNL     1      12.360   2.842  92.526  1.00  0.00     0.000 C 
HETATM   32  O   UNL     1      11.960   1.679  92.506  1.00  0.00     0.000 OA
BRANCH  31  33
HETATM   33  P   UNL     1      12.543   3.588  93.665  1.00  0.00     0.000 P 
HETATM   34  H   UNL     1      12.948   2.733  94.670  1.00  0.00     0.000 HD
BRANCH  33  35
HETATM   35  O   UNL     1      11.417   4.287  94.124  1.00  0.00     0.000 OA
HETATM   36  H   UNL     1      11.463   5.079  93.561  1.00  0.00     0.000 HD
ENDBRANCH  33  35
ENDBRANCH  31  33
ENDBRANCH  26  31
ENDBRANCH  24  26
ENDBRANCH  19  22
ENDBRANCH  15  16
ENDBRANCH  11  14
ENDBRANCH   7   8
ENDBRANCH   2   7
TORSDOF 11
ENDMDL
MODEL 6
REMARK VINA RESULT:      -4.6      3.390     12.765
REMARK  11 active torsions:
REMARK  status: ('A' for Active; 'I' for Inactive)
REMARK    1  A    between atoms: O_2  and  C_18 
REMARK    2  A    between atoms: O_5  and  P_8 
REMARK    3  A    between atoms: N_6  and  C_11 
REMARK    4  A    between atoms: N_7  and  C_15 
REMARK       I    between atoms: N_7  and  C_24 
REMARK    5  A    between atoms: P_8  and  C_23 
REMARK    6  A    between atoms: C_11  and  C_14 
REMARK    7  A    between atoms: C_15  and  C_18 
REMARK    8  A    between atoms: C_15  and  C_23 
REMARK    9  A    between atoms: C_21  and  C_26 
REMARK   10  A    between atoms: C_24  and  C_25 
REMARK   11  A    between atoms: C_29  and  C_32 
ROOT
HETATM    1  O   UNL     1       1.710  14.996  92.483  1.00  0.00     0.000 OA
HETATM    2  N   UNL     1       3.656  13.279  91.315  1.00  0.00     0.000 N 
HETATM    3  C   UNL     1       3.899  14.719  91.473  1.00  0.00     0.000 C 
HETATM    4  C   UNL     1       2.217  13.025  91.163  1.00  0.00     0.000 C 
HETATM    5  C   UNL     1       3.104  15.250  92.664  1.00  0.00     0.000 C 
HETATM    6  C   UNL     1       1.462  13.595  92.359  1.00  0.00     0.000 C 
ENDROOT
BRANCH   2   7
HETATM    7  C   UNL     1       4.401  12.751  90.173  1.00  0.00     0.000 C 
BRANCH   7   8
HETATM    8  C   UNL     1       5.327  11.648  90.559  1.00  0.00     0.000 A 
HETATM    9  C   UNL     1       5.425  11.257  91.895  1.00  0.00     0.000 A 
HETATM   10  C   UNL     1       6.293  10.227  92.257  1.00  0.00     0.000 A 
HETATM   11  C   UNL     1       7.059   9.587  91.284  1.00  0.00     0.000 A 
HETATM   12  C   UNL     1       6.961   9.976  89.949  1.00  0.00     0.000 A 
HETATM   13  C   UNL     1       6.094  11.007  89.586  1.00  0.00     0.000 A 
BRANCH  11  14
HETATM   14  C   UNL     1       7.947   8.528  91.655  1.00  0.00     0.000 C 
HETATM   15  C   UNL     1       8.694   7.639  91.967  1.00  0.00     0.000 C 
BRANCH  15  16
HETATM   16  C   UNL     1       9.582   6.582  92.339  1.00  0.00     0.000 A 
HETATM   17  C   UNL     1      10.203   5.815  91.353  1.00  0.00     0.000 A 
HETATM   18  C   UNL     1      11.072   4.786  91.716  1.00  0.00     0.000 A 
HETATM   19  C   UNL     1      11.300   4.547  93.055  1.00  0.00     0.000 A 
HETATM   20  C   UNL     1      10.697   5.291  94.049  1.00  0.00     0.000 A 
HETATM   21  C   UNL     1       9.829   6.320  93.687  1.00  0.00     0.000 A 
BRANCH  19  22
HETATM   22  C   UNL     1      12.223   3.449  93.442  1.00  0.00     0.000 C 
HETATM   23  O   UNL     1      11.794   2.300  93.508  1.00  0.00     0.000 OA
HETATM   24  N   UNL     1      13.540   3.818  93.679  1.00  0.00     0.000 N 
HETATM   25  HN  UNL     1      13.828   4.784  93.580  1.00  0.00     0.000 HD
BRANCH  24  26
HETATM   26  C   UNL     1      14.559   2.865  94.038  1.00  0.00     0.000 C 
BRANCH  26  27
HETATM   27  C   UNL     1      14.593   1.650  93.102  1.00  0.00     0.000 C 
HETATM   28  C   UNL     1      15.454   1.888  91.867  1.00  0.00     0.000 C 
BRANCH  27  29
HETATM   29  O   UNL     1      15.098   0.517  93.808  1.00  0.00     0.000 OA
HETATM   30  H   UNL     1      15.841   0.810  94.362  1.00  0.00     0.000 HD
ENDBRANCH  27  29
ENDBRANCH  26  27
BRANCH  26  31
HETATM   31  C   UNL     1      15.898   3.595  94.047  1.00  0.00     0.000 C 
HETATM   32  O   UNL     1      16.978   3.013  94.124  1.00  0.00     0.000 OA
BRANCH  31  33
HETATM   33  P   UNL     1      15.745   4.960  93.997  1.00  0.00     0.000 P 
HETATM   34  H   UNL     1      14.476   5.226  93.524  1.00  0.00     0.000 HD
BRANCH  33  35
HETATM   35  O   UNL     1      16.659   5.647  93.186  1.00  0.00     0.000 OA
HETATM   36  H   UNL     1      17.170   6.122  93.863  1.00  0.00     0.000 HD
ENDBRANCH  33  35
ENDBRANCH  31  33
ENDBRANCH  26  31
ENDBRANCH  24  26
ENDBRANCH  19  22
ENDBRANCH  15  16
ENDBRANCH  11  14
ENDBRANCH   7   8
ENDBRANCH   2   7
TORSDOF 11
ENDMDL
MODEL 7
REMARK VINA RESULT:      -4.5      3.502     12.435
REMARK  11 active torsions:
REMARK  status: ('A' for Active; 'I' for Inactive)
REMARK    1  A    between atoms: O_2  and  C_18 
REMARK    2  A    between atoms: O_5  and  P_8 
REMARK    3  A    between atoms: N_6  and  C_11 
REMARK    4  A    between atoms: N_7  and  C_15 
REMARK       I    between atoms: N_7  and  C_24 
REMARK    5  A    between atoms: P_8  and  C_23 
REMARK    6  A    between atoms: C_11  and  C_14 
REMARK    7  A    between atoms: C_15  and  C_18 
REMARK    8  A    between atoms: C_15  and  C_23 
REMARK    9  A    between atoms: C_21  and  C_26 
REMARK   10  A    between atoms: C_24  and  C_25 
REMARK   11  A    between atoms: C_29  and  C_32 
ROOT
HETATM    1  O   UNL     1       4.604  14.919  91.207  1.00  0.00     0.000 OA
HETATM    2  N   UNL     1       3.847  13.176  89.088  1.00  0.00     0.000 N 
HETATM    3  C   UNL     1       3.493  12.887  90.485  1.00  0.00     0.000 C 
HETATM    4  C   UNL     1       5.093  13.954  89.036  1.00  0.00     0.000 C 
HETATM    5  C   UNL     1       3.377  14.191  91.270  1.00  0.00     0.000 C 
HETATM    6  C   UNL     1       4.940  15.232  89.855  1.00  0.00     0.000 C 
ENDROOT
BRANCH   2   7
HETATM    7  C   UNL     1       3.974  11.939  88.319  1.00  0.00     0.000 C 
BRANCH   7   8
HETATM    8  C   UNL     1       4.939  10.984  88.935  1.00  0.00     0.000 A 
HETATM    9  C   UNL     1       6.159  11.448  89.428  1.00  0.00     0.000 A 
HETATM   10  C   UNL     1       7.063  10.555  90.002  1.00  0.00     0.000 A 
HETATM   11  C   UNL     1       6.746   9.199  90.085  1.00  0.00     0.000 A 
HETATM   12  C   UNL     1       5.528   8.735  89.592  1.00  0.00     0.000 A 
HETATM   13  C   UNL     1       4.623   9.628  89.018  1.00  0.00     0.000 A 
BRANCH  11  14
HETATM   14  C   UNL     1       7.673   8.283  90.676  1.00  0.00     0.000 C 
HETATM   15  C   UNL     1       8.453   7.514  91.171  1.00  0.00     0.000 C 
BRANCH  15  16
HETATM   16  C   UNL     1       9.380   6.600  91.762  1.00  0.00     0.000 A 
HETATM   17  C   UNL     1       9.662   6.678  93.126  1.00  0.00     0.000 A 
HETATM   18  C   UNL     1      10.564   5.784  93.702  1.00  0.00     0.000 A 
HETATM   19  C   UNL     1      11.163   4.833  92.903  1.00  0.00     0.000 A 
HETATM   20  C   UNL     1      10.901   4.735  91.553  1.00  0.00     0.000 A 
HETATM   21  C   UNL     1       9.999   5.629  90.975  1.00  0.00     0.000 A 
BRANCH  19  22
HETATM   22  C   UNL     1      12.126   3.882  93.517  1.00  0.00     0.000 C 
HETATM   23  O   UNL     1      11.698   2.902  94.122  1.00  0.00     0.000 OA
HETATM   24  N   UNL     1      13.470   4.173  93.332  1.00  0.00     0.000 N 
HETATM   25  HN  UNL     1      13.749   4.988  92.799  1.00  0.00     0.000 HD
BRANCH  24  26
HETATM   26  C   UNL     1      14.523   3.335  93.846  1.00  0.00     0.000 C 
BRANCH  26  27
HETATM   27  C   UNL     1      14.646   2.006  93.089  1.00  0.00     0.000 C 
HETATM   28  C   UNL     1      14.663   0.801  94.023  1.00  0.00     0.000 C 
BRANCH  27  29
HETATM   29  O   UNL     1      13.555   1.872  92.180  1.00  0.00     0.000 OA
HETATM   30  H   UNL     1      13.916   1.729  91.289  1.00  0.00     0.000 HD
ENDBRANCH  27  29
ENDBRANCH  26  27
BRANCH  26  31
HETATM   31  C   UNL     1      15.823   4.130  93.785  1.00  0.00     0.000 C 
HETATM   32  O   UNL     1      15.856   5.349  93.630  1.00  0.00     0.000 OA
BRANCH  31  33
HETATM   33  P   UNL     1      16.931   3.323  93.885  1.00  0.00     0.000 P 
HETATM   34  H   UNL     1      16.972   2.818  95.169  1.00  0.00     0.000 HD
BRANCH  33  35
HETATM   35  O   UNL     1      18.162   3.942  93.626  1.00  0.00     0.000 OA
HETATM   36  H   UNL     1      18.244   3.775  92.672  1.00  0.00     0.000 HD
ENDBRANCH  33  35
ENDBRANCH  31  33
ENDBRANCH  26  31
ENDBRANCH  24  26
ENDBRANCH  19  22
ENDBRANCH  15  16
ENDBRANCH  11  14
ENDBRANCH   7   8
ENDBRANCH   2   7
TORSDOF 11
ENDMDL
MODEL 8
REMARK VINA RESULT:      -4.3      3.241     12.374
REMARK  11 active torsions:
REMARK  status: ('A' for Active; 'I' for Inactive)
REMARK    1  A    between atoms: O_2  and  C_18 
REMARK    2  A    between atoms: O_5  and  P_8 
REMARK    3  A    between atoms: N_6  and  C_11 
REMARK    4  A    between atoms: N_7  and  C_15 
REMARK       I    between atoms: N_7  and  C_24 
REMARK    5  A    between atoms: P_8  and  C_23 
REMARK    6  A    between atoms: C_11  and  C_14 
REMARK    7  A    between atoms: C_15  and  C_18 
REMARK    8  A    between atoms: C_15  and  C_23 
REMARK    9  A    between atoms: C_21  and  C_26 
REMARK   10  A    between atoms: C_24  and  C_25 
REMARK   11  A    between atoms: C_29  and  C_32 
ROOT
HETATM    1  O   UNL     1       5.481  14.468  88.743  1.00  0.00     0.000 OA
HETATM    2  N   UNL     1       3.526  12.773  89.928  1.00  0.00     0.000 N 
HETATM    3  C   UNL     1       4.129  13.887  90.672  1.00  0.00     0.000 C 
HETATM    4  C   UNL     1       4.472  12.270  88.922  1.00  0.00     0.000 C 
HETATM    5  C   UNL     1       4.557  14.985  89.702  1.00  0.00     0.000 C 
HETATM    6  C   UNL     1       4.893  13.404  87.994  1.00  0.00     0.000 C 
ENDROOT
BRANCH   2   7
HETATM    7  C   UNL     1       3.118  11.704  90.838  1.00  0.00     0.000 C 
BRANCH   7   8
HETATM    8  C   UNL     1       4.188  10.684  91.033  1.00  0.00     0.000 A 
HETATM    9  C   UNL     1       5.355  11.021  91.719  1.00  0.00     0.000 A 
HETATM   10  C   UNL     1       6.358  10.068  91.899  1.00  0.00     0.000 A 
HETATM   11  C   UNL     1       6.191   8.779  91.396  1.00  0.00     0.000 A 
HETATM   12  C   UNL     1       5.025   8.440  90.712  1.00  0.00     0.000 A 
HETATM   13  C   UNL     1       4.023   9.393  90.530  1.00  0.00     0.000 A 
BRANCH  11  14
HETATM   14  C   UNL     1       7.218   7.801  91.584  1.00  0.00     0.000 C 
HETATM   15  C   UNL     1       8.082   6.979  91.742  1.00  0.00     0.000 C 
BRANCH  15  16
HETATM   16  C   UNL     1       9.109   6.003  91.930  1.00  0.00     0.000 A 
HETATM   17  C   UNL     1       9.509   5.198  90.862  1.00  0.00     0.000 A 
HETATM   18  C   UNL     1      10.512   4.247  91.046  1.00  0.00     0.000 A 
HETATM   19  C   UNL     1      11.094   4.122  92.290  1.00  0.00     0.000 A 
HETATM   20  C   UNL     1      10.717   4.906  93.361  1.00  0.00     0.000 A 
HETATM   21  C   UNL     1       9.713   5.857  93.179  1.00  0.00     0.000 A 
BRANCH  19  22
HETATM   22  C   UNL     1      12.162   3.108  92.485  1.00  0.00     0.000 C 
HETATM   23  O   UNL     1      11.862   1.916  92.501  1.00  0.00     0.000 OA
HETATM   24  N   UNL     1      13.453   3.601  92.613  1.00  0.00     0.000 N 
HETATM   25  HN  UNL     1      13.628   4.598  92.565  1.00  0.00     0.000 HD
BRANCH  24  26
HETATM   26  C   UNL     1      14.598   2.742  92.784  1.00  0.00     0.000 C 
BRANCH  26  27
HETATM   27  C   UNL     1      15.202   2.287  91.450  1.00  0.00     0.000 C 
HETATM   28  C   UNL     1      14.933   3.274  90.319  1.00  0.00     0.000 C 
BRANCH  27  29
HETATM   29  O   UNL     1      16.612   2.122  91.596  1.00  0.00     0.000 OA
HETATM   30  H   UNL     1      16.844   2.292  92.524  1.00  0.00     0.000 HD
ENDBRANCH  27  29
ENDBRANCH  26  27
BRANCH  26  31
HETATM   31  C   UNL     1      15.622   3.494  93.628  1.00  0.00     0.000 C 
HETATM   32  O   UNL     1      16.608   2.952  94.124  1.00  0.00     0.000 OA
BRANCH  31  33
HETATM   33  P   UNL     1      15.288   4.816  93.794  1.00  0.00     0.000 P 
HETATM   34  H   UNL     1      14.295   5.119  92.885  1.00  0.00     0.000 HD
BRANCH  33  35
HETATM   35  O   UNL     1      16.331   5.735  93.614  1.00  0.00     0.000 OA
HETATM   36  H   UNL     1      16.969   5.406  94.269  1.00  0.00     0.000 HD
ENDBRANCH  33  35
ENDBRANCH  31  33
ENDBRANCH  26  31
ENDBRANCH  24  26
ENDBRANCH  19  22
ENDBRANCH  15  16
ENDBRANCH  11  14
ENDBRANCH   7   8
ENDBRANCH   2   7
TORSDOF 11
ENDMDL
MODEL 9
REMARK VINA RESULT:      -4.3      3.338     12.329
REMARK  11 active torsions:
REMARK  status: ('A' for Active; 'I' for Inactive)
REMARK    1  A    between atoms: O_2  and  C_18 
REMARK    2  A    between atoms: O_5  and  P_8 
REMARK    3  A    between atoms: N_6  and  C_11 
REMARK    4  A    between atoms: N_7  and  C_15 
REMARK       I    between atoms: N_7  and  C_24 
REMARK    5  A    between atoms: P_8  and  C_23 
REMARK    6  A    between atoms: C_11  and  C_14 
REMARK    7  A    between atoms: C_15  and  C_18 
REMARK    8  A    between atoms: C_15  and  C_23 
REMARK    9  A    between atoms: C_21  and  C_26 
REMARK   10  A    between atoms: C_24  and  C_25 
REMARK   11  A    between atoms: C_29  and  C_32 
ROOT
HETATM    1  O   UNL     1       4.894  15.582  92.002  1.00  0.00     0.000 OA
HETATM    2  N   UNL     1       3.211  13.663  90.743  1.00  0.00     0.000 N 
HETATM    3  C   UNL     1       3.178  13.878  92.196  1.00  0.00     0.000 C 
HETATM    4  C   UNL     1       4.548  13.975  90.218  1.00  0.00     0.000 C 
HETATM    5  C   UNL     1       3.589  15.313  92.517  1.00  0.00     0.000 C 
HETATM    6  C   UNL     1       4.927  15.406  90.585  1.00  0.00     0.000 C 
ENDROOT
BRANCH   2   7
HETATM    7  C   UNL     1       2.831  12.291  90.413  1.00  0.00     0.000 C 
BRANCH   7   8
HETATM    8  C   UNL     1       3.982  11.347  90.494  1.00  0.00     0.000 A 
HETATM    9  C   UNL     1       4.601  11.107  91.721  1.00  0.00     0.000 A 
HETATM   10  C   UNL     1       5.680  10.226  91.798  1.00  0.00     0.000 A 
HETATM   11  C   UNL     1       6.138   9.585  90.647  1.00  0.00     0.000 A 
HETATM   12  C   UNL     1       5.521   9.824  89.421  1.00  0.00     0.000 A 
HETATM   13  C   UNL     1       4.442  10.706  89.344  1.00  0.00     0.000 A 
BRANCH  11  14
HETATM   14  C   UNL     1       7.243   8.680  90.726  1.00  0.00     0.000 C 
HETATM   15  C   UNL     1       8.171   7.918  90.792  1.00  0.00     0.000 C 
BRANCH  15  16
HETATM   16  C   UNL     1       9.276   7.014  90.870  1.00  0.00     0.000 A 
HETATM   17  C   UNL     1       9.861   6.527  89.700  1.00  0.00     0.000 A 
HETATM   18  C   UNL     1      10.940   5.647  89.777  1.00  0.00     0.000 A 
HETATM   19  C   UNL     1      11.410   5.274  91.019  1.00  0.00     0.000 A 
HETATM   20  C   UNL     1      10.849   5.741  92.189  1.00  0.00     0.000 A 
HETATM   21  C   UNL     1       9.769   6.621  92.114  1.00  0.00     0.000 A 
BRANCH  19  22
HETATM   22  C   UNL     1      12.559   4.335  91.099  1.00  0.00     0.000 C 
HETATM   23  O   UNL     1      12.861   3.671  90.111  1.00  0.00     0.000 OA
HETATM   24  N   UNL     1      13.232   4.300  92.312  1.00  0.00     0.000 N 
HETATM   25  HN  UNL     1      12.940   4.897  93.078  1.00  0.00     0.000 HD
BRANCH  24  26
HETATM   26  C   UNL     1      14.380   3.459  92.539  1.00  0.00     0.000 C 
BRANCH  26  27
HETATM   27  C   UNL     1      15.458   4.143  93.389  1.00  0.00     0.000 C 
HETATM   28  C   UNL     1      16.681   3.258  93.602  1.00  0.00     0.000 C 
BRANCH  27  29
HETATM   29  O   UNL     1      15.868   5.355  92.756  1.00  0.00     0.000 OA
HETATM   30  H   UNL     1      15.403   5.427  91.905  1.00  0.00     0.000 HD
ENDBRANCH  27  29
ENDBRANCH  26  27
BRANCH  26  31
HETATM   31  C   UNL     1      13.892   2.171  93.193  1.00  0.00     0.000 C 
HETATM   32  O   UNL     1      14.319   1.060  92.885  1.00  0.00     0.000 OA
BRANCH  31  33
HETATM   33  P   UNL     1      12.907   2.402  94.123  1.00  0.00     0.000 P 
HETATM   34  H   UNL     1      12.928   1.360  95.029  1.00  0.00     0.000 HD
BRANCH  33  35
HETATM   35  O   UNL     1      11.604   2.507  93.619  1.00  0.00     0.000 OA
HETATM   36  H   UNL     1      11.207   1.702  93.992  1.00  0.00     0.000 HD
ENDBRANCH  33  35
ENDBRANCH  31  33
ENDBRANCH  26  31
ENDBRANCH  24  26
ENDBRANCH  19  22
ENDBRANCH  15  16
ENDBRANCH  11  14
ENDBRANCH   7   8
ENDBRANCH   2   7
TORSDOF 11
ENDMDL
