MODEL 1
REMARK VINA RESULT:      -6.7      0.000      0.000
REMARK  10 active torsions:
REMARK  status: ('A' for Active; 'I' for Inactive)
REMARK    1  A    between atoms: O_2  and  C_16 
REMARK    2  A    between atoms: N_5  and  C_9 
REMARK    3  A    between atoms: N_6  and  C_13 
REMARK       I    between atoms: N_6  and  C_22 
REMARK    4  A    between atoms: C_9  and  C_12 
REMARK    5  A    between atoms: C_13  and  C_16 
REMARK    6  A    between atoms: C_13  and  C_21 
REMARK    7  A    between atoms: C_19  and  C_24 
REMARK    8  A    between atoms: C_22  and  C_23 
REMARK    9  A    between atoms: C_27  and  C_30 
REMARK   10  A    between atoms: N_33  and  S_34 
ROOT
HETATM    1  C   UNL     1       5.437  10.513  90.995  1.00  0.00     0.056 A 
HETATM    2  C   UNL     1       5.852   9.808  89.884  1.00  0.00     0.005 A 
HETATM    3  C   UNL     1       5.938  10.263  92.255  1.00  0.00     0.005 A 
HETATM    4  C   UNL     1       7.332   8.534  91.304  1.00  0.00     0.042 A 
HETATM    5  C   UNL     1       6.810   8.807  90.040  1.00  0.00     0.008 A 
HETATM    6  C   UNL     1       6.896   9.261  92.412  1.00  0.00     0.008 A 
ENDROOT
BRANCH   1   7
HETATM    7  C   UNL     1       4.418  11.582  90.828  1.00  0.00     0.254 C 
HETATM    8  O   UNL     1       3.426  11.362  90.137  1.00  0.00    -0.268 OA
HETATM    9  N   UNL     1       4.665  12.768  91.504  1.00  0.00    -0.337 N 
HETATM   10  HN  UNL     1       5.494  12.869  92.077  1.00  0.00     0.164 HD
BRANCH   9  11
HETATM   11  C   UNL     1       3.759  13.888  91.461  1.00  0.00     0.172 C 
BRANCH  11  12
HETATM   12  C   UNL     1       3.721  14.568  90.087  1.00  0.00     0.136 C 
HETATM   13  C   UNL     1       5.066  14.513  89.371  1.00  0.00     0.034 C 
BRANCH  12  14
HETATM   14  O   UNL     1       2.735  13.938  89.270  1.00  0.00    -0.383 OA
HETATM   15  H   UNL     1       3.010  13.019  89.115  1.00  0.00     0.210 HD
ENDBRANCH  12  14
ENDBRANCH  11  12
BRANCH  11  16
HETATM   16  C   UNL     1       2.378  13.386  91.870  1.00  0.00     0.398 A 
HETATM   17  O   UNL     1       1.367  14.083  91.808  1.00  0.00    -0.136 OA
HETATM   18  N   UNL     1       1.402  13.320  93.122  1.00  0.00     0.142 N 
HETATM   19  HN  UNL     1       0.543  13.776  93.244  1.00  0.00     0.338 HD
BRANCH  18  20
HETATM   20  S   UNL     1       2.252  12.670  94.010  1.00  0.00     0.076 SA
HETATM   21  H   UNL     1       3.217  13.271  94.357  1.00  0.00     0.136 HD
ENDBRANCH  18  20
ENDBRANCH  11  16
ENDBRANCH   9  11
ENDBRANCH   1   7
BRANCH   4  22
HETATM   22  C   UNL     1       8.312   7.505  91.465  1.00  0.00    -0.059 C 
HETATM   23  C   UNL     1       9.135   6.639  91.601  1.00  0.00    -0.059 C 
BRANCH  23  24
HETATM   24  C   UNL     1      10.115   5.609  91.761  1.00  0.00     0.042 A 
HETATM   25  C   UNL     1      10.515   5.222  93.040  1.00  0.00     0.008 A 
HETATM   26  C   UNL     1      11.472   4.219  93.196  1.00  0.00    -0.002 A 
HETATM   27  C   UNL     1      12.027   3.603  92.074  1.00  0.00     0.011 A 
HETATM   28  C   UNL     1      11.625   3.992  90.796  1.00  0.00    -0.002 A 
HETATM   29  C   UNL     1      10.669   4.995  90.640  1.00  0.00     0.008 A 
BRANCH  27  30
HETATM   30  C   UNL     1      13.048   2.530  92.243  1.00  0.00     0.277 C 
BRANCH  30  31
HETATM   31  N   UNL     1      14.120   2.920  93.156  1.00  0.00     0.147 N 
HETATM   32  C   UNL     1      15.197   1.920  93.151  1.00  0.00     0.283 C 
HETATM   33  C   UNL     1      16.310   2.354  94.102  1.00  0.00     0.178 C 
HETATM   34  O   UNL     1      16.816   3.635  93.723  1.00  0.00    -0.350 OA
HETATM   35  C   UNL     1      15.782   4.619  93.755  1.00  0.00     0.178 C 
HETATM   36  C   UNL     1      14.658   4.240  92.797  1.00  0.00     0.283 C 
ENDBRANCH  30  31
ENDBRANCH  27  30
ENDBRANCH  23  24
ENDBRANCH   4  22
TORSDOF 10
ENDMDL
