MODEL 1
REMARK VINA RESULT:      -6.9      0.000      0.000
REMARK  11 active torsions:
REMARK  status: ('A' for Active; 'I' for Inactive)
REMARK    1  A    between atoms: O_2  and  C_18 
REMARK    2  A    between atoms: O_5  and  P_8 
REMARK    3  A    between atoms: N_6  and  C_11 
REMARK    4  A    between atoms: N_7  and  C_15 
REMARK       I    between atoms: N_7  and  C_24 
REMARK    5  A    between atoms: P_8  and  C_23 
REMARK    6  A    between atoms: C_11  and  C_14 
REMARK    7  A    between atoms: C_15  and  C_18 
REMARK    8  A    between atoms: C_15  and  C_23 
REMARK    9  A    between atoms: C_21  and  C_26 
REMARK   10  A    between atoms: C_24  and  C_25 
REMARK   11  A    between atoms: C_29  and  C_32 
ROOT
HETATM    1  O   UNL     1      16.291   4.261  94.117  1.00  0.00     0.000 OA
HETATM    2  N   UNL     1      14.562   2.621  92.561  1.00  0.00     0.000 N 
HETATM    3  C   UNL     1      14.434   4.085  92.565  1.00  0.00     0.000 C 
HETATM    4  C   UNL     1      15.109   2.160  93.844  1.00  0.00     0.000 C 
HETATM    5  C   UNL     1      15.789   4.722  92.862  1.00  0.00     0.000 C 
HETATM    6  C   UNL     1      16.448   2.841  94.111  1.00  0.00     0.000 C 
ENDROOT
BRANCH   2   7
HETATM    7  C   UNL     1      13.271   1.990  92.290  1.00  0.00     0.000 C 
BRANCH   7   8
HETATM    8  C   UNL     1      12.205   2.986  91.983  1.00  0.00     0.000 A 
HETATM    9  C   UNL     1      11.689   3.790  93.000  1.00  0.00     0.000 A 
HETATM   10  C   UNL     1      10.690   4.720  92.715  1.00  0.00     0.000 A 
HETATM   11  C   UNL     1      10.209   4.847  91.412  1.00  0.00     0.000 A 
HETATM   12  C   UNL     1      10.723   4.045  90.396  1.00  0.00     0.000 A 
HETATM   13  C   UNL     1      11.722   3.114  90.681  1.00  0.00     0.000 A 
BRANCH  11  14
HETATM   14  C   UNL     1       9.186   5.803  91.119  1.00  0.00     0.000 C 
HETATM   15  C   UNL     1       8.326   6.607  90.873  1.00  0.00     0.000 C 
BRANCH  15  16
HETATM   16  C   UNL     1       7.304   7.563  90.580  1.00  0.00     0.000 A 
HETATM   17  C   UNL     1       6.452   7.360  89.493  1.00  0.00     0.000 A 
HETATM   18  C   UNL     1       5.454   8.292  89.209  1.00  0.00     0.000 A 
HETATM   19  C   UNL     1       5.328   9.403  90.016  1.00  0.00     0.000 A 
HETATM   20  C   UNL     1       6.158   9.626  91.096  1.00  0.00     0.000 A 
HETATM   21  C   UNL     1       7.157   8.695  91.381  1.00  0.00     0.000 A 
BRANCH  19  22
HETATM   22  C   UNL     1       4.265  10.395  89.712  1.00  0.00     0.000 C 
HETATM   23  O   UNL     1       3.270  10.036  89.088  1.00  0.00     0.000 OA
HETATM   24  N   UNL     1       4.478  11.680  90.191  1.00  0.00     0.000 N 
HETATM   25  HN  UNL     1       5.314  11.898  90.721  1.00  0.00     0.000 HD
BRANCH  24  26
HETATM   26  C   UNL     1       3.529  12.747  89.998  1.00  0.00     0.000 C 
BRANCH  26  27
HETATM   27  C   UNL     1       2.797  13.132  91.291  1.00  0.00     0.000 C 
HETATM   28  C   UNL     1       3.755  13.548  92.402  1.00  0.00     0.000 C 
BRANCH  27  29
HETATM   29  O   UNL     1       1.897  14.207  91.027  1.00  0.00     0.000 OA
HETATM   30  H   UNL     1       1.053  14.013  91.468  1.00  0.00     0.000 HD
ENDBRANCH  27  29
ENDBRANCH  26  27
BRANCH  26  31
HETATM   31  C   UNL     1       4.279  13.938  89.410  1.00  0.00     0.000 C 
HETATM   32  O   UNL     1       4.232  15.066  89.898  1.00  0.00     0.000 OA
BRANCH  31  33
HETATM   33  P   UNL     1       4.968  13.605  88.269  1.00  0.00     0.000 P 
HETATM   34  H   UNL     1       5.233  14.771  87.580  1.00  0.00     0.000 HD
BRANCH  33  35
HETATM   35  O   UNL     1       4.311  12.729  87.394  1.00  0.00     0.000 OA
HETATM   36  H   UNL     1       3.734  12.258  88.019  1.00  0.00     0.000 HD
ENDBRANCH  33  35
ENDBRANCH  31  33
ENDBRANCH  26  31
ENDBRANCH  24  26
ENDBRANCH  19  22
ENDBRANCH  15  16
ENDBRANCH  11  14
ENDBRANCH   7   8
ENDBRANCH   2   7
TORSDOF 11
ENDMDL
