MODEL 1
REMARK VINA RESULT:      -7.0      0.000      0.000
REMARK  10 active torsions:
REMARK  status: ('A' for Active; 'I' for Inactive)
REMARK    1  A    between atoms: O_2  and  C_16 
REMARK    2  A    between atoms: N_5  and  C_9 
REMARK    3  A    between atoms: N_6  and  C_13 
REMARK       I    between atoms: N_6  and  C_22 
REMARK    4  A    between atoms: C_9  and  C_12 
REMARK    5  A    between atoms: C_13  and  C_16 
REMARK    6  A    between atoms: C_13  and  C_21 
REMARK    7  A    between atoms: C_19  and  C_24 
REMARK    8  A    between atoms: C_22  and  C_23 
REMARK    9  A    between atoms: C_27  and  C_30 
REMARK   10  A    between atoms: N_33  and  S_34 
ROOT
HETATM    1  C   UNL     1       5.713  11.015  89.621  1.00  0.00     0.056 A 
HETATM    2  C   UNL     1       7.063  11.186  89.394  1.00  0.00     0.005 A 
HETATM    3  C   UNL     1       5.192   9.833  90.104  1.00  0.00     0.005 A 
HETATM    4  C   UNL     1       7.428   8.921  90.151  1.00  0.00     0.042 A 
HETATM    5  C   UNL     1       7.931  10.127  89.662  1.00  0.00     0.008 A 
HETATM    6  C   UNL     1       6.059   8.774  90.372  1.00  0.00     0.008 A 
ENDROOT
BRANCH   1   7
HETATM    7  C   UNL     1       4.790  12.144  89.337  1.00  0.00     0.254 C 
HETATM    8  O   UNL     1       4.524  12.423  88.171  1.00  0.00    -0.268 OA
HETATM    9  N   UNL     1       4.268  12.795  90.446  1.00  0.00    -0.337 N 
HETATM   10  HN  UNL     1       4.513  12.493  91.382  1.00  0.00     0.164 HD
BRANCH   9  11
HETATM   11  C   UNL     1       3.340  13.892  90.336  1.00  0.00     0.172 C 
BRANCH  11  12
HETATM   12  C   UNL     1       2.002  13.611  91.032  1.00  0.00     0.136 C 
HETATM   13  C   UNL     1       2.068  12.400  91.956  1.00  0.00     0.034 C 
BRANCH  12  14
HETATM   14  O   UNL     1       1.611  14.754  91.792  1.00  0.00    -0.383 OA
HETATM   15  H   UNL     1       1.924  14.635  92.705  1.00  0.00     0.210 HD
ENDBRANCH  12  14
ENDBRANCH  11  12
BRANCH  11  16
HETATM   16  C   UNL     1       4.015  15.133  90.912  1.00  0.00     0.398 A 
HETATM   17  O   UNL     1       5.155  15.478  90.606  1.00  0.00    -0.136 OA
HETATM   18  N   UNL     1       4.954  15.592  92.108  1.00  0.00     0.142 N 
HETATM   19  HN  UNL     1       5.875  15.925  92.061  1.00  0.00     0.338 HD
BRANCH  18  20
HETATM   20  S   UNL     1       4.177  15.132  93.166  1.00  0.00     0.076 SA
HETATM   21  H   UNL     1       3.524  14.160  92.962  1.00  0.00     0.136 HD
ENDBRANCH  18  20
ENDBRANCH  11  16
ENDBRANCH   9  11
ENDBRANCH   1   7
BRANCH   4  22
HETATM   22  C   UNL     1       8.317   7.835  90.423  1.00  0.00    -0.059 C 
HETATM   23  C   UNL     1       9.065   6.922  90.651  1.00  0.00    -0.059 C 
BRANCH  23  24
HETATM   24  C   UNL     1       9.955   5.835  90.924  1.00  0.00     0.042 A 
HETATM   25  C   UNL     1      10.543   5.136  89.871  1.00  0.00     0.008 A 
HETATM   26  C   UNL     1      11.409   4.075  90.137  1.00  0.00    -0.002 A 
HETATM   27  C   UNL     1      11.687   3.716  91.456  1.00  0.00     0.011 A 
HETATM   28  C   UNL     1      11.098   4.416  92.508  1.00  0.00    -0.002 A 
HETATM   29  C   UNL     1      10.232   5.476  92.242  1.00  0.00     0.008 A 
BRANCH  27  30
HETATM   30  C   UNL     1      12.615   2.583  91.739  1.00  0.00     0.277 C 
BRANCH  30  31
HETATM   31  N   UNL     1      13.610   2.919  92.755  1.00  0.00     0.147 N 
HETATM   32  C   UNL     1      14.447   1.753  93.069  1.00  0.00     0.283 C 
HETATM   33  C   UNL     1      15.485   2.130  94.123  1.00  0.00     0.178 C 
HETATM   34  O   UNL     1      16.293   3.214  93.660  1.00  0.00    -0.350 OA
HETATM   35  C   UNL     1      15.490   4.362  93.382  1.00  0.00     0.178 C 
HETATM   36  C   UNL     1      14.452   4.038  92.312  1.00  0.00     0.283 C 
ENDBRANCH  30  31
ENDBRANCH  27  30
ENDBRANCH  23  24
ENDBRANCH   4  22
TORSDOF 10
ENDMDL
