MODEL 1
REMARK VINA RESULT:      -6.5      0.000      0.000
REMARK  11 active torsions:
REMARK  status: ('A' for Active; 'I' for Inactive)
REMARK    1  A    between atoms: O_2  and  C_18 
REMARK    2  A    between atoms: O_5  and  P_8 
REMARK    3  A    between atoms: N_6  and  C_11 
REMARK    4  A    between atoms: N_7  and  C_15 
REMARK       I    between atoms: N_7  and  C_24 
REMARK    5  A    between atoms: P_8  and  C_23 
REMARK    6  A    between atoms: C_11  and  C_14 
REMARK    7  A    between atoms: C_15  and  C_18 
REMARK    8  A    between atoms: C_15  and  C_23 
REMARK    9  A    between atoms: C_21  and  C_26 
REMARK   10  A    between atoms: C_24  and  C_25 
REMARK   11  A    between atoms: C_29  and  C_32 
ROOT
HETATM    1  O   UNL     1      16.638   3.965  93.795  1.00  0.00     0.000 OA
HETATM    2  N   UNL     1      14.119   2.793  93.178  1.00  0.00     0.000 N 
HETATM    3  C   UNL     1      15.381   2.096  92.892  1.00  0.00     0.000 C 
HETATM    4  C   UNL     1      14.323   4.247  93.127  1.00  0.00     0.000 C 
HETATM    5  C   UNL     1      16.456   2.550  93.875  1.00  0.00     0.000 C 
HETATM    6  C   UNL     1      15.423   4.650  94.103  1.00  0.00     0.000 C 
ENDROOT
BRANCH   2   7
HETATM    7  C   UNL     1      13.076   2.381  92.241  1.00  0.00     0.000 C 
BRANCH   7   8
HETATM    8  C   UNL     1      12.126   3.486  91.926  1.00  0.00     0.000 A 
HETATM    9  C   UNL     1      12.078   4.016  90.635  1.00  0.00     0.000 A 
HETATM   10  C   UNL     1      11.191   5.051  90.340  1.00  0.00     0.000 A 
HETATM   11  C   UNL     1      10.353   5.555  91.334  1.00  0.00     0.000 A 
HETATM   12  C   UNL     1      10.401   5.027  92.622  1.00  0.00     0.000 A 
HETATM   13  C   UNL     1      11.288   3.992  92.919  1.00  0.00     0.000 A 
BRANCH  11  14
HETATM   14  C   UNL     1       9.443   6.616  91.030  1.00  0.00     0.000 C 
HETATM   15  C   UNL     1       8.678   7.508  90.775  1.00  0.00     0.000 C 
BRANCH  15  16
HETATM   16  C   UNL     1       7.768   8.569  90.471  1.00  0.00     0.000 A 
HETATM   17  C   UNL     1       6.511   8.603  91.075  1.00  0.00     0.000 A 
HETATM   18  C   UNL     1       5.625   9.639  90.781  1.00  0.00     0.000 A 
HETATM   19  C   UNL     1       6.016  10.618  89.891  1.00  0.00     0.000 A 
HETATM   20  C   UNL     1       7.253  10.607  89.281  1.00  0.00     0.000 A 
HETATM   21  C   UNL     1       8.140   9.571  89.574  1.00  0.00     0.000 A 
BRANCH  19  22
HETATM   22  C   UNL     1       5.072  11.721  89.576  1.00  0.00     0.000 C 
HETATM   23  O   UNL     1       4.714  11.891  88.413  1.00  0.00     0.000 OA
HETATM   24  N   UNL     1       4.638  12.477  90.657  1.00  0.00     0.000 N 
HETATM   25  HN  UNL     1       4.957  12.262  91.594  1.00  0.00     0.000 HD
BRANCH  24  26
HETATM   26  C   UNL     1       3.703  13.564  90.517  1.00  0.00     0.000 C 
BRANCH  26  27
HETATM   27  C   UNL     1       2.339  13.259  91.149  1.00  0.00     0.000 C 
HETATM   28  C   UNL     1       2.405  12.120  92.160  1.00  0.00     0.000 C 
BRANCH  27  29
HETATM   29  O   UNL     1       1.843  14.428  91.800  1.00  0.00     0.000 OA
HETATM   30  H   UNL     1       2.492  14.704  92.469  1.00  0.00     0.000 HD
ENDBRANCH  27  29
ENDBRANCH  26  27
BRANCH  26  31
HETATM   31  C   UNL     1       4.336  14.805  91.137  1.00  0.00     0.000 C 
HETATM   32  O   UNL     1       4.286  15.053  92.340  1.00  0.00     0.000 OA
BRANCH  31  33
HETATM   33  P   UNL     1       4.923  15.614  90.194  1.00  0.00     0.000 P 
HETATM   34  H   UNL     1       4.039  16.633  89.901  1.00  0.00     0.000 HD
BRANCH  33  35
HETATM   35  O   UNL     1       5.275  14.991  88.989  1.00  0.00     0.000 OA
HETATM   36  H   UNL     1       4.543  14.357  88.900  1.00  0.00     0.000 HD
ENDBRANCH  33  35
ENDBRANCH  31  33
ENDBRANCH  26  31
ENDBRANCH  24  26
ENDBRANCH  19  22
ENDBRANCH  15  16
ENDBRANCH  11  14
ENDBRANCH   7   8
ENDBRANCH   2   7
TORSDOF 11
ENDMDL
MODEL 2
REMARK VINA RESULT:      -6.4      1.243      1.932
REMARK  11 active torsions:
REMARK  status: ('A' for Active; 'I' for Inactive)
REMARK    1  A    between atoms: O_2  and  C_18 
REMARK    2  A    between atoms: O_5  and  P_8 
REMARK    3  A    between atoms: N_6  and  C_11 
REMARK    4  A    between atoms: N_7  and  C_15 
REMARK       I    between atoms: N_7  and  C_24 
REMARK    5  A    between atoms: P_8  and  C_23 
REMARK    6  A    between atoms: C_11  and  C_14 
REMARK    7  A    between atoms: C_15  and  C_18 
REMARK    8  A    between atoms: C_15  and  C_23 
REMARK    9  A    between atoms: C_21  and  C_26 
REMARK   10  A    between atoms: C_24  and  C_25 
REMARK   11  A    between atoms: C_29  and  C_32 
ROOT
HETATM    1  O   UNL     1      16.142   4.546  93.750  1.00  0.00     0.000 OA
HETATM    2  N   UNL     1      14.383   2.691  92.501  1.00  0.00     0.000 N 
HETATM    3  C   UNL     1      14.402   4.109  92.116  1.00  0.00     0.000 C 
HETATM    4  C   UNL     1      14.781   2.545  93.907  1.00  0.00     0.000 C 
HETATM    5  C   UNL     1      15.787   4.695  92.374  1.00  0.00     0.000 C 
HETATM    6  C   UNL     1      16.156   3.168  94.123  1.00  0.00     0.000 C 
ENDROOT
BRANCH   2   7
HETATM    7  C   UNL     1      13.060   2.110  92.272  1.00  0.00     0.000 C 
BRANCH   7   8
HETATM    8  C   UNL     1      12.017   3.149  92.039  1.00  0.00     0.000 A 
HETATM    9  C   UNL     1      11.638   4.001  93.077  1.00  0.00     0.000 A 
HETATM   10  C   UNL     1      10.660   4.972  92.860  1.00  0.00     0.000 A 
HETATM   11  C   UNL     1      10.063   5.091  91.605  1.00  0.00     0.000 A 
HETATM   12  C   UNL     1      10.441   4.241  90.568  1.00  0.00     0.000 A 
HETATM   13  C   UNL     1      11.419   3.270  90.784  1.00  0.00     0.000 A 
BRANCH  11  14
HETATM   14  C   UNL     1       9.062   6.088  91.382  1.00  0.00     0.000 C 
HETATM   15  C   UNL     1       8.220   6.926  91.195  1.00  0.00     0.000 C 
BRANCH  15  16
HETATM   16  C   UNL     1       7.219   7.922  90.973  1.00  0.00     0.000 A 
HETATM   17  C   UNL     1       6.857   8.268  89.671  1.00  0.00     0.000 A 
HETATM   18  C   UNL     1       5.878   9.238  89.454  1.00  0.00     0.000 A 
HETATM   19  C   UNL     1       5.283   9.839  90.544  1.00  0.00     0.000 A 
HETATM   20  C   UNL     1       5.623   9.514  91.840  1.00  0.00     0.000 A 
HETATM   21  C   UNL     1       6.601   8.545  92.058  1.00  0.00     0.000 A 
BRANCH  19  22
HETATM   22  C   UNL     1       4.241  10.873  90.313  1.00  0.00     0.000 C 
HETATM   23  O   UNL     1       3.071  10.525  90.172  1.00  0.00     0.000 OA
HETATM   24  N   UNL     1       4.684  12.188  90.298  1.00  0.00     0.000 N 
HETATM   25  HN  UNL     1       5.663  12.402  90.446  1.00  0.00     0.000 HD
BRANCH  24  26
HETATM   26  C   UNL     1       3.792  13.305  90.110  1.00  0.00     0.000 C 
BRANCH  26  27
HETATM   27  C   UNL     1       3.304  13.904  91.434  1.00  0.00     0.000 C 
HETATM   28  C   UNL     1       1.888  13.461  91.788  1.00  0.00     0.000 C 
BRANCH  27  29
HETATM   29  O   UNL     1       4.187  13.518  92.487  1.00  0.00     0.000 OA
HETATM   30  H   UNL     1       4.767  14.272  92.689  1.00  0.00     0.000 HD
ENDBRANCH  27  29
ENDBRANCH  26  27
BRANCH  26  31
HETATM   31  C   UNL     1       4.520  14.345  89.265  1.00  0.00     0.000 C 
HETATM   32  O   UNL     1       4.531  15.543  89.542  1.00  0.00     0.000 OA
BRANCH  31  33
HETATM   33  P   UNL     1       5.117  13.791  88.159  1.00  0.00     0.000 P 
HETATM   34  H   UNL     1       5.442  14.817  87.295  1.00  0.00     0.000 HD
BRANCH  33  35
HETATM   35  O   UNL     1       4.343  12.862  87.450  1.00  0.00     0.000 OA
HETATM   36  H   UNL     1       4.040  12.294  88.179  1.00  0.00     0.000 HD
ENDBRANCH  33  35
ENDBRANCH  31  33
ENDBRANCH  26  31
ENDBRANCH  24  26
ENDBRANCH  19  22
ENDBRANCH  15  16
ENDBRANCH  11  14
ENDBRANCH   7   8
ENDBRANCH   2   7
TORSDOF 11
ENDMDL
MODEL 3
REMARK VINA RESULT:      -6.4      1.782      2.800
REMARK  11 active torsions:
REMARK  status: ('A' for Active; 'I' for Inactive)
REMARK    1  A    between atoms: O_2  and  C_18 
REMARK    2  A    between atoms: O_5  and  P_8 
REMARK    3  A    between atoms: N_6  and  C_11 
REMARK    4  A    between atoms: N_7  and  C_15 
REMARK       I    between atoms: N_7  and  C_24 
REMARK    5  A    between atoms: P_8  and  C_23 
REMARK    6  A    between atoms: C_11  and  C_14 
REMARK    7  A    between atoms: C_15  and  C_18 
REMARK    8  A    between atoms: C_15  and  C_23 
REMARK    9  A    between atoms: C_21  and  C_26 
REMARK   10  A    between atoms: C_24  and  C_25 
REMARK   11  A    between atoms: C_29  and  C_32 
ROOT
HETATM    1  O   UNL     1      16.184   4.092  93.994  1.00  0.00     0.000 OA
HETATM    2  N   UNL     1      14.211   2.680  92.505  1.00  0.00     0.000 N 
HETATM    3  C   UNL     1      14.380   4.133  92.371  1.00  0.00     0.000 C 
HETATM    4  C   UNL     1      14.613   2.249  93.851  1.00  0.00     0.000 C 
HETATM    5  C   UNL     1      15.826   4.516  92.678  1.00  0.00     0.000 C 
HETATM    6  C   UNL     1      16.052   2.676  94.124  1.00  0.00     0.000 C 
ENDROOT
BRANCH   2   7
HETATM    7  C   UNL     1      12.830   2.291  92.226  1.00  0.00     0.000 C 
BRANCH   7   8
HETATM    8  C   UNL     1      11.890   3.447  92.293  1.00  0.00     0.000 A 
HETATM    9  C   UNL     1      11.638   4.069  93.516  1.00  0.00     0.000 A 
HETATM   10  C   UNL     1      10.757   5.149  93.580  1.00  0.00     0.000 A 
HETATM   11  C   UNL     1      10.132   5.607  92.421  1.00  0.00     0.000 A 
HETATM   12  C   UNL     1      10.384   4.987  91.199  1.00  0.00     0.000 A 
HETATM   13  C   UNL     1      11.263   3.907  91.134  1.00  0.00     0.000 A 
BRANCH  11  14
HETATM   14  C   UNL     1       9.230   6.717  92.486  1.00  0.00     0.000 C 
HETATM   15  C   UNL     1       8.474   7.649  92.541  1.00  0.00     0.000 C 
BRANCH  15  16
HETATM   16  C   UNL     1       7.573   8.758  92.606  1.00  0.00     0.000 A 
HETATM   17  C   UNL     1       7.528   9.552  93.752  1.00  0.00     0.000 A 
HETATM   18  C   UNL     1       6.651  10.635  93.814  1.00  0.00     0.000 A 
HETATM   19  C   UNL     1       5.841  10.900  92.729  1.00  0.00     0.000 A 
HETATM   20  C   UNL     1       5.866  10.129  91.586  1.00  0.00     0.000 A 
HETATM   21  C   UNL     1       6.743   9.046  91.523  1.00  0.00     0.000 A 
BRANCH  19  22
HETATM   22  C   UNL     1       4.905  12.053  92.797  1.00  0.00     0.000 C 
HETATM   23  O   UNL     1       4.718  12.611  93.875  1.00  0.00     0.000 OA
HETATM   24  N   UNL     1       4.321  12.432  91.596  1.00  0.00     0.000 N 
HETATM   25  HN  UNL     1       4.543  11.939  90.739  1.00  0.00     0.000 HD
BRANCH  24  26
HETATM   26  C   UNL     1       3.412  13.545  91.494  1.00  0.00     0.000 C 
BRANCH  26  27
HETATM   27  C   UNL     1       3.367  14.148  90.084  1.00  0.00     0.000 C 
HETATM   28  C   UNL     1       4.726  14.667  89.628  1.00  0.00     0.000 C 
BRANCH  27  29
HETATM   29  O   UNL     1       2.913  13.162  89.158  1.00  0.00     0.000 OA
HETATM   30  H   UNL     1       3.467  12.370  89.260  1.00  0.00     0.000 HD
ENDBRANCH  27  29
ENDBRANCH  26  27
BRANCH  26  31
HETATM   31  C   UNL     1       2.034  13.063  91.935  1.00  0.00     0.000 C 
HETATM   32  O   UNL     1       1.639  11.912  91.757  1.00  0.00     0.000 OA
BRANCH  31  33
HETATM   33  P   UNL     1       1.291  14.067  92.507  1.00  0.00     0.000 P 
HETATM   34  H   UNL     1       0.890  14.923  91.501  1.00  0.00     0.000 HD
BRANCH  33  35
HETATM   35  O   UNL     1       1.946  14.830  93.484  1.00  0.00     0.000 OA
HETATM   36  H   UNL     1       1.289  14.797  94.200  1.00  0.00     0.000 HD
ENDBRANCH  33  35
ENDBRANCH  31  33
ENDBRANCH  26  31
ENDBRANCH  24  26
ENDBRANCH  19  22
ENDBRANCH  15  16
ENDBRANCH  11  14
ENDBRANCH   7   8
ENDBRANCH   2   7
TORSDOF 11
ENDMDL
MODEL 4
REMARK VINA RESULT:      -4.5      3.727     12.623
REMARK  11 active torsions:
REMARK  status: ('A' for Active; 'I' for Inactive)
REMARK    1  A    between atoms: O_2  and  C_18 
REMARK    2  A    between atoms: O_5  and  P_8 
REMARK    3  A    between atoms: N_6  and  C_11 
REMARK    4  A    between atoms: N_7  and  C_15 
REMARK       I    between atoms: N_7  and  C_24 
REMARK    5  A    between atoms: P_8  and  C_23 
REMARK    6  A    between atoms: C_11  and  C_14 
REMARK    7  A    between atoms: C_15  and  C_18 
REMARK    8  A    between atoms: C_15  and  C_23 
REMARK    9  A    between atoms: C_21  and  C_26 
REMARK   10  A    between atoms: C_24  and  C_25 
REMARK   11  A    between atoms: C_29  and  C_32 
ROOT
HETATM    1  O   UNL     1       4.351  14.756  89.803  1.00  0.00     0.000 OA
HETATM    2  N   UNL     1       3.115  13.836  92.196  1.00  0.00     0.000 N 
HETATM    3  C   UNL     1       4.379  14.585  92.224  1.00  0.00     0.000 C 
HETATM    4  C   UNL     1       2.998  13.091  90.935  1.00  0.00     0.000 C 
HETATM    5  C   UNL     1       4.459  15.510  91.012  1.00  0.00     0.000 C 
HETATM    6  C   UNL     1       3.111  14.050  89.754  1.00  0.00     0.000 C 
ENDROOT
BRANCH   2   7
HETATM    7  C   UNL     1       3.021  12.935  93.343  1.00  0.00     0.000 C 
BRANCH   7   8
HETATM    8  C   UNL     1       4.039  11.847  93.295  1.00  0.00     0.000 A 
HETATM    9  C   UNL     1       5.258  12.004  93.957  1.00  0.00     0.000 A 
HETATM   10  C   UNL     1       6.212  10.988  93.911  1.00  0.00     0.000 A 
HETATM   11  C   UNL     1       5.946   9.815  93.205  1.00  0.00     0.000 A 
HETATM   12  C   UNL     1       4.730   9.657  92.544  1.00  0.00     0.000 A 
HETATM   13  C   UNL     1       3.776  10.673  92.589  1.00  0.00     0.000 A 
BRANCH  11  14
HETATM   14  C   UNL     1       6.925   8.772  93.160  1.00  0.00     0.000 C 
HETATM   15  C   UNL     1       7.746   7.895  93.122  1.00  0.00     0.000 C 
BRANCH  15  16
HETATM   16  C   UNL     1       8.723   6.852  93.077  1.00  0.00     0.000 A 
HETATM   17  C   UNL     1       9.817   6.884  93.942  1.00  0.00     0.000 A 
HETATM   18  C   UNL     1      10.769   5.865  93.900  1.00  0.00     0.000 A 
HETATM   19  C   UNL     1      10.604   4.837  92.995  1.00  0.00     0.000 A 
HETATM   20  C   UNL     1       9.532   4.782  92.130  1.00  0.00     0.000 A 
HETATM   21  C   UNL     1       8.580   5.801  92.171  1.00  0.00     0.000 A 
BRANCH  19  22
HETATM   22  C   UNL     1      11.619   3.753  92.949  1.00  0.00     0.000 C 
HETATM   23  O   UNL     1      11.273   2.621  92.620  1.00  0.00     0.000 OA
HETATM   24  N   UNL     1      12.919   4.122  93.268  1.00  0.00     0.000 N 
HETATM   25  HN  UNL     1      13.135   5.083  93.507  1.00  0.00     0.000 HD
BRANCH  24  26
HETATM   26  C   UNL     1      14.017   3.190  93.246  1.00  0.00     0.000 C 
BRANCH  26  27
HETATM   27  C   UNL     1      14.261   2.593  91.854  1.00  0.00     0.000 C 
HETATM   28  C   UNL     1      14.358   3.661  90.770  1.00  0.00     0.000 C 
BRANCH  27  29
HETATM   29  O   UNL     1      15.469   1.833  91.865  1.00  0.00     0.000 OA
HETATM   30  H   UNL     1      15.277   0.950  91.507  1.00  0.00     0.000 HD
ENDBRANCH  27  29
ENDBRANCH  26  27
BRANCH  26  31
HETATM   31  C   UNL     1      15.255   3.916  93.762  1.00  0.00     0.000 C 
HETATM   32  O   UNL     1      15.341   5.142  93.809  1.00  0.00     0.000 OA
BRANCH  31  33
HETATM   33  P   UNL     1      16.255   3.046  94.123  1.00  0.00     0.000 P 
HETATM   34  H   UNL     1      16.562   3.281  95.448  1.00  0.00     0.000 HD
BRANCH  33  35
HETATM   35  O   UNL     1      17.442   3.141  93.384  1.00  0.00     0.000 OA
HETATM   36  H   UNL     1      17.973   2.451  93.817  1.00  0.00     0.000 HD
ENDBRANCH  33  35
ENDBRANCH  31  33
ENDBRANCH  26  31
ENDBRANCH  24  26
ENDBRANCH  19  22
ENDBRANCH  15  16
ENDBRANCH  11  14
ENDBRANCH   7   8
ENDBRANCH   2   7
TORSDOF 11
ENDMDL
MODEL 5
REMARK VINA RESULT:      -3.7      1.602      1.866
REMARK  11 active torsions:
REMARK  status: ('A' for Active; 'I' for Inactive)
REMARK    1  A    between atoms: O_2  and  C_18 
REMARK    2  A    between atoms: O_5  and  P_8 
REMARK    3  A    between atoms: N_6  and  C_11 
REMARK    4  A    between atoms: N_7  and  C_15 
REMARK       I    between atoms: N_7  and  C_24 
REMARK    5  A    between atoms: P_8  and  C_23 
REMARK    6  A    between atoms: C_11  and  C_14 
REMARK    7  A    between atoms: C_15  and  C_18 
REMARK    8  A    between atoms: C_15  and  C_23 
REMARK    9  A    between atoms: C_21  and  C_26 
REMARK   10  A    between atoms: C_24  and  C_25 
REMARK   11  A    between atoms: C_29  and  C_32 
ROOT
HETATM    1  O   UNL     1      16.088   3.915  92.074  1.00  0.00     0.000 OA
HETATM    2  N   UNL     1      14.038   2.653  93.592  1.00  0.00     0.000 N 
HETATM    3  C   UNL     1      14.714   1.958  92.487  1.00  0.00     0.000 C 
HETATM    4  C   UNL     1      14.032   4.101  93.347  1.00  0.00     0.000 C 
HETATM    5  C   UNL     1      16.128   2.508  92.318  1.00  0.00     0.000 C 
HETATM    6  C   UNL     1      15.460   4.601  93.158  1.00  0.00     0.000 C 
ENDROOT
BRANCH   2   7
HETATM    7  C   UNL     1      12.677   2.148  93.764  1.00  0.00     0.000 C 
BRANCH   7   8
HETATM    8  C   UNL     1      11.646   3.145  93.356  1.00  0.00     0.000 A 
HETATM    9  C   UNL     1      10.890   2.931  92.202  1.00  0.00     0.000 A 
HETATM   10  C   UNL     1       9.927   3.864  91.818  1.00  0.00     0.000 A 
HETATM   11  C   UNL     1       9.719   5.008  92.587  1.00  0.00     0.000 A 
HETATM   12  C   UNL     1      10.473   5.222  93.739  1.00  0.00     0.000 A 
HETATM   13  C   UNL     1      11.437   4.290  94.124  1.00  0.00     0.000 A 
BRANCH  11  14
HETATM   14  C   UNL     1       8.729   5.964  92.194  1.00  0.00     0.000 C 
HETATM   15  C   UNL     1       7.898   6.767  91.863  1.00  0.00     0.000 C 
BRANCH  15  16
HETATM   16  C   UNL     1       6.910   7.722  91.469  1.00  0.00     0.000 A 
HETATM   17  C   UNL     1       6.989   9.037  91.931  1.00  0.00     0.000 A 
HETATM   18  C   UNL     1       6.026   9.969  91.544  1.00  0.00     0.000 A 
HETATM   19  C   UNL     1       5.008   9.567  90.706  1.00  0.00     0.000 A 
HETATM   20  C   UNL     1       4.908   8.274  90.236  1.00  0.00     0.000 A 
HETATM   21  C   UNL     1       5.870   7.341  90.622  1.00  0.00     0.000 A 
BRANCH  19  22
HETATM   22  C   UNL     1       3.982  10.560  90.296  1.00  0.00     0.000 C 
HETATM   23  O   UNL     1       2.852  10.172  90.010  1.00  0.00     0.000 OA
HETATM   24  N   UNL     1       4.387  11.888  90.292  1.00  0.00     0.000 N 
HETATM   25  HN  UNL     1       5.331  12.136  90.564  1.00  0.00     0.000 HD
BRANCH  24  26
HETATM   26  C   UNL     1       3.501  12.969  89.942  1.00  0.00     0.000 C 
BRANCH  26  27
HETATM   27  C   UNL     1       2.742  13.529  91.151  1.00  0.00     0.000 C 
HETATM   28  C   UNL     1       3.675  14.103  92.211  1.00  0.00     0.000 C 
BRANCH  27  29
HETATM   29  O   UNL     1       1.846  14.552  90.719  1.00  0.00     0.000 OA
HETATM   30  H   UNL     1       2.360  15.228  90.245  1.00  0.00     0.000 HD
ENDBRANCH  27  29
ENDBRANCH  26  27
BRANCH  26  31
HETATM   31  C   UNL     1       4.332  14.050  89.259  1.00  0.00     0.000 C 
HETATM   32  O   UNL     1       4.203  15.248  89.503  1.00  0.00     0.000 OA
BRANCH  31  33
HETATM   33  P   UNL     1       5.199  13.529  88.329  1.00  0.00     0.000 P 
HETATM   34  H   UNL     1       5.883  14.580  87.752  1.00  0.00     0.000 HD
BRANCH  33  35
HETATM   35  O   UNL     1       4.610  12.783  87.298  1.00  0.00     0.000 OA
HETATM   36  H   UNL     1       5.378  12.653  86.716  1.00  0.00     0.000 HD
ENDBRANCH  33  35
ENDBRANCH  31  33
ENDBRANCH  26  31
ENDBRANCH  24  26
ENDBRANCH  19  22
ENDBRANCH  15  16
ENDBRANCH  11  14
ENDBRANCH   7   8
ENDBRANCH   2   7
TORSDOF 11
ENDMDL
