MODEL 1
REMARK VINA RESULT:      -6.6      0.000      0.000
REMARK  14 active torsions:
REMARK  status: ('A' for Active; 'I' for Inactive)
REMARK    1  A    between atoms: O_2  and  C_18 
REMARK    2  A    between atoms: C_5  and  C_8 
REMARK    3  A    between atoms: C_5  and  O_35 
REMARK    4  A    between atoms: C_5  and  C_36 
REMARK    5  A    between atoms: N_6  and  C_11 
REMARK    6  A    between atoms: N_7  and  C_15 
REMARK       I    between atoms: N_7  and  C_24 
REMARK    7  A    between atoms: C_8  and  C_23 
REMARK    8  A    between atoms: C_11  and  C_14 
REMARK    9  A    between atoms: C_15  and  C_18 
REMARK   10  A    between atoms: C_15  and  C_23 
REMARK   11  A    between atoms: C_21  and  C_26 
REMARK   12  A    between atoms: C_24  and  C_25 
REMARK   13  A    between atoms: C_29  and  C_32 
REMARK   14  A    between atoms: C_36  and  O_39 
ROOT
HETATM    1  O   UNL     1      16.737   3.476  93.907  1.00  0.00    -0.350 OA
HETATM    2  N   UNL     1      14.184   2.992  92.744  1.00  0.00     0.147 N 
HETATM    3  C   UNL     1      15.158   1.908  92.938  1.00  0.00     0.283 C 
HETATM    4  C   UNL     1      14.885   4.270  92.557  1.00  0.00     0.283 C 
HETATM    5  C   UNL     1      16.065   2.234  94.122  1.00  0.00     0.178 C 
HETATM    6  C   UNL     1      15.798   4.540  93.748  1.00  0.00     0.178 C 
ENDROOT
BRANCH   2   7
HETATM    7  C   UNL     1      13.311   2.706  91.607  1.00  0.00     0.277 C 
BRANCH   7   8
HETATM    8  C   UNL     1      12.139   3.625  91.546  1.00  0.00     0.011 A 
HETATM    9  C   UNL     1      11.351   3.825  92.680  1.00  0.00    -0.002 A 
HETATM   10  C   UNL     1      10.253   4.683  92.624  1.00  0.00     0.008 A 
HETATM   11  C   UNL     1       9.944   5.342  91.434  1.00  0.00     0.042 A 
HETATM   12  C   UNL     1      10.730   5.143  90.301  1.00  0.00     0.008 A 
HETATM   13  C   UNL     1      11.828   4.285  90.357  1.00  0.00    -0.002 A 
BRANCH  11  14
HETATM   14  C   UNL     1       8.819   6.223  91.377  1.00  0.00    -0.059 C 
HETATM   15  C   UNL     1       7.873   6.965  91.329  1.00  0.00    -0.059 C 
BRANCH  15  16
HETATM   16  C   UNL     1       6.749   7.846  91.272  1.00  0.00     0.042 A 
HETATM   17  C   UNL     1       5.701   7.582  90.390  1.00  0.00     0.008 A 
HETATM   18  C   UNL     1       4.604   8.441  90.336  1.00  0.00     0.005 A 
HETATM   19  C   UNL     1       4.578   9.543  91.165  1.00  0.00     0.056 A 
HETATM   20  C   UNL     1       5.601   9.826  92.045  1.00  0.00     0.005 A 
HETATM   21  C   UNL     1       6.700   8.968  92.100  1.00  0.00     0.008 A 
BRANCH  19  22
HETATM   22  C   UNL     1       3.409  10.459  91.106  1.00  0.00     0.254 C 
HETATM   23  O   UNL     1       2.388  10.091  90.531  1.00  0.00    -0.268 OA
HETATM   24  N   UNL     1       3.562  11.682  91.744  1.00  0.00    -0.335 N 
HETATM   25  HN  UNL     1       4.427  11.907  92.220  1.00  0.00     0.164 HD
BRANCH  24  26
HETATM   26  C   UNL     1       2.511  12.666  91.795  1.00  0.00     0.169 C 
BRANCH  26  27
HETATM   27  C   UNL     1       2.343  13.283  93.189  1.00  0.00     0.138 C 
HETATM   28  C   UNL     1       3.535  13.006  94.098  1.00  0.00     0.034 C 
BRANCH  27  29
HETATM   29  O   UNL     1       2.170  14.695  93.069  1.00  0.00    -0.383 OA
HETATM   30  H   UNL     1       3.024  15.123  93.248  1.00  0.00     0.210 HD
ENDBRANCH  27  29
ENDBRANCH  26  27
BRANCH  26  31
HETATM   31  C   UNL     1       2.822  13.734  90.751  1.00  0.00     0.194 C 
HETATM   32  O   UNL     1       1.962  14.465  90.264  1.00  0.00    -0.289 OA
BRANCH  31  33
HETATM   33  C   UNL     1       4.151  13.747  90.402  1.00  0.00     0.053 C 
BRANCH  33  34
HETATM   34  C   UNL     1       4.444  14.279  89.138  1.00  0.00     0.220 C 
BRANCH  34  35
HETATM   35  O   UNL     1       5.287  15.183  89.292  1.00  0.00    -0.371 OA
HETATM   36  H   UNL     1       5.860  14.954  88.576  1.00  0.00     0.211 HD
ENDBRANCH  34  35
BRANCH  34  37
HETATM   37  C   UNL     1       4.862  13.312  88.207  1.00  0.00     0.185 C 
HETATM   38  O   UNL     1       5.785  13.061  89.123  1.00  0.00    -0.647 OA
BRANCH  37  39
HETATM   39  O   UNL     1       4.543  12.957  87.113  1.00  0.00    -0.774 OA
HETATM   40  H   UNL     1       4.007  13.781  86.546  1.00  0.00     0.167 HD
ENDBRANCH  37  39
ENDBRANCH  34  37
ENDBRANCH  33  34
ENDBRANCH  31  33
ENDBRANCH  26  31
ENDBRANCH  24  26
ENDBRANCH  19  22
ENDBRANCH  15  16
ENDBRANCH  11  14
ENDBRANCH   7   8
ENDBRANCH   2   7
TORSDOF 14
ENDMDL
MODEL 2
REMARK VINA RESULT:      -5.3      1.432      1.803
REMARK  14 active torsions:
REMARK  status: ('A' for Active; 'I' for Inactive)
REMARK    1  A    between atoms: O_2  and  C_18 
REMARK    2  A    between atoms: C_5  and  C_8 
REMARK    3  A    between atoms: C_5  and  O_35 
REMARK    4  A    between atoms: C_5  and  C_36 
REMARK    5  A    between atoms: N_6  and  C_11 
REMARK    6  A    between atoms: N_7  and  C_15 
REMARK       I    between atoms: N_7  and  C_24 
REMARK    7  A    between atoms: C_8  and  C_23 
REMARK    8  A    between atoms: C_11  and  C_14 
REMARK    9  A    between atoms: C_15  and  C_18 
REMARK   10  A    between atoms: C_15  and  C_23 
REMARK   11  A    between atoms: C_21  and  C_26 
REMARK   12  A    between atoms: C_24  and  C_25 
REMARK   13  A    between atoms: C_29  and  C_32 
REMARK   14  A    between atoms: C_36  and  O_39 
ROOT
HETATM    1  O   UNL     1      17.273   4.231  93.618  1.00  0.00    -0.350 OA
HETATM    2  N   UNL     1      14.737   2.942  93.690  1.00  0.00     0.147 N 
HETATM    3  C   UNL     1      15.936   2.250  93.196  1.00  0.00     0.283 C 
HETATM    4  C   UNL     1      14.858   4.388  93.458  1.00  0.00     0.283 C 
HETATM    5  C   UNL     1      17.179   2.828  93.868  1.00  0.00     0.178 C 
HETATM    6  C   UNL     1      16.125   4.915  94.122  1.00  0.00     0.178 C 
ENDROOT
BRANCH   2   7
HETATM    7  C   UNL     1      13.533   2.412  93.051  1.00  0.00     0.277 C 
BRANCH   7   8
HETATM    8  C   UNL     1      12.442   3.424  92.968  1.00  0.00     0.011 A 
HETATM    9  C   UNL     1      11.997   4.066  94.124  1.00  0.00    -0.002 A 
HETATM   10  C   UNL     1      10.975   5.011  94.047  1.00  0.00     0.008 A 
HETATM   11  C   UNL     1      10.399   5.315  92.814  1.00  0.00     0.042 A 
HETATM   12  C   UNL     1      10.843   4.675  91.659  1.00  0.00     0.008 A 
HETATM   13  C   UNL     1      11.865   3.729  91.735  1.00  0.00    -0.002 A 
BRANCH  11  14
HETATM   14  C   UNL     1       9.351   6.287  92.735  1.00  0.00    -0.059 C 
HETATM   15  C   UNL     1       8.472   7.104  92.668  1.00  0.00    -0.059 C 
BRANCH  15  16
HETATM   16  C   UNL     1       7.425   8.074  92.588  1.00  0.00     0.042 A 
HETATM   17  C   UNL     1       6.132   7.678  92.246  1.00  0.00     0.008 A 
HETATM   18  C   UNL     1       5.111   8.625  92.171  1.00  0.00     0.005 A 
HETATM   19  C   UNL     1       5.404   9.945  92.440  1.00  0.00     0.056 A 
HETATM   20  C   UNL     1       6.674  10.362  92.780  1.00  0.00     0.005 A 
HETATM   21  C   UNL     1       7.697   9.416  92.855  1.00  0.00     0.008 A 
BRANCH  19  22
HETATM   22  C   UNL     1       4.316  10.954  92.358  1.00  0.00     0.254 C 
HETATM   23  O   UNL     1       3.315  10.814  93.057  1.00  0.00    -0.268 OA
HETATM   24  N   UNL     1       4.535  12.015  91.490  1.00  0.00    -0.335 N 
HETATM   25  HN  UNL     1       5.398  12.077  90.963  1.00  0.00     0.164 HD
BRANCH  24  26
HETATM   26  C   UNL     1       3.585  13.085  91.319  1.00  0.00     0.169 C 
BRANCH  26  27
HETATM   27  C   UNL     1       3.733  14.185  92.377  1.00  0.00     0.138 C 
HETATM   28  C   UNL     1       2.393  14.611  92.967  1.00  0.00     0.034 C 
BRANCH  27  29
HETATM   29  O   UNL     1       4.577  13.723  93.431  1.00  0.00    -0.383 OA
HETATM   30  H   UNL     1       4.015  13.464  94.181  1.00  0.00     0.210 HD
ENDBRANCH  27  29
ENDBRANCH  26  27
BRANCH  26  31
HETATM   31  C   UNL     1       3.762  13.643  89.910  1.00  0.00     0.194 C 
HETATM   32  O   UNL     1       4.306  14.721  89.681  1.00  0.00    -0.289 OA
BRANCH  31  33
HETATM   33  C   UNL     1       3.212  12.823  88.955  1.00  0.00     0.053 C 
BRANCH  33  34
HETATM   34  C   UNL     1       4.122  12.201  88.088  1.00  0.00     0.220 C 
BRANCH  34  35
HETATM   35  O   UNL     1       4.557  13.067  87.307  1.00  0.00    -0.371 OA
HETATM   36  H   UNL     1       3.736  13.309  86.907  1.00  0.00     0.211 HD
ENDBRANCH  34  35
BRANCH  34  37
HETATM   37  C   UNL     1       5.154  11.518  88.756  1.00  0.00     0.185 C 
HETATM   38  O   UNL     1       4.271  10.531  88.774  1.00  0.00    -0.647 OA
BRANCH  37  39
HETATM   39  O   UNL     1       6.256  11.764  89.143  1.00  0.00    -0.774 OA
HETATM   40  H   UNL     1       6.684  12.683  88.633  1.00  0.00     0.167 HD
ENDBRANCH  37  39
ENDBRANCH  34  37
ENDBRANCH  33  34
ENDBRANCH  31  33
ENDBRANCH  26  31
ENDBRANCH  24  26
ENDBRANCH  19  22
ENDBRANCH  15  16
ENDBRANCH  11  14
ENDBRANCH   7   8
ENDBRANCH   2   7
TORSDOF 14
ENDMDL
MODEL 3
REMARK VINA RESULT:      -4.9      1.544      3.139
REMARK  14 active torsions:
REMARK  status: ('A' for Active; 'I' for Inactive)
REMARK    1  A    between atoms: O_2  and  C_18 
REMARK    2  A    between atoms: C_5  and  C_8 
REMARK    3  A    between atoms: C_5  and  O_35 
REMARK    4  A    between atoms: C_5  and  C_36 
REMARK    5  A    between atoms: N_6  and  C_11 
REMARK    6  A    between atoms: N_7  and  C_15 
REMARK       I    between atoms: N_7  and  C_24 
REMARK    7  A    between atoms: C_8  and  C_23 
REMARK    8  A    between atoms: C_11  and  C_14 
REMARK    9  A    between atoms: C_15  and  C_18 
REMARK   10  A    between atoms: C_15  and  C_23 
REMARK   11  A    between atoms: C_21  and  C_26 
REMARK   12  A    between atoms: C_24  and  C_25 
REMARK   13  A    between atoms: C_29  and  C_32 
REMARK   14  A    between atoms: C_36  and  O_39 
ROOT
HETATM    1  O   UNL     1      16.228   3.335  94.124  1.00  0.00    -0.350 OA
HETATM    2  N   UNL     1      14.110   2.491  92.420  1.00  0.00     0.147 N 
HETATM    3  C   UNL     1      14.249   3.893  92.835  1.00  0.00     0.283 C 
HETATM    4  C   UNL     1      14.668   1.603  93.450  1.00  0.00     0.283 C 
HETATM    5  C   UNL     1      15.716   4.207  93.115  1.00  0.00     0.178 C 
HETATM    6  C   UNL     1      16.125   1.970  93.715  1.00  0.00     0.178 C 
ENDROOT
BRANCH   2   7
HETATM    7  C   UNL     1      12.709   2.165  92.157  1.00  0.00     0.277 C 
BRANCH   7   8
HETATM    8  C   UNL     1      11.893   3.374  91.850  1.00  0.00     0.011 A 
HETATM    9  C   UNL     1      11.646   3.728  90.523  1.00  0.00    -0.002 A 
HETATM   10  C   UNL     1      10.884   4.861  90.234  1.00  0.00     0.008 A 
HETATM   11  C   UNL     1      10.368   5.636  91.272  1.00  0.00     0.042 A 
HETATM   12  C   UNL     1      10.614   5.283  92.597  1.00  0.00     0.008 A 
HETATM   13  C   UNL     1      11.376   4.152  92.886  1.00  0.00    -0.002 A 
BRANCH  11  14
HETATM   14  C   UNL     1       9.585   6.796  90.975  1.00  0.00    -0.059 C 
HETATM   15  C   UNL     1       8.928   7.772  90.726  1.00  0.00    -0.059 C 
BRANCH  15  16
HETATM   16  C   UNL     1       8.146   8.931  90.429  1.00  0.00     0.042 A 
HETATM   17  C   UNL     1       7.014   9.222  91.191  1.00  0.00     0.008 A 
HETATM   18  C   UNL     1       6.253  10.355  90.903  1.00  0.00     0.005 A 
HETATM   19  C   UNL     1       6.641  11.171  89.861  1.00  0.00     0.056 A 
HETATM   20  C   UNL     1       7.755  10.905  89.092  1.00  0.00     0.005 A 
HETATM   21  C   UNL     1       8.516   9.772  89.380  1.00  0.00     0.008 A 
BRANCH  19  22
HETATM   22  C   UNL     1       5.829  12.377  89.553  1.00  0.00     0.254 C 
HETATM   23  O   UNL     1       5.828  12.823  88.409  1.00  0.00    -0.268 OA
HETATM   24  N   UNL     1       5.096  12.902  90.609  1.00  0.00    -0.335 N 
HETATM   25  HN  UNL     1       5.126  12.464  91.522  1.00  0.00     0.164 HD
BRANCH  24  26
HETATM   26  C   UNL     1       4.242  14.053  90.463  1.00  0.00     0.169 C 
BRANCH  26  27
HETATM   27  C   UNL     1       3.033  13.785  89.558  1.00  0.00     0.138 C 
HETATM   28  C   UNL     1       2.837  12.301  89.271  1.00  0.00     0.034 C 
BRANCH  27  29
HETATM   29  O   UNL     1       1.852  14.298  90.174  1.00  0.00    -0.383 OA
HETATM   30  H   UNL     1       1.138  14.295  89.515  1.00  0.00     0.210 HD
ENDBRANCH  27  29
ENDBRANCH  26  27
BRANCH  26  31
HETATM   31  C   UNL     1       3.805  14.489  91.858  1.00  0.00     0.194 C 
HETATM   32  O   UNL     1       3.404  15.624  92.110  1.00  0.00    -0.289 OA
BRANCH  31  33
HETATM   33  C   UNL     1       3.950  13.485  92.784  1.00  0.00     0.053 C 
BRANCH  33  34
HETATM   34  C   UNL     1       2.767  12.847  93.183  1.00  0.00     0.220 C 
BRANCH  34  35
HETATM   35  O   UNL     1       1.829  13.651  93.021  1.00  0.00    -0.371 OA
HETATM   36  H   UNL     1       2.303  14.447  93.206  1.00  0.00     0.211 HD
ENDBRANCH  34  35
BRANCH  34  37
HETATM   37  C   UNL     1       2.541  11.624  92.529  1.00  0.00     0.185 C 
HETATM   38  O   UNL     1       1.277  12.012  92.582  1.00  0.00    -0.647 OA
BRANCH  37  39
HETATM   39  O   UNL     1       3.196  10.694  92.166  1.00  0.00    -0.774 OA
HETATM   40  H   UNL     1       2.575   9.951  91.574  1.00  0.00     0.167 HD
ENDBRANCH  37  39
ENDBRANCH  34  37
ENDBRANCH  33  34
ENDBRANCH  31  33
ENDBRANCH  26  31
ENDBRANCH  24  26
ENDBRANCH  19  22
ENDBRANCH  15  16
ENDBRANCH  11  14
ENDBRANCH   7   8
ENDBRANCH   2   7
TORSDOF 14
ENDMDL
