MODEL 1
REMARK VINA RESULT:      -7.0      0.000      0.000
REMARK  10 active torsions:
REMARK  status: ('A' for Active; 'I' for Inactive)
REMARK    1  A    between atoms: O_2  and  C_18 
REMARK    2  A    between atoms: O_5  and  N_8 
REMARK    3  A    between atoms: N_6  and  C_11 
REMARK    4  A    between atoms: N_7  and  C_15 
REMARK       I    between atoms: N_7  and  C_24 
REMARK       I    between atoms: N_8  and  C_23 
REMARK    5  A    between atoms: C_11  and  C_14 
REMARK    6  A    between atoms: C_15  and  C_18 
REMARK    7  A    between atoms: C_15  and  C_23 
REMARK    8  A    between atoms: C_21  and  C_26 
REMARK    9  A    between atoms: C_24  and  C_25 
REMARK   10  A    between atoms: C_29  and  C_32 
ROOT
HETATM    1  O   UNK     0      16.851   4.303  94.109  0.00  0.00    -0.388 OA
HETATM    2  N   UNK     0      14.826   2.667  92.958  0.00  0.00     0.096 N 
HETATM    3  C   UNK     0      14.727   4.133  92.948  0.00  0.00     0.299 C 
HETATM    4  C   UNK     0      15.602   2.223  94.124  0.00  0.00     0.299 C 
HETATM    5  C   UNK     0      16.125   4.746  92.961  0.00  0.00     0.198 C 
HETATM    6  C   UNK     0      16.979   2.881  94.111  0.00  0.00     0.198 C 
ENDROOT
BRANCH   2   7
HETATM    7  C   UNK     0      13.497   2.058  92.957  0.00  0.00     0.311 C 
BRANCH   7   8
HETATM    8  C   UNK     0      12.434   3.016  92.538  0.00  0.00    -0.030 A 
HETATM    9  C   UNK     0      12.111   3.151  91.187  0.00  0.00     0.010 A 
HETATM   10  C   UNK     0      11.118   4.048  90.794  0.00  0.00     0.021 A 
HETATM   11  C   UNK     0      10.448   4.808  91.752  0.00  0.00     0.018 A 
HETATM   12  C   UNK     0      10.769   4.673  93.101  0.00  0.00     0.021 A 
HETATM   13  C   UNK     0      11.762   3.777  93.495  0.00  0.00     0.010 A 
BRANCH  11  14
HETATM   14  C   UNK     0       9.428   5.727  91.349  0.00  0.00    -0.061 C 
HETATM   15  C   UNK     0       8.571   6.499  91.010  0.00  0.00    -0.061 C 
BRANCH  15  16
HETATM   16  C   UNK     0       7.553   7.417  90.608  0.00  0.00     0.018 A 
HETATM   17  C   UNK     0       6.301   6.942  90.215  0.00  0.00     0.022 A 
HETATM   18  C   UNK     0       5.306   7.838  89.825  0.00  0.00     0.018 A 
HETATM   19  C   UNK     0       5.584   9.189  89.837  0.00  0.00     0.032 A 
HETATM   20  C   UNK     0       6.812   9.685  90.220  0.00  0.00     0.018 A 
HETATM   21  C   UNK     0       7.808   8.789  90.610  0.00  0.00     0.022 A 
BRANCH  19  22
HETATM   22  C   UNK     0       4.524  10.143  89.419  0.00  0.00     0.252 C 
HETATM   23  O   UNK     0       3.756   9.828  88.514  0.00  0.00    -0.268 OA
HETATM   24  N   UNK     0       4.471  11.339  90.122  0.00  0.00    -0.341 N 
HETATM   25  H   UNK     0       5.124  11.520  90.876  0.00  0.00     0.163 HD
BRANCH  24  26
HETATM   26  C   UNK     0       3.486  12.355  89.852  0.00  0.00     0.207 C 
BRANCH  26  27
HETATM   27  C   UNK     0       3.008  13.071  91.121  0.00  0.00     0.146 C 
HETATM   28  C   UNK     0       2.303  12.131  92.092  0.00  0.00     0.042 C 
BRANCH  27  29
HETATM   29  O   UNK     0       4.124  13.668  91.781  0.00  0.00    -0.393 OA
HETATM   30  H   UNK     0       3.911  14.600  91.957  0.00  0.00     0.210 HD
ENDBRANCH  27  29
ENDBRANCH  26  27
BRANCH  26  31
HETATM   31  C   UNK     0       4.091  13.337  88.855  0.00  0.00     0.266 C 
HETATM   32  O   UNK     0       4.284  14.523  89.116  0.00  0.00    -0.269 OA
HETATM   33  N   UNK     0       4.352  12.750  87.640  0.00  0.00    -0.236 N 
HETATM   34  H   UNK     0       4.123  11.803  87.363  0.00  0.00     0.197 HD
BRANCH  33  35
HETATM   35  O   UNK     0       4.876  13.597  86.653  0.00  0.00    -0.287 OA
HETATM   36  H   UNK     0       5.700  13.127  86.440  0.00  0.00     0.244 HD
ENDBRANCH  33  35
ENDBRANCH  26  31
ENDBRANCH  24  26
ENDBRANCH  19  22
ENDBRANCH  15  16
ENDBRANCH  11  14
ENDBRANCH   7   8
ENDBRANCH   2   7
TORSDOF 10
ENDMDL
MODEL 2
REMARK VINA RESULT:      -6.7      1.495      2.055
REMARK  10 active torsions:
REMARK  status: ('A' for Active; 'I' for Inactive)
REMARK    1  A    between atoms: O_2  and  C_18 
REMARK    2  A    between atoms: O_5  and  N_8 
REMARK    3  A    between atoms: N_6  and  C_11 
REMARK    4  A    between atoms: N_7  and  C_15 
REMARK       I    between atoms: N_7  and  C_24 
REMARK       I    between atoms: N_8  and  C_23 
REMARK    5  A    between atoms: C_11  and  C_14 
REMARK    6  A    between atoms: C_15  and  C_18 
REMARK    7  A    between atoms: C_15  and  C_23 
REMARK    8  A    between atoms: C_21  and  C_26 
REMARK    9  A    between atoms: C_24  and  C_25 
REMARK   10  A    between atoms: C_29  and  C_32 
ROOT
HETATM    1  O   UNK     0      16.842   3.568  93.886  0.00  0.00    -0.388 OA
HETATM    2  N   UNK     0      14.259   3.081  92.795  0.00  0.00     0.096 N 
HETATM    3  C   UNK     0      15.237   1.998  92.966  0.00  0.00     0.299 C 
HETATM    4  C   UNK     0      14.954   4.358  92.583  0.00  0.00     0.299 C 
HETATM    5  C   UNK     0      16.176   2.327  94.124  0.00  0.00     0.198 C 
HETATM    6  C   UNK     0      15.899   4.632  93.749  0.00  0.00     0.198 C 
ENDROOT
BRANCH   2   7
HETATM    7  C   UNK     0      13.355   2.791  91.683  0.00  0.00     0.311 C 
BRANCH   7   8
HETATM    8  C   UNK     0      12.213   3.747  91.615  0.00  0.00    -0.030 A 
HETATM    9  C   UNK     0      11.589   4.170  92.789  0.00  0.00     0.010 A 
HETATM   10  C   UNK     0      10.519   5.063  92.727  0.00  0.00     0.021 A 
HETATM   11  C   UNK     0      10.075   5.533  91.492  0.00  0.00     0.018 A 
HETATM   12  C   UNK     0      10.697   5.111  90.319  0.00  0.00     0.021 A 
HETATM   13  C   UNK     0      11.767   4.218  90.380  0.00  0.00     0.010 A 
BRANCH  11  14
HETATM   14  C   UNK     0       8.978   6.450  91.429  0.00  0.00    -0.061 C 
HETATM   15  C   UNK     0       8.057   7.221  91.375  0.00  0.00    -0.061 C 
BRANCH  15  16
HETATM   16  C   UNK     0       6.963   8.137  91.313  0.00  0.00     0.018 A 
HETATM   17  C   UNK     0       5.653   7.665  91.396  0.00  0.00     0.022 A 
HETATM   18  C   UNK     0       4.584   8.559  91.337  0.00  0.00     0.018 A 
HETATM   19  C   UNK     0       4.849   9.906  91.198  0.00  0.00     0.032 A 
HETATM   20  C   UNK     0       6.134  10.398  91.113  0.00  0.00     0.018 A 
HETATM   21  C   UNK     0       7.203   9.504  91.171  0.00  0.00     0.022 A 
BRANCH  19  22
HETATM   22  C   UNK     0       3.710  10.858  91.134  0.00  0.00     0.252 C 
HETATM   23  O   UNK     0       2.655  10.498  90.616  0.00  0.00    -0.268 OA
HETATM   24  N   UNK     0       3.928  12.106  91.701  0.00  0.00    -0.341 N 
HETATM   25  H   UNK     0       4.818  12.324  92.133  0.00  0.00     0.163 HD
BRANCH  24  26
HETATM   26  C   UNK     0       2.914  13.129  91.739  0.00  0.00     0.207 C 
BRANCH  26  27
HETATM   27  C   UNK     0       2.898  13.900  93.065  0.00  0.00     0.146 C 
HETATM   28  C   UNK     0       4.083  13.550  93.958  0.00  0.00     0.042 C 
BRANCH  27  29
HETATM   29  O   UNK     0       2.914  15.302  92.801  0.00  0.00    -0.393 OA
HETATM   30  H   UNK     0       2.649  15.442  91.877  0.00  0.00     0.210 HD
ENDBRANCH  27  29
ENDBRANCH  26  27
BRANCH  26  31
HETATM   31  C   UNK     0       3.151  14.063  90.557  0.00  0.00     0.266 C 
HETATM   32  O   UNK     0       2.241  14.490  89.848  0.00  0.00    -0.269 OA
HETATM   33  N   UNK     0       4.485  14.330  90.365  0.00  0.00    -0.236 N 
HETATM   34  H   UNK     0       5.263  13.926  90.872  0.00  0.00     0.197 HD
BRANCH  33  35
HETATM   35  O   UNK     0       4.791  15.153  89.272  0.00  0.00    -0.287 OA
HETATM   36  H   UNK     0       5.706  15.400  89.491  0.00  0.00     0.244 HD
ENDBRANCH  33  35
ENDBRANCH  26  31
ENDBRANCH  24  26
ENDBRANCH  19  22
ENDBRANCH  15  16
ENDBRANCH  11  14
ENDBRANCH   7   8
ENDBRANCH   2   7
TORSDOF 10
ENDMDL
MODEL 3
REMARK VINA RESULT:      -6.4      1.820      2.499
REMARK  10 active torsions:
REMARK  status: ('A' for Active; 'I' for Inactive)
REMARK    1  A    between atoms: O_2  and  C_18 
REMARK    2  A    between atoms: O_5  and  N_8 
REMARK    3  A    between atoms: N_6  and  C_11 
REMARK    4  A    between atoms: N_7  and  C_15 
REMARK       I    between atoms: N_7  and  C_24 
REMARK       I    between atoms: N_8  and  C_23 
REMARK    5  A    between atoms: C_11  and  C_14 
REMARK    6  A    between atoms: C_15  and  C_18 
REMARK    7  A    between atoms: C_15  and  C_23 
REMARK    8  A    between atoms: C_21  and  C_26 
REMARK    9  A    between atoms: C_24  and  C_25 
REMARK   10  A    between atoms: C_29  and  C_32 
ROOT
HETATM    1  O   UNK     0      16.538   4.219  94.124  0.00  0.00    -0.388 OA
HETATM    2  N   UNK     0      14.610   2.738  92.643  0.00  0.00     0.096 N 
HETATM    3  C   UNK     0      14.616   4.208  92.641  0.00  0.00     0.299 C 
HETATM    4  C   UNK     0      15.160   2.234  93.909  0.00  0.00     0.299 C 
HETATM    5  C   UNK     0      16.034   4.719  92.884  0.00  0.00     0.198 C 
HETATM    6  C   UNK     0      16.564   2.792  94.122  0.00  0.00     0.198 C 
ENDROOT
BRANCH   2   7
HETATM    7  C   UNK     0      13.259   2.226  92.423  0.00  0.00     0.311 C 
BRANCH   7   8
HETATM    8  C   UNK     0      12.229   3.303  92.468  0.00  0.00    -0.030 A 
HETATM    9  C   UNK     0      11.956   3.955  93.671  0.00  0.00     0.010 A 
HETATM   10  C   UNK     0      10.991   4.961  93.714  0.00  0.00     0.021 A 
HETATM   11  C   UNK     0      10.301   5.316  92.555  0.00  0.00     0.018 A 
HETATM   12  C   UNK     0      10.574   4.665  91.353  0.00  0.00     0.021 A 
HETATM   13  C   UNK     0      11.538   3.658  91.309  0.00  0.00     0.010 A 
BRANCH  11  14
HETATM   14  C   UNK     0       9.313   6.349  92.599  0.00  0.00    -0.061 C 
HETATM   15  C   UNK     0       8.483   7.218  92.637  0.00  0.00    -0.061 C 
BRANCH  15  16
HETATM   16  C   UNK     0       7.495   8.250  92.683  0.00  0.00     0.018 A 
HETATM   17  C   UNK     0       7.865   9.578  92.469  0.00  0.00     0.022 A 
HETATM   18  C   UNK     0       6.901  10.585  92.511  0.00  0.00     0.018 A 
HETATM   19  C   UNK     0       5.589  10.242  92.765  0.00  0.00     0.032 A 
HETATM   20  C   UNK     0       5.198   8.938  92.980  0.00  0.00     0.018 A 
HETATM   21  C   UNK     0       6.162   7.930  92.939  0.00  0.00     0.022 A 
BRANCH  19  22
HETATM   22  C   UNK     0       4.563  11.316  92.812  0.00  0.00     0.252 C 
HETATM   23  O   UNK     0       3.805  11.379  93.777  0.00  0.00    -0.268 OA
HETATM   24  N   UNK     0       4.560  12.201  91.743  0.00  0.00    -0.341 N 
HETATM   25  H   UNK     0       5.233  12.101  90.993  0.00  0.00     0.163 HD
BRANCH  24  26
HETATM   26  C   UNK     0       3.642  13.308  91.655  0.00  0.00     0.207 C 
BRANCH  26  27
HETATM   27  C   UNK     0       4.315  14.660  91.923  0.00  0.00     0.146 C 
HETATM   28  C   UNK     0       4.901  15.281  90.660  0.00  0.00     0.042 C 
BRANCH  27  29
HETATM   29  O   UNK     0       3.364  15.564  92.486  0.00  0.00    -0.393 OA
HETATM   30  H   UNK     0       3.840  16.353  92.795  0.00  0.00     0.210 HD
ENDBRANCH  27  29
ENDBRANCH  26  27
BRANCH  26  31
HETATM   31  C   UNK     0       3.000  13.273  90.272  0.00  0.00     0.266 C 
HETATM   32  O   UNK     0       2.290  14.179  89.840  0.00  0.00    -0.269 OA
HETATM   33  N   UNK     0       3.276  12.106  89.601  0.00  0.00    -0.236 N 
HETATM   34  H   UNK     0       3.780  11.304  89.961  0.00  0.00     0.197 HD
BRANCH  33  35
HETATM   35  O   UNK     0       2.690  11.978  88.334  0.00  0.00    -0.287 OA
HETATM   36  H   UNK     0       3.066  12.756  87.889  0.00  0.00     0.244 HD
ENDBRANCH  33  35
ENDBRANCH  26  31
ENDBRANCH  24  26
ENDBRANCH  19  22
ENDBRANCH  15  16
ENDBRANCH  11  14
ENDBRANCH   7   8
ENDBRANCH   2   7
TORSDOF 10
ENDMDL
MODEL 4
REMARK VINA RESULT:      -5.9      2.784     12.847
REMARK  10 active torsions:
REMARK  status: ('A' for Active; 'I' for Inactive)
REMARK    1  A    between atoms: O_2  and  C_18 
REMARK    2  A    between atoms: O_5  and  N_8 
REMARK    3  A    between atoms: N_6  and  C_11 
REMARK    4  A    between atoms: N_7  and  C_15 
REMARK       I    between atoms: N_7  and  C_24 
REMARK       I    between atoms: N_8  and  C_23 
REMARK    5  A    between atoms: C_11  and  C_14 
REMARK    6  A    between atoms: C_15  and  C_18 
REMARK    7  A    between atoms: C_15  and  C_23 
REMARK    8  A    between atoms: C_21  and  C_26 
REMARK    9  A    between atoms: C_24  and  C_25 
REMARK   10  A    between atoms: C_29  and  C_32 
ROOT
HETATM    1  O   UNK     0       1.709  15.620  93.277  0.00  0.00    -0.388 OA
HETATM    2  N   UNK     0       3.356  13.787  91.853  0.00  0.00     0.096 N 
HETATM    3  C   UNK     0       3.837  15.127  92.219  0.00  0.00     0.299 C 
HETATM    4  C   UNK     0       1.898  13.806  91.677  0.00  0.00     0.299 C 
HETATM    5  C   UNK     0       3.123  15.604  93.481  0.00  0.00     0.198 C 
HETATM    6  C   UNK     0       1.230  14.315  92.951  0.00  0.00     0.198 C 
ENDROOT
BRANCH   2   7
HETATM    7  C   UNK     0       4.020  13.313  90.639  0.00  0.00     0.311 C 
BRANCH   7   8
HETATM    8  C   UNK     0       4.942  12.172  90.904  0.00  0.00    -0.030 A 
HETATM    9  C   UNK     0       4.938  11.550  92.153  0.00  0.00     0.010 A 
HETATM   10  C   UNK     0       5.802  10.484  92.403  0.00  0.00     0.021 A 
HETATM   11  C   UNK     0       6.667  10.039  91.403  0.00  0.00     0.018 A 
HETATM   12  C   UNK     0       6.671  10.660  90.156  0.00  0.00     0.021 A 
HETATM   13  C   UNK     0       5.808  11.727  89.906  0.00  0.00     0.010 A 
BRANCH  11  14
HETATM   14  C   UNK     0       7.552   8.944  91.659  0.00  0.00    -0.061 C 
HETATM   15  C   UNK     0       8.295   8.024  91.874  0.00  0.00    -0.061 C 
BRANCH  15  16
HETATM   16  C   UNK     0       9.178   6.931  92.131  0.00  0.00     0.018 A 
HETATM   17  C   UNK     0       9.540   6.620  93.443  0.00  0.00     0.022 A 
HETATM   18  C   UNK     0      10.400   5.552  93.694  0.00  0.00     0.018 A 
HETATM   19  C   UNK     0      10.880   4.817  92.629  0.00  0.00     0.032 A 
HETATM   20  C   UNK     0      10.538   5.104  91.324  0.00  0.00     0.018 A 
HETATM   21  C   UNK     0       9.678   6.172  91.072  0.00  0.00     0.022 A 
BRANCH  19  22
HETATM   22  C   UNK     0      11.798   3.681  92.898  0.00  0.00     0.252 C 
HETATM   23  O   UNK     0      11.405   2.533  92.702  0.00  0.00    -0.268 OA
HETATM   24  N   UNK     0      13.071   4.018  93.337  0.00  0.00    -0.341 N 
HETATM   25  H   UNK     0      13.333   4.990  93.452  0.00  0.00     0.163 HD
BRANCH  24  26
HETATM   26  C   UNK     0      14.082   3.030  93.616  0.00  0.00     0.207 C 
BRANCH  26  27
HETATM   27  C   UNK     0      14.173   1.950  92.530  0.00  0.00     0.146 C 
HETATM   28  C   UNK     0      15.046   2.375  91.355  0.00  0.00     0.042 C 
BRANCH  27  29
HETATM   29  O   UNK     0      14.704   0.751  93.093  0.00  0.00    -0.393 OA
HETATM   30  H   UNK     0      14.517   0.753  94.047  0.00  0.00     0.210 HD
ENDBRANCH  27  29
ENDBRANCH  26  27
BRANCH  26  31
HETATM   31  C   UNK     0      15.411   3.759  93.785  0.00  0.00     0.266 C 
HETATM   32  O   UNK     0      15.520   4.981  93.704  0.00  0.00    -0.269 OA
HETATM   33  N   UNK     0      16.456   2.892  93.996  0.00  0.00    -0.236 N 
HETATM   34  H   UNK     0      16.416   1.879  93.980  0.00  0.00     0.197 HD
BRANCH  33  35
HETATM   35  O   UNK     0      17.722   3.481  94.124  0.00  0.00    -0.287 OA
HETATM   36  H   UNK     0      18.054   3.011  94.908  0.00  0.00     0.244 HD
ENDBRANCH  33  35
ENDBRANCH  26  31
ENDBRANCH  24  26
ENDBRANCH  19  22
ENDBRANCH  15  16
ENDBRANCH  11  14
ENDBRANCH   7   8
ENDBRANCH   2   7
TORSDOF 10
ENDMDL
MODEL 5
REMARK VINA RESULT:      -5.3      2.133      3.267
REMARK  10 active torsions:
REMARK  status: ('A' for Active; 'I' for Inactive)
REMARK    1  A    between atoms: O_2  and  C_18 
REMARK    2  A    between atoms: O_5  and  N_8 
REMARK    3  A    between atoms: N_6  and  C_11 
REMARK    4  A    between atoms: N_7  and  C_15 
REMARK       I    between atoms: N_7  and  C_24 
REMARK       I    between atoms: N_8  and  C_23 
REMARK    5  A    between atoms: C_11  and  C_14 
REMARK    6  A    between atoms: C_15  and  C_18 
REMARK    7  A    between atoms: C_15  and  C_23 
REMARK    8  A    between atoms: C_21  and  C_26 
REMARK    9  A    between atoms: C_24  and  C_25 
REMARK   10  A    between atoms: C_29  and  C_32 
ROOT
HETATM    1  O   UNK     0      15.936   3.951  92.671  0.00  0.00    -0.388 OA
HETATM    2  N   UNK     0      13.681   2.253  92.304  0.00  0.00     0.096 N 
HETATM    3  C   UNK     0      13.859   3.475  91.508  0.00  0.00     0.299 C 
HETATM    4  C   UNK     0      14.318   2.411  93.618  0.00  0.00     0.299 C 
HETATM    5  C   UNK     0      15.346   3.795  91.379  0.00  0.00     0.198 C 
HETATM    6  C   UNK     0      15.794   2.756  93.440  0.00  0.00     0.198 C 
ENDROOT
BRANCH   2   7
HETATM    7  C   UNK     0      12.262   1.933  92.450  0.00  0.00     0.311 C 
BRANCH   7   8
HETATM    8  C   UNK     0      11.406   3.153  92.496  0.00  0.00    -0.030 A 
HETATM    9  C   UNK     0      10.457   3.375  91.497  0.00  0.00     0.010 A 
HETATM   10  C   UNK     0       9.657   4.517  91.538  0.00  0.00     0.021 A 
HETATM   11  C   UNK     0       9.806   5.435  92.577  0.00  0.00     0.018 A 
HETATM   12  C   UNK     0      10.753   5.214  93.574  0.00  0.00     0.021 A 
HETATM   13  C   UNK     0      11.554   4.072  93.534  0.00  0.00     0.010 A 
BRANCH  11  14
HETATM   14  C   UNK     0       8.984   6.605  92.619  0.00  0.00    -0.061 C 
HETATM   15  C   UNK     0       8.293   7.589  92.655  0.00  0.00    -0.061 C 
BRANCH  15  16
HETATM   16  C   UNK     0       7.471   8.757  92.698  0.00  0.00     0.018 A 
HETATM   17  C   UNK     0       7.593   9.657  93.757  0.00  0.00     0.022 A 
HETATM   18  C   UNK     0       6.793  10.798  93.798  0.00  0.00     0.018 A 
HETATM   19  C   UNK     0       5.889  11.015  92.779  0.00  0.00     0.032 A 
HETATM   20  C   UNK     0       5.748  10.141  91.721  0.00  0.00     0.018 A 
HETATM   21  C   UNK     0       6.548   8.999  91.680  0.00  0.00     0.022 A 
BRANCH  19  22
HETATM   22  C   UNK     0       5.035  12.230  92.823  0.00  0.00     0.252 C 
HETATM   23  O   UNK     0       4.788  12.750  93.909  0.00  0.00    -0.268 OA
HETATM   24  N   UNK     0       4.592  12.708  91.597  0.00  0.00    -0.341 N 
HETATM   25  H   UNK     0       4.858  12.240  90.739  0.00  0.00     0.163 HD
BRANCH  24  26
HETATM   26  C   UNK     0       3.777  13.889  91.474  0.00  0.00     0.207 C 
BRANCH  26  27
HETATM   27  C   UNK     0       3.558  14.309  90.015  0.00  0.00     0.146 C 
HETATM   28  C   UNK     0       4.746  15.074  89.443  0.00  0.00     0.042 C 
BRANCH  27  29
HETATM   29  O   UNK     0       3.324  13.151  89.215  0.00  0.00    -0.393 OA
HETATM   30  H   UNK     0       4.170  12.689  89.092  0.00  0.00     0.210 HD
ENDBRANCH  27  29
ENDBRANCH  26  27
BRANCH  26  31
HETATM   31  C   UNK     0       2.452  13.616  92.177  0.00  0.00     0.266 C 
HETATM   32  O   UNK     0       1.539  12.974  91.661  0.00  0.00    -0.269 OA
HETATM   33  N   UNK     0       2.393  14.201  93.419  0.00  0.00    -0.236 N 
HETATM   34  H   UNK     0       3.088  14.809  93.837  0.00  0.00     0.197 HD
BRANCH  33  35
HETATM   35  O   UNK     0       1.190  14.029  94.119  0.00  0.00    -0.287 OA
HETATM   36  H   UNK     0       0.894  14.953  94.186  0.00  0.00     0.244 HD
ENDBRANCH  33  35
ENDBRANCH  26  31
ENDBRANCH  24  26
ENDBRANCH  19  22
ENDBRANCH  15  16
ENDBRANCH  11  14
ENDBRANCH   7   8
ENDBRANCH   2   7
TORSDOF 10
ENDMDL
MODEL 6
REMARK VINA RESULT:      -4.8      2.179      2.729
REMARK  10 active torsions:
REMARK  status: ('A' for Active; 'I' for Inactive)
REMARK    1  A    between atoms: O_2  and  C_18 
REMARK    2  A    between atoms: O_5  and  N_8 
REMARK    3  A    between atoms: N_6  and  C_11 
REMARK    4  A    between atoms: N_7  and  C_15 
REMARK       I    between atoms: N_7  and  C_24 
REMARK       I    between atoms: N_8  and  C_23 
REMARK    5  A    between atoms: C_11  and  C_14 
REMARK    6  A    between atoms: C_15  and  C_18 
REMARK    7  A    between atoms: C_15  and  C_23 
REMARK    8  A    between atoms: C_21  and  C_26 
REMARK    9  A    between atoms: C_24  and  C_25 
REMARK   10  A    between atoms: C_29  and  C_32 
ROOT
HETATM    1  O   UNK     0      15.912   3.821  94.124  0.00  0.00    -0.388 OA
HETATM    2  N   UNK     0      14.018   2.822  92.249  0.00  0.00     0.096 N 
HETATM    3  C   UNK     0      13.864   4.148  92.863  0.00  0.00     0.299 C 
HETATM    4  C   UNK     0      14.743   1.926  93.160  0.00  0.00     0.299 C 
HETATM    5  C   UNK     0      15.235   4.709  93.232  0.00  0.00     0.198 C 
HETATM    6  C   UNK     0      16.093   2.539  93.523  0.00  0.00     0.198 C 
ENDROOT
BRANCH   2   7
HETATM    7  C   UNK     0      12.715   2.260  91.896  0.00  0.00     0.311 C 
BRANCH   7   8
HETATM    8  C   UNK     0      11.607   3.241  92.074  0.00  0.00    -0.030 A 
HETATM    9  C   UNK     0      10.732   3.502  91.019  0.00  0.00     0.010 A 
HETATM   10  C   UNK     0       9.696   4.421  91.183  0.00  0.00     0.021 A 
HETATM   11  C   UNK     0       9.534   5.077  92.403  0.00  0.00     0.018 A 
HETATM   12  C   UNK     0      10.407   4.817  93.457  0.00  0.00     0.021 A 
HETATM   13  C   UNK     0      11.444   3.899  93.293  0.00  0.00     0.010 A 
BRANCH  11  14
HETATM   14  C   UNK     0       8.470   6.018  92.572  0.00  0.00    -0.061 C 
HETATM   15  C   UNK     0       7.576   6.810  92.714  0.00  0.00    -0.061 C 
BRANCH  15  16
HETATM   16  C   UNK     0       6.514   7.751  92.883  0.00  0.00     0.018 A 
HETATM   17  C   UNK     0       6.677   9.070  92.457  0.00  0.00     0.022 A 
HETATM   18  C   UNK     0       5.640   9.988  92.621  0.00  0.00     0.018 A 
HETATM   19  C   UNK     0       4.464   9.568  93.205  0.00  0.00     0.032 A 
HETATM   20  C   UNK     0       4.278   8.271  93.635  0.00  0.00     0.018 A 
HETATM   21  C   UNK     0       5.315   7.352  93.473  0.00  0.00     0.022 A 
BRANCH  19  22
HETATM   22  C   UNK     0       3.360  10.547  93.381  0.00  0.00     0.252 C 
HETATM   23  O   UNK     0       2.387  10.238  94.065  0.00  0.00    -0.268 OA
HETATM   24  N   UNK     0       3.533  11.776  92.760  0.00  0.00    -0.341 N 
HETATM   25  H   UNK     0       4.375  11.969  92.231  0.00  0.00     0.163 HD
BRANCH  24  26
HETATM   26  C   UNK     0       2.564  12.838  92.857  0.00  0.00     0.207 C 
BRANCH  26  27
HETATM   27  C   UNK     0       2.947  13.898  93.897  0.00  0.00     0.146 C 
HETATM   28  C   UNK     0       4.456  14.034  94.064  0.00  0.00     0.042 C 
BRANCH  27  29
HETATM   29  O   UNK     0       2.408  15.162  93.511  0.00  0.00    -0.393 OA
HETATM   30  H   UNK     0       2.098  15.619  94.311  0.00  0.00     0.210 HD
ENDBRANCH  27  29
ENDBRANCH  26  27
BRANCH  26  31
HETATM   31  C   UNK     0       2.405  13.453  91.471  0.00  0.00     0.266 C 
HETATM   32  O   UNK     0       1.481  14.208  91.174  0.00  0.00    -0.269 OA
HETATM   33  N   UNK     0       3.384  13.033  90.602  0.00  0.00    -0.236 N 
HETATM   34  H   UNK     0       4.105  12.345  90.787  0.00  0.00     0.197 HD
BRANCH  33  35
HETATM   35  O   UNK     0       3.288  13.524  89.292  0.00  0.00    -0.287 OA
HETATM   36  H   UNK     0       3.492  12.718  88.789  0.00  0.00     0.244 HD
ENDBRANCH  33  35
ENDBRANCH  26  31
ENDBRANCH  24  26
ENDBRANCH  19  22
ENDBRANCH  15  16
ENDBRANCH  11  14
ENDBRANCH   7   8
ENDBRANCH   2   7
TORSDOF 10
ENDMDL
MODEL 7
REMARK VINA RESULT:      -4.7      1.980     12.371
REMARK  10 active torsions:
REMARK  status: ('A' for Active; 'I' for Inactive)
REMARK    1  A    between atoms: O_2  and  C_18 
REMARK    2  A    between atoms: O_5  and  N_8 
REMARK    3  A    between atoms: N_6  and  C_11 
REMARK    4  A    between atoms: N_7  and  C_15 
REMARK       I    between atoms: N_7  and  C_24 
REMARK       I    between atoms: N_8  and  C_23 
REMARK    5  A    between atoms: C_11  and  C_14 
REMARK    6  A    between atoms: C_15  and  C_18 
REMARK    7  A    between atoms: C_15  and  C_23 
REMARK    8  A    between atoms: C_21  and  C_26 
REMARK    9  A    between atoms: C_24  and  C_25 
REMARK   10  A    between atoms: C_29  and  C_32 
ROOT
HETATM    1  O   UNK     0       5.560  14.745  88.876  0.00  0.00    -0.388 OA
HETATM    2  N   UNK     0       3.552  13.024  89.930  0.00  0.00     0.096 N 
HETATM    3  C   UNK     0       4.052  14.178  90.691  0.00  0.00     0.299 C 
HETATM    4  C   UNK     0       4.600  12.522  89.031  0.00  0.00     0.299 C 
HETATM    5  C   UNK     0       4.537  15.260  89.730  0.00  0.00     0.198 C 
HETATM    6  C   UNK     0       5.072  13.643  88.110  0.00  0.00     0.198 C 
ENDROOT
BRANCH   2   7
HETATM    7  C   UNK     0       3.092  11.969  90.831  0.00  0.00     0.311 C 
BRANCH   7   8
HETATM    8  C   UNK     0       4.137  10.935  91.076  0.00  0.00    -0.030 A 
HETATM    9  C   UNK     0       5.197  11.208  91.941  0.00  0.00     0.010 A 
HETATM   10  C   UNK     0       6.177  10.242  92.169  0.00  0.00     0.021 A 
HETATM   11  C   UNK     0       6.095   9.003  91.534  0.00  0.00     0.018 A 
HETATM   12  C   UNK     0       5.036   8.730  90.670  0.00  0.00     0.021 A 
HETATM   13  C   UNK     0       4.057   9.696  90.441  0.00  0.00     0.010 A 
BRANCH  11  14
HETATM   14  C   UNK     0       7.099   8.011  91.770  0.00  0.00    -0.061 C 
HETATM   15  C   UNK     0       7.942   7.178  91.968  0.00  0.00    -0.061 C 
BRANCH  15  16
HETATM   16  C   UNK     0       8.944   6.187  92.204  0.00  0.00     0.018 A 
HETATM   17  C   UNK     0       9.560   5.548  91.127  0.00  0.00     0.022 A 
HETATM   18  C   UNK     0      10.539   4.582  91.357  0.00  0.00     0.018 A 
HETATM   19  C   UNK     0      10.882   4.276  92.658  0.00  0.00     0.032 A 
HETATM   20  C   UNK     0      10.288   4.893  93.739  0.00  0.00     0.018 A 
HETATM   21  C   UNK     0       9.308   5.858  93.510  0.00  0.00     0.022 A 
BRANCH  19  22
HETATM   22  C   UNK     0      11.924   3.246  92.902  0.00  0.00     0.252 C 
HETATM   23  O   UNK     0      11.703   2.081  92.580  0.00  0.00    -0.268 OA
HETATM   24  N   UNK     0      13.106   3.700  93.470  0.00  0.00    -0.341 N 
HETATM   25  H   UNK     0      13.227   4.682  93.687  0.00  0.00     0.163 HD
BRANCH  24  26
HETATM   26  C   UNK     0      14.219   2.827  93.745  0.00  0.00     0.207 C 
BRANCH  26  27
HETATM   27  C   UNK     0      14.428   1.768  92.655  0.00  0.00     0.146 C 
HETATM   28  C   UNK     0      15.409   2.222  91.580  0.00  0.00     0.042 C 
BRANCH  27  29
HETATM   29  O   UNK     0      14.913   0.563  93.246  0.00  0.00    -0.393 OA
HETATM   30  H   UNK     0      14.825  -0.153  92.595  0.00  0.00     0.210 HD
ENDBRANCH  27  29
ENDBRANCH  26  27
BRANCH  26  31
HETATM   31  C   UNK     0      15.461   3.696  93.919  0.00  0.00     0.266 C 
HETATM   32  O   UNK     0      16.580   3.231  94.124  0.00  0.00    -0.269 OA
HETATM   33  N   UNK     0      15.169   5.037  93.857  0.00  0.00    -0.236 N 
HETATM   34  H   UNK     0      14.249   5.454  93.779  0.00  0.00     0.197 HD
BRANCH  33  35
HETATM   35  O   UNK     0      16.252   5.907  94.046  0.00  0.00    -0.287 OA
HETATM   36  H   UNK     0      16.994   5.300  93.881  0.00  0.00     0.244 HD
ENDBRANCH  33  35
ENDBRANCH  26  31
ENDBRANCH  24  26
ENDBRANCH  19  22
ENDBRANCH  15  16
ENDBRANCH  11  14
ENDBRANCH   7   8
ENDBRANCH   2   7
TORSDOF 10
ENDMDL
