MODEL 1
REMARK VINA RESULT:      -7.0      0.000      0.000
REMARK  11 active torsions:
REMARK  status: ('A' for Active; 'I' for Inactive)
REMARK    1  A    between atoms: O_2  and  C_18 
REMARK    2  A    between atoms: O_5  and  P_8 
REMARK    3  A    between atoms: N_6  and  C_11 
REMARK    4  A    between atoms: N_7  and  C_15 
REMARK       I    between atoms: N_7  and  C_24 
REMARK    5  A    between atoms: P_8  and  C_23 
REMARK    6  A    between atoms: C_11  and  C_14 
REMARK    7  A    between atoms: C_15  and  C_18 
REMARK    8  A    between atoms: C_15  and  C_23 
REMARK    9  A    between atoms: C_21  and  C_26 
REMARK   10  A    between atoms: C_24  and  C_25 
REMARK   11  A    between atoms: C_29  and  C_32 
ROOT
HETATM    1  O   UNL     1      16.283   4.274  94.113  1.00  0.00     0.000 OA
HETATM    2  N   UNL     1      14.524   2.690  92.533  1.00  0.00     0.000 N 
HETATM    3  C   UNL     1      14.454   4.158  92.522  1.00  0.00     0.000 C 
HETATM    4  C   UNL     1      15.025   2.219  93.831  1.00  0.00     0.000 C 
HETATM    5  C   UNL     1      15.828   4.742  92.842  1.00  0.00     0.000 C 
HETATM    6  C   UNL     1      16.383   2.849  94.122  1.00  0.00     0.000 C 
ENDROOT
BRANCH   2   7
HETATM    7  C   UNL     1      13.215   2.108  92.238  1.00  0.00     0.000 C 
BRANCH   7   8
HETATM    8  C   UNL     1      12.173   3.146  91.999  1.00  0.00     0.000 A 
HETATM    9  C   UNL     1      11.685   3.360  90.709  1.00  0.00     0.000 A 
HETATM   10  C   UNL     1      10.711   4.332  90.484  1.00  0.00     0.000 A 
HETATM   11  C   UNL     1      10.224   5.089  91.549  1.00  0.00     0.000 A 
HETATM   12  C   UNL     1      10.710   4.877  92.837  1.00  0.00     0.000 A 
HETATM   13  C   UNL     1      11.684   3.905  93.063  1.00  0.00     0.000 A 
BRANCH  11  14
HETATM   14  C   UNL     1       9.223   6.085  91.318  1.00  0.00     0.000 C 
HETATM   15  C   UNL     1       8.383   6.923  91.124  1.00  0.00     0.000 C 
BRANCH  15  16
HETATM   16  C   UNL     1       7.383   7.919  90.893  1.00  0.00     0.000 A 
HETATM   17  C   UNL     1       7.627   9.246  91.246  1.00  0.00     0.000 A 
HETATM   18  C   UNL     1       6.653  10.218  91.018  1.00  0.00     0.000 A 
HETATM   19  C   UNL     1       5.458   9.841  90.441  1.00  0.00     0.000 A 
HETATM   20  C   UNL     1       5.193   8.536  90.083  1.00  0.00     0.000 A 
HETATM   21  C   UNL     1       6.166   7.564  90.311  1.00  0.00     0.000 A 
BRANCH  19  22
HETATM   22  C   UNL     1       4.420  10.877  90.200  1.00  0.00     0.000 C 
HETATM   23  O   UNL     1       3.271  10.525  89.945  1.00  0.00     0.000 OA
HETATM   24  N   UNL     1       4.840  12.195  90.308  1.00  0.00     0.000 N 
HETATM   25  HN  UNL     1       5.801  12.410  90.546  1.00  0.00     0.000 HD
BRANCH  24  26
HETATM   26  C   UNL     1       3.946  13.311  90.126  1.00  0.00     0.000 C 
BRANCH  26  27
HETATM   27  C   UNL     1       3.466  13.909  91.455  1.00  0.00     0.000 C 
HETATM   28  C   UNL     1       2.011  13.569  91.756  1.00  0.00     0.000 C 
BRANCH  27  29
HETATM   29  O   UNL     1       4.285  13.427  92.519  1.00  0.00     0.000 OA
HETATM   30  H   UNL     1       5.124  13.917  92.505  1.00  0.00     0.000 HD
ENDBRANCH  27  29
ENDBRANCH  26  27
BRANCH  26  31
HETATM   31  C   UNL     1       4.667  14.352  89.278  1.00  0.00     0.000 C 
HETATM   32  O   UNL     1       4.606  15.560  89.504  1.00  0.00     0.000 OA
BRANCH  31  33
HETATM   33  P   UNL     1       5.348  13.785  88.227  1.00  0.00     0.000 P 
HETATM   34  H   UNL     1       5.936  14.804  87.505  1.00  0.00     0.000 HD
BRANCH  33  35
HETATM   35  O   UNL     1       4.576  13.021  87.342  1.00  0.00     0.000 OA
HETATM   36  H   UNL     1       5.179  12.275  87.183  1.00  0.00     0.000 HD
ENDBRANCH  33  35
ENDBRANCH  31  33
ENDBRANCH  26  31
ENDBRANCH  24  26
ENDBRANCH  19  22
ENDBRANCH  15  16
ENDBRANCH  11  14
ENDBRANCH   7   8
ENDBRANCH   2   7
TORSDOF 11
ENDMDL
